<event>
 5    1  0.3179758E-002  0.1249949E+03  0.7818608E-02  0.1235077E+00
          4   -1    0    0  501    0  0.00000000000E+00  0.00000000000E+00  0.25498007499E+02  0.25529615869E+02  0.12700000000E+01 0.  1.
         -4   -1    0    0    0  501 -0.00000000000E+00 -0.00000000000E+00 -0.15305666157E+03  0.15306193044E+03  0.12700000000E+01 0.  1.
         25    2    1    2    0    0  0.00000000000E+00  0.00000000000E+00 -0.12755865407E+03  0.17859154631E+03  0.12499492064E+03 0.  0.
    9000005    1    3    3    0    0  0.15042186889E+02  0.18897244404E+02 -0.14612476401E+03  0.14811083650E+03  0.10000000000E+01 0.  0.
    9000005    1    3    3    0    0 -0.15042186889E+02 -0.18897244404E+02  0.18566109937E+02  0.30480709812E+02  0.10000000000E+01 0.  0.
<mgrwt>
<rscale>  0 0.12499492E+03</rscale>
<asrwt>0</asrwt>
<pdfrwt beam="1">  1        4 0.39256072E-02 0.12499492E+03</pdfrwt>
<pdfrwt beam="2">  1       -4 0.23550015E-01 0.12499492E+03</pdfrwt>
<totfact> 0.93881839E+03</totfact>
</mgrwt>
</event>
<event>
 5    1  0.3179758E-002  0.1250001E+03  0.7818608E-02  0.1235069E+00
          4   -1    0    0  501    0  0.00000000000E+00  0.00000000000E+00  0.15656079962E+03  0.15656595057E+03  0.12700000000E+01 0.  1.
         -4   -1    0    0    0  501 -0.00000000000E+00 -0.00000000000E+00 -0.24928702304E+02  0.24961031601E+02  0.12700000000E+01 0.  1.
         25    2    1    2    0    0  0.00000000000E+00  0.00000000000E+00  0.13163209732E+03  0.18152698217E+03  0.12500014485E+03 0.  0.
    9000005    1    3    3    0    0 -0.55259244742E+02  0.13668560379E+02  0.28371293147E+02  0.63610879157E+02  0.10000000000E+01 0.  0.
    9000005    1    3    3    0    0  0.55259244742E+02 -0.13668560379E+02  0.10326080417E+03  0.11791610301E+03  0.10000000000E+01 0.  0.
<mgrwt>
<rscale>  0 0.12500014E+03</rscale>
<asrwt>0</asrwt>
<pdfrwt beam="1">  1        4 0.24089160E-01 0.12500014E+03</pdfrwt>
<pdfrwt beam="2">  1       -4 0.38380681E-02 0.12500014E+03</pdfrwt>
<totfact> 0.93342558E+03</totfact>
</mgrwt>
</event>
<event>
 5    1  0.3179758E-002  0.1250000E+03  0.7818608E-02  0.1235069E+00
         -4   -1    0    0    0  501 -0.00000000000E+00  0.00000000000E+00  0.35811060426E+02  0.35833572929E+02  0.12700000000E+01 0. -1.
          4   -1    0    0  501    0  0.00000000000E+00 -0.00000000000E+00 -0.10901899805E+03  0.10902639513E+03  0.12700000000E+01 0. -1.
         25    2    1    2    0    0  0.00000000000E+00  0.00000000000E+00 -0.73207937620E+02  0.14485996806E+03  0.12500003286E+03 0.  0.
    9000005    1    3    3    0    0  0.59076722512E+02 -0.19956268349E+02 -0.41373748857E+02  0.74840489601E+02  0.10000000000E+01 0.  0.
    9000005    1    3    3    0    0 -0.59076722512E+02  0.19956268349E+02 -0.31834188762E+02  0.70019478457E+02  0.10000000000E+01 0.  0.
<mgrwt>
<rscale>  0 0.12500003E+03</rscale>
<asrwt>0</asrwt>
<pdfrwt beam="2">  1        4 0.16774454E-01 0.12500003E+03</pdfrwt>
<pdfrwt beam="1">  1       -4 0.55116947E-02 0.12500003E+03</pdfrwt>
<totfact> 0.10033827E+04</totfact>
</mgrwt>
</event>
<event>
 5    1  0.3179758E-002  0.1249917E+03  0.7818608E-02  0.1235082E+00
          4   -1    0    0  501    0  0.00000000000E+00  0.00000000000E+00  0.12472753396E+02  0.12537243608E+02  0.12700000000E+01 0.  1.
         -4   -1    0    0    0  501 -0.00000000000E+00 -0.00000000000E+00 -0.31226774252E+03  0.31227032507E+03  0.12700000000E+01 0.  1.
         25    2    1    2    0    0  0.00000000000E+00  0.00000000000E+00 -0.29979498912E+03  0.32480756868E+03  0.12499168439E+03 0.  0.
    9000005    1    3    3    0    0  0.61822091145E+02 -0.89404811669E+01 -0.15426685874E+03  0.16643667523E+03  0.10000000000E+01 0.  0.
    9000005    1    3    3    0    0 -0.61822091145E+02  0.89404811669E+01 -0.14552813038E+03  0.15837089344E+03  0.10000000000E+01 0.  0.
<mgrwt>
<rscale>  0 0.12499168E+03</rscale>
<asrwt>0</asrwt>
<pdfrwt beam="1">  1        4 0.19240448E-02 0.12499168E+03</pdfrwt>
<pdfrwt beam="2">  1       -4 0.48046345E-01 0.12499168E+03</pdfrwt>
<totfact> 0.72601335E+03</totfact>
</mgrwt>
</event>
<event>
 5    1  0.3179758E-002  0.1250002E+03  0.7818608E-02  0.1235069E+00
          4   -1    0    0  501    0  0.00000000000E+00  0.00000000000E+00  0.26158636056E+02  0.26189447117E+02  0.12700000000E+01 0. -1.
         -4   -1    0    0    0  501 -0.00000000000E+00 -0.00000000000E+00 -0.14920826154E+03  0.14921366631E+03  0.12700000000E+01 0. -1.
         25    2    1    2    0    0  0.00000000000E+00  0.00000000000E+00 -0.12304962549E+03  0.17540311342E+03  0.12500016746E+03 0.  0.
    9000005    1    3    3    0    0  0.47431543665E+02  0.38176829748E+02 -0.81271845599E+02  0.10155458902E+03  0.10000000000E+01 0.  0.
    9000005    1    3    3    0    0 -0.47431543665E+02 -0.38176829748E+02 -0.41777779886E+02  0.73848524402E+02  0.10000000000E+01 0.  0.
<mgrwt>
<rscale>  0 0.12500017E+03</rscale>
<asrwt>0</asrwt>
<pdfrwt beam="1">  1        4 0.40271915E-02 0.12500017E+03</pdfrwt>
<pdfrwt beam="2">  1       -4 0.22957902E-01 0.12500017E+03</pdfrwt>
<totfact> 0.94450709E+03</totfact>
</mgrwt>
</event>
<event>
 4    1  0.3179758E-002  0.1250738E+03  0.7818608E-02  0.1234954E+00
         -4   -1    0    0    0  501 -0.00000000000E+00  0.00000000000E+00  0.45309519752E+02  0.45327314945E+02  0.12700000000E+01 0.  1.
          4   -1    0    0  501    0  0.00000000000E+00 -0.00000000000E+00 -0.86275018254E+02  0.86284365181E+02  0.12700000000E+01 0.  1.
    9000005    1    1    2    0    0  0.62147453249E+02  0.27977074921E+01 -0.13849891180E+02  0.63741294294E+02  0.10000000000E+01 0.  0.
    9000005    1    1    2    0    0 -0.62147453249E+02 -0.27977074921E+01 -0.27115607322E+02  0.67870385832E+02  0.10000000000E+01 0.  0.
<mgrwt>
<rscale>  0 0.12507383E+03</rscale>
<asrwt>0</asrwt>
<pdfrwt beam="2">  1        4 0.13275168E-01 0.12507383E+03</pdfrwt>
<pdfrwt beam="1">  1       -4 0.69727832E-02 0.12507383E+03</pdfrwt>
<totfact> 0.10292841E+04</totfact>
</mgrwt>
</event>
<event>
 5    1  0.3179758E-002  0.1249832E+03  0.7818608E-02  0.1235095E+00
          4   -1    0    0  501    0  0.00000000000E+00  0.00000000000E+00  0.27056307495E+03  0.27056605557E+03  0.12700000000E+01 0.  1.
         -4   -1    0    0    0  501 -0.00000000000E+00 -0.00000000000E+00 -0.14402607956E+02  0.14458492865E+02  0.12700000000E+01 0.  1.
         25    2    1    2    0    0  0.00000000000E+00  0.00000000000E+00  0.25616046699E+03  0.28502454843E+03  0.12498323231E+03 0.  0.
    9000005    1    3    3    0    0  0.13366245443E+01  0.54129755570E+02  0.19919334132E+03  0.20642384608E+03  0.10000000000E+01 0.  0.
    9000005    1    3    3    0    0 -0.13366245443E+01 -0.54129755570E+02  0.56967125672E+02  0.78600702354E+02  0.10000000000E+01 0.  0.
<mgrwt>
<rscale>  0 0.12498323E+03</rscale>
<asrwt>0</asrwt>
<pdfrwt beam="1">  1        4 0.41629613E-01 0.12498323E+03</pdfrwt>
<pdfrwt beam="2">  1       -4 0.22203142E-02 0.12498323E+03</pdfrwt>
<totfact> 0.77545460E+03</totfact>
</mgrwt>
</event>
<event>
 5    1  0.3179758E-002  0.1249855E+03  0.7818608E-02  0.1235092E+00
          4   -1    0    0  501    0  0.00000000000E+00  0.00000000000E+00  0.14262079242E+03  0.14262644681E+03  0.12700000000E+01 0.  1.
         -4   -1    0    0    0  501 -0.00000000000E+00 -0.00000000000E+00 -0.27361769386E+02  0.27391227134E+02  0.12700000000E+01 0.  1.
         25    2    1    2    0    0  0.00000000000E+00  0.00000000000E+00  0.11525902303E+03  0.17001767394E+03  0.12498546741E+03 0.  0.
    9000005    1    3    3    0    0  0.45721174541E+02  0.38967795038E+02  0.81010323021E+02  0.10085924493E+03  0.10000000000E+01 0.  0.
    9000005    1    3    3    0    0 -0.45721174541E+02 -0.38967795038E+02  0.34248700010E+02  0.69158429016E+02  0.10000000000E+01 0.  0.
<mgrwt>
<rscale>  0 0.12498547E+03</rscale>
<asrwt>0</asrwt>
<pdfrwt beam="1">  1        4 0.21944361E-01 0.12498547E+03</pdfrwt>
<pdfrwt beam="2">  1       -4 0.42122040E-02 0.12498547E+03</pdfrwt>
<totfact> 0.95476482E+03</totfact>
</mgrwt>
</event>
<event>
 5    1  0.3179758E-002  0.1249992E+03  0.7818608E-02  0.1235070E+00
         -4   -1    0    0    0  501 -0.00000000000E+00  0.00000000000E+00  0.36291424730E+02  0.36313639434E+02  0.12700000000E+01 0.  1.
          4   -1    0    0  501    0  0.00000000000E+00 -0.00000000000E+00 -0.10757538192E+03  0.10758287826E+03  0.12700000000E+01 0.  1.
         25    2    1    2    0    0  0.00000000000E+00  0.00000000000E+00 -0.71283957187E+02  0.14389651769E+03  0.12499922101E+03 0.  0.
    9000005    1    3    3    0    0 -0.48542842986E+02  0.10433124824E+02  0.80413497251E+01  0.50308259800E+02  0.10000000000E+01 0.  0.
    9000005    1    3    3    0    0  0.48542842986E+02 -0.10433124824E+02 -0.79325306912E+02  0.93588257893E+02  0.10000000000E+01 0.  0.
<mgrwt>
<rscale>  0 0.12499922E+03</rscale>
<asrwt>0</asrwt>
<pdfrwt beam="2">  1        4 0.16552344E-01 0.12499922E+03</pdfrwt>
<pdfrwt beam="1">  1       -4 0.55855816E-02 0.12499922E+03</pdfrwt>
<totfact> 0.10053633E+04</totfact>
</mgrwt>
</event>
<event>
 5    1  0.3179758E-002  0.1249744E+03  0.7818608E-02  0.1235109E+00
         -4   -1    0    0    0  501 -0.00000000000E+00  0.00000000000E+00  0.14503384861E+03  0.14503940893E+03  0.12700000000E+01 0. -1.
          4   -1    0    0  501    0  0.00000000000E+00 -0.00000000000E+00 -0.26901264498E+02  0.26931225957E+02  0.12700000000E+01 0. -1.
         25    2    1    2    0    0  0.00000000000E+00  0.00000000000E+00  0.11813258411E+03  0.17197063489E+03  0.12497436471E+03 0.  0.
    9000005    1    3    3    0    0 -0.52832227703E+02 -0.31789897842E+02  0.45182113420E+02  0.76447794357E+02  0.10000000000E+01 0.  0.
    9000005    1    3    3    0    0  0.52832227703E+02  0.31789897842E+02  0.72950470693E+02  0.95522840532E+02  0.10000000000E+01 0.  0.
<mgrwt>
<rscale>  0 0.12497436E+03</rscale>
<asrwt>0</asrwt>
<pdfrwt beam="2">  1        4 0.41413885E-02 0.12497436E+03</pdfrwt>
<pdfrwt beam="1">  1       -4 0.22315632E-01 0.12497436E+03</pdfrwt>
<totfact> 0.95137326E+03</totfact>
</mgrwt>
</event>
<event>
 5    1  0.3179758E-002  0.1250012E+03  0.7818608E-02  0.1235067E+00
         -4   -1    0    0    0  501 -0.00000000000E+00  0.00000000000E+00  0.18090488774E+02  0.18135012657E+02  0.12700000000E+01 0. -1.
          4   -1    0    0  501    0  0.00000000000E+00 -0.00000000000E+00 -0.21562065103E+03  0.21562439113E+03  0.12700000000E+01 0. -1.
         25    2    1    2    0    0  0.00000000000E+00  0.00000000000E+00 -0.19753016226E+03  0.23375940379E+03  0.12500117543E+03 0.  0.
    9000005    1    3    3    0    0  0.69870203335E+01  0.54871960429E+02 -0.15314399637E+03  0.16283069157E+03  0.10000000000E+01 0.  0.
    9000005    1    3    3    0    0 -0.69870203335E+01 -0.54871960429E+02 -0.44386165892E+02  0.70928712219E+02  0.10000000000E+01 0.  0.
<mgrwt>
<rscale>  0 0.12500118E+03</rscale>
<asrwt>0</asrwt>
<pdfrwt beam="2">  1        4 0.33176119E-01 0.12500118E+03</pdfrwt>
<pdfrwt beam="1">  1       -4 0.27868649E-02 0.12500118E+03</pdfrwt>
<totfact> 0.84733439E+03</totfact>
</mgrwt>
</event>
<event>
 5    1  0.3179758E-002  0.1249995E+03  0.7818608E-02  0.1235070E+00
         -4   -1    0    0    0  501 -0.00000000000E+00  0.00000000000E+00  0.24840293966E+02  0.24872738175E+02  0.12700000000E+01 0.  1.
          4   -1    0    0  501    0  0.00000000000E+00 -0.00000000000E+00 -0.15711561064E+03  0.15712074340E+03  0.12700000000E+01 0.  1.
         25    2    1    2    0    0  0.00000000000E+00  0.00000000000E+00 -0.13227531668E+03  0.18199348158E+03  0.12499947174E+03 0.  0.
    9000005    1    3    3    0    0 -0.52611510243E+02 -0.23844476111E+02 -0.31417293491E+02  0.65761511399E+02  0.10000000000E+01 0.  0.
    9000005    1    3    3    0    0  0.52611510243E+02  0.23844476111E+02 -0.10085802319E+03  0.11623197018E+03  0.10000000000E+01 0.  0.
<mgrwt>
<rscale>  0 0.12499947E+03</rscale>
<asrwt>0</asrwt>
<pdfrwt beam="2">  1        4 0.24174522E-01 0.12499947E+03</pdfrwt>
<pdfrwt beam="1">  1       -4 0.38244743E-02 0.12499947E+03</pdfrwt>
<totfact> 0.93260500E+03</totfact>
</mgrwt>
</event>
<event>
 5    1  0.3179758E-002  0.1250025E+03  0.7818608E-02  0.1235065E+00
          4   -1    0    0  501    0  0.00000000000E+00  0.00000000000E+00  0.53941794505E+03  0.53941944009E+03  0.12700000000E+01 0. -1.
         -4   -1    0    0    0  501 -0.00000000000E+00 -0.00000000000E+00 -0.71846919187E+01  0.72960741475E+01  0.12700000000E+01 0. -1.
         25    2    1    2    0    0  0.00000000000E+00  0.00000000000E+00  0.53223325313E+03  0.54671551423E+03  0.12500247103E+03 0.  0.
    9000005    1    3    3    0    0  0.59724501689E+02 -0.47724218603E+01  0.18841684826E+03  0.19771621284E+03  0.10000000000E+01 0.  0.
    9000005    1    3    3    0    0 -0.59724501689E+02  0.47724218603E+01  0.34381640487E+03  0.34899930139E+03  0.10000000000E+01 0.  0.
<mgrwt>
<rscale>  0 0.12500247E+03</rscale>
<asrwt>0</asrwt>
<pdfrwt beam="1">  1        4 0.82996058E-01 0.12500247E+03</pdfrwt>
<pdfrwt beam="2">  1       -4 0.11140201E-02 0.12500247E+03</pdfrwt>
<totfact> 0.52410808E+03</totfact>
</mgrwt>
</event>
<event>
 5    1  0.3179758E-002  0.1249994E+03  0.7818608E-02  0.1235070E+00
         -4   -1    0    0    0  501 -0.00000000000E+00  0.00000000000E+00  0.24431816365E+02  0.24464802286E+02  0.12700000000E+01 0. -1.
          4   -1    0    0  501    0  0.00000000000E+00 -0.00000000000E+00 -0.15973892024E+03  0.15974396871E+03  0.12700000000E+01 0. -1.
         25    2    1    2    0    0  0.00000000000E+00  0.00000000000E+00 -0.13530710387E+03  0.18420877100E+03  0.12499943581E+03 0.  0.
    9000005    1    3    3    0    0 -0.38110972072E+02 -0.41910521156E+02 -0.28767558112E+02  0.63541406780E+02  0.10000000000E+01 0.  0.
    9000005    1    3    3    0    0  0.38110972072E+02  0.41910521156E+02 -0.10653954576E+03  0.12066736422E+03  0.10000000000E+01 0.  0.
<mgrwt>
<rscale>  0 0.12499944E+03</rscale>
<asrwt>0</asrwt>
<pdfrwt beam="2">  1        4 0.24578144E-01 0.12499944E+03</pdfrwt>
<pdfrwt beam="1">  1       -4 0.37616668E-02 0.12499944E+03</pdfrwt>
<totfact> 0.92866024E+03</totfact>
</mgrwt>
</event>
<event>
 5    1  0.3179758E-002  0.1250034E+03  0.7818608E-02  0.1235064E+00
          4   -1    0    0  501    0  0.00000000000E+00  0.00000000000E+00  0.16074663171E+02  0.16124754139E+02  0.12700000000E+01 0. -1.
         -4   -1    0    0    0  501 -0.00000000000E+00 -0.00000000000E+00 -0.24259023302E+03  0.24259355733E+03  0.12700000000E+01 0. -1.
         25    2    1    2    0    0  0.00000000000E+00  0.00000000000E+00 -0.22651556985E+03  0.25871831147E+03  0.12500344517E+03 0.  0.
    9000005    1    3    3    0    0  0.31322484680E+02 -0.36194524101E+02 -0.19641510744E+03  0.20216586273E+03  0.10000000000E+01 0.  0.
    9000005    1    3    3    0    0 -0.31322484680E+02  0.36194524101E+02 -0.30100462414E+02  0.56552448744E+02  0.10000000000E+01 0.  0.
<mgrwt>
<rscale>  0 0.12500345E+03</rscale>
<asrwt>0</asrwt>
<pdfrwt beam="1">  1        4 0.24771341E-02 0.12500345E+03</pdfrwt>
<pdfrwt beam="2">  1       -4 0.37325681E-01 0.12500345E+03</pdfrwt>
<totfact> 0.81080047E+03</totfact>
</mgrwt>
</event>
<event>
 5    1  0.3179758E-002  0.1249990E+03  0.7818608E-02  0.1235071E+00
          4   -1    0    0  501    0  0.00000000000E+00  0.00000000000E+00  0.71958528270E+02  0.71969734547E+02  0.12700000000E+01 0. -1.
         -4   -1    0    0    0  501 -0.00000000000E+00 -0.00000000000E+00 -0.54261024327E+02  0.54275884709E+02  0.12700000000E+01 0. -1.
         25    2    1    2    0    0  0.00000000000E+00  0.00000000000E+00  0.17697503943E+02  0.12624561926E+03  0.12499901894E+03 0.  0.
    9000005    1    3    3    0    0 -0.13893076525E+02  0.56335923836E+02 -0.14586858497E+02  0.59837532791E+02  0.10000000000E+01 0.  0.
    9000005    1    3    3    0    0  0.13893076525E+02 -0.56335923836E+02  0.32284362440E+02  0.66408086465E+02  0.10000000000E+01 0.  0.
<mgrwt>
<rscale>  0 0.12499902E+03</rscale>
<asrwt>0</asrwt>
<pdfrwt beam="1">  1        4 0.11072548E-01 0.12499902E+03</pdfrwt>
<pdfrwt beam="2">  1       -4 0.83498551E-02 0.12499902E+03</pdfrwt>
<totfact> 0.10425812E+04</totfact>
</mgrwt>
</event>
<event>
 5    1  0.3179758E-002  0.1250013E+03  0.7818608E-02  0.1235067E+00
         -4   -1    0    0    0  501 -0.00000000000E+00  0.00000000000E+00  0.13296874954E+02  0.13357386853E+02  0.12700000000E+01 0.  1.
          4   -1    0    0  501    0  0.00000000000E+00 -0.00000000000E+00 -0.29304915992E+03  0.29305191184E+03  0.12700000000E+01 0.  1.
         25    2    1    2    0    0  0.00000000000E+00  0.00000000000E+00 -0.27975228497E+03  0.30640929869E+03  0.12500126951E+03 0.  0.
    9000005    1    3    3    0    0 -0.18879897649E+02 -0.59429147218E+02 -0.12975296571E+03  0.14396216928E+03  0.10000000000E+01 0.  0.
    9000005    1    3    3    0    0  0.18879897649E+02  0.59429147218E+02 -0.14999931926E+03  0.16244712941E+03  0.10000000000E+01 0.  0.
<mgrwt>
<rscale>  0 0.12500127E+03</rscale>
<asrwt>0</asrwt>
<pdfrwt beam="2">  1        4 0.45089348E-01 0.12500127E+03</pdfrwt>
<pdfrwt beam="1">  1       -4 0.20505397E-02 0.12500127E+03</pdfrwt>
<totfact> 0.74799733E+03</totfact>
</mgrwt>
</event>
<event>
 5    1  0.3179758E-002  0.1249937E+03  0.7818608E-02  0.1235079E+00
          4   -1    0    0  501    0  0.00000000000E+00  0.00000000000E+00  0.12111639319E+03  0.12112305147E+03  0.12700000000E+01 0.  1.
         -4   -1    0    0    0  501 -0.00000000000E+00 -0.00000000000E+00 -0.32228749013E+02  0.32253761997E+02  0.12700000000E+01 0.  1.
         25    2    1    2    0    0  0.00000000000E+00  0.00000000000E+00  0.88887644173E+02  0.15337681347E+03  0.12499373434E+03 0.  0.
    9000005    1    3    3    0    0  0.60863694273E+02 -0.11987366146E+02  0.53689510358E+02  0.82046631559E+02  0.10000000000E+01 0.  0.
    9000005    1    3    3    0    0 -0.60863694273E+02  0.11987366146E+02  0.35198133815E+02  0.71330181912E+02  0.10000000000E+01 0.  0.
<mgrwt>
<rscale>  0 0.12499373E+03</rscale>
<asrwt>0</asrwt>
<pdfrwt beam="1">  1        4 0.18635728E-01 0.12499373E+03</pdfrwt>
<pdfrwt beam="2">  1       -4 0.49607053E-02 0.12499373E+03</pdfrwt>
<totfact> 0.98648694E+03</totfact>
</mgrwt>
</event>
<event>
 5    1  0.3179758E-002  0.1249679E+03  0.7818608E-02  0.1235119E+00
         -4   -1    0    0    0  501 -0.00000000000E+00  0.00000000000E+00  0.37592467309E+03  0.37592681832E+03  0.12700000000E+01 0. -1.
          4   -1    0    0  501    0  0.00000000000E+00 -0.00000000000E+00 -0.10344701874E+02  0.10422368103E+02  0.12700000000E+01 0. -1.
         25    2    1    2    0    0  0.00000000000E+00  0.00000000000E+00  0.36557997121E+03  0.38634918643E+03  0.12496790989E+03 0.  0.
    9000005    1    3    3    0    0  0.15716830415E+02 -0.40212708287E+02  0.43182865226E+02  0.61072420251E+02  0.10000000000E+01 0.  0.
    9000005    1    3    3    0    0 -0.15716830415E+02  0.40212708287E+02  0.32239710599E+03  0.32527676618E+03  0.10000000000E+01 0.  0.
<mgrwt>
<rscale>  0 0.12496791E+03</rscale>
<asrwt>0</asrwt>
<pdfrwt beam="2">  1        4 0.15976321E-02 0.12496791E+03</pdfrwt>
<pdfrwt beam="1">  1       -4 0.57840699E-01 0.12496791E+03</pdfrwt>
<totfact> 0.65949204E+03</totfact>
</mgrwt>
</event>
<event>
 5    1  0.3179758E-002  0.1249988E+03  0.7818608E-02  0.1235071E+00
          4   -1    0    0  501    0  0.00000000000E+00  0.00000000000E+00  0.21666884402E+03  0.21667256602E+03  0.12700000000E+01 0.  1.
         -4   -1    0    0    0  501 -0.00000000000E+00 -0.00000000000E+00 -0.18002062565E+02  0.18046804609E+02  0.12700000000E+01 0.  1.
         25    2    1    2    0    0  0.00000000000E+00  0.00000000000E+00  0.19866678145E+03  0.23471937063E+03  0.12499877159E+03 0.  0.
    9000005    1    3    3    0    0 -0.31907148151E+02 -0.25829071715E+02  0.18780753395E+03  0.19224431554E+03  0.10000000000E+01 0.  0.
    9000005    1    3    3    0    0  0.31907148151E+02  0.25829071715E+02  0.10859247500E+02  0.42475055092E+02  0.10000000000E+01 0.  0.
<mgrwt>
<rscale>  0 0.12499877E+03</rscale>
<asrwt>0</asrwt>
<pdfrwt beam="1">  1        4 0.33337396E-01 0.12499877E+03</pdfrwt>
<pdfrwt beam="2">  1       -4 0.27732761E-02 0.12499877E+03</pdfrwt>
<totfact> 0.84592479E+03</totfact>
</mgrwt>
</event>
<event>
 5    1  0.3179758E-002  0.1250011E+03  0.7818608E-02  0.1235068E+00
          4   -1    0    0  501    0  0.00000000000E+00  0.00000000000E+00  0.39902237183E+02  0.39922442714E+02  0.12700000000E+01 0. -1.
         -4   -1    0    0    0  501 -0.00000000000E+00 -0.00000000000E+00 -0.97848162436E+02  0.97856403941E+02  0.12700000000E+01 0. -1.
         25    2    1    2    0    0  0.00000000000E+00  0.00000000000E+00 -0.57945925253E+02  0.13777884665E+03  0.12500112132E+03 0.  0.
    9000005    1    3    3    0    0  0.41571101787E+02 -0.20929398404E+01  0.22404994455E+02  0.47281293103E+02  0.10000000000E+01 0.  0.
    9000005    1    3    3    0    0 -0.41571101787E+02  0.20929398404E+01 -0.80350919708E+02  0.90497553552E+02  0.10000000000E+01 0.  0.
<mgrwt>
<rscale>  0 0.12500112E+03</rscale>
<asrwt>0</asrwt>
<pdfrwt beam="1">  1        4 0.61409940E-02 0.12500112E+03</pdfrwt>
<pdfrwt beam="2">  1       -4 0.15055752E-01 0.12500112E+03</pdfrwt>
<totfact> 0.10179569E+04</totfact>
</mgrwt>
</event>
<event>
 5    1  0.3179758E-002  0.1249859E+03  0.7818608E-02  0.1235091E+00
          4   -1    0    0  501    0  0.00000000000E+00  0.00000000000E+00  0.33746170792E+02  0.33770059862E+02  0.12700000000E+01 0. -1.
         -4   -1    0    0    0  501 -0.00000000000E+00 -0.00000000000E+00 -0.11565952791E+03  0.11566650032E+03  0.12700000000E+01 0. -1.
         25    2    1    2    0    0  0.00000000000E+00  0.00000000000E+00 -0.81913357115E+02  0.14943656018E+03  0.12498594899E+03 0.  0.
    9000005    1    3    3    0    0 -0.37798666751E+02 -0.49465556562E+02 -0.34541233168E+02  0.71201666293E+02  0.10000000000E+01 0.  0.
    9000005    1    3    3    0    0  0.37798666751E+02  0.49465556562E+02 -0.47372123947E+02  0.78234893886E+02  0.10000000000E+01 0.  0.
<mgrwt>
<rscale>  0 0.12498595E+03</rscale>
<asrwt>0</asrwt>
<pdfrwt beam="1">  1        4 0.51940926E-02 0.12498595E+03</pdfrwt>
<pdfrwt beam="2">  1       -4 0.17796147E-01 0.12498595E+03</pdfrwt>
<totfact> 0.99447576E+03</totfact>
</mgrwt>
</event>
<event>
 5    1  0.3179758E-002  0.1249877E+03  0.7818608E-02  0.1235089E+00
          4   -1    0    0  501    0  0.00000000000E+00  0.00000000000E+00  0.52106834748E+02  0.52122309307E+02  0.12700000000E+01 0. -1.
         -4   -1    0    0    0  501 -0.00000000000E+00 -0.00000000000E+00 -0.74919413018E+02  0.74930176478E+02  0.12700000000E+01 0. -1.
         25    2    1    2    0    0  0.00000000000E+00  0.00000000000E+00 -0.22812578270E+02  0.12705248578E+03  0.12498768106E+03 0.  0.
    9000005    1    3    3    0    0  0.57489646315E+02  0.20496297988E+02  0.22060661342E+01  0.61082111885E+02  0.10000000000E+01 0.  0.
    9000005    1    3    3    0    0 -0.57489646315E+02 -0.20496297988E+02 -0.25018644404E+02  0.65970373899E+02  0.10000000000E+01 0.  0.
<mgrwt>
<rscale>  0 0.12498768E+03</rscale>
<asrwt>0</asrwt>
<pdfrwt beam="1">  1        4 0.80184544E-02 0.12498768E+03</pdfrwt>
<pdfrwt beam="2">  1       -4 0.11528082E-01 0.12498768E+03</pdfrwt>
<totfact> 0.10410900E+04</totfact>
</mgrwt>
</event>
<event>
 5    1  0.3179758E-002  0.1250006E+03  0.7818608E-02  0.1235068E+00
         -4   -1    0    0    0  501 -0.00000000000E+00  0.00000000000E+00  0.27862318783E+03  0.27862608222E+03  0.12700000000E+01 0. -1.
          4   -1    0    0  501    0  0.00000000000E+00 -0.00000000000E+00 -0.13988241965E+02  0.14045775638E+02  0.12700000000E+01 0. -1.
         25    2    1    2    0    0  0.00000000000E+00  0.00000000000E+00  0.26463494586E+03  0.29267185786E+03  0.12500064725E+03 0.  0.
    9000005    1    3    3    0    0 -0.51753898675E+02 -0.18509363444E+02  0.20194016425E+03  0.20928901667E+03  0.10000000000E+01 0.  0.
    9000005    1    3    3    0    0  0.51753898675E+02  0.18509363444E+02  0.62694781615E+02  0.83382841190E+02  0.10000000000E+01 0.  0.
<mgrwt>
<rscale>  0 0.12500065E+03</rscale>
<asrwt>0</asrwt>
<pdfrwt beam="2">  1        4 0.21566855E-02 0.12500065E+03</pdfrwt>
<pdfrwt beam="1">  1       -4 0.42869755E-01 0.12500065E+03</pdfrwt>
<totfact> 0.76526256E+03</totfact>
</mgrwt>
</event>
<event>
 5    1  0.3179758E-002  0.1250019E+03  0.7818608E-02  0.1235066E+00
         -4   -1    0    0    0  501 -0.00000000000E+00  0.00000000000E+00  0.15399179767E+04  0.15399185003E+04  0.12700000000E+01 0.  1.
          4   -1    0    0  501    0  0.00000000000E+00 -0.00000000000E+00 -0.23772274123E+01  0.26952013227E+01  0.12700000000E+01 0.  1.
         25    2    1    2    0    0  0.00000000000E+00  0.00000000000E+00  0.15375407492E+04  0.15426137017E+04  0.12500190803E+03 0.  0.
    9000005    1    3    3    0    0 -0.20892414305E+02 -0.58860370283E+02  0.74308184347E+03  0.74570279754E+03  0.10000000000E+01 0.  0.
    9000005    1    3    3    0    0  0.20892414305E+02  0.58860370283E+02  0.79445890577E+03  0.79691090413E+03  0.10000000000E+01 0.  0.
<mgrwt>
<rscale>  0 0.12500191E+03</rscale>
<asrwt>0</asrwt>
<pdfrwt beam="2">  1        4 0.39022657E-03 0.12500191E+03</pdfrwt>
<pdfrwt beam="1">  1       -4 0.23693529E+00 0.12500191E+03</pdfrwt>
<totfact> 0.17107034E+03</totfact>
</mgrwt>
</event>
<event>
 5    1  0.3179758E-002  0.1250208E+03  0.7818608E-02  0.1235037E+00
          4   -1    0    0  501    0  0.00000000000E+00  0.00000000000E+00  0.19939011888E+02  0.19979416785E+02  0.12700000000E+01 0.  1.
         -4   -1    0    0    0  501 -0.00000000000E+00 -0.00000000000E+00 -0.19573436659E+03  0.19573848667E+03  0.12700000000E+01 0.  1.
         25    2    1    2    0    0  0.00000000000E+00  0.00000000000E+00 -0.17579535470E+03  0.21571790346E+03  0.12502082681E+03 0.  0.
    9000005    1    3    3    0    0 -0.99572134999E+01  0.41446562915E+02 -0.90236225535E+01  0.43581985293E+02  0.10000000000E+01 0.  0.
    9000005    1    3    3    0    0  0.99572134999E+01 -0.41446562915E+02 -0.16677173215E+03  0.17213591816E+03  0.10000000000E+01 0.  0.
<mgrwt>
<rscale>  0 0.12502083E+03</rscale>
<asrwt>0</asrwt>
<pdfrwt beam="1">  1        4 0.30709654E-02 0.12502083E+03</pdfrwt>
<pdfrwt beam="2">  1       -4 0.30116403E-01 0.12502083E+03</pdfrwt>
<totfact> 0.87509773E+03</totfact>
</mgrwt>
</event>
<event>
 5    1  0.3179758E-002  0.1250006E+03  0.7818608E-02  0.1235068E+00
          4   -1    0    0  501    0  0.00000000000E+00  0.00000000000E+00  0.28063755190E+01  0.30803641917E+01  0.12700000000E+01 0.  1.
         -4   -1    0    0    0  501 -0.00000000000E+00 -0.00000000000E+00 -0.13268729195E+04  0.13268735273E+04  0.12700000000E+01 0.  1.
         25    2    1    2    0    0  0.00000000000E+00  0.00000000000E+00 -0.13240665440E+04  0.13299538915E+04  0.12500056223E+03 0.  0.
    9000005    1    3    3    0    0 -0.59267463398E+02  0.19576651524E+02 -0.69466686447E+03  0.69746607810E+03  0.10000000000E+01 0.  0.
    9000005    1    3    3    0    0  0.59267463398E+02 -0.19576651524E+02 -0.62939967951E+03  0.63248781338E+03  0.10000000000E+01 0.  0.
<mgrwt>
<rscale>  0 0.12500056E+03</rscale>
<asrwt>0</asrwt>
<pdfrwt beam="1">  1        4 0.45287394E-03 0.12500056E+03</pdfrwt>
<pdfrwt beam="2">  1       -4 0.20415494E+00 0.12500056E+03</pdfrwt>
<totfact> 0.21532214E+03</totfact>
</mgrwt>
</event>
<event>
 5    1  0.3179758E-002  0.1250030E+03  0.7818608E-02  0.1235065E+00
          4   -1    0    0  501    0  0.00000000000E+00  0.00000000000E+00  0.46015259982E+02  0.46032782354E+02  0.12700000000E+01 0.  1.
         -4   -1    0    0    0  501 -0.00000000000E+00 -0.00000000000E+00 -0.84856014148E+02  0.84865517362E+02  0.12700000000E+01 0.  1.
         25    2    1    2    0    0  0.00000000000E+00  0.00000000000E+00 -0.38840754166E+02  0.13089829972E+03  0.12500304270E+03 0.  0.
    9000005    1    3    3    0    0  0.27664792720E+01 -0.47158075150E+02  0.23422490101E+02  0.52736614434E+02  0.10000000000E+01 0.  0.
    9000005    1    3    3    0    0 -0.27664792720E+01  0.47158075150E+02 -0.62263244267E+02  0.78161685282E+02  0.10000000000E+01 0.  0.
<mgrwt>
<rscale>  0 0.12500304E+03</rscale>
<asrwt>0</asrwt>
<pdfrwt beam="1">  1        4 0.70813497E-02 0.12500304E+03</pdfrwt>
<pdfrwt beam="2">  1       -4 0.13056850E-01 0.12500304E+03</pdfrwt>
<totfact> 0.10324561E+04</totfact>
</mgrwt>
</event>
<event>
 5    1  0.3179758E-002  0.1249949E+03  0.7818608E-02  0.1235077E+00
         -4   -1    0    0    0  501 -0.00000000000E+00  0.00000000000E+00  0.45518821098E+01  0.47257307098E+01  0.12700000000E+01 0. -1.
          4   -1    0    0  501    0  0.00000000000E+00 -0.00000000000E+00 -0.84183767735E+03  0.84183863531E+03  0.12700000000E+01 0. -1.
         25    2    1    2    0    0  0.00000000000E+00  0.00000000000E+00 -0.83728579524E+03  0.84656436602E+03  0.12499489153E+03 0.  0.
    9000005    1    3    3    0    0 -0.53753384010E+02 -0.39418458020E+00 -0.20283098976E+03  0.20983563110E+03  0.10000000000E+01 0.  0.
    9000005    1    3    3    0    0  0.53753384010E+02  0.39418458020E+00 -0.63445480548E+03  0.63672873492E+03  0.10000000000E+01 0.  0.
<mgrwt>
<rscale>  0 0.12499489E+03</rscale>
<asrwt>0</asrwt>
<pdfrwt beam="2">  1        4 0.12952681E+00 0.12499489E+03</pdfrwt>
<pdfrwt beam="1">  1       -4 0.71373688E-03 0.12499489E+03</pdfrwt>
<totfact> 0.36272403E+03</totfact>
</mgrwt>
</event>
<event>
 5    1  0.3179758E-002  0.1250036E+03  0.7818608E-02  0.1235064E+00
          4   -1    0    0  501    0  0.00000000000E+00  0.00000000000E+00  0.31800032695E+02  0.31825382627E+02  0.12700000000E+01 0.  1.
         -4   -1    0    0    0  501 -0.00000000000E+00 -0.00000000000E+00 -0.12276748101E+03  0.12277404976E+03  0.12700000000E+01 0.  1.
         25    2    1    2    0    0  0.00000000000E+00  0.00000000000E+00 -0.90967448315E+02  0.15459943238E+03  0.12500363131E+03 0.  0.
    9000005    1    3    3    0    0 -0.57329866179E+02 -0.24688237972E+02 -0.49246057602E+02  0.79513500989E+02  0.10000000000E+01 0.  0.
    9000005    1    3    3    0    0  0.57329866179E+02  0.24688237972E+02 -0.41721390713E+02  0.75085931394E+02  0.10000000000E+01 0.  0.
<mgrwt>
<rscale>  0 0.12500363E+03</rscale>
<asrwt>0</asrwt>
<pdfrwt beam="1">  1        4 0.48947681E-02 0.12500363E+03</pdfrwt>
<pdfrwt beam="2">  1       -4 0.18889760E-01 0.12500363E+03</pdfrwt>
<totfact> 0.98386157E+03</totfact>
</mgrwt>
</event>
<event>
 5    1  0.3179758E-002  0.1249974E+03  0.7818608E-02  0.1235073E+00
         -4   -1    0    0    0  501 -0.00000000000E+00  0.00000000000E+00  0.80404281766E+01  0.81401096592E+01  0.12700000000E+01 0. -1.
          4   -1    0    0  501    0  0.00000000000E+00 -0.00000000000E+00 -0.48271231930E+03  0.48271398996E+03  0.12700000000E+01 0. -1.
         25    2    1    2    0    0  0.00000000000E+00  0.00000000000E+00 -0.47467189112E+03  0.49085409962E+03  0.12499737154E+03 0.  0.
    9000005    1    3    3    0    0  0.15346722438E+02  0.73290061548E+01 -0.47346896197E+03  0.47377536256E+03  0.10000000000E+01 0.  0.
    9000005    1    3    3    0    0 -0.15346722438E+02 -0.73290061548E+01 -0.12029291477E+01  0.17078737054E+02  0.10000000000E+01 0.  0.
<mgrwt>
<rscale>  0 0.12499737E+03</rscale>
<asrwt>0</asrwt>
<pdfrwt beam="2">  1        4 0.74271207E-01 0.12499737E+03</pdfrwt>
<pdfrwt beam="1">  1       -4 0.12447857E-02 0.12499737E+03</pdfrwt>
<totfact> 0.56584305E+03</totfact>
</mgrwt>
</event>
<event>
 5    1  0.3179758E-002  0.1249994E+03  0.7818608E-02  0.1235070E+00
         -4   -1    0    0    0  501 -0.00000000000E+00  0.00000000000E+00  0.10018043157E+04  0.10018051207E+04  0.12700000000E+01 0.  1.
          4   -1    0    0  501    0  0.00000000000E+00 -0.00000000000E+00 -0.37949374431E+01  0.40018058670E+01  0.12700000000E+01 0.  1.
         25    2    1    2    0    0  0.00000000000E+00  0.00000000000E+00  0.99800937829E+03  0.10058069266E+04  0.12499941774E+03 0.  0.
    9000005    1    3    3    0    0 -0.26755387482E+02  0.56206670065E+02  0.45480527369E+03  0.45904670514E+03  0.10000000000E+01 0.  0.
    9000005    1    3    3    0    0  0.26755387482E+02 -0.56206670065E+02  0.54320410460E+03  0.54676022146E+03  0.10000000000E+01 0.  0.
<mgrwt>
<rscale>  0 0.12499942E+03</rscale>
<asrwt>0</asrwt>
<pdfrwt beam="2">  1        4 0.59981137E-03 0.12499942E+03</pdfrwt>
<pdfrwt beam="1">  1       -4 0.15413973E+00 0.12499942E+03</pdfrwt>
<totfact> 0.30413898E+03</totfact>
</mgrwt>
</event>
<event>
 5    1  0.3179758E-002  0.1249992E+03  0.7818608E-02  0.1235071E+00
         -4   -1    0    0    0  501 -0.00000000000E+00  0.00000000000E+00  0.61011727210E+03  0.61011859389E+03  0.12700000000E+01 0. -1.
          4   -1    0    0  501    0  0.00000000000E+00 -0.00000000000E+00 -0.63380551424E+01  0.64640423102E+01  0.12700000000E+01 0. -1.
         25    2    1    2    0    0  0.00000000000E+00  0.00000000000E+00  0.60377921696E+03  0.61658263620E+03  0.12499921775E+03 0.  0.
    9000005    1    3    3    0    0 -0.45146291243E+02  0.32884097285E+02  0.44015021369E+03  0.44368092373E+03  0.10000000000E+01 0.  0.
    9000005    1    3    3    0    0  0.45146291243E+02 -0.32884097285E+02  0.16362900327E+03  0.17290171248E+03  0.10000000000E+01 0.  0.
<mgrwt>
<rscale>  0 0.12499922E+03</rscale>
<asrwt>0</asrwt>
<pdfrwt beam="2">  1        4 0.98487823E-03 0.12499922E+03</pdfrwt>
<pdfrwt beam="1">  1       -4 0.93874005E-01 0.12499922E+03</pdfrwt>
<totfact> 0.47838135E+03</totfact>
</mgrwt>
</event>
<event>
 5    1  0.3179758E-002  0.1250006E+03  0.7818608E-02  0.1235068E+00
         -4   -1    0    0    0  501 -0.00000000000E+00  0.00000000000E+00  0.21020145199E+02  0.21058475828E+02  0.12700000000E+01 0. -1.
          4   -1    0    0  501    0  0.00000000000E+00 -0.00000000000E+00 -0.18562549441E+03  0.18562983886E+03  0.12700000000E+01 0. -1.
         25    2    1    2    0    0  0.00000000000E+00  0.00000000000E+00 -0.16460534921E+03  0.20668831468E+03  0.12500055376E+03 0.  0.
    9000005    1    3    3    0    0 -0.19904570583E+02 -0.24449763198E+01  0.15563174882E+02  0.25404374657E+02  0.10000000000E+01 0.  0.
    9000005    1    3    3    0    0  0.19904570583E+02  0.24449763198E+01 -0.18016852409E+03  0.18128394003E+03  0.10000000000E+01 0.  0.
<mgrwt>
<rscale>  0 0.12500055E+03</rscale>
<asrwt>0</asrwt>
<pdfrwt beam="2">  1        4 0.28561050E-01 0.12500055E+03</pdfrwt>
<pdfrwt beam="1">  1       -4 0.32371513E-02 0.12500055E+03</pdfrwt>
<totfact> 0.89018493E+03</totfact>
</mgrwt>
</event>
<event>
 5    1  0.3179758E-002  0.1250032E+03  0.7818608E-02  0.1235064E+00
         -4   -1    0    0    0  501 -0.00000000000E+00  0.00000000000E+00  0.78815785078E+02  0.78826016501E+02  0.12700000000E+01 0.  1.
          4   -1    0    0  501    0  0.00000000000E+00 -0.00000000000E+00 -0.49542712140E+02  0.49558987341E+02  0.12700000000E+01 0.  1.
         25    2    1    2    0    0  0.00000000000E+00  0.00000000000E+00  0.29273072937E+02  0.12838500384E+03  0.12500318561E+03 0.  0.
    9000005    1    3    3    0    0  0.49114585545E+02 -0.37808594762E+02  0.22834765223E+02  0.66061780583E+02  0.10000000000E+01 0.  0.
    9000005    1    3    3    0    0 -0.49114585545E+02  0.37808594762E+02  0.64383077148E+01  0.62323223258E+02  0.10000000000E+01 0.  0.
<mgrwt>
<rscale>  0 0.12500319E+03</rscale>
<asrwt>0</asrwt>
<pdfrwt beam="2">  1        4 0.76239947E-02 0.12500319E+03</pdfrwt>
<pdfrwt beam="1">  1       -4 0.12127544E-01 0.12500319E+03</pdfrwt>
<totfact> 0.10378435E+04</totfact>
</mgrwt>
</event>
<event>
 5    1  0.3179758E-002  0.1250020E+03  0.7818608E-02  0.1235066E+00
         -4   -1    0    0    0  501 -0.00000000000E+00  0.00000000000E+00  0.27133390006E+02  0.27163095428E+02  0.12700000000E+01 0.  1.
          4   -1    0    0  501    0  0.00000000000E+00 -0.00000000000E+00 -0.14385791702E+03  0.14386352279E+03  0.12700000000E+01 0.  1.
         25    2    1    2    0    0  0.00000000000E+00  0.00000000000E+00 -0.11672452701E+03  0.17102661822E+03  0.12500195571E+03 0.  0.
    9000005    1    3    3    0    0 -0.76310871237E+01 -0.34648108629E+02  0.12025138593E+02  0.37474376319E+02  0.10000000000E+01 0.  0.
    9000005    1    3    3    0    0  0.76310871237E+01  0.34648108629E+02 -0.12874966560E+03  0.13355224190E+03  0.10000000000E+01 0.  0.
<mgrwt>
<rscale>  0 0.12500196E+03</rscale>
<asrwt>0</asrwt>
<pdfrwt beam="2">  1        4 0.22134703E-01 0.12500196E+03</pdfrwt>
<pdfrwt beam="1">  1       -4 0.41770840E-02 0.12500196E+03</pdfrwt>
<totfact> 0.95253454E+03</totfact>
</mgrwt>
</event>
<event>
 5    1  0.3179758E-002  0.1250096E+03  0.7818608E-02  0.1235054E+00
         -4   -1    0    0    0  501 -0.00000000000E+00  0.00000000000E+00  0.15753460714E+02  0.15804569734E+02  0.12700000000E+01 0.  1.
          4   -1    0    0  501    0  0.00000000000E+00 -0.00000000000E+00 -0.24754495961E+03  0.24754821738E+03  0.12700000000E+01 0.  1.
         25    2    1    2    0    0  0.00000000000E+00  0.00000000000E+00 -0.23179149890E+03  0.26335278712E+03  0.12500956572E+03 0.  0.
    9000005    1    3    3    0    0  0.73905875448E+01  0.58540047199E+02 -0.72502112100E+02  0.93483229347E+02  0.10000000000E+01 0.  0.
    9000005    1    3    3    0    0 -0.73905875448E+01 -0.58540047199E+02 -0.15928938680E+03  0.16986955777E+03  0.10000000000E+01 0.  0.
<mgrwt>
<rscale>  0 0.12500957E+03</rscale>
<asrwt>0</asrwt>
<pdfrwt beam="2">  1        4 0.38088019E-01 0.12500957E+03</pdfrwt>
<pdfrwt beam="1">  1       -4 0.24277916E-02 0.12500957E+03</pdfrwt>
<totfact> 0.80420715E+03</totfact>
</mgrwt>
</event>
<event>
 5    1  0.3179758E-002  0.1250011E+03  0.7818608E-02  0.1235068E+00
          4   -1    0    0  501    0  0.00000000000E+00  0.00000000000E+00  0.17575356243E+02  0.17621181773E+02  0.12700000000E+01 0.  1.
         -4   -1    0    0    0  501 -0.00000000000E+00 -0.00000000000E+00 -0.22192423727E+03  0.22192787114E+03  0.12700000000E+01 0.  1.
         25    2    1    2    0    0  0.00000000000E+00  0.00000000000E+00 -0.20434888103E+03  0.23954905291E+03  0.12500113429E+03 0.  0.
    9000005    1    3    3    0    0 -0.42431537167E+02 -0.20907962770E+02 -0.23913507607E+02  0.53013527516E+02  0.10000000000E+01 0.  0.
    9000005    1    3    3    0    0  0.42431537167E+02  0.20907962770E+02 -0.18043537342E+03  0.18653552540E+03  0.10000000000E+01 0.  0.
<mgrwt>
<rscale>  0 0.12500113E+03</rscale>
<asrwt>0</asrwt>
<pdfrwt beam="1">  1        4 0.27077057E-02 0.12500113E+03</pdfrwt>
<pdfrwt beam="2">  1       -4 0.34145993E-01 0.12500113E+03</pdfrwt>
<totfact> 0.83862454E+03</totfact>
</mgrwt>
</event>
<event>
 5    1  0.3179758E-002  0.1250119E+03  0.7818608E-02  0.1235051E+00
         -4   -1    0    0    0  501 -0.00000000000E+00  0.00000000000E+00  0.48555654197E+03  0.48555820285E+03  0.12700000000E+01 0.  1.
          4   -1    0    0  501    0  0.00000000000E+00 -0.00000000000E+00 -0.79946209796E+01  0.80948665590E+01  0.12700000000E+01 0.  1.
         25    2    1    2    0    0  0.00000000000E+00  0.00000000000E+00  0.47756192099E+03  0.49365306941E+03  0.12501185764E+03 0.  0.
    9000005    1    3    3    0    0  0.41732693546E+02  0.39623594621E+02  0.33505066502E+03  0.33995822551E+03  0.10000000000E+01 0.  0.
    9000005    1    3    3    0    0 -0.41732693546E+02 -0.39623594621E+02  0.14251125597E+03  0.15369484389E+03  0.10000000000E+01 0.  0.
<mgrwt>
<rscale>  0 0.12501186E+03</rscale>
<asrwt>0</asrwt>
<pdfrwt beam="2">  1        4 0.12377801E-02 0.12501186E+03</pdfrwt>
<pdfrwt beam="1">  1       -4 0.74708879E-01 0.12501186E+03</pdfrwt>
<totfact> 0.56345481E+03</totfact>
</mgrwt>
</event>
<event>
 5    1  0.3179758E-002  0.1249997E+03  0.7818608E-02  0.1235070E+00
         -4   -1    0    0    0  501 -0.00000000000E+00  0.00000000000E+00  0.15252554142E+03  0.15253082864E+03  0.12700000000E+01 0.  1.
          4   -1    0    0  501    0  0.00000000000E+00 -0.00000000000E+00 -0.25588878762E+02  0.25620375022E+02  0.12700000000E+01 0.  1.
         25    2    1    2    0    0  0.00000000000E+00  0.00000000000E+00  0.12693666266E+03  0.17815120366E+03  0.12499974016E+03 0.  0.
    9000005    1    3    3    0    0 -0.36375184313E+02 -0.44214704903E+02  0.27777081044E+02  0.63644798647E+02  0.10000000000E+01 0.  0.
    9000005    1    3    3    0    0  0.36375184313E+02  0.44214704903E+02  0.99159581614E+02  0.11450640501E+03  0.10000000000E+01 0.  0.
<mgrwt>
<rscale>  0 0.12499974E+03</rscale>
<asrwt>0</asrwt>
<pdfrwt beam="2">  1        4 0.39395800E-02 0.12499974E+03</pdfrwt>
<pdfrwt beam="1">  1       -4 0.23468298E-01 0.12499974E+03</pdfrwt>
<totfact> 0.93951402E+03</totfact>
</mgrwt>
</event>
<event>
 5    1  0.3179758E-002  0.1249964E+03  0.7818608E-02  0.1235075E+00
         -4   -1    0    0    0  501 -0.00000000000E+00  0.00000000000E+00  0.82190333972E+01  0.83165744141E+01  0.12700000000E+01 0.  1.
          4   -1    0    0  501    0  0.00000000000E+00 -0.00000000000E+00 -0.47233960757E+03  0.47234131492E+03  0.12700000000E+01 0.  1.
         25    2    1    2    0    0  0.00000000000E+00  0.00000000000E+00 -0.46412057417E+03  0.48065788934E+03  0.12499639678E+03 0.  0.
    9000005    1    3    3    0    0  0.17144133287E+02  0.23780937178E+02 -0.44427373975E+03  0.44524106966E+03  0.10000000000E+01 0.  0.
    9000005    1    3    3    0    0 -0.17144133287E+02 -0.23780937178E+02 -0.19846834422E+02  0.35416819674E+02  0.10000000000E+01 0.  0.
<mgrwt>
<rscale>  0 0.12499640E+03</rscale>
<asrwt>0</asrwt>
<pdfrwt beam="2">  1        4 0.72675246E-01 0.12499640E+03</pdfrwt>
<pdfrwt beam="1">  1       -4 0.12721015E-02 0.12499640E+03</pdfrwt>
<totfact> 0.57401499E+03</totfact>
</mgrwt>
</event>
<event>
 5    1  0.3179758E-002  0.1249979E+03  0.7818608E-02  0.1235073E+00
         -4   -1    0    0    0  501 -0.00000000000E+00  0.00000000000E+00  0.35176929564E+02  0.35199847635E+02  0.12700000000E+01 0.  1.
          4   -1    0    0  501    0  0.00000000000E+00 -0.00000000000E+00 -0.11097936721E+03  0.11098663363E+03  0.12700000000E+01 0.  1.
         25    2    1    2    0    0  0.00000000000E+00  0.00000000000E+00 -0.75802437643E+02  0.14618648127E+03  0.12499791100E+03 0.  0.
    9000005    1    3    3    0    0  0.27954727382E+02  0.23519370237E+02  0.21393030580E+02  0.42347246862E+02  0.10000000000E+01 0.  0.
    9000005    1    3    3    0    0 -0.27954727382E+02 -0.23519370237E+02 -0.97195468223E+02  0.10383923441E+03  0.10000000000E+01 0.  0.
<mgrwt>
<rscale>  0 0.12499791E+03</rscale>
<asrwt>0</asrwt>
<pdfrwt beam="2">  1        4 0.17076071E-01 0.12499791E+03</pdfrwt>
<pdfrwt beam="1">  1       -4 0.54141572E-02 0.12499791E+03</pdfrwt>
<totfact> 0.10007408E+04</totfact>
</mgrwt>
</event>
<event>
 5    1  0.3179758E-002  0.1250024E+03  0.7818608E-02  0.1235066E+00
          4   -1    0    0  501    0  0.00000000000E+00  0.00000000000E+00  0.57130539088E+02  0.57144653263E+02  0.12700000000E+01 0.  1.
         -4   -1    0    0    0  501 -0.00000000000E+00 -0.00000000000E+00 -0.68348227751E+02  0.68360025868E+02  0.12700000000E+01 0.  1.
         25    2    1    2    0    0  0.00000000000E+00  0.00000000000E+00 -0.11217688662E+02  0.12550467913E+03  0.12500235176E+03 0.  0.
    9000005    1    3    3    0    0  0.43199390451E+02 -0.22966990158E+02  0.33428334199E+02  0.59263171528E+02  0.10000000000E+01 0.  0.
    9000005    1    3    3    0    0 -0.43199390451E+02  0.22966990158E+02 -0.44646022861E+02  0.66241507603E+02  0.10000000000E+01 0.  0.
<mgrwt>
<rscale>  0 0.12500235E+03</rscale>
<asrwt>0</asrwt>
<pdfrwt beam="1">  1        4 0.87913070E-02 0.12500235E+03</pdfrwt>
<pdfrwt beam="2">  1       -4 0.10517105E-01 0.12500235E+03</pdfrwt>
<totfact> 0.10441297E+04</totfact>
</mgrwt>
</event>
<event>
 5    1  0.3179758E-002  0.1250032E+03  0.7818608E-02  0.1235064E+00
          4   -1    0    0  501    0  0.00000000000E+00  0.00000000000E+00  0.15529850367E+02  0.15581692861E+02  0.12700000000E+01 0. -1.
         -4   -1    0    0    0  501 -0.00000000000E+00 -0.00000000000E+00 -0.25107200065E+03  0.25107521265E+03  0.12700000000E+01 0. -1.
         25    2    1    2    0    0  0.00000000000E+00  0.00000000000E+00 -0.23554215028E+03  0.26665690552E+03  0.12500320276E+03 0.  0.
    9000005    1    3    3    0    0  0.19870302019E+02  0.51872136503E+02 -0.56689129798E+02  0.79373829975E+02  0.10000000000E+01 0.  0.
    9000005    1    3    3    0    0 -0.19870302019E+02 -0.51872136503E+02 -0.17885302048E+03  0.18728307554E+03  0.10000000000E+01 0.  0.
<mgrwt>
<rscale>  0 0.12500320E+03</rscale>
<asrwt>0</asrwt>
<pdfrwt beam="1">  1        4 0.23934429E-02 0.12500320E+03</pdfrwt>
<pdfrwt beam="2">  1       -4 0.38630694E-01 0.12500320E+03</pdfrwt>
<totfact> 0.79975143E+03</totfact>
</mgrwt>
</event>
<event>
 5    1  0.3179758E-002  0.1250001E+03  0.7818608E-02  0.1235069E+00
         -4   -1    0    0    0  501 -0.00000000000E+00  0.00000000000E+00  0.94273604674E+02  0.94282158643E+02  0.12700000000E+01 0.  1.
          4   -1    0    0  501    0  0.00000000000E+00 -0.00000000000E+00 -0.41415156972E+02  0.41434624736E+02  0.12700000000E+01 0.  1.
         25    2    1    2    0    0  0.00000000000E+00  0.00000000000E+00  0.52858447703E+02  0.13571678338E+03  0.12500011919E+03 0.  0.
    9000005    1    3    3    0    0  0.77627015581E+01 -0.59886996491E+02  0.89713368920E+01  0.61058961421E+02  0.10000000000E+01 0.  0.
    9000005    1    3    3    0    0 -0.77627015581E+01  0.59886996491E+02  0.43887110811E+02  0.74657821958E+02  0.10000000000E+01 0.  0.
<mgrwt>
<rscale>  0 0.12500012E+03</rscale>
<asrwt>0</asrwt>
<pdfrwt beam="2">  1        4 0.63737182E-02 0.12500012E+03</pdfrwt>
<pdfrwt beam="1">  1       -4 0.14505787E-01 0.12500012E+03</pdfrwt>
<totfact> 0.10222957E+04</totfact>
</mgrwt>
</event>
<event>
 5    1  0.3179758E-002  0.1250095E+03  0.7818608E-02  0.1235054E+00
          4   -1    0    0  501    0  0.00000000000E+00  0.00000000000E+00  0.18580478003E+03  0.18580912029E+03  0.12700000000E+01 0.  1.
         -4   -1    0    0    0  501 -0.00000000000E+00 -0.00000000000E+00 -0.21002833721E+02  0.21041195886E+02  0.12700000000E+01 0.  1.
         25    2    1    2    0    0  0.00000000000E+00  0.00000000000E+00  0.16480194631E+03  0.20685031617E+03  0.12500948682E+03 0.  0.
    9000005    1    3    3    0    0  0.41462272635E+02  0.28220625542E+02  0.20703059929E+02  0.54269148219E+02  0.10000000000E+01 0.  0.
    9000005    1    3    3    0    0 -0.41462272635E+02 -0.28220625542E+02  0.14409888638E+03  0.15258116795E+03  0.10000000000E+01 0.  0.
<mgrwt>
<rscale>  0 0.12500949E+03</rscale>
<asrwt>0</asrwt>
<pdfrwt beam="1">  1        4 0.28588635E-01 0.12500949E+03</pdfrwt>
<pdfrwt beam="2">  1       -4 0.32344900E-02 0.12500949E+03</pdfrwt>
<totfact> 0.88973985E+03</totfact>
</mgrwt>
</event>
<event>
 5    1  0.3179758E-002  0.1249950E+03  0.7818608E-02  0.1235077E+00
         -4   -1    0    0    0  501 -0.00000000000E+00  0.00000000000E+00  0.14304856193E+02  0.14361121499E+02  0.12700000000E+01 0.  1.
          4   -1    0    0  501    0  0.00000000000E+00 -0.00000000000E+00 -0.27245626611E+03  0.27245922602E+03  0.12700000000E+01 0.  1.
         25    2    1    2    0    0  0.00000000000E+00  0.00000000000E+00 -0.25815140991E+03  0.28682034752E+03  0.12499504513E+03 0.  0.
    9000005    1    3    3    0    0  0.58828467739E+02 -0.21010254841E+02 -0.13286077231E+03  0.14681690721E+03  0.10000000000E+01 0.  0.
    9000005    1    3    3    0    0 -0.58828467739E+02  0.21010254841E+02 -0.12529063760E+03  0.14000344030E+03  0.10000000000E+01 0.  0.
<mgrwt>
<rscale>  0 0.12499505E+03</rscale>
<asrwt>0</asrwt>
<pdfrwt beam="2">  1        4 0.41920901E-01 0.12499505E+03</pdfrwt>
<pdfrwt beam="1">  1       -4 0.22053031E-02 0.12499505E+03</pdfrwt>
<totfact> 0.77290892E+03</totfact>
</mgrwt>
</event>
<event>
 5    1  0.3179758E-002  0.1249991E+03  0.7818608E-02  0.1235071E+00
         -4   -1    0    0    0  501 -0.00000000000E+00  0.00000000000E+00  0.19450005394E+03  0.19450420017E+03  0.12700000000E+01 0. -1.
          4   -1    0    0  501    0  0.00000000000E+00 -0.00000000000E+00 -0.20058823373E+02  0.20098987415E+02  0.12700000000E+01 0. -1.
         25    2    1    2    0    0  0.00000000000E+00  0.00000000000E+00  0.17444123057E+03  0.21460318758E+03  0.12499914079E+03 0.  0.
    9000005    1    3    3    0    0  0.21424510987E+02  0.81955288638E+01  0.18701923107E+03  0.18842337741E+03  0.10000000000E+01 0.  0.
    9000005    1    3    3    0    0 -0.21424510987E+02 -0.81955288638E+01 -0.12578000498E+02  0.26179810177E+02  0.10000000000E+01 0.  0.
<mgrwt>
<rscale>  0 0.12499914E+03</rscale>
<asrwt>0</asrwt>
<pdfrwt beam="2">  1        4 0.30893813E-02 0.12499914E+03</pdfrwt>
<pdfrwt beam="1">  1       -4 0.29926494E-01 0.12499914E+03</pdfrwt>
<totfact> 0.87731279E+03</totfact>
</mgrwt>
</event>
<event>
 5    1  0.3179758E-002  0.1250029E+03  0.7818608E-02  0.1235065E+00
         -4   -1    0    0    0  501 -0.00000000000E+00  0.00000000000E+00  0.12542711928E+04  0.12542718357E+04  0.12700000000E+01 0.  1.
          4   -1    0    0  501    0  0.00000000000E+00 -0.00000000000E+00 -0.29843678002E+01  0.32433549246E+01  0.12700000000E+01 0.  1.
         25    2    1    2    0    0  0.00000000000E+00  0.00000000000E+00  0.12512868250E+04  0.12575151907E+04  0.12500294553E+03 0.  0.
    9000005    1    3    3    0    0  0.36112179739E+02 -0.33968952358E+02  0.24291076824E+03  0.24792059329E+03  0.10000000000E+01 0.  0.
    9000005    1    3    3    0    0 -0.36112179739E+02  0.33968952358E+02  0.10083760567E+04  0.10095945974E+04  0.10000000000E+01 0.  0.
<mgrwt>
<rscale>  0 0.12500295E+03</rscale>
<asrwt>0</asrwt>
<pdfrwt beam="2">  1        4 0.47910538E-03 0.12500295E+03</pdfrwt>
<pdfrwt beam="1">  1       -4 0.19298464E+00 0.12500295E+03</pdfrwt>
<totfact> 0.23252486E+03</totfact>
</mgrwt>
</event>
<event>
 5    1  0.3179758E-002  0.1250038E+03  0.7818608E-02  0.1235063E+00
          4   -1    0    0  501    0  0.00000000000E+00  0.00000000000E+00  0.29506152716E+02  0.29533471657E+02  0.12700000000E+01 0. -1.
         -4   -1    0    0    0  501 -0.00000000000E+00 -0.00000000000E+00 -0.13230402112E+03  0.13231011641E+03  0.12700000000E+01 0. -1.
         25    2    1    2    0    0  0.00000000000E+00  0.00000000000E+00 -0.10279786840E+03  0.16184358806E+03  0.12500378094E+03 0.  0.
    9000005    1    3    3    0    0 -0.87343512253E+01 -0.27718346495E+01  0.28637935843E+02  0.30084935233E+02  0.10000000000E+01 0.  0.
    9000005    1    3    3    0    0  0.87343512253E+01  0.27718346495E+01 -0.13143580424E+03  0.13175865283E+03  0.10000000000E+01 0.  0.
<mgrwt>
<rscale>  0 0.12500378E+03</rscale>
<asrwt>0</asrwt>
<pdfrwt beam="1">  1        4 0.45419785E-02 0.12500378E+03</pdfrwt>
<pdfrwt beam="2">  1       -4 0.20357035E-01 0.12500378E+03</pdfrwt>
<totfact> 0.96980288E+03</totfact>
</mgrwt>
</event>
<event>
 5    1  0.3179758E-002  0.1250101E+03  0.7818608E-02  0.1235053E+00
         -4   -1    0    0    0  501 -0.00000000000E+00  0.00000000000E+00  0.35027836768E+03  0.35028066998E+03  0.12700000000E+01 0.  1.
          4   -1    0    0  501    0  0.00000000000E+00 -0.00000000000E+00 -0.11115151352E+02  0.11187470205E+02  0.12700000000E+01 0.  1.
         25    2    1    2    0    0  0.00000000000E+00  0.00000000000E+00  0.33916321632E+03  0.36146814019E+03  0.12501011584E+03 0.  0.
    9000005    1    3    3    0    0  0.28336202441E+02 -0.34337060557E+02  0.42753055530E+02  0.61731660059E+02  0.10000000000E+01 0.  0.
    9000005    1    3    3    0    0 -0.28336202441E+02  0.34337060557E+02  0.29641016079E+03  0.29973648013E+03  0.10000000000E+01 0.  0.
<mgrwt>
<rscale>  0 0.12501012E+03</rscale>
<asrwt>0</asrwt>
<pdfrwt beam="2">  1        4 0.17157635E-02 0.12501012E+03</pdfrwt>
<pdfrwt beam="1">  1       -4 0.53894717E-01 0.12501012E+03</pdfrwt>
<totfact> 0.68465757E+03</totfact>
</mgrwt>
</event>
<event>
 5    1  0.3179758E-002  0.1249857E+03  0.7818608E-02  0.1235092E+00
         -4   -1    0    0    0  501 -0.00000000000E+00  0.00000000000E+00  0.29211657031E+03  0.29211933101E+03  0.12700000000E+01 0.  1.
          4   -1    0    0  501    0  0.00000000000E+00 -0.00000000000E+00 -0.13336185104E+02  0.13396519441E+02  0.12700000000E+01 0.  1.
         25    2    1    2    0    0  0.00000000000E+00  0.00000000000E+00  0.27878038521E+03  0.30551585045E+03  0.12498572599E+03 0.  0.
    9000005    1    3    3    0    0  0.45328807256E+01  0.59249072382E+02  0.92158201096E+02  0.10965917023E+03  0.10000000000E+01 0.  0.
    9000005    1    3    3    0    0 -0.45328807256E+01 -0.59249072382E+02  0.18662218411E+03  0.19585668023E+03  0.10000000000E+01 0.  0.
<mgrwt>
<rscale>  0 0.12498573E+03</rscale>
<asrwt>0</asrwt>
<pdfrwt beam="2">  1        4 0.20565742E-02 0.12498573E+03</pdfrwt>
<pdfrwt beam="1">  1       -4 0.44945866E-01 0.12498573E+03</pdfrwt>
<totfact> 0.74935841E+03</totfact>
</mgrwt>
</event>
<event>
 5    1  0.3179758E-002  0.1249998E+03  0.7818608E-02  0.1235070E+00
          4   -1    0    0  501    0  0.00000000000E+00  0.00000000000E+00  0.92800294335E+03  0.92800381237E+03  0.12700000000E+01 0. -1.
         -4   -1    0    0    0  501 -0.00000000000E+00 -0.00000000000E+00 -0.41126083087E+01  0.43042359485E+01  0.12700000000E+01 0. -1.
         25    2    1    2    0    0  0.00000000000E+00  0.00000000000E+00  0.92389033504E+03  0.93230804832E+03  0.12499978308E+03 0.  0.
    9000005    1    3    3    0    0 -0.47720856543E+02  0.40070889694E+02  0.49715051767E+03  0.50104150883E+03  0.10000000000E+01 0.  0.
    9000005    1    3    3    0    0  0.47720856543E+02 -0.40070889694E+02  0.42673981737E+03  0.43126653949E+03  0.10000000000E+01 0.  0.
<mgrwt>
<rscale>  0 0.12499978E+03</rscale>
<asrwt>0</asrwt>
<pdfrwt beam="1">  1        4 0.14278462E+00 0.12499978E+03</pdfrwt>
<pdfrwt beam="2">  1       -4 0.64751581E-03 0.12499978E+03</pdfrwt>
<totfact> 0.32952676E+03</totfact>
</mgrwt>
</event>
<event>
 5    1  0.3179758E-002  0.1250019E+03  0.7818608E-02  0.1235066E+00
         -4   -1    0    0    0  501 -0.00000000000E+00  0.00000000000E+00  0.10728359163E+02  0.10803267576E+02  0.12700000000E+01 0.  1.
          4   -1    0    0  501    0  0.00000000000E+00 -0.00000000000E+00 -0.36277354396E+03  0.36277576697E+03  0.12700000000E+01 0.  1.
         25    2    1    2    0    0  0.00000000000E+00  0.00000000000E+00 -0.35204518480E+03  0.37357903455E+03  0.12500193163E+03 0.  0.
    9000005    1    3    3    0    0  0.10464265364E+00  0.54053633390E+02 -0.82295057962E+02  0.98464627140E+02  0.10000000000E+01 0.  0.
    9000005    1    3    3    0    0 -0.10464265364E+00 -0.54053633390E+02 -0.26975012684E+03  0.27511440741E+03  0.10000000000E+01 0.  0.
<mgrwt>
<rscale>  0 0.12500193E+03</rscale>
<asrwt>0</asrwt>
<pdfrwt beam="2">  1        4 0.55817238E-01 0.12500193E+03</pdfrwt>
<pdfrwt beam="1">  1       -4 0.16564503E-02 0.12500193E+03</pdfrwt>
<totfact> 0.67203293E+03</totfact>
</mgrwt>
</event>
<event>
 5    1  0.3179758E-002  0.1250083E+03  0.7818608E-02  0.1235056E+00
          4   -1    0    0  501    0  0.00000000000E+00  0.00000000000E+00  0.37549039705E+03  0.37549254477E+03  0.12700000000E+01 0. -1.
         -4   -1    0    0    0  501 -0.00000000000E+00 -0.00000000000E+00 -0.10363508663E+02  0.10441034997E+02  0.12700000000E+01 0. -1.
         25    2    1    2    0    0  0.00000000000E+00  0.00000000000E+00  0.36512688839E+03  0.38593357977E+03  0.12500833319E+03 0.  0.
    9000005    1    3    3    0    0  0.54036275865E+02  0.30578604408E+02  0.20456778626E+03  0.21378482016E+03  0.10000000000E+01 0.  0.
    9000005    1    3    3    0    0 -0.54036275865E+02 -0.30578604408E+02  0.16055910213E+03  0.17214875961E+03  0.10000000000E+01 0.  0.
<mgrwt>
<rscale>  0 0.12500833E+03</rscale>
<asrwt>0</asrwt>
<pdfrwt beam="1">  1        4 0.57773889E-01 0.12500833E+03</pdfrwt>
<pdfrwt beam="2">  1       -4 0.16005145E-02 0.12500833E+03</pdfrwt>
<totfact> 0.65932113E+03</totfact>
</mgrwt>
</event>
<event>
 5    1  0.3179758E-002  0.1250031E+03  0.7818608E-02  0.1235064E+00
         -4   -1    0    0    0  501 -0.00000000000E+00  0.00000000000E+00  0.38249144556E+02  0.38270222880E+02  0.12700000000E+01 0.  1.
          4   -1    0    0  501    0  0.00000000000E+00 -0.00000000000E+00 -0.10207835014E+03  0.10208625013E+03  0.12700000000E+01 0.  1.
         25    2    1    2    0    0  0.00000000000E+00  0.00000000000E+00 -0.63829205579E+02  0.14035647301E+03  0.12500308809E+03 0.  0.
    9000005    1    3    3    0    0  0.18835496839E+02  0.11691204277E+02 -0.97520422987E+02  0.10001346458E+03  0.10000000000E+01 0.  0.
    9000005    1    3    3    0    0 -0.18835496839E+02 -0.11691204277E+02  0.33691217409E+02  0.40343008429E+02  0.10000000000E+01 0.  0.
<mgrwt>
<rscale>  0 0.12500309E+03</rscale>
<asrwt>0</asrwt>
<pdfrwt beam="2">  1        4 0.15706591E-01 0.12500309E+03</pdfrwt>
<pdfrwt beam="1">  1       -4 0.58867129E-02 0.12500309E+03</pdfrwt>
<totfact> 0.10125499E+04</totfact>
</mgrwt>
</event>
<event>
 5    1  0.3179758E-002  0.1250022E+03  0.7818608E-02  0.1235066E+00
          4   -1    0    0  501    0  0.00000000000E+00  0.00000000000E+00  0.12708868361E+03  0.12709502902E+03  0.12700000000E+01 0. -1.
         -4   -1    0    0    0  501 -0.00000000000E+00 -0.00000000000E+00 -0.30717257510E+02  0.30743500271E+02  0.12700000000E+01 0. -1.
         25    2    1    2    0    0  0.00000000000E+00  0.00000000000E+00  0.96371426097E+02  0.15783852929E+03  0.12500219822E+03 0.  0.
    9000005    1    3    3    0    0  0.68125325485E+01  0.29386610669E+02  0.11729287706E+03  0.12111400619E+03  0.10000000000E+01 0.  0.
    9000005    1    3    3    0    0 -0.68125325485E+01 -0.29386610669E+02 -0.20921450964E+02  0.36724523098E+02  0.10000000000E+01 0.  0.
<mgrwt>
<rscale>  0 0.12500220E+03</rscale>
<asrwt>0</asrwt>
<pdfrwt beam="1">  1        4 0.19554612E-01 0.12500220E+03</pdfrwt>
<pdfrwt beam="2">  1       -4 0.47282386E-02 0.12500220E+03</pdfrwt>
<totfact> 0.97756293E+03</totfact>
</mgrwt>
</event>
<event>
 4    1  0.3179758E-002  0.1249010E+03  0.7818608E-02  0.1235224E+00
          4   -1    0    0  501    0  0.00000000000E+00  0.00000000000E+00  0.81348197427E+02  0.81358110380E+02  0.12700000000E+01 0. -1.
         -4   -1    0    0    0  501 -0.00000000000E+00 -0.00000000000E+00 -0.47921572326E+02  0.47938397911E+02  0.12700000000E+01 0. -1.
    9000005    1    1    2    0    0  0.33186981402E+02 -0.17930899934E+02  0.68225642406E+02  0.77965576948E+02  0.10000000000E+01 0.  0.
    9000005    1    1    2    0    0 -0.33186981402E+02  0.17930899934E+02 -0.34799017306E+02  0.51330931343E+02  0.10000000000E+01 0.  0.
<mgrwt>
<rscale>  0 0.12490095E+03</rscale>
<asrwt>0</asrwt>
<pdfrwt beam="1">  1        4 0.12517164E-01 0.12490095E+03</pdfrwt>
<pdfrwt beam="2">  1       -4 0.73746064E-02 0.12490095E+03</pdfrwt>
<totfact> 0.10382777E+04</totfact>
</mgrwt>
</event>
<event>
 5    1  0.3179758E-002  0.1249982E+03  0.7818608E-02  0.1235072E+00
          4   -1    0    0  501    0  0.00000000000E+00  0.00000000000E+00  0.10095882580E+03  0.10096681340E+03  0.12700000000E+01 0.  1.
         -4   -1    0    0    0  501 -0.00000000000E+00 -0.00000000000E+00 -0.38670453230E+02  0.38691302033E+02  0.12700000000E+01 0.  1.
         25    2    1    2    0    0  0.00000000000E+00  0.00000000000E+00  0.62288372572E+02  0.13965811543E+03  0.12499819138E+03 0.  0.
    9000005    1    3    3    0    0  0.19025368699E+02 -0.23686819110E+02  0.92157421297E+02  0.97041333224E+02  0.10000000000E+01 0.  0.
    9000005    1    3    3    0    0 -0.19025368699E+02  0.23686819110E+02 -0.29869048726E+02  0.42616782204E+02  0.10000000000E+01 0.  0.
<mgrwt>
<rscale>  0 0.12499819E+03</rscale>
<asrwt>0</asrwt>
<pdfrwt beam="1">  1        4 0.15534345E-01 0.12499819E+03</pdfrwt>
<pdfrwt beam="2">  1       -4 0.59515188E-02 0.12499819E+03</pdfrwt>
<totfact> 0.10141090E+04</totfact>
</mgrwt>
</event>
<event>
 5    1  0.3179758E-002  0.1250024E+03  0.7818608E-02  0.1235066E+00
         -4   -1    0    0    0  501 -0.00000000000E+00  0.00000000000E+00  0.55028831197E+02  0.55043484291E+02  0.12700000000E+01 0.  1.
          4   -1    0    0  501    0  0.00000000000E+00 -0.00000000000E+00 -0.70958425431E+02  0.70969789627E+02  0.12700000000E+01 0.  1.
         25    2    1    2    0    0  0.00000000000E+00  0.00000000000E+00 -0.15929594234E+02  0.12601327392E+03  0.12500237290E+03 0.  0.
    9000005    1    3    3    0    0 -0.26709901203E+01  0.49276523928E+02 -0.46616599434E+02  0.67892689897E+02  0.10000000000E+01 0.  0.
    9000005    1    3    3    0    0  0.26709901203E+01 -0.49276523928E+02  0.30687005200E+02  0.58120584020E+02  0.10000000000E+01 0.  0.
<mgrwt>
<rscale>  0 0.12500237E+03</rscale>
<asrwt>0</asrwt>
<pdfrwt beam="2">  1        4 0.10918682E-01 0.12500237E+03</pdfrwt>
<pdfrwt beam="1">  1       -4 0.84679754E-02 0.12500237E+03</pdfrwt>
<totfact> 0.10430107E+04</totfact>
</mgrwt>
</event>
<event>
 5    1  0.3179758E-002  0.1249990E+03  0.7818608E-02  0.1235071E+00
         -4   -1    0    0    0  501 -0.00000000000E+00  0.00000000000E+00  0.72088298278E+01  0.73198447720E+01  0.12700000000E+01 0.  1.
          4   -1    0    0  501    0  0.00000000000E+00 -0.00000000000E+00 -0.53760965397E+03  0.53761115403E+03  0.12700000000E+01 0.  1.
         25    2    1    2    0    0  0.00000000000E+00  0.00000000000E+00 -0.53040082414E+03  0.54493099880E+03  0.12499903683E+03 0.  0.
    9000005    1    3    3    0    0 -0.56033030905E+02  0.40910377525E+01 -0.14591041271E+03  0.15635627803E+03  0.10000000000E+01 0.  0.
    9000005    1    3    3    0    0  0.56033030905E+02 -0.40910377525E+01 -0.38449041143E+03  0.38857472078E+03  0.10000000000E+01 0.  0.
<mgrwt>
<rscale>  0 0.12499904E+03</rscale>
<asrwt>0</asrwt>
<pdfrwt beam="2">  1        4 0.82717802E-01 0.12499904E+03</pdfrwt>
<pdfrwt beam="1">  1       -4 0.11177062E-02 0.12499904E+03</pdfrwt>
<totfact> 0.52540487E+03</totfact>
</mgrwt>
</event>
<event>
 5    1  0.3179758E-002  0.1250055E+03  0.7818608E-02  0.1235061E+00
         -4   -1    0    0    0  501 -0.00000000000E+00  0.00000000000E+00  0.51174716170E+01  0.52727047851E+01  0.12700000000E+01 0. -1.
          4   -1    0    0  501    0  0.00000000000E+00 -0.00000000000E+00 -0.75182302443E+03  0.75182409708E+03  0.12700000000E+01 0. -1.
         25    2    1    2    0    0  0.00000000000E+00  0.00000000000E+00 -0.74670555281E+03  0.75709680187E+03  0.12500553910E+03 0.  0.
    9000005    1    3    3    0    0 -0.14574647930E+02 -0.46537425254E+02 -0.13664921788E+03  0.14509362859E+03  0.10000000000E+01 0.  0.
    9000005    1    3    3    0    0  0.14574647930E+02  0.46537425254E+02 -0.61005633493E+03  0.61200317328E+03  0.10000000000E+01 0.  0.
<mgrwt>
<rscale>  0 0.12500554E+03</rscale>
<asrwt>0</asrwt>
<pdfrwt beam="2">  1        4 0.11567702E+00 0.12500554E+03</pdfrwt>
<pdfrwt beam="1">  1       -4 0.79932745E-03 0.12500554E+03</pdfrwt>
<totfact> 0.40232130E+03</totfact>
</mgrwt>
</event>
<event>
 5    1  0.3179758E-002  0.1249951E+03  0.7818608E-02  0.1235077E+00
          4   -1    0    0  501    0  0.00000000000E+00  0.00000000000E+00  0.23624235381E+02  0.23658347308E+02  0.12700000000E+01 0. -1.
         -4   -1    0    0    0  501 -0.00000000000E+00 -0.00000000000E+00 -0.16518058671E+03  0.16518546887E+03  0.12700000000E+01 0. -1.
         25    2    1    2    0    0  0.00000000000E+00  0.00000000000E+00 -0.14155635133E+03  0.18884381618E+03  0.12499514513E+03 0.  0.
    9000005    1    3    3    0    0 -0.44383433663E+02 -0.14450163627E+02 -0.80068227069E+01  0.47368825427E+02  0.10000000000E+01 0.  0.
    9000005    1    3    3    0    0  0.44383433663E+02  0.14450163627E+02 -0.13354952862E+03  0.14147499075E+03  0.10000000000E+01 0.  0.
<mgrwt>
<rscale>  0 0.12499515E+03</rscale>
<asrwt>0</asrwt>
<pdfrwt beam="1">  1        4 0.36374974E-02 0.12499515E+03</pdfrwt>
<pdfrwt beam="2">  1       -4 0.25415397E-01 0.12499515E+03</pdfrwt>
<totfact> 0.92058889E+03</totfact>
</mgrwt>
</event>
<event>
 5    1  0.3179758E-002  0.1250022E+03  0.7818608E-02  0.1235066E+00
         -4   -1    0    0    0  501 -0.00000000000E+00  0.00000000000E+00  0.48245195677E+03  0.48245362833E+03  0.12700000000E+01 0. -1.
          4   -1    0    0  501    0  0.00000000000E+00 -0.00000000000E+00 -0.80454539477E+01  0.81450739238E+01  0.12700000000E+01 0. -1.
         25    2    1    2    0    0  0.00000000000E+00  0.00000000000E+00  0.47440650282E+03  0.49059870225E+03  0.12500222692E+03 0.  0.
    9000005    1    3    3    0    0  0.40669775908E+02 -0.27886087078E+02  0.38786979322E+03  0.39099314702E+03  0.10000000000E+01 0.  0.
    9000005    1    3    3    0    0 -0.40669775908E+02  0.27886087078E+02  0.86536709601E+02  0.99605555234E+02  0.10000000000E+01 0.  0.
<mgrwt>
<rscale>  0 0.12500223E+03</rscale>
<asrwt>0</asrwt>
<pdfrwt beam="2">  1        4 0.12455535E-02 0.12500223E+03</pdfrwt>
<pdfrwt beam="1">  1       -4 0.74231189E-01 0.12500223E+03</pdfrwt>
<totfact> 0.56598457E+03</totfact>
</mgrwt>
</event>
<event>
 5    1  0.3179758E-002  0.1249944E+03  0.7818608E-02  0.1235078E+00
          4   -1    0    0  501    0  0.00000000000E+00  0.00000000000E+00  0.94296369017E+02  0.94304920920E+02  0.12700000000E+01 0. -1.
         -4   -1    0    0    0  501 -0.00000000000E+00 -0.00000000000E+00 -0.41401363101E+02  0.41420837348E+02  0.12700000000E+01 0. -1.
         25    2    1    2    0    0  0.00000000000E+00  0.00000000000E+00  0.52895005916E+02  0.13572575827E+03  0.12499439910E+03 0.  0.
    9000005    1    3    3    0    0 -0.42897708341E+02  0.12047203730E+02  0.74021714840E+02  0.86403488161E+02  0.10000000000E+01 0.  0.
    9000005    1    3    3    0    0  0.42897708341E+02 -0.12047203730E+02 -0.21126708924E+02  0.49322270107E+02  0.10000000000E+01 0.  0.
<mgrwt>
<rscale>  0 0.12499440E+03</rscale>
<asrwt>0</asrwt>
<pdfrwt beam="1">  1        4 0.14509289E-01 0.12499440E+03</pdfrwt>
<pdfrwt beam="2">  1       -4 0.63715965E-02 0.12499440E+03</pdfrwt>
<totfact> 0.10224088E+04</totfact>
</mgrwt>
</event>
<event>
 5    1  0.3179758E-002  0.1249997E+03  0.7818608E-02  0.1235070E+00
         -4   -1    0    0    0  501 -0.00000000000E+00  0.00000000000E+00  0.17581296407E+03  0.17581755098E+03  0.12700000000E+01 0.  1.
          4   -1    0    0  501    0  0.00000000000E+00 -0.00000000000E+00 -0.22195090331E+02  0.22231395250E+02  0.12700000000E+01 0.  1.
         25    2    1    2    0    0  0.00000000000E+00  0.00000000000E+00  0.15361787374E+03  0.19804894623E+03  0.12499973589E+03 0.  0.
    9000005    1    3    3    0    0 -0.44411837031E+02  0.18455723735E+02  0.13587638923E+02  0.49986487559E+02  0.10000000000E+01 0.  0.
    9000005    1    3    3    0    0  0.44411837031E+02 -0.18455723735E+02  0.14003023481E+03  0.14806245867E+03  0.10000000000E+01 0.  0.
<mgrwt>
<rscale>  0 0.12499974E+03</rscale>
<asrwt>0</asrwt>
<pdfrwt beam="2">  1        4 0.34177748E-02 0.12499974E+03</pdfrwt>
<pdfrwt beam="1">  1       -4 0.27051294E-01 0.12499974E+03</pdfrwt>
<totfact> 0.90465912E+03</totfact>
</mgrwt>
</event>
<event>
 5    1  0.3179758E-002  0.1250063E+03  0.7818608E-02  0.1235059E+00
         -4   -1    0    0    0  501 -0.00000000000E+00  0.00000000000E+00  0.66481779955E+03  0.66481901259E+03  0.12700000000E+01 0. -1.
          4   -1    0    0  501    0  0.00000000000E+00 -0.00000000000E+00 -0.58064113161E+01  0.59436783537E+01  0.12700000000E+01 0. -1.
         25    2    1    2    0    0  0.00000000000E+00  0.00000000000E+00  0.65901138824E+03  0.67076269094E+03  0.12500631079E+03 0.  0.
    9000005    1    3    3    0    0  0.77495292410E-01 -0.20426715189E+02  0.64642546656E+03  0.64674890067E+03  0.10000000000E+01 0.  0.
    9000005    1    3    3    0    0 -0.77495292410E-01  0.20426715189E+02  0.12585921676E+02  0.24013790275E+02  0.10000000000E+01 0.  0.
<mgrwt>
<rscale>  0 0.12500631E+03</rscale>
<asrwt>0</asrwt>
<pdfrwt beam="2">  1        4 0.90394642E-03 0.12500631E+03</pdfrwt>
<pdfrwt beam="1">  1       -4 0.10229031E+00 0.12500631E+03</pdfrwt>
<totfact> 0.44669497E+03</totfact>
</mgrwt>
</event>
<event>
 5    1  0.3179758E-002  0.1250072E+03  0.7818608E-02  0.1235058E+00
          4   -1    0    0  501    0  0.00000000000E+00  0.00000000000E+00  0.36562587065E+02  0.36584637116E+02  0.12700000000E+01 0. -1.
         -4   -1    0    0    0  501 -0.00000000000E+00 -0.00000000000E+00 -0.10679160739E+03  0.10679915875E+03  0.12700000000E+01 0. -1.
         25    2    1    2    0    0  0.00000000000E+00  0.00000000000E+00 -0.70229020329E+02  0.14338379587E+03  0.12500719028E+03 0.  0.
    9000005    1    3    3    0    0 -0.47755056166E+02  0.40266261898E+02 -0.37345181137E+02  0.72784474930E+02  0.10000000000E+01 0.  0.
    9000005    1    3    3    0    0  0.47755056166E+02 -0.40266261898E+02 -0.32883839192E+02  0.70599320936E+02  0.10000000000E+01 0.  0.
<mgrwt>
<rscale>  0 0.12500719E+03</rscale>
<asrwt>0</asrwt>
<pdfrwt beam="1">  1        4 0.56272905E-02 0.12500719E+03</pdfrwt>
<pdfrwt beam="2">  1       -4 0.16431755E-01 0.12500719E+03</pdfrwt>
<totfact> 0.10062300E+04</totfact>
</mgrwt>
</event>
<event>
 5    1  0.3179758E-002  0.1249992E+03  0.7818608E-02  0.1235071E+00
          4   -1    0    0  501    0  0.00000000000E+00  0.00000000000E+00  0.25775309099E+03  0.25775621974E+03  0.12700000000E+01 0.  1.
         -4   -1    0    0    0  501 -0.00000000000E+00 -0.00000000000E+00 -0.15124979625E+02  0.15178205054E+02  0.12700000000E+01 0.  1.
         25    2    1    2    0    0  0.00000000000E+00  0.00000000000E+00  0.24262811136E+03  0.27293442479E+03  0.12499919925E+03 0.  0.
    9000005    1    3    3    0    0  0.17033286264E+02 -0.53937937049E+02  0.63306913524E+02  0.84901114209E+02  0.10000000000E+01 0.  0.
    9000005    1    3    3    0    0 -0.17033286264E+02  0.53937937049E+02  0.17932119784E+03  0.18803331058E+03  0.10000000000E+01 0.  0.
<mgrwt>
<rscale>  0 0.12499920E+03</rscale>
<asrwt>0</asrwt>
<pdfrwt beam="1">  1        4 0.39658655E-01 0.12499920E+03</pdfrwt>
<pdfrwt beam="2">  1       -4 0.23312550E-02 0.12499920E+03</pdfrwt>
<totfact> 0.79125783E+03</totfact>
</mgrwt>
</event>
<event>
 5    1  0.3179758E-002  0.1250030E+03  0.7818608E-02  0.1235065E+00
         -4   -1    0    0    0  501 -0.00000000000E+00  0.00000000000E+00  0.36040729939E+02  0.36063099070E+02  0.12700000000E+01 0.  1.
          4   -1    0    0  501    0  0.00000000000E+00 -0.00000000000E+00 -0.10832982096E+03  0.10833726510E+03  0.12700000000E+01 0.  1.
         25    2    1    2    0    0  0.00000000000E+00  0.00000000000E+00 -0.72289091023E+02  0.14440036417E+03  0.12500300993E+03 0.  0.
    9000005    1    3    3    0    0 -0.36878663973E+02 -0.13709836018E+02 -0.92232343180E+02  0.10027861481E+03  0.10000000000E+01 0.  0.
    9000005    1    3    3    0    0  0.36878663973E+02  0.13709836018E+02  0.19943252157E+02  0.44121749361E+02  0.10000000000E+01 0.  0.
<mgrwt>
<rscale>  0 0.12500301E+03</rscale>
<asrwt>0</asrwt>
<pdfrwt beam="2">  1        4 0.16668420E-01 0.12500301E+03</pdfrwt>
<pdfrwt beam="1">  1       -4 0.55470210E-02 0.12500301E+03</pdfrwt>
<totfact> 0.10042505E+04</totfact>
</mgrwt>
</event>
<event>
 5    1  0.3179758E-002  0.1249985E+03  0.7818608E-02  0.1235072E+00
          4   -1    0    0  501    0  0.00000000000E+00  0.00000000000E+00  0.52591711831E+02  0.52607043761E+02  0.12700000000E+01 0. -1.
         -4   -1    0    0    0  501 -0.00000000000E+00 -0.00000000000E+00 -0.74241654319E+02  0.74252516024E+02  0.12700000000E+01 0. -1.
         25    2    1    2    0    0  0.00000000000E+00  0.00000000000E+00 -0.21649942488E+02  0.12685955979E+03  0.12499851159E+03 0.  0.
    9000005    1    3    3    0    0  0.18987266535E+02  0.57881916620E+02 -0.24972547397E+02  0.65844215278E+02  0.10000000000E+01 0.  0.
    9000005    1    3    3    0    0 -0.18987266535E+02 -0.57881916620E+02  0.33226049089E+01  0.61015344508E+02  0.10000000000E+01 0.  0.
<mgrwt>
<rscale>  0 0.12499851E+03</rscale>
<asrwt>0</asrwt>
<pdfrwt beam="1">  1        4 0.80930475E-02 0.12499851E+03</pdfrwt>
<pdfrwt beam="2">  1       -4 0.11423808E-01 0.12499851E+03</pdfrwt>
<totfact> 0.10412548E+04</totfact>
</mgrwt>
</event>
<event>
 5    1  0.3179758E-002  0.1250000E+03  0.7818608E-02  0.1235069E+00
         -4   -1    0    0    0  501 -0.00000000000E+00  0.00000000000E+00  0.85278603176E+01  0.86219082340E+01  0.12700000000E+01 0.  1.
          4   -1    0    0  501    0  0.00000000000E+00 -0.00000000000E+00 -0.45545067435E+03  0.45545244501E+03  0.12700000000E+01 0.  1.
         25    2    1    2    0    0  0.00000000000E+00  0.00000000000E+00 -0.44692281403E+03  0.46407435325E+03  0.12500001455E+03 0.  0.
    9000005    1    3    3    0    0  0.32260076504E+02  0.46953337241E+02 -0.31883408355E+03  0.32388501238E+03  0.10000000000E+01 0.  0.
    9000005    1    3    3    0    0 -0.32260076504E+02 -0.46953337241E+02 -0.12808873048E+03  0.14018934086E+03  0.10000000000E+01 0.  0.
<mgrwt>
<rscale>  0 0.12500001E+03</rscale>
<asrwt>0</asrwt>
<pdfrwt beam="2">  1        4 0.70076687E-01 0.12500001E+03</pdfrwt>
<pdfrwt beam="1">  1       -4 0.13193495E-02 0.12500001E+03</pdfrwt>
<totfact> 0.58763624E+03</totfact>
</mgrwt>
</event>
<event>
 5    1  0.3179758E-002  0.1249975E+03  0.7818608E-02  0.1235073E+00
         -4   -1    0    0    0  501 -0.00000000000E+00  0.00000000000E+00  0.18599900676E+02  0.18643208017E+02  0.12700000000E+01 0.  1.
          4   -1    0    0  501    0  0.00000000000E+00 -0.00000000000E+00 -0.20971686404E+03  0.20972070943E+03  0.12700000000E+01 0.  1.
         25    2    1    2    0    0  0.00000000000E+00  0.00000000000E+00 -0.19111696336E+03  0.22836391744E+03  0.12499754040E+03 0.  0.
    9000005    1    3    3    0    0 -0.48455199538E+02 -0.26261876641E+02 -0.41748642104E+02  0.69148692284E+02  0.10000000000E+01 0.  0.
    9000005    1    3    3    0    0  0.48455199538E+02  0.26261876641E+02 -0.14936832126E+03  0.15921522516E+03  0.10000000000E+01 0.  0.
<mgrwt>
<rscale>  0 0.12499754E+03</rscale>
<asrwt>0</asrwt>
<pdfrwt beam="2">  1        4 0.32267759E-01 0.12499754E+03</pdfrwt>
<pdfrwt beam="1">  1       -4 0.28651505E-02 0.12499754E+03</pdfrwt>
<totfact> 0.85566150E+03</totfact>
</mgrwt>
</event>
<event>
 5    1  0.3179758E-002  0.1250010E+03  0.7818608E-02  0.1235068E+00
         -4   -1    0    0    0  501 -0.00000000000E+00  0.00000000000E+00  0.92396203850E+03  0.92396291131E+03  0.12700000000E+01 0.  1.
          4   -1    0    0  501    0  0.00000000000E+00 -0.00000000000E+00 -0.41315152352E+01  0.43223047253E+01  0.12700000000E+01 0.  1.
         25    2    1    2    0    0  0.00000000000E+00  0.00000000000E+00  0.91983052326E+03  0.92828521604E+03  0.12500100317E+03 0.  0.
    9000005    1    3    3    0    0  0.14938933595E+02 -0.59527464549E+02  0.37248054656E+03  0.37750423618E+03  0.10000000000E+01 0.  0.
    9000005    1    3    3    0    0 -0.14938933595E+02  0.59527464549E+02  0.54734997671E+03  0.55078097986E+03  0.10000000000E+01 0.  0.
<mgrwt>
<rscale>  0 0.12500100E+03</rscale>
<asrwt>0</asrwt>
<pdfrwt beam="2">  1        4 0.65036116E-03 0.12500100E+03</pdfrwt>
<pdfrwt beam="1">  1       -4 0.14216271E+00 0.12500100E+03</pdfrwt>
<totfact> 0.33098975E+03</totfact>
</mgrwt>
</event>
<event>
 5    1  0.3179758E-002  0.1249996E+03  0.7818608E-02  0.1235070E+00
          4   -1    0    0  501    0  0.00000000000E+00  0.00000000000E+00  0.43478993061E+01  0.45295836868E+01  0.12700000000E+01 0.  1.
         -4   -1    0    0    0  501 -0.00000000000E+00 -0.00000000000E+00 -0.87984807787E+03  0.87984899444E+03  0.12700000000E+01 0.  1.
         25    2    1    2    0    0  0.00000000000E+00  0.00000000000E+00 -0.87550017856E+03  0.88437857813E+03  0.12499962719E+03 0.  0.
    9000005    1    3    3    0    0 -0.36395182366E+02 -0.50344558841E+02 -0.38974245144E+03  0.39466360658E+03  0.10000000000E+01 0.  0.
    9000005    1    3    3    0    0  0.36395182366E+02  0.50344558841E+02 -0.48575772712E+03  0.48971497155E+03  0.10000000000E+01 0.  0.
<mgrwt>
<rscale>  0 0.12499963E+03</rscale>
<asrwt>0</asrwt>
<pdfrwt beam="1">  1        4 0.68295451E-03 0.12499963E+03</pdfrwt>
<pdfrwt beam="2">  1       -4 0.13537515E+00 0.12499963E+03</pdfrwt>
<totfact> 0.34760608E+03</totfact>
</mgrwt>
</event>
<event>
 5    1  0.3179758E-002  0.1249997E+03  0.7818608E-02  0.1235070E+00
         -4   -1    0    0    0  501 -0.00000000000E+00  0.00000000000E+00  0.10649475020E+02  0.10724934415E+02  0.12700000000E+01 0. -1.
          4   -1    0    0  501    0  0.00000000000E+00 -0.00000000000E+00 -0.36542870123E+03  0.36543090808E+03  0.12700000000E+01 0. -1.
         25    2    1    2    0    0  0.00000000000E+00  0.00000000000E+00 -0.35477922621E+03  0.37615584250E+03  0.12499967398E+03 0.  0.
    9000005    1    3    3    0    0 -0.60637923820E+02 -0.43409678863E+01 -0.22093840521E+03  0.22915187258E+03  0.10000000000E+01 0.  0.
    9000005    1    3    3    0    0  0.60637923820E+02  0.43409678863E+01 -0.13384082100E+03  0.14700396992E+03  0.10000000000E+01 0.  0.
<mgrwt>
<rscale>  0 0.12499967E+03</rscale>
<asrwt>0</asrwt>
<pdfrwt beam="2">  1        4 0.56225765E-01 0.12499967E+03</pdfrwt>
<pdfrwt beam="1">  1       -4 0.16443554E-02 0.12499967E+03</pdfrwt>
<totfact> 0.66940287E+03</totfact>
</mgrwt>
</event>
<event>
 5    1  0.3179758E-002  0.1250068E+03  0.7818608E-02  0.1235059E+00
         -4   -1    0    0    0  501 -0.00000000000E+00  0.00000000000E+00  0.14108607422E+02  0.14165652240E+02  0.12700000000E+01 0. -1.
          4   -1    0    0  501    0  0.00000000000E+00 -0.00000000000E+00 -0.27628276494E+03  0.27628568385E+03  0.12700000000E+01 0. -1.
         25    2    1    2    0    0  0.00000000000E+00  0.00000000000E+00 -0.26217415751E+03  0.29045133609E+03  0.12500675889E+03 0.  0.
    9000005    1    3    3    0    0 -0.35337813497E+02  0.16460477636E+02 -0.17593358599E+02  0.42781241842E+02  0.10000000000E+01 0.  0.
    9000005    1    3    3    0    0  0.35337813497E+02 -0.16460477636E+02 -0.24458079892E+03  0.24767009425E+03  0.10000000000E+01 0.  0.
<mgrwt>
<rscale>  0 0.12500676E+03</rscale>
<asrwt>0</asrwt>
<pdfrwt beam="2">  1        4 0.42509649E-01 0.12500676E+03</pdfrwt>
<pdfrwt beam="1">  1       -4 0.21751678E-02 0.12500676E+03</pdfrwt>
<totfact> 0.76800903E+03</totfact>
</mgrwt>
</event>
<event>
 5    1  0.3179758E-002  0.1250028E+03  0.7818608E-02  0.1235065E+00
         -4   -1    0    0    0  501 -0.00000000000E+00  0.00000000000E+00  0.24265777778E+03  0.24266110116E+03  0.12700000000E+01 0. -1.
          4   -1    0    0  501    0  0.00000000000E+00 -0.00000000000E+00 -0.16070014488E+02  0.16120119902E+02  0.12700000000E+01 0. -1.
         25    2    1    2    0    0  0.00000000000E+00  0.00000000000E+00  0.22658776329E+03  0.25878122107E+03  0.12500282358E+03 0.  0.
    9000005    1    3    3    0    0  0.15631818679E+02  0.59705636771E+02  0.13361033312E+03  0.14717961114E+03  0.10000000000E+01 0.  0.
    9000005    1    3    3    0    0 -0.15631818679E+02 -0.59705636771E+02  0.92977430169E+02  0.11160160993E+03  0.10000000000E+01 0.  0.
<mgrwt>
<rscale>  0 0.12500282E+03</rscale>
<asrwt>0</asrwt>
<pdfrwt beam="2">  1        4 0.24764198E-02 0.12500282E+03</pdfrwt>
<pdfrwt beam="1">  1       -4 0.37336077E-01 0.12500282E+03</pdfrwt>
<totfact> 0.81072306E+03</totfact>
</mgrwt>
</event>
<event>
 5    1  0.3179758E-002  0.1249866E+03  0.7818608E-02  0.1235090E+00
         -4   -1    0    0    0  501 -0.00000000000E+00  0.00000000000E+00  0.47479639291E+01  0.49148816335E+01  0.12700000000E+01 0. -1.
          4   -1    0    0  501    0  0.00000000000E+00 -0.00000000000E+00 -0.80816825351E+03  0.80816925138E+03  0.12700000000E+01 0. -1.
         25    2    1    2    0    0  0.00000000000E+00  0.00000000000E+00 -0.80342028958E+03  0.81308413301E+03  0.12498658189E+03 0.  0.
    9000005    1    3    3    0    0  0.66352344333E+01  0.14141338072E+02 -0.81267012670E+01  0.17636526074E+02  0.10000000000E+01 0.  0.
    9000005    1    3    3    0    0 -0.66352344333E+01 -0.14141338072E+02 -0.79529358831E+03  0.79544760694E+03  0.10000000000E+01 0.  0.
<mgrwt>
<rscale>  0 0.12498658E+03</rscale>
<asrwt>0</asrwt>
<pdfrwt beam="2">  1        4 0.12434639E+00 0.12498658E+03</pdfrwt>
<pdfrwt beam="1">  1       -4 0.74337321E-03 0.12498658E+03</pdfrwt>
<totfact> 0.37698328E+03</totfact>
</mgrwt>
</event>
<event>
 5    1  0.3179758E-002  0.1250017E+03  0.7818608E-02  0.1235067E+00
         -4   -1    0    0    0  501 -0.00000000000E+00  0.00000000000E+00  0.53271198547E+02  0.53286334971E+02  0.12700000000E+01 0. -1.
          4   -1    0    0  501    0  0.00000000000E+00 -0.00000000000E+00 -0.73298563175E+02  0.73309564612E+02  0.12700000000E+01 0. -1.
         25    2    1    2    0    0  0.00000000000E+00  0.00000000000E+00 -0.20027364628E+02  0.12659589958E+03  0.12500170582E+03 0.  0.
    9000005    1    3    3    0    0  0.39051978072E+02 -0.20109689096E+01 -0.59382221740E+02  0.71108011125E+02  0.10000000000E+01 0.  0.
    9000005    1    3    3    0    0 -0.39051978072E+02  0.20109689096E+01  0.39354857112E+02  0.55487888459E+02  0.10000000000E+01 0.  0.
<mgrwt>
<rscale>  0 0.12500171E+03</rscale>
<asrwt>0</asrwt>
<pdfrwt beam="2">  1        4 0.11278713E-01 0.12500171E+03</pdfrwt>
<pdfrwt beam="1">  1       -4 0.81975796E-02 0.12500171E+03</pdfrwt>
<totfact> 0.10417536E+04</totfact>
</mgrwt>
</event>
<event>
 5    1  0.3179758E-002  0.1249983E+03  0.7818608E-02  0.1235072E+00
          4   -1    0    0  501    0  0.00000000000E+00  0.00000000000E+00  0.49324588285E+03  0.49324751784E+03  0.12700000000E+01 0. -1.
         -4   -1    0    0    0  501 -0.00000000000E+00 -0.00000000000E+00 -0.78666869672E+01  0.79685421402E+01  0.12700000000E+01 0. -1.
         25    2    1    2    0    0  0.00000000000E+00  0.00000000000E+00  0.48537919589E+03  0.50121605998E+03  0.12499829991E+03 0.  0.
    9000005    1    3    3    0    0 -0.24542197764E+02  0.50996671365E+02  0.13643687105E+03  0.14771255783E+03  0.10000000000E+01 0.  0.
    9000005    1    3    3    0    0  0.24542197764E+02 -0.50996671365E+02  0.34894232484E+03  0.35350350214E+03  0.10000000000E+01 0.  0.
<mgrwt>
<rscale>  0 0.12499830E+03</rscale>
<asrwt>0</asrwt>
<pdfrwt beam="1">  1        4 0.75891933E-01 0.12499830E+03</pdfrwt>
<pdfrwt beam="2">  1       -4 0.12182205E-02 0.12499830E+03</pdfrwt>
<totfact> 0.55772227E+03</totfact>
</mgrwt>
</event>
<event>
 5    1  0.3179758E-002  0.1249994E+03  0.7818608E-02  0.1235070E+00
         -4   -1    0    0    0  501 -0.00000000000E+00  0.00000000000E+00  0.15915236485E+03  0.15915743193E+03  0.12700000000E+01 0. -1.
          4   -1    0    0  501    0  0.00000000000E+00 -0.00000000000E+00 -0.24521982274E+02  0.24554847070E+02  0.12700000000E+01 0. -1.
         25    2    1    2    0    0  0.00000000000E+00  0.00000000000E+00  0.13463038258E+03  0.18371227900E+03  0.12499944617E+03 0.  0.
    9000005    1    3    3    0    0 -0.76156213336E+01  0.61910018614E+02  0.61744391372E+02  0.87773674635E+02  0.10000000000E+01 0.  0.
    9000005    1    3    3    0    0  0.76156213336E+01 -0.61910018614E+02  0.72885991206E+02  0.95938604363E+02  0.10000000000E+01 0.  0.
<mgrwt>
<rscale>  0 0.12499945E+03</rscale>
<asrwt>0</asrwt>
<pdfrwt beam="2">  1        4 0.37755306E-02 0.12499945E+03</pdfrwt>
<pdfrwt beam="1">  1       -4 0.24487896E-01 0.12499945E+03</pdfrwt>
<totfact> 0.92954171E+03</totfact>
</mgrwt>
</event>
<event>
 4    1  0.3179758E-002  0.1249215E+03  0.7818608E-02  0.1235192E+00
          4   -1    0    0  501    0  0.00000000000E+00  0.00000000000E+00  0.10138861061E+04  0.10138869015E+04  0.12700000000E+01 0. -1.
         -4   -1    0    0    0  501 -0.00000000000E+00 -0.00000000000E+00 -0.37423040667E+01  0.39519286086E+01  0.12700000000E+01 0. -1.
    9000005    1    1    2    0    0 -0.39918999978E+02  0.42137715925E+02  0.69286687939E+03  0.69529463267E+03  0.10000000000E+01 0.  0.
    9000005    1    1    2    0    0  0.39918999978E+02 -0.42137715925E+02  0.31727692260E+03  0.32254419741E+03  0.10000000000E+01 0.  0.
<mgrwt>
<rscale>  0 0.12492151E+03</rscale>
<asrwt>0</asrwt>
<pdfrwt beam="1">  1        4 0.15599867E+00 0.12492151E+03</pdfrwt>
<pdfrwt beam="2">  1       -4 0.59192520E-03 0.12492151E+03</pdfrwt>
<totfact> 0.30072024E+03</totfact>
</mgrwt>
</event>
<event>
 5    1  0.3179758E-002  0.1249972E+03  0.7818608E-02  0.1235074E+00
          4   -1    0    0  501    0  0.00000000000E+00  0.00000000000E+00  0.31130056446E+01  0.33620981757E+01  0.12700000000E+01 0.  1.
         -4   -1    0    0    0  501 -0.00000000000E+00 -0.00000000000E+00 -0.12062405757E+04  0.12062412443E+04  0.12700000000E+01 0.  1.
         25    2    1    2    0    0  0.00000000000E+00  0.00000000000E+00 -0.12031275701E+04  0.12096033425E+04  0.12499718483E+03 0.  0.
    9000005    1    3    3    0    0 -0.33736969275E+02  0.19208768860E+02 -0.12769340636E+03  0.13346822066E+03  0.10000000000E+01 0.  0.
    9000005    1    3    3    0    0  0.33736969275E+02 -0.19208768860E+02 -0.10754341637E+04  0.10761351218E+04  0.10000000000E+01 0.  0.
<mgrwt>
<rscale>  0 0.12499718E+03</rscale>
<asrwt>0</asrwt>
<pdfrwt beam="1">  1        4 0.49813730E-03 0.12499718E+03</pdfrwt>
<pdfrwt beam="2">  1       -4 0.18559433E+00 0.12499718E+03</pdfrwt>
<totfact> 0.24464321E+03</totfact>
</mgrwt>
</event>
<event>
 5    1  0.3179758E-002  0.1250039E+03  0.7818608E-02  0.1235063E+00
          4   -1    0    0  501    0  0.00000000000E+00  0.00000000000E+00  0.33949158005E+02  0.33972904339E+02  0.12700000000E+01 0.  1.
         -4   -1    0    0    0  501 -0.00000000000E+00 -0.00000000000E+00 -0.11500149461E+03  0.11500850691E+03  0.12700000000E+01 0.  1.
         25    2    1    2    0    0  0.00000000000E+00  0.00000000000E+00 -0.81052336603E+02  0.14898141125E+03  0.12500391846E+03 0.  0.
    9000005    1    3    3    0    0 -0.83251759537E+01 -0.61325042203E+02 -0.50876820228E+02  0.80121908317E+02  0.10000000000E+01 0.  0.
    9000005    1    3    3    0    0  0.83251759537E+01  0.61325042203E+02 -0.30175516375E+02  0.68859502934E+02  0.10000000000E+01 0.  0.
<mgrwt>
<rscale>  0 0.12500392E+03</rscale>
<asrwt>0</asrwt>
<pdfrwt beam="1">  1        4 0.52253135E-02 0.12500392E+03</pdfrwt>
<pdfrwt beam="2">  1       -4 0.17694903E-01 0.12500392E+03</pdfrwt>
<totfact> 0.99498351E+03</totfact>
</mgrwt>
</event>
<event>
 5    1  0.3179758E-002  0.1249928E+03  0.7818608E-02  0.1235081E+00
          4   -1    0    0  501    0  0.00000000000E+00  0.00000000000E+00  0.33735832174E+03  0.33736071221E+03  0.12700000000E+01 0. -1.
         -4   -1    0    0    0  501 -0.00000000000E+00 -0.00000000000E+00 -0.11540332316E+02  0.11610003013E+02  0.12700000000E+01 0. -1.
         25    2    1    2    0    0  0.00000000000E+00  0.00000000000E+00  0.32581798942E+03  0.34897071523E+03  0.12499279122E+03 0.  0.
    9000005    1    3    3    0    0 -0.25138032217E+02 -0.26734062168E+02  0.30412002098E+03  0.30632763163E+03  0.10000000000E+01 0.  0.
    9000005    1    3    3    0    0  0.25138032217E+02  0.26734062168E+02  0.21697968444E+02  0.42643083593E+02  0.10000000000E+01 0.  0.
<mgrwt>
<rscale>  0 0.12499279E+03</rscale>
<asrwt>0</asrwt>
<pdfrwt beam="1">  1        4 0.51906834E-01 0.12499279E+03</pdfrwt>
<pdfrwt beam="2">  1       -4 0.17809785E-02 0.12499279E+03</pdfrwt>
<totfact> 0.69849072E+03</totfact>
</mgrwt>
</event>
<event>
 5    1  0.3179758E-002  0.1250000E+03  0.7818608E-02  0.1235069E+00
         -4   -1    0    0    0  501 -0.00000000000E+00  0.00000000000E+00  0.33172635618E+02  0.33196937417E+02  0.12700000000E+01 0. -1.
          4   -1    0    0  501    0  0.00000000000E+00 -0.00000000000E+00 -0.11768440690E+03  0.11769125935E+03  0.12700000000E+01 0. -1.
         25    2    1    2    0    0  0.00000000000E+00  0.00000000000E+00 -0.84511771286E+02  0.15088819677E+03  0.12500003376E+03 0.  0.
    9000005    1    3    3    0    0 -0.15584969988E+02 -0.59894796609E+02 -0.52707922700E+02  0.81298235317E+02  0.10000000000E+01 0.  0.
    9000005    1    3    3    0    0  0.15584969988E+02  0.59894796609E+02 -0.31803848587E+02  0.69589961455E+02  0.10000000000E+01 0.  0.
<mgrwt>
<rscale>  0 0.12500003E+03</rscale>
<asrwt>0</asrwt>
<pdfrwt beam="2">  1        4 0.18107690E-01 0.12500003E+03</pdfrwt>
<pdfrwt beam="1">  1       -4 0.51058789E-02 0.12500003E+03</pdfrwt>
<totfact> 0.99126868E+03</totfact>
</mgrwt>
</event>
<event>
 5    1  0.3179758E-002  0.1249991E+03  0.7818608E-02  0.1235071E+00
         -4   -1    0    0    0  501 -0.00000000000E+00  0.00000000000E+00  0.20353144428E+04  0.20353148391E+04  0.12700000000E+01 0. -1.
          4   -1    0    0  501    0  0.00000000000E+00 -0.00000000000E+00 -0.17086689001E+01  0.21289550043E+01  0.12700000000E+01 0. -1.
         25    2    1    2    0    0  0.00000000000E+00  0.00000000000E+00  0.20336057739E+04  0.20374437941E+04  0.12499908081E+03 0.  0.
    9000005    1    3    3    0    0  0.55108477205E+01 -0.55169439454E+02  0.54688702479E+03  0.54969123550E+03  0.10000000000E+01 0.  0.
    9000005    1    3    3    0    0 -0.55108477205E+01  0.55169439454E+02  0.14867187491E+04  0.14877525586E+04  0.10000000000E+01 0.  0.
<mgrwt>
<rscale>  0 0.12499908E+03</rscale>
<asrwt>0</asrwt>
<pdfrwt beam="2">  1        4 0.29523081E-03 0.12499908E+03</pdfrwt>
<pdfrwt beam="1">  1       -4 0.31315926E+00 0.12499908E+03</pdfrwt>
<totfact> 0.93804151E+02</totfact>
</mgrwt>
</event>
<event>
 5    1  0.3179758E-002  0.1249454E+03  0.7818608E-02  0.1235155E+00
          4   -1    0    0  501    0  0.00000000000E+00  0.00000000000E+00  0.20319921654E+03  0.20320318526E+03  0.12700000000E+01 0.  1.
         -4   -1    0    0    0  501 -0.00000000000E+00 -0.00000000000E+00 -0.19181814268E+02  0.19223810720E+02  0.12700000000E+01 0.  1.
         25    2    1    2    0    0  0.00000000000E+00  0.00000000000E+00  0.18401740227E+03  0.22242699598E+03  0.12494544491E+03 0.  0.
    9000005    1    3    3    0    0 -0.29340811979E+02  0.39839984531E+02  0.24133761191E+02  0.55059477333E+02  0.10000000000E+01 0.  0.
    9000005    1    3    3    0    0  0.29340811979E+02 -0.39839984531E+02  0.15988364108E+03  0.16736751865E+03  0.10000000000E+01 0.  0.
<mgrwt>
<rscale>  0 0.12494544E+03</rscale>
<asrwt>0</asrwt>
<pdfrwt beam="1">  1        4 0.31264954E-01 0.12494544E+03</pdfrwt>
<pdfrwt beam="2">  1       -4 0.29545841E-02 0.12494544E+03</pdfrwt>
<totfact> 0.86591210E+03</totfact>
</mgrwt>
</event>
<event>
 5    1  0.3179758E-002  0.1249976E+03  0.7818608E-02  0.1235073E+00
          4   -1    0    0  501    0  0.00000000000E+00  0.00000000000E+00  0.13599644251E+03  0.13600237232E+03  0.12700000000E+01 0.  1.
         -4   -1    0    0    0  501 -0.00000000000E+00 -0.00000000000E+00 -0.28701498674E+02  0.28729582770E+02  0.12700000000E+01 0.  1.
         25    2    1    2    0    0  0.00000000000E+00  0.00000000000E+00  0.10729494384E+03  0.16473195509E+03  0.12499764819E+03 0.  0.
    9000005    1    3    3    0    0 -0.24347718676E+02  0.55436936542E+02  0.33271929009E+02  0.69094765343E+02  0.10000000000E+01 0.  0.
    9000005    1    3    3    0    0  0.24347718676E+02 -0.55436936542E+02  0.74023014827E+02  0.95637189743E+02  0.10000000000E+01 0.  0.
<mgrwt>
<rscale>  0 0.12499765E+03</rscale>
<asrwt>0</asrwt>
<pdfrwt beam="1">  1        4 0.20925146E-01 0.12499765E+03</pdfrwt>
<pdfrwt beam="2">  1       -4 0.44182317E-02 0.12499765E+03</pdfrwt>
<totfact> 0.96443275E+03</totfact>
</mgrwt>
</event>
<event>
 5    1  0.3179758E-002  0.1250047E+03  0.7818608E-02  0.1235062E+00
         -4   -1    0    0    0  501 -0.00000000000E+00  0.00000000000E+00  0.64321109092E+03  0.64321234471E+03  0.12700000000E+01 0. -1.
          4   -1    0    0  501    0  0.00000000000E+00 -0.00000000000E+00 -0.60058353007E+01  0.61386446109E+01  0.12700000000E+01 0. -1.
         25    2    1    2    0    0  0.00000000000E+00  0.00000000000E+00  0.63720525562E+03  0.64935098932E+03  0.12500467807E+03 0.  0.
    9000005    1    3    3    0    0 -0.23472362099E+01 -0.57986075780E+02  0.19815390192E+03  0.20647969234E+03  0.10000000000E+01 0.  0.
    9000005    1    3    3    0    0  0.23472362099E+01  0.57986075780E+02  0.43905135370E+03  0.44287129698E+03  0.10000000000E+01 0.  0.
<mgrwt>
<rscale>  0 0.12500468E+03</rscale>
<asrwt>0</asrwt>
<pdfrwt beam="2">  1        4 0.93428791E-03 0.12500468E+03</pdfrwt>
<pdfrwt beam="1">  1       -4 0.98965791E-01 0.12500468E+03</pdfrwt>
<totfact> 0.45888753E+03</totfact>
</mgrwt>
</event>
<event>
 5    1  0.3179758E-002  0.1250057E+03  0.7818608E-02  0.1235060E+00
         -4   -1    0    0    0  501 -0.00000000000E+00  0.00000000000E+00  0.14358635972E+03  0.14359197610E+03  0.12700000000E+01 0. -1.
          4   -1    0    0  501    0  0.00000000000E+00 -0.00000000000E+00 -0.27186379361E+02  0.27216026947E+02  0.12700000000E+01 0. -1.
         25    2    1    2    0    0  0.00000000000E+00  0.00000000000E+00  0.11639998036E+03  0.17080800304E+03  0.12500567377E+03 0.  0.
    9000005    1    3    3    0    0  0.11857465538E+02 -0.61218411050E+02  0.63885154983E+02  0.89278252490E+02  0.10000000000E+01 0.  0.
    9000005    1    3    3    0    0 -0.11857465538E+02  0.61218411050E+02  0.52514825380E+02  0.81529750553E+02  0.10000000000E+01 0.  0.
<mgrwt>
<rscale>  0 0.12500567E+03</rscale>
<asrwt>0</asrwt>
<pdfrwt beam="2">  1        4 0.41852326E-02 0.12500567E+03</pdfrwt>
<pdfrwt beam="1">  1       -4 0.22092921E-01 0.12500567E+03</pdfrwt>
<totfact> 0.95286116E+03</totfact>
</mgrwt>
</event>
<event>
 5    1  0.3179758E-002  0.1249991E+03  0.7818608E-02  0.1235071E+00
          4   -1    0    0  501    0  0.00000000000E+00  0.00000000000E+00  0.62897235084E+01  0.64166597083E+01  0.12700000000E+01 0.  1.
         -4   -1    0    0    0  501 -0.00000000000E+00 -0.00000000000E+00 -0.61471247501E+03  0.61471378693E+03  0.12700000000E+01 0.  1.
         25    2    1    2    0    0  0.00000000000E+00  0.00000000000E+00 -0.60842275151E+03  0.62113044664E+03  0.12499914875E+03 0.  0.
    9000005    1    3    3    0    0 -0.45032500494E+02  0.96422791223E+01 -0.94312866833E+02  0.10496102371E+03  0.10000000000E+01 0.  0.
    9000005    1    3    3    0    0  0.45032500494E+02 -0.96422791223E+01 -0.51410988467E+03  0.51616942293E+03  0.10000000000E+01 0.  0.
<mgrwt>
<rscale>  0 0.12499915E+03</rscale>
<asrwt>0</asrwt>
<pdfrwt beam="1">  1        4 0.97751550E-03 0.12499915E+03</pdfrwt>
<pdfrwt beam="2">  1       -4 0.94580968E-01 0.12499915E+03</pdfrwt>
<totfact> 0.47561300E+03</totfact>
</mgrwt>
</event>
<event>
 5    1  0.3179758E-002  0.1249985E+03  0.7818608E-02  0.1235072E+00
          4   -1    0    0  501    0  0.00000000000E+00  0.00000000000E+00  0.27969107223E+01  0.30717437374E+01  0.12700000000E+01 0.  1.
         -4   -1    0    0    0  501 -0.00000000000E+00 -0.00000000000E+00 -0.13309177703E+04  0.13309183763E+04  0.12700000000E+01 0.  1.
         25    2    1    2    0    0  0.00000000000E+00  0.00000000000E+00 -0.13281208596E+04  0.13339901200E+04  0.12499849015E+03 0.  0.
    9000005    1    3    3    0    0  0.84863547210E+01 -0.61223930978E+02 -0.76231732351E+03  0.76481964519E+03  0.10000000000E+01 0.  0.
    9000005    1    3    3    0    0 -0.84863547210E+01  0.61223930978E+02 -0.56580353611E+03  0.56917047483E+03  0.10000000000E+01 0.  0.
<mgrwt>
<rscale>  0 0.12499849E+03</rscale>
<asrwt>0</asrwt>
<pdfrwt beam="1">  1        4 0.45148263E-03 0.12499849E+03</pdfrwt>
<pdfrwt beam="2">  1       -4 0.20477729E+00 0.12499849E+03</pdfrwt>
<totfact> 0.21441003E+03</totfact>
</mgrwt>
</event>
<event>
 5    1  0.3179758E-002  0.1250049E+03  0.7818608E-02  0.1235062E+00
          4   -1    0    0  501    0  0.00000000000E+00  0.00000000000E+00  0.49183912081E+01  0.50797118103E+01  0.12700000000E+01 0.  1.
         -4   -1    0    0    0  501 -0.00000000000E+00 -0.00000000000E+00 -0.78129798902E+03  0.78129902122E+03  0.12700000000E+01 0.  1.
         25    2    1    2    0    0  0.00000000000E+00  0.00000000000E+00 -0.77637959782E+03  0.78637873303E+03  0.12500492731E+03 0.  0.
    9000005    1    3    3    0    0 -0.29986287524E+02  0.24045874522E+02 -0.69817770360E+03  0.69923564506E+03  0.10000000000E+01 0.  0.
    9000005    1    3    3    0    0  0.29986287524E+02 -0.24045874522E+02 -0.78201894216E+02  0.87143087964E+02  0.10000000000E+01 0.  0.
<mgrwt>
<rscale>  0 0.12500493E+03</rscale>
<asrwt>0</asrwt>
<pdfrwt beam="1">  1        4 0.76916487E-03 0.12500493E+03</pdfrwt>
<pdfrwt beam="2">  1       -4 0.12021208E+00 0.12500493E+03</pdfrwt>
<totfact> 0.38875940E+03</totfact>
</mgrwt>
</event>
<event>
 5    1  0.3179758E-002  0.1250013E+03  0.7818608E-02  0.1235067E+00
          4   -1    0    0  501    0  0.00000000000E+00  0.00000000000E+00  0.53039426766E+02  0.53054629314E+02  0.12700000000E+01 0.  1.
         -4   -1    0    0    0  501 -0.00000000000E+00 -0.00000000000E+00 -0.73618360818E+02  0.73629314471E+02  0.12700000000E+01 0.  1.
         25    2    1    2    0    0  0.00000000000E+00  0.00000000000E+00 -0.20578934051E+02  0.12668394379E+03  0.12500131634E+03 0.  0.
    9000005    1    3    3    0    0 -0.29379214529E+02  0.49380101513E+02 -0.35192566243E+02  0.67387308824E+02  0.10000000000E+01 0.  0.
    9000005    1    3    3    0    0  0.29379214529E+02 -0.49380101513E+02  0.14613632192E+02  0.59296634961E+02  0.10000000000E+01 0.  0.
<mgrwt>
<rscale>  0 0.12500132E+03</rscale>
<asrwt>0</asrwt>
<pdfrwt beam="1">  1        4 0.81619238E-02 0.12500132E+03</pdfrwt>
<pdfrwt beam="2">  1       -4 0.11327914E-01 0.12500132E+03</pdfrwt>
<totfact> 0.10415710E+04</totfact>
</mgrwt>
</event>
<event>
 5    1  0.3179758E-002  0.1250018E+03  0.7818608E-02  0.1235067E+00
          4   -1    0    0  501    0  0.00000000000E+00  0.00000000000E+00  0.75138352042E+02  0.75149084144E+02  0.12700000000E+01 0. -1.
         -4   -1    0    0    0  501 -0.00000000000E+00 -0.00000000000E+00 -0.51966691452E+02  0.51982207730E+02  0.12700000000E+01 0. -1.
         25    2    1    2    0    0  0.00000000000E+00  0.00000000000E+00  0.23171660590E+02  0.12713129187E+03  0.12500175806E+03 0.  0.
    9000005    1    3    3    0    0 -0.36592470647E+02  0.44012345241E+02  0.37098325352E+02  0.68215696035E+02  0.10000000000E+01 0.  0.
    9000005    1    3    3    0    0  0.36592470647E+02 -0.44012345241E+02 -0.13926664762E+02  0.58915595839E+02  0.10000000000E+01 0.  0.
<mgrwt>
<rscale>  0 0.12500176E+03</rscale>
<asrwt>0</asrwt>
<pdfrwt beam="1">  1        4 0.11561765E-01 0.12500176E+03</pdfrwt>
<pdfrwt beam="2">  1       -4 0.79968948E-02 0.12500176E+03</pdfrwt>
<totfact> 0.10405882E+04</totfact>
</mgrwt>
</event>
<event>
 5    1  0.3179758E-002  0.1250008E+03  0.7818608E-02  0.1235068E+00
          4   -1    0    0  501    0  0.00000000000E+00  0.00000000000E+00  0.59214273783E+02  0.59227891400E+02  0.12700000000E+01 0. -1.
         -4   -1    0    0    0  501 -0.00000000000E+00 -0.00000000000E+00 -0.65941611841E+02  0.65953840466E+02  0.12700000000E+01 0. -1.
         25    2    1    2    0    0  0.00000000000E+00  0.00000000000E+00 -0.67273380583E+01  0.12518173187E+03  0.12500083566E+03 0.  0.
    9000005    1    3    3    0    0 -0.17465227174E+02  0.33660737531E+02  0.46379359797E+02  0.59917647038E+02  0.10000000000E+01 0.  0.
    9000005    1    3    3    0    0  0.17465227174E+02 -0.33660737531E+02 -0.53106697855E+02  0.65264084828E+02  0.10000000000E+01 0.  0.
<mgrwt>
<rscale>  0 0.12500084E+03</rscale>
<asrwt>0</asrwt>
<pdfrwt beam="1">  1        4 0.91118765E-02 0.12500084E+03</pdfrwt>
<pdfrwt beam="2">  1       -4 0.10146851E-01 0.12500084E+03</pdfrwt>
<totfact> 0.10448719E+04</totfact>
</mgrwt>
</event>
<event>
 5    1  0.3179758E-002  0.1249928E+03  0.7818608E-02  0.1235080E+00
         -4   -1    0    0    0  501 -0.00000000000E+00  0.00000000000E+00  0.45700194723E+01  0.47432033455E+01  0.12700000000E+01 0.  1.
          4   -1    0    0  501    0  0.00000000000E+00 -0.00000000000E+00 -0.83859116219E+03  0.83859212386E+03  0.12700000000E+01 0.  1.
         25    2    1    2    0    0  0.00000000000E+00  0.00000000000E+00 -0.83402114271E+03  0.84333532720E+03  0.12499283026E+03 0.  0.
    9000005    1    3    3    0    0  0.41133052758E+02  0.34066598007E+02 -0.63588417597E+03  0.63812392713E+03  0.10000000000E+01 0.  0.
    9000005    1    3    3    0    0 -0.41133052758E+02 -0.34066598007E+02 -0.19813696674E+03  0.20521140007E+03  0.10000000000E+01 0.  0.
<mgrwt>
<rscale>  0 0.12499283E+03</rscale>
<asrwt>0</asrwt>
<pdfrwt beam="2">  1        4 0.12902730E+00 0.12499283E+03</pdfrwt>
<pdfrwt beam="1">  1       -4 0.71647640E-03 0.12499283E+03</pdfrwt>
<totfact> 0.36407342E+03</totfact>
</mgrwt>
</event>
<event>
 5    1  0.3179758E-002  0.1250037E+03  0.7818608E-02  0.1235064E+00
          4   -1    0    0  501    0  0.00000000000E+00  0.00000000000E+00  0.25208171657E+02  0.25240142992E+02  0.12700000000E+01 0.  1.
         -4   -1    0    0    0  501 -0.00000000000E+00 -0.00000000000E+00 -0.15483601380E+03  0.15484122213E+03  0.12700000000E+01 0.  1.
         25    2    1    2    0    0  0.00000000000E+00  0.00000000000E+00 -0.12962784215E+03  0.18008136512E+03  0.12500368236E+03 0.  0.
    9000005    1    3    3    0    0 -0.90486189863E+01 -0.61834515627E+02 -0.64369141932E+02  0.89720517505E+02  0.10000000000E+01 0.  0.
    9000005    1    3    3    0    0  0.90486189863E+01  0.61834515627E+02 -0.65258700216E+02  0.90360847618E+02  0.10000000000E+01 0.  0.
<mgrwt>
<rscale>  0 0.12500368E+03</rscale>
<asrwt>0</asrwt>
<pdfrwt beam="1">  1        4 0.38810403E-02 0.12500368E+03</pdfrwt>
<pdfrwt beam="2">  1       -4 0.23823785E-01 0.12500368E+03</pdfrwt>
<totfact> 0.93594632E+03</totfact>
</mgrwt>
</event>
<event>
 5    1  0.3179758E-002  0.1249994E+03  0.7818608E-02  0.1235070E+00
         -4   -1    0    0    0  501 -0.00000000000E+00  0.00000000000E+00  0.37219133197E+02  0.37240794513E+02  0.12700000000E+01 0. -1.
          4   -1    0    0  501    0  0.00000000000E+00 -0.00000000000E+00 -0.10489574327E+03  0.10490343110E+03  0.12700000000E+01 0. -1.
         25    2    1    2    0    0  0.00000000000E+00  0.00000000000E+00 -0.67676610074E+02  0.14214422561E+03  0.12499942929E+03 0.  0.
    9000005    1    3    3    0    0 -0.16104736456E+02 -0.60123102369E+02 -0.40176307001E+02  0.74089713315E+02  0.10000000000E+01 0.  0.
    9000005    1    3    3    0    0  0.16104736456E+02  0.60123102369E+02 -0.27500303073E+02  0.68054512297E+02  0.10000000000E+01 0.  0.
<mgrwt>
<rscale>  0 0.12499943E+03</rscale>
<asrwt>0</asrwt>
<pdfrwt beam="2">  1        4 0.16140064E-01 0.12499943E+03</pdfrwt>
<pdfrwt beam="1">  1       -4 0.57282782E-02 0.12499943E+03</pdfrwt>
<totfact> 0.10089467E+04</totfact>
</mgrwt>
</event>
<event>
 5    1  0.3179758E-002  0.1249726E+03  0.7818608E-02  0.1235112E+00
          4   -1    0    0  501    0  0.00000000000E+00  0.00000000000E+00  0.67975666324E+02  0.67987529094E+02  0.12700000000E+01 0. -1.
         -4   -1    0    0    0  501 -0.00000000000E+00 -0.00000000000E+00 -0.57416307072E+02  0.57430351016E+02  0.12700000000E+01 0. -1.
         25    2    1    2    0    0  0.00000000000E+00  0.00000000000E+00  0.10559359252E+02  0.12541788011E+03  0.12497257532E+03 0.  0.
    9000005    1    3    3    0    0 -0.16318420888E+02 -0.55512645381E+02 -0.18375297267E+02  0.60717346839E+02  0.10000000000E+01 0.  0.
    9000005    1    3    3    0    0  0.16318420888E+02  0.55512645381E+02  0.28934656520E+02  0.64700533270E+02  0.10000000000E+01 0.  0.
<mgrwt>
<rscale>  0 0.12497258E+03</rscale>
<asrwt>0</asrwt>
<pdfrwt beam="1">  1        4 0.10459788E-01 0.12497258E+03</pdfrwt>
<pdfrwt beam="2">  1       -4 0.88352708E-02 0.12497258E+03</pdfrwt>
<totfact> 0.10450233E+04</totfact>
</mgrwt>
</event>
<event>
 5    1  0.3179758E-002  0.1250006E+03  0.7818608E-02  0.1235068E+00
          4   -1    0    0  501    0  0.00000000000E+00  0.00000000000E+00  0.33635191327E+02  0.33659159163E+02  0.12700000000E+01 0. -1.
         -4   -1    0    0    0  501 -0.00000000000E+00 -0.00000000000E+00 -0.11606812457E+03  0.11607507244E+03  0.12700000000E+01 0. -1.
         25    2    1    2    0    0  0.00000000000E+00  0.00000000000E+00 -0.82432933248E+02  0.14973423160E+03  0.12500060652E+03 0.  0.
    9000005    1    3    3    0    0 -0.36248358929E+02 -0.37945306119E+02 -0.81864598955E+02  0.97245063337E+02  0.10000000000E+01 0.  0.
    9000005    1    3    3    0    0  0.36248358929E+02  0.37945306119E+02 -0.56833429325E+00  0.52489168267E+02  0.10000000000E+01 0.  0.
<mgrwt>
<rscale>  0 0.12500061E+03</rscale>
<asrwt>0</asrwt>
<pdfrwt beam="1">  1        4 0.51770230E-02 0.12500061E+03</pdfrwt>
<pdfrwt beam="2">  1       -4 0.17859013E-01 0.12500061E+03</pdfrwt>
<totfact> 0.99355345E+03</totfact>
</mgrwt>
</event>
<event>
 5    1  0.3179758E-002  0.1249997E+03  0.7818608E-02  0.1235070E+00
         -4   -1    0    0    0  501 -0.00000000000E+00  0.00000000000E+00  0.14016389188E+02  0.14073807796E+02  0.12700000000E+01 0.  1.
          4   -1    0    0  501    0  0.00000000000E+00 -0.00000000000E+00 -0.27806187750E+03  0.27806477773E+03  0.12700000000E+01 0.  1.
         25    2    1    2    0    0  0.00000000000E+00  0.00000000000E+00 -0.26404548831E+03  0.29213858553E+03  0.12499973304E+03 0.  0.
    9000005    1    3    3    0    0 -0.51682658220E+02 -0.14405796453E+02 -0.20690560173E+03  0.21375114540E+03  0.10000000000E+01 0.  0.
    9000005    1    3    3    0    0  0.51682658220E+02  0.14405796453E+02 -0.57139886576E+02  0.78387440130E+02  0.10000000000E+01 0.  0.
<mgrwt>
<rscale>  0 0.12499973E+03</rscale>
<asrwt>0</asrwt>
<pdfrwt beam="2">  1        4 0.42783386E-01 0.12499973E+03</pdfrwt>
<pdfrwt beam="1">  1       -4 0.21610077E-02 0.12499973E+03</pdfrwt>
<totfact> 0.76596117E+03</totfact>
</mgrwt>
</event>
<event>
 5    1  0.3179758E-002  0.1249990E+03  0.7818608E-02  0.1235071E+00
          4   -1    0    0  501    0  0.00000000000E+00  0.00000000000E+00  0.80564870659E+02  0.80574879983E+02  0.12700000000E+01 0.  1.
         -4   -1    0    0    0  501 -0.00000000000E+00 -0.00000000000E+00 -0.48463694634E+02  0.48480332070E+02  0.12700000000E+01 0.  1.
         25    2    1    2    0    0  0.00000000000E+00  0.00000000000E+00  0.32101176025E+02  0.12905521205E+03  0.12499904902E+03 0.  0.
    9000005    1    3    3    0    0  0.27612395643E+02  0.50205321367E+02  0.41803362698E+02  0.70933347726E+02  0.10000000000E+01 0.  0.
    9000005    1    3    3    0    0 -0.27612395643E+02 -0.50205321367E+02 -0.97021866730E+01  0.58121864328E+02  0.10000000000E+01 0.  0.
<mgrwt>
<rscale>  0 0.12499905E+03</rscale>
<asrwt>0</asrwt>
<pdfrwt beam="1">  1        4 0.12396645E-01 0.12499905E+03</pdfrwt>
<pdfrwt beam="2">  1       -4 0.74580028E-02 0.12499905E+03</pdfrwt>
<totfact> 0.10364983E+04</totfact>
</mgrwt>
</event>
<event>
 5    1  0.3179758E-002  0.1250070E+03  0.7818608E-02  0.1235058E+00
          4   -1    0    0  501    0  0.00000000000E+00  0.00000000000E+00  0.17686394719E+03  0.17686850686E+03  0.12700000000E+01 0.  1.
         -4   -1    0    0    0  501 -0.00000000000E+00 -0.00000000000E+00 -0.22065541611E+02  0.22102059329E+02  0.12700000000E+01 0.  1.
         25    2    1    2    0    0  0.00000000000E+00  0.00000000000E+00  0.15479840558E+03  0.19897056618E+03  0.12500695915E+03 0.  0.
    9000005    1    3    3    0    0  0.49875359912E+01  0.62200114159E+02  0.82902637741E+02  0.10376693626E+03  0.10000000000E+01 0.  0.
    9000005    1    3    3    0    0 -0.49875359912E+01 -0.62200114159E+02  0.71895767843E+02  0.95203629922E+02  0.10000000000E+01 0.  0.
<mgrwt>
<rscale>  0 0.12500696E+03</rscale>
<asrwt>0</asrwt>
<pdfrwt beam="1">  1        4 0.27212998E-01 0.12500696E+03</pdfrwt>
<pdfrwt beam="2">  1       -4 0.33978584E-02 0.12500696E+03</pdfrwt>
<totfact> 0.90295355E+03</totfact>
</mgrwt>
</event>
<event>
 5    1  0.3179758E-002  0.1250011E+03  0.7818608E-02  0.1235068E+00
          4   -1    0    0  501    0  0.00000000000E+00  0.00000000000E+00  0.88010168116E+03  0.88010259748E+03  0.12700000000E+01 0. -1.
         -4   -1    0    0    0  501 -0.00000000000E+00 -0.00000000000E+00 -0.43467026771E+01  0.45284350678E+01  0.12700000000E+01 0. -1.
         25    2    1    2    0    0  0.00000000000E+00  0.00000000000E+00  0.87575497848E+03  0.88463103254E+03  0.12500112559E+03 0.  0.
    9000005    1    3    3    0    0  0.41144573236E+02  0.45800608461E+02  0.51368673009E+03  0.51736411579E+03  0.10000000000E+01 0.  0.
    9000005    1    3    3    0    0 -0.41144573236E+02 -0.45800608461E+02  0.36206824840E+03  0.36726691675E+03  0.10000000000E+01 0.  0.
<mgrwt>
<rscale>  0 0.12500113E+03</rscale>
<asrwt>0</asrwt>
<pdfrwt beam="1">  1        4 0.13541409E+00 0.12500113E+03</pdfrwt>
<pdfrwt beam="2">  1       -4 0.68277448E-03 0.12500113E+03</pdfrwt>
<totfact> 0.34749734E+03</totfact>
</mgrwt>
</event>
<event>
 5    1  0.3179758E-002  0.1249972E+03  0.7818608E-02  0.1235074E+00
          4   -1    0    0  501    0  0.00000000000E+00  0.00000000000E+00  0.21767651678E+03  0.21768022156E+03  0.12700000000E+01 0.  1.
         -4   -1    0    0    0  501 -0.00000000000E+00 -0.00000000000E+00 -0.17918060715E+02  0.17963011991E+02  0.12700000000E+01 0.  1.
         25    2    1    2    0    0  0.00000000000E+00  0.00000000000E+00  0.19975845607E+03  0.23564323355E+03  0.12499717096E+03 0.  0.
    9000005    1    3    3    0    0  0.78534907221E+01 -0.46582868335E+02  0.17699777829E+03  0.18319621846E+03  0.10000000000E+01 0.  0.
    9000005    1    3    3    0    0 -0.78534907221E+01  0.46582868335E+02  0.22760677775E+02  0.52447015087E+02  0.10000000000E+01 0.  0.
<mgrwt>
<rscale>  0 0.12499717E+03</rscale>
<asrwt>0</asrwt>
<pdfrwt beam="1">  1        4 0.33492437E-01 0.12499717E+03</pdfrwt>
<pdfrwt beam="2">  1       -4 0.27603675E-02 0.12499717E+03</pdfrwt>
<totfact> 0.84455867E+03</totfact>
</mgrwt>
</event>
<event>
 5    1  0.3179758E-002  0.1250010E+03  0.7818608E-02  0.1235068E+00
         -4   -1    0    0    0  501 -0.00000000000E+00  0.00000000000E+00  0.88363246762E+03  0.88363338027E+03  0.12700000000E+01 0.  1.
          4   -1    0    0  501    0  0.00000000000E+00 -0.00000000000E+00 -0.43285972615E+01  0.45110591054E+01  0.12700000000E+01 0.  1.
         25    2    1    2    0    0  0.00000000000E+00  0.00000000000E+00  0.87930387035E+03  0.88814443937E+03  0.12500099508E+03 0.  0.
    9000005    1    3    3    0    0 -0.41774699893E+02  0.46449367904E+02  0.45120261235E+03  0.45550792169E+03  0.10000000000E+01 0.  0.
    9000005    1    3    3    0    0  0.41774699893E+02 -0.46449367904E+02  0.42810125800E+03  0.43263651768E+03  0.10000000000E+01 0.  0.
<mgrwt>
<rscale>  0 0.12500100E+03</rscale>
<asrwt>0</asrwt>
<pdfrwt beam="2">  1        4 0.68004401E-03 0.12500100E+03</pdfrwt>
<pdfrwt beam="1">  1       -4 0.13595752E+00 0.12500100E+03</pdfrwt>
<totfact> 0.34614412E+03</totfact>
</mgrwt>
</event>
<event>
 5    1  0.3179758E-002  0.1250085E+03  0.7818608E-02  0.1235056E+00
          4   -1    0    0  501    0  0.00000000000E+00  0.00000000000E+00  0.13407357801E+03  0.13407959286E+03  0.12700000000E+01 0.  1.
         -4   -1    0    0    0  501 -0.00000000000E+00 -0.00000000000E+00 -0.29118586902E+02  0.29146269112E+02  0.12700000000E+01 0.  1.
         25    2    1    2    0    0  0.00000000000E+00  0.00000000000E+00  0.10495499111E+03  0.16322586197E+03  0.12500852714E+03 0.  0.
    9000005    1    3    3    0    0 -0.47422159049E+02 -0.16357766227E+01  0.10558420379E+03  0.11576079226E+03  0.10000000000E+01 0.  0.
    9000005    1    3    3    0    0  0.47422159049E+02  0.16357766227E+01 -0.62921268248E+00  0.47465069710E+02  0.10000000000E+01 0.  0.
<mgrwt>
<rscale>  0 0.12500853E+03</rscale>
<asrwt>0</asrwt>
<pdfrwt beam="1">  1        4 0.20629297E-01 0.12500853E+03</pdfrwt>
<pdfrwt beam="2">  1       -4 0.44823746E-02 0.12500853E+03</pdfrwt>
<totfact> 0.96705914E+03</totfact>
</mgrwt>
</event>
<event>
 5    1  0.3179758E-002  0.1249899E+03  0.7818608E-02  0.1235085E+00
          4   -1    0    0  501    0  0.00000000000E+00  0.00000000000E+00  0.80436200454E+01  0.81432624565E+01  0.12700000000E+01 0. -1.
         -4   -1    0    0    0  501 -0.00000000000E+00 -0.00000000000E+00 -0.48246546111E+03  0.48246713262E+03  0.12700000000E+01 0. -1.
         25    2    1    2    0    0  0.00000000000E+00  0.00000000000E+00 -0.47442184106E+03  0.49061039508E+03  0.12498990553E+03 0.  0.
    9000005    1    3    3    0    0  0.59621429361E+02  0.15700542143E+02 -0.27712409931E+03  0.28390137070E+03  0.10000000000E+01 0.  0.
    9000005    1    3    3    0    0 -0.59621429361E+02 -0.15700542143E+02 -0.19729774175E+03  0.20670902438E+03  0.10000000000E+01 0.  0.
<mgrwt>
<rscale>  0 0.12498991E+03</rscale>
<asrwt>0</asrwt>
<pdfrwt beam="1">  1        4 0.12452738E-02 0.12498991E+03</pdfrwt>
<pdfrwt beam="2">  1       -4 0.74233226E-01 0.12498991E+03</pdfrwt>
<totfact> 0.56612894E+03</totfact>
</mgrwt>
</event>
<event>
 5    1  0.3179758E-002  0.1250014E+03  0.7818608E-02  0.1235067E+00
         -4   -1    0    0    0  501 -0.00000000000E+00  0.00000000000E+00  0.26054076859E+03  0.26054386386E+03  0.12700000000E+01 0.  1.
          4   -1    0    0  501    0  0.00000000000E+00 -0.00000000000E+00 -0.14963108012E+02  0.15016907184E+02  0.12700000000E+01 0.  1.
         25    2    1    2    0    0  0.00000000000E+00  0.00000000000E+00  0.24557766058E+03  0.27556077105E+03  0.12500140466E+03 0.  0.
    9000005    1    3    3    0    0  0.54969695281E+02  0.25847743135E+02  0.90422669590E+02  0.10893590960E+03  0.10000000000E+01 0.  0.
    9000005    1    3    3    0    0 -0.54969695281E+02 -0.25847743135E+02  0.15515499099E+03  0.16662486145E+03  0.10000000000E+01 0.  0.
<mgrwt>
<rscale>  0 0.12500140E+03</rscale>
<asrwt>0</asrwt>
<pdfrwt beam="2">  1        4 0.23063932E-02 0.12500140E+03</pdfrwt>
<pdfrwt beam="1">  1       -4 0.40087570E-01 0.12500140E+03</pdfrwt>
<totfact> 0.78767960E+03</totfact>
</mgrwt>
</event>
<event>
 5    1  0.3179758E-002  0.1250009E+03  0.7818608E-02  0.1235068E+00
          4   -1    0    0  501    0  0.00000000000E+00  0.00000000000E+00  0.13842807336E+02  0.13900942951E+02  0.12700000000E+01 0.  1.
         -4   -1    0    0    0  501 -0.00000000000E+00 -0.00000000000E+00 -0.28153963964E+03  0.28154250405E+03  0.12700000000E+01 0.  1.
         25    2    1    2    0    0  0.00000000000E+00  0.00000000000E+00 -0.26769683230E+03  0.29544344700E+03  0.12500094540E+03 0.  0.
    9000005    1    3    3    0    0 -0.35076692650E+02 -0.28826157046E+01 -0.11797215135E+02  0.37132978948E+02  0.10000000000E+01 0.  0.
    9000005    1    3    3    0    0  0.35076692650E+02  0.28826157046E+01 -0.25589961716E+03  0.25831046805E+03  0.10000000000E+01 0.  0.
<mgrwt>
<rscale>  0 0.12500095E+03</rscale>
<asrwt>0</asrwt>
<pdfrwt beam="1">  1        4 0.21343552E-02 0.12500095E+03</pdfrwt>
<pdfrwt beam="2">  1       -4 0.43318479E-01 0.12500095E+03</pdfrwt>
<totfact> 0.76172385E+03</totfact>
</mgrwt>
</event>
<event>
 5    1  0.3179758E-002  0.1249960E+03  0.7818608E-02  0.1235076E+00
         -4   -1    0    0    0  501 -0.00000000000E+00  0.00000000000E+00  0.81406396625E+03  0.81406495690E+03  0.12700000000E+01 0. -1.
          4   -1    0    0  501    0  0.00000000000E+00 -0.00000000000E+00 -0.47130984634E+01  0.48812085722E+01  0.12700000000E+01 0. -1.
         25    2    1    2    0    0  0.00000000000E+00  0.00000000000E+00  0.80935086779E+03  0.81894616547E+03  0.12499597893E+03 0.  0.
    9000005    1    3    3    0    0  0.62203095897E+02  0.57147770979E+01  0.39311219958E+03  0.39804533068E+03  0.10000000000E+01 0.  0.
    9000005    1    3    3    0    0 -0.62203095897E+02 -0.57147770979E+01  0.41623866820E+03  0.42090083479E+03  0.10000000000E+01 0.  0.
<mgrwt>
<rscale>  0 0.12499598E+03</rscale>
<asrwt>0</asrwt>
<pdfrwt beam="2">  1        4 0.73809951E-03 0.12499598E+03</pdfrwt>
<pdfrwt beam="1">  1       -4 0.12525367E+00 0.12499598E+03</pdfrwt>
<totfact> 0.37436062E+03</totfact>
</mgrwt>
</event>
<event>
 5    1  0.3179758E-002  0.1249925E+03  0.7818608E-02  0.1235081E+00
          4   -1    0    0  501    0  0.00000000000E+00  0.00000000000E+00  0.22517467554E+03  0.22517825695E+03  0.12700000000E+01 0.  1.
         -4   -1    0    0    0  501 -0.00000000000E+00 -0.00000000000E+00 -0.17318603145E+02  0.17365106245E+02  0.12700000000E+01 0.  1.
         25    2    1    2    0    0  0.00000000000E+00  0.00000000000E+00  0.20785607239E+03  0.24254336319E+03  0.12499254458E+03 0.  0.
    9000005    1    3    3    0    0 -0.13947200722E+02  0.15082069193E+02 -0.10588705350E+02  0.23132529047E+02  0.10000000000E+01 0.  0.
    9000005    1    3    3    0    0  0.13947200722E+02 -0.15082069193E+02  0.21844477774E+03  0.21941083415E+03  0.10000000000E+01 0.  0.
<mgrwt>
<rscale>  0 0.12499254E+03</rscale>
<asrwt>0</asrwt>
<pdfrwt beam="1">  1        4 0.34646110E-01 0.12499254E+03</pdfrwt>
<pdfrwt beam="2">  1       -4 0.26682532E-02 0.12499254E+03</pdfrwt>
<totfact> 0.83433894E+03</totfact>
</mgrwt>
</event>
<event>
 5    1  0.3179758E-002  0.1250029E+03  0.7818608E-02  0.1235065E+00
          4   -1    0    0  501    0  0.00000000000E+00  0.00000000000E+00  0.35247790230E+02  0.35270662258E+02  0.12700000000E+01 0.  1.
         -4   -1    0    0    0  501 -0.00000000000E+00 -0.00000000000E+00 -0.11076520575E+03  0.11077248623E+03  0.12700000000E+01 0.  1.
         25    2    1    2    0    0  0.00000000000E+00  0.00000000000E+00 -0.75517415523E+02  0.14604314849E+03  0.12500288466E+03 0.  0.
    9000005    1    3    3    0    0 -0.36631913946E+02 -0.49436522353E+02 -0.50533690956E+02  0.79627387143E+02  0.10000000000E+01 0.  0.
    9000005    1    3    3    0    0  0.36631913946E+02  0.49436522353E+02 -0.24983724567E+02  0.66415761344E+02  0.10000000000E+01 0.  0.
<mgrwt>
<rscale>  0 0.12500288E+03</rscale>
<asrwt>0</asrwt>
<pdfrwt beam="1">  1        4 0.54250564E-02 0.12500288E+03</pdfrwt>
<pdfrwt beam="2">  1       -4 0.17043120E-01 0.12500288E+03</pdfrwt>
<totfact> 0.10009187E+04</totfact>
</mgrwt>
</event>
<event>
 5    1  0.3179758E-002  0.1249866E+03  0.7818608E-02  0.1235090E+00
         -4   -1    0    0    0  501 -0.00000000000E+00  0.00000000000E+00  0.29273090328E+03  0.29273365818E+03  0.12700000000E+01 0. -1.
          4   -1    0    0  501    0  0.00000000000E+00 -0.00000000000E+00 -0.13308261192E+02  0.13368721553E+02  0.12700000000E+01 0. -1.
         25    2    1    2    0    0  0.00000000000E+00  0.00000000000E+00  0.27942264208E+03  0.30610237973E+03  0.12498661516E+03 0.  0.
    9000005    1    3    3    0    0  0.16590416905E+02 -0.20662381839E+02  0.27830070717E+03  0.27956119110E+03  0.10000000000E+01 0.  0.
    9000005    1    3    3    0    0 -0.16590416905E+02  0.20662381839E+02  0.11219349135E+01  0.26541188637E+02  0.10000000000E+01 0.  0.
<mgrwt>
<rscale>  0 0.12498662E+03</rscale>
<asrwt>0</asrwt>
<pdfrwt beam="2">  1        4 0.20522877E-02 0.12498662E+03</pdfrwt>
<pdfrwt beam="1">  1       -4 0.45040382E-01 0.12498662E+03</pdfrwt>
<totfact> 0.74861923E+03</totfact>
</mgrwt>
</event>
<event>
 5    1  0.3179758E-002  0.1250162E+03  0.7818608E-02  0.1235044E+00
          4   -1    0    0  501    0  0.00000000000E+00  0.00000000000E+00  0.55627020966E+03  0.55627165941E+03  0.12700000000E+01 0.  1.
         -4   -1    0    0    0  501 -0.00000000000E+00 -0.00000000000E+00 -0.69651581577E+01  0.70799949267E+01  0.12700000000E+01 0.  1.
         25    2    1    2    0    0  0.00000000000E+00  0.00000000000E+00  0.54930505151E+03  0.56335165433E+03  0.12501618627E+03 0.  0.
    9000005    1    3    3    0    0 -0.51330480515E+02  0.28076121088E+02  0.17560000973E+03  0.18509308529E+03  0.10000000000E+01 0.  0.
    9000005    1    3    3    0    0  0.51330480515E+02 -0.28076121088E+02  0.37370504178E+03  0.37825856905E+03  0.10000000000E+01 0.  0.
<mgrwt>
<rscale>  0 0.12501619E+03</rscale>
<asrwt>0</asrwt>
<pdfrwt beam="1">  1        4 0.85588983E-01 0.12501619E+03</pdfrwt>
<pdfrwt beam="2">  1       -4 0.10805078E-02 0.12501619E+03</pdfrwt>
<totfact> 0.51247596E+03</totfact>
</mgrwt>
</event>
<event>
 5    1  0.3179758E-002  0.1249980E+03  0.7818608E-02  0.1235072E+00
         -4   -1    0    0    0  501 -0.00000000000E+00  0.00000000000E+00  0.96303309561E+02  0.96311683260E+02  0.12700000000E+01 0. -1.
          4   -1    0    0  501    0  0.00000000000E+00 -0.00000000000E+00 -0.40540584909E+02  0.40560472443E+02  0.12700000000E+01 0. -1.
         25    2    1    2    0    0  0.00000000000E+00  0.00000000000E+00  0.55762724652E+02  0.13687215570E+03  0.12499802217E+03 0.  0.
    9000005    1    3    3    0    0  0.14730812062E+02 -0.18756625454E+00 -0.38617310735E+02  0.41344028511E+02  0.10000000000E+01 0.  0.
    9000005    1    3    3    0    0 -0.14730812062E+02  0.18756625454E+00  0.94380035387E+02  0.95528127192E+02  0.10000000000E+01 0.  0.
<mgrwt>
<rscale>  0 0.12499802E+03</rscale>
<asrwt>0</asrwt>
<pdfrwt beam="2">  1        4 0.62391870E-02 0.12499802E+03</pdfrwt>
<pdfrwt beam="1">  1       -4 0.14818068E-01 0.12499802E+03</pdfrwt>
<totfact> 0.10199214E+04</totfact>
</mgrwt>
</event>
<event>
 5    1  0.3179758E-002  0.1250001E+03  0.7818608E-02  0.1235069E+00
         -4   -1    0    0    0  501 -0.00000000000E+00  0.00000000000E+00  0.58803563785E+03  0.58803700928E+03  0.12700000000E+01 0.  1.
          4   -1    0    0  501    0  0.00000000000E+00 -0.00000000000E+00 -0.65808019520E+01  0.67022275649E+01  0.12700000000E+01 0.  1.
         25    2    1    2    0    0  0.00000000000E+00  0.00000000000E+00  0.58145483590E+03  0.59473923685E+03  0.12500013461E+03 0.  0.
    9000005    1    3    3    0    0  0.25806561570E+02  0.12883050257E+02  0.26961262288E+02  0.39495079037E+02  0.10000000000E+01 0.  0.
    9000005    1    3    3    0    0 -0.25806561570E+02 -0.12883050257E+02  0.55449357361E+03  0.55524415781E+03  0.10000000000E+01 0.  0.
<mgrwt>
<rscale>  0 0.12500013E+03</rscale>
<asrwt>0</asrwt>
<pdfrwt beam="2">  1        4 0.10218770E-02 0.12500013E+03</pdfrwt>
<pdfrwt beam="1">  1       -4 0.90476465E-01 0.12500013E+03</pdfrwt>
<totfact> 0.49201233E+03</totfact>
</mgrwt>
</event>
<event>
 5    1  0.3179758E-002  0.1249997E+03  0.7818608E-02  0.1235070E+00
         -4   -1    0    0    0  501 -0.00000000000E+00  0.00000000000E+00  0.33408358290E+02  0.33432488744E+02  0.12700000000E+01 0.  1.
          4   -1    0    0  501    0  0.00000000000E+00 -0.00000000000E+00 -0.11685406933E+03  0.11686097047E+03  0.12700000000E+01 0.  1.
         25    2    1    2    0    0  0.00000000000E+00  0.00000000000E+00 -0.83445711045E+02  0.15029345922E+03  0.12499974877E+03 0.  0.
    9000005    1    3    3    0    0 -0.49260059204E+02  0.38247408289E+02 -0.36941094801E+02  0.72491807528E+02  0.10000000000E+01 0.  0.
    9000005    1    3    3    0    0  0.49260059204E+02 -0.38247408289E+02 -0.46504616244E+02  0.77801651689E+02  0.10000000000E+01 0.  0.
<mgrwt>
<rscale>  0 0.12499975E+03</rscale>
<asrwt>0</asrwt>
<pdfrwt beam="2">  1        4 0.17979936E-01 0.12499975E+03</pdfrwt>
<pdfrwt beam="1">  1       -4 0.51421345E-02 0.12499975E+03</pdfrwt>
<totfact> 0.99245795E+03</totfact>
</mgrwt>
</event>
<event>
 5    1  0.3179758E-002  0.1250095E+03  0.7818608E-02  0.1235054E+00
          4   -1    0    0  501    0  0.00000000000E+00  0.00000000000E+00  0.46242981915E+01  0.47955222618E+01  0.12700000000E+01 0. -1.
         -4   -1    0    0    0  501 -0.00000000000E+00 -0.00000000000E+00 -0.82932283138E+03  0.82932380380E+03  0.12700000000E+01 0. -1.
         25    2    1    2    0    0  0.00000000000E+00  0.00000000000E+00 -0.82469853319E+03  0.83411932606E+03  0.12500951750E+03 0.  0.
    9000005    1    3    3    0    0  0.67696685522E+01 -0.19797115825E+02 -0.80529296247E+03  0.80556533541E+03  0.10000000000E+01 0.  0.
    9000005    1    3    3    0    0 -0.67696685522E+01  0.19797115825E+02 -0.19405570717E+02  0.28553990651E+02  0.10000000000E+01 0.  0.
<mgrwt>
<rscale>  0 0.12500952E+03</rscale>
<asrwt>0</asrwt>
<pdfrwt beam="1">  1        4 0.72467703E-03 0.12500952E+03</pdfrwt>
<pdfrwt beam="2">  1       -4 0.12760126E+00 0.12500952E+03</pdfrwt>
<totfact> 0.36778518E+03</totfact>
</mgrwt>
</event>
<event>
 5    1  0.3179758E-002  0.1249982E+03  0.7818608E-02  0.1235072E+00
         -4   -1    0    0    0  501 -0.00000000000E+00  0.00000000000E+00  0.59716176730E+03  0.59716311777E+03  0.12700000000E+01 0.  1.
          4   -1    0    0  501    0  0.00000000000E+00 -0.00000000000E+00 -0.64781544988E+01  0.66014684510E+01  0.12700000000E+01 0.  1.
         25    2    1    2    0    0  0.00000000000E+00  0.00000000000E+00  0.59068361280E+03  0.60376458622E+03  0.12499818056E+03 0.  0.
    9000005    1    3    3    0    0 -0.47117286981E+02  0.38642184343E+02  0.36224977258E+03  0.36734065236E+03  0.10000000000E+01 0.  0.
    9000005    1    3    3    0    0  0.47117286981E+02 -0.38642184343E+02  0.22843384022E+03  0.23642393386E+03  0.10000000000E+01 0.  0.
<mgrwt>
<rscale>  0 0.12499818E+03</rscale>
<asrwt>0</asrwt>
<pdfrwt beam="2">  1        4 0.10062283E-02 0.12499818E+03</pdfrwt>
<pdfrwt beam="1">  1       -4 0.91880672E-01 0.12499818E+03</pdfrwt>
<totfact> 0.48632761E+03</totfact>
</mgrwt>
</event>
<event>
 5    1  0.3179758E-002  0.1250003E+03  0.7818608E-02  0.1235069E+00
          4   -1    0    0  501    0  0.00000000000E+00  0.00000000000E+00  0.17154337874E+02  0.17201285065E+02  0.12700000000E+01 0. -1.
         -4   -1    0    0    0  501 -0.00000000000E+00 -0.00000000000E+00 -0.22735339486E+03  0.22735694195E+03  0.12700000000E+01 0. -1.
         25    2    1    2    0    0  0.00000000000E+00  0.00000000000E+00 -0.21019905698E+03  0.24455822701E+03  0.12500033138E+03 0.  0.
    9000005    1    3    3    0    0 -0.13173484143E+02  0.35172684172E+02 -0.20281709517E+03  0.20626786587E+03  0.10000000000E+01 0.  0.
    9000005    1    3    3    0    0  0.13173484143E+02 -0.35172684172E+02 -0.73819618087E+01  0.38290361143E+02  0.10000000000E+01 0.  0.
<mgrwt>
<rscale>  0 0.12500033E+03</rscale>
<asrwt>0</asrwt>
<pdfrwt beam="1">  1        4 0.26430132E-02 0.12500033E+03</pdfrwt>
<pdfrwt beam="2">  1       -4 0.34981327E-01 0.12500033E+03</pdfrwt>
<totfact> 0.83122537E+03</totfact>
</mgrwt>
</event>
<event>
 5    1  0.3179758E-002  0.1249713E+03  0.7818608E-02  0.1235114E+00
         -4   -1    0    0    0  501 -0.00000000000E+00  0.00000000000E+00  0.10400082791E+03  0.10400858189E+03  0.12700000000E+01 0. -1.
          4   -1    0    0  501    0  0.00000000000E+00 -0.00000000000E+00 -0.37522660074E+02  0.37544146268E+02  0.12700000000E+01 0. -1.
         25    2    1    2    0    0  0.00000000000E+00  0.00000000000E+00  0.66478167839E+02  0.14155272816E+03  0.12497130891E+03 0.  0.
    9000005    1    3    3    0    0 -0.29656925735E+02 -0.23107771143E+02  0.89759278308E+02  0.97320246473E+02  0.10000000000E+01 0.  0.
    9000005    1    3    3    0    0  0.29656925735E+02  0.23107771143E+02 -0.23281110470E+02  0.44232481684E+02  0.10000000000E+01 0.  0.
<mgrwt>
<rscale>  0 0.12497131E+03</rscale>
<asrwt>0</asrwt>
<pdfrwt beam="2">  1        4 0.57749662E-02 0.12497131E+03</pdfrwt>
<pdfrwt beam="1">  1       -4 0.16002376E-01 0.12497131E+03</pdfrwt>
<totfact> 0.10108037E+04</totfact>
</mgrwt>
</event>
<event>
 5    1  0.3179758E-002  0.1249982E+03  0.7818608E-02  0.1235072E+00
          4   -1    0    0  501    0  0.00000000000E+00  0.00000000000E+00  0.25844220635E+03  0.25844532676E+03  0.12700000000E+01 0.  1.
         -4   -1    0    0    0  501 -0.00000000000E+00 -0.00000000000E+00 -0.15084276202E+02  0.15137644748E+02  0.12700000000E+01 0.  1.
         25    2    1    2    0    0  0.00000000000E+00  0.00000000000E+00  0.24335793015E+03  0.27358297151E+03  0.12499824052E+03 0.  0.
    9000005    1    3    3    0    0 -0.10959047849E+02 -0.29291409679E+02  0.24009224956E+03  0.24212264601E+03  0.10000000000E+01 0.  0.
    9000005    1    3    3    0    0  0.10959047849E+02  0.29291409679E+02  0.32656805871E+01  0.31460325498E+02  0.10000000000E+01 0.  0.
<mgrwt>
<rscale>  0 0.12499824E+03</rscale>
<asrwt>0</asrwt>
<pdfrwt beam="1">  1        4 0.39764680E-01 0.12499824E+03</pdfrwt>
<pdfrwt beam="2">  1       -4 0.23250035E-02 0.12499824E+03</pdfrwt>
<totfact> 0.79039818E+03</totfact>
</mgrwt>
</event>
<event>
 5    1  0.3179758E-002  0.1249956E+03  0.7818608E-02  0.1235076E+00
         -4   -1    0    0    0  501 -0.00000000000E+00  0.00000000000E+00  0.37604744496E+03  0.37604958950E+03  0.12700000000E+01 0.  1.
          4   -1    0    0  501    0  0.00000000000E+00 -0.00000000000E+00 -0.10345920521E+02  0.10423577670E+02  0.12700000000E+01 0.  1.
         25    2    1    2    0    0  0.00000000000E+00  0.00000000000E+00  0.36570152444E+03  0.38647316717E+03  0.12499561578E+03 0.  0.
    9000005    1    3    3    0    0  0.51110672710E+02 -0.35832843704E+02  0.19196132933E+03  0.20185748812E+03  0.10000000000E+01 0.  0.
    9000005    1    3    3    0    0 -0.51110672710E+02  0.35832843704E+02  0.17374019511E+03  0.18461567904E+03  0.10000000000E+01 0.  0.
<mgrwt>
<rscale>  0 0.12499562E+03</rscale>
<asrwt>0</asrwt>
<pdfrwt beam="2">  1        4 0.15978188E-02 0.12499562E+03</pdfrwt>
<pdfrwt beam="1">  1       -4 0.57859589E-01 0.12499562E+03</pdfrwt>
<totfact> 0.65896386E+03</totfact>
</mgrwt>
</event>
<event>
 5    1  0.3179758E-002  0.1249976E+03  0.7818608E-02  0.1235073E+00
         -4   -1    0    0    0  501 -0.00000000000E+00  0.00000000000E+00  0.27757854836E+02  0.27786892686E+02  0.12700000000E+01 0.  1.
          4   -1    0    0  501    0  0.00000000000E+00 -0.00000000000E+00 -0.14061514976E+03  0.14062088480E+03  0.12700000000E+01 0.  1.
         25    2    1    2    0    0  0.00000000000E+00  0.00000000000E+00 -0.11285729492E+03  0.16840777748E+03  0.12499764198E+03 0.  0.
    9000005    1    3    3    0    0  0.31568351921E+00  0.50835149671E+02 -0.74646015167E+01  0.51390975608E+02  0.10000000000E+01 0.  0.
    9000005    1    3    3    0    0 -0.31568351921E+00 -0.50835149671E+02 -0.10539269340E+03  0.11701680187E+03  0.10000000000E+01 0.  0.
<mgrwt>
<rscale>  0 0.12499764E+03</rscale>
<asrwt>0</asrwt>
<pdfrwt beam="2">  1        4 0.21635774E-01 0.12499764E+03</pdfrwt>
<pdfrwt beam="1">  1       -4 0.42731141E-02 0.12499764E+03</pdfrwt>
<totfact> 0.95750948E+03</totfact>
</mgrwt>
</event>
<event>
 5    1  0.3179758E-002  0.1250047E+03  0.7818608E-02  0.1235062E+00
          4   -1    0    0  501    0  0.00000000000E+00  0.00000000000E+00  0.47766070311E+03  0.47766239144E+03  0.12700000000E+01 0.  1.
         -4   -1    0    0    0  501 -0.00000000000E+00 -0.00000000000E+00 -0.81274797324E+01  0.82261064181E+01  0.12700000000E+01 0.  1.
         25    2    1    2    0    0  0.00000000000E+00  0.00000000000E+00  0.46953322338E+03  0.48588849786E+03  0.12500473789E+03 0.  0.
    9000005    1    3    3    0    0  0.12243923078E+02  0.60255883586E+02  0.27819997769E+03  0.28491562390E+03  0.10000000000E+01 0.  0.
    9000005    1    3    3    0    0 -0.12243923078E+02 -0.60255883586E+02  0.19133324570E+03  0.20097287396E+03  0.10000000000E+01 0.  0.
<mgrwt>
<rscale>  0 0.12500474E+03</rscale>
<asrwt>0</asrwt>
<pdfrwt beam="1">  1        4 0.73493978E-01 0.12500474E+03</pdfrwt>
<pdfrwt beam="2">  1       -4 0.12580980E-02 0.12500474E+03</pdfrwt>
<totfact> 0.56970173E+03</totfact>
</mgrwt>
</event>
<event>
 5    1  0.3179758E-002  0.1249978E+03  0.7818608E-02  0.1235073E+00
         -4   -1    0    0    0  501 -0.00000000000E+00  0.00000000000E+00  0.13002406852E+02  0.13064282757E+02  0.12700000000E+01 0.  1.
          4   -1    0    0  501    0  0.00000000000E+00 -0.00000000000E+00 -0.29963836661E+03  0.29964105801E+03  0.12700000000E+01 0.  1.
         25    2    1    2    0    0  0.00000000000E+00  0.00000000000E+00 -0.28663595976E+03  0.31270534077E+03  0.12499782685E+03 0.  0.
    9000005    1    3    3    0    0  0.48756968861E+02 -0.32218187160E+02 -0.19868728632E+03  0.20710599060E+03  0.10000000000E+01 0.  0.
    9000005    1    3    3    0    0 -0.48756968861E+02  0.32218187160E+02 -0.87948673434E+02  0.10559935016E+03  0.10000000000E+01 0.  0.
<mgrwt>
<rscale>  0 0.12499783E+03</rscale>
<asrwt>0</asrwt>
<pdfrwt beam="2">  1        4 0.46103172E-01 0.12499783E+03</pdfrwt>
<pdfrwt beam="1">  1       -4 0.20053372E-02 0.12499783E+03</pdfrwt>
<totfact> 0.74035781E+03</totfact>
</mgrwt>
</event>
<event>
 5    1  0.3179758E-002  0.1250001E+03  0.7818608E-02  0.1235069E+00
         -4   -1    0    0    0  501 -0.00000000000E+00  0.00000000000E+00  0.85281213571E+01  0.86221664262E+01  0.12700000000E+01 0. -1.
          4   -1    0    0  501    0  0.00000000000E+00 -0.00000000000E+00 -0.45543733001E+03  0.45543910073E+03  0.12700000000E+01 0. -1.
         25    2    1    2    0    0  0.00000000000E+00  0.00000000000E+00 -0.44690920866E+03  0.46406126715E+03  0.12500007555E+03 0.  0.
    9000005    1    3    3    0    0  0.67720632968E+00 -0.28073557664E+02 -0.16196959347E+02  0.32433389284E+02  0.10000000000E+01 0.  0.
    9000005    1    3    3    0    0 -0.67720632968E+00  0.28073557664E+02 -0.43071224931E+03  0.43162787787E+03  0.10000000000E+01 0.  0.
<mgrwt>
<rscale>  0 0.12500008E+03</rscale>
<asrwt>0</asrwt>
<pdfrwt beam="2">  1        4 0.70074633E-01 0.12500008E+03</pdfrwt>
<pdfrwt beam="1">  1       -4 0.13193895E-02 0.12500008E+03</pdfrwt>
<totfact> 0.58764644E+03</totfact>
</mgrwt>
</event>
<event>
 5    1  0.3179758E-002  0.1249844E+03  0.7818608E-02  0.1235094E+00
         -4   -1    0    0    0  501 -0.00000000000E+00  0.00000000000E+00  0.34514489513E+02  0.34537847159E+02  0.12700000000E+01 0.  1.
          4   -1    0    0  501    0  0.00000000000E+00 -0.00000000000E+00 -0.11308366390E+03  0.11309079512E+03  0.12700000000E+01 0.  1.
         25    2    1    2    0    0  0.00000000000E+00  0.00000000000E+00 -0.78569174390E+02  0.14762864228E+03  0.12498440246E+03 0.  0.
    9000005    1    3    3    0    0 -0.53463963311E+02 -0.25765126420E+02 -0.62371621426E+02  0.86101430138E+02  0.10000000000E+01 0.  0.
    9000005    1    3    3    0    0  0.53463963311E+02  0.25765126420E+02 -0.16197552964E+02  0.61527212146E+02  0.10000000000E+01 0.  0.
<mgrwt>
<rscale>  0 0.12498440E+03</rscale>
<asrwt>0</asrwt>
<pdfrwt beam="2">  1        4 0.17399832E-01 0.12498440E+03</pdfrwt>
<pdfrwt beam="1">  1       -4 0.53122668E-02 0.12498440E+03</pdfrwt>
<totfact> 0.99813553E+03</totfact>
</mgrwt>
</event>
<event>
 5    1  0.3179758E-002  0.1249992E+03  0.7818608E-02  0.1235071E+00
         -4   -1    0    0    0  501 -0.00000000000E+00  0.00000000000E+00  0.29682989230E+03  0.29683260916E+03  0.12700000000E+01 0. -1.
          4   -1    0    0  501    0  0.00000000000E+00 -0.00000000000E+00 -0.13126300139E+02  0.13187594752E+02  0.12700000000E+01 0. -1.
         25    2    1    2    0    0  0.00000000000E+00  0.00000000000E+00  0.28370359216E+03  0.31002020392E+03  0.12499919452E+03 0.  0.
    9000005    1    3    3    0    0 -0.38011316127E+01 -0.41503072339E+02  0.25733985031E+03  0.26069474903E+03  0.10000000000E+01 0.  0.
    9000005    1    3    3    0    0  0.38011316127E+01  0.41503072339E+02  0.26363741849E+02  0.49325454883E+02  0.10000000000E+01 0.  0.
<mgrwt>
<rscale>  0 0.12499919E+03</rscale>
<asrwt>0</asrwt>
<pdfrwt beam="2">  1        4 0.20243549E-02 0.12499919E+03</pdfrwt>
<pdfrwt beam="1">  1       -4 0.45671059E-01 0.12499919E+03</pdfrwt>
<totfact> 0.74360200E+03</totfact>
</mgrwt>
</event>
<event>
 5    1  0.3179758E-002  0.1250005E+03  0.7818608E-02  0.1235068E+00
          4   -1    0    0  501    0  0.00000000000E+00  0.00000000000E+00  0.83026659000E+01  0.83992357419E+01  0.12700000000E+01 0. -1.
         -4   -1    0    0    0  501 -0.00000000000E+00 -0.00000000000E+00 -0.46766773387E+03  0.46766945828E+03  0.12700000000E+01 0. -1.
         25    2    1    2    0    0  0.00000000000E+00  0.00000000000E+00 -0.45936506797E+03  0.47606869402E+03  0.12500054301E+03 0.  0.
    9000005    1    3    3    0    0  0.51005245381E+02  0.31851778299E+02 -0.29445146134E+03  0.30053075371E+03  0.10000000000E+01 0.  0.
    9000005    1    3    3    0    0 -0.51005245381E+02 -0.31851778299E+02 -0.16491360663E+03  0.17553794031E+03  0.10000000000E+01 0.  0.
<mgrwt>
<rscale>  0 0.12500054E+03</rscale>
<asrwt>0</asrwt>
<pdfrwt beam="1">  1        4 0.12848947E-02 0.12500054E+03</pdfrwt>
<pdfrwt beam="2">  1       -4 0.71956423E-01 0.12500054E+03</pdfrwt>
<totfact> 0.57769474E+03</totfact>
</mgrwt>
</event>
<event>
 5    1  0.3179758E-002  0.1250057E+03  0.7818608E-02  0.1235060E+00
          4   -1    0    0  501    0  0.00000000000E+00  0.00000000000E+00  0.33913700969E+02  0.33937472113E+02  0.12700000000E+01 0.  1.
         -4   -1    0    0    0  501 -0.00000000000E+00 -0.00000000000E+00 -0.11512490654E+03  0.11513191132E+03  0.12700000000E+01 0.  1.
         25    2    1    2    0    0  0.00000000000E+00  0.00000000000E+00 -0.81211205568E+02  0.14906938344E+03  0.12500568454E+03 0.  0.
    9000005    1    3    3    0    0 -0.47571048522E+02 -0.46164651795E+01 -0.88621925285E+02  0.10069340619E+03  0.10000000000E+01 0.  0.
    9000005    1    3    3    0    0  0.47571048522E+02  0.46164651795E+01  0.74107197173E+01  0.48375977250E+02  0.10000000000E+01 0.  0.
<mgrwt>
<rscale>  0 0.12500568E+03</rscale>
<asrwt>0</asrwt>
<pdfrwt beam="1">  1        4 0.52198599E-02 0.12500568E+03</pdfrwt>
<pdfrwt beam="2">  1       -4 0.17713891E-01 0.12500568E+03</pdfrwt>
<totfact> 0.99476798E+03</totfact>
</mgrwt>
</event>
<event>
 5    1  0.3179758E-002  0.1249987E+03  0.7818608E-02  0.1235071E+00
          4   -1    0    0  501    0  0.00000000000E+00  0.00000000000E+00  0.15656421763E+03  0.15656936846E+03  0.12700000000E+01 0. -1.
         -4   -1    0    0    0  501 -0.00000000000E+00 -0.00000000000E+00 -0.24927582789E+02  0.24959913536E+02  0.12700000000E+01 0. -1.
         25    2    1    2    0    0  0.00000000000E+00  0.00000000000E+00  0.13163663484E+03  0.18152928200E+03  0.12499870636E+03 0.  0.
    9000005    1    3    3    0    0 -0.51931370706E+02  0.12050105631E+02  0.18467488638E+02  0.56428011180E+02  0.10000000000E+01 0.  0.
    9000005    1    3    3    0    0  0.51931370706E+02 -0.12050105631E+02  0.11316914620E+03  0.12510127082E+03  0.10000000000E+01 0.  0.
<mgrwt>
<rscale>  0 0.12499871E+03</rscale>
<asrwt>0</asrwt>
<pdfrwt beam="1">  1        4 0.24089687E-01 0.12499871E+03</pdfrwt>
<pdfrwt beam="2">  1       -4 0.38378958E-02 0.12499871E+03</pdfrwt>
<totfact> 0.93345156E+03</totfact>
</mgrwt>
</event>
<event>
 5    1  0.3179758E-002  0.1249940E+03  0.7818608E-02  0.1235079E+00
          4   -1    0    0  501    0  0.00000000000E+00  0.00000000000E+00  0.15693200746E+03  0.15693714623E+03  0.12700000000E+01 0.  1.
         -4   -1    0    0    0  501 -0.00000000000E+00 -0.00000000000E+00 -0.24867231994E+02  0.24899641103E+02  0.12700000000E+01 0.  1.
         25    2    1    2    0    0  0.00000000000E+00  0.00000000000E+00  0.13206477547E+03  0.18183678733E+03  0.12499404909E+03 0.  0.
    9000005    1    3    3    0    0  0.98804312475E+01  0.54272909168E+02  0.23328039923E+02  0.59902996902E+02  0.10000000000E+01 0.  0.
    9000005    1    3    3    0    0 -0.98804312475E+01 -0.54272909168E+02  0.10873673554E+03  0.12193379043E+03  0.10000000000E+01 0.  0.
<mgrwt>
<rscale>  0 0.12499405E+03</rscale>
<asrwt>0</asrwt>
<pdfrwt beam="1">  1        4 0.24146274E-01 0.12499405E+03</pdfrwt>
<pdfrwt beam="2">  1       -4 0.38286163E-02 0.12499405E+03</pdfrwt>
<totfact> 0.93299862E+03</totfact>
</mgrwt>
</event>
<event>
 5    1  0.3179758E-002  0.1250002E+03  0.7818608E-02  0.1235069E+00
          4   -1    0    0  501    0  0.00000000000E+00  0.00000000000E+00  0.41912906966E+01  0.43794768755E+01  0.12700000000E+01 0.  1.
         -4   -1    0    0    0  501 -0.00000000000E+00 -0.00000000000E+00 -0.91134318911E+03  0.91134407401E+03  0.12700000000E+01 0.  1.
         25    2    1    2    0    0  0.00000000000E+00  0.00000000000E+00 -0.90715189841E+03  0.91572355089E+03  0.12500021942E+03 0.  0.
    9000005    1    3    3    0    0  0.56147573243E+02  0.24573349319E+02 -0.54295768713E+03  0.54640685344E+03  0.10000000000E+01 0.  0.
    9000005    1    3    3    0    0 -0.56147573243E+02 -0.24573349319E+02 -0.36419421128E+03  0.36931669744E+03  0.10000000000E+01 0.  0.
<mgrwt>
<rscale>  0 0.12500022E+03</rscale>
<asrwt>0</asrwt>
<pdfrwt beam="1">  1        4 0.65935861E-03 0.12500022E+03</pdfrwt>
<pdfrwt beam="2">  1       -4 0.14022103E+00 0.12500022E+03</pdfrwt>
<totfact> 0.33564839E+03</totfact>
</mgrwt>
</event>
<event>
 5    1  0.3179758E-002  0.1250000E+03  0.7818608E-02  0.1235069E+00
         -4   -1    0    0    0  501 -0.00000000000E+00  0.00000000000E+00  0.27327350325E+02  0.27356845136E+02  0.12700000000E+01 0.  1.
          4   -1    0    0  501    0  0.00000000000E+00 -0.00000000000E+00 -0.14283348991E+03  0.14283913588E+03  0.12700000000E+01 0.  1.
         25    2    1    2    0    0  0.00000000000E+00  0.00000000000E+00 -0.11550613958E+03  0.17019598101E+03  0.12500001469E+03 0.  0.
    9000005    1    3    3    0    0 -0.25928420821E+02  0.21231992486E+02 -0.12957070486E+03  0.13383814131E+03  0.10000000000E+01 0.  0.
    9000005    1    3    3    0    0  0.25928420821E+02 -0.21231992486E+02  0.14064565283E+02  0.36357839702E+02  0.10000000000E+01 0.  0.
<mgrwt>
<rscale>  0 0.12500001E+03</rscale>
<asrwt>0</asrwt>
<pdfrwt beam="2">  1        4 0.21977086E-01 0.12500001E+03</pdfrwt>
<pdfrwt beam="1">  1       -4 0.42069110E-02 0.12500001E+03</pdfrwt>
<totfact> 0.95412090E+03</totfact>
</mgrwt>
</event>
<event>
 5    1  0.3179758E-002  0.1250027E+03  0.7818608E-02  0.1235065E+00
         -4   -1    0    0    0  501 -0.00000000000E+00  0.00000000000E+00  0.31098663752E+02  0.31124584932E+02  0.12700000000E+01 0. -1.
          4   -1    0    0  501    0  0.00000000000E+00 -0.00000000000E+00 -0.12553228908E+03  0.12553871316E+03  0.12700000000E+01 0. -1.
         25    2    1    2    0    0  0.00000000000E+00  0.00000000000E+00 -0.94433625328E+02  0.15666329809E+03  0.12500271748E+03 0.  0.
    9000005    1    3    3    0    0 -0.40048238053E+02 -0.46382641092E+02 -0.62576978385E+02  0.87590461750E+02  0.10000000000E+01 0.  0.
    9000005    1    3    3    0    0  0.40048238053E+02  0.46382641092E+02 -0.31856646943E+02  0.69072836342E+02  0.10000000000E+01 0.  0.
<mgrwt>
<rscale>  0 0.12500272E+03</rscale>
<asrwt>0</asrwt>
<pdfrwt beam="2">  1        4 0.19315148E-01 0.12500272E+03</pdfrwt>
<pdfrwt beam="1">  1       -4 0.47868980E-02 0.12500272E+03</pdfrwt>
<totfact> 0.97983972E+03</totfact>
</mgrwt>
</event>
<event>
 5    1  0.3179758E-002  0.1249720E+03  0.7818608E-02  0.1235113E+00
          4   -1    0    0  501    0  0.00000000000E+00  0.00000000000E+00  0.72065727833E+03  0.72065839738E+03  0.12700000000E+01 0.  1.
         -4   -1    0    0    0  501 -0.00000000000E+00 -0.00000000000E+00 -0.53424122717E+01  0.54912902747E+01  0.12700000000E+01 0.  1.
         25    2    1    2    0    0  0.00000000000E+00  0.00000000000E+00  0.71531486606E+03  0.72614968765E+03  0.12497204196E+03 0.  0.
    9000005    1    3    3    0    0  0.15470826446E+02 -0.56863398775E+02  0.47824592967E+03  0.48186404912E+03  0.10000000000E+01 0.  0.
    9000005    1    3    3    0    0 -0.15470826446E+02  0.56863398775E+02  0.23706893639E+03  0.24428563853E+03  0.10000000000E+01 0.  0.
<mgrwt>
<rscale>  0 0.12497204E+03</rscale>
<asrwt>0</asrwt>
<pdfrwt beam="1">  1        4 0.11088193E+00 0.12497204E+03</pdfrwt>
<pdfrwt beam="2">  1       -4 0.83344750E-03 0.12497204E+03</pdfrwt>
<totfact> 0.41767206E+03</totfact>
</mgrwt>
</event>
<event>
 5    1  0.3179758E-002  0.1250013E+03  0.7818608E-02  0.1235067E+00
          4   -1    0    0  501    0  0.00000000000E+00  0.00000000000E+00  0.40777385677E+03  0.40777583445E+03  0.12700000000E+01 0. -1.
         -4   -1    0    0    0  501 -0.00000000000E+00 -0.00000000000E+00 -0.95355465199E+01  0.96197477843E+01  0.12700000000E+01 0. -1.
         25    2    1    2    0    0  0.00000000000E+00  0.00000000000E+00  0.39823831025E+03  0.41739558224E+03  0.12500128128E+03 0.  0.
    9000005    1    3    3    0    0  0.27918931543E+02 -0.14651247996E+02  0.18954446515E+02  0.36802131039E+02  0.10000000000E+01 0.  0.
    9000005    1    3    3    0    0 -0.27918931543E+02  0.14651247996E+02  0.37928386374E+03  0.38059345120E+03  0.10000000000E+01 0.  0.
<mgrwt>
<rscale>  0 0.12500128E+03</rscale>
<asrwt>0</asrwt>
<pdfrwt beam="1">  1        4 0.62741075E-01 0.12500128E+03</pdfrwt>
<pdfrwt beam="2">  1       -4 0.14736362E-02 0.12500128E+03</pdfrwt>
<totfact> 0.62893580E+03</totfact>
</mgrwt>
</event>
<event>
 5    1  0.3179758E-002  0.1250010E+03  0.7818608E-02  0.1235068E+00
          4   -1    0    0  501    0  0.00000000000E+00  0.00000000000E+00  0.71878161564E+01  0.72991507107E+01  0.12700000000E+01 0.  1.
         -4   -1    0    0    0  501 -0.00000000000E+00 -0.00000000000E+00 -0.53917426846E+03  0.53917576418E+03  0.12700000000E+01 0.  1.
         25    2    1    2    0    0  0.00000000000E+00  0.00000000000E+00 -0.53198645231E+03  0.54647491489E+03  0.12500098864E+03 0.  0.
    9000005    1    3    3    0    0  0.57206708926E+02 -0.23405850984E+02 -0.30626816281E+03  0.31244460142E+03  0.10000000000E+01 0.  0.
    9000005    1    3    3    0    0 -0.57206708926E+02  0.23405850984E+02 -0.22571828950E+03  0.23403031347E+03  0.10000000000E+01 0.  0.
<mgrwt>
<rscale>  0 0.12500099E+03</rscale>
<asrwt>0</asrwt>
<pdfrwt beam="1">  1        4 0.11144975E-02 0.12500099E+03</pdfrwt>
<pdfrwt beam="2">  1       -4 0.82958535E-01 0.12500099E+03</pdfrwt>
<totfact> 0.52429450E+03</totfact>
</mgrwt>
</event>
<event>
 4    1  0.3179758E-002  0.1249268E+03  0.7818608E-02  0.1235184E+00
          4   -1    0    0  501    0  0.00000000000E+00  0.00000000000E+00  0.57478979135E+03  0.57479119438E+03  0.12700000000E+01 0. -1.
         -4   -1    0    0    0  501 -0.00000000000E+00 -0.00000000000E+00 -0.67271745622E+01  0.68460044983E+01  0.12700000000E+01 0. -1.
    9000005    1    1    2    0    0  0.17830779909E+02 -0.59712971540E+02  0.30328299284E+03  0.30962097705E+03  0.10000000000E+01 0.  0.
    9000005    1    1    2    0    0 -0.17830779909E+02  0.59712971540E+02  0.26477962394E+03  0.27201622183E+03  0.10000000000E+01 0.  0.
<mgrwt>
<rscale>  0 0.12492676E+03</rscale>
<asrwt>0</asrwt>
<pdfrwt beam="1">  1        4 0.88438433E-01 0.12492676E+03</pdfrwt>
<pdfrwt beam="2">  1       -4 0.10441988E-02 0.12492676E+03</pdfrwt>
<totfact> 0.50128130E+03</totfact>
</mgrwt>
</event>
<event>
 5    1  0.3179758E-002  0.1250027E+03  0.7818608E-02  0.1235065E+00
         -4   -1    0    0    0  501 -0.00000000000E+00  0.00000000000E+00  0.54933980717E+03  0.54934127520E+03  0.12700000000E+01 0.  1.
          4   -1    0    0  501    0  0.00000000000E+00 -0.00000000000E+00 -0.70529282108E+01  0.71663586532E+01  0.12700000000E+01 0.  1.
         25    2    1    2    0    0  0.00000000000E+00  0.00000000000E+00  0.54228687896E+03  0.55650763385E+03  0.12500274976E+03 0.  0.
    9000005    1    3    3    0    0 -0.16674268185E+02 -0.30402323769E+02  0.50260653686E+03  0.50380220663E+03  0.10000000000E+01 0.  0.
    9000005    1    3    3    0    0  0.16674268185E+02  0.30402323769E+02  0.39680342101E+02  0.52705427228E+02  0.10000000000E+01 0.  0.
<mgrwt>
<rscale>  0 0.12500275E+03</rscale>
<asrwt>0</asrwt>
<pdfrwt beam="2">  1        4 0.10939039E-02 0.12500275E+03</pdfrwt>
<pdfrwt beam="1">  1       -4 0.84522683E-01 0.12500275E+03</pdfrwt>
<totfact> 0.51730199E+03</totfact>
</mgrwt>
</event>
<event>
 5    1  0.3179758E-002  0.1249957E+03  0.7818608E-02  0.1235076E+00
         -4   -1    0    0    0  501 -0.00000000000E+00  0.00000000000E+00  0.21861712877E+02  0.21898570500E+02  0.12700000000E+01 0. -1.
          4   -1    0    0  501    0  0.00000000000E+00 -0.00000000000E+00 -0.17847795294E+03  0.17848247137E+03  0.12700000000E+01 0. -1.
         25    2    1    2    0    0  0.00000000000E+00  0.00000000000E+00 -0.15661624007E+03  0.20038104187E+03  0.12499566108E+03 0.  0.
    9000005    1    3    3    0    0  0.31406300409E+02  0.32310371136E+02 -0.14771832078E+03  0.15444098576E+03  0.10000000000E+01 0.  0.
    9000005    1    3    3    0    0 -0.31406300409E+02 -0.32310371136E+02 -0.88979192913E+01  0.45940056117E+02  0.10000000000E+01 0.  0.
<mgrwt>
<rscale>  0 0.12499566E+03</rscale>
<asrwt>0</asrwt>
<pdfrwt beam="2">  1        4 0.27461328E-01 0.12499566E+03</pdfrwt>
<pdfrwt beam="1">  1       -4 0.33665233E-02 0.12499566E+03</pdfrwt>
<totfact> 0.90080026E+03</totfact>
</mgrwt>
</event>
<event>
 5    1  0.3179758E-002  0.1249973E+03  0.7818608E-02  0.1235074E+00
          4   -1    0    0  501    0  0.00000000000E+00  0.00000000000E+00  0.12998943756E+03  0.12999564138E+03  0.12700000000E+01 0. -1.
         -4   -1    0    0    0  501 -0.00000000000E+00 -0.00000000000E+00 -0.30028864855E+02  0.30055708683E+02  0.12700000000E+01 0. -1.
         25    2    1    2    0    0  0.00000000000E+00  0.00000000000E+00  0.99960572706E+02  0.16005135006E+03  0.12499727421E+03 0.  0.
    9000005    1    3    3    0    0  0.43356387142E+02 -0.43510286358E+02  0.35260346139E+02  0.70832290199E+02  0.10000000000E+01 0.  0.
    9000005    1    3    3    0    0 -0.43356387142E+02  0.43510286358E+02  0.64700226567E+02  0.89219059863E+02  0.10000000000E+01 0.  0.
<mgrwt>
<rscale>  0 0.12499727E+03</rscale>
<asrwt>0</asrwt>
<pdfrwt beam="1">  1        4 0.20000917E-01 0.12499727E+03</pdfrwt>
<pdfrwt beam="2">  1       -4 0.46223675E-02 0.12499727E+03</pdfrwt>
<totfact> 0.97338849E+03</totfact>
</mgrwt>
</event>
<event>
 5    1  0.3179758E-002  0.1250022E+03  0.7818608E-02  0.1235066E+00
          4   -1    0    0  501    0  0.00000000000E+00  0.00000000000E+00  0.21641923810E+01  0.25093084031E+01  0.12700000000E+01 0. -1.
         -4   -1    0    0    0  501 -0.00000000000E+00 -0.00000000000E+00 -0.16713715671E+04  0.16713720496E+04  0.12700000000E+01 0. -1.
         25    2    1    2    0    0  0.00000000000E+00  0.00000000000E+00 -0.16692073747E+04  0.16738813580E+04  0.12500216350E+03 0.  0.
    9000005    1    3    3    0    0  0.12892093650E+02  0.42052429767E+02 -0.14290674237E+04  0.14297444927E+04  0.10000000000E+01 0.  0.
    9000005    1    3    3    0    0 -0.12892093650E+02 -0.42052429767E+02 -0.24013995102E+03  0.24413686531E+03  0.10000000000E+01 0.  0.
<mgrwt>
<rscale>  0 0.12500216E+03</rscale>
<asrwt>0</asrwt>
<pdfrwt beam="1">  1        4 0.35953851E-03 0.12500216E+03</pdfrwt>
<pdfrwt beam="2">  1       -4 0.25715972E+00 0.12500216E+03</pdfrwt>
<totfact> 0.14747769E+03</totfact>
</mgrwt>
</event>
<event>
 5    1  0.3179758E-002  0.1250024E+03  0.7818608E-02  0.1235065E+00
         -4   -1    0    0    0  501 -0.00000000000E+00  0.00000000000E+00  0.68836567797E+02  0.68848282230E+02  0.12700000000E+01 0. -1.
          4   -1    0    0  501    0  0.00000000000E+00 -0.00000000000E+00 -0.56725288642E+02  0.56739503624E+02  0.12700000000E+01 0. -1.
         25    2    1    2    0    0  0.00000000000E+00  0.00000000000E+00  0.12111279155E+02  0.12558778585E+03  0.12500243547E+03 0.  0.
    9000005    1    3    3    0    0 -0.89977528919E+01 -0.61316262165E+02  0.14140598917E+02  0.63573580210E+02  0.10000000000E+01 0.  0.
    9000005    1    3    3    0    0  0.89977528919E+01  0.61316262165E+02 -0.20293197622E+01  0.62014205644E+02  0.10000000000E+01 0.  0.
<mgrwt>
<rscale>  0 0.12500244E+03</rscale>
<asrwt>0</asrwt>
<pdfrwt beam="2">  1        4 0.87289621E-02 0.12500244E+03</pdfrwt>
<pdfrwt beam="1">  1       -4 0.10592236E-01 0.12500244E+03</pdfrwt>
<totfact> 0.10439443E+04</totfact>
</mgrwt>
</event>
<event>
 5    1  0.3179758E-002  0.1250007E+03  0.7818608E-02  0.1235068E+00
         -4   -1    0    0    0  501 -0.00000000000E+00  0.00000000000E+00  0.22069140675E+04  0.22069144329E+04  0.12700000000E+01 0.  1.
          4   -1    0    0  501    0  0.00000000000E+00 -0.00000000000E+00 -0.15418044412E+01  0.19975136883E+01  0.12700000000E+01 0.  1.
         25    2    1    2    0    0  0.00000000000E+00  0.00000000000E+00  0.22053722630E+04  0.22089119466E+04  0.12500067679E+03 0.  0.
    9000005    1    3    3    0    0  0.89088757483E+01  0.17876116236E+02  0.21490791421E+04  0.21491721854E+04  0.10000000000E+01 0.  0.
    9000005    1    3    3    0    0 -0.89088757483E+01 -0.17876116236E+02  0.56293120954E+02  0.59739761178E+02  0.10000000000E+01 0.  0.
<mgrwt>
<rscale>  0 0.12500068E+03</rscale>
<asrwt>0</asrwt>
<pdfrwt beam="2">  1        4 0.27228421E-03 0.12500068E+03</pdfrwt>
<pdfrwt beam="1">  1       -4 0.33955925E+00 0.12500068E+03</pdfrwt>
<totfact> 0.73749995E+02</totfact>
</mgrwt>
</event>
<event>
 5    1  0.3179758E-002  0.1250051E+03  0.7818608E-02  0.1235061E+00
          4   -1    0    0  501    0  0.00000000000E+00  0.00000000000E+00  0.38558013236E+02  0.38578922804E+02  0.12700000000E+01 0. -1.
         -4   -1    0    0    0  501 -0.00000000000E+00 -0.00000000000E+00 -0.10126430341E+03  0.10127226691E+03  0.12700000000E+01 0. -1.
         25    2    1    2    0    0  0.00000000000E+00  0.00000000000E+00 -0.62706290177E+02  0.13985118972E+03  0.12500510565E+03 0.  0.
    9000005    1    3    3    0    0  0.24782288017E+02  0.35499640425E+02  0.19068025391E+02  0.47317817595E+02  0.10000000000E+01 0.  0.
    9000005    1    3    3    0    0 -0.24782288017E+02 -0.35499640425E+02 -0.81774315569E+02  0.92533372123E+02  0.10000000000E+01 0.  0.
<mgrwt>
<rscale>  0 0.12500511E+03</rscale>
<asrwt>0</asrwt>
<pdfrwt beam="1">  1        4 0.59342231E-02 0.12500511E+03</pdfrwt>
<pdfrwt beam="2">  1       -4 0.15581344E-01 0.12500511E+03</pdfrwt>
<totfact> 0.10135505E+04</totfact>
</mgrwt>
</event>
<event>
 5    1  0.3179758E-002  0.1249990E+03  0.7818608E-02  0.1235071E+00
         -4   -1    0    0    0  501 -0.00000000000E+00  0.00000000000E+00  0.72665943625E+03  0.72666054605E+03  0.12700000000E+01 0. -1.
          4   -1    0    0  501    0  0.00000000000E+00 -0.00000000000E+00 -0.52993983179E+01  0.54494515809E+01  0.12700000000E+01 0. -1.
         25    2    1    2    0    0  0.00000000000E+00  0.00000000000E+00  0.72136003793E+03  0.73210999763E+03  0.12499897724E+03 0.  0.
    9000005    1    3    3    0    0  0.49531077698E+02 -0.30376316080E+02  0.49540691016E+03  0.49880362355E+03  0.10000000000E+01 0.  0.
    9000005    1    3    3    0    0 -0.49531077698E+02  0.30376316080E+02  0.22595312777E+03  0.23330637408E+03  0.10000000000E+01 0.  0.
<mgrwt>
<rscale>  0 0.12499898E+03</rscale>
<asrwt>0</asrwt>
<pdfrwt beam="2">  1        4 0.82692015E-03 0.12499898E+03</pdfrwt>
<pdfrwt beam="1">  1       -4 0.11180536E+00 0.12499898E+03</pdfrwt>
<totfact> 0.41445714E+03</totfact>
</mgrwt>
</event>
<event>
 5    1  0.3179758E-002  0.1250023E+03  0.7818608E-02  0.1235066E+00
         -4   -1    0    0    0  501 -0.00000000000E+00  0.00000000000E+00  0.15637577843E+02  0.15689064370E+02  0.12700000000E+01 0.  1.
          4   -1    0    0  501    0  0.00000000000E+00 -0.00000000000E+00 -0.24934432650E+03  0.24934756076E+03  0.12700000000E+01 0.  1.
         25    2    1    2    0    0  0.00000000000E+00  0.00000000000E+00 -0.23370674866E+03  0.26503662513E+03  0.12500227315E+03 0.  0.
    9000005    1    3    3    0    0  0.16697938513E+02 -0.41983260319E+02 -0.20839280997E+03  0.21323690708E+03  0.10000000000E+01 0.  0.
    9000005    1    3    3    0    0 -0.16697938513E+02  0.41983260319E+02 -0.25313938691E+02  0.51799718047E+02  0.10000000000E+01 0.  0.
<mgrwt>
<rscale>  0 0.12500227E+03</rscale>
<asrwt>0</asrwt>
<pdfrwt beam="2">  1        4 0.38364872E-01 0.12500227E+03</pdfrwt>
<pdfrwt beam="1">  1       -4 0.24099907E-02 0.12500227E+03</pdfrwt>
<totfact> 0.80200342E+03</totfact>
</mgrwt>
</event>
<event>
 5    1  0.3179758E-002  0.1250022E+03  0.7818608E-02  0.1235066E+00
         -4   -1    0    0    0  501 -0.00000000000E+00  0.00000000000E+00  0.47320697488E+01  0.48995289679E+01  0.12700000000E+01 0.  1.
          4   -1    0    0  501    0  0.00000000000E+00 -0.00000000000E+00 -0.81099221698E+03  0.81099321138E+03  0.12700000000E+01 0.  1.
         25    2    1    2    0    0  0.00000000000E+00  0.00000000000E+00 -0.80626014723E+03  0.81589274035E+03  0.12500215493E+03 0.  0.
    9000005    1    3    3    0    0  0.16539127797E+02  0.34473915884E+02 -0.80494642330E+02  0.89120037413E+02  0.10000000000E+01 0.  0.
    9000005    1    3    3    0    0 -0.16539127797E+02 -0.34473915884E+02 -0.72576550490E+03  0.72677270294E+03  0.10000000000E+01 0.  0.
<mgrwt>
<rscale>  0 0.12500215E+03</rscale>
<asrwt>0</asrwt>
<pdfrwt beam="2">  1        4 0.12478088E+00 0.12500215E+03</pdfrwt>
<pdfrwt beam="1">  1       -4 0.74096935E-03 0.12500215E+03</pdfrwt>
<totfact> 0.37563269E+03</totfact>
</mgrwt>
</event>
<event>
 5    1  0.3179758E-002  0.1250005E+03  0.7818608E-02  0.1235068E+00
          4   -1    0    0  501    0  0.00000000000E+00  0.00000000000E+00  0.40973481539E+02  0.40993159057E+02  0.12700000000E+01 0. -1.
         -4   -1    0    0    0  501 -0.00000000000E+00 -0.00000000000E+00 -0.95290036416E+02  0.95298499149E+02  0.12700000000E+01 0. -1.
         25    2    1    2    0    0  0.00000000000E+00  0.00000000000E+00 -0.54316554876E+02  0.13629165821E+03  0.12500051185E+03 0.  0.
    9000005    1    3    3    0    0  0.43926796195E+02 -0.41457362948E+02 -0.44637769075E+02  0.75111961728E+02  0.10000000000E+01 0.  0.
    9000005    1    3    3    0    0 -0.43926796195E+02  0.41457362948E+02 -0.96787858012E+01  0.61179696478E+02  0.10000000000E+01 0.  0.
<mgrwt>
<rscale>  0 0.12500051E+03</rscale>
<asrwt>0</asrwt>
<pdfrwt beam="1">  1        4 0.63057772E-02 0.12500051E+03</pdfrwt>
<pdfrwt beam="2">  1       -4 0.14662170E-01 0.12500051E+03</pdfrwt>
<totfact> 0.10210799E+04</totfact>
</mgrwt>
</event>
<event>
 5    1  0.3179758E-002  0.1249950E+03  0.7818608E-02  0.1235077E+00
          4   -1    0    0  501    0  0.00000000000E+00  0.00000000000E+00  0.14806850923E+02  0.14861215773E+02  0.12700000000E+01 0.  1.
         -4   -1    0    0    0  501 -0.00000000000E+00 -0.00000000000E+00 -0.26325342377E+03  0.26325648715E+03  0.12700000000E+01 0.  1.
         25    2    1    2    0    0  0.00000000000E+00  0.00000000000E+00 -0.24844657285E+03  0.27811770293E+03  0.12499502838E+03 0.  0.
    9000005    1    3    3    0    0  0.38874621747E+02 -0.31531827333E+02 -0.40986728805E+02  0.64702428772E+02  0.10000000000E+01 0.  0.
    9000005    1    3    3    0    0 -0.38874621747E+02  0.31531827333E+02 -0.20745984405E+03  0.21341527415E+03  0.10000000000E+01 0.  0.
<mgrwt>
<rscale>  0 0.12499503E+03</rscale>
<asrwt>0</asrwt>
<pdfrwt beam="1">  1        4 0.22823948E-02 0.12499503E+03</pdfrwt>
<pdfrwt beam="2">  1       -4 0.40504941E-01 0.12499503E+03</pdfrwt>
<totfact> 0.78437018E+03</totfact>
</mgrwt>
</event>
<event>
 5    1  0.3179758E-002  0.1249964E+03  0.7818608E-02  0.1235075E+00
          4   -1    0    0  501    0  0.00000000000E+00  0.00000000000E+00  0.83276426771E+02  0.83286110221E+02  0.12700000000E+01 0.  1.
         -4   -1    0    0    0  501 -0.00000000000E+00 -0.00000000000E+00 -0.46883326168E+02  0.46900524225E+02  0.12700000000E+01 0.  1.
         25    2    1    2    0    0  0.00000000000E+00  0.00000000000E+00  0.36393100603E+02  0.13018663445E+03  0.12499640802E+03 0.  0.
    9000005    1    3    3    0    0  0.19160765898E+02 -0.15518969566E+02  0.78000762575E+02  0.81811321518E+02  0.10000000000E+01 0.  0.
    9000005    1    3    3    0    0 -0.19160765898E+02  0.15518969566E+02 -0.41607661972E+02  0.48375312929E+02  0.10000000000E+01 0.  0.
<mgrwt>
<rscale>  0 0.12499641E+03</rscale>
<asrwt>0</asrwt>
<pdfrwt beam="1">  1        4 0.12813826E-01 0.12499641E+03</pdfrwt>
<pdfrwt beam="2">  1       -4 0.72148872E-02 0.12499641E+03</pdfrwt>
<totfact> 0.10341355E+04</totfact>
</mgrwt>
</event>
<event>
 5    1  0.3179758E-002  0.1249998E+03  0.7818608E-02  0.1235070E+00
         -4   -1    0    0    0  501 -0.00000000000E+00  0.00000000000E+00  0.11649515866E+02  0.11718537447E+02  0.12700000000E+01 0.  1.
          4   -1    0    0  501    0  0.00000000000E+00 -0.00000000000E+00 -0.33425252906E+03  0.33425494175E+03  0.12700000000E+01 0.  1.
         25    2    1    2    0    0  0.00000000000E+00  0.00000000000E+00 -0.32260301320E+03  0.34597347920E+03  0.12499977674E+03 0.  0.
    9000005    1    3    3    0    0  0.26553641932E+02  0.36444306678E+02 -0.28105301764E+03  0.28464905079E+03  0.10000000000E+01 0.  0.
    9000005    1    3    3    0    0 -0.26553641932E+02 -0.36444306678E+02 -0.41549995555E+02  0.61324428409E+02  0.10000000000E+01 0.  0.
<mgrwt>
<rscale>  0 0.12499978E+03</rscale>
<asrwt>0</asrwt>
<pdfrwt beam="2">  1        4 0.51428954E-01 0.12499978E+03</pdfrwt>
<pdfrwt beam="1">  1       -4 0.17977284E-02 0.12499978E+03</pdfrwt>
<totfact> 0.70170155E+03</totfact>
</mgrwt>
</event>
<event>
 5    1  0.3179758E-002  0.1249872E+03  0.7818608E-02  0.1235089E+00
         -4   -1    0    0    0  501 -0.00000000000E+00  0.00000000000E+00  0.12144222754E+03  0.12144886797E+03  0.12700000000E+01 0. -1.
          4   -1    0    0  501    0  0.00000000000E+00 -0.00000000000E+00 -0.32138826130E+02  0.32163909044E+02  0.12700000000E+01 0. -1.
         25    2    1    2    0    0  0.00000000000E+00  0.00000000000E+00  0.89303401412E+02  0.15361277701E+03  0.12498715037E+03 0.  0.
    9000005    1    3    3    0    0 -0.62018212643E+02 -0.75905937438E+01  0.43722888006E+02  0.76266419533E+02  0.10000000000E+01 0.  0.
    9000005    1    3    3    0    0  0.62018212643E+02  0.75905937438E+01  0.45580513406E+02  0.77346357478E+02  0.10000000000E+01 0.  0.
<mgrwt>
<rscale>  0 0.12498715E+03</rscale>
<asrwt>0</asrwt>
<pdfrwt beam="2">  1        4 0.49468751E-02 0.12498715E+03</pdfrwt>
<pdfrwt beam="1">  1       -4 0.18685860E-01 0.12498715E+03</pdfrwt>
<totfact> 0.98616863E+03</totfact>
</mgrwt>
</event>
<event>
 5    1  0.3179758E-002  0.1250020E+03  0.7818608E-02  0.1235066E+00
          4   -1    0    0  501    0  0.00000000000E+00  0.00000000000E+00  0.65228895922E+02  0.65241258136E+02  0.12700000000E+01 0. -1.
         -4   -1    0    0    0  501 -0.00000000000E+00 -0.00000000000E+00 -0.59862416131E+02  0.59875886340E+02  0.12700000000E+01 0. -1.
         25    2    1    2    0    0  0.00000000000E+00  0.00000000000E+00  0.53664797908E+01  0.12511714448E+03  0.12500200293E+03 0.  0.
    9000005    1    3    3    0    0  0.31740709915E+02 -0.17177544090E+02 -0.48381735763E+02  0.60368311574E+02  0.10000000000E+01 0.  0.
    9000005    1    3    3    0    0 -0.31740709915E+02  0.17177544090E+02  0.53748215554E+02  0.64748832902E+02  0.10000000000E+01 0.  0.
<mgrwt>
<rscale>  0 0.12500200E+03</rscale>
<asrwt>0</asrwt>
<pdfrwt beam="1">  1        4 0.10037202E-01 0.12500200E+03</pdfrwt>
<pdfrwt beam="2">  1       -4 0.92115896E-02 0.12500200E+03</pdfrwt>
<totfact> 0.10449846E+04</totfact>
</mgrwt>
</event>
<event>
 5    1  0.3179758E-002  0.1249707E+03  0.7818608E-02  0.1235115E+00
         -4   -1    0    0    0  501 -0.00000000000E+00  0.00000000000E+00  0.80263478958E+02  0.80273525863E+02  0.12700000000E+01 0. -1.
          4   -1    0    0  501    0  0.00000000000E+00 -0.00000000000E+00 -0.48623623212E+02  0.48640205944E+02  0.12700000000E+01 0. -1.
         25    2    1    2    0    0  0.00000000000E+00  0.00000000000E+00  0.31639855746E+02  0.12891373181E+03  0.12497067567E+03 0.  0.
    9000005    1    3    3    0    0 -0.56563276898E+02 -0.24707459883E+02  0.58423854692E+01  0.62008034441E+02  0.10000000000E+01 0.  0.
    9000005    1    3    3    0    0  0.56563276898E+02  0.24707459883E+02  0.25797470277E+02  0.66905697366E+02  0.10000000000E+01 0.  0.
<mgrwt>
<rscale>  0 0.12497068E+03</rscale>
<asrwt>0</asrwt>
<pdfrwt beam="2">  1        4 0.74826060E-02 0.12497068E+03</pdfrwt>
<pdfrwt beam="1">  1       -4 0.12350276E-01 0.12497068E+03</pdfrwt>
<totfact> 0.10374667E+04</totfact>
</mgrwt>
</event>
<event>
 5    1  0.3179758E-002  0.1249994E+03  0.7818608E-02  0.1235070E+00
          4   -1    0    0  501    0  0.00000000000E+00  0.00000000000E+00  0.12847895701E+02  0.12910512149E+02  0.12700000000E+01 0. -1.
         -4   -1    0    0    0  501 -0.00000000000E+00 -0.00000000000E+00 -0.30323238763E+03  0.30323504713E+03  0.12700000000E+01 0. -1.
         25    2    1    2    0    0  0.00000000000E+00  0.00000000000E+00 -0.29038449193E+03  0.31614555928E+03  0.12499944599E+03 0.  0.
    9000005    1    3    3    0    0 -0.62157337617E+02 -0.32405041347E+01 -0.13106959345E+03  0.14510090907E+03  0.10000000000E+01 0.  0.
    9000005    1    3    3    0    0  0.62157337617E+02  0.32405041347E+01 -0.15931489848E+03  0.17104465021E+03  0.10000000000E+01 0.  0.
<mgrwt>
<rscale>  0 0.12499945E+03</rscale>
<asrwt>0</asrwt>
<pdfrwt beam="1">  1        4 0.19816208E-02 0.12499945E+03</pdfrwt>
<pdfrwt beam="2">  1       -4 0.46656152E-01 0.12499945E+03</pdfrwt>
<totfact> 0.73617823E+03</totfact>
</mgrwt>
</event>
<event>
 5    1  0.3179758E-002  0.1250034E+03  0.7818608E-02  0.1235064E+00
         -4   -1    0    0    0  501 -0.00000000000E+00  0.00000000000E+00  0.62804524762E+03  0.62804653169E+03  0.12700000000E+01 0.  1.
          4   -1    0    0  501    0  0.00000000000E+00 -0.00000000000E+00 -0.61539044377E+01  0.62835849504E+01  0.12700000000E+01 0.  1.
         25    2    1    2    0    0  0.00000000000E+00  0.00000000000E+00  0.62189134319E+03  0.63433011664E+03  0.12500341652E+03 0.  0.
    9000005    1    3    3    0    0 -0.47253454431E+02  0.61265930620E+01  0.51613632024E+03  0.51833206072E+03  0.10000000000E+01 0.  0.
    9000005    1    3    3    0    0  0.47253454431E+02 -0.61265930620E+01  0.10575502294E+03  0.11599805591E+03  0.10000000000E+01 0.  0.
<mgrwt>
<rscale>  0 0.12500342E+03</rscale>
<asrwt>0</asrwt>
<pdfrwt beam="2">  1        4 0.95682864E-03 0.12500342E+03</pdfrwt>
<pdfrwt beam="1">  1       -4 0.96632429E-01 0.12500342E+03</pdfrwt>
<totfact> 0.46766400E+03</totfact>
</mgrwt>
</event>
<event>
 5    1  0.3179758E-002  0.1249970E+03  0.7818608E-02  0.1235074E+00
         -4   -1    0    0    0  501 -0.00000000000E+00  0.00000000000E+00  0.26834878944E+02  0.26864914442E+02  0.12700000000E+01 0.  1.
          4   -1    0    0  501    0  0.00000000000E+00 -0.00000000000E+00 -0.14544494455E+03  0.14545048915E+03  0.12700000000E+01 0.  1.
         25    2    1    2    0    0  0.00000000000E+00  0.00000000000E+00 -0.11861006560E+03  0.17231540359E+03  0.12499700258E+03 0.  0.
    9000005    1    3    3    0    0 -0.51623940691E+02 -0.20545454567E+02 -0.19879390524E+02  0.59019802808E+02  0.10000000000E+01 0.  0.
    9000005    1    3    3    0    0  0.51623940691E+02  0.20545454567E+02 -0.98730675080E+02  0.11329560079E+03  0.10000000000E+01 0.  0.
<mgrwt>
<rscale>  0 0.12499700E+03</rscale>
<asrwt>0</asrwt>
<pdfrwt beam="2">  1        4 0.22378882E-01 0.12499700E+03</pdfrwt>
<pdfrwt beam="1">  1       -4 0.41311799E-02 0.12499700E+03</pdfrwt>
<totfact> 0.95025222E+03</totfact>
</mgrwt>
</event>
<event>
 5    1  0.3179758E-002  0.1249956E+03  0.7818608E-02  0.1235076E+00
          4   -1    0    0  501    0  0.00000000000E+00  0.00000000000E+00  0.84809241635E+02  0.84818750089E+02  0.12700000000E+01 0. -1.
         -4   -1    0    0    0  501 -0.00000000000E+00 -0.00000000000E+00 -0.46035173215E+02  0.46052688010E+02  0.12700000000E+01 0. -1.
         25    2    1    2    0    0  0.00000000000E+00  0.00000000000E+00  0.38774068419E+02  0.13087143810E+03  0.12499561964E+03 0.  0.
    9000005    1    3    3    0    0 -0.62116795654E+02 -0.67864025250E+01  0.18704732968E+02  0.65233569555E+02  0.10000000000E+01 0.  0.
    9000005    1    3    3    0    0  0.62116795654E+02  0.67864025250E+01  0.20069335451E+02  0.65637868544E+02  0.10000000000E+01 0.  0.
<mgrwt>
<rscale>  0 0.12499562E+03</rscale>
<asrwt>0</asrwt>
<pdfrwt beam="1">  1        4 0.13049654E-01 0.12499562E+03</pdfrwt>
<pdfrwt beam="2">  1       -4 0.70844131E-02 0.12499562E+03</pdfrwt>
<totfact> 0.10326867E+04</totfact>
</mgrwt>
</event>
<event>
 5    1  0.3179758E-002  0.1250015E+03  0.7818608E-02  0.1235067E+00
         -4   -1    0    0    0  501 -0.00000000000E+00  0.00000000000E+00  0.67114096537E+02  0.67126111566E+02  0.12700000000E+01 0.  1.
          4   -1    0    0  501    0  0.00000000000E+00 -0.00000000000E+00 -0.58180384660E+02  0.58194244211E+02  0.12700000000E+01 0.  1.
         25    2    1    2    0    0  0.00000000000E+00  0.00000000000E+00  0.89337118762E+01  0.12532035578E+03  0.12500152145E+03 0.  0.
    9000005    1    3    3    0    0 -0.99285483048E+00 -0.15207376766E+02 -0.56293792767E+02  0.58328733682E+02  0.10000000000E+01 0.  0.
    9000005    1    3    3    0    0  0.99285483048E+00  0.15207376766E+02  0.65227504643E+02  0.66991622094E+02  0.10000000000E+01 0.  0.
<mgrwt>
<rscale>  0 0.12500152E+03</rscale>
<asrwt>0</asrwt>
<pdfrwt beam="2">  1        4 0.89528187E-02 0.12500152E+03</pdfrwt>
<pdfrwt beam="1">  1       -4 0.10327236E-01 0.12500152E+03</pdfrwt>
<totfact> 0.10445549E+04</totfact>
</mgrwt>
</event>
<event>
 4    1  0.3179758E-002  0.1251283E+03  0.7818608E-02  0.1234869E+00
          4   -1    0    0  501    0  0.00000000000E+00  0.00000000000E+00  0.32466158613E+03  0.32466407010E+03  0.12700000000E+01 0. -1.
         -4   -1    0    0    0  501 -0.00000000000E+00 -0.00000000000E+00 -0.12020484297E+02  0.12087387755E+02  0.12700000000E+01 0. -1.
    9000005    1    1    2    0    0 -0.39468461673E+02 -0.44093944171E+02  0.21089628927E+03  0.21904401432E+03  0.10000000000E+01 0.  0.
    9000005    1    1    2    0    0  0.39468461673E+02  0.44093944171E+02  0.10174481257E+03  0.11770744354E+03  0.10000000000E+01 0.  0.
<mgrwt>
<rscale>  0 0.12512828E+03</rscale>
<asrwt>0</asrwt>
<pdfrwt beam="1">  1        4 0.49953281E-01 0.12512828E+03</pdfrwt>
<pdfrwt beam="2">  1       -4 0.18546425E-02 0.12512828E+03</pdfrwt>
<totfact> 0.71005161E+03</totfact>
</mgrwt>
</event>
<event>
 5    1  0.3179758E-002  0.1250003E+03  0.7818608E-02  0.1235069E+00
         -4   -1    0    0    0  501 -0.00000000000E+00  0.00000000000E+00  0.12444799365E+02  0.12509433689E+02  0.12700000000E+01 0. -1.
          4   -1    0    0  501    0  0.00000000000E+00 -0.00000000000E+00 -0.31300891943E+03  0.31301149587E+03  0.12700000000E+01 0. -1.
         25    2    1    2    0    0  0.00000000000E+00  0.00000000000E+00 -0.30056412007E+03  0.32552092955E+03  0.12500034122E+03 0.  0.
    9000005    1    3    3    0    0 -0.15839338004E+02 -0.26924693832E+02 -0.93335197402E+01  0.32618067955E+02  0.10000000000E+01 0.  0.
    9000005    1    3    3    0    0  0.15839338004E+02  0.26924693832E+02 -0.29123060033E+03  0.29290286160E+03  0.10000000000E+01 0.  0.
<mgrwt>
<rscale>  0 0.12500034E+03</rscale>
<asrwt>0</asrwt>
<pdfrwt beam="2">  1        4 0.48160382E-01 0.12500034E+03</pdfrwt>
<pdfrwt beam="1">  1       -4 0.19197548E-02 0.12500034E+03</pdfrwt>
<totfact> 0.72503714E+03</totfact>
</mgrwt>
</event>
<event>
 5    1  0.3179758E-002  0.1249990E+03  0.7818608E-02  0.1235071E+00
          4   -1    0    0  501    0  0.00000000000E+00  0.00000000000E+00  0.25885915464E+03  0.25886227002E+03  0.12700000000E+01 0. -1.
         -4   -1    0    0    0  501 -0.00000000000E+00 -0.00000000000E+00 -0.15060076149E+02  0.15113530151E+02  0.12700000000E+01 0. -1.
         25    2    1    2    0    0  0.00000000000E+00  0.00000000000E+00  0.24379907849E+03  0.27397580017E+03  0.12499899362E+03 0.  0.
    9000005    1    3    3    0    0  0.15658633608E+02  0.60473080066E+02  0.12569644829E+03  0.14036660334E+03  0.10000000000E+01 0.  0.
    9000005    1    3    3    0    0 -0.15658633608E+02 -0.60473080066E+02  0.11810263020E+03  0.13360919683E+03  0.10000000000E+01 0.  0.
<mgrwt>
<rscale>  0 0.12499899E+03</rscale>
<asrwt>0</asrwt>
<pdfrwt beam="1">  1        4 0.39828834E-01 0.12499899E+03</pdfrwt>
<pdfrwt beam="2">  1       -4 0.23212865E-02 0.12499899E+03</pdfrwt>
<totfact> 0.78985480E+03</totfact>
</mgrwt>
</event>
<event>
 5    1  0.3179758E-002  0.1249973E+03  0.7818608E-02  0.1235074E+00
          4   -1    0    0  501    0  0.00000000000E+00  0.00000000000E+00  0.58968607619E+03  0.58968744378E+03  0.12700000000E+01 0.  1.
         -4   -1    0    0    0  501 -0.00000000000E+00 -0.00000000000E+00 -0.65617365006E+01  0.66835085025E+01  0.12700000000E+01 0.  1.
         25    2    1    2    0    0  0.00000000000E+00  0.00000000000E+00  0.58312433969E+03  0.59637095228E+03  0.12499726872E+03 0.  0.
    9000005    1    3    3    0    0 -0.54837404471E+02  0.13750180139E+02  0.41859019226E+03  0.42239194765E+03  0.10000000000E+01 0.  0.
    9000005    1    3    3    0    0  0.54837404471E+02 -0.13750180139E+02  0.16453414743E+03  0.17397900463E+03  0.10000000000E+01 0.  0.
<mgrwt>
<rscale>  0 0.12499727E+03</rscale>
<asrwt>0</asrwt>
<pdfrwt beam="1">  1        4 0.90730439E-01 0.12499727E+03</pdfrwt>
<pdfrwt beam="2">  1       -4 0.10189698E-02 0.12499727E+03</pdfrwt>
<totfact> 0.49100418E+03</totfact>
</mgrwt>
</event>
<event>
 5    1  0.3179758E-002  0.1249998E+03  0.7818608E-02  0.1235070E+00
         -4   -1    0    0    0  501 -0.00000000000E+00  0.00000000000E+00  0.69827785420E+02  0.69839333593E+02  0.12700000000E+01 0.  1.
          4   -1    0    0  501    0  0.00000000000E+00 -0.00000000000E+00 -0.55917675597E+02  0.55932095832E+02  0.12700000000E+01 0.  1.
         25    2    1    2    0    0  0.00000000000E+00  0.00000000000E+00  0.13910109823E+02  0.12577142943E+03  0.12499984522E+03 0.  0.
    9000005    1    3    3    0    0  0.31255506991E+01  0.18386362668E+02  0.66967270533E+02  0.69522965428E+02  0.10000000000E+01 0.  0.
    9000005    1    3    3    0    0 -0.31255506991E+01 -0.18386362668E+02 -0.53057160710E+02  0.56248463997E+02  0.10000000000E+01 0.  0.
<mgrwt>
<rscale>  0 0.12499985E+03</rscale>
<asrwt>0</asrwt>
<pdfrwt beam="2">  1        4 0.86047169E-02 0.12499985E+03</pdfrwt>
<pdfrwt beam="1">  1       -4 0.10744734E-01 0.12499985E+03</pdfrwt>
<totfact> 0.10436010E+04</totfact>
</mgrwt>
</event>
<event>
 5    1  0.3179758E-002  0.1249991E+03  0.7818608E-02  0.1235071E+00
         -4   -1    0    0    0  501 -0.00000000000E+00  0.00000000000E+00  0.52521875637E+02  0.52537227948E+02  0.12700000000E+01 0. -1.
          4   -1    0    0  501    0  0.00000000000E+00 -0.00000000000E+00 -0.74341054465E+02  0.74351901649E+02  0.12700000000E+01 0. -1.
         25    2    1    2    0    0  0.00000000000E+00  0.00000000000E+00 -0.21819178828E+02  0.12688912960E+03  0.12499909858E+03 0.  0.
    9000005    1    3    3    0    0  0.61609044373E+02 -0.84685759356E+01 -0.17150931630E+02  0.64517792760E+02  0.10000000000E+01 0.  0.
    9000005    1    3    3    0    0 -0.61609044373E+02  0.84685759356E+01 -0.46682471980E+01  0.62371336837E+02  0.10000000000E+01 0.  0.
<mgrwt>
<rscale>  0 0.12499910E+03</rscale>
<asrwt>0</asrwt>
<pdfrwt beam="2">  1        4 0.11439101E-01 0.12499910E+03</pdfrwt>
<pdfrwt beam="1">  1       -4 0.80823038E-02 0.12499910E+03</pdfrwt>
<totfact> 0.10411767E+04</totfact>
</mgrwt>
</event>
<event>
 5    1  0.3179758E-002  0.1250011E+03  0.7818608E-02  0.1235068E+00
          4   -1    0    0  501    0  0.00000000000E+00  0.00000000000E+00  0.15633206217E+03  0.15633722066E+03  0.12700000000E+01 0.  1.
         -4   -1    0    0    0  501 -0.00000000000E+00 -0.00000000000E+00 -0.24965616471E+02  0.24997898027E+02  0.12700000000E+01 0.  1.
         25    2    1    2    0    0  0.00000000000E+00  0.00000000000E+00  0.13136644570E+03  0.18133511868E+03  0.12500112884E+03 0.  0.
    9000005    1    3    3    0    0  0.40727729440E+02 -0.21075769776E+02  0.40958452458E+01  0.46051188533E+02  0.10000000000E+01 0.  0.
    9000005    1    3    3    0    0 -0.40727729440E+02  0.21075769776E+02  0.12727060046E+03  0.13528393015E+03  0.10000000000E+01 0.  0.
<mgrwt>
<rscale>  0 0.12500113E+03</rscale>
<asrwt>0</asrwt>
<pdfrwt beam="1">  1        4 0.24053967E-01 0.12500113E+03</pdfrwt>
<pdfrwt beam="2">  1       -4 0.38437440E-02 0.12500113E+03</pdfrwt>
<totfact> 0.93374865E+03</totfact>
</mgrwt>
</event>
<event>
 5    1  0.3179758E-002  0.1250008E+03  0.7818608E-02  0.1235068E+00
         -4   -1    0    0    0  501 -0.00000000000E+00  0.00000000000E+00  0.29494910267E+01  0.32112921569E+01  0.12700000000E+01 0.  1.
          4   -1    0    0  501    0  0.00000000000E+00 -0.00000000000E+00 -0.12678563657E+04  0.12678570018E+04  0.12700000000E+01 0.  1.
         25    2    1    2    0    0  0.00000000000E+00  0.00000000000E+00 -0.12649068747E+04  0.12710682939E+04  0.12500082495E+03 0.  0.
    9000005    1    3    3    0    0  0.20197233780E+02  0.54203484941E+02 -0.39196180309E+03  0.39620827997E+03  0.10000000000E+01 0.  0.
    9000005    1    3    3    0    0 -0.20197233780E+02 -0.54203484941E+02 -0.87294507158E+03  0.87486001396E+03  0.10000000000E+01 0.  0.
<mgrwt>
<rscale>  0 0.12500082E+03</rscale>
<asrwt>0</asrwt>
<pdfrwt beam="2">  1        4 0.19507460E+00 0.12500082E+03</pdfrwt>
<pdfrwt beam="1">  1       -4 0.47395634E-03 0.12500082E+03</pdfrwt>
<totfact> 0.22921475E+03</totfact>
</mgrwt>
</event>
<event>
 5    1  0.3179758E-002  0.1250055E+03  0.7818608E-02  0.1235061E+00
         -4   -1    0    0    0  501 -0.00000000000E+00  0.00000000000E+00  0.50988294772E+02  0.51004108695E+02  0.12700000000E+01 0. -1.
          4   -1    0    0  501    0  0.00000000000E+00 -0.00000000000E+00 -0.76584493018E+02  0.76595022494E+02  0.12700000000E+01 0. -1.
         25    2    1    2    0    0  0.00000000000E+00  0.00000000000E+00 -0.25596198246E+02  0.12759913119E+03  0.12500549154E+03 0.  0.
    9000005    1    3    3    0    0  0.16557139941E+02  0.57704678413E+02 -0.30525778397E+02  0.67355712011E+02  0.10000000000E+01 0.  0.
    9000005    1    3    3    0    0 -0.16557139941E+02 -0.57704678413E+02  0.49295801501E+01  0.60243419178E+02  0.10000000000E+01 0.  0.
<mgrwt>
<rscale>  0 0.12500549E+03</rscale>
<asrwt>0</asrwt>
<pdfrwt beam="2">  1        4 0.11784256E-01 0.12500549E+03</pdfrwt>
<pdfrwt beam="1">  1       -4 0.78463794E-02 0.12500549E+03</pdfrwt>
<totfact> 0.10394866E+04</totfact>
</mgrwt>
</event>
<event>
 5    1  0.3179758E-002  0.1249970E+03  0.7818608E-02  0.1235074E+00
         -4   -1    0    0    0  501 -0.00000000000E+00  0.00000000000E+00  0.25238154415E+01  0.28253396933E+01  0.12700000000E+01 0.  1.
          4   -1    0    0  501    0  0.00000000000E+00 -0.00000000000E+00 -0.14601386030E+04  0.14601391553E+04  0.12700000000E+01 0.  1.
         25    2    1    2    0    0  0.00000000000E+00  0.00000000000E+00 -0.14576147875E+04  0.14629644950E+04  0.12499697889E+03 0.  0.
    9000005    1    3    3    0    0  0.50504016264E+02 -0.35443847540E+02 -0.61286146137E+03  0.61596030133E+03  0.10000000000E+01 0.  0.
    9000005    1    3    3    0    0 -0.50504016264E+02  0.35443847540E+02 -0.84475332617E+03  0.84700419365E+03  0.10000000000E+01 0.  0.
<mgrwt>
<rscale>  0 0.12499698E+03</rscale>
<asrwt>0</asrwt>
<pdfrwt beam="2">  1        4 0.22465931E+00 0.12499698E+03</pdfrwt>
<pdfrwt beam="1">  1       -4 0.41151712E-03 0.12499698E+03</pdfrwt>
<totfact> 0.18670070E+03</totfact>
</mgrwt>
</event>
<event>
 5    1  0.3179758E-002  0.1250109E+03  0.7818608E-02  0.1235052E+00
         -4   -1    0    0    0  501 -0.00000000000E+00  0.00000000000E+00  0.21471624420E+02  0.21509150500E+02  0.12700000000E+01 0. -1.
          4   -1    0    0  501    0  0.00000000000E+00 -0.00000000000E+00 -0.18175924323E+03  0.18176368009E+03  0.12700000000E+01 0. -1.
         25    2    1    2    0    0  0.00000000000E+00  0.00000000000E+00 -0.16028761881E+03  0.20327283059E+03  0.12501089117E+03 0.  0.
    9000005    1    3    3    0    0 -0.48439866263E+02 -0.19246120296E+02 -0.13621504341E+03  0.14585051196E+03  0.10000000000E+01 0.  0.
    9000005    1    3    3    0    0  0.48439866263E+02  0.19246120296E+02 -0.24072575408E+02  0.57422318629E+02  0.10000000000E+01 0.  0.
<mgrwt>
<rscale>  0 0.12501089E+03</rscale>
<asrwt>0</asrwt>
<pdfrwt beam="2">  1        4 0.27966187E-01 0.12501089E+03</pdfrwt>
<pdfrwt beam="1">  1       -4 0.33065549E-02 0.12501089E+03</pdfrwt>
<totfact> 0.89564615E+03</totfact>
</mgrwt>
</event>
<event>
 5    1  0.3179758E-002  0.1249948E+03  0.7818608E-02  0.1235077E+00
         -4   -1    0    0    0  501 -0.00000000000E+00  0.00000000000E+00  0.85356997134E+02  0.85366444577E+02  0.12700000000E+01 0. -1.
          4   -1    0    0  501    0  0.00000000000E+00 -0.00000000000E+00 -0.45739091407E+02  0.45756719536E+02  0.12700000000E+01 0. -1.
         25    2    1    2    0    0  0.00000000000E+00  0.00000000000E+00  0.39617905727E+02  0.13112316411E+03  0.12499482274E+03 0.  0.
    9000005    1    3    3    0    0 -0.16862314403E+02 -0.68649549231E+01  0.82518249486E+02  0.84508737722E+02  0.10000000000E+01 0.  0.
    9000005    1    3    3    0    0  0.16862314403E+02  0.68649549231E+01 -0.42900343759E+02  0.46614426391E+02  0.10000000000E+01 0.  0.
<mgrwt>
<rscale>  0 0.12499482E+03</rscale>
<asrwt>0</asrwt>
<pdfrwt beam="2">  1        4 0.70388661E-02 0.12499482E+03</pdfrwt>
<pdfrwt beam="1">  1       -4 0.13133928E-01 0.12499482E+03</pdfrwt>
<totfact> 0.10321655E+04</totfact>
</mgrwt>
</event>
<event>
 5    1  0.3179758E-002  0.1250003E+03  0.7818608E-02  0.1235069E+00
         -4   -1    0    0    0  501 -0.00000000000E+00  0.00000000000E+00  0.12693908740E+02  0.12757281023E+02  0.12700000000E+01 0. -1.
          4   -1    0    0  501    0  0.00000000000E+00 -0.00000000000E+00 -0.30689705312E+03  0.30689968087E+03  0.12700000000E+01 0. -1.
         25    2    1    2    0    0  0.00000000000E+00  0.00000000000E+00 -0.29420314438E+03  0.31965696189E+03  0.12500033248E+03 0.  0.
    9000005    1    3    3    0    0  0.25080844672E+02  0.42644367215E+01 -0.11358171752E+01  0.25485766041E+02  0.10000000000E+01 0.  0.
    9000005    1    3    3    0    0 -0.25080844672E+02 -0.42644367215E+01 -0.29306732721E+03  0.29417119585E+03  0.10000000000E+01 0.  0.
<mgrwt>
<rscale>  0 0.12500033E+03</rscale>
<asrwt>0</asrwt>
<pdfrwt beam="2">  1        4 0.47220003E-01 0.12500033E+03</pdfrwt>
<pdfrwt beam="1">  1       -4 0.19579862E-02 0.12500033E+03</pdfrwt>
<totfact> 0.73196406E+03</totfact>
</mgrwt>
</event>
<event>
 5    1  0.3179758E-002  0.1249984E+03  0.7818608E-02  0.1235072E+00
         -4   -1    0    0    0  501 -0.00000000000E+00  0.00000000000E+00  0.16488970021E+03  0.16489459098E+03  0.12700000000E+01 0. -1.
          4   -1    0    0  501    0  0.00000000000E+00 -0.00000000000E+00 -0.23667215615E+02  0.23701265682E+02  0.12700000000E+01 0. -1.
         25    2    1    2    0    0  0.00000000000E+00  0.00000000000E+00  0.14122248459E+03  0.18859585666E+03  0.12499842797E+03 0.  0.
    9000005    1    3    3    0    0  0.43674666309E+01 -0.57494932264E+02  0.10696044967E+03  0.12151658238E+03  0.10000000000E+01 0.  0.
    9000005    1    3    3    0    0 -0.43674666309E+01  0.57494932264E+02  0.34262034927E+02  0.67079274282E+02  0.10000000000E+01 0.  0.
<mgrwt>
<rscale>  0 0.12499843E+03</rscale>
<asrwt>0</asrwt>
<pdfrwt beam="2">  1        4 0.36441055E-02 0.12499843E+03</pdfrwt>
<pdfrwt beam="1">  1       -4 0.25370642E-01 0.12499843E+03</pdfrwt>
<totfact> 0.92095449E+03</totfact>
</mgrwt>
</event>
<event>
 5    1  0.3179758E-002  0.1249982E+03  0.7818608E-02  0.1235072E+00
          4   -1    0    0  501    0  0.00000000000E+00  0.00000000000E+00  0.52971424157E+02  0.52986646216E+02  0.12700000000E+01 0. -1.
         -4   -1    0    0    0  501 -0.00000000000E+00 -0.00000000000E+00 -0.73709235764E+02  0.73720175915E+02  0.12700000000E+01 0. -1.
         25    2    1    2    0    0  0.00000000000E+00  0.00000000000E+00 -0.20737811607E+02  0.12670682213E+03  0.12499824776E+03 0.  0.
    9000005    1    3    3    0    0  0.41472697373E+02 -0.41019810621E+02  0.12354713271E+02  0.59634289052E+02  0.10000000000E+01 0.  0.
    9000005    1    3    3    0    0 -0.41472697373E+02  0.41019810621E+02 -0.33092524878E+02  0.67072533079E+02  0.10000000000E+01 0.  0.
<mgrwt>
<rscale>  0 0.12499825E+03</rscale>
<asrwt>0</asrwt>
<pdfrwt beam="1">  1        4 0.81514623E-02 0.12499825E+03</pdfrwt>
<pdfrwt beam="2">  1       -4 0.11341895E-01 0.12499825E+03</pdfrwt>
<totfact> 0.10415934E+04</totfact>
</mgrwt>
</event>
<event>
 5    1  0.3179758E-002  0.1250023E+03  0.7818608E-02  0.1235066E+00
          4   -1    0    0  501    0  0.00000000000E+00  0.00000000000E+00  0.20197891974E+03  0.20198291244E+03  0.12700000000E+01 0. -1.
         -4   -1    0    0    0  501 -0.00000000000E+00 -0.00000000000E+00 -0.19315554814E+02  0.19357261112E+02  0.12700000000E+01 0. -1.
         25    2    1    2    0    0  0.00000000000E+00  0.00000000000E+00  0.18266336492E+03  0.22134017355E+03  0.12500227015E+03 0.  0.
    9000005    1    3    3    0    0  0.32536531751E+02 -0.53145408912E+02  0.99699289652E+02  0.11757554484E+03  0.10000000000E+01 0.  0.
    9000005    1    3    3    0    0 -0.32536531751E+02  0.53145408912E+02  0.82964075273E+02  0.10376462872E+03  0.10000000000E+01 0.  0.
<mgrwt>
<rscale>  0 0.12500227E+03</rscale>
<asrwt>0</asrwt>
<pdfrwt beam="1">  1        4 0.31077195E-01 0.12500227E+03</pdfrwt>
<pdfrwt beam="2">  1       -4 0.29751392E-02 0.12500227E+03</pdfrwt>
<totfact> 0.86652334E+03</totfact>
</mgrwt>
</event>
<event>
 5    1  0.3179758E-002  0.1249954E+03  0.7818608E-02  0.1235076E+00
          4   -1    0    0  501    0  0.00000000000E+00  0.00000000000E+00  0.80425325237E+02  0.80435351926E+02  0.12700000000E+01 0. -1.
         -4   -1    0    0    0  501 -0.00000000000E+00 -0.00000000000E+00 -0.48544987113E+02  0.48561596697E+02  0.12700000000E+01 0. -1.
         25    2    1    2    0    0  0.00000000000E+00  0.00000000000E+00  0.31880338124E+02  0.12899694862E+03  0.12499542710E+03 0.  0.
    9000005    1    3    3    0    0 -0.56098594651E+01  0.59248157829E+02 -0.37263736439E+01  0.59638080032E+02  0.10000000000E+01 0.  0.
    9000005    1    3    3    0    0  0.56098594651E+01 -0.59248157829E+02  0.35606711768E+02  0.69358868592E+02  0.10000000000E+01 0.  0.
<mgrwt>
<rscale>  0 0.12499543E+03</rscale>
<asrwt>0</asrwt>
<pdfrwt beam="1">  1        4 0.12375176E-01 0.12499543E+03</pdfrwt>
<pdfrwt beam="2">  1       -4 0.74705086E-02 0.12499543E+03</pdfrwt>
<totfact> 0.10367082E+04</totfact>
</mgrwt>
</event>
<event>
 5    1  0.3179758E-002  0.1249992E+03  0.7818608E-02  0.1235071E+00
         -4   -1    0    0    0  501 -0.00000000000E+00  0.00000000000E+00  0.48191409348E+01  0.49836752853E+01  0.12700000000E+01 0. -1.
          4   -1    0    0  501    0  0.00000000000E+00 -0.00000000000E+00 -0.79678938636E+03  0.79679039849E+03  0.12700000000E+01 0. -1.
         25    2    1    2    0    0  0.00000000000E+00  0.00000000000E+00 -0.79197024543E+03  0.80177407377E+03  0.12499918292E+03 0.  0.
    9000005    1    3    3    0    0  0.20997845157E+02  0.19148941111E+02 -0.75297674726E+03  0.75351348586E+03  0.10000000000E+01 0.  0.
    9000005    1    3    3    0    0 -0.20997845157E+02 -0.19148941111E+02 -0.38993498164E+02  0.48260587916E+02  0.10000000000E+01 0.  0.
<mgrwt>
<rscale>  0 0.12499918E+03</rscale>
<asrwt>0</asrwt>
<pdfrwt beam="2">  1        4 0.12259561E+00 0.12499918E+03</pdfrwt>
<pdfrwt beam="1">  1       -4 0.75414127E-03 0.12499918E+03</pdfrwt>
<totfact> 0.38186358E+03</totfact>
</mgrwt>
</event>
<event>
 5    1  0.3179758E-002  0.1250027E+03  0.7818608E-02  0.1235065E+00
         -4   -1    0    0    0  501 -0.00000000000E+00  0.00000000000E+00  0.20329473316E+02  0.20369103694E+02  0.12700000000E+01 0.  1.
          4   -1    0    0  501    0  0.00000000000E+00 -0.00000000000E+00 -0.19192643944E+03  0.19193064126E+03  0.12700000000E+01 0.  1.
         25    2    1    2    0    0  0.00000000000E+00  0.00000000000E+00 -0.17159696612E+03  0.21229974496E+03  0.12500265168E+03 0.  0.
    9000005    1    3    3    0    0  0.75100864966E+01  0.37268620447E+02 -0.17003559577E+03  0.17423677940E+03  0.10000000000E+01 0.  0.
    9000005    1    3    3    0    0 -0.75100864966E+01 -0.37268620447E+02 -0.15613703543E+01  0.38062965552E+02  0.10000000000E+01 0.  0.
<mgrwt>
<rscale>  0 0.12500265E+03</rscale>
<asrwt>0</asrwt>
<pdfrwt beam="2">  1        4 0.29530515E-01 0.12500265E+03</pdfrwt>
<pdfrwt beam="1">  1       -4 0.31309831E-02 0.12500265E+03</pdfrwt>
<totfact> 0.88096453E+03</totfact>
</mgrwt>
</event>
<event>
 5    1  0.3179758E-002  0.1249993E+03  0.7818608E-02  0.1235070E+00
         -4   -1    0    0    0  501 -0.00000000000E+00  0.00000000000E+00  0.34372373930E+01  0.36643554543E+01  0.12700000000E+01 0. -1.
          4   -1    0    0  501    0  0.00000000000E+00 -0.00000000000E+00 -0.10998657028E+04  0.10998664361E+04  0.12700000000E+01 0. -1.
         25    2    1    2    0    0  0.00000000000E+00  0.00000000000E+00 -0.10964284654E+04  0.11035307915E+04  0.12499931196E+03 0.  0.
    9000005    1    3    3    0    0  0.14058583494E+02 -0.50322483197E+02 -0.85086009516E+03  0.85246342891E+03  0.10000000000E+01 0.  0.
    9000005    1    3    3    0    0 -0.14058583494E+02  0.50322483197E+02 -0.24556837028E+03  0.25106736261E+03  0.10000000000E+01 0.  0.
<mgrwt>
<rscale>  0 0.12499931E+03</rscale>
<asrwt>0</asrwt>
<pdfrwt beam="2">  1        4 0.16922736E+00 0.12499931E+03</pdfrwt>
<pdfrwt beam="1">  1       -4 0.54633365E-03 0.12499931E+03</pdfrwt>
<totfact> 0.27380746E+03</totfact>
</mgrwt>
</event>
<event>
 5    1  0.3179758E-002  0.1250018E+03  0.7818608E-02  0.1235066E+00
         -4   -1    0    0    0  501 -0.00000000000E+00  0.00000000000E+00  0.22611785364E+03  0.22612142012E+03  0.12700000000E+01 0.  1.
          4   -1    0    0  501    0  0.00000000000E+00 -0.00000000000E+00 -0.17248744271E+02  0.17295435205E+02  0.12700000000E+01 0.  1.
         25    2    1    2    0    0  0.00000000000E+00  0.00000000000E+00  0.20886910937E+03  0.24341685532E+03  0.12500184241E+03 0.  0.
    9000005    1    3    3    0    0  0.56919890513E+02  0.25750654828E+02  0.10142095059E+03  0.11912253934E+03  0.10000000000E+01 0.  0.
    9000005    1    3    3    0    0 -0.56919890513E+02 -0.25750654828E+02  0.10744815879E+03  0.12429431599E+03  0.10000000000E+01 0.  0.
<mgrwt>
<rscale>  0 0.12500184E+03</rscale>
<asrwt>0</asrwt>
<pdfrwt beam="2">  1        4 0.26575190E-02 0.12500184E+03</pdfrwt>
<pdfrwt beam="1">  1       -4 0.34791227E-01 0.12500184E+03</pdfrwt>
<totfact> 0.83287684E+03</totfact>
</mgrwt>
</event>
<event>
 5    1  0.3179758E-002  0.1250028E+03  0.7818608E-02  0.1235065E+00
         -4   -1    0    0    0  501 -0.00000000000E+00  0.00000000000E+00  0.14792304772E+03  0.14792849944E+03  0.12700000000E+01 0. -1.
          4   -1    0    0  501    0  0.00000000000E+00 -0.00000000000E+00 -0.26387263292E+02  0.26417807707E+02  0.12700000000E+01 0. -1.
         25    2    1    2    0    0  0.00000000000E+00  0.00000000000E+00  0.12153578443E+03  0.17434630714E+03  0.12500275165E+03 0.  0.
    9000005    1    3    3    0    0  0.40092857400E+01  0.27402330990E+02  0.13890394523E+03  0.14164133618E+03  0.10000000000E+01 0.  0.
    9000005    1    3    3    0    0 -0.40092857400E+01 -0.27402330990E+02 -0.17368160804E+02  0.32704970960E+02  0.10000000000E+01 0.  0.
<mgrwt>
<rscale>  0 0.12500275E+03</rscale>
<asrwt>0</asrwt>
<pdfrwt beam="2">  1        4 0.40623479E-02 0.12500275E+03</pdfrwt>
<pdfrwt beam="1">  1       -4 0.22760161E-01 0.12500275E+03</pdfrwt>
<totfact> 0.94638856E+03</totfact>
</mgrwt>
</event>
<event>
 5    1  0.3179758E-002  0.1249981E+03  0.7818608E-02  0.1235072E+00
          4   -1    0    0  501    0  0.00000000000E+00  0.00000000000E+00  0.26644251701E+02  0.26674501845E+02  0.12700000000E+01 0. -1.
         -4   -1    0    0    0  501 -0.00000000000E+00 -0.00000000000E+00 -0.14648700217E+03  0.14649250734E+03  0.12700000000E+01 0. -1.
         25    2    1    2    0    0  0.00000000000E+00  0.00000000000E+00 -0.11984275047E+03  0.17316700918E+03  0.12499811290E+03 0.  0.
    9000005    1    3    3    0    0 -0.62194900453E+01  0.37676598070E+02 -0.12844998735E+03  0.13400972856E+03  0.10000000000E+01 0.  0.
    9000005    1    3    3    0    0  0.62194900453E+01 -0.37676598070E+02  0.86072368828E+01  0.39157280617E+02  0.10000000000E+01 0.  0.
<mgrwt>
<rscale>  0 0.12499811E+03</rscale>
<asrwt>0</asrwt>
<pdfrwt beam="1">  1        4 0.41018661E-02 0.12499811E+03</pdfrwt>
<pdfrwt beam="2">  1       -4 0.22539212E-01 0.12499811E+03</pdfrwt>
<totfact> 0.94865642E+03</totfact>
</mgrwt>
</event>
<event>
 5    1  0.3179758E-002  0.1250011E+03  0.7818608E-02  0.1235068E+00
         -4   -1    0    0    0  501 -0.00000000000E+00  0.00000000000E+00  0.24382971028E+02  0.24416022939E+02  0.12700000000E+01 0. -1.
          4   -1    0    0  501    0  0.00000000000E+00 -0.00000000000E+00 -0.16006284103E+03  0.16006787928E+03  0.12700000000E+01 0. -1.
         25    2    1    2    0    0  0.00000000000E+00  0.00000000000E+00 -0.13567987000E+03  0.18448390222E+03  0.12500113222E+03 0.  0.
    9000005    1    3    3    0    0  0.13297673151E+02  0.25665421267E+02  0.13930831943E+02  0.32103115716E+02  0.10000000000E+01 0.  0.
    9000005    1    3    3    0    0 -0.13297673151E+02 -0.25665421267E+02 -0.14961070194E+03  0.15238078650E+03  0.10000000000E+01 0.  0.
<mgrwt>
<rscale>  0 0.12500113E+03</rscale>
<asrwt>0</asrwt>
<pdfrwt beam="2">  1        4 0.24627982E-01 0.12500113E+03</pdfrwt>
<pdfrwt beam="1">  1       -4 0.37541564E-02 0.12500113E+03</pdfrwt>
<totfact> 0.92813701E+03</totfact>
</mgrwt>
</event>
<event>
 5    1  0.3179758E-002  0.1249963E+03  0.7818608E-02  0.1235075E+00
         -4   -1    0    0    0  501 -0.00000000000E+00  0.00000000000E+00  0.13046160651E+03  0.13046778787E+03  0.12700000000E+01 0. -1.
          4   -1    0    0  501    0  0.00000000000E+00 -0.00000000000E+00 -0.29919623379E+02  0.29946565130E+02  0.12700000000E+01 0. -1.
         25    2    1    2    0    0  0.00000000000E+00  0.00000000000E+00  0.10054198313E+03  0.16041435300E+03  0.12499629706E+03 0.  0.
    9000005    1    3    3    0    0 -0.17889411539E+02  0.53794001365E+02  0.16530941418E+02  0.59060118966E+02  0.10000000000E+01 0.  0.
    9000005    1    3    3    0    0  0.17889411539E+02 -0.53794001365E+02  0.84011041712E+02  0.10135423404E+03  0.10000000000E+01 0.  0.
<mgrwt>
<rscale>  0 0.12499630E+03</rscale>
<asrwt>0</asrwt>
<pdfrwt beam="2">  1        4 0.46055668E-02 0.12499630E+03</pdfrwt>
<pdfrwt beam="1">  1       -4 0.20073565E-01 0.12499630E+03</pdfrwt>
<totfact> 0.97271055E+03</totfact>
</mgrwt>
</event>
<event>
 5    1  0.3179758E-002  0.1250017E+03  0.7818608E-02  0.1235067E+00
          4   -1    0    0  501    0  0.00000000000E+00  0.00000000000E+00  0.18049837882E+03  0.18050284667E+03  0.12700000000E+01 0. -1.
         -4   -1    0    0    0  501 -0.00000000000E+00 -0.00000000000E+00 -0.21618689545E+02  0.21655960787E+02  0.12700000000E+01 0. -1.
         25    2    1    2    0    0  0.00000000000E+00  0.00000000000E+00  0.15887968927E+03  0.20215880746E+03  0.12500171106E+03 0.  0.
    9000005    1    3    3    0    0  0.37536655521E+02  0.40814827806E+02  0.32833164795E+02  0.64450503388E+02  0.10000000000E+01 0.  0.
    9000005    1    3    3    0    0 -0.37536655521E+02 -0.40814827806E+02  0.12604652448E+03  0.13770830407E+03  0.10000000000E+01 0.  0.
<mgrwt>
<rscale>  0 0.12500171E+03</rscale>
<asrwt>0</asrwt>
<pdfrwt beam="1">  1        4 0.27772193E-01 0.12500171E+03</pdfrwt>
<pdfrwt beam="2">  1       -4 0.33291628E-02 0.12500171E+03</pdfrwt>
<totfact> 0.89769241E+03</totfact>
</mgrwt>
</event>
<event>
 4    1  0.3179758E-002  0.1250736E+03  0.7818608E-02  0.1234954E+00
          4   -1    0    0  501    0  0.00000000000E+00  0.00000000000E+00  0.89544331223E+01  0.90440462483E+01  0.12700000000E+01 0. -1.
         -4   -1    0    0    0  501 -0.00000000000E+00 -0.00000000000E+00 -0.43448520712E+03  0.43448706322E+03  0.12700000000E+01 0. -1.
    9000005    1    1    2    0    0  0.42115260767E+02  0.45877496257E+02 -0.19289058363E+03  0.20269735347E+03  0.10000000000E+01 0.  0.
    9000005    1    1    2    0    0 -0.42115260767E+02 -0.45877496257E+02 -0.23264019037E+03  0.24083375600E+03  0.10000000000E+01 0.  0.
<mgrwt>
<rscale>  0 0.12507360E+03</rscale>
<asrwt>0</asrwt>
<pdfrwt beam="1">  1        4 0.13846415E-02 0.12507360E+03</pdfrwt>
<pdfrwt beam="2">  1       -4 0.66850898E-01 0.12507360E+03</pdfrwt>
<totfact> 0.60430280E+03</totfact>
</mgrwt>
</event>
<event>
 5    1  0.3179758E-002  0.1249966E+03  0.7818608E-02  0.1235075E+00
          4   -1    0    0  501    0  0.00000000000E+00  0.00000000000E+00  0.29869058632E+02  0.29896045952E+02  0.12700000000E+01 0. -1.
         -4   -1    0    0    0  501 -0.00000000000E+00 -0.00000000000E+00 -0.13068288334E+03  0.13068905424E+03  0.12700000000E+01 0. -1.
         25    2    1    2    0    0  0.00000000000E+00  0.00000000000E+00 -0.10081382470E+03  0.16058510019E+03  0.12499658856E+03 0.  0.
    9000005    1    3    3    0    0 -0.14377607581E+02 -0.10021345498E+01 -0.12852478818E+03  0.12933422227E+03  0.10000000000E+01 0.  0.
    9000005    1    3    3    0    0  0.14377607581E+02  0.10021345498E+01  0.27710963480E+02  0.31250877914E+02  0.10000000000E+01 0.  0.
<mgrwt>
<rscale>  0 0.12499659E+03</rscale>
<asrwt>0</asrwt>
<pdfrwt beam="1">  1        4 0.45977905E-02 0.12499659E+03</pdfrwt>
<pdfrwt beam="2">  1       -4 0.20107609E-01 0.12499659E+03</pdfrwt>
<totfact> 0.97237556E+03</totfact>
</mgrwt>
</event>
<event>
 5    1  0.3179758E-002  0.1250018E+03  0.7818608E-02  0.1235066E+00
         -4   -1    0    0    0  501 -0.00000000000E+00  0.00000000000E+00  0.42318865657E+02  0.42337917881E+02  0.12700000000E+01 0. -1.
          4   -1    0    0  501    0  0.00000000000E+00 -0.00000000000E+00 -0.92263685251E+02  0.92272425546E+02  0.12700000000E+01 0. -1.
         25    2    1    2    0    0  0.00000000000E+00  0.00000000000E+00 -0.49944819594E+02  0.13461034343E+03  0.12500183820E+03 0.  0.
    9000005    1    3    3    0    0 -0.55559207004E+01 -0.37228935653E+02  0.28746985540E+02  0.47373527231E+02  0.10000000000E+01 0.  0.
    9000005    1    3    3    0    0  0.55559207004E+01  0.37228935653E+02 -0.78691805134E+02  0.87236816196E+02  0.10000000000E+01 0.  0.
<mgrwt>
<rscale>  0 0.12500184E+03</rscale>
<asrwt>0</asrwt>
<pdfrwt beam="2">  1        4 0.14196551E-01 0.12500184E+03</pdfrwt>
<pdfrwt beam="1">  1       -4 0.65127326E-02 0.12500184E+03</pdfrwt>
<totfact> 0.10245866E+04</totfact>
</mgrwt>
</event>
<event>
 5    1  0.3179758E-002  0.1250046E+03  0.7818608E-02  0.1235062E+00
         -4   -1    0    0    0  501 -0.00000000000E+00  0.00000000000E+00  0.31342573238E+03  0.31342830538E+03  0.12700000000E+01 0.  1.
          4   -1    0    0  501    0  0.00000000000E+00 -0.00000000000E+00 -0.12429017140E+02  0.12493733112E+02  0.12700000000E+01 0.  1.
         25    2    1    2    0    0  0.00000000000E+00  0.00000000000E+00  0.30099671524E+03  0.32592203850E+03  0.12500461029E+03 0.  0.
    9000005    1    3    3    0    0 -0.52742916482E+02 -0.19508449231E+02  0.22157452249E+03  0.22860153947E+03  0.10000000000E+01 0.  0.
    9000005    1    3    3    0    0  0.52742916482E+02  0.19508449231E+02  0.79422192748E+02  0.97320499029E+02  0.10000000000E+01 0.  0.
<mgrwt>
<rscale>  0 0.12500461E+03</rscale>
<asrwt>0</asrwt>
<pdfrwt beam="2">  1        4 0.19173328E-02 0.12500461E+03</pdfrwt>
<pdfrwt beam="1">  1       -4 0.48224513E-01 0.12500461E+03</pdfrwt>
<totfact> 0.72449871E+03</totfact>
</mgrwt>
</event>
<event>
 5    1  0.3179758E-002  0.1249957E+03  0.7818608E-02  0.1235076E+00
         -4   -1    0    0    0  501 -0.00000000000E+00  0.00000000000E+00  0.99718836934E+02  0.99726923844E+02  0.12700000000E+01 0.  1.
          4   -1    0    0  501    0  0.00000000000E+00 -0.00000000000E+00 -0.39149994392E+02  0.39170587957E+02  0.12700000000E+01 0.  1.
         25    2    1    2    0    0  0.00000000000E+00  0.00000000000E+00  0.60568842542E+02  0.13889751180E+03  0.12499573632E+03 0.  0.
    9000005    1    3    3    0    0 -0.47726932405E+02 -0.28950325975E+02  0.61497624421E+02  0.83059853481E+02  0.10000000000E+01 0.  0.
    9000005    1    3    3    0    0  0.47726932405E+02  0.28950325975E+02 -0.92878187904E+00  0.55837658320E+02  0.10000000000E+01 0.  0.
<mgrwt>
<rscale>  0 0.12499574E+03</rscale>
<asrwt>0</asrwt>
<pdfrwt beam="2">  1        4 0.60252823E-02 0.12499574E+03</pdfrwt>
<pdfrwt beam="1">  1       -4 0.15343566E-01 0.12499574E+03</pdfrwt>
<totfact> 0.10157462E+04</totfact>
</mgrwt>
</event>
<event>
 5    1  0.3179758E-002  0.1249928E+03  0.7818608E-02  0.1235081E+00
          4   -1    0    0  501    0  0.00000000000E+00  0.00000000000E+00  0.13698249215E+03  0.13698837927E+03  0.12700000000E+01 0. -1.
         -4   -1    0    0    0  501 -0.00000000000E+00 -0.00000000000E+00 -0.28492484301E+02  0.28520774211E+02  0.12700000000E+01 0. -1.
         25    2    1    2    0    0  0.00000000000E+00  0.00000000000E+00  0.10849000785E+03  0.16550915348E+03  0.12499279213E+03 0.  0.
    9000005    1    3    3    0    0 -0.56913647723E+02 -0.10823356468E+02  0.23233568315E+02  0.62426813462E+02  0.10000000000E+01 0.  0.
    9000005    1    3    3    0    0  0.56913647723E+02  0.10823356468E+02  0.85256439535E+02  0.10308234002E+03  0.10000000000E+01 0.  0.
<mgrwt>
<rscale>  0 0.12499279E+03</rscale>
<asrwt>0</asrwt>
<pdfrwt beam="1">  1        4 0.21076858E-01 0.12499279E+03</pdfrwt>
<pdfrwt beam="2">  1       -4 0.43860881E-02 0.12499279E+03</pdfrwt>
<totfact> 0.96306646E+03</totfact>
</mgrwt>
</event>
<event>
 5    1  0.3179758E-002  0.1250103E+03  0.7818608E-02  0.1235053E+00
          4   -1    0    0  501    0  0.00000000000E+00  0.00000000000E+00  0.17143494803E+03  0.17143965208E+03  0.12700000000E+01 0. -1.
         -4   -1    0    0    0  501 -0.00000000000E+00 -0.00000000000E+00 -0.22766661635E+02  0.22802056531E+02  0.12700000000E+01 0. -1.
         25    2    1    2    0    0  0.00000000000E+00  0.00000000000E+00  0.14866828640E+03  0.19424170861E+03  0.12501032752E+03 0.  0.
    9000005    1    3    3    0    0  0.38598523351E+02  0.99082417246E+01  0.14914105358E+03  0.15437640079E+03  0.10000000000E+01 0.  0.
    9000005    1    3    3    0    0 -0.38598523351E+02 -0.99082417246E+01 -0.47276718260E+00  0.39865307822E+02  0.10000000000E+01 0.  0.
<mgrwt>
<rscale>  0 0.12501033E+03</rscale>
<asrwt>0</asrwt>
<pdfrwt beam="1">  1        4 0.26377692E-01 0.12501033E+03</pdfrwt>
<pdfrwt beam="2">  1       -4 0.35056479E-02 0.12501033E+03</pdfrwt>
<totfact> 0.91093398E+03</totfact>
</mgrwt>
</event>
<event>
 5    1  0.3179758E-002  0.1250001E+03  0.7818608E-02  0.1235069E+00
          4   -1    0    0  501    0  0.00000000000E+00  0.00000000000E+00  0.61984099242E+01  0.63271783276E+01  0.12700000000E+01 0. -1.
         -4   -1    0    0    0  501 -0.00000000000E+00 -0.00000000000E+00 -0.62359441303E+03  0.62359570626E+03  0.12700000000E+01 0. -1.
         25    2    1    2    0    0  0.00000000000E+00  0.00000000000E+00 -0.61739600311E+03  0.62992288459E+03  0.12500006349E+03 0.  0.
    9000005    1    3    3    0    0 -0.57650312752E+02  0.12618607672E+02 -0.41227733457E+03  0.41648095805E+03  0.10000000000E+01 0.  0.
    9000005    1    3    3    0    0  0.57650312752E+02 -0.12618607672E+02 -0.20511866854E+03  0.21344192653E+03  0.10000000000E+01 0.  0.
<mgrwt>
<rscale>  0 0.12500006E+03</rscale>
<asrwt>0</asrwt>
<pdfrwt beam="1">  1        4 0.96360676E-03 0.12500006E+03</pdfrwt>
<pdfrwt beam="2">  1       -4 0.95947558E-01 0.12500006E+03</pdfrwt>
<totfact> 0.47031628E+03</totfact>
</mgrwt>
</event>
<event>
 5    1  0.3179758E-002  0.1250058E+03  0.7818608E-02  0.1235060E+00
         -4   -1    0    0    0  501 -0.00000000000E+00  0.00000000000E+00  0.41388173457E+02  0.41407653907E+02  0.12700000000E+01 0.  1.
          4   -1    0    0  501    0  0.00000000000E+00 -0.00000000000E+00 -0.94343660841E+02  0.94352208458E+02  0.12700000000E+01 0.  1.
         25    2    1    2    0    0  0.00000000000E+00  0.00000000000E+00 -0.52955487384E+02  0.13575986236E+03  0.12500582621E+03 0.  0.
    9000005    1    3    3    0    0  0.97802475925E+01  0.39403293619E+02 -0.78076561701E+02  0.88006944488E+02  0.10000000000E+01 0.  0.
    9000005    1    3    3    0    0 -0.97802475925E+01 -0.39403293619E+02  0.25121074317E+02  0.47752917877E+02  0.10000000000E+01 0.  0.
<mgrwt>
<rscale>  0 0.12500583E+03</rscale>
<asrwt>0</asrwt>
<pdfrwt beam="2">  1        4 0.14516565E-01 0.12500583E+03</pdfrwt>
<pdfrwt beam="1">  1       -4 0.63695673E-02 0.12500583E+03</pdfrwt>
<totfact> 0.10220737E+04</totfact>
</mgrwt>
</event>
<event>
 5    1  0.3179758E-002  0.1249953E+03  0.7818608E-02  0.1235077E+00
          4   -1    0    0  501    0  0.00000000000E+00  0.00000000000E+00  0.70859287584E+01  0.71988392376E+01  0.12700000000E+01 0. -1.
         -4   -1    0    0    0  501 -0.00000000000E+00 -0.00000000000E+00 -0.54675678291E+03  0.54675825788E+03  0.12700000000E+01 0. -1.
         25    2    1    2    0    0  0.00000000000E+00  0.00000000000E+00 -0.53967085415E+03  0.55395709712E+03  0.12499533841E+03 0.  0.
    9000005    1    3    3    0    0 -0.13378805375E+02  0.51556646606E+02 -0.12501053354E+03  0.13588860783E+03  0.10000000000E+01 0.  0.
    9000005    1    3    3    0    0  0.13378805375E+02 -0.51556646606E+02 -0.41466032061E+03  0.41806848928E+03  0.10000000000E+01 0.  0.
<mgrwt>
<rscale>  0 0.12499534E+03</rscale>
<asrwt>0</asrwt>
<pdfrwt beam="1">  1        4 0.10989422E-02 0.12499534E+03</pdfrwt>
<pdfrwt beam="2">  1       -4 0.84125195E-01 0.12499534E+03</pdfrwt>
<totfact> 0.51914553E+03</totfact>
</mgrwt>
</event>
<event>
 5    1  0.3179758E-002  0.1249993E+03  0.7818608E-02  0.1235070E+00
         -4   -1    0    0    0  501 -0.00000000000E+00  0.00000000000E+00  0.21006123110E+03  0.21006507019E+03  0.12700000000E+01 0. -1.
          4   -1    0    0  501    0  0.00000000000E+00 -0.00000000000E+00 -0.18569866405E+02  0.18613243627E+02  0.12700000000E+01 0. -1.
         25    2    1    2    0    0  0.00000000000E+00  0.00000000000E+00  0.19149136470E+03  0.22867831381E+03  0.12499931382E+03 0.  0.
    9000005    1    3    3    0    0 -0.11549411619E+02 -0.45783912884E+02  0.17063316042E+03  0.17704866852E+03  0.10000000000E+01 0.  0.
    9000005    1    3    3    0    0  0.11549411619E+02  0.45783912884E+02  0.20858204272E+02  0.51629645294E+02  0.10000000000E+01 0.  0.
<mgrwt>
<rscale>  0 0.12499931E+03</rscale>
<asrwt>0</asrwt>
<pdfrwt beam="2">  1        4 0.28605343E-02 0.12499931E+03</pdfrwt>
<pdfrwt beam="1">  1       -4 0.32320747E-01 0.12499931E+03</pdfrwt>
<totfact> 0.85514263E+03</totfact>
</mgrwt>
</event>
<event>
 5    1  0.3179758E-002  0.1250001E+03  0.7818608E-02  0.1235069E+00
         -4   -1    0    0    0  501 -0.00000000000E+00  0.00000000000E+00  0.37865442427E+02  0.37886734224E+02  0.12700000000E+01 0.  1.
          4   -1    0    0  501    0  0.00000000000E+00 -0.00000000000E+00 -0.10310735273E+03  0.10311517389E+03  0.12700000000E+01 0.  1.
         25    2    1    2    0    0  0.00000000000E+00  0.00000000000E+00 -0.65241910303E+02  0.14100190812E+03  0.12500012493E+03 0.  0.
    9000005    1    3    3    0    0 -0.13226581462E+02 -0.27206989781E+01 -0.10144750427E+03  0.10234715816E+03  0.10000000000E+01 0.  0.
    9000005    1    3    3    0    0  0.13226581462E+02  0.27206989781E+01  0.36205593967E+02  0.38654749961E+02  0.10000000000E+01 0.  0.
<mgrwt>
<rscale>  0 0.12500012E+03</rscale>
<asrwt>0</asrwt>
<pdfrwt beam="2">  1        4 0.15864909E-01 0.12500012E+03</pdfrwt>
<pdfrwt beam="1">  1       -4 0.58276922E-02 0.12500012E+03</pdfrwt>
<totfact> 0.10112834E+04</totfact>
</mgrwt>
</event>
<event>
 5    1  0.3179758E-002  0.1249962E+03  0.7818608E-02  0.1235075E+00
         -4   -1    0    0    0  501 -0.00000000000E+00  0.00000000000E+00  0.17966557561E+03  0.17967006417E+03  0.12700000000E+01 0.  1.
          4   -1    0    0  501    0  0.00000000000E+00 -0.00000000000E+00 -0.21717160136E+02  0.21754262672E+02  0.12700000000E+01 0.  1.
         25    2    1    2    0    0  0.00000000000E+00  0.00000000000E+00  0.15794841548E+03  0.20142432685E+03  0.12499622992E+03 0.  0.
    9000005    1    3    3    0    0 -0.27752647380E+01  0.62179630276E+02  0.70001223958E+02  0.93675930053E+02  0.10000000000E+01 0.  0.
    9000005    1    3    3    0    0  0.27752647380E+01 -0.62179630276E+02  0.87947191517E+02  0.10774839679E+03  0.10000000000E+01 0.  0.
<mgrwt>
<rscale>  0 0.12499623E+03</rscale>
<asrwt>0</asrwt>
<pdfrwt beam="2">  1        4 0.33443009E-02 0.12499623E+03</pdfrwt>
<pdfrwt beam="1">  1       -4 0.27644057E-01 0.12499623E+03</pdfrwt>
<totfact> 0.89903420E+03</totfact>
</mgrwt>
</event>
<event>
 5    1  0.3179758E-002  0.1250035E+03  0.7818608E-02  0.1235064E+00
         -4   -1    0    0    0  501 -0.00000000000E+00  0.00000000000E+00  0.22968102239E+02  0.23003187180E+02  0.12700000000E+01 0.  1.
          4   -1    0    0  501    0  0.00000000000E+00 -0.00000000000E+00 -0.16991514851E+03  0.16991989463E+03  0.12700000000E+01 0.  1.
         25    2    1    2    0    0  0.00000000000E+00  0.00000000000E+00 -0.14694704627E+03  0.19292308181E+03  0.12500352431E+03 0.  0.
    9000005    1    3    3    0    0 -0.40780191000E+02  0.45864436717E+02 -0.91662683341E+02  0.11031599182E+03  0.10000000000E+01 0.  0.
    9000005    1    3    3    0    0  0.40780191000E+02 -0.45864436717E+02 -0.55284362927E+02  0.82607089996E+02  0.10000000000E+01 0.  0.
<mgrwt>
<rscale>  0 0.12500352E+03</rscale>
<asrwt>0</asrwt>
<pdfrwt beam="2">  1        4 0.26143855E-01 0.12500352E+03</pdfrwt>
<pdfrwt beam="1">  1       -4 0.35366182E-02 0.12500352E+03</pdfrwt>
<totfact> 0.91333973E+03</totfact>
</mgrwt>
</event>
<event>
 5    1  0.3179758E-002  0.1250002E+03  0.7818608E-02  0.1235069E+00
         -4   -1    0    0    0  501 -0.00000000000E+00  0.00000000000E+00  0.20475224031E+03  0.20475617893E+03  0.12700000000E+01 0. -1.
          4   -1    0    0  501    0  0.00000000000E+00 -0.00000000000E+00 -0.19052737714E+02  0.19095018051E+02  0.12700000000E+01 0. -1.
         25    2    1    2    0    0  0.00000000000E+00  0.00000000000E+00  0.18569950259E+03  0.22385119698E+03  0.12500021251E+03 0.  0.
    9000005    1    3    3    0    0  0.29836081010E+02 -0.20101919591E+02  0.18435601153E+03  0.18783614638E+03  0.10000000000E+01 0.  0.
    9000005    1    3    3    0    0 -0.29836081010E+02  0.20101919591E+02  0.13434910615E+01  0.36015050597E+02  0.10000000000E+01 0.  0.
<mgrwt>
<rscale>  0 0.12500021E+03</rscale>
<asrwt>0</asrwt>
<pdfrwt beam="2">  1        4 0.29347459E-02 0.12500021E+03</pdfrwt>
<pdfrwt beam="1">  1       -4 0.31503898E-01 0.12500021E+03</pdfrwt>
<totfact> 0.86262184E+03</totfact>
</mgrwt>
</event>
<event>
 5    1  0.3179758E-002  0.1249940E+03  0.7818608E-02  0.1235079E+00
         -4   -1    0    0    0  501 -0.00000000000E+00  0.00000000000E+00  0.39488707213E+02  0.39509124229E+02  0.12700000000E+01 0. -1.
          4   -1    0    0  501    0  0.00000000000E+00 -0.00000000000E+00 -0.98861199491E+02  0.98869356551E+02  0.12700000000E+01 0. -1.
         25    2    1    2    0    0  0.00000000000E+00  0.00000000000E+00 -0.59372492278E+02  0.13837848078E+03  0.12499404427E+03 0.  0.
    9000005    1    3    3    0    0  0.47823131875E+02 -0.34325320941E+02 -0.52897958434E+02  0.79148427694E+02  0.10000000000E+01 0.  0.
    9000005    1    3    3    0    0 -0.47823131875E+02  0.34325320941E+02 -0.64745338448E+01  0.59230053086E+02  0.10000000000E+01 0.  0.
<mgrwt>
<rscale>  0 0.12499404E+03</rscale>
<asrwt>0</asrwt>
<pdfrwt beam="2">  1        4 0.15211613E-01 0.12499404E+03</pdfrwt>
<pdfrwt beam="1">  1       -4 0.60773838E-02 0.12499404E+03</pdfrwt>
<totfact> 0.10168668E+04</totfact>
</mgrwt>
</event>
<event>
 5    1  0.3179758E-002  0.1250000E+03  0.7818608E-02  0.1235069E+00
         -4   -1    0    0    0  501 -0.00000000000E+00  0.00000000000E+00  0.60881071014E+01  0.62191597566E+01  0.12700000000E+01 0. -1.
          4   -1    0    0  501    0  0.00000000000E+00 -0.00000000000E+00 -0.63465553209E+03  0.63465680278E+03  0.12700000000E+01 0. -1.
         25    2    1    2    0    0  0.00000000000E+00  0.00000000000E+00 -0.62856742499E+03  0.64087596254E+03  0.12499996639E+03 0.  0.
    9000005    1    3    3    0    0 -0.17297266696E+02  0.52315253487E+02 -0.16313110962E+03  0.17218838552E+03  0.10000000000E+01 0.  0.
    9000005    1    3    3    0    0  0.17297266696E+02 -0.52315253487E+02 -0.46543631537E+03  0.46868757702E+03  0.10000000000E+01 0.  0.
<mgrwt>
<rscale>  0 0.12499997E+03</rscale>
<asrwt>0</asrwt>
<pdfrwt beam="2">  1        4 0.97649440E-01 0.12499997E+03</pdfrwt>
<pdfrwt beam="1">  1       -4 0.94681108E-03 0.12499997E+03</pdfrwt>
<totfact> 0.46385026E+03</totfact>
</mgrwt>
</event>
<event>
 5    1  0.3179758E-002  0.1250021E+03  0.7818608E-02  0.1235066E+00
          4   -1    0    0  501    0  0.00000000000E+00  0.00000000000E+00  0.53657641087E+02  0.53672668529E+02  0.12700000000E+01 0. -1.
         -4   -1    0    0    0  501 -0.00000000000E+00 -0.00000000000E+00 -0.72771153961E+02  0.72782235118E+02  0.12700000000E+01 0. -1.
         25    2    1    2    0    0  0.00000000000E+00  0.00000000000E+00 -0.19113512874E+02  0.12645490365E+03  0.12500206511E+03 0.  0.
    9000005    1    3    3    0    0 -0.55765450818E+01 -0.58555968775E+02  0.11794943821E+02  0.60000166950E+02  0.10000000000E+01 0.  0.
    9000005    1    3    3    0    0  0.55765450818E+01  0.58555968775E+02 -0.30908456695E+02  0.66454736697E+02  0.10000000000E+01 0.  0.
<mgrwt>
<rscale>  0 0.12500207E+03</rscale>
<asrwt>0</asrwt>
<pdfrwt beam="1">  1        4 0.82570301E-02 0.12500207E+03</pdfrwt>
<pdfrwt beam="2">  1       -4 0.11197570E-01 0.12500207E+03</pdfrwt>
<totfact> 0.10420526E+04</totfact>
</mgrwt>
</event>
<event>
 5    1  0.3179758E-002  0.1250008E+03  0.7818608E-02  0.1235068E+00
         -4   -1    0    0    0  501 -0.00000000000E+00  0.00000000000E+00  0.77015820951E+02  0.77026291464E+02  0.12700000000E+01 0.  1.
          4   -1    0    0  501    0  0.00000000000E+00 -0.00000000000E+00 -0.50698911087E+02  0.50714815246E+02  0.12700000000E+01 0.  1.
         25    2    1    2    0    0  0.00000000000E+00  0.00000000000E+00  0.26316909864E+02  0.12774110671E+03  0.12500084239E+03 0.  0.
    9000005    1    3    3    0    0  0.14173182939E+01  0.43694232690E+02 -0.32475915182E+02  0.54469072219E+02  0.10000000000E+01 0.  0.
    9000005    1    3    3    0    0 -0.14173182939E+01 -0.43694232690E+02  0.58792825046E+02  0.73272034491E+02  0.10000000000E+01 0.  0.
<mgrwt>
<rscale>  0 0.12500084E+03</rscale>
<asrwt>0</asrwt>
<pdfrwt beam="2">  1        4 0.78018613E-02 0.12500084E+03</pdfrwt>
<pdfrwt beam="1">  1       -4 0.11850617E-01 0.12500084E+03</pdfrwt>
<totfact> 0.10392885E+04</totfact>
</mgrwt>
</event>
<event>
 5    1  0.3179758E-002  0.1249980E+03  0.7818608E-02  0.1235072E+00
          4   -1    0    0  501    0  0.00000000000E+00  0.00000000000E+00  0.56910721614E+02  0.56924890291E+02  0.12700000000E+01 0. -1.
         -4   -1    0    0    0  501 -0.00000000000E+00 -0.00000000000E+00 -0.68607428098E+02  0.68619181649E+02  0.12700000000E+01 0. -1.
         25    2    1    2    0    0  0.00000000000E+00  0.00000000000E+00 -0.11696706484E+02  0.12554407194E+03  0.12499800421E+03 0.  0.
    9000005    1    3    3    0    0  0.40906711047E+02 -0.37183590995E+02 -0.35115778944E+02  0.65498827309E+02  0.10000000000E+01 0.  0.
    9000005    1    3    3    0    0 -0.40906711047E+02  0.37183590995E+02  0.23419072460E+02  0.60045244631E+02  0.10000000000E+01 0.  0.
<mgrwt>
<rscale>  0 0.12499800E+03</rscale>
<asrwt>0</asrwt>
<pdfrwt beam="1">  1        4 0.87574896E-02 0.12499800E+03</pdfrwt>
<pdfrwt beam="2">  1       -4 0.10556983E-01 0.12499800E+03</pdfrwt>
<totfact> 0.10441451E+04</totfact>
</mgrwt>
</event>
<event>
 5    1  0.3179758E-002  0.1250004E+03  0.7818608E-02  0.1235069E+00
          4   -1    0    0  501    0  0.00000000000E+00  0.00000000000E+00  0.20310042564E+03  0.20310439630E+03  0.12700000000E+01 0.  1.
         -4   -1    0    0    0  501 -0.00000000000E+00 -0.00000000000E+00 -0.19208092428E+02  0.19250031551E+02  0.12700000000E+01 0.  1.
         25    2    1    2    0    0  0.00000000000E+00  0.00000000000E+00  0.18389233321E+03  0.22235442785E+03  0.12500040548E+03 0.  0.
    9000005    1    3    3    0    0  0.53701656353E+02  0.16990476379E+02  0.14009731957E+03  0.15099934813E+03  0.10000000000E+01 0.  0.
    9000005    1    3    3    0    0 -0.53701656353E+02 -0.16990476379E+02  0.43795013640E+02  0.71355079723E+02  0.10000000000E+01 0.  0.
<mgrwt>
<rscale>  0 0.12500041E+03</rscale>
<asrwt>0</asrwt>
<pdfrwt beam="1">  1        4 0.31249751E-01 0.12500041E+03</pdfrwt>
<pdfrwt beam="2">  1       -4 0.29586227E-02 0.12500041E+03</pdfrwt>
<totfact> 0.86496374E+03</totfact>
</mgrwt>
</event>
<event>
 5    1  0.3179758E-002  0.1249990E+03  0.7818608E-02  0.1235071E+00
          4   -1    0    0  501    0  0.00000000000E+00  0.00000000000E+00  0.52784966680E+01  0.54291276531E+01  0.12700000000E+01 0. -1.
         -4   -1    0    0    0  501 -0.00000000000E+00 -0.00000000000E+00 -0.72945784556E+03  0.72945895111E+03  0.12700000000E+01 0. -1.
         25    2    1    2    0    0  0.00000000000E+00  0.00000000000E+00 -0.72417934889E+03  0.73488807876E+03  0.12499903576E+03 0.  0.
    9000005    1    3    3    0    0  0.52583714891E+02 -0.31366886292E+02 -0.28859768753E+03  0.29502297177E+03  0.10000000000E+01 0.  0.
    9000005    1    3    3    0    0 -0.52583714891E+02  0.31366886292E+02 -0.43558166136E+03  0.43986510699E+03  0.10000000000E+01 0.  0.
<mgrwt>
<rscale>  0 0.12499904E+03</rscale>
<asrwt>0</asrwt>
<pdfrwt beam="1">  1        4 0.82374903E-03 0.12499904E+03</pdfrwt>
<pdfrwt beam="2">  1       -4 0.11223588E+00 0.12499904E+03</pdfrwt>
<totfact> 0.41308476E+03</totfact>
</mgrwt>
</event>
<event>
 5    1  0.3179758E-002  0.1250019E+03  0.7818608E-02  0.1235066E+00
         -4   -1    0    0    0  501 -0.00000000000E+00  0.00000000000E+00  0.11577117349E+03  0.11577813918E+03  0.12700000000E+01 0. -1.
          4   -1    0    0  501    0  0.00000000000E+00 -0.00000000000E+00 -0.33722238036E+02  0.33746144049E+02  0.12700000000E+01 0. -1.
         25    2    1    2    0    0  0.00000000000E+00  0.00000000000E+00  0.82048935455E+02  0.14952428323E+03  0.12500193385E+03 0.  0.
    9000005    1    3    3    0    0 -0.48604614902E+02  0.74514451254E+01 -0.51088266748E+01  0.49447272262E+02  0.10000000000E+01 0.  0.
    9000005    1    3    3    0    0  0.48604614902E+02 -0.74514451254E+01  0.87157762130E+02  0.10007701097E+03  0.10000000000E+01 0.  0.
<mgrwt>
<rscale>  0 0.12500193E+03</rscale>
<asrwt>0</asrwt>
<pdfrwt beam="2">  1        4 0.51904114E-02 0.12500193E+03</pdfrwt>
<pdfrwt beam="1">  1       -4 0.17813324E-01 0.12500193E+03</pdfrwt>
<totfact> 0.99394283E+03</totfact>
</mgrwt>
</event>
<event>
 5    1  0.3179758E-002  0.1249981E+03  0.7818608E-02  0.1235072E+00
          4   -1    0    0  501    0  0.00000000000E+00  0.00000000000E+00  0.32506094372E+02  0.32530894106E+02  0.12700000000E+01 0. -1.
         -4   -1    0    0    0  501 -0.00000000000E+00 -0.00000000000E+00 -0.12009209825E+03  0.12009881333E+03  0.12700000000E+01 0. -1.
         25    2    1    2    0    0  0.00000000000E+00  0.00000000000E+00 -0.87586003880E+02  0.15262970743E+03  0.12499807805E+03 0.  0.
    9000005    1    3    3    0    0 -0.54306098886E+02 -0.30462857742E+02 -0.37332724689E+02  0.72607647054E+02  0.10000000000E+01 0.  0.
    9000005    1    3    3    0    0  0.54306098886E+02  0.30462857742E+02 -0.50253279191E+02  0.80022060380E+02  0.10000000000E+01 0.  0.
<mgrwt>
<rscale>  0 0.12499808E+03</rscale>
<asrwt>0</asrwt>
<pdfrwt beam="1">  1        4 0.50033619E-02 0.12499808E+03</pdfrwt>
<pdfrwt beam="2">  1       -4 0.18478131E-01 0.12499808E+03</pdfrwt>
<totfact> 0.98786337E+03</totfact>
</mgrwt>
</event>
<event>
 5    1  0.3179758E-002  0.1249742E+03  0.7818608E-02  0.1235110E+00
         -4   -1    0    0    0  501 -0.00000000000E+00  0.00000000000E+00  0.61570099198E+02  0.61583195884E+02  0.12700000000E+01 0. -1.
          4   -1    0    0  501    0  0.00000000000E+00 -0.00000000000E+00 -0.63391505989E+02  0.63404226449E+02  0.12700000000E+01 0. -1.
         25    2    1    2    0    0  0.00000000000E+00  0.00000000000E+00 -0.18214067907E+01  0.12498742233E+03  0.12497415020E+03 0.  0.
    9000005    1    3    3    0    0  0.28195981681E+02 -0.44421613623E+02 -0.34609109470E+02  0.62984788624E+02  0.10000000000E+01 0.  0.
    9000005    1    3    3    0    0 -0.28195981681E+02  0.44421613623E+02  0.32787702679E+02  0.62002633708E+02  0.10000000000E+01 0.  0.
<mgrwt>
<rscale>  0 0.12497415E+03</rscale>
<asrwt>0</asrwt>
<pdfrwt beam="2">  1        4 0.97545253E-02 0.12497415E+03</pdfrwt>
<pdfrwt beam="1">  1       -4 0.94743089E-02 0.12497415E+03</pdfrwt>
<totfact> 0.10459245E+04</totfact>
</mgrwt>
</event>
<event>
 5    1  0.3179758E-002  0.1250017E+03  0.7818608E-02  0.1235067E+00
         -4   -1    0    0    0  501 -0.00000000000E+00  0.00000000000E+00  0.53179369779E+01  0.54674814770E+01  0.12700000000E+01 0. -1.
          4   -1    0    0  501    0  0.00000000000E+00 -0.00000000000E+00 -0.72422679860E+03  0.72422791213E+03  0.12700000000E+01 0. -1.
         25    2    1    2    0    0  0.00000000000E+00  0.00000000000E+00 -0.71890886162E+03  0.72969539361E+03  0.12500166453E+03 0.  0.
    9000005    1    3    3    0    0  0.85383701819E+01 -0.51312629004E+02 -0.56162572210E+03  0.56403044367E+03  0.10000000000E+01 0.  0.
    9000005    1    3    3    0    0 -0.85383701819E+01  0.51312629004E+02 -0.15728313952E+03  0.16566494994E+03  0.10000000000E+01 0.  0.
<mgrwt>
<rscale>  0 0.12500166E+03</rscale>
<asrwt>0</asrwt>
<pdfrwt beam="2">  1        4 0.11143102E+00 0.12500166E+03</pdfrwt>
<pdfrwt beam="1">  1       -4 0.82973380E-03 0.12500166E+03</pdfrwt>
<totfact> 0.41563152E+03</totfact>
</mgrwt>
</event>
<event>
 5    1  0.3179758E-002  0.1249987E+03  0.7818608E-02  0.1235071E+00
          4   -1    0    0  501    0  0.00000000000E+00  0.00000000000E+00  0.12247829811E+03  0.12248488236E+03  0.12700000000E+01 0.  1.
         -4   -1    0    0    0  501 -0.00000000000E+00 -0.00000000000E+00 -0.31872665320E+02  0.31897957530E+02  0.12700000000E+01 0.  1.
         25    2    1    2    0    0  0.00000000000E+00  0.00000000000E+00  0.90605632789E+02  0.15438283989E+03  0.12499872224E+03 0.  0.
    9000005    1    3    3    0    0  0.20196597770E+02  0.38383454008E+02  0.10086718066E+03  0.10980154934E+03  0.10000000000E+01 0.  0.
    9000005    1    3    3    0    0 -0.20196597770E+02 -0.38383454008E+02 -0.10261547868E+02  0.44581290557E+02  0.10000000000E+01 0.  0.
<mgrwt>
<rscale>  0 0.12499872E+03</rscale>
<asrwt>0</asrwt>
<pdfrwt beam="1">  1        4 0.18845267E-01 0.12499872E+03</pdfrwt>
<pdfrwt beam="2">  1       -4 0.49059390E-02 0.12499872E+03</pdfrwt>
<totfact> 0.98439620E+03</totfact>
</mgrwt>
</event>
<event>
 5    1  0.3179758E-002  0.1249994E+03  0.7818608E-02  0.1235070E+00
          4   -1    0    0  501    0  0.00000000000E+00  0.00000000000E+00  0.23844849099E+03  0.23845187304E+03  0.12700000000E+01 0.  1.
         -4   -1    0    0    0  501 -0.00000000000E+00 -0.00000000000E+00 -0.16353669984E+02  0.16402908948E+02  0.12700000000E+01 0.  1.
         25    2    1    2    0    0  0.00000000000E+00  0.00000000000E+00  0.22209482101E+03  0.25485478199E+03  0.12499940154E+03 0.  0.
    9000005    1    3    3    0    0 -0.55101313568E+02  0.15088919451E+02  0.59412508743E+02  0.82429827382E+02  0.10000000000E+01 0.  0.
    9000005    1    3    3    0    0  0.55101313568E+02 -0.15088919451E+02  0.16268231227E+03  0.17242495461E+03  0.10000000000E+01 0.  0.
<mgrwt>
<rscale>  0 0.12499940E+03</rscale>
<asrwt>0</asrwt>
<pdfrwt beam="1">  1        4 0.36688430E-01 0.12499940E+03</pdfrwt>
<pdfrwt beam="2">  1       -4 0.25199971E-02 0.12499940E+03</pdfrwt>
<totfact> 0.81634673E+03</totfact>
</mgrwt>
</event>
<event>
 5    1  0.3179758E-002  0.1250085E+03  0.7818608E-02  0.1235056E+00
          4   -1    0    0  501    0  0.00000000000E+00  0.00000000000E+00  0.45988148120E+03  0.45988323480E+03  0.12700000000E+01 0.  1.
         -4   -1    0    0    0  501 -0.00000000000E+00 -0.00000000000E+00 -0.84459416127E+01  0.85408916235E+01  0.12700000000E+01 0.  1.
         25    2    1    2    0    0  0.00000000000E+00  0.00000000000E+00  0.45143553959E+03  0.46842412643E+03  0.12500846297E+03 0.  0.
    9000005    1    3    3    0    0 -0.29141615935E+02 -0.30481580836E+02  0.52884917951E+02  0.67647432296E+02  0.10000000000E+01 0.  0.
    9000005    1    3    3    0    0  0.29141615935E+02  0.30481580836E+02  0.39855062164E+03  0.40077669413E+03  0.10000000000E+01 0.  0.
<mgrwt>
<rscale>  0 0.12500846E+03</rscale>
<asrwt>0</asrwt>
<pdfrwt beam="1">  1        4 0.70758446E-01 0.12500846E+03</pdfrwt>
<pdfrwt beam="2">  1       -4 0.13068142E-02 0.12500846E+03</pdfrwt>
<totfact> 0.58389407E+03</totfact>
</mgrwt>
</event>
<event>
 5    1  0.3179758E-002  0.1249983E+03  0.7818608E-02  0.1235072E+00
          4   -1    0    0  501    0  0.00000000000E+00  0.00000000000E+00  0.99959961975E+02  0.99968029380E+02  0.12700000000E+01 0.  1.
         -4   -1    0    0    0  501 -0.00000000000E+00 -0.00000000000E+00 -0.39057123254E+02  0.39077765761E+02  0.12700000000E+01 0.  1.
         25    2    1    2    0    0  0.00000000000E+00  0.00000000000E+00  0.60902838721E+02  0.13904579514E+03  0.12499830952E+03 0.  0.
    9000005    1    3    3    0    0 -0.24553901433E+02  0.29683787843E+02 -0.24283205754E+02  0.45548824551E+02  0.10000000000E+01 0.  0.
    9000005    1    3    3    0    0  0.24553901433E+02 -0.29683787843E+02  0.85186044475E+02  0.93496970590E+02  0.10000000000E+01 0.  0.
<mgrwt>
<rscale>  0 0.12499831E+03</rscale>
<asrwt>0</asrwt>
<pdfrwt beam="1">  1        4 0.15380664E-01 0.12499831E+03</pdfrwt>
<pdfrwt beam="2">  1       -4 0.60109965E-02 0.12499831E+03</pdfrwt>
<totfact> 0.10153787E+04</totfact>
</mgrwt>
</event>
<event>
 5    1  0.3179758E-002  0.1250050E+03  0.7818608E-02  0.1235061E+00
          4   -1    0    0  501    0  0.00000000000E+00  0.00000000000E+00  0.43300794550E+02  0.43319414916E+02  0.12700000000E+01 0. -1.
         -4   -1    0    0    0  501 -0.00000000000E+00 -0.00000000000E+00 -0.90176717298E+02  0.90185659851E+02  0.12700000000E+01 0. -1.
         25    2    1    2    0    0  0.00000000000E+00  0.00000000000E+00 -0.46875922749E+02  0.13350507477E+03  0.12500501132E+03 0.  0.
    9000005    1    3    3    0    0  0.14763351129E+02  0.57976560196E+02 -0.42730777285E+02  0.73526576121E+02  0.10000000000E+01 0.  0.
    9000005    1    3    3    0    0 -0.14763351129E+02 -0.57976560196E+02 -0.41451454640E+01  0.59978498645E+02  0.10000000000E+01 0.  0.
<mgrwt>
<rscale>  0 0.12500501E+03</rscale>
<asrwt>0</asrwt>
<pdfrwt beam="1">  1        4 0.66637809E-02 0.12500501E+03</pdfrwt>
<pdfrwt beam="2">  1       -4 0.13875461E-01 0.12500501E+03</pdfrwt>
<totfact> 0.10268516E+04</totfact>
</mgrwt>
</event>
<event>
 5    1  0.3179758E-002  0.1250012E+03  0.7818608E-02  0.1235067E+00
          4   -1    0    0  501    0  0.00000000000E+00  0.00000000000E+00  0.15931013168E+02  0.15981554385E+02  0.12700000000E+01 0.  1.
         -4   -1    0    0    0  501 -0.00000000000E+00 -0.00000000000E+00 -0.24476198936E+03  0.24476528417E+03  0.12700000000E+01 0.  1.
         25    2    1    2    0    0  0.00000000000E+00  0.00000000000E+00 -0.22883097619E+03  0.26074683856E+03  0.12500119260E+03 0.  0.
    9000005    1    3    3    0    0  0.56350739488E+01 -0.45935489493E+02 -0.20201320461E+03  0.20724902434E+03  0.10000000000E+01 0.  0.
    9000005    1    3    3    0    0 -0.56350739488E+01  0.45935489493E+02 -0.26817771583E+02  0.53497814217E+02  0.10000000000E+01 0.  0.
<mgrwt>
<rscale>  0 0.12500119E+03</rscale>
<asrwt>0</asrwt>
<pdfrwt beam="1">  1        4 0.24550665E-02 0.12500119E+03</pdfrwt>
<pdfrwt beam="2">  1       -4 0.37659829E-01 0.12500119E+03</pdfrwt>
<totfact> 0.80799223E+03</totfact>
</mgrwt>
</event>
<event>
 5    1  0.3179758E-002  0.1249994E+03  0.7818608E-02  0.1235070E+00
         -4   -1    0    0    0  501 -0.00000000000E+00  0.00000000000E+00  0.36978338783E+01  0.39098433973E+01  0.12700000000E+01 0.  1.
          4   -1    0    0  501    0  0.00000000000E+00 -0.00000000000E+00 -0.10267003541E+04  0.10267011395E+04  0.12700000000E+01 0.  1.
         25    2    1    2    0    0  0.00000000000E+00  0.00000000000E+00 -0.10230025202E+04  0.10306109829E+04  0.12499936739E+03 0.  0.
    9000005    1    3    3    0    0  0.37123426399E+01  0.21156146262E+02 -0.99534913830E+03  0.99558137343E+03  0.10000000000E+01 0.  0.
    9000005    1    3    3    0    0 -0.37123426399E+01 -0.21156146262E+02 -0.27653381897E+02  0.35029609517E+02  0.10000000000E+01 0.  0.
<mgrwt>
<rscale>  0 0.12499937E+03</rscale>
<asrwt>0</asrwt>
<pdfrwt beam="2">  1        4 0.15797005E+00 0.12499937E+03</pdfrwt>
<pdfrwt beam="1">  1       -4 0.58526718E-03 0.12499937E+03</pdfrwt>
<totfact> 0.29608426E+03</totfact>
</mgrwt>
</event>
<event>
 5    1  0.3179758E-002  0.1250013E+03  0.7818608E-02  0.1235067E+00
          4   -1    0    0  501    0  0.00000000000E+00  0.00000000000E+00  0.87950551980E+01  0.88862757068E+01  0.12700000000E+01 0. -1.
         -4   -1    0    0    0  501 -0.00000000000E+00 -0.00000000000E+00 -0.44176709163E+03  0.44176891713E+03  0.12700000000E+01 0. -1.
         25    2    1    2    0    0  0.00000000000E+00  0.00000000000E+00 -0.43297203643E+03  0.45065519284E+03  0.12500127401E+03 0.  0.
    9000005    1    3    3    0    0 -0.46369148260E+02 -0.20512019411E+02 -0.84785524513E+02  0.98794868377E+02  0.10000000000E+01 0.  0.
    9000005    1    3    3    0    0  0.46369148260E+02  0.20512019411E+02 -0.34818651192E+03  0.35186032446E+03  0.10000000000E+01 0.  0.
<mgrwt>
<rscale>  0 0.12500127E+03</rscale>
<asrwt>0</asrwt>
<pdfrwt beam="1">  1        4 0.13602431E-02 0.12500127E+03</pdfrwt>
<pdfrwt beam="2">  1       -4 0.67971308E-01 0.12500127E+03</pdfrwt>
<totfact> 0.59905404E+03</totfact>
</mgrwt>
</event>
<event>
 5    1  0.3179758E-002  0.1249992E+03  0.7818608E-02  0.1235071E+00
         -4   -1    0    0    0  501 -0.00000000000E+00  0.00000000000E+00  0.34785811838E+02  0.34808987420E+02  0.12700000000E+01 0.  1.
          4   -1    0    0  501    0  0.00000000000E+00 -0.00000000000E+00 -0.11222870035E+03  0.11223588589E+03  0.12700000000E+01 0.  1.
         25    2    1    2    0    0  0.00000000000E+00  0.00000000000E+00 -0.77442888507E+02  0.14704487331E+03  0.12499917514E+03 0.  0.
    9000005    1    3    3    0    0 -0.34078670753E+02 -0.46259415281E+02 -0.98127455252E+01  0.58297335078E+02  0.10000000000E+01 0.  0.
    9000005    1    3    3    0    0  0.34078670753E+02  0.46259415281E+02 -0.67630142982E+02  0.88747538232E+02  0.10000000000E+01 0.  0.
<mgrwt>
<rscale>  0 0.12499918E+03</rscale>
<asrwt>0</asrwt>
<pdfrwt beam="2">  1        4 0.17268289E-01 0.12499918E+03</pdfrwt>
<pdfrwt beam="1">  1       -4 0.53539989E-02 0.12499918E+03</pdfrwt>
<totfact> 0.99897909E+03</totfact>
</mgrwt>
</event>
<event>
 5    1  0.3179758E-002  0.1250023E+03  0.7818608E-02  0.1235066E+00
          4   -1    0    0  501    0  0.00000000000E+00  0.00000000000E+00  0.43128919241E+02  0.43147613780E+02  0.12700000000E+01 0.  1.
         -4   -1    0    0    0  501 -0.00000000000E+00 -0.00000000000E+00 -0.90532092523E+02  0.90540999976E+02  0.12700000000E+01 0.  1.
         25    2    1    2    0    0  0.00000000000E+00  0.00000000000E+00 -0.47403173282E+02  0.13368861376E+03  0.12500233842E+03 0.  0.
    9000005    1    3    3    0    0 -0.10229683332E+02 -0.59701452377E+01 -0.89325926793E+02  0.90113318953E+02  0.10000000000E+01 0.  0.
    9000005    1    3    3    0    0  0.10229683332E+02  0.59701452377E+01  0.41922753511E+02  0.43575294803E+02  0.10000000000E+01 0.  0.
<mgrwt>
<rscale>  0 0.12500234E+03</rscale>
<asrwt>0</asrwt>
<pdfrwt beam="1">  1        4 0.66373416E-02 0.12500234E+03</pdfrwt>
<pdfrwt beam="2">  1       -4 0.13930137E-01 0.12500234E+03</pdfrwt>
<totfact> 0.10265245E+04</totfact>
</mgrwt>
</event>
<event>
 5    1  0.3179758E-002  0.1249953E+03  0.7818608E-02  0.1235077E+00
          4   -1    0    0  501    0  0.00000000000E+00  0.00000000000E+00  0.12483271310E+03  0.12483917318E+03  0.12700000000E+01 0. -1.
         -4   -1    0    0    0  501 -0.00000000000E+00 -0.00000000000E+00 -0.31269366396E+02  0.31295146186E+02  0.12700000000E+01 0. -1.
         25    2    1    2    0    0  0.00000000000E+00  0.00000000000E+00  0.93563346703E+02  0.15613431936E+03  0.12499530326E+03 0.  0.
    9000005    1    3    3    0    0 -0.13557578966E+02 -0.56552798743E+02  0.75346147733E+02  0.95184394579E+02  0.10000000000E+01 0.  0.
    9000005    1    3    3    0    0  0.13557578966E+02  0.56552798743E+02  0.18217198969E+02  0.60949924785E+02  0.10000000000E+01 0.  0.
<mgrwt>
<rscale>  0 0.12499530E+03</rscale>
<asrwt>0</asrwt>
<pdfrwt beam="1">  1        4 0.19207513E-01 0.12499530E+03</pdfrwt>
<pdfrwt beam="2">  1       -4 0.48131518E-02 0.12499530E+03</pdfrwt>
<totfact> 0.98103638E+03</totfact>
</mgrwt>
</event>
<event>
 5    1  0.3179758E-002  0.1250025E+03  0.7818608E-02  0.1235065E+00
          4   -1    0    0  501    0  0.00000000000E+00  0.00000000000E+00  0.80768160597E+02  0.80778144731E+02  0.12700000000E+01 0. -1.
         -4   -1    0    0    0  501 -0.00000000000E+00 -0.00000000000E+00 -0.48344353415E+02  0.48361031907E+02  0.12700000000E+01 0. -1.
         25    2    1    2    0    0  0.00000000000E+00  0.00000000000E+00  0.32423807182E+02  0.12913917664E+03  0.12500249466E+03 0.  0.
    9000005    1    3    3    0    0  0.49988400085E+02 -0.20915707780E+02 -0.15948640886E+02  0.56494832694E+02  0.10000000000E+01 0.  0.
    9000005    1    3    3    0    0 -0.49988400085E+02  0.20915707780E+02  0.48372448068E+02  0.72644343944E+02  0.10000000000E+01 0.  0.
<mgrwt>
<rscale>  0 0.12500249E+03</rscale>
<asrwt>0</asrwt>
<pdfrwt beam="1">  1        4 0.12427922E-01 0.12500249E+03</pdfrwt>
<pdfrwt beam="2">  1       -4 0.74396438E-02 0.12500249E+03</pdfrwt>
<totfact> 0.10362374E+04</totfact>
</mgrwt>
</event>
<event>
 5    1  0.3179758E-002  0.1249993E+03  0.7818608E-02  0.1235070E+00
         -4   -1    0    0    0  501 -0.00000000000E+00  0.00000000000E+00  0.22356815548E+02  0.22392858269E+02  0.12700000000E+01 0. -1.
          4   -1    0    0  501    0  0.00000000000E+00 -0.00000000000E+00 -0.17454195035E+03  0.17454657067E+03  0.12700000000E+01 0. -1.
         25    2    1    2    0    0  0.00000000000E+00  0.00000000000E+00 -0.15218513480E+03  0.19693942894E+03  0.12499929366E+03 0.  0.
    9000005    1    3    3    0    0  0.20379064185E+02  0.58791603769E+02 -0.85204346884E+02  0.10551085091E+03  0.10000000000E+01 0.  0.
    9000005    1    3    3    0    0 -0.20379064185E+02 -0.58791603769E+02 -0.66980787916E+02  0.91428578030E+02  0.10000000000E+01 0.  0.
<mgrwt>
<rscale>  0 0.12499929E+03</rscale>
<asrwt>0</asrwt>
<pdfrwt beam="2">  1        4 0.26855735E-01 0.12499929E+03</pdfrwt>
<pdfrwt beam="1">  1       -4 0.34426381E-02 0.12499929E+03</pdfrwt>
<totfact> 0.90655133E+03</totfact>
</mgrwt>
</event>
<event>
 5    1  0.3179758E-002  0.1250029E+03  0.7818608E-02  0.1235065E+00
         -4   -1    0    0    0  501 -0.00000000000E+00  0.00000000000E+00  0.93458918617E+02  0.93467547143E+02  0.12700000000E+01 0.  1.
          4   -1    0    0  501    0  0.00000000000E+00 -0.00000000000E+00 -0.41778137578E+02  0.41797436279E+02  0.12700000000E+01 0.  1.
         25    2    1    2    0    0  0.00000000000E+00  0.00000000000E+00  0.51680781038E+02  0.13526498342E+03  0.12500285041E+03 0.  0.
    9000005    1    3    3    0    0 -0.26558617760E+02 -0.53083823238E+02  0.46994609431E+02  0.75714898022E+02  0.10000000000E+01 0.  0.
    9000005    1    3    3    0    0  0.26558617760E+02  0.53083823238E+02  0.46861716075E+01  0.59550085401E+02  0.10000000000E+01 0.  0.
<mgrwt>
<rscale>  0 0.12500285E+03</rscale>
<asrwt>0</asrwt>
<pdfrwt beam="2">  1        4 0.64295541E-02 0.12500285E+03</pdfrwt>
<pdfrwt beam="1">  1       -4 0.14380443E-01 0.12500285E+03</pdfrwt>
<totfact> 0.10231831E+04</totfact>
</mgrwt>
</event>
<event>
 5    1  0.3179758E-002  0.1250004E+03  0.7818608E-02  0.1235069E+00
          4   -1    0    0  501    0  0.00000000000E+00  0.00000000000E+00  0.25259651358E+02  0.25291557617E+02  0.12700000000E+01 0. -1.
         -4   -1    0    0    0  501 -0.00000000000E+00 -0.00000000000E+00 -0.15451279561E+03  0.15451801483E+03  0.12700000000E+01 0. -1.
         25    2    1    2    0    0  0.00000000000E+00  0.00000000000E+00 -0.12925314425E+03  0.17980957245E+03  0.12500042818E+03 0.  0.
    9000005    1    3    3    0    0 -0.55469271253E+02  0.18795252227E+02 -0.95983116211E+02  0.11244492055E+03  0.10000000000E+01 0.  0.
    9000005    1    3    3    0    0  0.55469271253E+02 -0.18795252227E+02 -0.33270028041E+02  0.67364651899E+02  0.10000000000E+01 0.  0.
<mgrwt>
<rscale>  0 0.12500043E+03</rscale>
<asrwt>0</asrwt>
<pdfrwt beam="1">  1        4 0.38889561E-02 0.12500043E+03</pdfrwt>
<pdfrwt beam="2">  1       -4 0.23774055E-01 0.12500043E+03</pdfrwt>
<totfact> 0.93650393E+03</totfact>
</mgrwt>
</event>
<event>
 5    1  0.3179758E-002  0.1249992E+03  0.7818608E-02  0.1235070E+00
         -4   -1    0    0    0  501 -0.00000000000E+00  0.00000000000E+00  0.10604412771E+03  0.10605173229E+03  0.12700000000E+01 0. -1.
          4   -1    0    0  501    0  0.00000000000E+00 -0.00000000000E+00 -0.36815753856E+02  0.36837652368E+02  0.12700000000E+01 0. -1.
         25    2    1    2    0    0  0.00000000000E+00  0.00000000000E+00  0.69228373849E+02  0.14288938465E+03  0.12499923400E+03 0.  0.
    9000005    1    3    3    0    0  0.15592572049E+02 -0.13113022251E+02 -0.32918331804E+02  0.38725911538E+02  0.10000000000E+01 0.  0.
    9000005    1    3    3    0    0 -0.15592572049E+02  0.13113022251E+02  0.10214670565E+03  0.10416347312E+03  0.10000000000E+01 0.  0.
<mgrwt>
<rscale>  0 0.12499923E+03</rscale>
<asrwt>0</asrwt>
<pdfrwt beam="2">  1        4 0.56662315E-02 0.12499923E+03</pdfrwt>
<pdfrwt beam="1">  1       -4 0.16316751E-01 0.12499923E+03</pdfrwt>
<totfact> 0.10074223E+04</totfact>
</mgrwt>
</event>
<event>
 5    1  0.3179758E-002  0.1249991E+03  0.7818608E-02  0.1235071E+00
         -4   -1    0    0    0  501 -0.00000000000E+00  0.00000000000E+00  0.32145496727E+03  0.32145747601E+03  0.12700000000E+01 0.  1.
          4   -1    0    0  501    0  0.00000000000E+00 -0.00000000000E+00 -0.12115850978E+02  0.12182230704E+02  0.12700000000E+01 0.  1.
         25    2    1    2    0    0  0.00000000000E+00  0.00000000000E+00  0.30933911630E+03  0.33363970672E+03  0.12499906011E+03 0.  0.
    9000005    1    3    3    0    0 -0.27016965253E+02  0.52764928070E+02  0.20745759980E+03  0.21576308712E+03  0.10000000000E+01 0.  0.
    9000005    1    3    3    0    0  0.27016965253E+02 -0.52764928070E+02  0.10188151649E+03  0.11787661960E+03  0.10000000000E+01 0.  0.
<mgrwt>
<rscale>  0 0.12499906E+03</rscale>
<asrwt>0</asrwt>
<pdfrwt beam="2">  1        4 0.18692758E-02 0.12499906E+03</pdfrwt>
<pdfrwt beam="1">  1       -4 0.49459919E-01 0.12499906E+03</pdfrwt>
<totfact> 0.71564181E+03</totfact>
</mgrwt>
</event>
<event>
 5    1  0.3179758E-002  0.1249914E+03  0.7818608E-02  0.1235083E+00
          4   -1    0    0  501    0  0.00000000000E+00  0.00000000000E+00  0.13577132794E+03  0.13577726757E+03  0.12700000000E+01 0.  1.
         -4   -1    0    0    0  501 -0.00000000000E+00 -0.00000000000E+00 -0.28746236085E+02  0.28774276516E+02  0.12700000000E+01 0.  1.
         25    2    1    2    0    0  0.00000000000E+00  0.00000000000E+00  0.10702509185E+03  0.16455154409E+03  0.12499136121E+03 0.  0.
    9000005    1    3    3    0    0  0.62364243793E+02  0.32634099003E+01  0.56385223179E+02  0.84144174730E+02  0.10000000000E+01 0.  0.
    9000005    1    3    3    0    0 -0.62364243793E+02 -0.32634099003E+01  0.50639868672E+02  0.80407369359E+02  0.10000000000E+01 0.  0.
<mgrwt>
<rscale>  0 0.12499136E+03</rscale>
<asrwt>0</asrwt>
<pdfrwt beam="1">  1        4 0.20890511E-01 0.12499136E+03</pdfrwt>
<pdfrwt beam="2">  1       -4 0.44251117E-02 0.12499136E+03</pdfrwt>
<totfact> 0.96491115E+03</totfact>
</mgrwt>
</event>
<event>
 5    1  0.3179758E-002  0.1249969E+03  0.7818608E-02  0.1235074E+00
         -4   -1    0    0    0  501 -0.00000000000E+00  0.00000000000E+00  0.76976724017E+02  0.76987199848E+02  0.12700000000E+01 0.  1.
          4   -1    0    0  501    0  0.00000000000E+00 -0.00000000000E+00 -0.50721493308E+02  0.50737390388E+02  0.12700000000E+01 0.  1.
         25    2    1    2    0    0  0.00000000000E+00  0.00000000000E+00  0.26255230710E+02  0.12772459024E+03  0.12499693521E+03 0.  0.
    9000005    1    3    3    0    0 -0.54962887207E+02 -0.22461749527E+02  0.33036345957E+02  0.67954759334E+02  0.10000000000E+01 0.  0.
    9000005    1    3    3    0    0  0.54962887207E+02  0.22461749527E+02 -0.67811152478E+01  0.59769830901E+02  0.10000000000E+01 0.  0.
<mgrwt>
<rscale>  0 0.12499694E+03</rscale>
<asrwt>0</asrwt>
<pdfrwt beam="2">  1        4 0.78053354E-02 0.12499694E+03</pdfrwt>
<pdfrwt beam="1">  1       -4 0.11844602E-01 0.12499694E+03</pdfrwt>
<totfact> 0.10394159E+04</totfact>
</mgrwt>
</event>
<event>
 5    1  0.3179758E-002  0.1250007E+03  0.7818608E-02  0.1235068E+00
         -4   -1    0    0    0  501 -0.00000000000E+00  0.00000000000E+00  0.13009422850E+03  0.13010042732E+03  0.12700000000E+01 0. -1.
          4   -1    0    0  501    0  0.00000000000E+00 -0.00000000000E+00 -0.30006322689E+02  0.30033186666E+02  0.12700000000E+01 0. -1.
         25    2    1    2    0    0  0.00000000000E+00  0.00000000000E+00  0.10008790582E+03  0.16013361399E+03  0.12500074175E+03 0.  0.
    9000005    1    3    3    0    0 -0.38055033003E+02  0.70395730031E+01  0.11290158908E+03  0.11935455559E+03  0.10000000000E+01 0.  0.
    9000005    1    3    3    0    0  0.38055033003E+02 -0.70395730031E+01 -0.12813683262E+02  0.40779058396E+02  0.10000000000E+01 0.  0.
<mgrwt>
<rscale>  0 0.12500074E+03</rscale>
<asrwt>0</asrwt>
<pdfrwt beam="2">  1        4 0.46189008E-02 0.12500074E+03</pdfrwt>
<pdfrwt beam="1">  1       -4 0.20017039E-01 0.12500074E+03</pdfrwt>
<totfact> 0.97315409E+03</totfact>
</mgrwt>
</event>
<event>
 5    1  0.3179758E-002  0.1249989E+03  0.7818608E-02  0.1235071E+00
          4   -1    0    0  501    0  0.00000000000E+00  0.00000000000E+00  0.11253845562E+03  0.11254562139E+03  0.12700000000E+01 0. -1.
         -4   -1    0    0    0  501 -0.00000000000E+00 -0.00000000000E+00 -0.34689874886E+02  0.34713114519E+02  0.12700000000E+01 0. -1.
         25    2    1    2    0    0  0.00000000000E+00  0.00000000000E+00  0.77848580734E+02  0.14725873590E+03  0.12499893511E+03 0.  0.
    9000005    1    3    3    0    0 -0.76796219536E+01  0.22845154909E+02 -0.29000019604E+02  0.37721066173E+02  0.10000000000E+01 0.  0.
    9000005    1    3    3    0    0  0.76796219536E+01 -0.22845154909E+02  0.10684860034E+03  0.10953766973E+03  0.10000000000E+01 0.  0.
<mgrwt>
<rscale>  0 0.12499894E+03</rscale>
<asrwt>0</asrwt>
<pdfrwt beam="1">  1        4 0.17315947E-01 0.12499894E+03</pdfrwt>
<pdfrwt beam="2">  1       -4 0.53392427E-02 0.12499894E+03</pdfrwt>
<totfact> 0.99855355E+03</totfact>
</mgrwt>
</event>
<event>
 5    1  0.3179758E-002  0.1249976E+03  0.7818608E-02  0.1235073E+00
         -4   -1    0    0    0  501 -0.00000000000E+00  0.00000000000E+00  0.75520271741E+03  0.75520378526E+03  0.12700000000E+01 0. -1.
          4   -1    0    0  501    0  0.00000000000E+00 -0.00000000000E+00 -0.50932057605E+01  0.52491565912E+01  0.12700000000E+01 0. -1.
         25    2    1    2    0    0  0.00000000000E+00  0.00000000000E+00  0.75010951164E+03  0.76045294185E+03  0.12499758924E+03 0.  0.
    9000005    1    3    3    0    0 -0.61021196265E+02 -0.10543485941E+02  0.42608129212E+03  0.43055896110E+03  0.10000000000E+01 0.  0.
    9000005    1    3    3    0    0  0.61021196265E+02  0.10543485941E+02  0.32402821952E+03  0.32989398075E+03  0.10000000000E+01 0.  0.
<mgrwt>
<rscale>  0 0.12499759E+03</rscale>
<asrwt>0</asrwt>
<pdfrwt beam="2">  1        4 0.79564919E-03 0.12499759E+03</pdfrwt>
<pdfrwt beam="1">  1       -4 0.11619701E+00 0.12499759E+03</pdfrwt>
<totfact> 0.40081239E+03</totfact>
</mgrwt>
</event>
<event>
 5    1  0.3179758E-002  0.1250028E+03  0.7818608E-02  0.1235065E+00
          4   -1    0    0  501    0  0.00000000000E+00  0.00000000000E+00  0.13354002170E+03  0.13354606058E+03  0.12700000000E+01 0.  1.
         -4   -1    0    0    0  501 -0.00000000000E+00 -0.00000000000E+00 -0.29232350549E+02  0.29259925131E+02  0.12700000000E+01 0.  1.
         25    2    1    2    0    0  0.00000000000E+00  0.00000000000E+00  0.10430767115E+03  0.16280598571E+03  0.12500279485E+03 0.  0.
    9000005    1    3    3    0    0 -0.14666516235E+02 -0.28597431425E+02 -0.17650280783E+02  0.36680406136E+02  0.10000000000E+01 0.  0.
    9000005    1    3    3    0    0  0.14666516235E+02  0.28597431425E+02  0.12195795193E+03  0.12612557957E+03  0.10000000000E+01 0.  0.
<mgrwt>
<rscale>  0 0.12500279E+03</rscale>
<asrwt>0</asrwt>
<pdfrwt beam="1">  1        4 0.20547205E-01 0.12500279E+03</pdfrwt>
<pdfrwt beam="2">  1       -4 0.44998702E-02 0.12500279E+03</pdfrwt>
<totfact> 0.96798445E+03</totfact>
</mgrwt>
</event>
<event>
 5    1  0.3179758E-002  0.1250004E+03  0.7818608E-02  0.1235069E+00
         -4   -1    0    0    0  501 -0.00000000000E+00  0.00000000000E+00  0.59725864463E+02  0.59739365463E+02  0.12700000000E+01 0. -1.
          4   -1    0    0  501    0  0.00000000000E+00 -0.00000000000E+00 -0.65376362785E+02  0.65388697120E+02  0.12700000000E+01 0. -1.
         25    2    1    2    0    0  0.00000000000E+00  0.00000000000E+00 -0.56504983223E+01  0.12512806258E+03  0.12500041566E+03 0.  0.
    9000005    1    3    3    0    0 -0.16517704440E+02  0.25706194537E+02  0.51743104091E+02  0.60099848740E+02  0.10000000000E+01 0.  0.
    9000005    1    3    3    0    0  0.16517704440E+02 -0.25706194537E+02 -0.57393602414E+02  0.65028213843E+02  0.10000000000E+01 0.  0.
<mgrwt>
<rscale>  0 0.12500042E+03</rscale>
<asrwt>0</asrwt>
<pdfrwt beam="2">  1        4 0.10059889E-01 0.12500042E+03</pdfrwt>
<pdfrwt beam="1">  1       -4 0.91905819E-02 0.12500042E+03</pdfrwt>
<totfact> 0.10449984E+04</totfact>
</mgrwt>
</event>
<event>
 5    1  0.3179758E-002  0.1250015E+03  0.7818608E-02  0.1235067E+00
          4   -1    0    0  501    0  0.00000000000E+00  0.00000000000E+00  0.36936365000E+02  0.36958192048E+02  0.12700000000E+01 0. -1.
         -4   -1    0    0    0  501 -0.00000000000E+00 -0.00000000000E+00 -0.10570194745E+03  0.10570957665E+03  0.12700000000E+01 0. -1.
         25    2    1    2    0    0  0.00000000000E+00  0.00000000000E+00 -0.68765582453E+02  0.14266776870E+03  0.12500154757E+03 0.  0.
    9000005    1    3    3    0    0 -0.43468279538E+02 -0.22306156870E+02 -0.78854923650E+02  0.92769364254E+02  0.10000000000E+01 0.  0.
    9000005    1    3    3    0    0  0.43468279538E+02  0.22306156870E+02  0.10089341197E+02  0.49898404444E+02  0.10000000000E+01 0.  0.
<mgrwt>
<rscale>  0 0.12500155E+03</rscale>
<asrwt>0</asrwt>
<pdfrwt beam="1">  1        4 0.56847836E-02 0.12500155E+03</pdfrwt>
<pdfrwt beam="2">  1       -4 0.16264104E-01 0.12500155E+03</pdfrwt>
<totfact> 0.10078240E+04</totfact>
</mgrwt>
</event>
<event>
 5    1  0.3179758E-002  0.1249997E+03  0.7818608E-02  0.1235070E+00
         -4   -1    0    0    0  501 -0.00000000000E+00  0.00000000000E+00  0.49458868574E+01  0.51063388848E+01  0.12700000000E+01 0. -1.
          4   -1    0    0  501    0  0.00000000000E+00 -0.00000000000E+00 -0.77702638391E+03  0.77702742178E+03  0.12700000000E+01 0. -1.
         25    2    1    2    0    0  0.00000000000E+00  0.00000000000E+00 -0.77208049706E+03  0.78213376067E+03  0.12499970255E+03 0.  0.
    9000005    1    3    3    0    0  0.50174988121E+02  0.35685695241E+02 -0.45291591051E+03  0.45708294682E+03  0.10000000000E+01 0.  0.
    9000005    1    3    3    0    0 -0.50174988121E+02 -0.35685695241E+02 -0.31916458654E+03  0.32505081385E+03  0.10000000000E+01 0.  0.
<mgrwt>
<rscale>  0 0.12499970E+03</rscale>
<asrwt>0</asrwt>
<pdfrwt beam="2">  1        4 0.11955485E+00 0.12499970E+03</pdfrwt>
<pdfrwt beam="1">  1       -4 0.77332859E-03 0.12499970E+03</pdfrwt>
<totfact> 0.39075154E+03</totfact>
</mgrwt>
</event>
<event>
 5    1  0.3179758E-002  0.1250036E+03  0.7818608E-02  0.1235064E+00
         -4   -1    0    0    0  501 -0.00000000000E+00  0.00000000000E+00  0.80599834830E+02  0.80609839812E+02  0.12700000000E+01 0. -1.
          4   -1    0    0  501    0  0.00000000000E+00 -0.00000000000E+00 -0.48446221683E+02  0.48462865117E+02  0.12700000000E+01 0. -1.
         25    2    1    2    0    0  0.00000000000E+00  0.00000000000E+00  0.32153613147E+02  0.12907270493E+03  0.12500363322E+03 0.  0.
    9000005    1    3    3    0    0  0.38635316064E+02  0.41651932631E+02 -0.10807354913E+02  0.57839174090E+02  0.10000000000E+01 0.  0.
    9000005    1    3    3    0    0 -0.38635316064E+02 -0.41651932631E+02  0.42960968059E+02  0.71233530839E+02  0.10000000000E+01 0.  0.
<mgrwt>
<rscale>  0 0.12500363E+03</rscale>
<asrwt>0</asrwt>
<pdfrwt beam="2">  1        4 0.74553148E-02 0.12500363E+03</pdfrwt>
<pdfrwt beam="1">  1       -4 0.12402024E-01 0.12500363E+03</pdfrwt>
<totfact> 0.10363535E+04</totfact>
</mgrwt>
</event>
<event>
 5    1  0.3179758E-002  0.1250000E+03  0.7818608E-02  0.1235069E+00
          4   -1    0    0  501    0  0.00000000000E+00  0.00000000000E+00  0.36622570194E+01  0.38762129039E+01  0.12700000000E+01 0. -1.
         -4   -1    0    0    0  501 -0.00000000000E+00 -0.00000000000E+00 -0.10361373059E+04  0.10361380843E+04  0.12700000000E+01 0. -1.
         25    2    1    2    0    0  0.00000000000E+00  0.00000000000E+00 -0.10324750489E+04  0.10400142972E+04  0.12500004667E+03 0.  0.
    9000005    1    3    3    0    0 -0.12707087395E+02 -0.60979478654E+02 -0.47439966465E+03  0.47847257884E+03  0.10000000000E+01 0.  0.
    9000005    1    3    3    0    0  0.12707087395E+02  0.60979478654E+02 -0.55807538428E+03  0.56154171833E+03  0.10000000000E+01 0.  0.
<mgrwt>
<rscale>  0 0.12500005E+03</rscale>
<asrwt>0</asrwt>
<pdfrwt beam="1">  1        4 0.57994300E-03 0.12500005E+03</pdfrwt>
<pdfrwt beam="2">  1       -4 0.15942203E+00 0.12500005E+03</pdfrwt>
<totfact> 0.29308635E+03</totfact>
</mgrwt>
</event>
<event>
 5    1  0.3179758E-002  0.1250053E+03  0.7818608E-02  0.1235061E+00
         -4   -1    0    0    0  501 -0.00000000000E+00  0.00000000000E+00  0.78424760652E+01  0.79446416429E+01  0.12700000000E+01 0. -1.
          4   -1    0    0  501    0  0.00000000000E+00 -0.00000000000E+00 -0.49480478887E+03  0.49480641870E+03  0.12700000000E+01 0. -1.
         25    2    1    2    0    0  0.00000000000E+00  0.00000000000E+00 -0.48696231281E+03  0.50275106035E+03  0.12500533823E+03 0.  0.
    9000005    1    3    3    0    0 -0.52347533154E+01  0.59106375751E+02 -0.32235606540E+03  0.32777339611E+03  0.10000000000E+01 0.  0.
    9000005    1    3    3    0    0  0.52347533154E+01 -0.59106375751E+02 -0.16460624740E+03  0.17497766423E+03  0.10000000000E+01 0.  0.
<mgrwt>
<rscale>  0 0.12500534E+03</rscale>
<asrwt>0</asrwt>
<pdfrwt beam="2">  1        4 0.76131774E-01 0.12500534E+03</pdfrwt>
<pdfrwt beam="1">  1       -4 0.12145194E-02 0.12500534E+03</pdfrwt>
<totfact> 0.55645027E+03</totfact>
</mgrwt>
</event>
<event>
 5    1  0.3179758E-002  0.1249601E+03  0.7818608E-02  0.1235132E+00
          4   -1    0    0  501    0  0.00000000000E+00  0.00000000000E+00  0.13430781823E+03  0.13431382258E+03  0.12700000000E+01 0.  1.
         -4   -1    0    0    0  501 -0.00000000000E+00 -0.00000000000E+00 -0.29045205756E+02  0.29072957837E+02  0.12700000000E+01 0.  1.
         25    2    1    2    0    0  0.00000000000E+00  0.00000000000E+00  0.10526261247E+03  0.16338678042E+03  0.12496008335E+03 0.  0.
    9000005    1    3    3    0    0  0.46056661700E+00  0.58238133619E+02  0.23078552690E+02  0.62653905890E+02  0.10000000000E+01 0.  0.
    9000005    1    3    3    0    0 -0.46056661700E+00 -0.58238133619E+02  0.82184059779E+02  0.10073287453E+03  0.10000000000E+01 0.  0.
<mgrwt>
<rscale>  0 0.12496008E+03</rscale>
<asrwt>0</asrwt>
<pdfrwt beam="1">  1        4 0.20665338E-01 0.12496008E+03</pdfrwt>
<pdfrwt beam="2">  1       -4 0.44710899E-02 0.12496008E+03</pdfrwt>
<totfact> 0.96780560E+03</totfact>
</mgrwt>
</event>
<event>
 5    1  0.3179758E-002  0.1249961E+03  0.7818608E-02  0.1235075E+00
         -4   -1    0    0    0  501 -0.00000000000E+00  0.00000000000E+00  0.22931646050E+02  0.22966786683E+02  0.12700000000E+01 0. -1.
          4   -1    0    0  501    0  0.00000000000E+00 -0.00000000000E+00 -0.17016471311E+03  0.17016945227E+03  0.12700000000E+01 0. -1.
         25    2    1    2    0    0  0.00000000000E+00  0.00000000000E+00 -0.14723306706E+03  0.19313623896E+03  0.12499612299E+03 0.  0.
    9000005    1    3    3    0    0  0.50182256508E+02  0.27539749036E+02 -0.34885902356E+02  0.67042694071E+02  0.10000000000E+01 0.  0.
    9000005    1    3    3    0    0 -0.50182256508E+02 -0.27539749036E+02 -0.11234716470E+03  0.12609354489E+03  0.10000000000E+01 0.  0.
<mgrwt>
<rscale>  0 0.12499612E+03</rscale>
<asrwt>0</asrwt>
<pdfrwt beam="2">  1        4 0.26182253E-01 0.12499612E+03</pdfrwt>
<pdfrwt beam="1">  1       -4 0.35310133E-02 0.12499612E+03</pdfrwt>
<totfact> 0.91312393E+03</totfact>
</mgrwt>
</event>
<event>
 5    1  0.3179758E-002  0.1249983E+03  0.7818608E-02  0.1235072E+00
          4   -1    0    0  501    0  0.00000000000E+00  0.00000000000E+00  0.48848053600E+01  0.50471995607E+01  0.12700000000E+01 0.  1.
         -4   -1    0    0    0  501 -0.00000000000E+00 -0.00000000000E+00 -0.78641432123E+03  0.78641534671E+03  0.12700000000E+01 0.  1.
         25    2    1    2    0    0  0.00000000000E+00  0.00000000000E+00 -0.78152951587E+03  0.79146254627E+03  0.12499831186E+03 0.  0.
    9000005    1    3    3    0    0  0.23377439553E+02  0.53582279431E+01 -0.75614387364E+03  0.75652479994E+03  0.10000000000E+01 0.  0.
    9000005    1    3    3    0    0 -0.23377439553E+02 -0.53582279431E+01 -0.25385642230E+02  0.34937746324E+02  0.10000000000E+01 0.  0.
<mgrwt>
<rscale>  0 0.12499831E+03</rscale>
<asrwt>0</asrwt>
<pdfrwt beam="1">  1        4 0.76407989E-03 0.12499831E+03</pdfrwt>
<pdfrwt beam="2">  1       -4 0.12099929E+00 0.12499831E+03</pdfrwt>
<totfact> 0.38650168E+03</totfact>
</mgrwt>
</event>
<event>
 5    1  0.3179758E-002  0.1249973E+03  0.7818608E-02  0.1235073E+00
         -4   -1    0    0    0  501 -0.00000000000E+00  0.00000000000E+00  0.42085333175E+02  0.42104491072E+02  0.12700000000E+01 0.  1.
          4   -1    0    0  501    0  0.00000000000E+00 -0.00000000000E+00 -0.92768761452E+02  0.92777454165E+02  0.12700000000E+01 0.  1.
         25    2    1    2    0    0  0.00000000000E+00  0.00000000000E+00 -0.50683428277E+02  0.13488194524E+03  0.12499731697E+03 0.  0.
    9000005    1    3    3    0    0  0.21524749299E+02  0.58901086338E+01  0.37644269942E+02  0.43773271200E+02  0.10000000000E+01 0.  0.
    9000005    1    3    3    0    0 -0.21524749299E+02 -0.58901086338E+01 -0.88327698219E+02  0.91108674037E+02  0.10000000000E+01 0.  0.
<mgrwt>
<rscale>  0 0.12499732E+03</rscale>
<asrwt>0</asrwt>
<pdfrwt beam="2">  1        4 0.14274259E-01 0.12499732E+03</pdfrwt>
<pdfrwt beam="1">  1       -4 0.64768090E-02 0.12499732E+03</pdfrwt>
<totfact> 0.10241179E+04</totfact>
</mgrwt>
</event>
<event>
 5    1  0.3179758E-002  0.1250004E+03  0.7818608E-02  0.1235069E+00
          4   -1    0    0  501    0  0.00000000000E+00  0.00000000000E+00  0.79662914566E+03  0.79663015798E+03  0.12700000000E+01 0. -1.
         -4   -1    0    0    0  501 -0.00000000000E+00 -0.00000000000E+00 -0.48202367732E+01  0.49847349528E+01  0.12700000000E+01 0. -1.
         25    2    1    2    0    0  0.00000000000E+00  0.00000000000E+00  0.79180890888E+03  0.80161489294E+03  0.12500035356E+03 0.  0.
    9000005    1    3    3    0    0  0.54621909759E+02 -0.10626680889E+02  0.21352615833E+03  0.22066014516E+03  0.10000000000E+01 0.  0.
    9000005    1    3    3    0    0 -0.54621909759E+02  0.10626680889E+02  0.57828275056E+03  0.58095474778E+03  0.10000000000E+01 0.  0.
<mgrwt>
<rscale>  0 0.12500035E+03</rscale>
<asrwt>0</asrwt>
<pdfrwt beam="1">  1        4 0.12257107E+00 0.12500035E+03</pdfrwt>
<pdfrwt beam="2">  1       -4 0.75430640E-03 0.12500035E+03</pdfrwt>
<totfact> 0.38192434E+03</totfact>
</mgrwt>
</event>
<event>
 5    1  0.3179758E-002  0.1249985E+03  0.7818608E-02  0.1235072E+00
         -4   -1    0    0    0  501 -0.00000000000E+00  0.00000000000E+00  0.48076418124E+02  0.48093189535E+02  0.12700000000E+01 0.  1.
          4   -1    0    0  501    0  0.00000000000E+00 -0.00000000000E+00 -0.81212940942E+02  0.81222870403E+02  0.12700000000E+01 0.  1.
         25    2    1    2    0    0  0.00000000000E+00  0.00000000000E+00 -0.33136522818E+02  0.12931605994E+03  0.12499845684E+03 0.  0.
    9000005    1    3    3    0    0 -0.24566531195E+02 -0.51563612944E+01 -0.75773051878E+02  0.79828929015E+02  0.10000000000E+01 0.  0.
    9000005    1    3    3    0    0  0.24566531195E+02  0.51563612944E+01  0.42636529060E+02  0.49487130923E+02  0.10000000000E+01 0.  0.
<mgrwt>
<rscale>  0 0.12499846E+03</rscale>
<asrwt>0</asrwt>
<pdfrwt beam="2">  1        4 0.12496353E-01 0.12499846E+03</pdfrwt>
<pdfrwt beam="1">  1       -4 0.73984259E-02 0.12499846E+03</pdfrwt>
<totfact> 0.10359521E+04</totfact>
</mgrwt>
</event>
<event>
 5    1  0.3179758E-002  0.1250322E+03  0.7818608E-02  0.1235019E+00
         -4   -1    0    0    0  501 -0.00000000000E+00  0.00000000000E+00  0.66757870006E+03  0.66757990808E+03  0.12700000000E+01 0. -1.
          4   -1    0    0  501    0  0.00000000000E+00 -0.00000000000E+00 -0.57842832154E+01  0.59220631807E+01  0.12700000000E+01 0. -1.
         25    2    1    2    0    0  0.00000000000E+00  0.00000000000E+00  0.66179441684E+03  0.67350197126E+03  0.12503221636E+03 0.  0.
    9000005    1    3    3    0    0 -0.41972300120E+02  0.35135101384E+02  0.49349079459E+03  0.49651819068E+03  0.10000000000E+01 0.  0.
    9000005    1    3    3    0    0  0.41972300120E+02 -0.35135101384E+02  0.16830362225E+03  0.17698378058E+03  0.10000000000E+01 0.  0.
<mgrwt>
<rscale>  0 0.12503222E+03</rscale>
<asrwt>0</asrwt>
<pdfrwt beam="2">  1        4 0.90058153E-03 0.12503222E+03</pdfrwt>
<pdfrwt beam="1">  1       -4 0.10271506E+00 0.12503222E+03</pdfrwt>
<totfact> 0.44491519E+03</totfact>
</mgrwt>
</event>
<event>
 5    1  0.3179758E-002  0.1249965E+03  0.7818608E-02  0.1235075E+00
         -4   -1    0    0    0  501 -0.00000000000E+00  0.00000000000E+00  0.37570937022E+02  0.37592395624E+02  0.12700000000E+01 0.  1.
          4   -1    0    0  501    0  0.00000000000E+00 -0.00000000000E+00 -0.10390923102E+03  0.10391699184E+03  0.12700000000E+01 0.  1.
         25    2    1    2    0    0  0.00000000000E+00  0.00000000000E+00 -0.66338294002E+02  0.14150938746E+03  0.12499654990E+03 0.  0.
    9000005    1    3    3    0    0  0.12181818465E+02 -0.38755060513E+02 -0.86925520898E+02  0.95955185373E+02  0.10000000000E+01 0.  0.
    9000005    1    3    3    0    0 -0.12181818465E+02  0.38755060513E+02  0.20587226896E+02  0.45554202087E+02  0.10000000000E+01 0.  0.
<mgrwt>
<rscale>  0 0.12499655E+03</rscale>
<asrwt>0</asrwt>
<pdfrwt beam="2">  1        4 0.15988283E-01 0.12499655E+03</pdfrwt>
<pdfrwt beam="1">  1       -4 0.57823918E-02 0.12499655E+03</pdfrwt>
<totfact> 0.10103183E+04</totfact>
</mgrwt>
</event>
<event>
 5    1  0.3179758E-002  0.1250000E+03  0.7818608E-02  0.1235069E+00
         -4   -1    0    0    0  501 -0.00000000000E+00  0.00000000000E+00  0.34021516477E+01  0.36314646954E+01  0.12700000000E+01 0.  1.
          4   -1    0    0  501    0  0.00000000000E+00 -0.00000000000E+00 -0.11105084760E+04  0.11105092022E+04  0.12700000000E+01 0.  1.
         25    2    1    2    0    0  0.00000000000E+00  0.00000000000E+00 -0.11071063244E+04  0.11141406669E+04  0.12500004883E+03 0.  0.
    9000005    1    3    3    0    0 -0.27151438602E+02 -0.56030801210E+02 -0.50588524879E+03  0.50970338065E+03  0.10000000000E+01 0.  0.
    9000005    1    3    3    0    0  0.27151438602E+02  0.56030801210E+02 -0.60122107560E+03  0.60443728628E+03  0.10000000000E+01 0.  0.
<mgrwt>
<rscale>  0 0.12500005E+03</rscale>
<asrwt>0</asrwt>
<pdfrwt beam="2">  1        4 0.17086487E+00 0.12500005E+03</pdfrwt>
<pdfrwt beam="1">  1       -4 0.54110416E-03 0.12500005E+03</pdfrwt>
<totfact> 0.27073206E+03</totfact>
</mgrwt>
</event>
<event>
 5    1  0.3179758E-002  0.1249991E+03  0.7818608E-02  0.1235071E+00
         -4   -1    0    0    0  501 -0.00000000000E+00  0.00000000000E+00  0.54139717740E+02  0.54154611410E+02  0.12700000000E+01 0.  1.
          4   -1    0    0  501    0  0.00000000000E+00 -0.00000000000E+00 -0.72119804783E+02  0.72130986004E+02  0.12700000000E+01 0.  1.
         25    2    1    2    0    0  0.00000000000E+00  0.00000000000E+00 -0.17980087043E+02  0.12628559741E+03  0.12499907433E+03 0.  0.
    9000005    1    3    3    0    0 -0.44237099251E+02  0.42994048347E+02  0.11019115956E+01  0.61705942603E+02  0.10000000000E+01 0.  0.
    9000005    1    3    3    0    0  0.44237099251E+02 -0.42994048347E+02 -0.19081998638E+02  0.64579654810E+02  0.10000000000E+01 0.  0.
<mgrwt>
<rscale>  0 0.12499907E+03</rscale>
<asrwt>0</asrwt>
<pdfrwt beam="2">  1        4 0.11097360E-01 0.12499907E+03</pdfrwt>
<pdfrwt beam="1">  1       -4 0.83311931E-02 0.12499907E+03</pdfrwt>
<totfact> 0.10424926E+04</totfact>
</mgrwt>
</event>
<event>
 5    1  0.3179758E-002  0.1250003E+03  0.7818608E-02  0.1235069E+00
         -4   -1    0    0    0  501 -0.00000000000E+00  0.00000000000E+00  0.13785221614E+03  0.13785806612E+03  0.12700000000E+01 0.  1.
          4   -1    0    0  501    0  0.00000000000E+00 -0.00000000000E+00 -0.28315947434E+02  0.28344413543E+02  0.12700000000E+01 0.  1.
         25    2    1    2    0    0  0.00000000000E+00  0.00000000000E+00  0.10953626871E+03  0.16620247966E+03  0.12500028034E+03 0.  0.
    9000005    1    3    3    0    0 -0.33046953945E+02 -0.43391536853E+02  0.14212839277E+02  0.56373144632E+02  0.10000000000E+01 0.  0.
    9000005    1    3    3    0    0  0.33046953945E+02  0.43391536853E+02  0.95323429429E+02  0.10982933503E+03  0.10000000000E+01 0.  0.
<mgrwt>
<rscale>  0 0.12500028E+03</rscale>
<asrwt>0</asrwt>
<pdfrwt beam="2">  1        4 0.43589393E-02 0.12500028E+03</pdfrwt>
<pdfrwt beam="1">  1       -4 0.21210673E-01 0.12500028E+03</pdfrwt>
<totfact> 0.96159540E+03</totfact>
</mgrwt>
</event>
<event>
 5    1  0.3179758E-002  0.1249997E+03  0.7818608E-02  0.1235070E+00
         -4   -1    0    0    0  501 -0.00000000000E+00  0.00000000000E+00  0.26432453892E+02  0.26462946147E+02  0.12700000000E+01 0. -1.
          4   -1    0    0  501    0  0.00000000000E+00 -0.00000000000E+00 -0.14766332930E+03  0.14766879061E+03  0.12700000000E+01 0. -1.
         25    2    1    2    0    0  0.00000000000E+00  0.00000000000E+00 -0.12123087541E+03  0.17413173676E+03  0.12499974638E+03 0.  0.
    9000005    1    3    3    0    0 -0.58875627229E+02  0.98627630242E+01 -0.86363278066E+02  0.10499156811E+03  0.10000000000E+01 0.  0.
    9000005    1    3    3    0    0  0.58875627229E+02 -0.98627630242E+01 -0.34867597346E+02  0.69140168649E+02  0.10000000000E+01 0.  0.
<mgrwt>
<rscale>  0 0.12499975E+03</rscale>
<asrwt>0</asrwt>
<pdfrwt beam="2">  1        4 0.22720200E-01 0.12499975E+03</pdfrwt>
<pdfrwt beam="1">  1       -4 0.40692971E-02 0.12499975E+03</pdfrwt>
<totfact> 0.94684641E+03</totfact>
</mgrwt>
</event>
<event>
 5    1  0.3179758E-002  0.1249991E+03  0.7818608E-02  0.1235071E+00
         -4   -1    0    0    0  501 -0.00000000000E+00  0.00000000000E+00  0.14997634428E+03  0.14998172136E+03  0.12700000000E+01 0. -1.
          4   -1    0    0  501    0  0.00000000000E+00 -0.00000000000E+00 -0.26024049602E+02  0.26055019818E+02  0.12700000000E+01 0. -1.
         25    2    1    2    0    0  0.00000000000E+00  0.00000000000E+00  0.12395229468E+03  0.17603674118E+03  0.12499905156E+03 0.  0.
    9000005    1    3    3    0    0 -0.30561935575E+02 -0.14650995971E+02 -0.11963293653E+02  0.35955583490E+02  0.10000000000E+01 0.  0.
    9000005    1    3    3    0    0  0.30561935575E+02  0.14650995971E+02  0.13591558833E+03  0.14008115769E+03  0.10000000000E+01 0.  0.
<mgrwt>
<rscale>  0 0.12499905E+03</rscale>
<asrwt>0</asrwt>
<pdfrwt beam="2">  1        4 0.40064959E-02 0.12499905E+03</pdfrwt>
<pdfrwt beam="1">  1       -4 0.23076080E-01 0.12499905E+03</pdfrwt>
<totfact> 0.94337313E+03</totfact>
</mgrwt>
</event>
<event>
 5    1  0.3179758E-002  0.1250004E+03  0.7818608E-02  0.1235069E+00
         -4   -1    0    0    0  501 -0.00000000000E+00  0.00000000000E+00  0.57655773736E+01  0.59037939031E+01  0.12700000000E+01 0. -1.
          4   -1    0    0  501    0  0.00000000000E+00 -0.00000000000E+00 -0.66935323444E+03  0.66935443926E+03  0.12700000000E+01 0. -1.
         25    2    1    2    0    0  0.00000000000E+00  0.00000000000E+00 -0.66358765706E+03  0.67525823316E+03  0.12500041137E+03 0.  0.
    9000005    1    3    3    0    0 -0.37570103414E+02  0.48678926137E+02 -0.27160880855E+03  0.27848428214E+03  0.10000000000E+01 0.  0.
    9000005    1    3    3    0    0  0.37570103414E+02 -0.48678926137E+02 -0.39197884852E+03  0.39677395102E+03  0.10000000000E+01 0.  0.
<mgrwt>
<rscale>  0 0.12500041E+03</rscale>
<asrwt>0</asrwt>
<pdfrwt beam="2">  1        4 0.10298808E+00 0.12500041E+03</pdfrwt>
<pdfrwt beam="1">  1       -4 0.89773715E-03 0.12500041E+03</pdfrwt>
<totfact> 0.44424978E+03</totfact>
</mgrwt>
</event>
<event>
 5    1  0.3179758E-002  0.1249982E+03  0.7818608E-02  0.1235072E+00
         -4   -1    0    0    0  501 -0.00000000000E+00  0.00000000000E+00  0.23461256106E+03  0.23461599840E+03  0.12700000000E+01 0. -1.
          4   -1    0    0  501    0  0.00000000000E+00 -0.00000000000E+00 -0.16621518754E+02  0.16669966577E+02  0.12700000000E+01 0. -1.
         25    2    1    2    0    0  0.00000000000E+00  0.00000000000E+00  0.21799104230E+03  0.25128596498E+03  0.12499816667E+03 0.  0.
    9000005    1    3    3    0    0  0.42864318542E+02 -0.38565555961E+02  0.15743054655E+03  0.16766045717E+03  0.10000000000E+01 0.  0.
    9000005    1    3    3    0    0 -0.42864318542E+02  0.38565555961E+02  0.60560495753E+02  0.83625507810E+02  0.10000000000E+01 0.  0.
<mgrwt>
<rscale>  0 0.12499817E+03</rscale>
<asrwt>0</asrwt>
<pdfrwt beam="2">  1        4 0.25611477E-02 0.12499817E+03</pdfrwt>
<pdfrwt beam="1">  1       -4 0.36098234E-01 0.12499817E+03</pdfrwt>
<totfact> 0.82148072E+03</totfact>
</mgrwt>
</event>
<event>
 5    1  0.3179758E-002  0.1250022E+03  0.7818608E-02  0.1235066E+00
         -4   -1    0    0    0  501 -0.00000000000E+00  0.00000000000E+00  0.92314629756E+02  0.92323365228E+02  0.12700000000E+01 0. -1.
          4   -1    0    0  501    0  0.00000000000E+00 -0.00000000000E+00 -0.42295772048E+02  0.42314834670E+02  0.12700000000E+01 0. -1.
         25    2    1    2    0    0  0.00000000000E+00  0.00000000000E+00  0.50018857709E+02  0.13463819990E+03  0.12500223496E+03 0.  0.
    9000005    1    3    3    0    0 -0.25195435223E+01 -0.37498883306E+02  0.78786952397E+02  0.87297756081E+02  0.10000000000E+01 0.  0.
    9000005    1    3    3    0    0  0.25195435223E+01  0.37498883306E+02 -0.28768094688E+02  0.47340443817E+02  0.10000000000E+01 0.  0.
<mgrwt>
<rscale>  0 0.12500223E+03</rscale>
<asrwt>0</asrwt>
<pdfrwt beam="2">  1        4 0.65091802E-02 0.12500223E+03</pdfrwt>
<pdfrwt beam="1">  1       -4 0.14204389E-01 0.12500223E+03</pdfrwt>
<totfact> 0.10245186E+04</totfact>
</mgrwt>
</event>
<event>
 5    1  0.3179758E-002  0.1249995E+03  0.7818608E-02  0.1235070E+00
          4   -1    0    0  501    0  0.00000000000E+00  0.00000000000E+00  0.39002565239E+01  0.41018167867E+01  0.12700000000E+01 0. -1.
         -4   -1    0    0    0  501 -0.00000000000E+00 -0.00000000000E+00 -0.97609933327E+03  0.97610015947E+03  0.12700000000E+01 0. -1.
         25    2    1    2    0    0  0.00000000000E+00  0.00000000000E+00 -0.97219907675E+03  0.98020197626E+03  0.12499947770E+03 0.  0.
    9000005    1    3    3    0    0 -0.56878685108E+02  0.12832718356E+02 -0.66238040463E+03  0.66494260198E+03  0.10000000000E+01 0.  0.
    9000005    1    3    3    0    0  0.56878685108E+02 -0.12832718356E+02 -0.30981867212E+03  0.31525937428E+03  0.10000000000E+01 0.  0.
<mgrwt>
<rscale>  0 0.12499948E+03</rscale>
<asrwt>0</asrwt>
<pdfrwt beam="1">  1        4 0.61560843E-03 0.12499948E+03</pdfrwt>
<pdfrwt beam="2">  1       -4 0.15018451E+00 0.12499948E+03</pdfrwt>
<totfact> 0.31267757E+03</totfact>
</mgrwt>
</event>
<event>
 5    1  0.3179758E-002  0.1249973E+03  0.7818608E-02  0.1235074E+00
         -4   -1    0    0    0  501 -0.00000000000E+00  0.00000000000E+00  0.88555758946E+02  0.88564865169E+02  0.12700000000E+01 0.  1.
          4   -1    0    0  501    0  0.00000000000E+00 -0.00000000000E+00 -0.44088192861E+02  0.44106480813E+02  0.12700000000E+01 0.  1.
         25    2    1    2    0    0  0.00000000000E+00  0.00000000000E+00  0.44467566085E+02  0.13267134598E+03  0.12499728642E+03 0.  0.
    9000005    1    3    3    0    0  0.25613110457E+02 -0.56765677775E+02  0.16748645840E+02  0.64497214964E+02  0.10000000000E+01 0.  0.
    9000005    1    3    3    0    0 -0.25613110457E+02  0.56765677775E+02  0.27718920245E+02  0.68174131019E+02  0.10000000000E+01 0.  0.
<mgrwt>
<rscale>  0 0.12499729E+03</rscale>
<asrwt>0</asrwt>
<pdfrwt beam="2">  1        4 0.67849062E-02 0.12499729E+03</pdfrwt>
<pdfrwt beam="1">  1       -4 0.13626070E-01 0.12499729E+03</pdfrwt>
<totfact> 0.10288019E+04</totfact>
</mgrwt>
</event>
<event>
 5    1  0.3179758E-002  0.1249945E+03  0.7818608E-02  0.1235078E+00
          4   -1    0    0  501    0  0.00000000000E+00  0.00000000000E+00  0.17379841632E+02  0.17426181313E+02  0.12700000000E+01 0.  1.
         -4   -1    0    0    0  501 -0.00000000000E+00 -0.00000000000E+00 -0.22439026100E+03  0.22439385493E+03  0.12700000000E+01 0.  1.
         25    2    1    2    0    0  0.00000000000E+00  0.00000000000E+00 -0.20701041936E+03  0.24182003624E+03  0.12499446469E+03 0.  0.
    9000005    1    3    3    0    0 -0.49502977786E+02 -0.32097080458E+02 -0.63661991401E+02  0.86802168940E+02  0.10000000000E+01 0.  0.
    9000005    1    3    3    0    0  0.49502977786E+02  0.32097080458E+02 -0.14334842796E+03  0.15501786730E+03  0.10000000000E+01 0.  0.
<mgrwt>
<rscale>  0 0.12499446E+03</rscale>
<asrwt>0</asrwt>
<pdfrwt beam="1">  1        4 0.26776630E-02 0.12499446E+03</pdfrwt>
<pdfrwt beam="2">  1       -4 0.34525418E-01 0.12499446E+03</pdfrwt>
<totfact> 0.83537357E+03</totfact>
</mgrwt>
</event>
<event>
 5    1  0.3179758E-002  0.1249997E+03  0.7818608E-02  0.1235070E+00
         -4   -1    0    0    0  501 -0.00000000000E+00  0.00000000000E+00  0.81801423776E+03  0.81801522362E+03  0.12700000000E+01 0. -1.
          4   -1    0    0  501    0  0.00000000000E+00 -0.00000000000E+00 -0.46898130976E+01  0.48587289378E+01  0.12700000000E+01 0. -1.
         25    2    1    2    0    0  0.00000000000E+00  0.00000000000E+00  0.81332442466E+03  0.82287395256E+03  0.12499968820E+03 0.  0.
    9000005    1    3    3    0    0  0.18251008696E+02 -0.23500722640E+02  0.76841915290E+03  0.76899569428E+03  0.10000000000E+01 0.  0.
    9000005    1    3    3    0    0 -0.18251008696E+02  0.23500722640E+02  0.44905271769E+02  0.53878258283E+02  0.10000000000E+01 0.  0.
<mgrwt>
<rscale>  0 0.12499969E+03</rscale>
<asrwt>0</asrwt>
<pdfrwt beam="2">  1        4 0.73457966E-03 0.12499969E+03</pdfrwt>
<pdfrwt beam="1">  1       -4 0.12586131E+00 0.12499969E+03</pdfrwt>
<totfact> 0.37264027E+03</totfact>
</mgrwt>
</event>
<event>
 5    1  0.3179758E-002  0.1249990E+03  0.7818608E-02  0.1235071E+00
          4   -1    0    0  501    0  0.00000000000E+00  0.00000000000E+00  0.94098541950E+02  0.94107111831E+02  0.12700000000E+01 0.  1.
         -4   -1    0    0    0  501 -0.00000000000E+00 -0.00000000000E+00 -0.41491482199E+02  0.41510914169E+02  0.12700000000E+01 0.  1.
         25    2    1    2    0    0  0.00000000000E+00  0.00000000000E+00  0.52607059751E+02  0.13561802600E+03  0.12499898496E+03 0.  0.
    9000005    1    3    3    0    0 -0.13855021502E+02  0.58751718288E+02  0.43846939629E+02  0.74614208683E+02  0.10000000000E+01 0.  0.
    9000005    1    3    3    0    0  0.13855021502E+02 -0.58751718288E+02  0.87601201222E+01  0.61003817316E+02  0.10000000000E+01 0.  0.
<mgrwt>
<rscale>  0 0.12499898E+03</rscale>
<asrwt>0</asrwt>
<pdfrwt beam="1">  1        4 0.14478853E-01 0.12499898E+03</pdfrwt>
<pdfrwt beam="2">  1       -4 0.63854590E-02 0.12499898E+03</pdfrwt>
<totfact> 0.10225295E+04</totfact>
</mgrwt>
</event>
<event>
 5    1  0.3179758E-002  0.1250161E+03  0.7818608E-02  0.1235044E+00
          4   -1    0    0  501    0  0.00000000000E+00  0.00000000000E+00  0.96809463196E+02  0.96817793118E+02  0.12700000000E+01 0. -1.
         -4   -1    0    0    0  501 -0.00000000000E+00 -0.00000000000E+00 -0.40340209041E+02  0.40360195310E+02  0.12700000000E+01 0. -1.
         25    2    1    2    0    0  0.00000000000E+00  0.00000000000E+00  0.56469254155E+02  0.13717798843E+03  0.12501609434E+03 0.  0.
    9000005    1    3    3    0    0  0.48924768788E+02 -0.36453322971E+02  0.43109919272E+02  0.74712401221E+02  0.10000000000E+01 0.  0.
    9000005    1    3    3    0    0 -0.48924768788E+02  0.36453322971E+02  0.13359334883E+02  0.62465587207E+02  0.10000000000E+01 0.  0.
<mgrwt>
<rscale>  0 0.12501609E+03</rscale>
<asrwt>0</asrwt>
<pdfrwt beam="1">  1        4 0.14895942E-01 0.12501609E+03</pdfrwt>
<pdfrwt beam="2">  1       -4 0.62083642E-02 0.12501609E+03</pdfrwt>
<totfact> 0.10188668E+04</totfact>
</mgrwt>
</event>
<event>
 5    1  0.3179758E-002  0.1250210E+03  0.7818608E-02  0.1235036E+00
         -4   -1    0    0    0  501 -0.00000000000E+00  0.00000000000E+00  0.40940389657E+03  0.40940586638E+03  0.12700000000E+01 0. -1.
          4   -1    0    0  501    0  0.00000000000E+00 -0.00000000000E+00 -0.95002732777E+01  0.95847844186E+01  0.12700000000E+01 0. -1.
         25    2    1    2    0    0  0.00000000000E+00  0.00000000000E+00  0.39990362329E+03  0.41899065080E+03  0.12502102837E+03 0.  0.
    9000005    1    3    3    0    0  0.33137192037E+02 -0.50507409671E+02  0.14617395115E+03  0.15816730358E+03  0.10000000000E+01 0.  0.
    9000005    1    3    3    0    0 -0.33137192037E+02  0.50507409671E+02  0.25372967214E+03  0.26082334721E+03  0.10000000000E+01 0.  0.
<mgrwt>
<rscale>  0 0.12502103E+03</rscale>
<asrwt>0</asrwt>
<pdfrwt beam="2">  1        4 0.14682333E-02 0.12502103E+03</pdfrwt>
<pdfrwt beam="1">  1       -4 0.62991850E-01 0.12502103E+03</pdfrwt>
<totfact> 0.62717671E+03</totfact>
</mgrwt>
</event>
<event>
 5    1  0.3179758E-002  0.1249989E+03  0.7818608E-02  0.1235071E+00
          4   -1    0    0  501    0  0.00000000000E+00  0.00000000000E+00  0.19742958594E+03  0.19743367064E+03  0.12700000000E+01 0. -1.
         -4   -1    0    0    0  501 -0.00000000000E+00 -0.00000000000E+00 -0.19760518352E+02  0.19801287472E+02  0.12700000000E+01 0. -1.
         25    2    1    2    0    0  0.00000000000E+00  0.00000000000E+00  0.17766906758E+03  0.21723495811E+03  0.12499891780E+03 0.  0.
    9000005    1    3    3    0    0  0.49694456958E+02 -0.14518670563E+02  0.28011905461E+02  0.58872724541E+02  0.10000000000E+01 0.  0.
    9000005    1    3    3    0    0 -0.49694456958E+02  0.14518670563E+02  0.14965716212E+03  0.15836223357E+03  0.10000000000E+01 0.  0.
<mgrwt>
<rscale>  0 0.12499892E+03</rscale>
<asrwt>0</asrwt>
<pdfrwt beam="1">  1        4 0.30377231E-01 0.12499892E+03</pdfrwt>
<pdfrwt beam="2">  1       -4 0.30435302E-02 0.12499892E+03</pdfrwt>
<totfact> 0.87309893E+03</totfact>
</mgrwt>
</event>
<event>
 5    1  0.3179758E-002  0.1250011E+03  0.7818608E-02  0.1235068E+00
          4   -1    0    0  501    0  0.00000000000E+00  0.00000000000E+00  0.29475644076E+02  0.29502991267E+02  0.12700000000E+01 0. -1.
         -4   -1    0    0    0  501 -0.00000000000E+00 -0.00000000000E+00 -0.13243522898E+03  0.13244131823E+03  0.12700000000E+01 0. -1.
         25    2    1    2    0    0  0.00000000000E+00  0.00000000000E+00 -0.10295958490E+03  0.16194430949E+03  0.12500113301E+03 0.  0.
    9000005    1    3    3    0    0 -0.44644425384E+02  0.19405604829E+02 -0.10224818632E+03  0.11324925528E+03  0.10000000000E+01 0.  0.
    9000005    1    3    3    0    0  0.44644425384E+02 -0.19405604829E+02 -0.71139858059E+00  0.48695054211E+02  0.10000000000E+01 0.  0.
<mgrwt>
<rscale>  0 0.12500113E+03</rscale>
<asrwt>0</asrwt>
<pdfrwt beam="1">  1        4 0.45372866E-02 0.12500113E+03</pdfrwt>
<pdfrwt beam="2">  1       -4 0.20377222E-01 0.12500113E+03</pdfrwt>
<totfact> 0.96966773E+03</totfact>
</mgrwt>
</event>
<event>
 5    1  0.3179758E-002  0.1249970E+03  0.7818608E-02  0.1235074E+00
          4   -1    0    0  501    0  0.00000000000E+00  0.00000000000E+00  0.21971406783E+03  0.21971773825E+03  0.12700000000E+01 0.  1.
         -4   -1    0    0    0  501 -0.00000000000E+00 -0.00000000000E+00 -0.17751424733E+02  0.17796796905E+02  0.12700000000E+01 0.  1.
         25    2    1    2    0    0  0.00000000000E+00  0.00000000000E+00  0.20196264309E+03  0.23751453515E+03  0.12499698078E+03 0.  0.
    9000005    1    3    3    0    0 -0.35728648142E+02 -0.26795782074E+02  0.17926385533E+02  0.48134244912E+02  0.10000000000E+01 0.  0.
    9000005    1    3    3    0    0  0.35728648142E+02  0.26795782074E+02  0.18403625756E+03  0.18938029024E+03  0.10000000000E+01 0.  0.
<mgrwt>
<rscale>  0 0.12499698E+03</rscale>
<asrwt>0</asrwt>
<pdfrwt beam="1">  1        4 0.33805937E-01 0.12499698E+03</pdfrwt>
<pdfrwt beam="2">  1       -4 0.27347609E-02 0.12499698E+03</pdfrwt>
<totfact> 0.84174596E+03</totfact>
</mgrwt>
</event>
<event>
 5    1  0.3179758E-002  0.1250126E+03  0.7818608E-02  0.1235050E+00
          4   -1    0    0  501    0  0.00000000000E+00  0.00000000000E+00  0.21008714635E+03  0.21009098496E+03  0.12700000000E+01 0. -1.
         -4   -1    0    0    0  501 -0.00000000000E+00 -0.00000000000E+00 -0.18571515510E+02  0.18614888889E+02  0.12700000000E+01 0. -1.
         25    2    1    2    0    0  0.00000000000E+00  0.00000000000E+00  0.19151563084E+03  0.22870587385E+03  0.12501255888E+03 0.  0.
    9000005    1    3    3    0    0 -0.17016683397E+02 -0.33105784491E+01  0.20560953943E+03  0.20634148915E+03  0.10000000000E+01 0.  0.
    9000005    1    3    3    0    0  0.17016683397E+02  0.33105784491E+01 -0.14093908587E+02  0.22364384694E+02  0.10000000000E+01 0.  0.
<mgrwt>
<rscale>  0 0.12501256E+03</rscale>
<asrwt>0</asrwt>
<pdfrwt beam="1">  1        4 0.32324729E-01 0.12501256E+03</pdfrwt>
<pdfrwt beam="2">  1       -4 0.28607881E-02 0.12501256E+03</pdfrwt>
<totfact> 0.85484751E+03</totfact>
</mgrwt>
</event>
<event>
 5    1  0.3179758E-002  0.1250008E+03  0.7818608E-02  0.1235068E+00
          4   -1    0    0  501    0  0.00000000000E+00  0.00000000000E+00  0.48688673721E+02  0.48705234305E+02  0.12700000000E+01 0. -1.
         -4   -1    0    0    0  501 -0.00000000000E+00 -0.00000000000E+00 -0.80194914363E+02  0.80204969856E+02  0.12700000000E+01 0. -1.
         25    2    1    2    0    0  0.00000000000E+00  0.00000000000E+00 -0.31506240642E+02  0.12891020416E+03  0.12500079015E+03 0.  0.
    9000005    1    3    3    0    0 -0.13616777355E+02  0.45507354514E+02  0.26124312622E+02  0.54220066861E+02  0.10000000000E+01 0.  0.
    9000005    1    3    3    0    0  0.13616777355E+02 -0.45507354514E+02 -0.57630553264E+02  0.74690137300E+02  0.10000000000E+01 0.  0.
<mgrwt>
<rscale>  0 0.12500079E+03</rscale>
<asrwt>0</asrwt>
<pdfrwt beam="1">  1        4 0.74926126E-02 0.12500079E+03</pdfrwt>
<pdfrwt beam="2">  1       -4 0.12339727E-01 0.12500079E+03</pdfrwt>
<totfact> 0.10367692E+04</totfact>
</mgrwt>
</event>
<event>
 5    1  0.3179758E-002  0.1250016E+03  0.7818608E-02  0.1235067E+00
         -4   -1    0    0    0  501 -0.00000000000E+00  0.00000000000E+00  0.16327897126E+03  0.16328391028E+03  0.12700000000E+01 0.  1.
          4   -1    0    0  501    0  0.00000000000E+00 -0.00000000000E+00 -0.23902213264E+02  0.23935929038E+02  0.12700000000E+01 0.  1.
         25    2    1    2    0    0  0.00000000000E+00  0.00000000000E+00  0.13937675800E+03  0.18721983932E+03  0.12500155025E+03 0.  0.
    9000005    1    3    3    0    0  0.13816929999E+02  0.50603616206E+02  0.12056115429E+03  0.13148241499E+03  0.10000000000E+01 0.  0.
    9000005    1    3    3    0    0 -0.13816929999E+02 -0.50603616206E+02  0.18815603704E+02  0.55737424326E+02  0.10000000000E+01 0.  0.
<mgrwt>
<rscale>  0 0.12500155E+03</rscale>
<asrwt>0</asrwt>
<pdfrwt beam="2">  1        4 0.36802370E-02 0.12500155E+03</pdfrwt>
<pdfrwt beam="1">  1       -4 0.25122816E-01 0.12500155E+03</pdfrwt>
<totfact> 0.92330108E+03</totfact>
</mgrwt>
</event>
<event>
 5    1  0.3179758E-002  0.1249941E+03  0.7818608E-02  0.1235078E+00
          4   -1    0    0  501    0  0.00000000000E+00  0.00000000000E+00  0.35268081137E+03  0.35268309799E+03  0.12700000000E+01 0. -1.
         -4   -1    0    0    0  501 -0.00000000000E+00 -0.00000000000E+00 -0.11036094891E+02  0.11108928411E+02  0.12700000000E+01 0. -1.
         25    2    1    2    0    0  0.00000000000E+00  0.00000000000E+00  0.34164471648E+03  0.36379202640E+03  0.12499410456E+03 0.  0.
    9000005    1    3    3    0    0  0.10652277262E+02  0.48328894850E+02  0.28186859158E+03  0.28618185827E+03  0.10000000000E+01 0.  0.
    9000005    1    3    3    0    0 -0.10652277262E+02 -0.48328894850E+02  0.59776124901E+02  0.77610168125E+02  0.10000000000E+01 0.  0.
<mgrwt>
<rscale>  0 0.12499410E+03</rscale>
<asrwt>0</asrwt>
<pdfrwt beam="1">  1        4 0.54264367E-01 0.12499410E+03</pdfrwt>
<pdfrwt beam="2">  1       -4 0.17036392E-02 0.12499410E+03</pdfrwt>
<totfact> 0.68242340E+03</totfact>
</mgrwt>
</event>
<event>
 5    1  0.3179758E-002  0.1250028E+03  0.7818608E-02  0.1235065E+00
         -4   -1    0    0    0  501 -0.00000000000E+00  0.00000000000E+00  0.53475169149E+01  0.54962566493E+01  0.12700000000E+01 0.  1.
          4   -1    0    0  501    0  0.00000000000E+00 -0.00000000000E+00 -0.72034210396E+03  0.72034322350E+03  0.12700000000E+01 0.  1.
         25    2    1    2    0    0  0.00000000000E+00  0.00000000000E+00 -0.71499458705E+03  0.72583948015E+03  0.12500276571E+03 0.  0.
    9000005    1    3    3    0    0  0.30447898683E+02 -0.21419546498E+02 -0.64895971724E+03  0.65002737335E+03  0.10000000000E+01 0.  0.
    9000005    1    3    3    0    0 -0.30447898683E+02  0.21419546498E+02 -0.66034869807E+02  0.75812106796E+02  0.10000000000E+01 0.  0.
<mgrwt>
<rscale>  0 0.12500277E+03</rscale>
<asrwt>0</asrwt>
<pdfrwt beam="2">  1        4 0.11083331E+00 0.12500277E+03</pdfrwt>
<pdfrwt beam="1">  1       -4 0.83422312E-03 0.12500277E+03</pdfrwt>
<totfact> 0.41754734E+03</totfact>
</mgrwt>
</event>
<event>
 5    1  0.3179758E-002  0.1249883E+03  0.7818608E-02  0.1235088E+00
         -4   -1    0    0    0  501 -0.00000000000E+00  0.00000000000E+00  0.11928460882E+04  0.11928467643E+04  0.12700000000E+01 0.  1.
          4   -1    0    0  501    0  0.00000000000E+00 -0.00000000000E+00 -0.31502591440E+01  0.33966207728E+01  0.12700000000E+01 0.  1.
         25    2    1    2    0    0  0.00000000000E+00  0.00000000000E+00  0.11896958291E+04  0.11962433851E+04  0.12498828181E+03 0.  0.
    9000005    1    3    3    0    0 -0.34560388685E+02  0.35455707986E+02  0.95967036567E+03  0.96094731304E+03  0.10000000000E+01 0.  0.
    9000005    1    3    3    0    0  0.34560388685E+02 -0.35455707986E+02  0.23002546341E+03  0.23529607203E+03  0.10000000000E+01 0.  0.
<mgrwt>
<rscale>  0 0.12498828E+03</rscale>
<asrwt>0</asrwt>
<pdfrwt beam="2">  1        4 0.50365797E-03 0.12498828E+03</pdfrwt>
<pdfrwt beam="1">  1       -4 0.18353385E+00 0.12498828E+03</pdfrwt>
<totfact> 0.24817620E+03</totfact>
</mgrwt>
</event>
<event>
 5    1  0.3179758E-002  0.1250012E+03  0.7818608E-02  0.1235067E+00
         -4   -1    0    0    0  501 -0.00000000000E+00  0.00000000000E+00  0.54943852236E+02  0.54958527987E+02  0.12700000000E+01 0.  1.
          4   -1    0    0  501    0  0.00000000000E+00 -0.00000000000E+00 -0.71066874668E+02  0.71078221525E+02  0.12700000000E+01 0.  1.
         25    2    1    2    0    0  0.00000000000E+00  0.00000000000E+00 -0.16123022432E+02  0.12603674951E+03  0.12500124149E+03 0.  0.
    9000005    1    3    3    0    0 -0.29322241155E+02  0.47594893627E+02 -0.36226040860E+02  0.66621271094E+02  0.10000000000E+01 0.  0.
    9000005    1    3    3    0    0  0.29322241155E+02 -0.47594893627E+02  0.20103018427E+02  0.59415478418E+02  0.10000000000E+01 0.  0.
<mgrwt>
<rscale>  0 0.12500124E+03</rscale>
<asrwt>0</asrwt>
<pdfrwt beam="2">  1        4 0.10935367E-01 0.12500124E+03</pdfrwt>
<pdfrwt beam="1">  1       -4 0.84549021E-02 0.12500124E+03</pdfrwt>
<totfact> 0.10429859E+04</totfact>
</mgrwt>
</event>
<event>
 5    1  0.3179758E-002  0.1250003E+03  0.7818608E-02  0.1235069E+00
         -4   -1    0    0    0  501 -0.00000000000E+00  0.00000000000E+00  0.67026861803E+01  0.68219426875E+01  0.12700000000E+01 0. -1.
          4   -1    0    0  501    0  0.00000000000E+00 -0.00000000000E+00 -0.57753278403E+03  0.57753418040E+03  0.12700000000E+01 0. -1.
         25    2    1    2    0    0  0.00000000000E+00  0.00000000000E+00 -0.57083009785E+03  0.58435612309E+03  0.12500031191E+03 0.  0.
    9000005    1    3    3    0    0 -0.26657649786E+02 -0.45556336439E+02 -0.44181329562E+03  0.44495617567E+03  0.10000000000E+01 0.  0.
    9000005    1    3    3    0    0  0.26657649786E+02  0.45556336439E+02 -0.12901680224E+03  0.13939994742E+03  0.10000000000E+01 0.  0.
<mgrwt>
<rscale>  0 0.12500031E+03</rscale>
<asrwt>0</asrwt>
<pdfrwt beam="2">  1        4 0.88860439E-01 0.12500031E+03</pdfrwt>
<pdfrwt beam="1">  1       -4 0.10404639E-02 0.12500031E+03</pdfrwt>
<totfact> 0.49869899E+03</totfact>
</mgrwt>
</event>
<event>
 5    1  0.3179758E-002  0.1249989E+03  0.7818608E-02  0.1235071E+00
         -4   -1    0    0    0  501 -0.00000000000E+00  0.00000000000E+00  0.20827977815E+03  0.20828365007E+03  0.12700000000E+01 0.  1.
          4   -1    0    0  501    0  0.00000000000E+00 -0.00000000000E+00 -0.18728932293E+02  0.18771941957E+02  0.12700000000E+01 0.  1.
         25    2    1    2    0    0  0.00000000000E+00  0.00000000000E+00  0.18955084586E+03  0.22705559203E+03  0.12499887482E+03 0.  0.
    9000005    1    3    3    0    0  0.12595196747E+02 -0.27663273807E+02  0.19395626054E+03  0.19632607239E+03  0.10000000000E+01 0.  0.
    9000005    1    3    3    0    0 -0.12595196747E+02  0.27663273807E+02 -0.44054146752E+01  0.30729519640E+02  0.10000000000E+01 0.  0.
<mgrwt>
<rscale>  0 0.12499887E+03</rscale>
<asrwt>0</asrwt>
<pdfrwt beam="2">  1        4 0.28849806E-02 0.12499887E+03</pdfrwt>
<pdfrwt beam="1">  1       -4 0.32046647E-01 0.12499887E+03</pdfrwt>
<totfact> 0.85765928E+03</totfact>
</mgrwt>
</event>
<event>
 5    1  0.3179758E-002  0.1249966E+03  0.7818608E-02  0.1235075E+00
         -4   -1    0    0    0  501 -0.00000000000E+00  0.00000000000E+00  0.43393356449E+02  0.43411937113E+02  0.12700000000E+01 0.  1.
          4   -1    0    0  501    0  0.00000000000E+00 -0.00000000000E+00 -0.89972377940E+02  0.89981340801E+02  0.12700000000E+01 0.  1.
         25    2    1    2    0    0  0.00000000000E+00  0.00000000000E+00 -0.46579021492E+02  0.13339327791E+03  0.12499664535E+03 0.  0.
    9000005    1    3    3    0    0 -0.49975044464E+02 -0.25315918211E+02  0.62587007015E+01  0.56378826863E+02  0.10000000000E+01 0.  0.
    9000005    1    3    3    0    0  0.49975044464E+02  0.25315918211E+02 -0.52837722193E+02  0.77014451050E+02  0.10000000000E+01 0.  0.
<mgrwt>
<rscale>  0 0.12499665E+03</rscale>
<asrwt>0</asrwt>
<pdfrwt beam="2">  1        4 0.13844023E-01 0.12499665E+03</pdfrwt>
<pdfrwt beam="1">  1       -4 0.66780197E-02 0.12499665E+03</pdfrwt>
<totfact> 0.10272826E+04</totfact>
</mgrwt>
</event>
<event>
 4    1  0.3179758E-002  0.1249384E+03  0.7818608E-02  0.1235166E+00
          4   -1    0    0  501    0  0.00000000000E+00  0.00000000000E+00  0.74893816076E+01  0.75962975761E+01  0.12700000000E+01 0.  1.
         -4   -1    0    0    0  501 -0.00000000000E+00 -0.00000000000E+00 -0.51725721539E+03  0.51725877448E+03  0.12700000000E+01 0.  1.
    9000005    1    1    2    0    0 -0.48953644559E+02  0.33272240804E+02 -0.33868121973E+03  0.34381604081E+03  0.10000000000E+01 0.  0.
    9000005    1    1    2    0    0  0.48953644559E+02 -0.33272240804E+02 -0.17108661406E+03  0.18103903124E+03  0.10000000000E+01 0.  0.
<mgrwt>
<rscale>  0 0.12493839E+03</rscale>
<asrwt>0</asrwt>
<pdfrwt beam="1">  1        4 0.11605572E-02 0.12493839E+03</pdfrwt>
<pdfrwt beam="2">  1       -4 0.79586349E-01 0.12493839E+03</pdfrwt>
<totfact> 0.54059354E+03</totfact>
</mgrwt>
</event>
<event>
 5    1  0.3179758E-002  0.1250304E+03  0.7818608E-02  0.1235022E+00
          4   -1    0    0  501    0  0.00000000000E+00  0.00000000000E+00  0.21276681461E+03  0.21277060487E+03  0.12700000000E+01 0. -1.
         -4   -1    0    0    0  501 -0.00000000000E+00 -0.00000000000E+00 -0.18342313969E+02  0.18386228045E+02  0.12700000000E+01 0. -1.
         25    2    1    2    0    0  0.00000000000E+00  0.00000000000E+00  0.19442450064E+03  0.23115683292E+03  0.12503037614E+03 0.  0.
    9000005    1    3    3    0    0 -0.46291940255E+02 -0.88035566427E+00  0.17484952966E+03  0.18087862444E+03  0.10000000000E+01 0.  0.
    9000005    1    3    3    0    0  0.46291940255E+02  0.88035566427E+00  0.19574970981E+02  0.50278208476E+02  0.10000000000E+01 0.  0.
<mgrwt>
<rscale>  0 0.12503038E+03</rscale>
<asrwt>0</asrwt>
<pdfrwt beam="1">  1        4 0.32737025E-01 0.12503038E+03</pdfrwt>
<pdfrwt beam="2">  1       -4 0.28255641E-02 0.12503038E+03</pdfrwt>
<totfact> 0.85074614E+03</totfact>
</mgrwt>
</event>
<event>
 5    1  0.3179758E-002  0.1250004E+03  0.7818608E-02  0.1235069E+00
         -4   -1    0    0    0  501 -0.00000000000E+00  0.00000000000E+00  0.13374828730E+02  0.13434989525E+02  0.12700000000E+01 0.  1.
          4   -1    0    0  501    0  0.00000000000E+00 -0.00000000000E+00 -0.29134475828E+03  0.29134752630E+03  0.12700000000E+01 0.  1.
         25    2    1    2    0    0  0.00000000000E+00  0.00000000000E+00 -0.27796992955E+03  0.30478251582E+03  0.12500040086E+03 0.  0.
    9000005    1    3    3    0    0  0.24374309533E+02 -0.25883684046E+02 -0.26429317699E+03  0.26667574968E+03  0.10000000000E+01 0.  0.
    9000005    1    3    3    0    0 -0.24374309533E+02  0.25883684046E+02 -0.13676752564E+02  0.38106766141E+02  0.10000000000E+01 0.  0.
<mgrwt>
<rscale>  0 0.12500040E+03</rscale>
<asrwt>0</asrwt>
<pdfrwt beam="2">  1        4 0.44827106E-01 0.12500040E+03</pdfrwt>
<pdfrwt beam="1">  1       -4 0.20625069E-02 0.12500040E+03</pdfrwt>
<totfact> 0.75002153E+03</totfact>
</mgrwt>
</event>
<event>
 5    1  0.3179758E-002  0.1250014E+03  0.7818608E-02  0.1235067E+00
         -4   -1    0    0    0  501 -0.00000000000E+00  0.00000000000E+00  0.39355734666E+01  0.41354127377E+01  0.12700000000E+01 0.  1.
          4   -1    0    0  501    0  0.00000000000E+00 -0.00000000000E+00 -0.96779462459E+03  0.96779545787E+03  0.12700000000E+01 0.  1.
         25    2    1    2    0    0  0.00000000000E+00  0.00000000000E+00 -0.96385905112E+03  0.97193087061E+03  0.12500138727E+03 0.  0.
    9000005    1    3    3    0    0 -0.36463412413E+02  0.50743336647E+02 -0.47467696078E+03  0.47877310258E+03  0.10000000000E+01 0.  0.
    9000005    1    3    3    0    0  0.36463412413E+02 -0.50743336647E+02 -0.48918209034E+03  0.49315776803E+03  0.10000000000E+01 0.  0.
<mgrwt>
<rscale>  0 0.12500139E+03</rscale>
<asrwt>0</asrwt>
<pdfrwt beam="2">  1        4 0.14890673E+00 0.12500139E+03</pdfrwt>
<pdfrwt beam="1">  1       -4 0.62090996E-03 0.12500139E+03</pdfrwt>
<totfact> 0.31548998E+03</totfact>
</mgrwt>
</event>
<event>
 5    1  0.3179758E-002  0.1249992E+03  0.7818608E-02  0.1235071E+00
         -4   -1    0    0    0  501 -0.00000000000E+00  0.00000000000E+00  0.21163145944E+03  0.21163527004E+03  0.12700000000E+01 0. -1.
          4   -1    0    0  501    0  0.00000000000E+00 -0.00000000000E+00 -0.18431720066E+02  0.18475421635E+02  0.12700000000E+01 0. -1.
         25    2    1    2    0    0  0.00000000000E+00  0.00000000000E+00  0.19319973937E+03  0.23011069167E+03  0.12499916451E+03 0.  0.
    9000005    1    3    3    0    0 -0.42940986404E+02 -0.40395719708E+02  0.58450385523E+02  0.83025237440E+02  0.10000000000E+01 0.  0.
    9000005    1    3    3    0    0  0.42940986404E+02  0.40395719708E+02  0.13474935385E+03  0.14708545423E+03  0.10000000000E+01 0.  0.
<mgrwt>
<rscale>  0 0.12499916E+03</rscale>
<asrwt>0</asrwt>
<pdfrwt beam="2">  1        4 0.28393040E-02 0.12499916E+03</pdfrwt>
<pdfrwt beam="1">  1       -4 0.32562341E-01 0.12499916E+03</pdfrwt>
<totfact> 0.85294192E+03</totfact>
</mgrwt>
</event>
<event>
 5    1  0.3179758E-002  0.1249957E+03  0.7818608E-02  0.1235076E+00
          4   -1    0    0  501    0  0.00000000000E+00  0.00000000000E+00  0.17117751976E+03  0.17118223088E+03  0.12700000000E+01 0. -1.
         -4   -1    0    0    0  501 -0.00000000000E+00 -0.00000000000E+00 -0.22795610504E+02  0.22830960520E+02  0.12700000000E+01 0. -1.
         25    2    1    2    0    0  0.00000000000E+00  0.00000000000E+00  0.14838190925E+03  0.19401319140E+03  0.12499570970E+03 0.  0.
    9000005    1    3    3    0    0 -0.48414185226E+02 -0.37041059369E+02  0.52851821923E+02  0.80686358765E+02  0.10000000000E+01 0.  0.
    9000005    1    3    3    0    0  0.48414185226E+02  0.37041059369E+02  0.95530087330E+02  0.11332683264E+03  0.10000000000E+01 0.  0.
<mgrwt>
<rscale>  0 0.12499571E+03</rscale>
<asrwt>0</asrwt>
<pdfrwt beam="1">  1        4 0.26338084E-01 0.12499571E+03</pdfrwt>
<pdfrwt beam="2">  1       -4 0.35100987E-02 0.12499571E+03</pdfrwt>
<totfact> 0.91162441E+03</totfact>
</mgrwt>
</event>
<event>
 5    1  0.3179758E-002  0.1249934E+03  0.7818608E-02  0.1235080E+00
         -4   -1    0    0    0  501 -0.00000000000E+00  0.00000000000E+00  0.10792756271E+03  0.10793503460E+03  0.12700000000E+01 0.  1.
          4   -1    0    0  501    0  0.00000000000E+00 -0.00000000000E+00 -0.36169568830E+02  0.36191858329E+02  0.12700000000E+01 0.  1.
         25    2    1    2    0    0  0.00000000000E+00  0.00000000000E+00  0.71757993884E+02  0.14412689293E+03  0.12499340614E+03 0.  0.
    9000005    1    3    3    0    0  0.51932219786E+02  0.38558829185E+01  0.75706291154E+02  0.91892686353E+02  0.10000000000E+01 0.  0.
    9000005    1    3    3    0    0 -0.51932219786E+02 -0.38558829185E+01 -0.39482972698E+01  0.52234206573E+02  0.10000000000E+01 0.  0.
<mgrwt>
<rscale>  0 0.12499341E+03</rscale>
<asrwt>0</asrwt>
<pdfrwt beam="2">  1        4 0.55668385E-02 0.12499341E+03</pdfrwt>
<pdfrwt beam="1">  1       -4 0.16606529E-01 0.12499341E+03</pdfrwt>
<totfact> 0.10050251E+04</totfact>
</mgrwt>
</event>
<event>
 5    1  0.3179758E-002  0.1249998E+03  0.7818608E-02  0.1235070E+00
         -4   -1    0    0    0  501 -0.00000000000E+00  0.00000000000E+00  0.20969551175E+01  0.24515547648E+01  0.12700000000E+01 0.  1.
          4   -1    0    0  501    0  0.00000000000E+00 -0.00000000000E+00 -0.17172340653E+04  0.17172345349E+04  0.12700000000E+01 0.  1.
         25    2    1    2    0    0  0.00000000000E+00  0.00000000000E+00 -0.17151371102E+04  0.17196860897E+04  0.12499976134E+03 0.  0.
    9000005    1    3    3    0    0  0.37676205659E+02  0.16991522586E+02 -0.15024170180E+04  0.15029857299E+04  0.10000000000E+01 0.  0.
    9000005    1    3    3    0    0 -0.37676205659E+02 -0.16991522586E+02 -0.21272009220E+03  0.21670035980E+03  0.10000000000E+01 0.  0.
<mgrwt>
<rscale>  0 0.12499976E+03</rscale>
<asrwt>0</asrwt>
<pdfrwt beam="2">  1        4 0.26421613E+00 0.12499976E+03</pdfrwt>
<pdfrwt beam="1">  1       -4 0.34992287E-03 0.12499976E+03</pdfrwt>
<totfact> 0.13982272E+03</totfact>
</mgrwt>
</event>
<event>
 5    1  0.3179758E-002  0.1249951E+03  0.7818608E-02  0.1235077E+00
          4   -1    0    0  501    0  0.00000000000E+00  0.00000000000E+00  0.58246971974E+02  0.58260815684E+02  0.12700000000E+01 0.  1.
         -4   -1    0    0    0  501 -0.00000000000E+00 -0.00000000000E+00 -0.67030449344E+02  0.67042479364E+02  0.12700000000E+01 0.  1.
         25    2    1    2    0    0  0.00000000000E+00  0.00000000000E+00 -0.87834773700E+01  0.12530329505E+03  0.12499506500E+03 0.  0.
    9000005    1    3    3    0    0 -0.39020430226E+02  0.47890141849E+02 -0.13842707017E+02  0.63314139012E+02  0.10000000000E+01 0.  0.
    9000005    1    3    3    0    0  0.39020430226E+02 -0.47890141849E+02  0.50592296470E+01  0.61989156035E+02  0.10000000000E+01 0.  0.
<mgrwt>
<rscale>  0 0.12499507E+03</rscale>
<asrwt>0</asrwt>
<pdfrwt beam="1">  1        4 0.89630629E-02 0.12499507E+03</pdfrwt>
<pdfrwt beam="2">  1       -4 0.10314367E-01 0.12499507E+03</pdfrwt>
<totfact> 0.10447444E+04</totfact>
</mgrwt>
</event>
<event>
 5    1  0.3179758E-002  0.1250037E+03  0.7818608E-02  0.1235064E+00
         -4   -1    0    0    0  501 -0.00000000000E+00  0.00000000000E+00  0.50077061135E+03  0.50077222176E+03  0.12700000000E+01 0.  1.
          4   -1    0    0  501    0  0.00000000000E+00 -0.00000000000E+00 -0.77476110629E+01  0.78510112203E+01  0.12700000000E+01 0.  1.
         25    2    1    2    0    0  0.00000000000E+00  0.00000000000E+00  0.49302300028E+03  0.50862323298E+03  0.12500365723E+03 0.  0.
    9000005    1    3    3    0    0 -0.26429378861E+01  0.60706691786E+02  0.18710172063E+03  0.19672402347E+03  0.10000000000E+01 0.  0.
    9000005    1    3    3    0    0  0.26429378861E+01 -0.60706691786E+02  0.30592127965E+03  0.31189920951E+03  0.10000000000E+01 0.  0.
<mgrwt>
<rscale>  0 0.12500366E+03</rscale>
<asrwt>0</asrwt>
<pdfrwt beam="2">  1        4 0.12000179E-02 0.12500366E+03</pdfrwt>
<pdfrwt beam="1">  1       -4 0.77049712E-01 0.12500366E+03</pdfrwt>
<totfact> 0.55197023E+03</totfact>
</mgrwt>
</event>
<event>
 5    1  0.3179758E-002  0.1249996E+03  0.7818608E-02  0.1235070E+00
         -4   -1    0    0    0  501 -0.00000000000E+00  0.00000000000E+00  0.13516793597E+03  0.13517390212E+03  0.12700000000E+01 0. -1.
          4   -1    0    0  501    0  0.00000000000E+00 -0.00000000000E+00 -0.28878473506E+02  0.28906385662E+02  0.12700000000E+01 0. -1.
         25    2    1    2    0    0  0.00000000000E+00  0.00000000000E+00  0.10628946247E+03  0.16408028778E+03  0.12499956403E+03 0.  0.
    9000005    1    3    3    0    0  0.65562572629E+01 -0.31022320777E+02  0.12383114792E+03  0.12783005159E+03  0.10000000000E+01 0.  0.
    9000005    1    3    3    0    0 -0.65562572629E+01  0.31022320777E+02 -0.17541685449E+02  0.36250236193E+02  0.10000000000E+01 0.  0.
<mgrwt>
<rscale>  0 0.12499956E+03</rscale>
<asrwt>0</asrwt>
<pdfrwt beam="2">  1        4 0.44454481E-02 0.12499956E+03</pdfrwt>
<pdfrwt beam="1">  1       -4 0.20797673E-01 0.12499956E+03</pdfrwt>
<totfact> 0.96562801E+03</totfact>
</mgrwt>
</event>
<event>
 5    1  0.3179758E-002  0.1250006E+03  0.7818608E-02  0.1235068E+00
         -4   -1    0    0    0  501 -0.00000000000E+00  0.00000000000E+00  0.17167829045E+02  0.17214739444E+02  0.12700000000E+01 0.  1.
          4   -1    0    0  501    0  0.00000000000E+00 -0.00000000000E+00 -0.22717619906E+03  0.22717974892E+03  0.12700000000E+01 0.  1.
         25    2    1    2    0    0  0.00000000000E+00  0.00000000000E+00 -0.21000837001E+03  0.24439448836E+03  0.12500060186E+03 0.  0.
    9000005    1    3    3    0    0 -0.60826656947E+02  0.31424731970E+01 -0.77664952524E+02  0.98704620884E+02  0.10000000000E+01 0.  0.
    9000005    1    3    3    0    0  0.60826656947E+02 -0.31424731970E+01 -0.13234341749E+03  0.14568986748E+03  0.10000000000E+01 0.  0.
<mgrwt>
<rscale>  0 0.12500060E+03</rscale>
<asrwt>0</asrwt>
<pdfrwt beam="2">  1        4 0.34954064E-01 0.12500060E+03</pdfrwt>
<pdfrwt beam="1">  1       -4 0.26450862E-02 0.12500060E+03</pdfrwt>
<totfact> 0.83146094E+03</totfact>
</mgrwt>
</event>
<event>
 5    1  0.3179758E-002  0.1249991E+03  0.7818608E-02  0.1235071E+00
         -4   -1    0    0    0  501 -0.00000000000E+00  0.00000000000E+00  0.22122596079E+03  0.22122960613E+03  0.12700000000E+01 0.  1.
          4   -1    0    0  501    0  0.00000000000E+00 -0.00000000000E+00 -0.17630411634E+02  0.17676094433E+02  0.12700000000E+01 0.  1.
         25    2    1    2    0    0  0.00000000000E+00  0.00000000000E+00  0.20359554916E+03  0.23890570056E+03  0.12499914449E+03 0.  0.
    9000005    1    3    3    0    0  0.54248040729E+02  0.47346759768E+01  0.16039365728E+03  0.16938828878E+03  0.10000000000E+01 0.  0.
    9000005    1    3    3    0    0 -0.54248040729E+02 -0.47346759768E+01  0.43201891880E+02  0.69517411787E+02  0.10000000000E+01 0.  0.
<mgrwt>
<rscale>  0 0.12499914E+03</rscale>
<asrwt>0</asrwt>
<pdfrwt beam="2">  1        4 0.27161653E-02 0.12499914E+03</pdfrwt>
<pdfrwt beam="1">  1       -4 0.34038559E-01 0.12499914E+03</pdfrwt>
<totfact> 0.83962213E+03</totfact>
</mgrwt>
</event>
<event>
 5    1  0.3179758E-002  0.1250169E+03  0.7818608E-02  0.1235043E+00
         -4   -1    0    0    0  501 -0.00000000000E+00  0.00000000000E+00  0.32724782034E+03  0.32725028467E+03  0.12700000000E+01 0. -1.
          4   -1    0    0  501    0  0.00000000000E+00 -0.00000000000E+00 -0.11903614451E+02  0.11971171079E+02  0.12700000000E+01 0. -1.
         25    2    1    2    0    0  0.00000000000E+00  0.00000000000E+00  0.31534420589E+03  0.33922145575E+03  0.12501691027E+03 0.  0.
    9000005    1    3    3    0    0  0.27639298336E+02 -0.55683205350E+02  0.14013821933E+03  0.15331102598E+03  0.10000000000E+01 0.  0.
    9000005    1    3    3    0    0 -0.27639298336E+02  0.55683205350E+02  0.17520598656E+03  0.18591042977E+03  0.10000000000E+01 0.  0.
<mgrwt>
<rscale>  0 0.12501691E+03</rscale>
<asrwt>0</asrwt>
<pdfrwt beam="2">  1        4 0.18367114E-02 0.12501691E+03</pdfrwt>
<pdfrwt beam="1">  1       -4 0.50351207E-01 0.12501691E+03</pdfrwt>
<totfact> 0.70900279E+03</totfact>
</mgrwt>
</event>
<event>
 5    1  0.3179758E-002  0.1249962E+03  0.7818608E-02  0.1235075E+00
         -4   -1    0    0    0  501 -0.00000000000E+00  0.00000000000E+00  0.33228510856E+02  0.33252771820E+02  0.12700000000E+01 0. -1.
          4   -1    0    0  501    0  0.00000000000E+00 -0.00000000000E+00 -0.11747939724E+03  0.11748626165E+03  0.12700000000E+01 0. -1.
         25    2    1    2    0    0  0.00000000000E+00  0.00000000000E+00 -0.84250886382E+02  0.15073903347E+03  0.12499617736E+03 0.  0.
    9000005    1    3    3    0    0 -0.31500102686E+02  0.21554624627E+02 -0.10179437358E+03  0.10871960635E+03  0.10000000000E+01 0.  0.
    9000005    1    3    3    0    0  0.31500102686E+02 -0.21554624627E+02  0.17543487199E+02  0.42019427116E+02  0.10000000000E+01 0.  0.
<mgrwt>
<rscale>  0 0.12499618E+03</rscale>
<asrwt>0</asrwt>
<pdfrwt beam="2">  1        4 0.18076148E-01 0.12499618E+03</pdfrwt>
<pdfrwt beam="1">  1       -4 0.51144729E-02 0.12499618E+03</pdfrwt>
<totfact> 0.99165117E+03</totfact>
</mgrwt>
</event>
<event>
 5    1  0.3179758E-002  0.1249989E+03  0.7818608E-02  0.1235071E+00
          4   -1    0    0  501    0  0.00000000000E+00  0.00000000000E+00  0.15325230496E+03  0.15325756710E+03  0.12700000000E+01 0. -1.
         -4   -1    0    0    0  501 -0.00000000000E+00 -0.00000000000E+00 -0.25467022511E+02  0.25498669290E+02  0.12700000000E+01 0. -1.
         25    2    1    2    0    0  0.00000000000E+00  0.00000000000E+00  0.12778528244E+03  0.17875623639E+03  0.12499885455E+03 0.  0.
    9000005    1    3    3    0    0 -0.25263964221E+02  0.13479095731E+02  0.14332520035E+03  0.14616109936E+03  0.10000000000E+01 0.  0.
    9000005    1    3    3    0    0  0.25263964221E+02 -0.13479095731E+02 -0.15539917905E+02  0.32595137036E+02  0.10000000000E+01 0.  0.
<mgrwt>
<rscale>  0 0.12499885E+03</rscale>
<asrwt>0</asrwt>
<pdfrwt beam="1">  1        4 0.23580117E-01 0.12499885E+03</pdfrwt>
<pdfrwt beam="2">  1       -4 0.39208426E-02 0.12499885E+03</pdfrwt>
<totfact> 0.93843775E+03</totfact>
</mgrwt>
</event>
<event>
 5    1  0.3179758E-002  0.1250132E+03  0.7818608E-02  0.1235049E+00
         -4   -1    0    0    0  501 -0.00000000000E+00  0.00000000000E+00  0.21200252718E+01  0.24713168864E+01  0.12700000000E+01 0.  1.
          4   -1    0    0  501    0  0.00000000000E+00 -0.00000000000E+00 -0.17015808013E+04  0.17015812753E+04  0.12700000000E+01 0.  1.
         25    2    1    2    0    0  0.00000000000E+00  0.00000000000E+00 -0.16994607761E+04  0.17040525922E+04  0.12501322922E+03 0.  0.
    9000005    1    3    3    0    0  0.15427401787E+02 -0.48998977171E+02 -0.36450348741E+03  0.36810690950E+03  0.10000000000E+01 0.  0.
    9000005    1    3    3    0    0 -0.15427401787E+02  0.48998977171E+02 -0.13349572887E+04  0.13359456827E+04  0.10000000000E+01 0.  0.
<mgrwt>
<rscale>  0 0.12501323E+03</rscale>
<asrwt>0</asrwt>
<pdfrwt beam="2">  1        4 0.26180771E+00 0.12501323E+03</pdfrwt>
<pdfrwt beam="1">  1       -4 0.35321798E-03 0.12501323E+03</pdfrwt>
<totfact> 0.14236395E+03</totfact>
</mgrwt>
</event>
<event>
 5    1  0.3179758E-002  0.1249999E+03  0.7818608E-02  0.1235069E+00
          4   -1    0    0  501    0  0.00000000000E+00  0.00000000000E+00  0.39603153454E+02  0.39623511499E+02  0.12700000000E+01 0. -1.
         -4   -1    0    0    0  501 -0.00000000000E+00 -0.00000000000E+00 -0.98584851441E+02  0.98593031365E+02  0.12700000000E+01 0. -1.
         25    2    1    2    0    0  0.00000000000E+00  0.00000000000E+00 -0.58981697987E+02  0.13821654286E+03  0.12499988809E+03 0.  0.
    9000005    1    3    3    0    0  0.21830325783E+02 -0.47369406577E+02  0.85698223048E+01  0.52866488985E+02  0.10000000000E+01 0.  0.
    9000005    1    3    3    0    0 -0.21830325783E+02  0.47369406577E+02 -0.67551520292E+02  0.85350053878E+02  0.10000000000E+01 0.  0.
<mgrwt>
<rscale>  0 0.12499989E+03</rscale>
<asrwt>0</asrwt>
<pdfrwt beam="1">  1        4 0.60949881E-02 0.12499989E+03</pdfrwt>
<pdfrwt beam="2">  1       -4 0.15169095E-01 0.12499989E+03</pdfrwt>
<totfact> 0.10170709E+04</totfact>
</mgrwt>
</event>
<event>
 5    1  0.3179758E-002  0.1249974E+03  0.7818608E-02  0.1235073E+00
          4   -1    0    0  501    0  0.00000000000E+00  0.00000000000E+00  0.30297091954E+03  0.30297358134E+03  0.12700000000E+01 0. -1.
         -4   -1    0    0    0  501 -0.00000000000E+00 -0.00000000000E+00 -0.12858610218E+02  0.12921174743E+02  0.12700000000E+01 0. -1.
         25    2    1    2    0    0  0.00000000000E+00  0.00000000000E+00  0.29011230932E+03  0.31589475608E+03  0.12499737956E+03 0.  0.
    9000005    1    3    3    0    0 -0.30858541959E+02 -0.22160283558E+02  0.27044653689E+03  0.27310374786E+03  0.10000000000E+01 0.  0.
    9000005    1    3    3    0    0  0.30858541959E+02  0.22160283558E+02  0.19665772437E+02  0.42791008223E+02  0.10000000000E+01 0.  0.
<mgrwt>
<rscale>  0 0.12499738E+03</rscale>
<asrwt>0</asrwt>
<pdfrwt beam="1">  1        4 0.46615927E-01 0.12499738E+03</pdfrwt>
<pdfrwt beam="2">  1       -4 0.19832652E-02 0.12499738E+03</pdfrwt>
<totfact> 0.73651343E+03</totfact>
</mgrwt>
</event>
<event>
 5    1  0.3179758E-002  0.1249737E+03  0.7818608E-02  0.1235110E+00
          4   -1    0    0  501    0  0.00000000000E+00  0.00000000000E+00  0.66058133828E+01  0.67267875281E+01  0.12700000000E+01 0.  1.
         -4   -1    0    0    0  501 -0.00000000000E+00 -0.00000000000E+00 -0.58560129417E+03  0.58560267130E+03  0.12700000000E+01 0.  1.
         25    2    1    2    0    0  0.00000000000E+00  0.00000000000E+00 -0.57899548079E+03  0.59232945883E+03  0.12497368132E+03 0.  0.
    9000005    1    3    3    0    0 -0.62421613354E+02 -0.58125850832E-01 -0.30216601370E+03  0.30854782616E+03  0.10000000000E+01 0.  0.
    9000005    1    3    3    0    0  0.62421613354E+02  0.58125850832E-01 -0.27682946709E+03  0.28378163267E+03  0.10000000000E+01 0.  0.
<mgrwt>
<rscale>  0 0.12497368E+03</rscale>
<asrwt>0</asrwt>
<pdfrwt beam="1">  1        4 0.10256911E-02 0.12497368E+03</pdfrwt>
<pdfrwt beam="2">  1       -4 0.90101878E-01 0.12497368E+03</pdfrwt>
<totfact> 0.49383920E+03</totfact>
</mgrwt>
</event>
<event>
 5    1  0.3179758E-002  0.1250004E+03  0.7818608E-02  0.1235069E+00
          4   -1    0    0  501    0  0.00000000000E+00  0.00000000000E+00  0.24709013512E+02  0.24741629872E+02  0.12700000000E+01 0.  1.
         -4   -1    0    0    0  501 -0.00000000000E+00 -0.00000000000E+00 -0.15795156618E+03  0.15795667178E+03  0.12700000000E+01 0.  1.
         25    2    1    2    0    0  0.00000000000E+00  0.00000000000E+00 -0.13324255267E+03  0.18269830165E+03  0.12500036634E+03 0.  0.
    9000005    1    3    3    0    0 -0.60157525242E+02 -0.14756565322E+02 -0.54516690618E+02  0.82521231324E+02  0.10000000000E+01 0.  0.
    9000005    1    3    3    0    0  0.60157525242E+02  0.14756565322E+02 -0.78725862051E+02  0.10017707033E+03  0.10000000000E+01 0.  0.
<mgrwt>
<rscale>  0 0.12500037E+03</rscale>
<asrwt>0</asrwt>
<pdfrwt beam="1">  1        4 0.38042885E-02 0.12500037E+03</pdfrwt>
<pdfrwt beam="2">  1       -4 0.24303142E-01 0.12500037E+03</pdfrwt>
<totfact> 0.93132778E+03</totfact>
</mgrwt>
</event>
<event>
 5    1  0.3179758E-002  0.1249991E+03  0.7818608E-02  0.1235071E+00
         -4   -1    0    0    0  501 -0.00000000000E+00  0.00000000000E+00  0.41302945050E+01  0.43211378939E+01  0.12700000000E+01 0. -1.
          4   -1    0    0  501    0  0.00000000000E+00 -0.00000000000E+00 -0.92419458169E+03  0.92419545429E+03  0.12700000000E+01 0. -1.
         25    2    1    2    0    0  0.00000000000E+00  0.00000000000E+00 -0.92006428718E+03  0.92851659218E+03  0.12499907761E+03 0.  0.
    9000005    1    3    3    0    0 -0.23042026899E+02 -0.57994224655E+02 -0.43547723210E+03  0.43992690844E+03  0.10000000000E+01 0.  0.
    9000005    1    3    3    0    0  0.23042026899E+02  0.57994224655E+02 -0.48458705509E+03  0.48858968374E+03  0.10000000000E+01 0.  0.
<mgrwt>
<rscale>  0 0.12499908E+03</rscale>
<asrwt>0</asrwt>
<pdfrwt beam="2">  1        4 0.14219837E+00 0.12499908E+03</pdfrwt>
<pdfrwt beam="1">  1       -4 0.65017804E-03 0.12499908E+03</pdfrwt>
<totfact> 0.33091907E+03</totfact>
</mgrwt>
</event>
<event>
 5    1  0.3179758E-002  0.1250003E+03  0.7818608E-02  0.1235069E+00
          4   -1    0    0  501    0  0.00000000000E+00  0.00000000000E+00  0.41203939531E+02  0.41223507042E+02  0.12700000000E+01 0.  1.
         -4   -1    0    0    0  501 -0.00000000000E+00 -0.00000000000E+00 -0.94756923259E+02  0.94765433601E+02  0.12700000000E+01 0.  1.
         25    2    1    2    0    0  0.00000000000E+00  0.00000000000E+00 -0.53552983728E+02  0.13598894064E+03  0.12500027964E+03 0.  0.
    9000005    1    3    3    0    0  0.83065488274E+01 -0.49827364980E+02 -0.66800642546E+02  0.83756139469E+02  0.10000000000E+01 0.  0.
    9000005    1    3    3    0    0 -0.83065488274E+01  0.49827364980E+02  0.13247658818E+02  0.52232801174E+02  0.10000000000E+01 0.  0.
<mgrwt>
<rscale>  0 0.12500028E+03</rscale>
<asrwt>0</asrwt>
<pdfrwt beam="1">  1        4 0.63412275E-02 0.12500028E+03</pdfrwt>
<pdfrwt beam="2">  1       -4 0.14580148E-01 0.12500028E+03</pdfrwt>
<totfact> 0.10217204E+04</totfact>
</mgrwt>
</event>
<event>
 5    1  0.3179758E-002  0.1249992E+03  0.7818608E-02  0.1235070E+00
          4   -1    0    0  501    0  0.00000000000E+00  0.00000000000E+00  0.88555775500E+02  0.88564881722E+02  0.12700000000E+01 0.  1.
         -4   -1    0    0    0  501 -0.00000000000E+00 -0.00000000000E+00 -0.44089568379E+02  0.44107855761E+02  0.12700000000E+01 0.  1.
         25    2    1    2    0    0  0.00000000000E+00  0.00000000000E+00  0.44466207121E+02  0.13267273748E+03  0.12499924678E+03 0.  0.
    9000005    1    3    3    0    0 -0.54533584773E+02 -0.27978882309E+02  0.93001318047E+01  0.62001791708E+02  0.10000000000E+01 0.  0.
    9000005    1    3    3    0    0  0.54533584773E+02  0.27978882309E+02  0.35166075317E+02  0.70670945774E+02  0.10000000000E+01 0.  0.
<mgrwt>
<rscale>  0 0.12499925E+03</rscale>
<asrwt>0</asrwt>
<pdfrwt beam="1">  1        4 0.13626073E-01 0.12499925E+03</pdfrwt>
<pdfrwt beam="2">  1       -4 0.67851178E-02 0.12499925E+03</pdfrwt>
<totfact> 0.10287535E+04</totfact>
</mgrwt>
</event>
<event>
 5    1  0.3179758E-002  0.1249986E+03  0.7818608E-02  0.1235072E+00
         -4   -1    0    0    0  501 -0.00000000000E+00  0.00000000000E+00  0.13009740039E+02  0.13071581231E+02  0.12700000000E+01 0.  1.
          4   -1    0    0  501    0  0.00000000000E+00 -0.00000000000E+00 -0.29947380187E+03  0.29947649475E+03  0.12700000000E+01 0.  1.
         25    2    1    2    0    0  0.00000000000E+00  0.00000000000E+00 -0.28646406183E+03  0.31254807598E+03  0.12499856430E+03 0.  0.
    9000005    1    3    3    0    0  0.32079748957E+02 -0.14939959205E+02 -0.27201782355E+03  0.27431188273E+03  0.10000000000E+01 0.  0.
    9000005    1    3    3    0    0 -0.32079748957E+02  0.14939959205E+02 -0.14446238279E+02  0.38236193254E+02  0.10000000000E+01 0.  0.
<mgrwt>
<rscale>  0 0.12499856E+03</rscale>
<asrwt>0</asrwt>
<pdfrwt beam="2">  1        4 0.46077852E-01 0.12499856E+03</pdfrwt>
<pdfrwt beam="1">  1       -4 0.20064628E-02 0.12499856E+03</pdfrwt>
<totfact> 0.74053647E+03</totfact>
</mgrwt>
</event>
<event>
 5    1  0.3179758E-002  0.1250000E+03  0.7818608E-02  0.1235069E+00
         -4   -1    0    0    0  501 -0.00000000000E+00  0.00000000000E+00  0.57443668149E+02  0.57457705405E+02  0.12700000000E+01 0. -1.
          4   -1    0    0  501    0  0.00000000000E+00 -0.00000000000E+00 -0.67973175065E+02  0.67985038269E+02  0.12700000000E+01 0. -1.
         25    2    1    2    0    0  0.00000000000E+00  0.00000000000E+00 -0.10529506916E+02  0.12544274367E+03  0.12500004570E+03 0.  0.
    9000005    1    3    3    0    0  0.62374423549E+02  0.30840886470E+01 -0.75471300959E+01  0.62912951676E+02  0.10000000000E+01 0.  0.
    9000005    1    3    3    0    0 -0.62374423549E+02 -0.30840886470E+01 -0.29823768200E+01  0.62529791998E+02  0.10000000000E+01 0.  0.
<mgrwt>
<rscale>  0 0.12500005E+03</rscale>
<asrwt>0</asrwt>
<pdfrwt beam="2">  1        4 0.10459404E-01 0.12500005E+03</pdfrwt>
<pdfrwt beam="1">  1       -4 0.88394797E-02 0.12500005E+03</pdfrwt>
<totfact> 0.10443210E+04</totfact>
</mgrwt>
</event>
<event>
 5    1  0.3179758E-002  0.1249998E+03  0.7818608E-02  0.1235070E+00
         -4   -1    0    0    0  501 -0.00000000000E+00  0.00000000000E+00  0.11652879237E+04  0.11652886158E+04  0.12700000000E+01 0. -1.
          4   -1    0    0  501    0  0.00000000000E+00 -0.00000000000E+00 -0.32311592225E+01  0.34717848322E+01  0.12700000000E+01 0. -1.
         25    2    1    2    0    0  0.00000000000E+00  0.00000000000E+00  0.11620567645E+04  0.11687604006E+04  0.12499980050E+03 0.  0.
    9000005    1    3    3    0    0  0.35747672033E+02  0.43786047169E+02  0.83019113839E+03  0.83211383851E+03  0.10000000000E+01 0.  0.
    9000005    1    3    3    0    0 -0.35747672033E+02 -0.43786047169E+02  0.33186562612E+03  0.33664656212E+03  0.10000000000E+01 0.  0.
<mgrwt>
<rscale>  0 0.12499980E+03</rscale>
<asrwt>0</asrwt>
<pdfrwt beam="2">  1        4 0.51566438E-03 0.12499980E+03</pdfrwt>
<pdfrwt beam="1">  1       -4 0.17929360E+00 0.12499980E+03</pdfrwt>
<totfact> 0.25545512E+03</totfact>
</mgrwt>
</event>
<event>
 5    1  0.3179758E-002  0.1249983E+03  0.7818608E-02  0.1235072E+00
          4   -1    0    0  501    0  0.00000000000E+00  0.00000000000E+00  0.12154206657E+02  0.12220378041E+02  0.12700000000E+01 0. -1.
         -4   -1    0    0    0  501 -0.00000000000E+00 -0.00000000000E+00 -0.32044193193E+03  0.32044444860E+03  0.12700000000E+01 0. -1.
         25    2    1    2    0    0  0.00000000000E+00  0.00000000000E+00 -0.30828772527E+03  0.33266482664E+03  0.12499826131E+03 0.  0.
    9000005    1    3    3    0    0  0.27306467983E+01 -0.45313760330E+02 -0.39849621139E+02  0.60413455555E+02  0.10000000000E+01 0.  0.
    9000005    1    3    3    0    0 -0.27306467983E+01  0.45313760330E+02 -0.26843810413E+03  0.27225137108E+03  0.10000000000E+01 0.  0.
<mgrwt>
<rscale>  0 0.12499826E+03</rscale>
<asrwt>0</asrwt>
<pdfrwt beam="1">  1        4 0.18751619E-02 0.12499826E+03</pdfrwt>
<pdfrwt beam="2">  1       -4 0.49304036E-01 0.12499826E+03</pdfrwt>
<totfact> 0.71677470E+03</totfact>
</mgrwt>
</event>
<event>
 5    1  0.3179758E-002  0.1250023E+03  0.7818608E-02  0.1235066E+00
         -4   -1    0    0    0  501 -0.00000000000E+00  0.00000000000E+00  0.86416624853E+02  0.86425956466E+02  0.12700000000E+01 0.  1.
          4   -1    0    0  501    0  0.00000000000E+00 -0.00000000000E+00 -0.45183510014E+02  0.45201354816E+02  0.12700000000E+01 0.  1.
         25    2    1    2    0    0  0.00000000000E+00  0.00000000000E+00  0.41233114839E+02  0.13162731128E+03  0.12500231724E+03 0.  0.
    9000005    1    3    3    0    0 -0.11444825217E+02 -0.52223859199E+02 -0.13457020595E+02  0.55139884813E+02  0.10000000000E+01 0.  0.
    9000005    1    3    3    0    0  0.11444825217E+02  0.52223859199E+02  0.54690135434E+02  0.76487426468E+02  0.10000000000E+01 0.  0.
<mgrwt>
<rscale>  0 0.12500232E+03</rscale>
<asrwt>0</asrwt>
<pdfrwt beam="2">  1        4 0.69533997E-02 0.12500232E+03</pdfrwt>
<pdfrwt beam="1">  1       -4 0.13296956E-01 0.12500232E+03</pdfrwt>
<totfact> 0.10309121E+04</totfact>
</mgrwt>
</event>
<event>
 5    1  0.3179758E-002  0.1249561E+03  0.7818608E-02  0.1235138E+00
         -4   -1    0    0    0  501 -0.00000000000E+00  0.00000000000E+00  0.64465874952E+02  0.64478383458E+02  0.12700000000E+01 0. -1.
          4   -1    0    0  501    0  0.00000000000E+00 -0.00000000000E+00 -0.60526489690E+02  0.60539812142E+02  0.12700000000E+01 0. -1.
         25    2    1    2    0    0  0.00000000000E+00  0.00000000000E+00  0.39393852625E+01  0.12501819560E+03  0.12495611420E+03 0.  0.
    9000005    1    3    3    0    0  0.95280665442E+01  0.51925893254E+01 -0.59581280142E+02  0.60569596163E+02  0.10000000000E+01 0.  0.
    9000005    1    3    3    0    0 -0.95280665442E+01 -0.51925893254E+01  0.63520665404E+02  0.64448599437E+02  0.10000000000E+01 0.  0.
<mgrwt>
<rscale>  0 0.12495611E+03</rscale>
<asrwt>0</asrwt>
<pdfrwt beam="2">  1        4 0.93137547E-02 0.12495611E+03</pdfrwt>
<pdfrwt beam="1">  1       -4 0.99198139E-02 0.12495611E+03</pdfrwt>
<totfact> 0.10462841E+04</totfact>
</mgrwt>
</event>
<event>
 5    1  0.3179758E-002  0.1250001E+03  0.7818608E-02  0.1235069E+00
         -4   -1    0    0    0  501 -0.00000000000E+00  0.00000000000E+00  0.21285561049E+02  0.21323414576E+02  0.12700000000E+01 0. -1.
          4   -1    0    0  501    0  0.00000000000E+00 -0.00000000000E+00 -0.18331355416E+03  0.18331795340E+03  0.12700000000E+01 0. -1.
         25    2    1    2    0    0  0.00000000000E+00  0.00000000000E+00 -0.16202799311E+03  0.20464136797E+03  0.12500007574E+03 0.  0.
    9000005    1    3    3    0    0  0.57262509806E+02  0.83027723438E+01 -0.42365117665E+02  0.71719831655E+02  0.10000000000E+01 0.  0.
    9000005    1    3    3    0    0 -0.57262509806E+02 -0.83027723438E+01 -0.11966287544E+03  0.13292153632E+03  0.10000000000E+01 0.  0.
<mgrwt>
<rscale>  0 0.12500008E+03</rscale>
<asrwt>0</asrwt>
<pdfrwt beam="2">  1        4 0.28205335E-01 0.12500008E+03</pdfrwt>
<pdfrwt beam="1">  1       -4 0.32779520E-02 0.12500008E+03</pdfrwt>
<totfact> 0.89358411E+03</totfact>
</mgrwt>
</event>
<event>
 5    1  0.3179758E-002  0.1249865E+03  0.7818608E-02  0.1235090E+00
         -4   -1    0    0    0  501 -0.00000000000E+00  0.00000000000E+00  0.19129829413E+02  0.19171939739E+02  0.12700000000E+01 0.  1.
          4   -1    0    0  501    0  0.00000000000E+00 -0.00000000000E+00 -0.20388408312E+03  0.20388803852E+03  0.12700000000E+01 0.  1.
         25    2    1    2    0    0  0.00000000000E+00  0.00000000000E+00 -0.18475425371E+03  0.22305997826E+03  0.12498647781E+03 0.  0.
    9000005    1    3    3    0    0  0.46108417879E+01 -0.55398393584E+02 -0.41454087551E+02  0.69351879919E+02  0.10000000000E+01 0.  0.
    9000005    1    3    3    0    0 -0.46108417879E+01  0.55398393584E+02 -0.14330016616E+03  0.15370809834E+03  0.10000000000E+01 0.  0.
<mgrwt>
<rscale>  0 0.12498648E+03</rscale>
<asrwt>0</asrwt>
<pdfrwt beam="2">  1        4 0.31370324E-01 0.12498648E+03</pdfrwt>
<pdfrwt beam="1">  1       -4 0.29465943E-02 0.12498648E+03</pdfrwt>
<totfact> 0.86412543E+03</totfact>
</mgrwt>
</event>
<event>
 5    1  0.3179758E-002  0.1250042E+03  0.7818608E-02  0.1235063E+00
          4   -1    0    0  501    0  0.00000000000E+00  0.00000000000E+00  0.24959207084E+02  0.24991496919E+02  0.12700000000E+01 0.  1.
         -4   -1    0    0    0  501 -0.00000000000E+00 -0.00000000000E+00 -0.15637981826E+03  0.15638497517E+03  0.12700000000E+01 0.  1.
         25    2    1    2    0    0  0.00000000000E+00  0.00000000000E+00 -0.13142061118E+03  0.18137647209E+03  0.12500419027E+03 0.  0.
    9000005    1    3    3    0    0 -0.59904144050E+01 -0.60688782206E+01  0.24118206427E+02  0.25600863830E+02  0.10000000000E+01 0.  0.
    9000005    1    3    3    0    0  0.59904144050E+01  0.60688782206E+01 -0.15553881760E+03  0.15577560826E+03  0.10000000000E+01 0.  0.
<mgrwt>
<rscale>  0 0.12500419E+03</rscale>
<asrwt>0</asrwt>
<pdfrwt beam="1">  1        4 0.38427587E-02 0.12500419E+03</pdfrwt>
<pdfrwt beam="2">  1       -4 0.24061313E-01 0.12500419E+03</pdfrwt>
<totfact> 0.93361049E+03</totfact>
</mgrwt>
</event>
<event>
 5    1  0.3179758E-002  0.1250011E+03  0.7818608E-02  0.1235068E+00
         -4   -1    0    0    0  501 -0.00000000000E+00  0.00000000000E+00  0.24201729620E+01  0.27331551668E+01  0.12700000000E+01 0. -1.
          4   -1    0    0  501    0  0.00000000000E+00 -0.00000000000E+00 -0.15157231517E+04  0.15157236837E+04  0.12700000000E+01 0. -1.
         25    2    1    2    0    0  0.00000000000E+00  0.00000000000E+00 -0.15133029787E+04  0.15184568389E+04  0.12500106485E+03 0.  0.
    9000005    1    3    3    0    0 -0.22184383752E+02 -0.33833345910E+01 -0.48154197664E+02  0.53135869129E+02  0.10000000000E+01 0.  0.
    9000005    1    3    3    0    0  0.22184383752E+02  0.33833345910E+01 -0.14651487810E+04  0.14653209698E+04  0.10000000000E+01 0.  0.
<mgrwt>
<rscale>  0 0.12500106E+03</rscale>
<asrwt>0</asrwt>
<pdfrwt beam="2">  1        4 0.23321158E+00 0.12500106E+03</pdfrwt>
<pdfrwt beam="1">  1       -4 0.39645199E-03 0.12500106E+03</pdfrwt>
<totfact> 0.17570105E+03</totfact>
</mgrwt>
</event>
<event>
 5    1  0.3179758E-002  0.1249971E+03  0.7818608E-02  0.1235074E+00
         -4   -1    0    0    0  501 -0.00000000000E+00  0.00000000000E+00  0.16851697555E+01  0.21101414893E+01  0.12700000000E+01 0.  1.
          4   -1    0    0  501    0  0.00000000000E+00 -0.00000000000E+00 -0.20579403792E+04  0.20579407711E+04  0.12700000000E+01 0.  1.
         25    2    1    2    0    0  0.00000000000E+00  0.00000000000E+00 -0.20562552094E+04  0.20600509126E+04  0.12499710388E+03 0.  0.
    9000005    1    3    3    0    0 -0.21870905980E+02  0.19556133327E+02 -0.19374565631E+04  0.19376789499E+04  0.10000000000E+01 0.  0.
    9000005    1    3    3    0    0  0.21870905980E+02 -0.19556133327E+02 -0.11879864634E+03  0.12237196268E+03  0.10000000000E+01 0.  0.
<mgrwt>
<rscale>  0 0.12499710E+03</rscale>
<asrwt>0</asrwt>
<pdfrwt beam="2">  1        4 0.31663715E+00 0.12499710E+03</pdfrwt>
<pdfrwt beam="1">  1       -4 0.29197881E-03 0.12499710E+03</pdfrwt>
<totfact> 0.90984082E+02</totfact>
</mgrwt>
</event>
<event>
 5    1  0.3179758E-002  0.1250004E+03  0.7818608E-02  0.1235069E+00
          4   -1    0    0  501    0  0.00000000000E+00  0.00000000000E+00  0.52308645918E+02  0.52324060792E+02  0.12700000000E+01 0. -1.
         -4   -1    0    0    0  501 -0.00000000000E+00 -0.00000000000E+00 -0.74645662148E+02  0.74656465075E+02  0.12700000000E+01 0. -1.
         25    2    1    2    0    0  0.00000000000E+00  0.00000000000E+00 -0.22337016229E+02  0.12698052587E+03  0.12500044662E+03 0.  0.
    9000005    1    3    3    0    0 -0.21049014961E+02  0.48354148308E+02 -0.45227102590E+02  0.69481475935E+02  0.10000000000E+01 0.  0.
    9000005    1    3    3    0    0  0.21049014961E+02 -0.48354148308E+02  0.22890086361E+02  0.57499049932E+02  0.10000000000E+01 0.  0.
<mgrwt>
<rscale>  0 0.12500045E+03</rscale>
<asrwt>0</asrwt>
<pdfrwt beam="1">  1        4 0.80495007E-02 0.12500045E+03</pdfrwt>
<pdfrwt beam="2">  1       -4 0.11485965E-01 0.12500045E+03</pdfrwt>
<totfact> 0.10409464E+04</totfact>
</mgrwt>
</event>
<event>
 5    1  0.3179758E-002  0.1249954E+03  0.7818608E-02  0.1235076E+00
          4   -1    0    0  501    0  0.00000000000E+00  0.00000000000E+00  0.43692342129E+02  0.43710795700E+02  0.12700000000E+01 0.  1.
         -4   -1    0    0    0  501 -0.00000000000E+00 -0.00000000000E+00 -0.89355183123E+02  0.89364207885E+02  0.12700000000E+01 0.  1.
         25    2    1    2    0    0  0.00000000000E+00  0.00000000000E+00 -0.45662840994E+02  0.13307500359E+03  0.12499544604E+03 0.  0.
    9000005    1    3    3    0    0 -0.24399962708E+02  0.52321213331E+02  0.26332141350E+01  0.57799665754E+02  0.10000000000E+01 0.  0.
    9000005    1    3    3    0    0  0.24399962708E+02 -0.52321213331E+02 -0.48296055129E+02  0.75275337831E+02  0.10000000000E+01 0.  0.
<mgrwt>
<rscale>  0 0.12499545E+03</rscale>
<asrwt>0</asrwt>
<pdfrwt beam="1">  1        4 0.67240125E-02 0.12499545E+03</pdfrwt>
<pdfrwt beam="2">  1       -4 0.13749065E-01 0.12499545E+03</pdfrwt>
<totfact> 0.10279862E+04</totfact>
</mgrwt>
</event>
<event>
 5    1  0.3179758E-002  0.1250026E+03  0.7818608E-02  0.1235065E+00
         -4   -1    0    0    0  501 -0.00000000000E+00  0.00000000000E+00  0.90430337764E+02  0.90439255239E+02  0.12700000000E+01 0.  1.
          4   -1    0    0  501    0  0.00000000000E+00 -0.00000000000E+00 -0.43177657424E+02  0.43196330870E+02  0.12700000000E+01 0.  1.
         25    2    1    2    0    0  0.00000000000E+00  0.00000000000E+00  0.47252680340E+02  0.13363558611E+03  0.12500261627E+03 0.  0.
    9000005    1    3    3    0    0  0.38387839484E+02  0.29808189707E+02 -0.18371063898E+02  0.51967782160E+02  0.10000000000E+01 0.  0.
    9000005    1    3    3    0    0 -0.38387839484E+02 -0.29808189707E+02  0.65623744238E+02  0.81667803948E+02  0.10000000000E+01 0.  0.
<mgrwt>
<rscale>  0 0.12500262E+03</rscale>
<asrwt>0</asrwt>
<pdfrwt beam="2">  1        4 0.66448390E-02 0.12500262E+03</pdfrwt>
<pdfrwt beam="1">  1       -4 0.13914482E-01 0.12500262E+03</pdfrwt>
<totfact> 0.10266304E+04</totfact>
</mgrwt>
</event>
<event>
 5    1  0.3179758E-002  0.1249979E+03  0.7818608E-02  0.1235072E+00
          4   -1    0    0  501    0  0.00000000000E+00  0.00000000000E+00  0.12044397695E+02  0.12111169053E+02  0.12700000000E+01 0. -1.
         -4   -1    0    0    0  501 -0.00000000000E+00 -0.00000000000E+00 -0.32334578229E+03  0.32334827636E+03  0.12700000000E+01 0. -1.
         25    2    1    2    0    0  0.00000000000E+00  0.00000000000E+00 -0.31130138460E+03  0.33545944542E+03  0.12499794985E+03 0.  0.
    9000005    1    3    3    0    0  0.31079719482E+02 -0.53957148090E+02 -0.16980055724E+03  0.18086058728E+03  0.10000000000E+01 0.  0.
    9000005    1    3    3    0    0 -0.31079719482E+02  0.53957148090E+02 -0.14150082736E+03  0.15459885813E+03  0.10000000000E+01 0.  0.
<mgrwt>
<rscale>  0 0.12499795E+03</rscale>
<asrwt>0</asrwt>
<pdfrwt beam="1">  1        4 0.18583126E-02 0.12499795E+03</pdfrwt>
<pdfrwt beam="2">  1       -4 0.49750826E-01 0.12499795E+03</pdfrwt>
<totfact> 0.71357628E+03</totfact>
</mgrwt>
</event>
<event>
 5    1  0.3179758E-002  0.1250016E+03  0.7818608E-02  0.1235067E+00
          4   -1    0    0  501    0  0.00000000000E+00  0.00000000000E+00  0.53498502861E+03  0.53498653603E+03  0.12700000000E+01 0.  1.
         -4   -1    0    0    0  501 -0.00000000000E+00 -0.00000000000E+00 -0.72450457866E+01  0.73555141527E+01  0.12700000000E+01 0.  1.
         25    2    1    2    0    0  0.00000000000E+00  0.00000000000E+00  0.52773998282E+03  0.54234205018E+03  0.12500163971E+03 0.  0.
    9000005    1    3    3    0    0 -0.28474144370E+02  0.50609446673E+02  0.36406056570E+03  0.36866405912E+03  0.10000000000E+01 0.  0.
    9000005    1    3    3    0    0  0.28474144370E+02 -0.50609446673E+02  0.16367941712E+03  0.17367799106E+03  0.10000000000E+01 0.  0.
<mgrwt>
<rscale>  0 0.12500164E+03</rscale>
<asrwt>0</asrwt>
<pdfrwt beam="1">  1        4 0.82314040E-01 0.12500164E+03</pdfrwt>
<pdfrwt beam="2">  1       -4 0.11232354E-02 0.12500164E+03</pdfrwt>
<totfact> 0.52720651E+03</totfact>
</mgrwt>
</event>
<event>
 4    1  0.3179758E-002  0.1231549E+03  0.7818608E-02  0.1237981E+00
         -4   -1    0    0    0  501 -0.00000000000E+00  0.00000000000E+00  0.40224881544E+03  0.40225082029E+03  0.12700000000E+01 0. -1.
          4   -1    0    0  501    0  0.00000000000E+00 -0.00000000000E+00 -0.93816403261E+01  0.94672105294E+01  0.12700000000E+01 0. -1.
    9000005    1    1    2    0    0 -0.50089717855E+02  0.25846687187E+02  0.27925519783E+03  0.28488856872E+03  0.10000000000E+01 0.  0.
    9000005    1    1    2    0    0  0.50089717855E+02 -0.25846687187E+02  0.11361197729E+03  0.12682946210E+03  0.10000000000E+01 0.  0.
<mgrwt>
<rscale>  0 0.12315486E+03</rscale>
<asrwt>0</asrwt>
<pdfrwt beam="2">  1        4 0.14500660E-02 0.12315486E+03</pdfrwt>
<pdfrwt beam="1">  1       -4 0.61891163E-01 0.12315486E+03</pdfrwt>
<totfact> 0.66082314E+03</totfact>
</mgrwt>
</event>
<event>
 5    1  0.3179758E-002  0.1249956E+03  0.7818608E-02  0.1235076E+00
          4   -1    0    0  501    0  0.00000000000E+00  0.00000000000E+00  0.65630613153E+02  0.65642899714E+02  0.12700000000E+01 0. -1.
         -4   -1    0    0    0  501 -0.00000000000E+00 -0.00000000000E+00 -0.59489917153E+02  0.59503471688E+02  0.12700000000E+01 0. -1.
         25    2    1    2    0    0  0.00000000000E+00  0.00000000000E+00  0.61406960003E+01  0.12514637140E+03  0.12499562443E+03 0.  0.
    9000005    1    3    3    0    0  0.24734388941E+02 -0.14278610199E+02  0.58718922476E+02  0.65303756111E+02  0.10000000000E+01 0.  0.
    9000005    1    3    3    0    0 -0.24734388941E+02  0.14278610199E+02 -0.52578226476E+02  0.59842615291E+02  0.10000000000E+01 0.  0.
<mgrwt>
<rscale>  0 0.12499562E+03</rscale>
<asrwt>0</asrwt>
<pdfrwt beam="1">  1        4 0.10099005E-01 0.12499562E+03</pdfrwt>
<pdfrwt beam="2">  1       -4 0.91542827E-02 0.12499562E+03</pdfrwt>
<totfact> 0.10450718E+04</totfact>
</mgrwt>
</event>
<event>
 5    1  0.3179758E-002  0.1249978E+03  0.7818608E-02  0.1235073E+00
          4   -1    0    0  501    0  0.00000000000E+00  0.00000000000E+00  0.14272177953E+02  0.14328571580E+02  0.12700000000E+01 0.  1.
         -4   -1    0    0    0  501 -0.00000000000E+00 -0.00000000000E+00 -0.27308969477E+03  0.27309264781E+03  0.12700000000E+01 0.  1.
         25    2    1    2    0    0  0.00000000000E+00  0.00000000000E+00 -0.25881751682E+03  0.28742121939E+03  0.12499780137E+03 0.  0.
    9000005    1    3    3    0    0  0.54737504555E+02  0.73775321992E+00 -0.60106278192E+02  0.81305002078E+02  0.10000000000E+01 0.  0.
    9000005    1    3    3    0    0 -0.54737504555E+02 -0.73775321992E+00 -0.19871123863E+03  0.20611621732E+03  0.10000000000E+01 0.  0.
<mgrwt>
<rscale>  0 0.12499780E+03</rscale>
<asrwt>0</asrwt>
<pdfrwt beam="1">  1        4 0.22002850E-02 0.12499780E+03</pdfrwt>
<pdfrwt beam="2">  1       -4 0.42018361E-01 0.12499780E+03</pdfrwt>
<totfact> 0.77208057E+03</totfact>
</mgrwt>
</event>
<event>
 5    1  0.3179758E-002  0.1250131E+03  0.7818608E-02  0.1235049E+00
          4   -1    0    0  501    0  0.00000000000E+00  0.00000000000E+00  0.16477640774E+03  0.16478130188E+03  0.12700000000E+01 0. -1.
         -4   -1    0    0    0  501 -0.00000000000E+00 -0.00000000000E+00 -0.23689096135E+02  0.23723114797E+02  0.12700000000E+01 0. -1.
         25    2    1    2    0    0  0.00000000000E+00  0.00000000000E+00  0.14108731161E+03  0.18850441668E+03  0.12501314175E+03 0.  0.
    9000005    1    3    3    0    0  0.44522271262E+02 -0.15012157823E+02  0.13268709675E+03  0.14076385603E+03  0.10000000000E+01 0.  0.
    9000005    1    3    3    0    0 -0.44522271262E+02  0.15012157823E+02  0.84002148570E+01  0.47740560643E+02  0.10000000000E+01 0.  0.
<mgrwt>
<rscale>  0 0.12501314E+03</rscale>
<asrwt>0</asrwt>
<pdfrwt beam="1">  1        4 0.25353209E-01 0.12501314E+03</pdfrwt>
<pdfrwt beam="2">  1       -4 0.36474698E-02 0.12501314E+03</pdfrwt>
<totfact> 0.92081082E+03</totfact>
</mgrwt>
</event>
<event>
 5    1  0.3179758E-002  0.1250022E+03  0.7818608E-02  0.1235066E+00
         -4   -1    0    0    0  501 -0.00000000000E+00  0.00000000000E+00  0.39993112845E+02  0.40013272485E+02  0.12700000000E+01 0. -1.
          4   -1    0    0  501    0  0.00000000000E+00 -0.00000000000E+00 -0.97627608022E+02  0.97635868144E+02  0.12700000000E+01 0. -1.
         25    2    1    2    0    0  0.00000000000E+00  0.00000000000E+00 -0.57634495178E+02  0.13764914063E+03  0.12500220351E+03 0.  0.
    9000005    1    3    3    0    0  0.20792249856E+02 -0.15225230590E+02 -0.91509364180E+02  0.95074123889E+02  0.10000000000E+01 0.  0.
    9000005    1    3    3    0    0 -0.20792249856E+02  0.15225230590E+02  0.33874869002E+02  0.42575016741E+02  0.10000000000E+01 0.  0.
<mgrwt>
<rscale>  0 0.12500220E+03</rscale>
<asrwt>0</asrwt>
<pdfrwt beam="2">  1        4 0.15021818E-01 0.12500220E+03</pdfrwt>
<pdfrwt beam="1">  1       -4 0.61549728E-02 0.12500220E+03</pdfrwt>
<totfact> 0.10182025E+04</totfact>
</mgrwt>
</event>
<event>
 5    1  0.3179758E-002  0.1250011E+03  0.7818608E-02  0.1235068E+00
          4   -1    0    0  501    0  0.00000000000E+00  0.00000000000E+00  0.64535320761E+02  0.64547815809E+02  0.12700000000E+01 0. -1.
         -4   -1    0    0    0  501 -0.00000000000E+00 -0.00000000000E+00 -0.60504909704E+02  0.60518236906E+02  0.12700000000E+01 0. -1.
         25    2    1    2    0    0  0.00000000000E+00  0.00000000000E+00  0.40304110573E+01  0.12506605272E+03  0.12500109331E+03 0.  0.
    9000005    1    3    3    0    0 -0.28185397121E+02  0.47426743327E+02 -0.27353169875E+02  0.61586593474E+02  0.10000000000E+01 0.  0.
    9000005    1    3    3    0    0  0.28185397121E+02 -0.47426743327E+02  0.31383580933E+02  0.63479459242E+02  0.10000000000E+01 0.  0.
<mgrwt>
<rscale>  0 0.12500109E+03</rscale>
<asrwt>0</asrwt>
<pdfrwt beam="1">  1        4 0.99304972E-02 0.12500109E+03</pdfrwt>
<pdfrwt beam="2">  1       -4 0.93104340E-02 0.12500109E+03</pdfrwt>
<totfact> 0.10451170E+04</totfact>
</mgrwt>
</event>
<event>
 5    1  0.3179758E-002  0.1249966E+03  0.7818608E-02  0.1235075E+00
         -4   -1    0    0    0  501 -0.00000000000E+00  0.00000000000E+00  0.12985863270E+04  0.12985869481E+04  0.12700000000E+01 0.  1.
          4   -1    0    0  501    0  0.00000000000E+00 -0.00000000000E+00 -0.28732090922E+01  0.31413739809E+01  0.12700000000E+01 0.  1.
         25    2    1    2    0    0  0.00000000000E+00  0.00000000000E+00  0.12957131180E+04  0.13017283220E+04  0.12499656149E+03 0.  0.
    9000005    1    3    3    0    0 -0.57175558688E+01  0.14636808559E+02  0.12777260577E+04  0.12778230727E+04  0.10000000000E+01 0.  0.
    9000005    1    3    3    0    0  0.57175558688E+01 -0.14636808559E+02  0.17987060278E+02  0.23905249369E+02  0.10000000000E+01 0.  0.
<mgrwt>
<rscale>  0 0.12499656E+03</rscale>
<asrwt>0</asrwt>
<pdfrwt beam="2">  1        4 0.46270734E-03 0.12499656E+03</pdfrwt>
<pdfrwt beam="1">  1       -4 0.19980347E+00 0.12499656E+03</pdfrwt>
<totfact> 0.22189381E+03</totfact>
</mgrwt>
</event>
<event>
 5    1  0.3179758E-002  0.1249994E+03  0.7818608E-02  0.1235070E+00
         -4   -1    0    0    0  501 -0.00000000000E+00  0.00000000000E+00  0.27638851220E+03  0.27639143000E+03  0.12700000000E+01 0. -1.
          4   -1    0    0  501    0  0.00000000000E+00 -0.00000000000E+00 -0.14101510318E+02  0.14158583731E+02  0.12700000000E+01 0. -1.
         25    2    1    2    0    0  0.00000000000E+00  0.00000000000E+00  0.26228700188E+03  0.29055001373E+03  0.12499935648E+03 0.  0.
    9000005    1    3    3    0    0  0.51631780922E+02  0.34553044478E+02  0.14681495133E+03  0.15942202990E+03  0.10000000000E+01 0.  0.
    9000005    1    3    3    0    0 -0.51631780922E+02 -0.34553044478E+02  0.11547205055E+03  0.13112798383E+03  0.10000000000E+01 0.  0.
<mgrwt>
<rscale>  0 0.12499936E+03</rscale>
<asrwt>0</asrwt>
<pdfrwt beam="2">  1        4 0.21740779E-02 0.12499936E+03</pdfrwt>
<pdfrwt beam="1">  1       -4 0.42525924E-01 0.12499936E+03</pdfrwt>
<totfact> 0.76800823E+03</totfact>
</mgrwt>
</event>
<event>
 5    1  0.3179758E-002  0.1249998E+03  0.7818608E-02  0.1235070E+00
         -4   -1    0    0    0  501 -0.00000000000E+00  0.00000000000E+00  0.92982722320E+02  0.92991395032E+02  0.12700000000E+01 0.  1.
          4   -1    0    0  501    0  0.00000000000E+00 -0.00000000000E+00 -0.41990118373E+02  0.42009319692E+02  0.12700000000E+01 0.  1.
         25    2    1    2    0    0  0.00000000000E+00  0.00000000000E+00  0.50992603947E+02  0.13500071472E+03  0.12499978928E+03 0.  0.
    9000005    1    3    3    0    0 -0.29406859736E+02  0.20532554078E+02  0.80765761917E+02  0.88376792624E+02  0.10000000000E+01 0.  0.
    9000005    1    3    3    0    0  0.29406859736E+02 -0.20532554078E+02 -0.29773157971E+02  0.46623922100E+02  0.10000000000E+01 0.  0.
<mgrwt>
<rscale>  0 0.12499979E+03</rscale>
<asrwt>0</asrwt>
<pdfrwt beam="2">  1        4 0.64621624E-02 0.12499979E+03</pdfrwt>
<pdfrwt beam="1">  1       -4 0.14307178E-01 0.12499979E+03</pdfrwt>
<totfact> 0.10238105E+04</totfact>
</mgrwt>
</event>
<event>
 5    1  0.3179758E-002  0.1250022E+03  0.7818608E-02  0.1235066E+00
         -4   -1    0    0    0  501 -0.00000000000E+00  0.00000000000E+00  0.40806927806E+02  0.40826685598E+02  0.12700000000E+01 0.  1.
          4   -1    0    0  501    0  0.00000000000E+00 -0.00000000000E+00 -0.95681429010E+02  0.95689857129E+02  0.12700000000E+01 0.  1.
         25    2    1    2    0    0  0.00000000000E+00  0.00000000000E+00 -0.54874501204E+02  0.13651654273E+03  0.12500222220E+03 0.  0.
    9000005    1    3    3    0    0 -0.26473596714E+02 -0.43147670023E+02  0.12582633217E+02  0.52171787492E+02  0.10000000000E+01 0.  0.
    9000005    1    3    3    0    0  0.26473596714E+02  0.43147670023E+02 -0.67457134421E+02  0.84344755235E+02  0.10000000000E+01 0.  0.
<mgrwt>
<rscale>  0 0.12500222E+03</rscale>
<asrwt>0</asrwt>
<pdfrwt beam="2">  1        4 0.14722388E-01 0.12500222E+03</pdfrwt>
<pdfrwt beam="1">  1       -4 0.62801571E-02 0.12500222E+03</pdfrwt>
<totfact> 0.10205693E+04</totfact>
</mgrwt>
</event>
<event>
 5    1  0.3179758E-002  0.1249964E+03  0.7818608E-02  0.1235075E+00
          4   -1    0    0  501    0  0.00000000000E+00  0.00000000000E+00  0.46748284228E+01  0.48442667951E+01  0.12700000000E+01 0. -1.
         -4   -1    0    0    0  501 -0.00000000000E+00 -0.00000000000E+00 -0.82050174014E+03  0.82050272301E+03  0.12700000000E+01 0. -1.
         25    2    1    2    0    0  0.00000000000E+00  0.00000000000E+00 -0.81582691172E+03  0.82534698981E+03  0.12499641477E+03 0.  0.
    9000005    1    3    3    0    0  0.32191752042E+02 -0.13492327652E+02 -0.65661048757E+02  0.74368845150E+02  0.10000000000E+01 0.  0.
    9000005    1    3    3    0    0 -0.32191752042E+02  0.13492327652E+02 -0.75016586296E+03  0.75097814466E+03  0.10000000000E+01 0.  0.
<mgrwt>
<rscale>  0 0.12499641E+03</rscale>
<asrwt>0</asrwt>
<pdfrwt beam="1">  1        4 0.73231435E-03 0.12499641E+03</pdfrwt>
<pdfrwt beam="2">  1       -4 0.12624403E+00 0.12499641E+03</pdfrwt>
<totfact> 0.37160845E+03</totfact>
</mgrwt>
</event>
<event>
 5    1  0.3179758E-002  0.1249998E+03  0.7818608E-02  0.1235070E+00
          4   -1    0    0  501    0  0.00000000000E+00  0.00000000000E+00  0.16917197587E+02  0.16964801036E+02  0.12700000000E+01 0. -1.
         -4   -1    0    0    0  501 -0.00000000000E+00 -0.00000000000E+00 -0.23052970044E+03  0.23053319866E+03  0.12700000000E+01 0. -1.
         25    2    1    2    0    0  0.00000000000E+00  0.00000000000E+00 -0.21361250285E+03  0.24749799970E+03  0.12499983392E+03 0.  0.
    9000005    1    3    3    0    0  0.16821712440E+02  0.10413923289E+02  0.10562369290E+02  0.22449575780E+02  0.10000000000E+01 0.  0.
    9000005    1    3    3    0    0 -0.16821712440E+02 -0.10413923289E+02 -0.22417487214E+03  0.22504842392E+03  0.10000000000E+01 0.  0.
<mgrwt>
<rscale>  0 0.12499983E+03</rscale>
<asrwt>0</asrwt>
<pdfrwt beam="1">  1        4 0.26065769E-02 0.12499983E+03</pdfrwt>
<pdfrwt beam="2">  1       -4 0.35470036E-01 0.12499983E+03</pdfrwt>
<totfact> 0.82693502E+03</totfact>
</mgrwt>
</event>
<event>
 5    1  0.3179758E-002  0.1250134E+03  0.7818608E-02  0.1235048E+00
          4   -1    0    0  501    0  0.00000000000E+00  0.00000000000E+00  0.11570415430E+03  0.11571112402E+03  0.12700000000E+01 0. -1.
         -4   -1    0    0    0  501 -0.00000000000E+00 -0.00000000000E+00 -0.33747983811E+02  0.33771871599E+02  0.12700000000E+01 0. -1.
         25    2    1    2    0    0  0.00000000000E+00  0.00000000000E+00  0.81956170488E+02  0.14948299562E+03  0.12501340767E+03 0.  0.
    9000005    1    3    3    0    0  0.97820150536E+01 -0.48541964767E+02  0.86574325172E+02  0.99740282438E+02  0.10000000000E+01 0.  0.
    9000005    1    3    3    0    0 -0.97820150536E+01  0.48541964767E+02 -0.46181546835E+01  0.49742713181E+02  0.10000000000E+01 0.  0.
<mgrwt>
<rscale>  0 0.12501341E+03</rscale>
<asrwt>0</asrwt>
<pdfrwt beam="1">  1        4 0.17803013E-01 0.12501341E+03</pdfrwt>
<pdfrwt beam="2">  1       -4 0.51943711E-02 0.12501341E+03</pdfrwt>
<totfact> 0.99376863E+03</totfact>
</mgrwt>
</event>
<event>
 5    1  0.3179758E-002  0.1249990E+03  0.7818608E-02  0.1235071E+00
          4   -1    0    0  501    0  0.00000000000E+00  0.00000000000E+00  0.10371894081E+04  0.10371901856E+04  0.12700000000E+01 0. -1.
         -4   -1    0    0    0  501 -0.00000000000E+00 -0.00000000000E+00 -0.36582581676E+01  0.38724349989E+01  0.12700000000E+01 0. -1.
         25    2    1    2    0    0  0.00000000000E+00  0.00000000000E+00  0.10335311499E+04  0.10410626206E+04  0.12499896878E+03 0.  0.
    9000005    1    3    3    0    0 -0.45474726221E+01  0.53603924883E+02  0.25193208273E+03  0.25761373134E+03  0.10000000000E+01 0.  0.
    9000005    1    3    3    0    0  0.45474726221E+01 -0.53603924883E+02  0.78159906716E+03  0.78344888924E+03  0.10000000000E+01 0.  0.
<mgrwt>
<rscale>  0 0.12499897E+03</rscale>
<asrwt>0</asrwt>
<pdfrwt beam="1">  1        4 0.15958419E+00 0.12499897E+03</pdfrwt>
<pdfrwt beam="2">  1       -4 0.57934371E-03 0.12499897E+03</pdfrwt>
<totfact> 0.29276123E+03</totfact>
</mgrwt>
</event>
<event>
 5    1  0.3179758E-002  0.1250053E+03  0.7818608E-02  0.1235061E+00
          4   -1    0    0  501    0  0.00000000000E+00  0.00000000000E+00  0.58142330377E+03  0.58142469080E+03  0.12700000000E+01 0.  1.
         -4   -1    0    0    0  501 -0.00000000000E+00 -0.00000000000E+00 -0.66575808291E+01  0.67776310386E+01  0.12700000000E+01 0.  1.
         25    2    1    2    0    0  0.00000000000E+00  0.00000000000E+00  0.57476572294E+03  0.58820232184E+03  0.12500534046E+03 0.  0.
    9000005    1    3    3    0    0  0.53059888511E+02  0.14610713230E+02  0.14805489377E+03  0.15795593144E+03  0.10000000000E+01 0.  0.
    9000005    1    3    3    0    0 -0.53059888511E+02 -0.14610713230E+02  0.42671082918E+03  0.43024639039E+03  0.10000000000E+01 0.  0.
<mgrwt>
<rscale>  0 0.12500534E+03</rscale>
<asrwt>0</asrwt>
<pdfrwt beam="1">  1        4 0.89459075E-01 0.12500534E+03</pdfrwt>
<pdfrwt beam="2">  1       -4 0.10335846E-02 0.12500534E+03</pdfrwt>
<totfact> 0.49615074E+03</totfact>
</mgrwt>
</event>
<event>
 5    1  0.3179758E-002  0.1249999E+03  0.7818608E-02  0.1235069E+00
         -4   -1    0    0    0  501 -0.00000000000E+00  0.00000000000E+00  0.18147965287E+03  0.18148409656E+03  0.12700000000E+01 0. -1.
          4   -1    0    0  501    0  0.00000000000E+00 -0.00000000000E+00 -0.21500967624E+02  0.21538442580E+02  0.12700000000E+01 0. -1.
         25    2    1    2    0    0  0.00000000000E+00  0.00000000000E+00  0.15997868524E+03  0.20302253914E+03  0.12499988667E+03 0.  0.
    9000005    1    3    3    0    0 -0.57808614271E+02  0.85597534291E+01  0.11594718876E+03  0.12984550760E+03  0.10000000000E+01 0.  0.
    9000005    1    3    3    0    0  0.57808614271E+02 -0.85597534291E+01  0.44031496487E+02  0.73177031544E+02  0.10000000000E+01 0.  0.
<mgrwt>
<rscale>  0 0.12499989E+03</rscale>
<asrwt>0</asrwt>
<pdfrwt beam="2">  1        4 0.33110658E-02 0.12499989E+03</pdfrwt>
<pdfrwt beam="1">  1       -4 0.27923170E-01 0.12499989E+03</pdfrwt>
<totfact> 0.89628450E+03</totfact>
</mgrwt>
</event>
<event>
 5    1  0.3179758E-002  0.1250008E+03  0.7818608E-02  0.1235068E+00
          4   -1    0    0  501    0  0.00000000000E+00  0.00000000000E+00  0.19804895018E+01  0.23527087934E+01  0.12700000000E+01 0. -1.
         -4   -1    0    0    0  501 -0.00000000000E+00 -0.00000000000E+00 -0.18025916637E+04  0.18025921110E+04  0.12700000000E+01 0. -1.
         25    2    1    2    0    0  0.00000000000E+00  0.00000000000E+00 -0.18006111742E+04  0.18049448198E+04  0.12500080861E+03 0.  0.
    9000005    1    3    3    0    0 -0.42901977850E+02 -0.26554268850E+02 -0.36788437498E+03  0.37132953323E+03  0.10000000000E+01 0.  0.
    9000005    1    3    3    0    0  0.42901977850E+02  0.26554268850E+02 -0.14327267992E+04  0.14336152866E+04  0.10000000000E+01 0.  0.
<mgrwt>
<rscale>  0 0.12500081E+03</rscale>
<asrwt>0</asrwt>
<pdfrwt beam="1">  1        4 0.33335880E-03 0.12500081E+03</pdfrwt>
<pdfrwt beam="2">  1       -4 0.27734926E+00 0.12500081E+03</pdfrwt>
<totfact> 0.12627357E+03</totfact>
</mgrwt>
</event>
<event>
 5    1  0.3179758E-002  0.1250297E+03  0.7818608E-02  0.1235023E+00
         -4   -1    0    0    0  501 -0.00000000000E+00  0.00000000000E+00  0.12573957847E+03  0.12574599195E+03  0.12700000000E+01 0.  1.
          4   -1    0    0  501    0  0.00000000000E+00 -0.00000000000E+00 -0.31060799296E+02  0.31086752048E+02  0.12700000000E+01 0.  1.
         25    2    1    2    0    0  0.00000000000E+00  0.00000000000E+00  0.94678779170E+02  0.15683274400E+03  0.12502974992E+03 0.  0.
    9000005    1    3    3    0    0 -0.19546762589E+02  0.48234023630E+02  0.39139037682E+01  0.52200724190E+02  0.10000000000E+01 0.  0.
    9000005    1    3    3    0    0  0.19546762589E+02 -0.48234023630E+02  0.90764875402E+02  0.10463201981E+03  0.10000000000E+01 0.  0.
<mgrwt>
<rscale>  0 0.12502975E+03</rscale>
<asrwt>0</asrwt>
<pdfrwt beam="2">  1        4 0.47810742E-02 0.12502975E+03</pdfrwt>
<pdfrwt beam="1">  1       -4 0.19347040E-01 0.12502975E+03</pdfrwt>
<totfact> 0.97891407E+03</totfact>
</mgrwt>
</event>
<event>
 5    1  0.3179758E-002  0.1250032E+03  0.7818608E-02  0.1235064E+00
         -4   -1    0    0    0  501 -0.00000000000E+00  0.00000000000E+00  0.44613486336E+03  0.44613667100E+03  0.12700000000E+01 0.  1.
          4   -1    0    0  501    0  0.00000000000E+00 -0.00000000000E+00 -0.87083213642E+01  0.88004409538E+01  0.12700000000E+01 0.  1.
         25    2    1    2    0    0  0.00000000000E+00  0.00000000000E+00  0.43742654200E+03  0.45493711195E+03  0.12500318470E+03 0.  0.
    9000005    1    3    3    0    0 -0.20805350392E+01 -0.60994796774E+01 -0.75135902610E+01  0.99491867504E+01  0.10000000000E+01 0.  0.
    9000005    1    3    3    0    0  0.20805350392E+01  0.60994796774E+01  0.44494013226E+03  0.44498792520E+03  0.10000000000E+01 0.  0.
<mgrwt>
<rscale>  0 0.12500318E+03</rscale>
<asrwt>0</asrwt>
<pdfrwt beam="2">  1        4 0.13469670E-02 0.12500318E+03</pdfrwt>
<pdfrwt beam="1">  1       -4 0.68643354E-01 0.12500318E+03</pdfrwt>
<totfact> 0.59534292E+03</totfact>
</mgrwt>
</event>
<event>
 5    1  0.3179758E-002  0.1250013E+03  0.7818608E-02  0.1235067E+00
          4   -1    0    0  501    0  0.00000000000E+00  0.00000000000E+00  0.71360412240E+03  0.71360525250E+03  0.12700000000E+01 0.  1.
         -4   -1    0    0    0  501 -0.00000000000E+00 -0.00000000000E+00 -0.53992789653E+01  0.55466308102E+01  0.12700000000E+01 0.  1.
         25    2    1    2    0    0  0.00000000000E+00  0.00000000000E+00  0.70820484343E+03  0.71915188331E+03  0.12500132405E+03 0.  0.
    9000005    1    3    3    0    0 -0.81064844549E+00 -0.32497795484E+02  0.66115968332E+03  0.66195913070E+03  0.10000000000E+01 0.  0.
    9000005    1    3    3    0    0  0.81064844549E+00  0.32497795484E+02  0.47045160107E+02  0.57192752615E+02  0.10000000000E+01 0.  0.
<mgrwt>
<rscale>  0 0.12500132E+03</rscale>
<asrwt>0</asrwt>
<pdfrwt beam="1">  1        4 0.10979663E+00 0.12500132E+03</pdfrwt>
<pdfrwt beam="2">  1       -4 0.84208033E-03 0.12500132E+03</pdfrwt>
<totfact> 0.42093572E+03</totfact>
</mgrwt>
</event>
<event>
 5    1  0.3179758E-002  0.1250020E+03  0.7818608E-02  0.1235066E+00
         -4   -1    0    0    0  501 -0.00000000000E+00  0.00000000000E+00  0.24363170832E+02  0.24396249568E+02  0.12700000000E+01 0.  1.
          4   -1    0    0  501    0  0.00000000000E+00 -0.00000000000E+00 -0.16019488406E+03  0.16019991816E+03  0.12700000000E+01 0.  1.
         25    2    1    2    0    0  0.00000000000E+00  0.00000000000E+00 -0.13583171323E+03  0.18459616773E+03  0.12500196327E+03 0.  0.
    9000005    1    3    3    0    0 -0.55521718224E+02  0.10238547804E+02 -0.10748283426E+03  0.12141272057E+03  0.10000000000E+01 0.  0.
    9000005    1    3    3    0    0  0.55521718224E+02 -0.10238547804E+02 -0.28348878962E+02  0.63183447153E+02  0.10000000000E+01 0.  0.
<mgrwt>
<rscale>  0 0.12500196E+03</rscale>
<asrwt>0</asrwt>
<pdfrwt beam="2">  1        4 0.24648298E-01 0.12500196E+03</pdfrwt>
<pdfrwt beam="1">  1       -4 0.37511120E-02 0.12500196E+03</pdfrwt>
<totfact> 0.92792077E+03</totfact>
</mgrwt>
</event>
<event>
 5    1  0.3179758E-002  0.1250022E+03  0.7818608E-02  0.1235066E+00
          4   -1    0    0  501    0  0.00000000000E+00  0.00000000000E+00  0.24816227088E+03  0.24816552054E+03  0.12700000000E+01 0.  1.
         -4   -1    0    0    0  501 -0.00000000000E+00 -0.00000000000E+00 -0.15712300512E+02  0.15763542983E+02  0.12700000000E+01 0.  1.
         25    2    1    2    0    0  0.00000000000E+00  0.00000000000E+00  0.23244997036E+03  0.26392906353E+03  0.12500224739E+03 0.  0.
    9000005    1    3    3    0    0  0.61255139079E+02 -0.64422238782E+01  0.93910416369E+02  0.11231144472E+03  0.10000000000E+01 0.  0.
    9000005    1    3    3    0    0 -0.61255139079E+02  0.64422238782E+01  0.13853955399E+03  0.15161761881E+03  0.10000000000E+01 0.  0.
<mgrwt>
<rscale>  0 0.12500225E+03</rscale>
<asrwt>0</asrwt>
<pdfrwt beam="1">  1        4 0.38183001E-01 0.12500225E+03</pdfrwt>
<pdfrwt beam="2">  1       -4 0.24214688E-02 0.12500225E+03</pdfrwt>
<totfact> 0.80353797E+03</totfact>
</mgrwt>
</event>
<event>
 5    1  0.3179758E-002  0.1250025E+03  0.7818608E-02  0.1235065E+00
          4   -1    0    0  501    0  0.00000000000E+00  0.00000000000E+00  0.11251827521E+02  0.11323273491E+02  0.12700000000E+01 0. -1.
         -4   -1    0    0    0  501 -0.00000000000E+00 -0.00000000000E+00 -0.34600831802E+03  0.34601064873E+03  0.12700000000E+01 0. -1.
         25    2    1    2    0    0  0.00000000000E+00  0.00000000000E+00 -0.33475649049E+03  0.35733392222E+03  0.12500249615E+03 0.  0.
    9000005    1    3    3    0    0 -0.64377088295E+01  0.50470845599E+02 -0.63651281361E+02  0.81493778716E+02  0.10000000000E+01 0.  0.
    9000005    1    3    3    0    0  0.64377088295E+01 -0.50470845599E+02 -0.27110520913E+03  0.27584014351E+03  0.10000000000E+01 0.  0.
<mgrwt>
<rscale>  0 0.12500250E+03</rscale>
<asrwt>0</asrwt>
<pdfrwt beam="1">  1        4 0.17367258E-02 0.12500250E+03</pdfrwt>
<pdfrwt beam="2">  1       -4 0.53237716E-01 0.12500250E+03</pdfrwt>
<totfact> 0.68921397E+03</totfact>
</mgrwt>
</event>
<event>
 5    1  0.3179758E-002  0.1249975E+03  0.7818608E-02  0.1235073E+00
          4   -1    0    0  501    0  0.00000000000E+00  0.00000000000E+00  0.38361559895E+02  0.38382576484E+02  0.12700000000E+01 0. -1.
         -4   -1    0    0    0  501 -0.00000000000E+00 -0.00000000000E+00 -0.10177028824E+03  0.10177821215E+03  0.12700000000E+01 0. -1.
         25    2    1    2    0    0  0.00000000000E+00  0.00000000000E+00 -0.63408728344E+02  0.14016078863E+03  0.12499751934E+03 0.  0.
    9000005    1    3    3    0    0 -0.17094338216E+02 -0.45106279660E+02  0.12842814606E+02  0.49927254590E+02  0.10000000000E+01 0.  0.
    9000005    1    3    3    0    0  0.17094338216E+02  0.45106279660E+02 -0.76251542950E+02  0.90233534044E+02  0.10000000000E+01 0.  0.
<mgrwt>
<rscale>  0 0.12499752E+03</rscale>
<asrwt>0</asrwt>
<pdfrwt beam="1">  1        4 0.59040047E-02 0.12499752E+03</pdfrwt>
<pdfrwt beam="2">  1       -4 0.15659194E-01 0.12499752E+03</pdfrwt>
<totfact> 0.10130821E+04</totfact>
</mgrwt>
</event>
<event>
 5    1  0.3179758E-002  0.1249991E+03  0.7818608E-02  0.1235071E+00
          4   -1    0    0  501    0  0.00000000000E+00  0.00000000000E+00  0.54807885100E+03  0.54808032241E+03  0.12700000000E+01 0.  1.
         -4   -1    0    0    0  501 -0.00000000000E+00 -0.00000000000E+00 -0.70689961852E+01  0.71821728653E+01  0.12700000000E+01 0.  1.
         25    2    1    2    0    0  0.00000000000E+00  0.00000000000E+00  0.54100985482E+03  0.55526249528E+03  0.12499910261E+03 0.  0.
    9000005    1    3    3    0    0  0.45783224496E+02  0.40286021837E+02  0.20990169364E+03  0.21858359543E+03  0.10000000000E+01 0.  0.
    9000005    1    3    3    0    0 -0.45783224496E+02 -0.40286021837E+02  0.33110816118E+03  0.33667889984E+03  0.10000000000E+01 0.  0.
<mgrwt>
<rscale>  0 0.12499910E+03</rscale>
<asrwt>0</asrwt>
<pdfrwt beam="1">  1        4 0.84328650E-01 0.12499910E+03</pdfrwt>
<pdfrwt beam="2">  1       -4 0.10963569E-02 0.12499910E+03</pdfrwt>
<totfact> 0.51820106E+03</totfact>
</mgrwt>
</event>
<event>
 5    1  0.3179758E-002  0.1249956E+03  0.7818608E-02  0.1235076E+00
         -4   -1    0    0    0  501 -0.00000000000E+00  0.00000000000E+00  0.69892219255E+02  0.69903756783E+02  0.12700000000E+01 0. -1.
          4   -1    0    0  501    0  0.00000000000E+00 -0.00000000000E+00 -0.55862363066E+02  0.55876797575E+02  0.12700000000E+01 0. -1.
         25    2    1    2    0    0  0.00000000000E+00  0.00000000000E+00  0.14029856190E+02  0.12578055436E+03  0.12499564388E+03 0.  0.
    9000005    1    3    3    0    0  0.40812041084E+02 -0.21068592639E+02  0.49653989574E+02  0.67646337476E+02  0.10000000000E+01 0.  0.
    9000005    1    3    3    0    0 -0.40812041084E+02  0.21068592639E+02 -0.35624133385E+02  0.58134216883E+02  0.10000000000E+01 0.  0.
<mgrwt>
<rscale>  0 0.12499564E+03</rscale>
<asrwt>0</asrwt>
<pdfrwt beam="2">  1        4 0.85962076E-02 0.12499564E+03</pdfrwt>
<pdfrwt beam="1">  1       -4 0.10754647E-01 0.12499564E+03</pdfrwt>
<totfact> 0.10436798E+04</totfact>
</mgrwt>
</event>
<event>
 5    1  0.3179758E-002  0.1249777E+03  0.7818608E-02  0.1235104E+00
          4   -1    0    0  501    0  0.00000000000E+00  0.00000000000E+00  0.96630465861E+02  0.96638811212E+02  0.12700000000E+01 0.  1.
         -4   -1    0    0    0  501 -0.00000000000E+00 -0.00000000000E+00 -0.40390135450E+02  0.40410097027E+02  0.12700000000E+01 0.  1.
         25    2    1    2    0    0  0.00000000000E+00  0.00000000000E+00  0.56240330411E+02  0.13704890824E+03  0.12497771195E+03 0.  0.
    9000005    1    3    3    0    0 -0.51092193974E+02 -0.29511043538E+02  0.50661443515E+02  0.77774647764E+02  0.10000000000E+01 0.  0.
    9000005    1    3    3    0    0  0.51092193974E+02  0.29511043538E+02  0.55788868954E+01  0.59274260475E+02  0.10000000000E+01 0.  0.
<mgrwt>
<rscale>  0 0.12497771E+03</rscale>
<asrwt>0</asrwt>
<pdfrwt beam="1">  1        4 0.14868403E-01 0.12497771E+03</pdfrwt>
<pdfrwt beam="2">  1       -4 0.62160446E-02 0.12497771E+03</pdfrwt>
<totfact> 0.10200188E+04</totfact>
</mgrwt>
</event>
<event>
 5    1  0.3179758E-002  0.1249904E+03  0.7818608E-02  0.1235084E+00
          4   -1    0    0  501    0  0.00000000000E+00  0.00000000000E+00  0.15008975468E+02  0.15062610816E+02  0.12700000000E+01 0. -1.
         -4   -1    0    0    0  501 -0.00000000000E+00 -0.00000000000E+00 -0.25970153194E+03  0.25970463722E+03  0.12700000000E+01 0. -1.
         25    2    1    2    0    0  0.00000000000E+00  0.00000000000E+00 -0.24469255647E+03  0.27476724804E+03  0.12499037323E+03 0.  0.
    9000005    1    3    3    0    0 -0.60028113155E+02  0.46043422075E+01 -0.15913585628E+03  0.17014639312E+03  0.10000000000E+01 0.  0.
    9000005    1    3    3    0    0  0.60028113155E+02 -0.46043422075E+01 -0.85556700192E+02  0.10462085492E+03  0.10000000000E+01 0.  0.
<mgrwt>
<rscale>  0 0.12499037E+03</rscale>
<asrwt>0</asrwt>
<pdfrwt beam="1">  1        4 0.23134380E-02 0.12499037E+03</pdfrwt>
<pdfrwt beam="2">  1       -4 0.39958443E-01 0.12499037E+03</pdfrwt>
<totfact> 0.78893974E+03</totfact>
</mgrwt>
</event>
<event>
 5    1  0.3179758E-002  0.1250015E+03  0.7818608E-02  0.1235067E+00
          4   -1    0    0  501    0  0.00000000000E+00  0.00000000000E+00  0.29105836121E+02  0.29133530447E+02  0.12700000000E+01 0.  1.
         -4   -1    0    0    0  501 -0.00000000000E+00 -0.00000000000E+00 -0.13411726232E+03  0.13412327520E+03  0.12700000000E+01 0.  1.
         25    2    1    2    0    0  0.00000000000E+00  0.00000000000E+00 -0.10501142620E+03  0.16325680565E+03  0.12500153983E+03 0.  0.
    9000005    1    3    3    0    0  0.69349560729E+01 -0.56120089702E+02 -0.17759492126E+02  0.59278644084E+02  0.10000000000E+01 0.  0.
    9000005    1    3    3    0    0 -0.69349560729E+01  0.56120089702E+02 -0.87251934070E+02  0.10397816157E+03  0.10000000000E+01 0.  0.
<mgrwt>
<rscale>  0 0.12500154E+03</rscale>
<asrwt>0</asrwt>
<pdfrwt beam="1">  1        4 0.44804139E-02 0.12500154E+03</pdfrwt>
<pdfrwt beam="2">  1       -4 0.20636018E-01 0.12500154E+03</pdfrwt>
<totfact> 0.96715202E+03</totfact>
</mgrwt>
</event>
<event>
 5    1  0.3179758E-002  0.1250011E+03  0.7818608E-02  0.1235068E+00
         -4   -1    0    0    0  501 -0.00000000000E+00  0.00000000000E+00  0.81858791970E+03  0.81858890487E+03  0.12700000000E+01 0. -1.
          4   -1    0    0  501    0  0.00000000000E+00 -0.00000000000E+00 -0.46865144513E+01  0.48555450469E+01  0.12700000000E+01 0. -1.
         25    2    1    2    0    0  0.00000000000E+00  0.00000000000E+00  0.81390140524E+03  0.82344444991E+03  0.12500105854E+03 0.  0.
    9000005    1    3    3    0    0 -0.36850428189E+02 -0.83874481008E+00  0.74516285039E+02  0.83140449160E+02  0.10000000000E+01 0.  0.
    9000005    1    3    3    0    0  0.36850428189E+02  0.83874481008E+00  0.73938512021E+03  0.74030400075E+03  0.10000000000E+01 0.  0.
<mgrwt>
<rscale>  0 0.12500106E+03</rscale>
<asrwt>0</asrwt>
<pdfrwt beam="2">  1        4 0.73407967E-03 0.12500106E+03</pdfrwt>
<pdfrwt beam="1">  1       -4 0.12594980E+00 0.12500106E+03</pdfrwt>
<totfact> 0.37238394E+03</totfact>
</mgrwt>
</event>
<event>
 5    1  0.3179758E-002  0.1249974E+03  0.7818608E-02  0.1235073E+00
         -4   -1    0    0    0  501 -0.00000000000E+00  0.00000000000E+00  0.33251050483E+03  0.33251293016E+03  0.12700000000E+01 0.  1.
          4   -1    0    0  501    0  0.00000000000E+00 -0.00000000000E+00 -0.11710462403E+02  0.11779126864E+02  0.12700000000E+01 0.  1.
         25    2    1    2    0    0  0.00000000000E+00  0.00000000000E+00  0.32080004243E+03  0.34429205702E+03  0.12499741320E+03 0.  0.
    9000005    1    3    3    0    0  0.22375624899E+02 -0.27854361958E+02  0.30161619848E+03  0.30372662915E+03  0.10000000000E+01 0.  0.
    9000005    1    3    3    0    0 -0.22375624899E+02  0.27854361958E+02  0.19183843944E+02  0.40565427869E+02  0.10000000000E+01 0.  0.
<mgrwt>
<rscale>  0 0.12499741E+03</rscale>
<asrwt>0</asrwt>
<pdfrwt beam="2">  1        4 0.18070784E-02 0.12499741E+03</pdfrwt>
<pdfrwt beam="1">  1       -4 0.51160922E-01 0.12499741E+03</pdfrwt>
<totfact> 0.70361131E+03</totfact>
</mgrwt>
</event>
<event>
 5    1  0.3179758E-002  0.1249983E+03  0.7818608E-02  0.1235072E+00
         -4   -1    0    0    0  501 -0.00000000000E+00  0.00000000000E+00  0.32692429134E+01  0.35072566525E+01  0.12700000000E+01 0. -1.
          4   -1    0    0  501    0  0.00000000000E+00 -0.00000000000E+00 -0.11526124629E+04  0.11526131625E+04  0.12700000000E+01 0. -1.
         25    2    1    2    0    0  0.00000000000E+00  0.00000000000E+00 -0.11493432200E+04  0.11561204192E+04  0.12499834565E+03 0.  0.
    9000005    1    3    3    0    0 -0.83082423206E+01  0.56017684591E+02 -0.81905386690E+03  0.82100989321E+03  0.10000000000E+01 0.  0.
    9000005    1    3    3    0    0  0.83082423206E+01 -0.56017684591E+02 -0.33028935306E+03  0.33511052597E+03  0.10000000000E+01 0.  0.
<mgrwt>
<rscale>  0 0.12499835E+03</rscale>
<asrwt>0</asrwt>
<pdfrwt beam="2">  1        4 0.17734304E+00 0.12499835E+03</pdfrwt>
<pdfrwt beam="1">  1       -4 0.52132394E-03 0.12499835E+03</pdfrwt>
<totfact> 0.25892012E+03</totfact>
</mgrwt>
</event>
<event>
 5    1  0.3179758E-002  0.1250013E+03  0.7818608E-02  0.1235067E+00
         -4   -1    0    0    0  501 -0.00000000000E+00  0.00000000000E+00  0.19976445480E+02  0.20016774816E+02  0.12700000000E+01 0. -1.
          4   -1    0    0  501    0  0.00000000000E+00 -0.00000000000E+00 -0.19530721713E+03  0.19531134622E+03  0.12700000000E+01 0. -1.
         25    2    1    2    0    0  0.00000000000E+00  0.00000000000E+00 -0.17533077165E+03  0.21532812104E+03  0.12500128088E+03 0.  0.
    9000005    1    3    3    0    0 -0.41854306241E+01  0.61217401806E+02 -0.10806515467E+03  0.12427455801E+03  0.10000000000E+01 0.  0.
    9000005    1    3    3    0    0  0.41854306241E+01 -0.61217401806E+02 -0.67265616976E+02  0.91053563030E+02  0.10000000000E+01 0.  0.
<mgrwt>
<rscale>  0 0.12500128E+03</rscale>
<asrwt>0</asrwt>
<pdfrwt beam="2">  1        4 0.30050683E-01 0.12500128E+03</pdfrwt>
<pdfrwt beam="1">  1       -4 0.30767193E-02 0.12500128E+03</pdfrwt>
<totfact> 0.87610548E+03</totfact>
</mgrwt>
</event>
<event>
 5    1  0.3179758E-002  0.1249981E+03  0.7818608E-02  0.1235072E+00
          4   -1    0    0  501    0  0.00000000000E+00  0.00000000000E+00  0.59875990620E+01  0.61208040753E+01  0.12700000000E+01 0. -1.
         -4   -1    0    0    0  501 -0.00000000000E+00 -0.00000000000E+00 -0.64505996385E+03  0.64506121404E+03  0.12700000000E+01 0. -1.
         25    2    1    2    0    0  0.00000000000E+00  0.00000000000E+00 -0.63907236478E+03  0.65118201811E+03  0.12499813312E+03 0.  0.
    9000005    1    3    3    0    0  0.17722040417E+02 -0.14055778888E+02 -0.62301099447E+03  0.62342227653E+03  0.10000000000E+01 0.  0.
    9000005    1    3    3    0    0 -0.17722040417E+02  0.14055778888E+02 -0.16061370311E+02  0.27759741586E+02  0.10000000000E+01 0.  0.
<mgrwt>
<rscale>  0 0.12499813E+03</rscale>
<asrwt>0</asrwt>
<pdfrwt beam="1">  1        4 0.93151230E-03 0.12499813E+03</pdfrwt>
<pdfrwt beam="2">  1       -4 0.99250283E-01 0.12499813E+03</pdfrwt>
<totfact> 0.45790121E+03</totfact>
</mgrwt>
</event>
<event>
 5    1  0.3179758E-002  0.1250012E+03  0.7818608E-02  0.1235067E+00
          4   -1    0    0  501    0  0.00000000000E+00  0.00000000000E+00  0.34573416518E+02  0.34596734379E+02  0.12700000000E+01 0.  1.
         -4   -1    0    0    0  501 -0.00000000000E+00 -0.00000000000E+00 -0.11292140643E+03  0.11292854789E+03  0.12700000000E+01 0.  1.
         25    2    1    2    0    0  0.00000000000E+00  0.00000000000E+00 -0.78347989909E+02  0.14752528227E+03  0.12500120554E+03 0.  0.
    9000005    1    3    3    0    0  0.53589221002E+01  0.21543781433E+02  0.29768476963E+02  0.37148550244E+02  0.10000000000E+01 0.  0.
    9000005    1    3    3    0    0 -0.53589221002E+01 -0.21543781433E+02 -0.10811646687E+03  0.11037673203E+03  0.10000000000E+01 0.  0.
<mgrwt>
<rscale>  0 0.12500121E+03</rscale>
<asrwt>0</asrwt>
<pdfrwt beam="1">  1        4 0.53213302E-02 0.12500121E+03</pdfrwt>
<pdfrwt beam="2">  1       -4 0.17374867E-01 0.12500121E+03</pdfrwt>
<totfact> 0.99796594E+03</totfact>
</mgrwt>
</event>
<event>
 5    1  0.3179758E-002  0.1249942E+03  0.7818608E-02  0.1235078E+00
         -4   -1    0    0    0  501 -0.00000000000E+00  0.00000000000E+00  0.14107860932E+04  0.14107866648E+04  0.12700000000E+01 0.  1.
          4   -1    0    0  501    0  0.00000000000E+00 -0.00000000000E+00 -0.26223454615E+01  0.29136910816E+01  0.12700000000E+01 0.  1.
         25    2    1    2    0    0  0.00000000000E+00  0.00000000000E+00  0.14081637477E+04  0.14137003559E+04  0.12499422332E+03 0.  0.
    9000005    1    3    3    0    0 -0.56776803408E+02  0.26054657666E+02  0.68642077844E+03  0.68925825034E+03  0.10000000000E+01 0.  0.
    9000005    1    3    3    0    0  0.56776803408E+02 -0.26054657666E+02  0.72174296926E+03  0.72444210553E+03  0.10000000000E+01 0.  0.
<mgrwt>
<rscale>  0 0.12499422E+03</rscale>
<asrwt>0</asrwt>
<pdfrwt beam="2">  1        4 0.42589160E-03 0.12499422E+03</pdfrwt>
<pdfrwt beam="1">  1       -4 0.21706715E+00 0.12499422E+03</pdfrwt>
<totfact> 0.19691209E+03</totfact>
</mgrwt>
</event>
<event>
 5    1  0.3179758E-002  0.1249984E+03  0.7818608E-02  0.1235072E+00
          4   -1    0    0  501    0  0.00000000000E+00  0.00000000000E+00  0.23681733145E+03  0.23682073679E+03  0.12700000000E+01 0. -1.
         -4   -1    0    0    0  501 -0.00000000000E+00 -0.00000000000E+00 -0.16466390003E+02  0.16515292905E+02  0.12700000000E+01 0. -1.
         25    2    1    2    0    0  0.00000000000E+00  0.00000000000E+00  0.22035094145E+03  0.25333602970E+03  0.12499842618E+03 0.  0.
    9000005    1    3    3    0    0 -0.60334443697E+02 -0.15441731336E+02  0.99750303836E+02  0.11760023503E+03  0.10000000000E+01 0.  0.
    9000005    1    3    3    0    0  0.60334443697E+02  0.15441731336E+02  0.12060063761E+03  0.13573579467E+03  0.10000000000E+01 0.  0.
<mgrwt>
<rscale>  0 0.12499843E+03</rscale>
<asrwt>0</asrwt>
<pdfrwt beam="1">  1        4 0.36437459E-01 0.12499843E+03</pdfrwt>
<pdfrwt beam="2">  1       -4 0.25373145E-02 0.12499843E+03</pdfrwt>
<totfact> 0.81853314E+03</totfact>
</mgrwt>
</event>
<event>
 5    1  0.3179758E-002  0.1249973E+03  0.7818608E-02  0.1235074E+00
          4   -1    0    0  501    0  0.00000000000E+00  0.00000000000E+00  0.16859610972E+03  0.16860089298E+03  0.12700000000E+01 0. -1.
         -4   -1    0    0    0  501 -0.00000000000E+00 -0.00000000000E+00 -0.23145749134E+02  0.23180565199E+02  0.12700000000E+01 0. -1.
         25    2    1    2    0    0  0.00000000000E+00  0.00000000000E+00  0.14545036059E+03  0.19178145818E+03  0.12499728119E+03 0.  0.
    9000005    1    3    3    0    0 -0.37596247202E+02 -0.42290567701E+02  0.11340862662E+03  0.12674575540E+03  0.10000000000E+01 0.  0.
    9000005    1    3    3    0    0  0.37596247202E+02  0.42290567701E+02  0.32041733968E+02  0.65035702778E+02  0.10000000000E+01 0.  0.
<mgrwt>
<rscale>  0 0.12499728E+03</rscale>
<asrwt>0</asrwt>
<pdfrwt beam="1">  1        4 0.25940909E-01 0.12499728E+03</pdfrwt>
<pdfrwt beam="2">  1       -4 0.35639306E-02 0.12499728E+03</pdfrwt>
<totfact> 0.91543842E+03</totfact>
</mgrwt>
</event>
<event>
 5    1  0.3179758E-002  0.1249665E+03  0.7818608E-02  0.1235122E+00
         -4   -1    0    0    0  501 -0.00000000000E+00  0.00000000000E+00  0.93532825930E+02  0.93541447640E+02  0.12700000000E+01 0.  1.
          4   -1    0    0  501    0  0.00000000000E+00 -0.00000000000E+00 -0.41720809972E+02  0.41740135178E+02  0.12700000000E+01 0.  1.
         25    2    1    2    0    0  0.00000000000E+00  0.00000000000E+00  0.51812015958E+02  0.13528158282E+03  0.12496648211E+03 0.  0.
    9000005    1    3    3    0    0 -0.32665933089E+02 -0.53125082035E+02  0.21881934027E+02  0.66099595782E+02  0.10000000000E+01 0.  0.
    9000005    1    3    3    0    0  0.32665933089E+02  0.53125082035E+02  0.29930081931E+02  0.69181987036E+02  0.10000000000E+01 0.  0.
<mgrwt>
<rscale>  0 0.12496648E+03</rscale>
<asrwt>0</asrwt>
<pdfrwt beam="2">  1        4 0.64207360E-02 0.12496648E+03</pdfrwt>
<pdfrwt beam="1">  1       -4 0.14391815E-01 0.12496648E+03</pdfrwt>
<totfact> 0.10239877E+04</totfact>
</mgrwt>
</event>
<event>
 5    1  0.3179758E-002  0.1250031E+03  0.7818608E-02  0.1235064E+00
          4   -1    0    0  501    0  0.00000000000E+00  0.00000000000E+00  0.60754053958E+01  0.62067262485E+01  0.12700000000E+01 0. -1.
         -4   -1    0    0    0  501 -0.00000000000E+00 -0.00000000000E+00 -0.63598630554E+03  0.63598757357E+03  0.12700000000E+01 0. -1.
         25    2    1    2    0    0  0.00000000000E+00  0.00000000000E+00 -0.62991090014E+03  0.64219429982E+03  0.12500310635E+03 0.  0.
    9000005    1    3    3    0    0 -0.22544151727E+02 -0.30152173039E+02 -0.58698677082E+02  0.69741859792E+02  0.10000000000E+01 0.  0.
    9000005    1    3    3    0    0  0.22544151727E+02  0.30152173039E+02 -0.57121222306E+03  0.57245244003E+03  0.10000000000E+01 0.  0.
<mgrwt>
<rscale>  0 0.12500311E+03</rscale>
<asrwt>0</asrwt>
<pdfrwt beam="1">  1        4 0.94487740E-03 0.12500311E+03</pdfrwt>
<pdfrwt beam="2">  1       -4 0.97854194E-01 0.12500311E+03</pdfrwt>
<totfact> 0.46304874E+03</totfact>
</mgrwt>
</event>
<event>
 5    1  0.3179758E-002  0.1249991E+03  0.7818608E-02  0.1235071E+00
          4   -1    0    0  501    0  0.00000000000E+00  0.00000000000E+00  0.85924971485E+03  0.85925065340E+03  0.12700000000E+01 0.  1.
         -4   -1    0    0    0  501 -0.00000000000E+00 -0.00000000000E+00 -0.44563938557E+01  0.46338263020E+01  0.12700000000E+01 0.  1.
         25    2    1    2    0    0  0.00000000000E+00  0.00000000000E+00  0.85479332099E+03  0.86388447970E+03  0.12499909062E+03 0.  0.
    9000005    1    3    3    0    0  0.62030664902E+02  0.40900492585E+01  0.47146628013E+03  0.47554808925E+03  0.10000000000E+01 0.  0.
    9000005    1    3    3    0    0 -0.62030664902E+02 -0.40900492585E+01  0.38332704087E+03  0.38833639045E+03  0.10000000000E+01 0.  0.
<mgrwt>
<rscale>  0 0.12499909E+03</rscale>
<asrwt>0</asrwt>
<pdfrwt beam="1">  1        4 0.13220589E+00 0.12499909E+03</pdfrwt>
<pdfrwt beam="2">  1       -4 0.69932041E-03 0.12499909E+03</pdfrwt>
<totfact> 0.35566529E+03</totfact>
</mgrwt>
</event>
<event>
 5    1  0.3179758E-002  0.1249950E+03  0.7818608E-02  0.1235077E+00
         -4   -1    0    0    0  501 -0.00000000000E+00  0.00000000000E+00  0.11101712559E+03  0.11102438954E+03  0.12700000000E+01 0.  1.
          4   -1    0    0  501    0  0.00000000000E+00 -0.00000000000E+00 -0.35163306511E+02  0.35186233455E+02  0.12700000000E+01 0.  1.
         25    2    1    2    0    0  0.00000000000E+00  0.00000000000E+00  0.75853819076E+02  0.14621062300E+03  0.12499497754E+03 0.  0.
    9000005    1    3    3    0    0 -0.43143478660E+02  0.44940213426E+02  0.32201962453E+02  0.70135218824E+02  0.10000000000E+01 0.  0.
    9000005    1    3    3    0    0  0.43143478660E+02 -0.44940213426E+02  0.43651856623E+02  0.76075404174E+02  0.10000000000E+01 0.  0.
<mgrwt>
<rscale>  0 0.12499498E+03</rscale>
<asrwt>0</asrwt>
<pdfrwt beam="2">  1        4 0.54120618E-02 0.12499498E+03</pdfrwt>
<pdfrwt beam="1">  1       -4 0.17081880E-01 0.12499498E+03</pdfrwt>
<totfact> 0.10007581E+04</totfact>
</mgrwt>
</event>
<event>
 5    1  0.3179758E-002  0.1249997E+03  0.7818608E-02  0.1235070E+00
          4   -1    0    0  501    0  0.00000000000E+00  0.00000000000E+00  0.27320091061E+02  0.27349593700E+02  0.12700000000E+01 0. -1.
         -4   -1    0    0    0  501 -0.00000000000E+00 -0.00000000000E+00 -0.14287065808E+03  0.14287630259E+03  0.12700000000E+01 0. -1.
         25    2    1    2    0    0  0.00000000000E+00  0.00000000000E+00 -0.11555056702E+03  0.17022589629E+03  0.12499968891E+03 0.  0.
    9000005    1    3    3    0    0  0.37710502010E+02  0.32592234452E+02 -0.64421628039E+01  0.50267655306E+02  0.10000000000E+01 0.  0.
    9000005    1    3    3    0    0 -0.37710502010E+02 -0.32592234452E+02 -0.10910840422E+03  0.11995824098E+03  0.10000000000E+01 0.  0.
<mgrwt>
<rscale>  0 0.12499969E+03</rscale>
<asrwt>0</asrwt>
<pdfrwt beam="1">  1        4 0.42057947E-02 0.12499969E+03</pdfrwt>
<pdfrwt beam="2">  1       -4 0.21982804E-01 0.12499969E+03</pdfrwt>
<totfact> 0.95407216E+03</totfact>
</mgrwt>
</event>
<event>
 5    1  0.3179758E-002  0.1249955E+03  0.7818608E-02  0.1235076E+00
          4   -1    0    0  501    0  0.00000000000E+00  0.00000000000E+00  0.96791514000E+02  0.96799845467E+02  0.12700000000E+01 0. -1.
         -4   -1    0    0    0  501 -0.00000000000E+00 -0.00000000000E+00 -0.40334367873E+02  0.40354357035E+02  0.12700000000E+01 0. -1.
         25    2    1    2    0    0  0.00000000000E+00  0.00000000000E+00  0.56457146127E+02  0.13715420250E+03  0.12499546358E+03 0.  0.
    9000005    1    3    3    0    0  0.55535975059E+02 -0.12326674681E+02  0.56604816228E+02  0.80257689069E+02  0.10000000000E+01 0.  0.
    9000005    1    3    3    0    0 -0.55535975059E+02  0.12326674681E+02 -0.14767010174E+00  0.56896513433E+02  0.10000000000E+01 0.  0.
<mgrwt>
<rscale>  0 0.12499546E+03</rscale>
<asrwt>0</asrwt>
<pdfrwt beam="1">  1        4 0.14893181E-01 0.12499546E+03</pdfrwt>
<pdfrwt beam="2">  1       -4 0.62074659E-02 0.12499546E+03</pdfrwt>
<totfact> 0.10193905E+04</totfact>
</mgrwt>
</event>
<event>
 5    1  0.3179758E-002  0.1249995E+03  0.7818608E-02  0.1235070E+00
          4   -1    0    0  501    0  0.00000000000E+00  0.00000000000E+00  0.10983633658E+03  0.10984367862E+03  0.12700000000E+01 0. -1.
         -4   -1    0    0    0  501 -0.00000000000E+00 -0.00000000000E+00 -0.35544096999E+02  0.35566778480E+02  0.12700000000E+01 0. -1.
         25    2    1    2    0    0  0.00000000000E+00  0.00000000000E+00  0.74292239579E+02  0.14541045710E+03  0.12499945669E+03 0.  0.
    9000005    1    3    3    0    0  0.16789726882E+02  0.47854501886E+02  0.79622373253E+02  0.94406941492E+02  0.10000000000E+01 0.  0.
    9000005    1    3    3    0    0 -0.16789726882E+02 -0.47854501886E+02 -0.53301336737E+01  0.51003515609E+02  0.10000000000E+01 0.  0.
<mgrwt>
<rscale>  0 0.12499946E+03</rscale>
<asrwt>0</asrwt>
<pdfrwt beam="1">  1        4 0.16900207E-01 0.12499946E+03</pdfrwt>
<pdfrwt beam="2">  1       -4 0.54706322E-02 0.12499946E+03</pdfrwt>
<totfact> 0.10022778E+04</totfact>
</mgrwt>
</event>
<event>
 5    1  0.3179758E-002  0.1249946E+03  0.7818608E-02  0.1235078E+00
          4   -1    0    0  501    0  0.00000000000E+00  0.00000000000E+00  0.41998733989E+02  0.42017931371E+02  0.12700000000E+01 0.  1.
         -4   -1    0    0    0  501 -0.00000000000E+00 -0.00000000000E+00 -0.92955956671E+02  0.92964631881E+02  0.12700000000E+01 0.  1.
         25    2    1    2    0    0  0.00000000000E+00  0.00000000000E+00 -0.50957222682E+02  0.13498256325E+03  0.12499461524E+03 0.  0.
    9000005    1    3    3    0    0 -0.60269952131E+02 -0.12288492415E+02 -0.37379132089E+02  0.71983843266E+02  0.10000000000E+01 0.  0.
    9000005    1    3    3    0    0  0.60269952131E+02  0.12288492415E+02 -0.13578090594E+02  0.62998719986E+02  0.10000000000E+01 0.  0.
<mgrwt>
<rscale>  0 0.12499462E+03</rscale>
<asrwt>0</asrwt>
<pdfrwt beam="1">  1        4 0.64634878E-02 0.12499462E+03</pdfrwt>
<pdfrwt beam="2">  1       -4 0.14303060E-01 0.12499462E+03</pdfrwt>
<totfact> 0.10239682E+04</totfact>
</mgrwt>
</event>
<event>
 5    1  0.3179758E-002  0.1249894E+03  0.7818608E-02  0.1235086E+00
         -4   -1    0    0    0  501 -0.00000000000E+00  0.00000000000E+00  0.33657256534E+03  0.33657496139E+03  0.12700000000E+01 0. -1.
          4   -1    0    0  501    0  0.00000000000E+00 -0.00000000000E+00 -0.11566812173E+02  0.11636324327E+02  0.12700000000E+01 0. -1.
         25    2    1    2    0    0  0.00000000000E+00  0.00000000000E+00  0.32500575316E+03  0.34821128572E+03  0.12498943921E+03 0.  0.
    9000005    1    3    3    0    0  0.48504984446E+02 -0.28204519314E+02  0.23912148247E+03  0.24561822369E+03  0.10000000000E+01 0.  0.
    9000005    1    3    3    0    0 -0.48504984446E+02  0.28204519314E+02  0.85884270691E+02  0.10259306204E+03  0.10000000000E+01 0.  0.
<mgrwt>
<rscale>  0 0.12498944E+03</rscale>
<asrwt>0</asrwt>
<pdfrwt beam="2">  1        4 0.17850412E-02 0.12498944E+03</pdfrwt>
<pdfrwt beam="1">  1       -4 0.51785920E-01 0.12498944E+03</pdfrwt>
<totfact> 0.69938133E+03</totfact>
</mgrwt>
</event>
<event>
 5    1  0.3179758E-002  0.1249989E+03  0.7818608E-02  0.1235071E+00
          4   -1    0    0  501    0  0.00000000000E+00  0.00000000000E+00  0.95584439398E+02  0.95592876068E+02  0.12700000000E+01 0. -1.
         -4   -1    0    0    0  501 -0.00000000000E+00 -0.00000000000E+00 -0.40846174141E+02  0.40865912959E+02  0.12700000000E+01 0. -1.
         25    2    1    2    0    0  0.00000000000E+00  0.00000000000E+00  0.54738265257E+02  0.13645878903E+03  0.12499889367E+03 0.  0.
    9000005    1    3    3    0    0 -0.58567932830E+02  0.88866430378E+00  0.51141410331E+02  0.77765264295E+02  0.10000000000E+01 0.  0.
    9000005    1    3    3    0    0  0.58567932830E+02 -0.88866430378E+00  0.35968549259E+01  0.58693524733E+02  0.10000000000E+01 0.  0.
<mgrwt>
<rscale>  0 0.12499889E+03</rscale>
<asrwt>0</asrwt>
<pdfrwt beam="1">  1        4 0.14707466E-01 0.12499889E+03</pdfrwt>
<pdfrwt beam="2">  1       -4 0.62861942E-02 0.12499889E+03</pdfrwt>
<totfact> 0.10207669E+04</totfact>
</mgrwt>
</event>
<event>
 5    1  0.3179758E-002  0.1249991E+03  0.7818608E-02  0.1235071E+00
          4   -1    0    0  501    0  0.00000000000E+00  0.00000000000E+00  0.74819247295E+01  0.75889457540E+01  0.12700000000E+01 0.  1.
         -4   -1    0    0    0  501 -0.00000000000E+00 -0.00000000000E+00 -0.51826905532E+03  0.51827061136E+03  0.12700000000E+01 0.  1.
         25    2    1    2    0    0  0.00000000000E+00  0.00000000000E+00 -0.51078713059E+03  0.52585955712E+03  0.12499912413E+03 0.  0.
    9000005    1    3    3    0    0  0.23387304841E+02 -0.42081247829E+02 -0.87781340750E+02  0.10012173206E+03  0.10000000000E+01 0.  0.
    9000005    1    3    3    0    0 -0.23387304841E+02  0.42081247829E+02 -0.42300578984E+03  0.42573782506E+03  0.10000000000E+01 0.  0.
<mgrwt>
<rscale>  0 0.12499912E+03</rscale>
<asrwt>0</asrwt>
<pdfrwt beam="1">  1        4 0.11594178E-02 0.12499912E+03</pdfrwt>
<pdfrwt beam="2">  1       -4 0.79742025E-01 0.12499912E+03</pdfrwt>
<totfact> 0.53913409E+03</totfact>
</mgrwt>
</event>
<event>
 5    1  0.3179758E-002  0.1250020E+03  0.7818608E-02  0.1235066E+00
          4   -1    0    0  501    0  0.00000000000E+00  0.00000000000E+00  0.10997197359E+03  0.10997930657E+03  0.12700000000E+01 0.  1.
         -4   -1    0    0    0  501 -0.00000000000E+00 -0.00000000000E+00 -0.35501687250E+02  0.35524395809E+02  0.12700000000E+01 0.  1.
         25    2    1    2    0    0  0.00000000000E+00  0.00000000000E+00  0.74470286337E+02  0.14550370238E+03  0.12500201542E+03 0.  0.
    9000005    1    3    3    0    0  0.19939472839E+02 -0.51987353551E+02  0.42069950404E+01  0.55847706431E+02  0.10000000000E+01 0.  0.
    9000005    1    3    3    0    0 -0.19939472839E+02  0.51987353551E+02  0.70263291296E+02  0.89655995952E+02  0.10000000000E+01 0.  0.
<mgrwt>
<rscale>  0 0.12500202E+03</rscale>
<asrwt>0</asrwt>
<pdfrwt beam="1">  1        4 0.16921076E-01 0.12500202E+03</pdfrwt>
<pdfrwt beam="2">  1       -4 0.54641089E-02 0.12500202E+03</pdfrwt>
<totfact> 0.10020310E+04</totfact>
</mgrwt>
</event>
<event>
 5    1  0.3179758E-002  0.1249979E+03  0.7818608E-02  0.1235073E+00
         -4   -1    0    0    0  501 -0.00000000000E+00  0.00000000000E+00  0.14614887438E+04  0.14614892956E+04  0.12700000000E+01 0.  1.
          4   -1    0    0  501    0  0.00000000000E+00 -0.00000000000E+00 -0.25212455782E+01  0.28230443258E+01  0.12700000000E+01 0.  1.
         25    2    1    2    0    0  0.00000000000E+00  0.00000000000E+00  0.14589674982E+04  0.14643123399E+04  0.12499787195E+03 0.  0.
    9000005    1    3    3    0    0  0.58263039320E+02  0.22594926949E+02  0.73027163619E+03  0.73294118120E+03  0.10000000000E+01 0.  0.
    9000005    1    3    3    0    0 -0.58263039320E+02 -0.22594926949E+02  0.72869586205E+03  0.73137115874E+03  0.10000000000E+01 0.  0.
<mgrwt>
<rscale>  0 0.12499787E+03</rscale>
<asrwt>0</asrwt>
<pdfrwt beam="2">  1        4 0.41114209E-03 0.12499787E+03</pdfrwt>
<pdfrwt beam="1">  1       -4 0.22486745E+00 0.12499787E+03</pdfrwt>
<totfact> 0.18642384E+03</totfact>
</mgrwt>
</event>
<event>
 5    1  0.3179758E-002  0.1250119E+03  0.7818608E-02  0.1235051E+00
          4   -1    0    0  501    0  0.00000000000E+00  0.00000000000E+00  0.53975542268E+03  0.53975691678E+03  0.12700000000E+01 0. -1.
         -4   -1    0    0    0  501 -0.00000000000E+00 -0.00000000000E+00 -0.71812335367E+01  0.72926685862E+01  0.12700000000E+01 0. -1.
         25    2    1    2    0    0  0.00000000000E+00  0.00000000000E+00  0.53257418914E+03  0.54704958537E+03  0.12501192706E+03 0.  0.
    9000005    1    3    3    0    0  0.23889758631E+02 -0.50329992018E+02  0.39022598066E+03  0.39418415068E+03  0.10000000000E+01 0.  0.
    9000005    1    3    3    0    0 -0.23889758631E+02  0.50329992018E+02  0.14234820848E+03  0.15286543469E+03  0.10000000000E+01 0.  0.
<mgrwt>
<rscale>  0 0.12501193E+03</rscale>
<asrwt>0</asrwt>
<pdfrwt beam="1">  1        4 0.83047980E-01 0.12501193E+03</pdfrwt>
<pdfrwt beam="2">  1       -4 0.11134921E-02 0.12501193E+03</pdfrwt>
<totfact> 0.52376478E+03</totfact>
</mgrwt>
</event>
<event>
 5    1  0.3179758E-002  0.1250010E+03  0.7818608E-02  0.1235068E+00
         -4   -1    0    0    0  501 -0.00000000000E+00  0.00000000000E+00  0.82813223125E+02  0.82822960731E+02  0.12700000000E+01 0. -1.
          4   -1    0    0  501    0  0.00000000000E+00 -0.00000000000E+00 -0.47149109503E+02  0.47166210649E+02  0.12700000000E+01 0. -1.
         25    2    1    2    0    0  0.00000000000E+00  0.00000000000E+00  0.35664113621E+02  0.12998917138E+03  0.12500102270E+03 0.  0.
    9000005    1    3    3    0    0  0.26303933787E+02  0.53121764670E+02 -0.27437454256E+01  0.59349363546E+02  0.10000000000E+01 0.  0.
    9000005    1    3    3    0    0 -0.26303933787E+02 -0.53121764670E+02  0.38407859047E+02  0.70639807835E+02  0.10000000000E+01 0.  0.
<mgrwt>
<rscale>  0 0.12500102E+03</rscale>
<asrwt>0</asrwt>
<pdfrwt beam="2">  1        4 0.72557737E-02 0.12500102E+03</pdfrwt>
<pdfrwt beam="1">  1       -4 0.12742560E-01 0.12500102E+03</pdfrwt>
<totfact> 0.10344500E+04</totfact>
</mgrwt>
</event>
<event>
 5    1  0.3179758E-002  0.1250004E+03  0.7818608E-02  0.1235069E+00
         -4   -1    0    0    0  501 -0.00000000000E+00  0.00000000000E+00  0.31584404336E+01  0.34042100365E+01  0.12700000000E+01 0. -1.
          4   -1    0    0  501    0  0.00000000000E+00 -0.00000000000E+00 -0.11902100439E+04  0.11902107215E+04  0.12700000000E+01 0. -1.
         25    2    1    2    0    0  0.00000000000E+00  0.00000000000E+00 -0.11870516035E+04  0.11936149316E+04  0.12500038169E+03 0.  0.
    9000005    1    3    3    0    0 -0.58699313881E+02 -0.21283298651E+02 -0.61821592341E+03  0.62136182390E+03  0.10000000000E+01 0.  0.
    9000005    1    3    3    0    0  0.58699313881E+02  0.21283298651E+02 -0.56883568011E+03  0.57225310765E+03  0.10000000000E+01 0.  0.
<mgrwt>
<rscale>  0 0.12500038E+03</rscale>
<asrwt>0</asrwt>
<pdfrwt beam="2">  1        4 0.18312785E+00 0.12500038E+03</pdfrwt>
<pdfrwt beam="1">  1       -4 0.50487234E-03 0.12500038E+03</pdfrwt>
<totfact> 0.24880341E+03</totfact>
</mgrwt>
</event>
<event>
 5    1  0.3179758E-002  0.1249990E+03  0.7818608E-02  0.1235071E+00
         -4   -1    0    0    0  501 -0.00000000000E+00  0.00000000000E+00  0.94187329624E+01  0.95039692033E+01  0.12700000000E+01 0.  1.
          4   -1    0    0  501    0  0.00000000000E+00 -0.00000000000E+00 -0.41277095060E+03  0.41277290435E+03  0.12700000000E+01 0.  1.
         25    2    1    2    0    0  0.00000000000E+00  0.00000000000E+00 -0.40335221764E+03  0.42227687355E+03  0.12499898583E+03 0.  0.
    9000005    1    3    3    0    0  0.15929541814E+02 -0.50883399542E+02 -0.31178380146E+03  0.31631157029E+03  0.10000000000E+01 0.  0.
    9000005    1    3    3    0    0 -0.15929541814E+02  0.50883399542E+02 -0.91568416185E+02  0.10596530326E+03  0.10000000000E+01 0.  0.
<mgrwt>
<rscale>  0 0.12499899E+03</rscale>
<asrwt>0</asrwt>
<pdfrwt beam="2">  1        4 0.63509916E-01 0.12499899E+03</pdfrwt>
<pdfrwt beam="1">  1       -4 0.14557431E-02 0.12499899E+03</pdfrwt>
<totfact> 0.62443742E+03</totfact>
</mgrwt>
</event>
<event>
 5    1  0.3179758E-002  0.1250017E+03  0.7818608E-02  0.1235067E+00
          4   -1    0    0  501    0  0.00000000000E+00  0.00000000000E+00  0.14149743945E+02  0.14206623586E+02  0.12700000000E+01 0.  1.
         -4   -1    0    0    0  501 -0.00000000000E+00 -0.00000000000E+00 -0.27546036912E+03  0.27546329675E+03  0.12700000000E+01 0.  1.
         25    2    1    2    0    0  0.00000000000E+00  0.00000000000E+00 -0.26131062518E+03  0.28966992034E+03  0.12500167966E+03 0.  0.
    9000005    1    3    3    0    0 -0.45623827953E+02 -0.25637058402E+02 -0.51507017510E+02  0.73435449841E+02  0.10000000000E+01 0.  0.
    9000005    1    3    3    0    0  0.45623827953E+02  0.25637058402E+02 -0.20980360767E+03  0.21623447050E+03  0.10000000000E+01 0.  0.
<mgrwt>
<rscale>  0 0.12500168E+03</rscale>
<asrwt>0</asrwt>
<pdfrwt beam="1">  1        4 0.21814844E-02 0.12500168E+03</pdfrwt>
<pdfrwt beam="2">  1       -4 0.42383115E-01 0.12500168E+03</pdfrwt>
<totfact> 0.76910301E+03</totfact>
</mgrwt>
</event>
<event>
 5    1  0.3179758E-002  0.1249947E+03  0.7818608E-02  0.1235078E+00
          4   -1    0    0  501    0  0.00000000000E+00  0.00000000000E+00  0.46392652654E+02  0.46410032539E+02  0.12700000000E+01 0. -1.
         -4   -1    0    0    0  501 -0.00000000000E+00 -0.00000000000E+00 -0.84154726977E+02  0.84164309375E+02  0.12700000000E+01 0. -1.
         25    2    1    2    0    0  0.00000000000E+00  0.00000000000E+00 -0.37762074323E+02  0.13057434191E+03  0.12499473793E+03 0.  0.
    9000005    1    3    3    0    0  0.27737912535E+02 -0.40335488215E+02 -0.59455236725E+02  0.77021221591E+02  0.10000000000E+01 0.  0.
    9000005    1    3    3    0    0 -0.27737912535E+02  0.40335488215E+02  0.21693162401E+02  0.53553120323E+02  0.10000000000E+01 0.  0.
<mgrwt>
<rscale>  0 0.12499474E+03</rscale>
<asrwt>0</asrwt>
<pdfrwt beam="1">  1        4 0.71394052E-02 0.12499474E+03</pdfrwt>
<pdfrwt beam="2">  1       -4 0.12948955E-01 0.12499474E+03</pdfrwt>
<totfact> 0.10333450E+04</totfact>
</mgrwt>
</event>
<event>
 5    1  0.3179758E-002  0.1250025E+03  0.7818608E-02  0.1235065E+00
          4   -1    0    0  501    0  0.00000000000E+00  0.00000000000E+00  0.52601757836E+02  0.52617086839E+02  0.12700000000E+01 0. -1.
         -4   -1    0    0    0  501 -0.00000000000E+00 -0.00000000000E+00 -0.74232196884E+02  0.74243059973E+02  0.12700000000E+01 0. -1.
         25    2    1    2    0    0  0.00000000000E+00  0.00000000000E+00 -0.21630439048E+02  0.12686014681E+03  0.12500248380E+03 0.  0.
    9000005    1    3    3    0    0 -0.40242231487E+01 -0.62130372097E+02 -0.16283025621E+02  0.64362368138E+02  0.10000000000E+01 0.  0.
    9000005    1    3    3    0    0  0.40242231487E+01  0.62130372097E+02 -0.53474134269E+01  0.62497778675E+02  0.10000000000E+01 0.  0.
<mgrwt>
<rscale>  0 0.12500248E+03</rscale>
<asrwt>0</asrwt>
<pdfrwt beam="1">  1        4 0.80945929E-02 0.12500248E+03</pdfrwt>
<pdfrwt beam="2">  1       -4 0.11422353E-01 0.12500248E+03</pdfrwt>
<totfact> 0.10411602E+04</totfact>
</mgrwt>
</event>
<event>
 5    1  0.3179758E-002  0.1250011E+03  0.7818608E-02  0.1235068E+00
         -4   -1    0    0    0  501 -0.00000000000E+00  0.00000000000E+00  0.12097166701E+03  0.12097833326E+03  0.12700000000E+01 0.  1.
          4   -1    0    0  501    0  0.00000000000E+00 -0.00000000000E+00 -0.32271143736E+02  0.32296123886E+02  0.12700000000E+01 0.  1.
         25    2    1    2    0    0  0.00000000000E+00  0.00000000000E+00  0.88700523270E+02  0.15327445715E+03  0.12500110553E+03 0.  0.
    9000005    1    3    3    0    0 -0.31690921613E+02 -0.36787879256E+02  0.92588698235E+02  0.10455299907E+03  0.10000000000E+01 0.  0.
    9000005    1    3    3    0    0  0.31690921613E+02  0.36787879256E+02 -0.38881749646E+01  0.48721458079E+02  0.10000000000E+01 0.  0.
<mgrwt>
<rscale>  0 0.12500111E+03</rscale>
<asrwt>0</asrwt>
<pdfrwt beam="2">  1        4 0.49672257E-02 0.12500111E+03</pdfrwt>
<pdfrwt beam="1">  1       -4 0.18613460E-01 0.12500111E+03</pdfrwt>
<totfact> 0.98652489E+03</totfact>
</mgrwt>
</event>
<event>
 5    1  0.3179758E-002  0.1249997E+03  0.7818608E-02  0.1235070E+00
         -4   -1    0    0    0  501 -0.00000000000E+00  0.00000000000E+00  0.29337200643E+02  0.29364676766E+02  0.12700000000E+01 0. -1.
          4   -1    0    0  501    0  0.00000000000E+00 -0.00000000000E+00 -0.13305657740E+03  0.13306263822E+03  0.12700000000E+01 0. -1.
         25    2    1    2    0    0  0.00000000000E+00  0.00000000000E+00 -0.10371937676E+03  0.16242731498E+03  0.12499969415E+03 0.  0.
    9000005    1    3    3    0    0  0.35833833966E+02 -0.22264499024E+02  0.80471655230E+01  0.42959614133E+02  0.10000000000E+01 0.  0.
    9000005    1    3    3    0    0 -0.35833833966E+02  0.22264499024E+02 -0.11176654228E+03  0.11946770085E+03  0.10000000000E+01 0.  0.
<mgrwt>
<rscale>  0 0.12499969E+03</rscale>
<asrwt>0</asrwt>
<pdfrwt beam="2">  1        4 0.20472822E-01 0.12499969E+03</pdfrwt>
<pdfrwt beam="1">  1       -4 0.45159953E-02 0.12499969E+03</pdfrwt>
<totfact> 0.96877515E+03</totfact>
</mgrwt>
</event>
<event>
 5    1  0.3179758E-002  0.1249993E+03  0.7818608E-02  0.1235070E+00
          4   -1    0    0  501    0  0.00000000000E+00  0.00000000000E+00  0.10792985470E+02  0.10867448429E+02  0.12700000000E+01 0.  1.
         -4   -1    0    0    0  501 -0.00000000000E+00 -0.00000000000E+00 -0.36060110031E+03  0.36060333671E+03  0.12700000000E+01 0.  1.
         25    2    1    2    0    0  0.00000000000E+00  0.00000000000E+00 -0.34980811484E+03  0.37147078514E+03  0.12499930801E+03 0.  0.
    9000005    1    3    3    0    0  0.33748493864E+02  0.66006725335E+01 -0.19838580567E+02  0.39712705711E+02  0.10000000000E+01 0.  0.
    9000005    1    3    3    0    0 -0.33748493864E+02 -0.66006725335E+01 -0.32996953427E+03  0.33175807942E+03  0.10000000000E+01 0.  0.
<mgrwt>
<rscale>  0 0.12499931E+03</rscale>
<asrwt>0</asrwt>
<pdfrwt beam="1">  1        4 0.16663595E-02 0.12499931E+03</pdfrwt>
<pdfrwt beam="2">  1       -4 0.55482983E-01 0.12499931E+03</pdfrwt>
<totfact> 0.67426381E+03</totfact>
</mgrwt>
</event>
<event>
 4    1  0.3179758E-002  0.1247463E+03  0.7818608E-02  0.1235466E+00
          4   -1    0    0  501    0  0.00000000000E+00  0.00000000000E+00  0.36866505213E+02  0.36888373597E+02  0.12700000000E+01 0.  1.
         -4   -1    0    0    0  501 -0.00000000000E+00 -0.00000000000E+00 -0.10547002380E+03  0.10547766977E+03  0.12700000000E+01 0.  1.
    9000005    1    1    2    0    0 -0.92584966426E+00 -0.22282734978E+01 -0.10542233872E+03  0.10545469123E+03  0.10000000000E+01 0.  0.
    9000005    1    1    2    0    0  0.92584966426E+00  0.22282734978E+01  0.36818820137E+02  0.36911352138E+02  0.10000000000E+01 0.  0.
<mgrwt>
<rscale>  0 0.12474633E+03</rscale>
<asrwt>0</asrwt>
<pdfrwt beam="1">  1        4 0.56740404E-02 0.12474633E+03</pdfrwt>
<pdfrwt beam="2">  1       -4 0.16228428E-01 0.12474633E+03</pdfrwt>
<totfact> 0.10142619E+04</totfact>
</mgrwt>
</event>
<event>
 5    1  0.3179758E-002  0.1250014E+03  0.7818608E-02  0.1235067E+00
          4   -1    0    0  501    0  0.00000000000E+00  0.00000000000E+00  0.16037036359E+02  0.16087244487E+02  0.12700000000E+01 0.  1.
         -4   -1    0    0    0  501 -0.00000000000E+00 -0.00000000000E+00 -0.24314959218E+03  0.24315290884E+03  0.12700000000E+01 0.  1.
         25    2    1    2    0    0  0.00000000000E+00  0.00000000000E+00 -0.22711255582E+03  0.25924015333E+03  0.12500137633E+03 0.  0.
    9000005    1    3    3    0    0  0.30753721366E+02  0.84565439746E+00 -0.74631779067E+00  0.30790639803E+02  0.10000000000E+01 0.  0.
    9000005    1    3    3    0    0 -0.30753721366E+02 -0.84565439746E+00 -0.22636623803E+03  0.22844951352E+03  0.10000000000E+01 0.  0.
<mgrwt>
<rscale>  0 0.12500138E+03</rscale>
<asrwt>0</asrwt>
<pdfrwt beam="1">  1        4 0.24713538E-02 0.12500138E+03</pdfrwt>
<pdfrwt beam="2">  1       -4 0.37411744E-01 0.12500138E+03</pdfrwt>
<totfact> 0.81010332E+03</totfact>
</mgrwt>
</event>
<event>
 5    1  0.3179758E-002  0.1250017E+03  0.7818608E-02  0.1235067E+00
         -4   -1    0    0    0  501 -0.00000000000E+00  0.00000000000E+00  0.13648000476E+02  0.13706962355E+02  0.12700000000E+01 0. -1.
          4   -1    0    0  501    0  0.00000000000E+00 -0.00000000000E+00 -0.28554460259E+03  0.28554742683E+03  0.12700000000E+01 0. -1.
         25    2    1    2    0    0  0.00000000000E+00  0.00000000000E+00 -0.27189660212E+03  0.29925438919E+03  0.12500170881E+03 0.  0.
    9000005    1    3    3    0    0 -0.60655155289E+02 -0.42808768276E+01 -0.10142291598E+03  0.11825811454E+03  0.10000000000E+01 0.  0.
    9000005    1    3    3    0    0  0.60655155289E+02  0.42808768276E+01 -0.17047368614E+03  0.18099627465E+03  0.10000000000E+01 0.  0.
<mgrwt>
<rscale>  0 0.12500171E+03</rscale>
<asrwt>0</asrwt>
<pdfrwt beam="2">  1        4 0.43934687E-01 0.12500171E+03</pdfrwt>
<pdfrwt beam="1">  1       -4 0.21044454E-02 0.12500171E+03</pdfrwt>
<totfact> 0.75689593E+03</totfact>
</mgrwt>
</event>
<event>
 5    1  0.3179758E-002  0.1250002E+03  0.7818608E-02  0.1235069E+00
         -4   -1    0    0    0  501 -0.00000000000E+00  0.00000000000E+00  0.11168195334E+02  0.11240172909E+02  0.12700000000E+01 0.  1.
          4   -1    0    0  501    0  0.00000000000E+00 -0.00000000000E+00 -0.34857014487E+03  0.34857245846E+03  0.12700000000E+01 0.  1.
         25    2    1    2    0    0  0.00000000000E+00  0.00000000000E+00 -0.33740194954E+03  0.35981263137E+03  0.12500021656E+03 0.  0.
    9000005    1    3    3    0    0  0.61148388516E+01 -0.30199339235E+01  0.10107907940E+02  0.12234421033E+02  0.10000000000E+01 0.  0.
    9000005    1    3    3    0    0 -0.61148388516E+01  0.30199339235E+01 -0.34750985748E+03  0.34757821033E+03  0.10000000000E+01 0.  0.
<mgrwt>
<rscale>  0 0.12500022E+03</rscale>
<asrwt>0</asrwt>
<pdfrwt beam="2">  1        4 0.53631883E-01 0.12500022E+03</pdfrwt>
<pdfrwt beam="1">  1       -4 0.17238989E-02 0.12500022E+03</pdfrwt>
<totfact> 0.68658042E+03</totfact>
</mgrwt>
</event>
<event>
 5    1  0.3179758E-002  0.1250019E+03  0.7818608E-02  0.1235066E+00
          4   -1    0    0  501    0  0.00000000000E+00  0.00000000000E+00  0.17534708568E+02  0.17580640050E+02  0.12700000000E+01 0.  1.
         -4   -1    0    0    0  501 -0.00000000000E+00 -0.00000000000E+00 -0.22244006554E+03  0.22244369098E+03  0.12700000000E+01 0.  1.
         25    2    1    2    0    0  0.00000000000E+00  0.00000000000E+00 -0.20490535697E+03  0.24002433103E+03  0.12500189667E+03 0.  0.
    9000005    1    3    3    0    0 -0.45758734098E+02  0.42537955273E+02 -0.99717431351E+02  0.11767712395E+03  0.10000000000E+01 0.  0.
    9000005    1    3    3    0    0  0.45758734098E+02 -0.42537955273E+02 -0.10518792562E+03  0.12234720708E+03  0.10000000000E+01 0.  0.
<mgrwt>
<rscale>  0 0.12500190E+03</rscale>
<asrwt>0</asrwt>
<pdfrwt beam="1">  1        4 0.27014597E-02 0.12500190E+03</pdfrwt>
<pdfrwt beam="2">  1       -4 0.34225359E-01 0.12500190E+03</pdfrwt>
<totfact> 0.83790202E+03</totfact>
</mgrwt>
</event>
<event>
 5    1  0.3179758E-002  0.1249974E+03  0.7818608E-02  0.1235073E+00
         -4   -1    0    0    0  501 -0.00000000000E+00  0.00000000000E+00  0.18210961153E+03  0.18211403985E+03  0.12700000000E+01 0. -1.
          4   -1    0    0  501    0  0.00000000000E+00 -0.00000000000E+00 -0.21425596886E+02  0.21463203441E+02  0.12700000000E+01 0. -1.
         25    2    1    2    0    0  0.00000000000E+00  0.00000000000E+00  0.16068401464E+03  0.20357724329E+03  0.12499736567E+03 0.  0.
    9000005    1    3    3    0    0 -0.31752530511E+02 -0.25485813632E+01  0.16790182650E+03  0.17089980048E+03  0.10000000000E+01 0.  0.
    9000005    1    3    3    0    0  0.31752530511E+02  0.25485813632E+01 -0.72178118599E+01  0.32677442814E+02  0.10000000000E+01 0.  0.
<mgrwt>
<rscale>  0 0.12499737E+03</rscale>
<asrwt>0</asrwt>
<pdfrwt beam="2">  1        4 0.32994792E-02 0.12499737E+03</pdfrwt>
<pdfrwt beam="1">  1       -4 0.28020096E-01 0.12499737E+03</pdfrwt>
<totfact> 0.89540939E+03</totfact>
</mgrwt>
</event>
<event>
 5    1  0.3179758E-002  0.1249971E+03  0.7818608E-02  0.1235074E+00
         -4   -1    0    0    0  501 -0.00000000000E+00  0.00000000000E+00  0.30058142789E+03  0.30058411085E+03  0.12700000000E+01 0. -1.
          4   -1    0    0  501    0  0.00000000000E+00 -0.00000000000E+00 -0.12961270917E+02  0.13023342266E+02  0.12700000000E+01 0. -1.
         25    2    1    2    0    0  0.00000000000E+00  0.00000000000E+00  0.28762015698E+03  0.31360745312E+03  0.12499711977E+03 0.  0.
    9000005    1    3    3    0    0 -0.12380937662E+02 -0.57708679577E+02  0.92301406467E+02  0.10956335588E+03  0.10000000000E+01 0.  0.
    9000005    1    3    3    0    0  0.12380937662E+02  0.57708679577E+02  0.19531875051E+03  0.20404409724E+03  0.10000000000E+01 0.  0.
<mgrwt>
<rscale>  0 0.12499712E+03</rscale>
<asrwt>0</asrwt>
<pdfrwt beam="2">  1        4 0.19990226E-02 0.12499712E+03</pdfrwt>
<pdfrwt beam="1">  1       -4 0.46248282E-01 0.12499712E+03</pdfrwt>
<totfact> 0.73927657E+03</totfact>
</mgrwt>
</event>
<event>
 5    1  0.3179758E-002  0.1249939E+03  0.7818608E-02  0.1235079E+00
          4   -1    0    0  501    0  0.00000000000E+00  0.00000000000E+00  0.25244134073E+03  0.25244453531E+03  0.12700000000E+01 0. -1.
         -4   -1    0    0    0  501 -0.00000000000E+00 -0.00000000000E+00 -0.15443011185E+02  0.15495144222E+02  0.12700000000E+01 0. -1.
         25    2    1    2    0    0  0.00000000000E+00  0.00000000000E+00  0.23699832954E+03  0.26793967954E+03  0.12499385450E+03 0.  0.
    9000005    1    3    3    0    0 -0.26537927645E+02 -0.52106395824E+02  0.16573324199E+03  0.17574938290E+03  0.10000000000E+01 0.  0.
    9000005    1    3    3    0    0  0.26537927645E+02  0.52106395824E+02  0.71265087558E+02  0.92190296638E+02  0.10000000000E+01 0.  0.
<mgrwt>
<rscale>  0 0.12499385E+03</rscale>
<asrwt>0</asrwt>
<pdfrwt beam="1">  1        4 0.38841383E-01 0.12499385E+03</pdfrwt>
<pdfrwt beam="2">  1       -4 0.23801040E-02 0.12499385E+03</pdfrwt>
<totfact> 0.79815504E+03</totfact>
</mgrwt>
</event>
<event>
 5    1  0.3179758E-002  0.1250000E+03  0.7818608E-02  0.1235069E+00
          4   -1    0    0  501    0  0.00000000000E+00  0.00000000000E+00  0.38951272269E+03  0.38951479310E+03  0.12700000000E+01 0.  1.
         -4   -1    0    0    0  501 -0.00000000000E+00 -0.00000000000E+00 -0.99862361308E+01  0.10066668369E+02  0.12700000000E+01 0.  1.
         25    2    1    2    0    0  0.00000000000E+00  0.00000000000E+00  0.37952648656E+03  0.39958146146E+03  0.12499996137E+03 0.  0.
    9000005    1    3    3    0    0  0.45787121220E+02 -0.32345019148E+02  0.10148775897E+03  0.11594578886E+03  0.10000000000E+01 0.  0.
    9000005    1    3    3    0    0 -0.45787121220E+02  0.32345019148E+02  0.27803872759E+03  0.28363567261E+03  0.10000000000E+01 0.  0.
<mgrwt>
<rscale>  0 0.12499996E+03</rscale>
<asrwt>0</asrwt>
<pdfrwt beam="1">  1        4 0.59931380E-01 0.12499996E+03</pdfrwt>
<pdfrwt beam="2">  1       -4 0.15426904E-02 0.12499996E+03</pdfrwt>
<totfact> 0.64593570E+03</totfact>
</mgrwt>
</event>
<event>
 5    1  0.3179758E-002  0.1249985E+03  0.7818608E-02  0.1235072E+00
          4   -1    0    0  501    0  0.00000000000E+00  0.00000000000E+00  0.10723838393E+03  0.10724590383E+03  0.12700000000E+01 0. -1.
         -4   -1    0    0    0  501 -0.00000000000E+00 -0.00000000000E+00 -0.36405086023E+02  0.36427231412E+02  0.12700000000E+01 0. -1.
         25    2    1    2    0    0  0.00000000000E+00  0.00000000000E+00  0.70833297907E+02  0.14367313524E+03  0.12499845478E+03 0.  0.
    9000005    1    3    3    0    0 -0.49610857186E+02  0.24853890130E+02  0.68454639926E+02  0.88124858767E+02  0.10000000000E+01 0.  0.
    9000005    1    3    3    0    0  0.49610857186E+02 -0.24853890130E+02  0.23786579805E+01  0.55548276473E+02  0.10000000000E+01 0.  0.
<mgrwt>
<rscale>  0 0.12499845E+03</rscale>
<asrwt>0</asrwt>
<pdfrwt beam="1">  1        4 0.16500495E-01 0.12499845E+03</pdfrwt>
<pdfrwt beam="2">  1       -4 0.56030644E-02 0.12499845E+03</pdfrwt>
<totfact> 0.10058367E+04</totfact>
</mgrwt>
</event>
<event>
 5    1  0.3179758E-002  0.1250038E+03  0.7818608E-02  0.1235063E+00
          4   -1    0    0  501    0  0.00000000000E+00  0.00000000000E+00  0.43917873629E+03  0.43918057256E+03  0.12700000000E+01 0.  1.
         -4   -1    0    0    0  501 -0.00000000000E+00 -0.00000000000E+00 -0.88477863453E+01  0.89384687286E+01  0.12700000000E+01 0.  1.
         25    2    1    2    0    0  0.00000000000E+00  0.00000000000E+00  0.43033094995E+03  0.44811904129E+03  0.12500379466E+03 0.  0.
    9000005    1    3    3    0    0  0.42252270527E+02 -0.12518527169E+02  0.56315267398E+02  0.71514874182E+02  0.10000000000E+01 0.  0.
    9000005    1    3    3    0    0 -0.42252270527E+02  0.12518527169E+02  0.37401568255E+03  0.37660416711E+03  0.10000000000E+01 0.  0.
<mgrwt>
<rscale>  0 0.12500379E+03</rscale>
<asrwt>0</asrwt>
<pdfrwt beam="1">  1        4 0.67573085E-01 0.12500379E+03</pdfrwt>
<pdfrwt beam="2">  1       -4 0.13683145E-02 0.12500379E+03</pdfrwt>
<totfact> 0.60122056E+03</totfact>
</mgrwt>
</event>
<event>
 5    1  0.3179758E-002  0.1250180E+03  0.7818608E-02  0.1235041E+00
          4   -1    0    0  501    0  0.00000000000E+00  0.00000000000E+00  0.63763438965E+02  0.63776085241E+02  0.12700000000E+01 0.  1.
         -4   -1    0    0    0  501 -0.00000000000E+00 -0.00000000000E+00 -0.61253976027E+02  0.61267140288E+02  0.12700000000E+01 0.  1.
         25    2    1    2    0    0  0.00000000000E+00  0.00000000000E+00  0.25094629384E+01  0.12504322553E+03  0.12501804208E+03 0.  0.
    9000005    1    3    3    0    0 -0.34802141039E+01 -0.39158830078E+02 -0.47343654069E+02  0.61546303252E+02  0.10000000000E+01 0.  0.
    9000005    1    3    3    0    0  0.34802141039E+01  0.39158830078E+02  0.49853117008E+02  0.63496922277E+02  0.10000000000E+01 0.  0.
<mgrwt>
<rscale>  0 0.12501804E+03</rscale>
<asrwt>0</asrwt>
<pdfrwt beam="1">  1        4 0.98117453E-02 0.12501804E+03</pdfrwt>
<pdfrwt beam="2">  1       -4 0.94256740E-02 0.12501804E+03</pdfrwt>
<totfact> 0.10447663E+04</totfact>
</mgrwt>
</event>
<event>
 5    1  0.3179758E-002  0.1250025E+03  0.7818608E-02  0.1235065E+00
         -4   -1    0    0    0  501 -0.00000000000E+00  0.00000000000E+00  0.43435553554E+03  0.43435739219E+03  0.12700000000E+01 0.  1.
          4   -1    0    0  501    0  0.00000000000E+00 -0.00000000000E+00 -0.89468425505E+01  0.90365309507E+01  0.12700000000E+01 0.  1.
         25    2    1    2    0    0  0.00000000000E+00  0.00000000000E+00  0.42540869299E+03  0.44339392314E+03  0.12500246002E+03 0.  0.
    9000005    1    3    3    0    0 -0.32169529494E+02  0.26000126970E+02  0.46538868130E+02  0.62271594465E+02  0.10000000000E+01 0.  0.
    9000005    1    3    3    0    0  0.32169529494E+02 -0.26000126970E+02  0.37886982486E+03  0.38112232868E+03  0.10000000000E+01 0.  0.
<mgrwt>
<rscale>  0 0.12500246E+03</rscale>
<asrwt>0</asrwt>
<pdfrwt beam="2">  1        4 0.13834792E-02 0.12500246E+03</pdfrwt>
<pdfrwt beam="1">  1       -4 0.66830972E-01 0.12500246E+03</pdfrwt>
<totfact> 0.60537098E+03</totfact>
</mgrwt>
</event>
<event>
 5    1  0.3179758E-002  0.1249999E+03  0.7818608E-02  0.1235070E+00
         -4   -1    0    0    0  501 -0.00000000000E+00  0.00000000000E+00  0.36303453894E+02  0.36325661241E+02  0.12700000000E+01 0.  1.
          4   -1    0    0  501    0  0.00000000000E+00 -0.00000000000E+00 -0.10754084260E+03  0.10754834135E+03  0.12700000000E+01 0.  1.
         25    2    1    2    0    0  0.00000000000E+00  0.00000000000E+00 -0.71237388705E+02  0.14387400259E+03  0.12499985229E+03 0.  0.
    9000005    1    3    3    0    0 -0.55962031119E+02  0.12608143240E+02 -0.70859755160E+01  0.57809387230E+02  0.10000000000E+01 0.  0.
    9000005    1    3    3    0    0  0.55962031119E+02 -0.12608143240E+02 -0.64151413189E+02  0.86064615360E+02  0.10000000000E+01 0.  0.
<mgrwt>
<rscale>  0 0.12499985E+03</rscale>
<asrwt>0</asrwt>
<pdfrwt beam="2">  1        4 0.16547030E-01 0.12499985E+03</pdfrwt>
<pdfrwt beam="1">  1       -4 0.55874319E-02 0.12499985E+03</pdfrwt>
<totfact> 0.10053950E+04</totfact>
</mgrwt>
</event>
<event>
 5    1  0.3179758E-002  0.1249932E+03  0.7818608E-02  0.1235080E+00
          4   -1    0    0  501    0  0.00000000000E+00  0.00000000000E+00  0.67343671403E+03  0.67343791154E+03  0.12700000000E+01 0.  1.
         -4   -1    0    0    0  501 -0.00000000000E+00 -0.00000000000E+00 -0.57290945348E+01  0.58681704295E+01  0.12700000000E+01 0.  1.
         25    2    1    2    0    0  0.00000000000E+00  0.00000000000E+00  0.66770761949E+03  0.67930608197E+03  0.12499315130E+03 0.  0.
    9000005    1    3    3    0    0 -0.14846048891E+02 -0.40623123279E+02  0.88736584402E+02  0.98720943695E+02  0.10000000000E+01 0.  0.
    9000005    1    3    3    0    0  0.14846048891E+02  0.40623123279E+02  0.57897103509E+03  0.58058513827E+03  0.10000000000E+01 0.  0.
<mgrwt>
<rscale>  0 0.12499315E+03</rscale>
<asrwt>0</asrwt>
<pdfrwt beam="1">  1        4 0.10361642E+00 0.12499315E+03</pdfrwt>
<pdfrwt beam="2">  1       -4 0.89218954E-03 0.12499315E+03</pdfrwt>
<totfact> 0.44208478E+03</totfact>
</mgrwt>
</event>
<event>
 5    1  0.3179758E-002  0.1249988E+03  0.7818608E-02  0.1235071E+00
          4   -1    0    0  501    0  0.00000000000E+00  0.00000000000E+00  0.10154148410E+03  0.10154942587E+03  0.12700000000E+01 0.  1.
         -4   -1    0    0    0  501 -0.00000000000E+00 -0.00000000000E+00 -0.38448848515E+02  0.38469817418E+02  0.12700000000E+01 0.  1.
         25    2    1    2    0    0  0.00000000000E+00  0.00000000000E+00  0.63092635589E+02  0.14001924329E+03  0.12499883129E+03 0.  0.
    9000005    1    3    3    0    0  0.47538702681E+02 -0.40480333588E+02  0.34422174138E+02  0.71305481783E+02  0.10000000000E+01 0.  0.
    9000005    1    3    3    0    0 -0.47538702681E+02  0.40480333588E+02  0.28670461451E+02  0.68713761502E+02  0.10000000000E+01 0.  0.
<mgrwt>
<rscale>  0 0.12499883E+03</rscale>
<asrwt>0</asrwt>
<pdfrwt beam="1">  1        4 0.15623991E-01 0.12499883E+03</pdfrwt>
<pdfrwt beam="2">  1       -4 0.59174313E-02 0.12499883E+03</pdfrwt>
<totfact> 0.10133454E+04</totfact>
</mgrwt>
</event>
<event>
 5    1  0.3179758E-002  0.1249991E+03  0.7818608E-02  0.1235071E+00
         -4   -1    0    0    0  501 -0.00000000000E+00  0.00000000000E+00  0.35912927969E+02  0.35935376654E+02  0.12700000000E+01 0. -1.
          4   -1    0    0  501    0  0.00000000000E+00 -0.00000000000E+00 -0.10870830233E+03  0.10871572055E+03  0.12700000000E+01 0. -1.
         25    2    1    2    0    0  0.00000000000E+00  0.00000000000E+00 -0.72795374360E+02  0.14465109721E+03  0.12499909358E+03 0.  0.
    9000005    1    3    3    0    0 -0.35810306954E+01  0.19302919602E+02 -0.10505263123E+03  0.10687601141E+03  0.10000000000E+01 0.  0.
    9000005    1    3    3    0    0  0.35810306954E+01 -0.19302919602E+02  0.32257256873E+02  0.37775085797E+02  0.10000000000E+01 0.  0.
<mgrwt>
<rscale>  0 0.12499909E+03</rscale>
<asrwt>0</asrwt>
<pdfrwt beam="2">  1        4 0.16726652E-01 0.12499909E+03</pdfrwt>
<pdfrwt beam="1">  1       -4 0.55273633E-02 0.12499909E+03</pdfrwt>
<totfact> 0.10038287E+04</totfact>
</mgrwt>
</event>
<event>
 5    1  0.3179758E-002  0.1249962E+03  0.7818608E-02  0.1235075E+00
          4   -1    0    0  501    0  0.00000000000E+00  0.00000000000E+00  0.17902303958E+02  0.17947294699E+02  0.12700000000E+01 0. -1.
         -4   -1    0    0    0  501 -0.00000000000E+00 -0.00000000000E+00 -0.21786410244E+03  0.21786780403E+03  0.12700000000E+01 0. -1.
         25    2    1    2    0    0  0.00000000000E+00  0.00000000000E+00 -0.19996179848E+03  0.23581509873E+03  0.12499615968E+03 0.  0.
    9000005    1    3    3    0    0 -0.11639267640E+02  0.61363260593E+02 -0.10379518735E+03  0.12114191355E+03  0.10000000000E+01 0.  0.
    9000005    1    3    3    0    0  0.11639267640E+02 -0.61363260593E+02 -0.96166611130E+02  0.11467318517E+03  0.10000000000E+01 0.  0.
<mgrwt>
<rscale>  0 0.12499616E+03</rscale>
<asrwt>0</asrwt>
<pdfrwt beam="1">  1        4 0.27579463E-02 0.12499616E+03</pdfrwt>
<pdfrwt beam="2">  1       -4 0.33521298E-01 0.12499616E+03</pdfrwt>
<totfact> 0.84431840E+03</totfact>
</mgrwt>
</event>
<event>
 5    1  0.3179758E-002  0.1250041E+03  0.7818608E-02  0.1235063E+00
         -4   -1    0    0    0  501 -0.00000000000E+00  0.00000000000E+00  0.32528357156E+02  0.32553139930E+02  0.12700000000E+01 0.  1.
          4   -1    0    0  501    0  0.00000000000E+00 -0.00000000000E+00 -0.12002154998E+03  0.12002826900E+03  0.12700000000E+01 0.  1.
         25    2    1    2    0    0  0.00000000000E+00  0.00000000000E+00 -0.87493192821E+02  0.15258140893E+03  0.12500411018E+03 0.  0.
    9000005    1    3    3    0    0  0.77674700123E+00  0.54398854538E+02 -0.81282486236E+02  0.97814524891E+02  0.10000000000E+01 0.  0.
    9000005    1    3    3    0    0 -0.77674700123E+00 -0.54398854538E+02 -0.62107065851E+01  0.54766884038E+02  0.10000000000E+01 0.  0.
<mgrwt>
<rscale>  0 0.12500411E+03</rscale>
<asrwt>0</asrwt>
<pdfrwt beam="2">  1        4 0.18467277E-01 0.12500411E+03</pdfrwt>
<pdfrwt beam="1">  1       -4 0.50067859E-02 0.12500411E+03</pdfrwt>
<totfact> 0.98782465E+03</totfact>
</mgrwt>
</event>
<event>
 5    1  0.3179758E-002  0.1250067E+03  0.7818608E-02  0.1235059E+00
          4   -1    0    0  501    0  0.00000000000E+00  0.00000000000E+00  0.11918979830E+02  0.11986449857E+02  0.12700000000E+01 0. -1.
         -4   -1    0    0    0  501 -0.00000000000E+00 -0.00000000000E+00 -0.32677474756E+03  0.32677721546E+03  0.12700000000E+01 0. -1.
         25    2    1    2    0    0  0.00000000000E+00  0.00000000000E+00 -0.31485576773E+03  0.33876366532E+03  0.12500666568E+03 0.  0.
    9000005    1    3    3    0    0  0.51306057333E+02 -0.10593023620E+02 -0.24977141897E+03  0.25520831766E+03  0.10000000000E+01 0.  0.
    9000005    1    3    3    0    0 -0.51306057333E+02  0.10593023620E+02 -0.65084348761E+02  0.83555347657E+02  0.10000000000E+01 0.  0.
<mgrwt>
<rscale>  0 0.12500667E+03</rscale>
<asrwt>0</asrwt>
<pdfrwt beam="1">  1        4 0.18390693E-02 0.12500667E+03</pdfrwt>
<pdfrwt beam="2">  1       -4 0.50278411E-01 0.12500667E+03</pdfrwt>
<totfact> 0.70968167E+03</totfact>
</mgrwt>
</event>
<event>
 5    1  0.3179758E-002  0.1250048E+03  0.7818608E-02  0.1235062E+00
         -4   -1    0    0    0  501 -0.00000000000E+00  0.00000000000E+00  0.10868666900E+03  0.10869408870E+03  0.12700000000E+01 0. -1.
          4   -1    0    0  501    0  0.00000000000E+00 -0.00000000000E+00 -0.35923346442E+02  0.35945788621E+02  0.12700000000E+01 0. -1.
         25    2    1    2    0    0  0.00000000000E+00  0.00000000000E+00  0.72763322562E+02  0.14463987733E+03  0.12500477192E+03 0.  0.
    9000005    1    3    3    0    0  0.33534733570E+02 -0.33808265748E+02 -0.10447304359E+02  0.48761904771E+02  0.10000000000E+01 0.  0.
    9000005    1    3    3    0    0 -0.33534733570E+02  0.33808265748E+02  0.83210626921E+02  0.95877972554E+02  0.10000000000E+01 0.  0.
<mgrwt>
<rscale>  0 0.12500477E+03</rscale>
<asrwt>0</asrwt>
<pdfrwt beam="2">  1        4 0.55289657E-02 0.12500477E+03</pdfrwt>
<pdfrwt beam="1">  1       -4 0.16723323E-01 0.12500477E+03</pdfrwt>
<totfact> 0.10037232E+04</totfact>
</mgrwt>
</event>
<event>
 5    1  0.3179758E-002  0.1250062E+03  0.7818608E-02  0.1235060E+00
         -4   -1    0    0    0  501 -0.00000000000E+00  0.00000000000E+00  0.90778111218E+02  0.90786994532E+02  0.12700000000E+01 0.  1.
          4   -1    0    0  501    0  0.00000000000E+00 -0.00000000000E+00 -0.43014629277E+02  0.43033373466E+02  0.12700000000E+01 0.  1.
         25    2    1    2    0    0  0.00000000000E+00  0.00000000000E+00  0.47763481941E+02  0.13382036800E+03  0.12500616258E+03 0.  0.
    9000005    1    3    3    0    0  0.46396206493E+02  0.73233116255E+01 -0.20248686130E+02  0.51159047686E+02  0.10000000000E+01 0.  0.
    9000005    1    3    3    0    0 -0.46396206493E+02 -0.73233116255E+01  0.68012168071E+02  0.82661320312E+02  0.10000000000E+01 0.  0.
<mgrwt>
<rscale>  0 0.12500616E+03</rscale>
<asrwt>0</asrwt>
<pdfrwt beam="2">  1        4 0.66197606E-02 0.12500616E+03</pdfrwt>
<pdfrwt beam="1">  1       -4 0.13967988E-01 0.12500616E+03</pdfrwt>
<totfact> 0.10261568E+04</totfact>
</mgrwt>
</event>
<event>
 5    1  0.3179758E-002  0.1250015E+03  0.7818608E-02  0.1235067E+00
         -4   -1    0    0    0  501 -0.00000000000E+00  0.00000000000E+00  0.35091333850E+02  0.35114307787E+02  0.12700000000E+01 0.  1.
          4   -1    0    0  501    0  0.00000000000E+00 -0.00000000000E+00 -0.11125625591E+03  0.11126350426E+03  0.12700000000E+01 0.  1.
         25    2    1    2    0    0  0.00000000000E+00  0.00000000000E+00 -0.76164922065E+02  0.14637781205E+03  0.12500147402E+03 0.  0.
    9000005    1    3    3    0    0 -0.35389316470E+01  0.16622456854E+02 -0.10850392892E+03  0.10983138304E+03  0.10000000000E+01 0.  0.
    9000005    1    3    3    0    0  0.35389316470E+01 -0.16622456854E+02  0.32339006854E+02  0.36546429009E+02  0.10000000000E+01 0.  0.
<mgrwt>
<rscale>  0 0.12500147E+03</rscale>
<asrwt>0</asrwt>
<pdfrwt beam="2">  1        4 0.17118672E-01 0.12500147E+03</pdfrwt>
<pdfrwt beam="1">  1       -4 0.54009916E-02 0.12500147E+03</pdfrwt>
<totfact> 0.10002737E+04</totfact>
</mgrwt>
</event>
<event>
 5    1  0.3179758E-002  0.1250008E+03  0.7818608E-02  0.1235068E+00
         -4   -1    0    0    0  501 -0.00000000000E+00  0.00000000000E+00  0.67088917546E+02  0.67100937083E+02  0.12700000000E+01 0.  1.
          4   -1    0    0  501    0  0.00000000000E+00 -0.00000000000E+00 -0.58201563032E+02  0.58215417540E+02  0.12700000000E+01 0.  1.
         25    2    1    2    0    0  0.00000000000E+00  0.00000000000E+00  0.88873545132E+01  0.12531635462E+03  0.12500081466E+03 0.  0.
    9000005    1    3    3    0    0 -0.17594179971E+02  0.59338576335E+02  0.13107198908E+02  0.63272588643E+02  0.10000000000E+01 0.  0.
    9000005    1    3    3    0    0  0.17594179971E+02 -0.59338576335E+02 -0.42198443948E+01  0.62043765981E+02  0.10000000000E+01 0.  0.
<mgrwt>
<rscale>  0 0.12500081E+03</rscale>
<asrwt>0</asrwt>
<pdfrwt beam="2">  1        4 0.89560770E-02 0.12500081E+03</pdfrwt>
<pdfrwt beam="1">  1       -4 0.10323362E-01 0.12500081E+03</pdfrwt>
<totfact> 0.10445803E+04</totfact>
</mgrwt>
</event>
<event>
 5    1  0.3179758E-002  0.1250006E+03  0.7818608E-02  0.1235068E+00
         -4   -1    0    0    0  501 -0.00000000000E+00  0.00000000000E+00  0.11066319314E+03  0.11067048033E+03  0.12700000000E+01 0. -1.
          4   -1    0    0  501    0  0.00000000000E+00 -0.00000000000E+00 -0.35279005734E+02  0.35301857537E+02  0.12700000000E+01 0. -1.
         25    2    1    2    0    0  0.00000000000E+00  0.00000000000E+00  0.75384187406E+02  0.14597233786E+03  0.12500059084E+03 0.  0.
    9000005    1    3    3    0    0  0.58714333010E+02 -0.13102838566E+02  0.57448857442E+02  0.83189112874E+02  0.10000000000E+01 0.  0.
    9000005    1    3    3    0    0 -0.58714333010E+02  0.13102838566E+02  0.17935329964E+02  0.62783224990E+02  0.10000000000E+01 0.  0.
<mgrwt>
<rscale>  0 0.12500059E+03</rscale>
<asrwt>0</asrwt>
<pdfrwt beam="2">  1        4 0.54298578E-02 0.12500059E+03</pdfrwt>
<pdfrwt beam="1">  1       -4 0.17027425E-01 0.12500059E+03</pdfrwt>
<totfact> 0.10011137E+04</totfact>
</mgrwt>
</event>
<event>
 5    1  0.3179758E-002  0.1250084E+03  0.7818608E-02  0.1235056E+00
         -4   -1    0    0    0  501 -0.00000000000E+00  0.00000000000E+00  0.17160204395E+01  0.21348597492E+01  0.12700000000E+01 0.  1.
          4   -1    0    0  501    0  0.00000000000E+00 -0.00000000000E+00 -0.20286092270E+04  0.20286096246E+04  0.12700000000E+01 0.  1.
         25    2    1    2    0    0  0.00000000000E+00  0.00000000000E+00 -0.20268932066E+04  0.20307444843E+04  0.12500835838E+03 0.  0.
    9000005    1    3    3    0    0 -0.26120057659E+02  0.22876680089E+02 -0.16931145052E+03  0.17283797956E+03  0.10000000000E+01 0.  0.
    9000005    1    3    3    0    0  0.26120057659E+02 -0.22876680089E+02 -0.18575817561E+04  0.18579065047E+04  0.10000000000E+01 0.  0.
<mgrwt>
<rscale>  0 0.12500836E+03</rscale>
<asrwt>0</asrwt>
<pdfrwt beam="2">  1        4 0.31212427E+00 0.12500836E+03</pdfrwt>
<pdfrwt beam="1">  1       -4 0.29625376E-03 0.12500836E+03</pdfrwt>
<totfact> 0.94636234E+02</totfact>
</mgrwt>
</event>
<event>
 5    1  0.3179758E-002  0.1250065E+03  0.7818608E-02  0.1235059E+00
          4   -1    0    0  501    0  0.00000000000E+00  0.00000000000E+00  0.10754745410E+03  0.10755495239E+03  0.12700000000E+01 0. -1.
         -4   -1    0    0    0  501 -0.00000000000E+00 -0.00000000000E+00 -0.36305060065E+02  0.36327266431E+02  0.12700000000E+01 0. -1.
         25    2    1    2    0    0  0.00000000000E+00  0.00000000000E+00  0.71242394036E+02  0.14388221882E+03  0.12500645657E+03 0.  0.
    9000005    1    3    3    0    0 -0.59919261447E+02  0.89275926766E+01  0.53289442412E+02  0.80689432244E+02  0.10000000000E+01 0.  0.
    9000005    1    3    3    0    0  0.59919261447E+02 -0.89275926766E+01  0.17952951624E+02  0.63192786576E+02  0.10000000000E+01 0.  0.
<mgrwt>
<rscale>  0 0.12500646E+03</rscale>
<asrwt>0</asrwt>
<pdfrwt beam="1">  1        4 0.16548047E-01 0.12500646E+03</pdfrwt>
<pdfrwt beam="2">  1       -4 0.55876789E-02 0.12500646E+03</pdfrwt>
<totfact> 0.10052287E+04</totfact>
</mgrwt>
</event>
<event>
 5    1  0.3179758E-002  0.1250173E+03  0.7818608E-02  0.1235042E+00
         -4   -1    0    0    0  501 -0.00000000000E+00  0.00000000000E+00  0.30631074543E+02  0.30657391078E+02  0.12700000000E+01 0.  1.
          4   -1    0    0  501    0  0.00000000000E+00 -0.00000000000E+00 -0.12747674518E+03  0.12748307127E+03  0.12700000000E+01 0.  1.
         25    2    1    2    0    0  0.00000000000E+00  0.00000000000E+00 -0.96845670635E+02  0.15814046235E+03  0.12501728645E+03 0.  0.
    9000005    1    3    3    0    0 -0.23593236432E+02  0.35234208001E+02  0.96580178548E+01  0.43501350872E+02  0.10000000000E+01 0.  0.
    9000005    1    3    3    0    0  0.23593236432E+02 -0.35234208001E+02 -0.10650368849E+03  0.11463911148E+03  0.10000000000E+01 0.  0.
<mgrwt>
<rscale>  0 0.12501729E+03</rscale>
<asrwt>0</asrwt>
<pdfrwt beam="2">  1        4 0.19614318E-01 0.12501729E+03</pdfrwt>
<pdfrwt beam="1">  1       -4 0.47149840E-02 0.12501729E+03</pdfrwt>
<totfact> 0.97664531E+03</totfact>
</mgrwt>
</event>
<event>
 5    1  0.3179758E-002  0.1249996E+03  0.7818608E-02  0.1235070E+00
          4   -1    0    0  501    0  0.00000000000E+00  0.00000000000E+00  0.61306772188E+03  0.61306903731E+03  0.12700000000E+01 0.  1.
         -4   -1    0    0    0  501 -0.00000000000E+00 -0.00000000000E+00 -0.63069837628E+01  0.64335794224E+01  0.12700000000E+01 0.  1.
         25    2    1    2    0    0  0.00000000000E+00  0.00000000000E+00  0.60676073812E+03  0.61950261673E+03  0.12499959528E+03 0.  0.
    9000005    1    3    3    0    0  0.20387109461E+02 -0.57892260898E+02  0.36161677736E+03  0.36678991503E+03  0.10000000000E+01 0.  0.
    9000005    1    3    3    0    0 -0.20387109461E+02  0.57892260898E+02  0.24514396076E+03  0.25271270170E+03  0.10000000000E+01 0.  0.
<mgrwt>
<rscale>  0 0.12499960E+03</rscale>
<asrwt>0</asrwt>
<pdfrwt beam="1">  1        4 0.94327964E-01 0.12499960E+03</pdfrwt>
<pdfrwt beam="2">  1       -4 0.98014436E-03 0.12499960E+03</pdfrwt>
<totfact> 0.47659661E+03</totfact>
</mgrwt>
</event>
<event>
 5    1  0.3179758E-002  0.1249941E+03  0.7818608E-02  0.1235078E+00
         -4   -1    0    0    0  501 -0.00000000000E+00  0.00000000000E+00  0.40203273998E+02  0.40223328308E+02  0.12700000000E+01 0. -1.
          4   -1    0    0  501    0  0.00000000000E+00 -0.00000000000E+00 -0.97104911794E+02  0.97113216375E+02  0.12700000000E+01 0. -1.
         25    2    1    2    0    0  0.00000000000E+00  0.00000000000E+00 -0.56901637796E+02  0.13733654468E+03  0.12499412035E+03 0.  0.
    9000005    1    3    3    0    0  0.16766078117E+02  0.90458620777E+01  0.36940178525E+02  0.41575302592E+02  0.10000000000E+01 0.  0.
    9000005    1    3    3    0    0 -0.16766078117E+02 -0.90458620777E+01 -0.93841816322E+02  0.95761242090E+02  0.10000000000E+01 0.  0.
<mgrwt>
<rscale>  0 0.12499412E+03</rscale>
<asrwt>0</asrwt>
<pdfrwt beam="2">  1        4 0.14941399E-01 0.12499412E+03</pdfrwt>
<pdfrwt beam="1">  1       -4 0.61873006E-02 0.12499412E+03</pdfrwt>
<totfact> 0.10190405E+04</totfact>
</mgrwt>
</event>
<event>
 5    1  0.3179758E-002  0.1249740E+03  0.7818608E-02  0.1235110E+00
         -4   -1    0    0    0  501 -0.00000000000E+00  0.00000000000E+00  0.89571306569E+02  0.89580309558E+02  0.12700000000E+01 0. -1.
          4   -1    0    0  501    0  0.00000000000E+00 -0.00000000000E+00 -0.43571927262E+02  0.43590431810E+02  0.12700000000E+01 0. -1.
         25    2    1    2    0    0  0.00000000000E+00  0.00000000000E+00  0.45999379307E+02  0.13317074137E+03  0.12497401114E+03 0.  0.
    9000005    1    3    3    0    0 -0.59794295657E+02 -0.17810078467E+02  0.19454440431E+02  0.65360782895E+02  0.10000000000E+01 0.  0.
    9000005    1    3    3    0    0  0.59794295657E+02  0.17810078467E+02  0.26544938876E+02  0.67809958473E+02  0.10000000000E+01 0.  0.
<mgrwt>
<rscale>  0 0.12497401E+03</rscale>
<asrwt>0</asrwt>
<pdfrwt beam="2">  1        4 0.67054896E-02 0.12497401E+03</pdfrwt>
<pdfrwt beam="1">  1       -4 0.13782317E-01 0.12497401E+03</pdfrwt>
<totfact> 0.10282799E+04</totfact>
</mgrwt>
</event>
<event>
 5    1  0.3179758E-002  0.1249874E+03  0.7818608E-02  0.1235089E+00
          4   -1    0    0  501    0  0.00000000000E+00  0.00000000000E+00  0.83583207082E+02  0.83592854995E+02  0.12700000000E+01 0.  1.
         -4   -1    0    0    0  501 -0.00000000000E+00 -0.00000000000E+00 -0.46704488469E+02  0.46721752355E+02  0.12700000000E+01 0.  1.
         25    2    1    2    0    0  0.00000000000E+00  0.00000000000E+00  0.36878718614E+02  0.13031460735E+03  0.12498742738E+03 0.  0.
    9000005    1    3    3    0    0 -0.57939807443E+01 -0.62213997744E+02  0.17856495127E+02  0.64992354522E+02  0.10000000000E+01 0.  0.
    9000005    1    3    3    0    0  0.57939807443E+01  0.62213997744E+02  0.19022223486E+02  0.65322252828E+02  0.10000000000E+01 0.  0.
<mgrwt>
<rscale>  0 0.12498743E+03</rscale>
<asrwt>0</asrwt>
<pdfrwt beam="1">  1        4 0.12861025E-01 0.12498743E+03</pdfrwt>
<pdfrwt beam="2">  1       -4 0.71873761E-02 0.12498743E+03</pdfrwt>
<totfact> 0.10340716E+04</totfact>
</mgrwt>
</event>
<event>
 5    1  0.3179758E-002  0.1250066E+03  0.7818608E-02  0.1235059E+00
          4   -1    0    0  501    0  0.00000000000E+00  0.00000000000E+00  0.16410603463E+02  0.16459672111E+02  0.12700000000E+01 0. -1.
         -4   -1    0    0    0  501 -0.00000000000E+00 -0.00000000000E+00 -0.23765097753E+03  0.23765437093E+03  0.12700000000E+01 0. -1.
         25    2    1    2    0    0  0.00000000000E+00  0.00000000000E+00 -0.22124037407E+03  0.25411404304E+03  0.12500657484E+03 0.  0.
    9000005    1    3    3    0    0 -0.50124608262E+02 -0.17705399530E+02 -0.17741581655E+03  0.18521158033E+03  0.10000000000E+01 0.  0.
    9000005    1    3    3    0    0  0.50124608262E+02  0.17705399530E+02 -0.43824557520E+02  0.68902462712E+02  0.10000000000E+01 0.  0.
<mgrwt>
<rscale>  0 0.12500657E+03</rscale>
<asrwt>0</asrwt>
<pdfrwt beam="1">  1        4 0.25287439E-02 0.12500657E+03</pdfrwt>
<pdfrwt beam="2">  1       -4 0.36565722E-01 0.12500657E+03</pdfrwt>
<totfact> 0.81727267E+03</totfact>
</mgrwt>
</event>
<event>
 5    1  0.3179758E-002  0.1250054E+03  0.7818608E-02  0.1235061E+00
         -4   -1    0    0    0  501 -0.00000000000E+00  0.00000000000E+00  0.52654697800E+03  0.52654850958E+03  0.12700000000E+01 0.  1.
          4   -1    0    0  501    0  0.00000000000E+00 -0.00000000000E+00 -0.73633499508E+01  0.74720694923E+01  0.12700000000E+01 0.  1.
         25    2    1    2    0    0  0.00000000000E+00  0.00000000000E+00  0.51918362805E+03  0.53402057907E+03  0.12500535684E+03 0.  0.
    9000005    1    3    3    0    0 -0.37816231861E+02  0.33993540905E+02  0.10438556820E+03  0.11611621362E+03  0.10000000000E+01 0.  0.
    9000005    1    3    3    0    0  0.37816231861E+02 -0.33993540905E+02  0.41479805985E+03  0.41790436546E+03  0.10000000000E+01 0.  0.
<mgrwt>
<rscale>  0 0.12500536E+03</rscale>
<asrwt>0</asrwt>
<pdfrwt beam="2">  1        4 0.11413041E-02 0.12500536E+03</pdfrwt>
<pdfrwt beam="1">  1       -4 0.81015694E-01 0.12500536E+03</pdfrwt>
<totfact> 0.53311872E+03</totfact>
</mgrwt>
</event>
<event>
 5    1  0.3179758E-002  0.1249993E+03  0.7818608E-02  0.1235070E+00
          4   -1    0    0  501    0  0.00000000000E+00  0.00000000000E+00  0.11798068808E+04  0.11798075644E+04  0.12700000000E+01 0. -1.
         -4   -1    0    0    0  501 -0.00000000000E+00 -0.00000000000E+00 -0.31883888037E+01  0.34320144468E+01  0.12700000000E+01 0. -1.
         25    2    1    2    0    0  0.00000000000E+00  0.00000000000E+00  0.11766184920E+04  0.11832395788E+04  0.12499930043E+03 0.  0.
    9000005    1    3    3    0    0  0.46296515309E+02 -0.31371824762E+01  0.98452504505E+03  0.98561847262E+03  0.10000000000E+01 0.  0.
    9000005    1    3    3    0    0 -0.46296515309E+02  0.31371824762E+01  0.19209344696E+03  0.19762110618E+03  0.10000000000E+01 0.  0.
<mgrwt>
<rscale>  0 0.12499930E+03</rscale>
<asrwt>0</asrwt>
<pdfrwt beam="1">  1        4 0.18152780E+00 0.12499930E+03</pdfrwt>
<pdfrwt beam="2">  1       -4 0.50931366E-03 0.12499930E+03</pdfrwt>
<totfact> 0.25156055E+03</totfact>
</mgrwt>
</event>
<event>
 5    1  0.3179758E-002  0.1250023E+03  0.7818608E-02  0.1235066E+00
          4   -1    0    0  501    0  0.00000000000E+00  0.00000000000E+00  0.19223008388E+03  0.19223427907E+03  0.12700000000E+01 0. -1.
         -4   -1    0    0    0  501 -0.00000000000E+00 -0.00000000000E+00 -0.20297184838E+02  0.20336878136E+02  0.12700000000E+01 0. -1.
         25    2    1    2    0    0  0.00000000000E+00  0.00000000000E+00  0.17193289905E+03  0.21257115721E+03  0.12500230039E+03 0.  0.
    9000005    1    3    3    0    0  0.34373614329E+02 -0.13831966555E+02  0.17154466221E+03  0.17550338969E+03  0.10000000000E+01 0.  0.
    9000005    1    3    3    0    0 -0.34373614329E+02  0.13831966555E+02  0.38823683758E+00  0.37067767516E+02  0.10000000000E+01 0.  0.
<mgrwt>
<rscale>  0 0.12500230E+03</rscale>
<asrwt>0</asrwt>
<pdfrwt beam="1">  1        4 0.29577235E-01 0.12500230E+03</pdfrwt>
<pdfrwt beam="2">  1       -4 0.31260199E-02 0.12500230E+03</pdfrwt>
<totfact> 0.88053164E+03</totfact>
</mgrwt>
</event>
<event>
 5    1  0.3179758E-002  0.1250013E+03  0.7818608E-02  0.1235067E+00
         -4   -1    0    0    0  501 -0.00000000000E+00  0.00000000000E+00  0.13766490369E+03  0.13767076163E+03  0.12700000000E+01 0.  1.
          4   -1    0    0  501    0  0.00000000000E+00 -0.00000000000E+00 -0.28354983481E+02  0.28383410440E+02  0.12700000000E+01 0.  1.
         25    2    1    2    0    0  0.00000000000E+00  0.00000000000E+00  0.10930992021E+03  0.16605417207E+03  0.12500131762E+03 0.  0.
    9000005    1    3    3    0    0 -0.61580497470E+02  0.10636168611E+02  0.54368193282E+02  0.82838313552E+02  0.10000000000E+01 0.  0.
    9000005    1    3    3    0    0  0.61580497470E+02 -0.10636168611E+02  0.54941726930E+02  0.83215858521E+02  0.10000000000E+01 0.  0.
<mgrwt>
<rscale>  0 0.12500132E+03</rscale>
<asrwt>0</asrwt>
<pdfrwt beam="2">  1        4 0.43649424E-02 0.12500132E+03</pdfrwt>
<pdfrwt beam="1">  1       -4 0.21181853E-01 0.12500132E+03</pdfrwt>
<totfact> 0.96185273E+03</totfact>
</mgrwt>
</event>
<event>
 5    1  0.3179758E-002  0.1249984E+03  0.7818608E-02  0.1235072E+00
          4   -1    0    0  501    0  0.00000000000E+00  0.00000000000E+00  0.31400004857E+03  0.31400261687E+03  0.12700000000E+01 0. -1.
         -4   -1    0    0    0  501 -0.00000000000E+00 -0.00000000000E+00 -0.12404921508E+02  0.12469762533E+02  0.12700000000E+01 0. -1.
         25    2    1    2    0    0  0.00000000000E+00  0.00000000000E+00  0.30159512707E+03  0.32647237941E+03  0.12499837537E+03 0.  0.
    9000005    1    3    3    0    0 -0.32427892690E+02  0.14699639021E+02  0.16663716627E+02  0.39323365363E+02  0.10000000000E+01 0.  0.
    9000005    1    3    3    0    0  0.32427892690E+02 -0.14699639021E+02  0.28493141044E+03  0.28714901404E+03  0.10000000000E+01 0.  0.
<mgrwt>
<rscale>  0 0.12499838E+03</rscale>
<asrwt>0</asrwt>
<pdfrwt beam="1">  1        4 0.48312878E-01 0.12499838E+03</pdfrwt>
<pdfrwt beam="2">  1       -4 0.19136351E-02 0.12499838E+03</pdfrwt>
<totfact> 0.72395487E+03</totfact>
</mgrwt>
</event>
<event>
 5    1  0.3179758E-002  0.1249521E+03  0.7818608E-02  0.1235144E+00
         -4   -1    0    0    0  501 -0.00000000000E+00  0.00000000000E+00  0.47783085689E+02  0.47799960020E+02  0.12700000000E+01 0. -1.
          4   -1    0    0  501    0  0.00000000000E+00 -0.00000000000E+00 -0.81650779385E+02  0.81660655607E+02  0.12700000000E+01 0. -1.
         25    2    1    2    0    0  0.00000000000E+00  0.00000000000E+00 -0.33867693696E+02  0.12946061563E+03  0.12495211212E+03 0.  0.
    9000005    1    3    3    0    0  0.10435982107E+02 -0.58923077300E+02 -0.35508885116E+02  0.69589652128E+02  0.10000000000E+01 0.  0.
    9000005    1    3    3    0    0 -0.10435982107E+02  0.58923077300E+02  0.16411914199E+01  0.59870963499E+02  0.10000000000E+01 0.  0.
<mgrwt>
<rscale>  0 0.12495211E+03</rscale>
<asrwt>0</asrwt>
<pdfrwt beam="2">  1        4 0.12563716E-01 0.12495211E+03</pdfrwt>
<pdfrwt beam="1">  1       -4 0.73533017E-02 0.12495211E+03</pdfrwt>
<totfact> 0.10367262E+04</totfact>
</mgrwt>
</event>
<event>
 5    1  0.3179758E-002  0.1249991E+03  0.7818608E-02  0.1235071E+00
         -4   -1    0    0    0  501 -0.00000000000E+00  0.00000000000E+00  0.34506765824E+03  0.34506999531E+03  0.12700000000E+01 0.  1.
          4   -1    0    0  501    0  0.00000000000E+00 -0.00000000000E+00 -0.11282069938E+02  0.11353325595E+02  0.12700000000E+01 0.  1.
         25    2    1    2    0    0  0.00000000000E+00  0.00000000000E+00  0.33378558831E+03  0.35642332091E+03  0.12499905890E+03 0.  0.
    9000005    1    3    3    0    0 -0.24153702782E+02  0.50561865311E+02  0.24577366694E+03  0.25208252407E+03  0.10000000000E+01 0.  0.
    9000005    1    3    3    0    0  0.24153702782E+02 -0.50561865311E+02  0.88011921367E+02  0.10434079684E+03  0.10000000000E+01 0.  0.
<mgrwt>
<rscale>  0 0.12499906E+03</rscale>
<asrwt>0</asrwt>
<pdfrwt beam="2">  1        4 0.17413641E-02 0.12499906E+03</pdfrwt>
<pdfrwt beam="1">  1       -4 0.53092993E-01 0.12499906E+03</pdfrwt>
<totfact> 0.69025080E+03</totfact>
</mgrwt>
</event>
<event>
 5    1  0.3179758E-002  0.1249996E+03  0.7818608E-02  0.1235070E+00
         -4   -1    0    0    0  501 -0.00000000000E+00  0.00000000000E+00  0.54468318089E+02  0.54483121932E+02  0.12700000000E+01 0. -1.
          4   -1    0    0  501    0  0.00000000000E+00 -0.00000000000E+00 -0.71685375255E+02  0.71696624227E+02  0.12700000000E+01 0. -1.
         25    2    1    2    0    0  0.00000000000E+00  0.00000000000E+00 -0.17217057166E+02  0.12617974616E+03  0.12499960513E+03 0.  0.
    9000005    1    3    3    0    0 -0.52983200435E+02 -0.32961844071E+02 -0.12035076241E+02  0.63557420913E+02  0.10000000000E+01 0.  0.
    9000005    1    3    3    0    0  0.52983200435E+02  0.32961844071E+02 -0.51819809249E+01  0.62622325246E+02  0.10000000000E+01 0.  0.
<mgrwt>
<rscale>  0 0.12499961E+03</rscale>
<asrwt>0</asrwt>
<pdfrwt beam="2">  1        4 0.11030523E-01 0.12499961E+03</pdfrwt>
<pdfrwt beam="1">  1       -4 0.83817453E-02 0.12499961E+03</pdfrwt>
<totfact> 0.10427115E+04</totfact>
</mgrwt>
</event>
<event>
 5    1  0.3179758E-002  0.1249974E+03  0.7818608E-02  0.1235073E+00
          4   -1    0    0  501    0  0.00000000000E+00  0.00000000000E+00  0.20500260651E+01  0.24115362049E+01  0.12700000000E+01 0.  1.
         -4   -1    0    0    0  501 -0.00000000000E+00 -0.00000000000E+00 -0.17506329301E+04  0.17506333907E+04  0.12700000000E+01 0.  1.
         25    2    1    2    0    0  0.00000000000E+00  0.00000000000E+00 -0.17485829040E+04  0.17530449270E+04  0.12499737470E+03 0.  0.
    9000005    1    3    3    0    0 -0.13721566318E+02 -0.51978543889E+02 -0.13211116259E+04  0.13222053466E+04  0.10000000000E+01 0.  0.
    9000005    1    3    3    0    0  0.13721566318E+02  0.51978543889E+02 -0.42747127808E+03  0.43083958035E+03  0.10000000000E+01 0.  0.
<mgrwt>
<rscale>  0 0.12499737E+03</rscale>
<asrwt>0</asrwt>
<pdfrwt beam="1">  1        4 0.34323393E-03 0.12499737E+03</pdfrwt>
<pdfrwt beam="2">  1       -4 0.26935489E+00 0.12499737E+03</pdfrwt>
<totfact> 0.13441854E+03</totfact>
</mgrwt>
</event>
<event>
 5    1  0.3179758E-002  0.1250018E+03  0.7818608E-02  0.1235066E+00
         -4   -1    0    0    0  501 -0.00000000000E+00  0.00000000000E+00  0.46361897906E+03  0.46362071852E+03  0.12700000000E+01 0.  1.
          4   -1    0    0  501    0  0.00000000000E+00 -0.00000000000E+00 -0.83761796885E+01  0.84719116009E+01  0.12700000000E+01 0.  1.
         25    2    1    2    0    0  0.00000000000E+00  0.00000000000E+00  0.45524279937E+03  0.47209263012E+03  0.12500178014E+03 0.  0.
    9000005    1    3    3    0    0 -0.60991449359E+02  0.86513419408E+01  0.26733208492E+03  0.27433965488E+03  0.10000000000E+01 0.  0.
    9000005    1    3    3    0    0  0.60991449359E+02 -0.86513419408E+01  0.18791071445E+03  0.19775297524E+03  0.10000000000E+01 0.  0.
<mgrwt>
<rscale>  0 0.12500178E+03</rscale>
<asrwt>0</asrwt>
<pdfrwt beam="2">  1        4 0.12961411E-02 0.12500178E+03</pdfrwt>
<pdfrwt beam="1">  1       -4 0.71333481E-01 0.12500178E+03</pdfrwt>
<totfact> 0.58094300E+03</totfact>
</mgrwt>
</event>
<event>
 5    1  0.3179758E-002  0.1249940E+03  0.7818608E-02  0.1235079E+00
         -4   -1    0    0    0  501 -0.00000000000E+00  0.00000000000E+00  0.13883750767E+02  0.13941715654E+02  0.12700000000E+01 0.  1.
          4   -1    0    0  501    0  0.00000000000E+00 -0.00000000000E+00 -0.28068176708E+03  0.28068464024E+03  0.12700000000E+01 0.  1.
         25    2    1    2    0    0  0.00000000000E+00  0.00000000000E+00 -0.26679801631E+03  0.29462635590E+03  0.12499403219E+03 0.  0.
    9000005    1    3    3    0    0 -0.45828528895E+02 -0.16176989305E+02 -0.22598710196E+03  0.23115604966E+03  0.10000000000E+01 0.  0.
    9000005    1    3    3    0    0  0.45828528895E+02  0.16176989305E+02 -0.40810914352E+02  0.63470306237E+02  0.10000000000E+01 0.  0.
<mgrwt>
<rscale>  0 0.12499403E+03</rscale>
<asrwt>0</asrwt>
<pdfrwt beam="2">  1        4 0.43186486E-01 0.12499403E+03</pdfrwt>
<pdfrwt beam="1">  1       -4 0.21406417E-02 0.12499403E+03</pdfrwt>
<totfact> 0.76287992E+03</totfact>
</mgrwt>
</event>
<event>
 5    1  0.3179758E-002  0.1249985E+03  0.7818608E-02  0.1235072E+00
          4   -1    0    0  501    0  0.00000000000E+00  0.00000000000E+00  0.34715930697E+03  0.34716162996E+03  0.12700000000E+01 0.  1.
         -4   -1    0    0    0  501 -0.00000000000E+00 -0.00000000000E+00 -0.11213554967E+02  0.11285243240E+02  0.12700000000E+01 0.  1.
         25    2    1    2    0    0  0.00000000000E+00  0.00000000000E+00  0.33594575200E+03  0.35844687320E+03  0.12499845046E+03 0.  0.
    9000005    1    3    3    0    0  0.33235850848E+02  0.27970047173E+01  0.31951485074E+03  0.32125252506E+03  0.10000000000E+01 0.  0.
    9000005    1    3    3    0    0 -0.33235850848E+02 -0.27970047173E+01  0.16430901266E+02  0.37194348138E+02  0.10000000000E+01 0.  0.
<mgrwt>
<rscale>  0 0.12499845E+03</rscale>
<asrwt>0</asrwt>
<pdfrwt beam="1">  1        4 0.53414812E-01 0.12499845E+03</pdfrwt>
<pdfrwt beam="2">  1       -4 0.17308557E-02 0.12499845E+03</pdfrwt>
<totfact> 0.68807545E+03</totfact>
</mgrwt>
</event>
<event>
 5    1  0.3179758E-002  0.1249993E+03  0.7818608E-02  0.1235070E+00
          4   -1    0    0  501    0  0.00000000000E+00  0.00000000000E+00  0.59558607588E+01  0.60897600428E+01  0.12700000000E+01 0. -1.
         -4   -1    0    0    0  501 -0.00000000000E+00 -0.00000000000E+00 -0.64843387276E+03  0.64843511645E+03  0.12700000000E+01 0. -1.
         25    2    1    2    0    0  0.00000000000E+00  0.00000000000E+00 -0.64247801200E+03  0.65452487649E+03  0.12499927216E+03 0.  0.
    9000005    1    3    3    0    0  0.30564658554E+02 -0.27772972144E+02 -0.56682141715E+03  0.56832477974E+03  0.10000000000E+01 0.  0.
    9000005    1    3    3    0    0 -0.30564658554E+02  0.27772972144E+02 -0.75656594857E+02  0.86200096750E+02  0.10000000000E+01 0.  0.
<mgrwt>
<rscale>  0 0.12499927E+03</rscale>
<asrwt>0</asrwt>
<pdfrwt beam="1">  1        4 0.92668239E-03 0.12499927E+03</pdfrwt>
<pdfrwt beam="2">  1       -4 0.99769398E-01 0.12499927E+03</pdfrwt>
<totfact> 0.45597823E+03</totfact>
</mgrwt>
</event>
<event>
 5    1  0.3179758E-002  0.1250018E+03  0.7818608E-02  0.1235067E+00
          4   -1    0    0  501    0  0.00000000000E+00  0.00000000000E+00  0.10603490195E+03  0.10604250719E+03  0.12700000000E+01 0.  1.
         -4   -1    0    0    0  501 -0.00000000000E+00 -0.00000000000E+00 -0.36820451281E+02  0.36842347001E+02  0.12700000000E+01 0.  1.
         25    2    1    2    0    0  0.00000000000E+00  0.00000000000E+00  0.69214450666E+02  0.14288485419E+03  0.12500176549E+03 0.  0.
    9000005    1    3    3    0    0  0.62309269332E+02  0.19800126167E+01  0.29625405976E+02  0.69029197981E+02  0.10000000000E+01 0.  0.
    9000005    1    3    3    0    0 -0.62309269332E+02 -0.19800126167E+01  0.39589044690E+02  0.73855656210E+02  0.10000000000E+01 0.  0.
<mgrwt>
<rscale>  0 0.12500177E+03</rscale>
<asrwt>0</asrwt>
<pdfrwt beam="1">  1        4 0.16315331E-01 0.12500177E+03</pdfrwt>
<pdfrwt beam="2">  1       -4 0.56669542E-02 0.12500177E+03</pdfrwt>
<totfact> 0.10073741E+04</totfact>
</mgrwt>
</event>
<event>
 5    1  0.3179758E-002  0.1250009E+03  0.7818608E-02  0.1235068E+00
         -4   -1    0    0    0  501 -0.00000000000E+00  0.00000000000E+00  0.11279193988E+02  0.11350467700E+02  0.12700000000E+01 0.  1.
          4   -1    0    0  501    0  0.00000000000E+00 -0.00000000000E+00 -0.34516547115E+03  0.34516780756E+03  0.12700000000E+01 0.  1.
         25    2    1    2    0    0  0.00000000000E+00  0.00000000000E+00 -0.33388627716E+03  0.35651827526E+03  0.12500093806E+03 0.  0.
    9000005    1    3    3    0    0 -0.16244889926E+02  0.43504613401E+02 -0.47672449426E+02  0.66559824745E+02  0.10000000000E+01 0.  0.
    9000005    1    3    3    0    0  0.16244889926E+02 -0.43504613401E+02 -0.28621382773E+03  0.28995845051E+03  0.10000000000E+01 0.  0.
<mgrwt>
<rscale>  0 0.12500094E+03</rscale>
<asrwt>0</asrwt>
<pdfrwt beam="2">  1        4 0.53108035E-01 0.12500094E+03</pdfrwt>
<pdfrwt beam="1">  1       -4 0.17409232E-02 0.12500094E+03</pdfrwt>
<totfact> 0.69011940E+03</totfact>
</mgrwt>
</event>
<event>
 5    1  0.3179758E-002  0.1249998E+03  0.7818608E-02  0.1235070E+00
          4   -1    0    0  501    0  0.00000000000E+00  0.00000000000E+00  0.76858562413E+02  0.76869054347E+02  0.12700000000E+01 0. -1.
         -4   -1    0    0    0  501 -0.00000000000E+00 -0.00000000000E+00 -0.50801777329E+02  0.50817649294E+02  0.12700000000E+01 0. -1.
         25    2    1    2    0    0  0.00000000000E+00  0.00000000000E+00  0.26056785085E+02  0.12768670364E+03  0.12499975295E+03 0.  0.
    9000005    1    3    3    0    0 -0.32653654704E+02  0.96464150709E+01 -0.40499539610E+02  0.52920007539E+02  0.10000000000E+01 0.  0.
    9000005    1    3    3    0    0  0.32653654704E+02 -0.96464150709E+01  0.66556324694E+02  0.74766696103E+02  0.10000000000E+01 0.  0.
<mgrwt>
<rscale>  0 0.12499975E+03</rscale>
<asrwt>0</asrwt>
<pdfrwt beam="1">  1        4 0.11826422E-01 0.12499975E+03</pdfrwt>
<pdfrwt beam="2">  1       -4 0.78176861E-02 0.12499975E+03</pdfrwt>
<totfact> 0.10394317E+04</totfact>
</mgrwt>
</event>
<event>
 5    1  0.3179758E-002  0.1250023E+03  0.7818608E-02  0.1235066E+00
          4   -1    0    0  501    0  0.00000000000E+00  0.00000000000E+00  0.99018774170E+02  0.99026918250E+02  0.12700000000E+01 0.  1.
         -4   -1    0    0    0  501 -0.00000000000E+00 -0.00000000000E+00 -0.39431035549E+02  0.39451482412E+02  0.12700000000E+01 0.  1.
         25    2    1    2    0    0  0.00000000000E+00  0.00000000000E+00  0.59587738621E+02  0.13847840066E+03  0.12500227540E+03 0.  0.
    9000005    1    3    3    0    0  0.45850025053E+02 -0.38748105157E+02  0.49037589298E+02  0.77519840136E+02  0.10000000000E+01 0.  0.
    9000005    1    3    3    0    0 -0.45850025053E+02  0.38748105157E+02  0.10550149322E+02  0.60958560525E+02  0.10000000000E+01 0.  0.
<mgrwt>
<rscale>  0 0.12500228E+03</rscale>
<asrwt>0</asrwt>
<pdfrwt beam="1">  1        4 0.15235857E-01 0.12500228E+03</pdfrwt>
<pdfrwt beam="2">  1       -4 0.60685126E-02 0.12500228E+03</pdfrwt>
<totfact> 0.10164698E+04</totfact>
</mgrwt>
</event>
<event>
 5    1  0.3179758E-002  0.1249994E+03  0.7818608E-02  0.1235070E+00
          4   -1    0    0  501    0  0.00000000000E+00  0.00000000000E+00  0.27546185237E+03  0.27546477999E+03  0.12700000000E+01 0. -1.
         -4   -1    0    0    0  501 -0.00000000000E+00 -0.00000000000E+00 -0.14149144450E+02  0.14206026491E+02  0.12700000000E+01 0. -1.
         25    2    1    2    0    0  0.00000000000E+00  0.00000000000E+00  0.26131270792E+03  0.28967080648E+03  0.12499937921E+03 0.  0.
    9000005    1    3    3    0    0 -0.86916742277E+01 -0.13714946972E+02  0.27049943337E+03  0.27098817027E+03  0.10000000000E+01 0.  0.
    9000005    1    3    3    0    0  0.86916742277E+01  0.13714946972E+02 -0.91867254471E+01  0.18682636210E+02  0.10000000000E+01 0.  0.
<mgrwt>
<rscale>  0 0.12499938E+03</rscale>
<asrwt>0</asrwt>
<pdfrwt beam="1">  1        4 0.42383343E-01 0.12499938E+03</pdfrwt>
<pdfrwt beam="2">  1       -4 0.21813924E-02 0.12499938E+03</pdfrwt>
<totfact> 0.76914117E+03</totfact>
</mgrwt>
</event>
<event>
 5    1  0.3179758E-002  0.1250006E+03  0.7818608E-02  0.1235068E+00
         -4   -1    0    0    0  501 -0.00000000000E+00  0.00000000000E+00  0.91437012735E+02  0.91445832043E+02  0.12700000000E+01 0.  1.
          4   -1    0    0  501    0  0.00000000000E+00 -0.00000000000E+00 -0.42700780189E+02  0.42719662086E+02  0.12700000000E+01 0.  1.
         25    2    1    2    0    0  0.00000000000E+00  0.00000000000E+00  0.48736232546E+02  0.13416549413E+03  0.12500063781E+03 0.  0.
    9000005    1    3    3    0    0 -0.35496479032E+02 -0.24301597577E+02 -0.24284383753E+02  0.49409502758E+02  0.10000000000E+01 0.  0.
    9000005    1    3    3    0    0  0.35496479032E+02  0.24301597577E+02  0.73020616300E+02  0.84755991371E+02  0.10000000000E+01 0.  0.
<mgrwt>
<rscale>  0 0.12500064E+03</rscale>
<asrwt>0</asrwt>
<pdfrwt beam="2">  1        4 0.65714817E-02 0.12500064E+03</pdfrwt>
<pdfrwt beam="1">  1       -4 0.14069364E-01 0.12500064E+03</pdfrwt>
<totfact> 0.10255543E+04</totfact>
</mgrwt>
</event>
<event>
 5    1  0.3179758E-002  0.1249996E+03  0.7818608E-02  0.1235070E+00
          4   -1    0    0  501    0  0.00000000000E+00  0.00000000000E+00  0.64630721310E+02  0.64643197918E+02  0.12700000000E+01 0. -1.
         -4   -1    0    0    0  501 -0.00000000000E+00 -0.00000000000E+00 -0.60414154548E+02  0.60427501766E+02  0.12700000000E+01 0. -1.
         25    2    1    2    0    0  0.00000000000E+00  0.00000000000E+00  0.42165667623E+01  0.12507069968E+03  0.12499960194E+03 0.  0.
    9000005    1    3    3    0    0 -0.18007973181E+02  0.24426536917E+02 -0.52551373638E+02  0.60692583362E+02  0.10000000000E+01 0.  0.
    9000005    1    3    3    0    0  0.18007973181E+02 -0.24426536917E+02  0.56767940401E+02  0.64378116322E+02  0.10000000000E+01 0.  0.
<mgrwt>
<rscale>  0 0.12499960E+03</rscale>
<asrwt>0</asrwt>
<pdfrwt beam="1">  1        4 0.99451743E-02 0.12499960E+03</pdfrwt>
<pdfrwt beam="2">  1       -4 0.92964718E-02 0.12499960E+03</pdfrwt>
<totfact> 0.10451421E+04</totfact>
</mgrwt>
</event>
<event>
 5    1  0.3179758E-002  0.1249957E+03  0.7818608E-02  0.1235076E+00
         -4   -1    0    0    0  501 -0.00000000000E+00  0.00000000000E+00  0.36923988694E+02  0.36945823054E+02  0.12700000000E+01 0.  1.
          4   -1    0    0  501    0  0.00000000000E+00 -0.00000000000E+00 -0.10572748196E+03  0.10573510932E+03  0.12700000000E+01 0.  1.
         25    2    1    2    0    0  0.00000000000E+00  0.00000000000E+00 -0.68803493270E+02  0.14268093237E+03  0.12499571103E+03 0.  0.
    9000005    1    3    3    0    0 -0.31065277894E+02 -0.80832150295E+01  0.26799312813E+02  0.41828136739E+02  0.10000000000E+01 0.  0.
    9000005    1    3    3    0    0  0.31065277894E+02  0.80832150295E+01 -0.95602806084E+02  0.10085279563E+03  0.10000000000E+01 0.  0.
<mgrwt>
<rscale>  0 0.12499571E+03</rscale>
<asrwt>0</asrwt>
<pdfrwt beam="2">  1        4 0.16268033E-01 0.12499571E+03</pdfrwt>
<pdfrwt beam="1">  1       -4 0.56828800E-02 0.12499571E+03</pdfrwt>
<totfact> 0.10079295E+04</totfact>
</mgrwt>
</event>
<event>
 5    1  0.3179758E-002  0.1249951E+03  0.7818608E-02  0.1235077E+00
          4   -1    0    0  501    0  0.00000000000E+00  0.00000000000E+00  0.39258386184E+02  0.39278922920E+02  0.12700000000E+01 0.  1.
         -4   -1    0    0    0  501 -0.00000000000E+00 -0.00000000000E+00 -0.99442652542E+02  0.99450761910E+02  0.12700000000E+01 0.  1.
         25    2    1    2    0    0  0.00000000000E+00  0.00000000000E+00 -0.60184266358E+02  0.13872968483E+03  0.12499511805E+03 0.  0.
    9000005    1    3    3    0    0 -0.24524808989E+02 -0.56917800331E+02 -0.38960256940E+02  0.73212047310E+02  0.10000000000E+01 0.  0.
    9000005    1    3    3    0    0  0.24524808989E+02  0.56917800331E+02 -0.21224009418E+02  0.65517637520E+02  0.10000000000E+01 0.  0.
<mgrwt>
<rscale>  0 0.12499512E+03</rscale>
<asrwt>0</asrwt>
<pdfrwt beam="1">  1        4 0.60419553E-02 0.12499512E+03</pdfrwt>
<pdfrwt beam="2">  1       -4 0.15301073E-01 0.12499512E+03</pdfrwt>
<totfact> 0.10161099E+04</totfact>
</mgrwt>
</event>
<event>
 5    1  0.3179758E-002  0.1249881E+03  0.7818608E-02  0.1235088E+00
          4   -1    0    0  501    0  0.00000000000E+00  0.00000000000E+00  0.23401162168E+02  0.23435598794E+02  0.12700000000E+01 0. -1.
         -4   -1    0    0    0  501 -0.00000000000E+00 -0.00000000000E+00 -0.16673402679E+03  0.16673886346E+03  0.12700000000E+01 0. -1.
         25    2    1    2    0    0  0.00000000000E+00  0.00000000000E+00 -0.14333286462E+03  0.19017446225E+03  0.12498806349E+03 0.  0.
    9000005    1    3    3    0    0  0.40458159956E+02 -0.42658641773E+02 -0.10386712823E+03  0.11935662006E+03  0.10000000000E+01 0.  0.
    9000005    1    3    3    0    0 -0.40458159956E+02  0.42658641773E+02 -0.39465736391E+02  0.70817842200E+02  0.10000000000E+01 0.  0.
<mgrwt>
<rscale>  0 0.12498806E+03</rscale>
<asrwt>0</asrwt>
<pdfrwt beam="1">  1        4 0.36031999E-02 0.12498806E+03</pdfrwt>
<pdfrwt beam="2">  1       -4 0.25654409E-01 0.12498806E+03</pdfrwt>
<totfact> 0.91841521E+03</totfact>
</mgrwt>
</event>
<event>
 5    1  0.3179758E-002  0.1249890E+03  0.7818608E-02  0.1235086E+00
         -4   -1    0    0    0  501 -0.00000000000E+00  0.00000000000E+00  0.47784238629E+02  0.47801112554E+02  0.12700000000E+01 0. -1.
          4   -1    0    0  501    0  0.00000000000E+00 -0.00000000000E+00 -0.81697059821E+02  0.81706930449E+02  0.12700000000E+01 0. -1.
         25    2    1    2    0    0  0.00000000000E+00  0.00000000000E+00 -0.33912821192E+02  0.12950804300E+03  0.12498901456E+03 0.  0.
    9000005    1    3    3    0    0 -0.36090034464E+02  0.20427638454E+02  0.31475231454E+02  0.52071769660E+02  0.10000000000E+01 0.  0.
    9000005    1    3    3    0    0  0.36090034464E+02 -0.20427638454E+02 -0.65388052646E+02  0.77436273343E+02  0.10000000000E+01 0.  0.
<mgrwt>
<rscale>  0 0.12498901E+03</rscale>
<asrwt>0</asrwt>
<pdfrwt beam="2">  1        4 0.12570836E-01 0.12498901E+03</pdfrwt>
<pdfrwt beam="1">  1       -4 0.73534786E-02 0.12498901E+03</pdfrwt>
<totfact> 0.10357611E+04</totfact>
</mgrwt>
</event>
<event>
 5    1  0.3179758E-002  0.1249998E+03  0.7818608E-02  0.1235070E+00
          4   -1    0    0  501    0  0.00000000000E+00  0.00000000000E+00  0.16342543098E+03  0.16343036557E+03  0.12700000000E+01 0.  1.
         -4   -1    0    0    0  501 -0.00000000000E+00 -0.00000000000E+00 -0.23880089768E+02  0.23913836734E+02  0.12700000000E+01 0.  1.
         25    2    1    2    0    0  0.00000000000E+00  0.00000000000E+00  0.13954534121E+03  0.18734420230E+03  0.12499979153E+03 0.  0.
    9000005    1    3    3    0    0  0.12304423091E+02  0.43223823628E+02  0.13485285180E+03  0.14214777309E+03  0.10000000000E+01 0.  0.
    9000005    1    3    3    0    0 -0.12304423091E+02 -0.43223823628E+02  0.46924894097E+01  0.45196429212E+02  0.10000000000E+01 0.  0.
<mgrwt>
<rscale>  0 0.12499979E+03</rscale>
<asrwt>0</asrwt>
<pdfrwt beam="1">  1        4 0.25145350E-01 0.12499979E+03</pdfrwt>
<pdfrwt beam="2">  1       -4 0.36768354E-02 0.12499979E+03</pdfrwt>
<totfact> 0.92311909E+03</totfact>
</mgrwt>
</event>
<event>
 5    1  0.3179758E-002  0.1250073E+03  0.7818608E-02  0.1235058E+00
         -4   -1    0    0    0  501 -0.00000000000E+00  0.00000000000E+00  0.46696669076E+02  0.46713935852E+02  0.12700000000E+01 0. -1.
          4   -1    0    0  501    0  0.00000000000E+00 -0.00000000000E+00 -0.83623790609E+02  0.83633433840E+02  0.12700000000E+01 0. -1.
         25    2    1    2    0    0  0.00000000000E+00  0.00000000000E+00 -0.36927121533E+02  0.13034736969E+03  0.12500729771E+03 0.  0.
    9000005    1    3    3    0    0 -0.37139237343E+02 -0.30214056834E+02 -0.60347794451E+02  0.77039395610E+02  0.10000000000E+01 0.  0.
    9000005    1    3    3    0    0  0.37139237343E+02  0.30214056834E+02  0.23420672918E+02  0.53307974082E+02  0.10000000000E+01 0.  0.
<mgrwt>
<rscale>  0 0.12500730E+03</rscale>
<asrwt>0</asrwt>
<pdfrwt beam="2">  1        4 0.12867269E-01 0.12500730E+03</pdfrwt>
<pdfrwt beam="1">  1       -4 0.71861729E-02 0.12500730E+03</pdfrwt>
<totfact> 0.10335380E+04</totfact>
</mgrwt>
</event>
<event>
 5    1  0.3179758E-002  0.1250004E+03  0.7818608E-02  0.1235069E+00
          4   -1    0    0  501    0  0.00000000000E+00  0.00000000000E+00  0.31726483376E+03  0.31726737563E+03  0.12700000000E+01 0. -1.
         -4   -1    0    0    0  501 -0.00000000000E+00 -0.00000000000E+00 -0.12276992980E+02  0.12342506092E+02  0.12700000000E+01 0. -1.
         25    2    1    2    0    0  0.00000000000E+00  0.00000000000E+00  0.30498784078E+03  0.32960988172E+03  0.12500036443E+03 0.  0.
    9000005    1    3    3    0    0 -0.60859502986E+02 -0.95587329458E+01  0.12483512596E+03  0.13921227372E+03  0.10000000000E+01 0.  0.
    9000005    1    3    3    0    0  0.60859502986E+02  0.95587329458E+01  0.18015271481E+03  0.19039760800E+03  0.10000000000E+01 0.  0.
<mgrwt>
<rscale>  0 0.12500036E+03</rscale>
<asrwt>0</asrwt>
<pdfrwt beam="1">  1        4 0.48815214E-01 0.12500036E+03</pdfrwt>
<pdfrwt beam="2">  1       -4 0.18940030E-02 0.12500036E+03</pdfrwt>
<totfact> 0.72026962E+03</totfact>
</mgrwt>
</event>
<event>
 5    1  0.3179758E-002  0.1250014E+03  0.7818608E-02  0.1235067E+00
         -4   -1    0    0    0  501 -0.00000000000E+00  0.00000000000E+00  0.70925454269E+02  0.70936823747E+02  0.12700000000E+01 0.  1.
          4   -1    0    0  501    0  0.00000000000E+00 -0.00000000000E+00 -0.55053568143E+02  0.55068214655E+02  0.12700000000E+01 0.  1.
         25    2    1    2    0    0  0.00000000000E+00  0.00000000000E+00  0.15871886126E+02  0.12600503840E+03  0.12500141173E+03 0.  0.
    9000005    1    3    3    0    0 -0.28679539934E+02  0.31315815571E+02 -0.38281297219E+02  0.57180888700E+02  0.10000000000E+01 0.  0.
    9000005    1    3    3    0    0  0.28679539934E+02 -0.31315815571E+02  0.54153183345E+02  0.68824149701E+02  0.10000000000E+01 0.  0.
<mgrwt>
<rscale>  0 0.12500141E+03</rscale>
<asrwt>0</asrwt>
<pdfrwt beam="2">  1        4 0.84717810E-02 0.12500141E+03</pdfrwt>
<pdfrwt beam="1">  1       -4 0.10913609E-01 0.12500141E+03</pdfrwt>
<totfact> 0.10430514E+04</totfact>
</mgrwt>
</event>
<event>
 5    1  0.3179758E-002  0.1249969E+03  0.7818608E-02  0.1235074E+00
          4   -1    0    0  501    0  0.00000000000E+00  0.00000000000E+00  0.81773707896E+02  0.81783569273E+02  0.12700000000E+01 0. -1.
         -4   -1    0    0    0  501 -0.00000000000E+00 -0.00000000000E+00 -0.47745452864E+02  0.47762340491E+02  0.12700000000E+01 0. -1.
         25    2    1    2    0    0  0.00000000000E+00  0.00000000000E+00  0.34028255032E+02  0.12954590976E+03  0.12499688235E+03 0.  0.
    9000005    1    3    3    0    0 -0.90873517171E+01  0.60350337648E+02  0.30974116787E+01  0.61117404841E+02  0.10000000000E+01 0.  0.
    9000005    1    3    3    0    0  0.90873517171E+01 -0.60350337648E+02  0.30930843353E+02  0.68428504923E+02  0.10000000000E+01 0.  0.
<mgrwt>
<rscale>  0 0.12499688E+03</rscale>
<asrwt>0</asrwt>
<pdfrwt beam="1">  1        4 0.12582628E-01 0.12499688E+03</pdfrwt>
<pdfrwt beam="2">  1       -4 0.73475120E-02 0.12499688E+03</pdfrwt>
<totfact> 0.10354960E+04</totfact>
</mgrwt>
</event>
<event>
 5    1  0.3179758E-002  0.1249989E+03  0.7818608E-02  0.1235071E+00
          4   -1    0    0  501    0  0.00000000000E+00  0.00000000000E+00  0.28292121790E+03  0.28292406833E+03  0.12700000000E+01 0.  1.
         -4   -1    0    0    0  501 -0.00000000000E+00 -0.00000000000E+00 -0.13774462163E+02  0.13832885017E+02  0.12700000000E+01 0.  1.
         25    2    1    2    0    0  0.00000000000E+00  0.00000000000E+00  0.26914675574E+03  0.29675695335E+03  0.12499885293E+03 0.  0.
    9000005    1    3    3    0    0  0.12997398491E+02 -0.56394696315E+02  0.78599289532E+02  0.97612204437E+02  0.10000000000E+01 0.  0.
    9000005    1    3    3    0    0 -0.12997398491E+02  0.56394696315E+02  0.19054746621E+03  0.19914474891E+03  0.10000000000E+01 0.  0.
<mgrwt>
<rscale>  0 0.12499885E+03</rscale>
<asrwt>0</asrwt>
<pdfrwt beam="1">  1        4 0.43531048E-01 0.12499885E+03</pdfrwt>
<pdfrwt beam="2">  1       -4 0.21238617E-02 0.12499885E+03</pdfrwt>
<totfact> 0.76009389E+03</totfact>
</mgrwt>
</event>
<event>
 5    1  0.3179758E-002  0.1249885E+03  0.7818608E-02  0.1235087E+00
          4   -1    0    0  501    0  0.00000000000E+00  0.00000000000E+00  0.25651905146E+03  0.25652219526E+03  0.12700000000E+01 0. -1.
         -4   -1    0    0    0  501 -0.00000000000E+00 -0.00000000000E+00 -0.15195376524E+02  0.15248356229E+02  0.12700000000E+01 0. -1.
         25    2    1    2    0    0  0.00000000000E+00  0.00000000000E+00  0.24132367493E+03  0.27177055149E+03  0.12498846576E+03 0.  0.
    9000005    1    3    3    0    0 -0.23016385615E+02  0.70726553112E+01 -0.47135046658E+01  0.24555927720E+02  0.10000000000E+01 0.  0.
    9000005    1    3    3    0    0  0.23016385615E+02 -0.70726553112E+01  0.24603717960E+03  0.24721462377E+03  0.10000000000E+01 0.  0.
<mgrwt>
<rscale>  0 0.12498847E+03</rscale>
<asrwt>0</asrwt>
<pdfrwt beam="1">  1        4 0.39468791E-01 0.12498847E+03</pdfrwt>
<pdfrwt beam="2">  1       -4 0.23420672E-02 0.12498847E+03</pdfrwt>
<totfact> 0.79302416E+03</totfact>
</mgrwt>
</event>
<event>
 5    1  0.3179758E-002  0.1249916E+03  0.7818608E-02  0.1235082E+00
         -4   -1    0    0    0  501 -0.00000000000E+00  0.00000000000E+00  0.40542644268E+02  0.40562530792E+02  0.12700000000E+01 0.  1.
          4   -1    0    0  501    0  0.00000000000E+00 -0.00000000000E+00 -0.96288546729E+02  0.96296921711E+02  0.12700000000E+01 0.  1.
         25    2    1    2    0    0  0.00000000000E+00  0.00000000000E+00 -0.55745902461E+02  0.13685945250E+03  0.12499161611E+03 0.  0.
    9000005    1    3    3    0    0  0.42966783395E+02  0.35214002083E+02  0.34539911735E+01  0.55669565052E+02  0.10000000000E+01 0.  0.
    9000005    1    3    3    0    0 -0.42966783395E+02 -0.35214002083E+02 -0.59199893634E+02  0.81189887451E+02  0.10000000000E+01 0.  0.
<mgrwt>
<rscale>  0 0.12499162E+03</rscale>
<asrwt>0</asrwt>
<pdfrwt beam="2">  1        4 0.14815796E-01 0.12499162E+03</pdfrwt>
<pdfrwt beam="1">  1       -4 0.62395039E-02 0.12499162E+03</pdfrwt>
<totfact> 0.10200954E+04</totfact>
</mgrwt>
</event>
<event>
 5    1  0.3179758E-002  0.1250004E+03  0.7818608E-02  0.1235069E+00
          4   -1    0    0  501    0  0.00000000000E+00  0.00000000000E+00  0.24522385648E+02  0.24555249904E+02  0.12700000000E+01 0. -1.
         -4   -1    0    0    0  501 -0.00000000000E+00 -0.00000000000E+00 -0.15915229347E+03  0.15915736055E+03  0.12700000000E+01 0. -1.
         25    2    1    2    0    0  0.00000000000E+00  0.00000000000E+00 -0.13462990782E+03  0.18371261045E+03  0.12500044464E+03 0.  0.
    9000005    1    3    3    0    0  0.31614970575E+02 -0.44033795888E+02 -0.11301271133E+03  0.12534494193E+03  0.10000000000E+01 0.  0.
    9000005    1    3    3    0    0 -0.31614970575E+02  0.44033795888E+02 -0.21617196490E+02  0.58367668523E+02  0.10000000000E+01 0.  0.
<mgrwt>
<rscale>  0 0.12500044E+03</rscale>
<asrwt>0</asrwt>
<pdfrwt beam="1">  1        4 0.37755926E-02 0.12500044E+03</pdfrwt>
<pdfrwt beam="2">  1       -4 0.24487885E-01 0.12500044E+03</pdfrwt>
<totfact> 0.92952032E+03</totfact>
</mgrwt>
</event>
<event>
 5    1  0.3179758E-002  0.1249931E+03  0.7818608E-02  0.1235080E+00
          4   -1    0    0  501    0  0.00000000000E+00  0.00000000000E+00  0.25792058649E+02  0.25823307095E+02  0.12700000000E+01 0.  1.
         -4   -1    0    0    0  501 -0.00000000000E+00 -0.00000000000E+00 -0.15130936494E+03  0.15131469465E+03  0.12700000000E+01 0.  1.
         25    2    1    2    0    0  0.00000000000E+00  0.00000000000E+00 -0.12551730629E+03  0.17713800175E+03  0.12499310975E+03 0.  0.
    9000005    1    3    3    0    0  0.28391659621E+01 -0.40217712252E+02 -0.13041769666E+03  0.13651117480E+03  0.10000000000E+01 0.  0.
    9000005    1    3    3    0    0 -0.28391659621E+01  0.40217712252E+02  0.49003903737E+01  0.40626826949E+02  0.10000000000E+01 0.  0.
<mgrwt>
<rscale>  0 0.12499311E+03</rscale>
<asrwt>0</asrwt>
<pdfrwt beam="1">  1        4 0.39708228E-02 0.12499311E+03</pdfrwt>
<pdfrwt beam="2">  1       -4 0.23281177E-01 0.12499311E+03</pdfrwt>
<totfact> 0.94149273E+03</totfact>
</mgrwt>
</event>
<event>
 5    1  0.3179758E-002  0.1249741E+03  0.7818608E-02  0.1235110E+00
          4   -1    0    0  501    0  0.00000000000E+00  0.00000000000E+00  0.10395432305E+02  0.10472722320E+02  0.12700000000E+01 0.  1.
         -4   -1    0    0    0  501 -0.00000000000E+00 -0.00000000000E+00 -0.37414081594E+03  0.37414297141E+03  0.12700000000E+01 0.  1.
         25    2    1    2    0    0  0.00000000000E+00  0.00000000000E+00 -0.36374538364E+03  0.38461569373E+03  0.12497410830E+03 0.  0.
    9000005    1    3    3    0    0 -0.22495822400E+02  0.34188906752E+02 -0.36584055719E+02  0.54902973537E+02  0.10000000000E+01 0.  0.
    9000005    1    3    3    0    0  0.22495822400E+02 -0.34188906752E+02 -0.32716132792E+03  0.32971272019E+03  0.10000000000E+01 0.  0.
<mgrwt>
<rscale>  0 0.12497411E+03</rscale>
<asrwt>0</asrwt>
<pdfrwt beam="1">  1        4 0.16054088E-02 0.12497411E+03</pdfrwt>
<pdfrwt beam="2">  1       -4 0.57566226E-01 0.12497411E+03</pdfrwt>
<totfact> 0.66114881E+03</totfact>
</mgrwt>
</event>
<event>
 5    1  0.3179758E-002  0.1249993E+03  0.7818608E-02  0.1235070E+00
          4   -1    0    0  501    0  0.00000000000E+00  0.00000000000E+00  0.45085277675E+02  0.45103161342E+02  0.12700000000E+01 0.  1.
         -4   -1    0    0    0  501 -0.00000000000E+00 -0.00000000000E+00 -0.86600626625E+02  0.86609938413E+02  0.12700000000E+01 0.  1.
         25    2    1    2    0    0  0.00000000000E+00  0.00000000000E+00 -0.41515348950E+02  0.13171309975E+03  0.12499926579E+03 0.  0.
    9000005    1    3    3    0    0 -0.11390336596E+02 -0.19434861806E+01  0.43954999090E+02  0.45459419831E+02  0.10000000000E+01 0.  0.
    9000005    1    3    3    0    0  0.11390336596E+02  0.19434861806E+01 -0.85470348040E+02  0.86253679924E+02  0.10000000000E+01 0.  0.
<mgrwt>
<rscale>  0 0.12499927E+03</rscale>
<asrwt>0</asrwt>
<pdfrwt beam="1">  1        4 0.69382885E-02 0.12499927E+03</pdfrwt>
<pdfrwt beam="2">  1       -4 0.13325265E-01 0.12499927E+03</pdfrwt>
<totfact> 0.10307997E+04</totfact>
</mgrwt>
</event>
<event>
 5    1  0.3179758E-002  0.1249963E+03  0.7818608E-02  0.1235075E+00
          4   -1    0    0  501    0  0.00000000000E+00  0.00000000000E+00  0.20694293127E+03  0.20694682820E+03  0.12700000000E+01 0.  1.
         -4   -1    0    0    0  501 -0.00000000000E+00 -0.00000000000E+00 -0.18849405338E+02  0.18892140736E+02  0.12700000000E+01 0.  1.
         25    2    1    2    0    0  0.00000000000E+00  0.00000000000E+00  0.18809352593E+03  0.22583896894E+03  0.12499626152E+03 0.  0.
    9000005    1    3    3    0    0  0.18530407377E+02  0.43786337044E+02  0.20780304128E+02  0.51898365571E+02  0.10000000000E+01 0.  0.
    9000005    1    3    3    0    0 -0.18530407377E+02 -0.43786337044E+02  0.16731322181E+03  0.17394060337E+03  0.10000000000E+01 0.  0.
<mgrwt>
<rscale>  0 0.12499626E+03</rscale>
<asrwt>0</asrwt>
<pdfrwt beam="1">  1        4 0.31840960E-01 0.12499626E+03</pdfrwt>
<pdfrwt beam="2">  1       -4 0.29034958E-02 0.12499626E+03</pdfrwt>
<totfact> 0.85959823E+03</totfact>
</mgrwt>
</event>
<event>
 5    1  0.3179758E-002  0.1250021E+03  0.7818608E-02  0.1235066E+00
          4   -1    0    0  501    0  0.00000000000E+00  0.00000000000E+00  0.21056379032E+04  0.21056382862E+04  0.12700000000E+01 0.  1.
         -4   -1    0    0    0  501 -0.00000000000E+00 -0.00000000000E+00 -0.16374240936E+01  0.20722108151E+01  0.12700000000E+01 0.  1.
         25    2    1    2    0    0  0.00000000000E+00  0.00000000000E+00  0.21040004791E+04  0.21077104970E+04  0.12500209250E+03 0.  0.
    9000005    1    3    3    0    0  0.55283005711E+01  0.57982933545E+02  0.14338274511E+04  0.14350103631E+04  0.10000000000E+01 0.  0.
    9000005    1    3    3    0    0 -0.55283005711E+01 -0.57982933545E+02  0.67017302795E+03  0.67270013385E+03  0.10000000000E+01 0.  0.
<mgrwt>
<rscale>  0 0.12500209E+03</rscale>
<asrwt>0</asrwt>
<pdfrwt beam="1">  1        4 0.32397840E+00 0.12500209E+03</pdfrwt>
<pdfrwt beam="2">  1       -4 0.28538544E-03 0.12500209E+03</pdfrwt>
<totfact> 0.85196793E+02</totfact>
</mgrwt>
</event>
<event>
 5    1  0.3179758E-002  0.1249988E+03  0.7818608E-02  0.1235071E+00
          4   -1    0    0  501    0  0.00000000000E+00  0.00000000000E+00  0.26884083001E+04  0.26884086001E+04  0.12700000000E+01 0. -1.
         -4   -1    0    0    0  501 -0.00000000000E+00 -0.00000000000E+00 -0.11750949511E+01  0.17302451110E+01  0.12700000000E+01 0. -1.
         25    2    1    2    0    0  0.00000000000E+00  0.00000000000E+00  0.26872332051E+04  0.26901388452E+04  0.12499883005E+03 0.  0.
    9000005    1    3    3    0    0  0.29724373961E+02 -0.16300485501E+02  0.24734204438E+04  0.24736529539E+04  0.10000000000E+01 0.  0.
    9000005    1    3    3    0    0 -0.29724373961E+02  0.16300485501E+02  0.21381276129E+03  0.21648589128E+03  0.10000000000E+01 0.  0.
<mgrwt>
<rscale>  0 0.12499883E+03</rscale>
<asrwt>0</asrwt>
<pdfrwt beam="1">  1        4 0.41364380E+00 0.12499883E+03</pdfrwt>
<pdfrwt beam="2">  1       -4 0.22351088E-03 0.12499883E+03</pdfrwt>
<totfact> 0.33420370E+02</totfact>
</mgrwt>
</event>
<event>
 5    1  0.3179758E-002  0.1249989E+03  0.7818608E-02  0.1235071E+00
          4   -1    0    0  501    0  0.00000000000E+00  0.00000000000E+00  0.36898189908E+03  0.36898408468E+03  0.12700000000E+01 0. -1.
         -4   -1    0    0    0  501 -0.00000000000E+00 -0.00000000000E+00 -0.10546065483E+02  0.10622259514E+02  0.12700000000E+01 0. -1.
         25    2    1    2    0    0  0.00000000000E+00  0.00000000000E+00  0.35843583360E+03  0.37960634420E+03  0.12499891899E+03 0.  0.
    9000005    1    3    3    0    0  0.28764010565E+02 -0.35319689904E+02  0.49293033474E+02  0.67124153237E+02  0.10000000000E+01 0.  0.
    9000005    1    3    3    0    0 -0.28764010565E+02  0.35319689904E+02  0.30914280012E+03  0.31248219096E+03  0.10000000000E+01 0.  0.
<mgrwt>
<rscale>  0 0.12499892E+03</rscale>
<asrwt>0</asrwt>
<pdfrwt beam="1">  1        4 0.56772469E-01 0.12499892E+03</pdfrwt>
<pdfrwt beam="2">  1       -4 0.16285010E-02 0.12499892E+03</pdfrwt>
<totfact> 0.66587359E+03</totfact>
</mgrwt>
</event>
<event>
 5    1  0.3179758E-002  0.1249990E+03  0.7818608E-02  0.1235071E+00
         -4   -1    0    0    0  501 -0.00000000000E+00  0.00000000000E+00  0.14498927231E+03  0.14499483434E+03  0.12700000000E+01 0.  1.
          4   -1    0    0  501    0  0.00000000000E+00 -0.00000000000E+00 -0.26920158743E+02  0.26950099197E+02  0.12700000000E+01 0.  1.
         25    2    1    2    0    0  0.00000000000E+00  0.00000000000E+00  0.11806911357E+03  0.17194493353E+03  0.12499897836E+03 0.  0.
    9000005    1    3    3    0    0 -0.36573275877E+02 -0.17078788098E+02 -0.65889126262E+01  0.40910918846E+02  0.10000000000E+01 0.  0.
    9000005    1    3    3    0    0  0.36573275877E+02  0.17078788098E+02  0.12465802619E+03  0.13103401469E+03  0.10000000000E+01 0.  0.
<mgrwt>
<rscale>  0 0.12499898E+03</rscale>
<asrwt>0</asrwt>
<pdfrwt beam="2">  1        4 0.41442939E-02 0.12499898E+03</pdfrwt>
<pdfrwt beam="1">  1       -4 0.22308773E-01 0.12499898E+03</pdfrwt>
<totfact> 0.95089545E+03</totfact>
</mgrwt>
</event>
<event>
 5    1  0.3179758E-002  0.1249999E+03  0.7818608E-02  0.1235069E+00
          4   -1    0    0  501    0  0.00000000000E+00  0.00000000000E+00  0.96720895638E+01  0.97551123280E+01  0.12700000000E+01 0. -1.
         -4   -1    0    0    0  501 -0.00000000000E+00 -0.00000000000E+00 -0.40205772185E+03  0.40205972766E+03  0.12700000000E+01 0. -1.
         25    2    1    2    0    0  0.00000000000E+00  0.00000000000E+00 -0.39238563229E+03  0.41181483998E+03  0.12499991201E+03 0.  0.
    9000005    1    3    3    0    0  0.47514704679E+02  0.66939350736E+01 -0.32808844537E+03  0.33158028276E+03  0.10000000000E+01 0.  0.
    9000005    1    3    3    0    0 -0.47514704679E+02 -0.66939350736E+01 -0.64297186918E+02  0.80234557225E+02  0.10000000000E+01 0.  0.
<mgrwt>
<rscale>  0 0.12499991E+03</rscale>
<asrwt>0</asrwt>
<pdfrwt beam="1">  1        4 0.14945548E-02 0.12499991E+03</pdfrwt>
<pdfrwt beam="2">  1       -4 0.61861562E-01 0.12499991E+03</pdfrwt>
<totfact> 0.63419816E+03</totfact>
</mgrwt>
</event>
<event>
 5    1  0.3179758E-002  0.1250022E+03  0.7818608E-02  0.1235066E+00
         -4   -1    0    0    0  501 -0.00000000000E+00  0.00000000000E+00  0.32238134557E+03  0.32238384710E+03  0.12700000000E+01 0. -1.
          4   -1    0    0  501    0  0.00000000000E+00 -0.00000000000E+00 -0.12081457923E+02  0.12148025583E+02  0.12700000000E+01 0. -1.
         25    2    1    2    0    0  0.00000000000E+00  0.00000000000E+00  0.31029988765E+03  0.33453187269E+03  0.12500221425E+03 0.  0.
    9000005    1    3    3    0    0 -0.56658162804E+02 -0.21629510470E+02  0.19550705258E+03  0.20469975756E+03  0.10000000000E+01 0.  0.
    9000005    1    3    3    0    0  0.56658162804E+02  0.21629510470E+02  0.11479283507E+03  0.12983211513E+03  0.10000000000E+01 0.  0.
<mgrwt>
<rscale>  0 0.12500221E+03</rscale>
<asrwt>0</asrwt>
<pdfrwt beam="2">  1        4 0.18639988E-02 0.12500221E+03</pdfrwt>
<pdfrwt beam="1">  1       -4 0.49602443E-01 0.12500221E+03</pdfrwt>
<totfact> 0.71456940E+03</totfact>
</mgrwt>
</event>
<event>
 5    1  0.3179758E-002  0.1249968E+03  0.7818608E-02  0.1235074E+00
         -4   -1    0    0    0  501 -0.00000000000E+00  0.00000000000E+00  0.37649608620E+03  0.37649822818E+03  0.12700000000E+01 0.  1.
          4   -1    0    0  501    0  0.00000000000E+00 -0.00000000000E+00 -0.10333702961E+02  0.10411451238E+02  0.12700000000E+01 0.  1.
         25    2    1    2    0    0  0.00000000000E+00  0.00000000000E+00  0.36616238324E+03  0.38690967942E+03  0.12499683648E+03 0.  0.
    9000005    1    3    3    0    0 -0.25714062082E+02  0.36918832108E+02  0.48839814497E+02  0.66411901291E+02  0.10000000000E+01 0.  0.
    9000005    1    3    3    0    0  0.25714062082E+02 -0.36918832108E+02  0.31732256874E+03  0.32049777813E+03  0.10000000000E+01 0.  0.
<mgrwt>
<rscale>  0 0.12499684E+03</rscale>
<asrwt>0</asrwt>
<pdfrwt beam="2">  1        4 0.15959459E-02 0.12499684E+03</pdfrwt>
<pdfrwt beam="1">  1       -4 0.57928621E-01 0.12499684E+03</pdfrwt>
<totfact> 0.65850766E+03</totfact>
</mgrwt>
</event>
<event>
 5    1  0.3179758E-002  0.1249976E+03  0.7818608E-02  0.1235073E+00
          4   -1    0    0  501    0  0.00000000000E+00  0.00000000000E+00  0.24297252419E+02  0.24330420775E+02  0.12700000000E+01 0.  1.
         -4   -1    0    0    0  501 -0.00000000000E+00 -0.00000000000E+00 -0.16061772375E+03  0.16062274460E+03  0.12700000000E+01 0.  1.
         25    2    1    2    0    0  0.00000000000E+00  0.00000000000E+00 -0.13632047133E+03  0.18495316537E+03  0.12499760989E+03 0.  0.
    9000005    1    3    3    0    0  0.17508478779E+01  0.34302761764E+02 -0.14540546283E+03  0.14941048676E+03  0.10000000000E+01 0.  0.
    9000005    1    3    3    0    0 -0.17508478779E+01 -0.34302761764E+02  0.90849914951E+01  0.35542678618E+02  0.10000000000E+01 0.  0.
<mgrwt>
<rscale>  0 0.12499761E+03</rscale>
<asrwt>0</asrwt>
<pdfrwt beam="1">  1        4 0.37409766E-02 0.12499761E+03</pdfrwt>
<pdfrwt beam="2">  1       -4 0.24713356E-01 0.12499761E+03</pdfrwt>
<totfact> 0.92737907E+03</totfact>
</mgrwt>
</event>
<event>
 5    1  0.3179758E-002  0.1249965E+03  0.7818608E-02  0.1235075E+00
          4   -1    0    0  501    0  0.00000000000E+00  0.00000000000E+00  0.10519686129E+02  0.10596069850E+02  0.12700000000E+01 0.  1.
         -4   -1    0    0    0  501 -0.00000000000E+00 -0.00000000000E+00 -0.36988618195E+03  0.36988836221E+03  0.12700000000E+01 0.  1.
         25    2    1    2    0    0  0.00000000000E+00  0.00000000000E+00 -0.35936649582E+03  0.38048443206E+03  0.12499649883E+03 0.  0.
    9000005    1    3    3    0    0 -0.36851692637E+02  0.40286886970E+02 -0.27220917285E+03  0.27763269673E+03  0.10000000000E+01 0.  0.
    9000005    1    3    3    0    0  0.36851692637E+02 -0.40286886970E+02 -0.87157322970E+02  0.10285173532E+03  0.10000000000E+01 0.  0.
<mgrwt>
<rscale>  0 0.12499650E+03</rscale>
<asrwt>0</asrwt>
<pdfrwt beam="1">  1        4 0.16244569E-02 0.12499650E+03</pdfrwt>
<pdfrwt beam="2">  1       -4 0.56911600E-01 0.12499650E+03</pdfrwt>
<totfact> 0.66501298E+03</totfact>
</mgrwt>
</event>
<event>
 5    1  0.3179758E-002  0.1249903E+03  0.7818608E-02  0.1235084E+00
          4   -1    0    0  501    0  0.00000000000E+00  0.00000000000E+00  0.71861058693E+01  0.72974665168E+01  0.12700000000E+01 0. -1.
         -4   -1    0    0    0  501 -0.00000000000E+00 -0.00000000000E+00 -0.53920835728E+03  0.53920985290E+03  0.12700000000E+01 0. -1.
         25    2    1    2    0    0  0.00000000000E+00  0.00000000000E+00 -0.53202225141E+03  0.54650731942E+03  0.12499029633E+03 0.  0.
    9000005    1    3    3    0    0  0.32498924890E+02 -0.35380385220E+02 -0.91296111398E+02  0.10316943217E+03  0.10000000000E+01 0.  0.
    9000005    1    3    3    0    0 -0.32498924890E+02  0.35380385220E+02 -0.44072614002E+03  0.44333788725E+03  0.10000000000E+01 0.  0.
<mgrwt>
<rscale>  0 0.12499030E+03</rscale>
<asrwt>0</asrwt>
<pdfrwt beam="1">  1        4 0.11142364E-02 0.12499030E+03</pdfrwt>
<pdfrwt beam="2">  1       -4 0.82963781E-01 0.12499030E+03</pdfrwt>
<totfact> 0.52439481E+03</totfact>
</mgrwt>
</event>
<event>
 5    1  0.3179758E-002  0.1250048E+03  0.7818608E-02  0.1235062E+00
          4   -1    0    0  501    0  0.00000000000E+00  0.00000000000E+00  0.78681343279E+02  0.78691592182E+02  0.12700000000E+01 0. -1.
         -4   -1    0    0    0  501 -0.00000000000E+00 -0.00000000000E+00 -0.49628688070E+02  0.49644935084E+02  0.12700000000E+01 0. -1.
         25    2    1    2    0    0  0.00000000000E+00  0.00000000000E+00  0.29052655209E+02  0.12833652727E+03  0.12500482973E+03 0.  0.
    9000005    1    3    3    0    0 -0.21037605445E+01  0.56645772036E+01  0.78385755407E+02  0.78624677386E+02  0.10000000000E+01 0.  0.
    9000005    1    3    3    0    0  0.21037605445E+01 -0.56645772036E+01 -0.49333100198E+02  0.49711849880E+02  0.10000000000E+01 0.  0.
<mgrwt>
<rscale>  0 0.12500483E+03</rscale>
<asrwt>0</asrwt>
<pdfrwt beam="1">  1        4 0.12106860E-01 0.12500483E+03</pdfrwt>
<pdfrwt beam="2">  1       -4 0.76372210E-02 0.12500483E+03</pdfrwt>
<totfact> 0.10379095E+04</totfact>
</mgrwt>
</event>
<event>
 5    1  0.3179758E-002  0.1250001E+03  0.7818608E-02  0.1235069E+00
         -4   -1    0    0    0  501 -0.00000000000E+00  0.00000000000E+00  0.10150482187E+04  0.10150490132E+04  0.12700000000E+01 0. -1.
          4   -1    0    0  501    0  0.00000000000E+00 -0.00000000000E+00 -0.37427486045E+01  0.39523495691E+01  0.12700000000E+01 0. -1.
         25    2    1    2    0    0  0.00000000000E+00  0.00000000000E+00  0.10113054701E+04  0.10190013628E+04  0.12500009387E+03 0.  0.
    9000005    1    3    3    0    0  0.61390936732E+01 -0.12516432136E+02  0.10022501120E+04  0.10023475628E+04  0.10000000000E+01 0.  0.
    9000005    1    3    3    0    0 -0.61390936732E+01  0.12516432136E+02  0.90553580861E+01  0.16653800005E+02  0.10000000000E+01 0.  0.
<mgrwt>
<rscale>  0 0.12500009E+03</rscale>
<asrwt>0</asrwt>
<pdfrwt beam="2">  1        4 0.59199069E-03 0.12500009E+03</pdfrwt>
<pdfrwt beam="1">  1       -4 0.15617773E+00 0.12500009E+03</pdfrwt>
<totfact> 0.29982608E+03</totfact>
</mgrwt>
</event>
<event>
 5    1  0.3179758E-002  0.1249900E+03  0.7818608E-02  0.1235085E+00
          4   -1    0    0  501    0  0.00000000000E+00  0.00000000000E+00  0.90793311143E+03  0.90793399965E+03  0.12700000000E+01 0.  1.
         -4   -1    0    0    0  501 -0.00000000000E+00 -0.00000000000E+00 -0.42070186606E+01  0.43945313756E+01  0.12700000000E+01 0.  1.
         25    2    1    2    0    0  0.00000000000E+00  0.00000000000E+00  0.90372609277E+03  0.91232853103E+03  0.12498999073E+03 0.  0.
    9000005    1    3    3    0    0 -0.59187793097E+02 -0.94266133531E+01  0.32281582348E+03  0.32833384197E+03  0.10000000000E+01 0.  0.
    9000005    1    3    3    0    0  0.59187793097E+02  0.94266133531E+01  0.58091026929E+03  0.58399468906E+03  0.10000000000E+01 0.  0.
<mgrwt>
<rscale>  0 0.12498999E+03</rscale>
<asrwt>0</asrwt>
<pdfrwt beam="1">  1        4 0.13969665E+00 0.12498999E+03</pdfrwt>
<pdfrwt beam="2">  1       -4 0.66172537E-03 0.12498999E+03</pdfrwt>
<totfact> 0.33699553E+03</totfact>
</mgrwt>
</event>
<event>
 5    1  0.3179758E-002  0.1250034E+03  0.7818608E-02  0.1235064E+00
         -4   -1    0    0    0  501 -0.00000000000E+00  0.00000000000E+00  0.10116167448E+02  0.10195574718E+02  0.12700000000E+01 0.  1.
          4   -1    0    0  501    0  0.00000000000E+00 -0.00000000000E+00 -0.38457049025E+03  0.38457258726E+03  0.12700000000E+01 0.  1.
         25    2    1    2    0    0  0.00000000000E+00  0.00000000000E+00 -0.37445432280E+03  0.39476816198E+03  0.12500344734E+03 0.  0.
    9000005    1    3    3    0    0 -0.27151548872E+02 -0.48839984699E+01 -0.10139053730E+02  0.29408509955E+02  0.10000000000E+01 0.  0.
    9000005    1    3    3    0    0  0.27151548872E+02  0.48839984699E+01 -0.36431526907E+03  0.36535965202E+03  0.10000000000E+01 0.  0.
<mgrwt>
<rscale>  0 0.12500345E+03</rscale>
<asrwt>0</asrwt>
<pdfrwt beam="2">  1        4 0.59170949E-01 0.12500345E+03</pdfrwt>
<pdfrwt beam="1">  1       -4 0.15626033E-02 0.12500345E+03</pdfrwt>
<totfact> 0.65059884E+03</totfact>
</mgrwt>
</event>
<event>
 5    1  0.3179758E-002  0.1250000E+03  0.7818608E-02  0.1235069E+00
         -4   -1    0    0    0  501 -0.00000000000E+00  0.00000000000E+00  0.45008899929E+03  0.45009079104E+03  0.12700000000E+01 0. -1.
          4   -1    0    0  501    0  0.00000000000E+00 -0.00000000000E+00 -0.86305613786E+01  0.87235021471E+01  0.12700000000E+01 0. -1.
         25    2    1    2    0    0  0.00000000000E+00  0.00000000000E+00  0.44145843791E+03  0.45881429319E+03  0.12500001293E+03 0.  0.
    9000005    1    3    3    0    0 -0.10875478010E+02 -0.15663768517E+02  0.22913496795E+01  0.19232263243E+02  0.10000000000E+01 0.  0.
    9000005    1    3    3    0    0  0.10875478010E+02  0.15663768517E+02  0.43916708823E+03  0.43958202994E+03  0.10000000000E+01 0.  0.
<mgrwt>
<rscale>  0 0.12500001E+03</rscale>
<asrwt>0</asrwt>
<pdfrwt beam="2">  1        4 0.13350660E-02 0.12500001E+03</pdfrwt>
<pdfrwt beam="1">  1       -4 0.69251740E-01 0.12500001E+03</pdfrwt>
<totfact> 0.59207734E+03</totfact>
</mgrwt>
</event>
<event>
 5    1  0.3179758E-002  0.1250041E+03  0.7818608E-02  0.1235063E+00
         -4   -1    0    0    0  501 -0.00000000000E+00  0.00000000000E+00  0.36172735070E+01  0.38337406830E+01  0.12700000000E+01 0. -1.
          4   -1    0    0  501    0  0.00000000000E+00 -0.00000000000E+00 -0.10483664836E+04  0.10483672529E+04  0.12700000000E+01 0. -1.
         25    2    1    2    0    0  0.00000000000E+00  0.00000000000E+00 -0.10447492101E+04  0.10522009935E+04  0.12500407509E+03 0.  0.
    9000005    1    3    3    0    0 -0.23699138047E+02  0.57501174068E+02 -0.57389978029E+03  0.57726076601E+03  0.10000000000E+01 0.  0.
    9000005    1    3    3    0    0  0.23699138047E+02 -0.57501174068E+02 -0.47084942982E+03  0.47494022752E+03  0.10000000000E+01 0.  0.
<mgrwt>
<rscale>  0 0.12500408E+03</rscale>
<asrwt>0</asrwt>
<pdfrwt beam="2">  1        4 0.16130363E+00 0.12500408E+03</pdfrwt>
<pdfrwt beam="1">  1       -4 0.57321495E-03 0.12500408E+03</pdfrwt>
<totfact> 0.28923619E+03</totfact>
</mgrwt>
</event>
<event>
 5    1  0.3179758E-002  0.1249696E+03  0.7818608E-02  0.1235117E+00
          4   -1    0    0  501    0  0.00000000000E+00  0.00000000000E+00  0.17866503441E+02  0.17911584107E+02  0.12700000000E+01 0.  1.
         -4   -1    0    0    0  501 -0.00000000000E+00 -0.00000000000E+00 -0.21820687893E+03  0.21821057470E+03  0.12700000000E+01 0.  1.
         25    2    1    2    0    0  0.00000000000E+00  0.00000000000E+00 -0.20034037549E+03  0.23612215881E+03  0.12496962763E+03 0.  0.
    9000005    1    3    3    0    0 -0.93552237006E+01  0.61319392976E+02 -0.86060791871E+02  0.10608981131E+03  0.10000000000E+01 0.  0.
    9000005    1    3    3    0    0  0.93552237006E+01 -0.61319392976E+02 -0.11427958362E+03  0.13003234750E+03  0.10000000000E+01 0.  0.
<mgrwt>
<rscale>  0 0.12496963E+03</rscale>
<asrwt>0</asrwt>
<pdfrwt beam="1">  1        4 0.27524450E-02 0.12496963E+03</pdfrwt>
<pdfrwt beam="2">  1       -4 0.33574039E-01 0.12496963E+03</pdfrwt>
<totfact> 0.84435491E+03</totfact>
</mgrwt>
</event>
<event>
 5    1  0.3179758E-002  0.1249989E+03  0.7818608E-02  0.1235071E+00
          4   -1    0    0  501    0  0.00000000000E+00  0.00000000000E+00  0.53329693617E+03  0.53329844837E+03  0.12700000000E+01 0.  1.
         -4   -1    0    0    0  501 -0.00000000000E+00 -0.00000000000E+00 -0.72679992950E+01  0.73781239995E+01  0.12700000000E+01 0.  1.
         25    2    1    2    0    0  0.00000000000E+00  0.00000000000E+00  0.52602893688E+03  0.54067657237E+03  0.12499885389E+03 0.  0.
    9000005    1    3    3    0    0 -0.10445176331E+02  0.46853201699E+02  0.43607873415E+03  0.43871401459E+03  0.10000000000E+01 0.  0.
    9000005    1    3    3    0    0  0.10445176331E+02 -0.46853201699E+02  0.89950202726E+02  0.10196255778E+03  0.10000000000E+01 0.  0.
<mgrwt>
<rscale>  0 0.12499885E+03</rscale>
<asrwt>0</asrwt>
<pdfrwt beam="1">  1        4 0.82054277E-01 0.12499885E+03</pdfrwt>
<pdfrwt beam="2">  1       -4 0.11267411E-02 0.12499885E+03</pdfrwt>
<totfact> 0.52842270E+03</totfact>
</mgrwt>
</event>
<event>
 5    1  0.3179758E-002  0.1250016E+03  0.7818608E-02  0.1235067E+00
          4   -1    0    0  501    0  0.00000000000E+00  0.00000000000E+00  0.43519429782E+01  0.45334653065E+01  0.12700000000E+01 0.  1.
         -4   -1    0    0    0  501 -0.00000000000E+00 -0.00000000000E+00 -0.87909087385E+03  0.87909179122E+03  0.12700000000E+01 0.  1.
         25    2    1    2    0    0  0.00000000000E+00  0.00000000000E+00 -0.87473893087E+03  0.88362525653E+03  0.12500158713E+03 0.  0.
    9000005    1    3    3    0    0 -0.40300210055E+02 -0.36145962217E+02 -0.21667538783E+03  0.22333799768E+03  0.10000000000E+01 0.  0.
    9000005    1    3    3    0    0  0.40300210055E+02  0.36145962217E+02 -0.65806354304E+03  0.66028725885E+03  0.10000000000E+01 0.  0.
<mgrwt>
<rscale>  0 0.12500159E+03</rscale>
<asrwt>0</asrwt>
<pdfrwt beam="1">  1        4 0.68356421E-03 0.12500159E+03</pdfrwt>
<pdfrwt beam="2">  1       -4 0.13525865E+00 0.12500159E+03</pdfrwt>
<totfact> 0.34788258E+03</totfact>
</mgrwt>
</event>
<event>
 5    1  0.3179758E-002  0.1250050E+03  0.7818608E-02  0.1235062E+00
         -4   -1    0    0    0  501 -0.00000000000E+00  0.00000000000E+00  0.43456681315E+03  0.43456866890E+03  0.12700000000E+01 0. -1.
          4   -1    0    0  501    0  0.00000000000E+00 -0.00000000000E+00 -0.89428099742E+01  0.90325384159E+01  0.12700000000E+01 0. -1.
         25    2    1    2    0    0  0.00000000000E+00  0.00000000000E+00  0.42562400317E+03  0.44360120731E+03  0.12500495612E+03 0.  0.
    9000005    1    3    3    0    0 -0.54297871915E+02 -0.16169433469E+02  0.11920175400E+03  0.13198396732E+03  0.10000000000E+01 0.  0.
    9000005    1    3    3    0    0  0.54297871915E+02  0.16169433469E+02  0.30642224917E+03  0.31161723999E+03  0.10000000000E+01 0.  0.
<mgrwt>
<rscale>  0 0.12500496E+03</rscale>
<asrwt>0</asrwt>
<pdfrwt beam="2">  1        4 0.13828617E-02 0.12500496E+03</pdfrwt>
<pdfrwt beam="1">  1       -4 0.66863484E-01 0.12500496E+03</pdfrwt>
<totfact> 0.60515545E+03</totfact>
</mgrwt>
</event>
<event>
 5    1  0.3179758E-002  0.1249997E+03  0.7818608E-02  0.1235070E+00
          4   -1    0    0  501    0  0.00000000000E+00  0.00000000000E+00  0.11399524088E+03  0.11400231508E+03  0.12700000000E+01 0.  1.
         -4   -1    0    0    0  501 -0.00000000000E+00 -0.00000000000E+00 -0.34246715060E+02  0.34270255214E+02  0.12700000000E+01 0.  1.
         25    2    1    2    0    0  0.00000000000E+00  0.00000000000E+00  0.79748525818E+02  0.14827257029E+03  0.12499971092E+03 0.  0.
    9000005    1    3    3    0    0 -0.48583101054E+02 -0.37147780987E+02  0.55109058990E+02  0.82330332946E+02  0.10000000000E+01 0.  0.
    9000005    1    3    3    0    0  0.48583101054E+02  0.37147780987E+02  0.24639466828E+02  0.65942237344E+02  0.10000000000E+01 0.  0.
<mgrwt>
<rscale>  0 0.12499971E+03</rscale>
<asrwt>0</asrwt>
<pdfrwt beam="1">  1        4 0.17540084E-01 0.12499971E+03</pdfrwt>
<pdfrwt beam="2">  1       -4 0.52710804E-02 0.12499971E+03</pdfrwt>
<totfact> 0.99649804E+03</totfact>
</mgrwt>
</event>
<event>
 5    1  0.3179758E-002  0.1249913E+03  0.7818608E-02  0.1235083E+00
          4   -1    0    0  501    0  0.00000000000E+00  0.00000000000E+00  0.73205094429E+02  0.73216109910E+02  0.12700000000E+01 0. -1.
         -4   -1    0    0    0  501 -0.00000000000E+00 -0.00000000000E+00 -0.53330323406E+02  0.53345443054E+02  0.12700000000E+01 0. -1.
         25    2    1    2    0    0  0.00000000000E+00  0.00000000000E+00  0.19874771023E+02  0.12656155296E+03  0.12499128036E+03 0.  0.
    9000005    1    3    3    0    0  0.50021199397E+02 -0.33654285889E+02  0.26574683776E+02  0.65893437955E+02  0.10000000000E+01 0.  0.
    9000005    1    3    3    0    0 -0.50021199397E+02  0.33654285889E+02 -0.66999127536E+01  0.60668115008E+02  0.10000000000E+01 0.  0.
<mgrwt>
<rscale>  0 0.12499128E+03</rscale>
<asrwt>0</asrwt>
<pdfrwt beam="1">  1        4 0.11264333E-01 0.12499128E+03</pdfrwt>
<pdfrwt beam="2">  1       -4 0.82066755E-02 0.12499128E+03</pdfrwt>
<totfact> 0.10420737E+04</totfact>
</mgrwt>
</event>
<event>
 5    1  0.3179758E-002  0.1250027E+03  0.7818608E-02  0.1235065E+00
         -4   -1    0    0    0  501 -0.00000000000E+00  0.00000000000E+00  0.78194614313E+01  0.79219238241E+01  0.12700000000E+01 0. -1.
          4   -1    0    0  501    0  0.00000000000E+00 -0.00000000000E+00 -0.49622166817E+03  0.49622329335E+03  0.12700000000E+01 0. -1.
         25    2    1    2    0    0  0.00000000000E+00  0.00000000000E+00 -0.48840220674E+03  0.50414521717E+03  0.12500273777E+03 0.  0.
    9000005    1    3    3    0    0 -0.72592904170E+01 -0.44837124943E+02 -0.41731140296E+03  0.41977716959E+03  0.10000000000E+01 0.  0.
    9000005    1    3    3    0    0  0.72592904170E+01  0.44837124943E+02 -0.71090803777E+02  0.84368047578E+02  0.10000000000E+01 0.  0.
<mgrwt>
<rscale>  0 0.12500274E+03</rscale>
<asrwt>0</asrwt>
<pdfrwt beam="2">  1        4 0.76349778E-01 0.12500274E+03</pdfrwt>
<pdfrwt beam="1">  1       -4 0.12110012E-02 0.12500274E+03</pdfrwt>
<totfact> 0.55540844E+03</totfact>
</mgrwt>
</event>
<event>
 5    1  0.3179758E-002  0.1249999E+03  0.7818608E-02  0.1235069E+00
         -4   -1    0    0    0  501 -0.00000000000E+00  0.00000000000E+00  0.11297878766E+03  0.11298592550E+03  0.12700000000E+01 0.  1.
          4   -1    0    0  501    0  0.00000000000E+00 -0.00000000000E+00 -0.34555113361E+02  0.34578443566E+02  0.12700000000E+01 0.  1.
         25    2    1    2    0    0  0.00000000000E+00  0.00000000000E+00  0.78423674299E+02  0.14756436907E+03  0.12499988131E+03 0.  0.
    9000005    1    3    3    0    0 -0.40413285129E+02 -0.18340715421E+02  0.91149542035E+02  0.10138468558E+03  0.10000000000E+01 0.  0.
    9000005    1    3    3    0    0  0.40413285129E+02  0.18340715421E+02 -0.12725867737E+02  0.46179683485E+02  0.10000000000E+01 0.  0.
<mgrwt>
<rscale>  0 0.12499988E+03</rscale>
<asrwt>0</asrwt>
<pdfrwt beam="2">  1        4 0.53185150E-02 0.12499988E+03</pdfrwt>
<pdfrwt beam="1">  1       -4 0.17383696E-01 0.12499988E+03</pdfrwt>
<totfact> 0.99791705E+03</totfact>
</mgrwt>
</event>
<event>
 5    1  0.3179758E-002  0.1250009E+03  0.7818608E-02  0.1235068E+00
         -4   -1    0    0    0  501 -0.00000000000E+00  0.00000000000E+00  0.10273235011E+02  0.10351437465E+02  0.12700000000E+01 0.  1.
          4   -1    0    0  501    0  0.00000000000E+00 -0.00000000000E+00 -0.37871991548E+03  0.37872204488E+03  0.12700000000E+01 0.  1.
         25    2    1    2    0    0  0.00000000000E+00  0.00000000000E+00 -0.36844668047E+03  0.38907348235E+03  0.12500087327E+03 0.  0.
    9000005    1    3    3    0    0  0.18237657305E+02 -0.25398656464E+01 -0.37009961539E+03  0.37055875158E+03  0.10000000000E+01 0.  0.
    9000005    1    3    3    0    0 -0.18237657305E+02  0.25398656464E+01  0.16529349227E+01  0.18514730766E+02  0.10000000000E+01 0.  0.
<mgrwt>
<rscale>  0 0.12500087E+03</rscale>
<asrwt>0</asrwt>
<pdfrwt beam="2">  1        4 0.58270771E-01 0.12500087E+03</pdfrwt>
<pdfrwt beam="1">  1       -4 0.15866774E-02 0.12500087E+03</pdfrwt>
<totfact> 0.65628284E+03</totfact>
</mgrwt>
</event>
<event>
 5    1  0.3179758E-002  0.1250424E+03  0.7818608E-02  0.1235003E+00
         -4   -1    0    0    0  501 -0.00000000000E+00  0.00000000000E+00  0.65420150087E+02  0.65432476168E+02  0.12700000000E+01 0.  1.
          4   -1    0    0  501    0  0.00000000000E+00 -0.00000000000E+00 -0.59726021031E+02  0.59739521995E+02  0.12700000000E+01 0.  1.
         25    2    1    2    0    0  0.00000000000E+00  0.00000000000E+00  0.56941290568E+01  0.12517199816E+03  0.12504241688E+03 0.  0.
    9000005    1    3    3    0    0 -0.23009044451E+02  0.21282283925E+02 -0.51297338666E+02  0.60122946450E+02  0.10000000000E+01 0.  0.
    9000005    1    3    3    0    0  0.23009044451E+02 -0.21282283925E+02  0.56991467722E+02  0.65049051713E+02  0.10000000000E+01 0.  0.
<mgrwt>
<rscale>  0 0.12504242E+03</rscale>
<asrwt>0</asrwt>
<pdfrwt beam="2">  1        4 0.91906053E-02 0.12504242E+03</pdfrwt>
<pdfrwt beam="1">  1       -4 0.10066625E-01 0.12504242E+03</pdfrwt>
<totfact> 0.10439118E+04</totfact>
</mgrwt>
</event>
<event>
 5    1  0.3179758E-002  0.1250002E+03  0.7818608E-02  0.1235069E+00
          4   -1    0    0  501    0  0.00000000000E+00  0.00000000000E+00  0.14653548822E+02  0.14708480311E+02  0.12700000000E+01 0. -1.
         -4   -1    0    0    0  501 -0.00000000000E+00 -0.00000000000E+00 -0.26601927736E+03  0.26602230889E+03  0.12700000000E+01 0. -1.
         25    2    1    2    0    0  0.00000000000E+00  0.00000000000E+00 -0.25136572854E+03  0.28073078920E+03  0.12500018609E+03 0.  0.
    9000005    1    3    3    0    0 -0.37280805093E+02  0.49675537590E+02 -0.11016472845E+03  0.12647049006E+03  0.10000000000E+01 0.  0.
    9000005    1    3    3    0    0  0.37280805093E+02 -0.49675537590E+02 -0.14120100009E+03  0.15426029914E+03  0.10000000000E+01 0.  0.
<mgrwt>
<rscale>  0 0.12500019E+03</rscale>
<asrwt>0</asrwt>
<pdfrwt beam="1">  1        4 0.22588510E-02 0.12500019E+03</pdfrwt>
<pdfrwt beam="2">  1       -4 0.40930498E-01 0.12500019E+03</pdfrwt>
<totfact> 0.78080986E+03</totfact>
</mgrwt>
</event>
<event>
 5    1  0.3179758E-002  0.1249991E+03  0.7818608E-02  0.1235071E+00
          4   -1    0    0  501    0  0.00000000000E+00  0.00000000000E+00  0.22894679997E+03  0.22895032238E+03  0.12700000000E+01 0. -1.
         -4   -1    0    0    0  501 -0.00000000000E+00 -0.00000000000E+00 -0.17034286062E+02  0.17081563209E+02  0.12700000000E+01 0. -1.
         25    2    1    2    0    0  0.00000000000E+00  0.00000000000E+00  0.21191251391E+03  0.24603188559E+03  0.12499910069E+03 0.  0.
    9000005    1    3    3    0    0 -0.37197480015E+02 -0.49508683174E+02  0.89437849513E+02  0.10878828593E+03  0.10000000000E+01 0.  0.
    9000005    1    3    3    0    0  0.37197480015E+02  0.49508683174E+02  0.12247466440E+03  0.13724359966E+03  0.10000000000E+01 0.  0.
<mgrwt>
<rscale>  0 0.12499910E+03</rscale>
<asrwt>0</asrwt>
<pdfrwt beam="1">  1        4 0.35226491E-01 0.12499910E+03</pdfrwt>
<pdfrwt beam="2">  1       -4 0.26245672E-02 0.12499910E+03</pdfrwt>
<totfact> 0.82908809E+03</totfact>
</mgrwt>
</event>
<event>
 5    1  0.3179758E-002  0.1249979E+03  0.7818608E-02  0.1235073E+00
         -4   -1    0    0    0  501 -0.00000000000E+00  0.00000000000E+00  0.40745261627E+02  0.40765049308E+02  0.12700000000E+01 0. -1.
          4   -1    0    0  501    0  0.00000000000E+00 -0.00000000000E+00 -0.95819488352E+02  0.95827904329E+02  0.12700000000E+01 0. -1.
         25    2    1    2    0    0  0.00000000000E+00  0.00000000000E+00 -0.55074226725E+02  0.13659295364E+03  0.12499785812E+03 0.  0.
    9000005    1    3    3    0    0 -0.73173478330E+01 -0.53691027804E+02 -0.61550754063E+02  0.82010763755E+02  0.10000000000E+01 0.  0.
    9000005    1    3    3    0    0  0.73173478330E+01  0.53691027804E+02  0.64765273376E+01  0.54582189882E+02  0.10000000000E+01 0.  0.
<mgrwt>
<rscale>  0 0.12499786E+03</rscale>
<asrwt>0</asrwt>
<pdfrwt beam="2">  1        4 0.14743629E-01 0.12499786E+03</pdfrwt>
<pdfrwt beam="1">  1       -4 0.62706713E-02 0.12499786E+03</pdfrwt>
<totfact> 0.10205096E+04</totfact>
</mgrwt>
</event>
<event>
 5    1  0.3179758E-002  0.1249996E+03  0.7818608E-02  0.1235070E+00
          4   -1    0    0  501    0  0.00000000000E+00  0.00000000000E+00  0.11550553145E+02  0.11620162562E+02  0.12700000000E+01 0. -1.
         -4   -1    0    0    0  501 -0.00000000000E+00 -0.00000000000E+00 -0.33709815403E+03  0.33710054635E+03  0.12700000000E+01 0. -1.
         25    2    1    2    0    0  0.00000000000E+00  0.00000000000E+00 -0.32554760089E+03  0.34872070892E+03  0.12499956953E+03 0.  0.
    9000005    1    3    3    0    0  0.30250271112E+02  0.45925748366E+02 -0.79970101171E+02  0.97059107489E+02  0.10000000000E+01 0.  0.
    9000005    1    3    3    0    0 -0.30250271112E+02 -0.45925748366E+02 -0.24557749972E+03  0.25166160143E+03  0.10000000000E+01 0.  0.
<mgrwt>
<rscale>  0 0.12499957E+03</rscale>
<asrwt>0</asrwt>
<pdfrwt beam="1">  1        4 0.17825470E-02 0.12499957E+03</pdfrwt>
<pdfrwt beam="2">  1       -4 0.51866785E-01 0.12499957E+03</pdfrwt>
<totfact> 0.69866192E+03</totfact>
</mgrwt>
</event>
<event>
 5    1  0.3179758E-002  0.1249971E+03  0.7818608E-02  0.1235074E+00
          4   -1    0    0  501    0  0.00000000000E+00  0.00000000000E+00  0.10868408612E+02  0.10942358327E+02  0.12700000000E+01 0.  1.
         -4   -1    0    0    0  501 -0.00000000000E+00 -0.00000000000E+00 -0.35810282779E+03  0.35810507979E+03  0.12700000000E+01 0.  1.
         25    2    1    2    0    0  0.00000000000E+00  0.00000000000E+00 -0.34723441918E+03  0.36904743812E+03  0.12499707884E+03 0.  0.
    9000005    1    3    3    0    0  0.40991436984E+02  0.14811958022E+02 -0.41402378288E+02  0.60123613784E+02  0.10000000000E+01 0.  0.
    9000005    1    3    3    0    0 -0.40991436984E+02 -0.14811958022E+02 -0.30583204089E+03  0.30892382433E+03  0.10000000000E+01 0.  0.
<mgrwt>
<rscale>  0 0.12499708E+03</rscale>
<asrwt>0</asrwt>
<pdfrwt beam="1">  1        4 0.16779248E-02 0.12499708E+03</pdfrwt>
<pdfrwt beam="2">  1       -4 0.55098595E-01 0.12499708E+03</pdfrwt>
<totfact> 0.67683086E+03</totfact>
</mgrwt>
</event>
<event>
 5    1  0.3179758E-002  0.1249980E+03  0.7818608E-02  0.1235072E+00
         -4   -1    0    0    0  501 -0.00000000000E+00  0.00000000000E+00  0.41127413759E+02  0.41147017662E+02  0.12700000000E+01 0. -1.
          4   -1    0    0  501    0  0.00000000000E+00 -0.00000000000E+00 -0.94929648851E+02  0.94938143709E+02  0.12700000000E+01 0. -1.
         25    2    1    2    0    0  0.00000000000E+00  0.00000000000E+00 -0.53802235092E+02  0.13608516137E+03  0.12499796256E+03 0.  0.
    9000005    1    3    3    0    0 -0.45487498082E+02 -0.40512092428E+02 -0.42095415149E+02  0.74049754160E+02  0.10000000000E+01 0.  0.
    9000005    1    3    3    0    0  0.45487498082E+02  0.40512092428E+02 -0.11706819944E+02  0.62035407211E+02  0.10000000000E+01 0.  0.
<mgrwt>
<rscale>  0 0.12499796E+03</rscale>
<asrwt>0</asrwt>
<pdfrwt beam="2">  1        4 0.14606723E-01 0.12499796E+03</pdfrwt>
<pdfrwt beam="1">  1       -4 0.63294559E-02 0.12499796E+03</pdfrwt>
<totfact> 0.10215718E+04</totfact>
</mgrwt>
</event>
<event>
 5    1  0.3179758E-002  0.1250006E+03  0.7818608E-02  0.1235068E+00
          4   -1    0    0  501    0  0.00000000000E+00  0.00000000000E+00  0.81540205134E+01  0.82523300063E+01  0.12700000000E+01 0.  1.
         -4   -1    0    0    0  501 -0.00000000000E+00 -0.00000000000E+00 -0.47609276102E+03  0.47609445491E+03  0.12700000000E+01 0.  1.
         25    2    1    2    0    0  0.00000000000E+00  0.00000000000E+00 -0.46793874050E+03  0.48434678491E+03  0.12500057276E+03 0.  0.
    9000005    1    3    3    0    0  0.39674347448E+02  0.17854086623E+02 -0.60145894776E+02  0.74238473267E+02  0.10000000000E+01 0.  0.
    9000005    1    3    3    0    0 -0.39674347448E+02 -0.17854086623E+02 -0.40779284573E+03  0.41010831165E+03  0.10000000000E+01 0.  0.
<mgrwt>
<rscale>  0 0.12500057E+03</rscale>
<asrwt>0</asrwt>
<pdfrwt beam="1">  1        4 0.12621576E-02 0.12500057E+03</pdfrwt>
<pdfrwt beam="2">  1       -4 0.73252711E-01 0.12500057E+03</pdfrwt>
<totfact> 0.57098941E+03</totfact>
</mgrwt>
</event>
<event>
 5    1  0.3179758E-002  0.1249937E+03  0.7818608E-02  0.1235079E+00
         -4   -1    0    0    0  501 -0.00000000000E+00  0.00000000000E+00  0.20232586771E+02  0.20272406553E+02  0.12700000000E+01 0. -1.
          4   -1    0    0  501    0  0.00000000000E+00 -0.00000000000E+00 -0.19281609792E+03  0.19282028036E+03  0.12700000000E+01 0. -1.
         25    2    1    2    0    0  0.00000000000E+00  0.00000000000E+00 -0.17258351115E+03  0.21309268691E+03  0.12499369942E+03 0.  0.
    9000005    1    3    3    0    0 -0.40551894458E+02 -0.22350635378E+02 -0.15783053119E+03  0.16448551189E+03  0.10000000000E+01 0.  0.
    9000005    1    3    3    0    0  0.40551894458E+02  0.22350635378E+02 -0.14752979962E+02  0.48607175023E+02  0.10000000000E+01 0.  0.
<mgrwt>
<rscale>  0 0.12499370E+03</rscale>
<asrwt>0</asrwt>
<pdfrwt beam="2">  1        4 0.29667399E-01 0.12499370E+03</pdfrwt>
<pdfrwt beam="1">  1       -4 0.31160906E-02 0.12499370E+03</pdfrwt>
<totfact> 0.87985672E+03</totfact>
</mgrwt>
</event>
<event>
 5    1  0.3179758E-002  0.1250013E+03  0.7818608E-02  0.1235067E+00
          4   -1    0    0  501    0  0.00000000000E+00  0.00000000000E+00  0.27351106261E+02  0.27380575481E+02  0.12700000000E+01 0. -1.
         -4   -1    0    0    0  501 -0.00000000000E+00 -0.00000000000E+00 -0.14271244364E+03  0.14271809440E+03  0.12700000000E+01 0. -1.
         25    2    1    2    0    0  0.00000000000E+00  0.00000000000E+00 -0.11536133738E+03  0.17009866988E+03  0.12500127733E+03 0.  0.
    9000005    1    3    3    0    0 -0.46737468164E+02 -0.34315154774E+02 -0.25959447185E+02  0.63535924292E+02  0.10000000000E+01 0.  0.
    9000005    1    3    3    0    0  0.46737468164E+02  0.34315154774E+02 -0.89401890196E+02  0.10656274559E+03  0.10000000000E+01 0.  0.
<mgrwt>
<rscale>  0 0.12500128E+03</rscale>
<asrwt>0</asrwt>
<pdfrwt beam="1">  1        4 0.42105641E-02 0.12500128E+03</pdfrwt>
<pdfrwt beam="2">  1       -4 0.21958462E-01 0.12500128E+03</pdfrwt>
<totfact> 0.95427513E+03</totfact>
</mgrwt>
</event>
<event>
 5    1  0.3179758E-002  0.1250093E+03  0.7818608E-02  0.1235055E+00
         -4   -1    0    0    0  501 -0.00000000000E+00  0.00000000000E+00  0.13608568898E+04  0.13608574824E+04  0.12700000000E+01 0. -1.
          4   -1    0    0  501    0  0.00000000000E+00 -0.00000000000E+00 -0.27297863856E+01  0.30107530139E+01  0.12700000000E+01 0. -1.
         25    2    1    2    0    0  0.00000000000E+00  0.00000000000E+00  0.13581271034E+04  0.13638682355E+04  0.12500933787E+03 0.  0.
    9000005    1    3    3    0    0  0.53636781944E+02  0.25055520359E+02  0.46054744946E+03  0.46433784756E+03  0.10000000000E+01 0.  0.
    9000005    1    3    3    0    0 -0.53636781944E+02 -0.25055520359E+02  0.89757965399E+03  0.89953038789E+03  0.10000000000E+01 0.  0.
<mgrwt>
<rscale>  0 0.12500934E+03</rscale>
<asrwt>0</asrwt>
<pdfrwt beam="2">  1        4 0.44162518E-03 0.12500934E+03</pdfrwt>
<pdfrwt beam="1">  1       -4 0.20938443E+00 0.12500934E+03</pdfrwt>
<totfact> 0.20765056E+03</totfact>
</mgrwt>
</event>
<event>
 5    1  0.3179758E-002  0.1250001E+03  0.7818608E-02  0.1235069E+00
         -4   -1    0    0    0  501 -0.00000000000E+00  0.00000000000E+00  0.27789810785E+02  0.27818815278E+02  0.12700000000E+01 0. -1.
          4   -1    0    0  501    0  0.00000000000E+00 -0.00000000000E+00 -0.14045916630E+03  0.14046490771E+03  0.12700000000E+01 0. -1.
         25    2    1    2    0    0  0.00000000000E+00  0.00000000000E+00 -0.11266935552E+03  0.16828372299E+03  0.12500011100E+03 0.  0.
    9000005    1    3    3    0    0 -0.33339511341E+02 -0.31428132145E+02  0.87787936252E+00  0.45836897569E+02  0.10000000000E+01 0.  0.
    9000005    1    3    3    0    0  0.33339511341E+02  0.31428132145E+02 -0.11354723488E+03  0.12244682542E+03  0.10000000000E+01 0.  0.
<mgrwt>
<rscale>  0 0.12500011E+03</rscale>
<asrwt>0</asrwt>
<pdfrwt beam="2">  1        4 0.21611775E-01 0.12500011E+03</pdfrwt>
<pdfrwt beam="1">  1       -4 0.42780283E-02 0.12500011E+03</pdfrwt>
<totfact> 0.95768858E+03</totfact>
</mgrwt>
</event>
<event>
 5    1  0.3179758E-002  0.1250000E+03  0.7818608E-02  0.1235069E+00
         -4   -1    0    0    0  501 -0.00000000000E+00  0.00000000000E+00  0.49762201211E+03  0.49762363271E+03  0.12700000000E+01 0.  1.
          4   -1    0    0  501    0  0.00000000000E+00 -0.00000000000E+00 -0.77968209062E+01  0.78995769661E+01  0.12700000000E+01 0.  1.
         25    2    1    2    0    0  0.00000000000E+00  0.00000000000E+00  0.48982519120E+03  0.50552320968E+03  0.12499999035E+03 0.  0.
    9000005    1    3    3    0    0  0.35597013639E+02 -0.23974713586E+02  0.61210588556E+02  0.74764098490E+02  0.10000000000E+01 0.  0.
    9000005    1    3    3    0    0 -0.35597013639E+02  0.23974713586E+02  0.42861460264E+03  0.43075911119E+03  0.10000000000E+01 0.  0.
<mgrwt>
<rscale>  0 0.12499999E+03</rscale>
<asrwt>0</asrwt>
<pdfrwt beam="2">  1        4 0.12075396E-02 0.12499999E+03</pdfrwt>
<pdfrwt beam="1">  1       -4 0.76565280E-01 0.12499999E+03</pdfrwt>
<totfact> 0.55438367E+03</totfact>
</mgrwt>
</event>
<event>
 5    1  0.3179758E-002  0.1249945E+03  0.7818608E-02  0.1235078E+00
          4   -1    0    0  501    0  0.00000000000E+00  0.00000000000E+00  0.16372667991E+04  0.16372672916E+04  0.12700000000E+01 0.  1.
         -4   -1    0    0    0  501 -0.00000000000E+00 -0.00000000000E+00 -0.22160759847E+01  0.25541912164E+01  0.12700000000E+01 0.  1.
         25    2    1    2    0    0  0.00000000000E+00  0.00000000000E+00  0.16350507231E+04  0.16398214828E+04  0.12499451403E+03 0.  0.
    9000005    1    3    3    0    0  0.25766598137E+02 -0.52654864903E+02  0.11014737747E+04  0.11030330588E+04  0.10000000000E+01 0.  0.
    9000005    1    3    3    0    0 -0.25766598137E+02  0.52654864903E+02  0.53357694836E+03  0.53678842405E+03  0.10000000000E+01 0.  0.
<mgrwt>
<rscale>  0 0.12499451E+03</rscale>
<asrwt>0</asrwt>
<pdfrwt beam="1">  1        4 0.25191373E+00 0.12499451E+03</pdfrwt>
<pdfrwt beam="2">  1       -4 0.36698081E-03 0.12499451E+03</pdfrwt>
<totfact> 0.15338847E+03</totfact>
</mgrwt>
</event>
<event>
 5    1  0.3179758E-002  0.1250002E+03  0.7818608E-02  0.1235069E+00
          4   -1    0    0  501    0  0.00000000000E+00  0.00000000000E+00  0.12964530349E+02  0.13026586167E+02  0.12700000000E+01 0.  1.
         -4   -1    0    0    0  501 -0.00000000000E+00 -0.00000000000E+00 -0.30052106947E+03  0.30052375296E+03  0.12700000000E+01 0.  1.
         25    2    1    2    0    0  0.00000000000E+00  0.00000000000E+00 -0.28755653912E+03  0.31355033913E+03  0.12500020791E+03 0.  0.
    9000005    1    3    3    0    0 -0.30888612850E+02 -0.17156897242E+02 -0.27307149321E+03  0.27534978833E+03  0.10000000000E+01 0.  0.
    9000005    1    3    3    0    0  0.30888612850E+02  0.17156897242E+02 -0.14485045910E+02  0.38200550805E+02  0.10000000000E+01 0.  0.
<mgrwt>
<rscale>  0 0.12500021E+03</rscale>
<asrwt>0</asrwt>
<pdfrwt beam="1">  1        4 0.19995233E-02 0.12500021E+03</pdfrwt>
<pdfrwt beam="2">  1       -4 0.46238985E-01 0.12500021E+03</pdfrwt>
<totfact> 0.73929512E+03</totfact>
</mgrwt>
</event>
<event>
 5    1  0.3179758E-002  0.1249919E+03  0.7818608E-02  0.1235082E+00
         -4   -1    0    0    0  501 -0.00000000000E+00  0.00000000000E+00  0.12639044046E+02  0.12702690046E+02  0.12700000000E+01 0. -1.
          4   -1    0    0  501    0  0.00000000000E+00 -0.00000000000E+00 -0.30818082786E+03  0.30818344466E+03  0.12700000000E+01 0. -1.
         25    2    1    2    0    0  0.00000000000E+00  0.00000000000E+00 -0.29554178382E+03  0.32088613471E+03  0.12499186159E+03 0.  0.
    9000005    1    3    3    0    0  0.33060368252E+02  0.49956651874E+02 -0.19341367173E+03  0.20248087176E+03  0.10000000000E+01 0.  0.
    9000005    1    3    3    0    0 -0.33060368252E+02 -0.49956651874E+02 -0.10212811209E+03  0.11840526295E+03  0.10000000000E+01 0.  0.
<mgrwt>
<rscale>  0 0.12499186E+03</rscale>
<asrwt>0</asrwt>
<pdfrwt beam="2">  1        4 0.47417526E-01 0.12499186E+03</pdfrwt>
<pdfrwt beam="1">  1       -4 0.19495657E-02 0.12499186E+03</pdfrwt>
<totfact> 0.73064037E+03</totfact>
</mgrwt>
</event>
<event>
 5    1  0.3179758E-002  0.1249993E+03  0.7818608E-02  0.1235070E+00
          4   -1    0    0  501    0  0.00000000000E+00  0.00000000000E+00  0.47021279368E+02  0.47038426987E+02  0.12700000000E+01 0. -1.
         -4   -1    0    0    0  501 -0.00000000000E+00 -0.00000000000E+00 -0.83035974393E+02  0.83045685881E+02  0.12700000000E+01 0. -1.
         25    2    1    2    0    0  0.00000000000E+00  0.00000000000E+00 -0.36014695025E+02  0.13008411287E+03  0.12499927265E+03 0.  0.
    9000005    1    3    3    0    0 -0.51381219846E+02 -0.33579237983E+02 -0.57994441300E+01  0.61662213135E+02  0.10000000000E+01 0.  0.
    9000005    1    3    3    0    0  0.51381219846E+02  0.33579237983E+02 -0.30215250895E+02  0.68421899733E+02  0.10000000000E+01 0.  0.
<mgrwt>
<rscale>  0 0.12499927E+03</rscale>
<asrwt>0</asrwt>
<pdfrwt beam="1">  1        4 0.72361091E-02 0.12499927E+03</pdfrwt>
<pdfrwt beam="2">  1       -4 0.12776831E-01 0.12499927E+03</pdfrwt>
<totfact> 0.10342878E+04</totfact>
</mgrwt>
</event>
<event>
 5    1  0.3179758E-002  0.1250047E+03  0.7818608E-02  0.1235062E+00
         -4   -1    0    0    0  501 -0.00000000000E+00  0.00000000000E+00  0.17699673572E+03  0.17700129196E+03  0.12700000000E+01 0. -1.
          4   -1    0    0  501    0  0.00000000000E+00 -0.00000000000E+00 -0.22048171961E+02  0.22084718400E+02  0.12700000000E+01 0. -1.
         25    2    1    2    0    0  0.00000000000E+00  0.00000000000E+00  0.15494856376E+03  0.19908601036E+03  0.12500472835E+03 0.  0.
    9000005    1    3    3    0    0 -0.41831476906E+02  0.44123957602E+02  0.54463734227E+02  0.81633904969E+02  0.10000000000E+01 0.  0.
    9000005    1    3    3    0    0  0.41831476906E+02 -0.44123957602E+02  0.10048482953E+03  0.11745210539E+03  0.10000000000E+01 0.  0.
<mgrwt>
<rscale>  0 0.12500473E+03</rscale>
<asrwt>0</asrwt>
<pdfrwt beam="2">  1        4 0.33951882E-02 0.12500473E+03</pdfrwt>
<pdfrwt beam="1">  1       -4 0.27233429E-01 0.12500473E+03</pdfrwt>
<totfact> 0.90280333E+03</totfact>
</mgrwt>
</event>
<event>
 5    1  0.3179758E-002  0.1250011E+03  0.7818608E-02  0.1235067E+00
         -4   -1    0    0    0  501 -0.00000000000E+00  0.00000000000E+00  0.56542599967E+03  0.56542742594E+03  0.12700000000E+01 0. -1.
          4   -1    0    0  501    0  0.00000000000E+00 -0.00000000000E+00 -0.68488220689E+01  0.69655770566E+01  0.12700000000E+01 0. -1.
         25    2    1    2    0    0  0.00000000000E+00  0.00000000000E+00  0.55857717760E+03  0.57239300299E+03  0.12500114616E+03 0.  0.
    9000005    1    3    3    0    0  0.99105377601E+01  0.61619382468E+02  0.29388047112E+03  0.30043618018E+03  0.10000000000E+01 0.  0.
    9000005    1    3    3    0    0 -0.99105377601E+01 -0.61619382468E+02  0.26469670648E+03  0.27195682282E+03  0.10000000000E+01 0.  0.
<mgrwt>
<rscale>  0 0.12500115E+03</rscale>
<asrwt>0</asrwt>
<pdfrwt beam="2">  1        4 0.10627552E-02 0.12500115E+03</pdfrwt>
<pdfrwt beam="1">  1       -4 0.86997758E-01 0.12500115E+03</pdfrwt>
<totfact> 0.50656642E+03</totfact>
</mgrwt>
</event>
<event>
 5    1  0.3179758E-002  0.1249986E+03  0.7818608E-02  0.1235071E+00
         -4   -1    0    0    0  501 -0.00000000000E+00  0.00000000000E+00  0.22387399184E+02  0.22423392746E+02  0.12700000000E+01 0. -1.
          4   -1    0    0  501    0  0.00000000000E+00 -0.00000000000E+00 -0.17430195268E+03  0.17430657936E+03  0.12700000000E+01 0. -1.
         25    2    1    2    0    0  0.00000000000E+00  0.00000000000E+00 -0.15191455350E+03  0.19672997211E+03  0.12499860144E+03 0.  0.
    9000005    1    3    3    0    0 -0.17704611456E+02 -0.35390338162E+02  0.16331298388E+00  0.39584794722E+02  0.10000000000E+01 0.  0.
    9000005    1    3    3    0    0  0.17704611456E+02  0.35390338162E+02 -0.15207786648E+03  0.15714517739E+03  0.10000000000E+01 0.  0.
<mgrwt>
<rscale>  0 0.12499860E+03</rscale>
<asrwt>0</asrwt>
<pdfrwt beam="2">  1        4 0.26818809E-01 0.12499860E+03</pdfrwt>
<pdfrwt beam="1">  1       -4 0.34473400E-02 0.12499860E+03</pdfrwt>
<totfact> 0.90692168E+03</totfact>
</mgrwt>
</event>
<event>
 5    1  0.3179758E-002  0.1250019E+03  0.7818608E-02  0.1235066E+00
         -4   -1    0    0    0  501 -0.00000000000E+00  0.00000000000E+00  0.13064225523E+02  0.13125810014E+02  0.12700000000E+01 0.  1.
          4   -1    0    0  501    0  0.00000000000E+00 -0.00000000000E+00 -0.29824677459E+03  0.29824947854E+03  0.12700000000E+01 0.  1.
         25    2    1    2    0    0  0.00000000000E+00  0.00000000000E+00 -0.28518254906E+03  0.31137528856E+03  0.12500193612E+03 0.  0.
    9000005    1    3    3    0    0 -0.11804194196E+02 -0.23893586460E+02 -0.17883841184E+01  0.26729025277E+02  0.10000000000E+01 0.  0.
    9000005    1    3    3    0    0  0.11804194196E+02  0.23893586460E+02 -0.28339416494E+03  0.28464626328E+03  0.10000000000E+01 0.  0.
<mgrwt>
<rscale>  0 0.12500194E+03</rscale>
<asrwt>0</asrwt>
<pdfrwt beam="2">  1        4 0.45889059E-01 0.12500194E+03</pdfrwt>
<pdfrwt beam="1">  1       -4 0.20148263E-02 0.12500194E+03</pdfrwt>
<totfact> 0.74190560E+03</totfact>
</mgrwt>
</event>
<event>
 5    1  0.3179758E-002  0.1249997E+03  0.7818608E-02  0.1235070E+00
         -4   -1    0    0    0  501 -0.00000000000E+00  0.00000000000E+00  0.43766000013E+03  0.43766184276E+03  0.12700000000E+01 0. -1.
          4   -1    0    0  501    0  0.00000000000E+00 -0.00000000000E+00 -0.88782113541E+01  0.89685861120E+01  0.12700000000E+01 0. -1.
         25    2    1    2    0    0  0.00000000000E+00  0.00000000000E+00  0.42878178877E+03  0.44663042888E+03  0.12499967046E+03 0.  0.
    9000005    1    3    3    0    0  0.52151606011E+02  0.93849162978E+01  0.96028281121E+02  0.10968271258E+03  0.10000000000E+01 0.  0.
    9000005    1    3    3    0    0 -0.52151606011E+02 -0.93849162978E+01  0.33275350765E+03  0.33694771630E+03  0.10000000000E+01 0.  0.
<mgrwt>
<rscale>  0 0.12499967E+03</rscale>
<asrwt>0</asrwt>
<pdfrwt beam="2">  1        4 0.13729725E-02 0.12499967E+03</pdfrwt>
<pdfrwt beam="1">  1       -4 0.67339391E-01 0.12499967E+03</pdfrwt>
<totfact> 0.60257257E+03</totfact>
</mgrwt>
</event>
<event>
 5    1  0.3179758E-002  0.1249965E+03  0.7818608E-02  0.1235075E+00
          4   -1    0    0  501    0  0.00000000000E+00  0.00000000000E+00  0.26742865813E+03  0.26743167368E+03  0.12700000000E+01 0. -1.
         -4   -1    0    0    0  501 -0.00000000000E+00 -0.00000000000E+00 -0.14575169958E+02  0.14630395733E+02  0.12700000000E+01 0. -1.
         25    2    1    2    0    0  0.00000000000E+00  0.00000000000E+00  0.25285348817E+03  0.28206206942E+03  0.12499649804E+03 0.  0.
    9000005    1    3    3    0    0  0.15784847370E+01  0.25454385696E+02 -0.23082361226E+01  0.25627042733E+02  0.10000000000E+01 0.  0.
    9000005    1    3    3    0    0 -0.15784847370E+01 -0.25454385696E+02  0.25516172429E+03  0.25643502668E+03  0.10000000000E+01 0.  0.
<mgrwt>
<rscale>  0 0.12499650E+03</rscale>
<asrwt>0</asrwt>
<pdfrwt beam="1">  1        4 0.41147346E-01 0.12499650E+03</pdfrwt>
<pdfrwt beam="2">  1       -4 0.22468142E-02 0.12499650E+03</pdfrwt>
<totfact> 0.77911548E+03</totfact>
</mgrwt>
</event>
<event>
 5    1  0.3179758E-002  0.1249954E+03  0.7818608E-02  0.1235077E+00
          4   -1    0    0  501    0  0.00000000000E+00  0.00000000000E+00  0.49045158131E+03  0.49045322561E+03  0.12700000000E+01 0.  1.
         -4   -1    0    0    0  501 -0.00000000000E+00 -0.00000000000E+00 -0.79117095794E+01  0.80129924791E+01  0.12700000000E+01 0.  1.
         25    2    1    2    0    0  0.00000000000E+00  0.00000000000E+00  0.48253987173E+03  0.49846621809E+03  0.12499537097E+03 0.  0.
    9000005    1    3    3    0    0 -0.21059512947E+01 -0.12138187289E+02  0.48558040645E+03  0.48573768821E+03  0.10000000000E+01 0.  0.
    9000005    1    3    3    0    0  0.21059512947E+01  0.12138187289E+02 -0.30405347156E+01  0.12728529879E+02  0.10000000000E+01 0.  0.
<mgrwt>
<rscale>  0 0.12499537E+03</rscale>
<asrwt>0</asrwt>
<pdfrwt beam="1">  1        4 0.75461988E-01 0.12499537E+03</pdfrwt>
<pdfrwt beam="2">  1       -4 0.12251039E-02 0.12499537E+03</pdfrwt>
<totfact> 0.55989272E+03</totfact>
</mgrwt>
</event>
<event>
 5    1  0.3179758E-002  0.1249990E+03  0.7818608E-02  0.1235071E+00
         -4   -1    0    0    0  501 -0.00000000000E+00  0.00000000000E+00  0.22292952422E+03  0.22293314171E+03  0.12700000000E+01 0.  1.
          4   -1    0    0  501    0  0.00000000000E+00 -0.00000000000E+00 -0.17495290862E+02  0.17541325558E+02  0.12700000000E+01 0.  1.
         25    2    1    2    0    0  0.00000000000E+00  0.00000000000E+00  0.20543423336E+03  0.24047446726E+03  0.12499898067E+03 0.  0.
    9000005    1    3    3    0    0 -0.30033464317E+02  0.37645291874E+02  0.17933239197E+03  0.18568867437E+03  0.10000000000E+01 0.  0.
    9000005    1    3    3    0    0  0.30033464317E+02 -0.37645291874E+02  0.26101841395E+02  0.54785792897E+02  0.10000000000E+01 0.  0.
<mgrwt>
<rscale>  0 0.12499898E+03</rscale>
<asrwt>0</asrwt>
<pdfrwt beam="2">  1        4 0.26954027E-02 0.12499898E+03</pdfrwt>
<pdfrwt beam="1">  1       -4 0.34300668E-01 0.12499898E+03</pdfrwt>
<totfact> 0.83728658E+03</totfact>
</mgrwt>
</event>
<event>
 5    1  0.3179758E-002  0.1249975E+03  0.7818608E-02  0.1235073E+00
         -4   -1    0    0    0  501 -0.00000000000E+00  0.00000000000E+00  0.44617353745E+03  0.44617534493E+03  0.12700000000E+01 0.  1.
          4   -1    0    0  501    0  0.00000000000E+00 -0.00000000000E+00 -0.87067650450E+01  0.87989009285E+01  0.12700000000E+01 0.  1.
         25    2    1    2    0    0  0.00000000000E+00  0.00000000000E+00  0.43746677241E+03  0.45497424586E+03  0.12499754971E+03 0.  0.
    9000005    1    3    3    0    0 -0.27558500932E+02 -0.50266300109E+02  0.30928669251E+03  0.31455592518E+03  0.10000000000E+01 0.  0.
    9000005    1    3    3    0    0  0.27558500932E+02  0.50266300109E+02  0.12818007990E+03  0.14041832068E+03  0.10000000000E+01 0.  0.
<mgrwt>
<rscale>  0 0.12499755E+03</rscale>
<asrwt>0</asrwt>
<pdfrwt beam="2">  1        4 0.13467285E-02 0.12499755E+03</pdfrwt>
<pdfrwt beam="1">  1       -4 0.68649319E-01 0.12499755E+03</pdfrwt>
<totfact> 0.59538491E+03</totfact>
</mgrwt>
</event>
<event>
 5    1  0.3179758E-002  0.1249975E+03  0.7818608E-02  0.1235073E+00
         -4   -1    0    0    0  501 -0.00000000000E+00  0.00000000000E+00  0.17077483661E+04  0.17077488383E+04  0.12700000000E+01 0.  1.
          4   -1    0    0  501    0  0.00000000000E+00 -0.00000000000E+00 -0.21104789043E+01  0.24631323971E+01  0.12700000000E+01 0.  1.
         25    2    1    2    0    0  0.00000000000E+00  0.00000000000E+00  0.17056378872E+04  0.17102119707E+04  0.12499753030E+03 0.  0.
    9000005    1    3    3    0    0 -0.23592344951E+02  0.54568081490E+02  0.58934911017E+03  0.59234082074E+03  0.10000000000E+01 0.  0.
    9000005    1    3    3    0    0  0.23592344951E+02 -0.54568081490E+02  0.11162887770E+04  0.11178711500E+04  0.10000000000E+01 0.  0.
<mgrwt>
<rscale>  0 0.12499753E+03</rscale>
<asrwt>0</asrwt>
<pdfrwt beam="2">  1        4 0.35185208E-03 0.12499753E+03</pdfrwt>
<pdfrwt beam="1">  1       -4 0.26275806E+00 0.12499753E+03</pdfrwt>
<totfact> 0.14138971E+03</totfact>
</mgrwt>
</event>
<event>
 5    1  0.3179758E-002  0.1250014E+03  0.7818608E-02  0.1235067E+00
         -4   -1    0    0    0  501 -0.00000000000E+00  0.00000000000E+00  0.22385698041E+02  0.22421694333E+02  0.12700000000E+01 0.  1.
          4   -1    0    0  501    0  0.00000000000E+00 -0.00000000000E+00 -0.17432310283E+03  0.17432772895E+03  0.12700000000E+01 0.  1.
         25    2    1    2    0    0  0.00000000000E+00  0.00000000000E+00 -0.15193740479E+03  0.19674942328E+03  0.12500144234E+03 0.  0.
    9000005    1    3    3    0    0  0.24629091959E+02  0.97138001416E+01 -0.16506735408E+03  0.16718008693E+03  0.10000000000E+01 0.  0.
    9000005    1    3    3    0    0 -0.24629091959E+02 -0.97138001416E+01  0.13129949288E+02  0.29569336351E+02  0.10000000000E+01 0.  0.
<mgrwt>
<rscale>  0 0.12500144E+03</rscale>
<asrwt>0</asrwt>
<pdfrwt beam="2">  1        4 0.26822063E-01 0.12500144E+03</pdfrwt>
<pdfrwt beam="1">  1       -4 0.34470785E-02 0.12500144E+03</pdfrwt>
<totfact> 0.90683091E+03</totfact>
</mgrwt>
</event>
<event>
 5    1  0.3179758E-002  0.1249983E+03  0.7818608E-02  0.1235072E+00
          4   -1    0    0  501    0  0.00000000000E+00  0.00000000000E+00  0.18543910679E+02  0.18587348473E+02  0.12700000000E+01 0. -1.
         -4   -1    0    0    0  501 -0.00000000000E+00 -0.00000000000E+00 -0.21035130008E+03  0.21035513387E+03  0.12700000000E+01 0. -1.
         25    2    1    2    0    0  0.00000000000E+00  0.00000000000E+00 -0.19180738940E+03  0.22894248234E+03  0.12499834236E+03 0.  0.
    9000005    1    3    3    0    0 -0.28777268648E+02 -0.17731840893E+02  0.36407351303E+00  0.33818366635E+02  0.10000000000E+01 0.  0.
    9000005    1    3    3    0    0  0.28777268648E+02  0.17731840893E+02 -0.19217146292E+03  0.19512411571E+03  0.10000000000E+01 0.  0.
<mgrwt>
<rscale>  0 0.12499834E+03</rscale>
<asrwt>0</asrwt>
<pdfrwt beam="1">  1        4 0.28565458E-02 0.12499834E+03</pdfrwt>
<pdfrwt beam="2">  1       -4 0.32365373E-01 0.12499834E+03</pdfrwt>
<totfact> 0.85475407E+03</totfact>
</mgrwt>
</event>
<event>
 5    1  0.3179758E-002  0.1249952E+03  0.7818608E-02  0.1235077E+00
          4   -1    0    0  501    0  0.00000000000E+00  0.00000000000E+00  0.66065544255E+03  0.66065666323E+03  0.12700000000E+01 0. -1.
         -4   -1    0    0    0  501 -0.00000000000E+00 -0.00000000000E+00 -0.58427962377E+01  0.59792280333E+01  0.12700000000E+01 0. -1.
         25    2    1    2    0    0  0.00000000000E+00  0.00000000000E+00  0.65481264632E+03  0.66663589127E+03  0.12499523891E+03 0.  0.
    9000005    1    3    3    0    0  0.22262840858E+02 -0.47008114546E+02  0.51212269861E+03  0.51475824942E+03  0.10000000000E+01 0.  0.
    9000005    1    3    3    0    0 -0.22262840858E+02  0.47008114546E+02  0.14268994771E+03  0.15187764184E+03  0.10000000000E+01 0.  0.
<mgrwt>
<rscale>  0 0.12499524E+03</rscale>
<asrwt>0</asrwt>
<pdfrwt beam="1">  1        4 0.10164989E+00 0.12499524E+03</pdfrwt>
<pdfrwt beam="2">  1       -4 0.90948040E-03 0.12499524E+03</pdfrwt>
<totfact> 0.44912059E+03</totfact>
</mgrwt>
</event>
<event>
 5    1  0.3179758E-002  0.1249896E+03  0.7818608E-02  0.1235086E+00
         -4   -1    0    0    0  501 -0.00000000000E+00  0.00000000000E+00  0.22181322743E+03  0.22181686311E+03  0.12700000000E+01 0. -1.
          4   -1    0    0  501    0  0.00000000000E+00 -0.00000000000E+00 -0.17580920142E+02  0.17626731207E+02  0.12700000000E+01 0. -1.
         25    2    1    2    0    0  0.00000000000E+00  0.00000000000E+00  0.20423230729E+03  0.23944359432E+03  0.12498959766E+03 0.  0.
    9000005    1    3    3    0    0 -0.42679325654E+02 -0.33141741075E+02  0.16223094319E+03  0.17099642911E+03  0.10000000000E+01 0.  0.
    9000005    1    3    3    0    0  0.42679325654E+02  0.33141741075E+02  0.42001364096E+02  0.68447165213E+02  0.10000000000E+01 0.  0.
<mgrwt>
<rscale>  0 0.12498960E+03</rscale>
<asrwt>0</asrwt>
<pdfrwt beam="2">  1        4 0.27085604E-02 0.12498960E+03</pdfrwt>
<pdfrwt beam="1">  1       -4 0.34128917E-01 0.12498960E+03</pdfrwt>
<totfact> 0.83899758E+03</totfact>
</mgrwt>
</event>
<event>
 5    1  0.3179758E-002  0.1249991E+03  0.7818608E-02  0.1235071E+00
         -4   -1    0    0    0  501 -0.00000000000E+00  0.00000000000E+00  0.46046843313E+02  0.46064353670E+02  0.12700000000E+01 0.  1.
          4   -1    0    0  501    0  0.00000000000E+00 -0.00000000000E+00 -0.84792526485E+02  0.84802036813E+02  0.12700000000E+01 0.  1.
         25    2    1    2    0    0  0.00000000000E+00  0.00000000000E+00 -0.38745683172E+02  0.13086639048E+03  0.12499913677E+03 0.  0.
    9000005    1    3    3    0    0 -0.45451632070E+02  0.36804111980E+02 -0.42424572950E+02  0.72258133843E+02  0.10000000000E+01 0.  0.
    9000005    1    3    3    0    0  0.45451632070E+02 -0.36804111980E+02  0.36788897776E+01  0.58608256641E+02  0.10000000000E+01 0.  0.
<mgrwt>
<rscale>  0 0.12499914E+03</rscale>
<asrwt>0</asrwt>
<pdfrwt beam="2">  1        4 0.13047083E-01 0.12499914E+03</pdfrwt>
<pdfrwt beam="1">  1       -4 0.70862083E-02 0.12499914E+03</pdfrwt>
<totfact> 0.10326156E+04</totfact>
</mgrwt>
</event>
<event>
 5    1  0.3179758E-002  0.1249980E+03  0.7818608E-02  0.1235072E+00
         -4   -1    0    0    0  501 -0.00000000000E+00  0.00000000000E+00  0.45691101203E+02  0.45708747841E+02  0.12700000000E+01 0.  1.
          4   -1    0    0  501    0  0.00000000000E+00 -0.00000000000E+00 -0.85450938292E+02  0.85460375350E+02  0.12700000000E+01 0.  1.
         25    2    1    2    0    0  0.00000000000E+00  0.00000000000E+00 -0.39759837088E+02  0.13116912319E+03  0.12499797692E+03 0.  0.
    9000005    1    3    3    0    0  0.17933346464E+02  0.31900076069E+02  0.33275655859E+02  0.49472103669E+02  0.10000000000E+01 0.  0.
    9000005    1    3    3    0    0 -0.17933346464E+02 -0.31900076069E+02 -0.73035492947E+02  0.81697019521E+02  0.10000000000E+01 0.  0.
<mgrwt>
<rscale>  0 0.12499798E+03</rscale>
<asrwt>0</asrwt>
<pdfrwt beam="2">  1        4 0.13148381E-01 0.12499798E+03</pdfrwt>
<pdfrwt beam="1">  1       -4 0.70314836E-02 0.12499798E+03</pdfrwt>
<totfact> 0.10319936E+04</totfact>
</mgrwt>
</event>
<event>
 5    1  0.3179758E-002  0.1249977E+03  0.7818608E-02  0.1235073E+00
         -4   -1    0    0    0  501 -0.00000000000E+00  0.00000000000E+00  0.22986051257E+03  0.22986402098E+03  0.12700000000E+01 0. -1.
          4   -1    0    0  501    0  0.00000000000E+00 -0.00000000000E+00 -0.16965995738E+02  0.17013462651E+02  0.12700000000E+01 0. -1.
         25    2    1    2    0    0  0.00000000000E+00  0.00000000000E+00  0.21289451683E+03  0.24687748363E+03  0.12499766648E+03 0.  0.
    9000005    1    3    3    0    0  0.25668485948E+02 -0.20718560924E+02  0.21127374084E+03  0.21383573954E+03  0.10000000000E+01 0.  0.
    9000005    1    3    3    0    0 -0.25668485948E+02  0.20718560924E+02  0.16207759987E+01  0.33041744089E+02  0.10000000000E+01 0.  0.
<mgrwt>
<rscale>  0 0.12499767E+03</rscale>
<asrwt>0</asrwt>
<pdfrwt beam="2">  1        4 0.26140744E-02 0.12499767E+03</pdfrwt>
<pdfrwt beam="1">  1       -4 0.35367077E-01 0.12499767E+03</pdfrwt>
<totfact> 0.82787937E+03</totfact>
</mgrwt>
</event>
<event>
 5    1  0.3179758E-002  0.1249974E+03  0.7818608E-02  0.1235073E+00
         -4   -1    0    0    0  501 -0.00000000000E+00  0.00000000000E+00  0.15464447405E+03  0.15464968883E+03  0.12700000000E+01 0. -1.
          4   -1    0    0  501    0  0.00000000000E+00 -0.00000000000E+00 -0.25236898576E+02  0.25268833565E+02  0.12700000000E+01 0. -1.
         25    2    1    2    0    0  0.00000000000E+00  0.00000000000E+00  0.12940757548E+03  0.17991852240E+03  0.12499741641E+03 0.  0.
    9000005    1    3    3    0    0 -0.29997528100E+02 -0.32163521356E+02  0.80538151081E+00  0.43999914062E+02  0.10000000000E+01 0.  0.
    9000005    1    3    3    0    0  0.29997528100E+02  0.32163521356E+02  0.12860219397E+03  0.13591860833E+03  0.10000000000E+01 0.  0.
<mgrwt>
<rscale>  0 0.12499742E+03</rscale>
<asrwt>0</asrwt>
<pdfrwt beam="2">  1        4 0.38854575E-02 0.12499742E+03</pdfrwt>
<pdfrwt beam="1">  1       -4 0.23794315E-01 0.12499742E+03</pdfrwt>
<totfact> 0.93637095E+03</totfact>
</mgrwt>
</event>
<event>
 5    1  0.3179758E-002  0.1250011E+03  0.7818608E-02  0.1235068E+00
         -4   -1    0    0    0  501 -0.00000000000E+00  0.00000000000E+00  0.78104917527E+02  0.78115242059E+02  0.12700000000E+01 0.  1.
          4   -1    0    0  501    0  0.00000000000E+00 -0.00000000000E+00 -0.49992059387E+02  0.50008188347E+02  0.12700000000E+01 0.  1.
         25    2    1    2    0    0  0.00000000000E+00  0.00000000000E+00  0.28112858140E+02  0.12812343041E+03  0.12500112250E+03 0.  0.
    9000005    1    3    3    0    0  0.23992022530E+02 -0.57560949092E+02  0.99005055429E+01  0.63149821975E+02  0.10000000000E+01 0.  0.
    9000005    1    3    3    0    0 -0.23992022530E+02  0.57560949092E+02  0.18212352597E+02  0.64973608431E+02  0.10000000000E+01 0.  0.
<mgrwt>
<rscale>  0 0.12500112E+03</rscale>
<asrwt>0</asrwt>
<pdfrwt beam="2">  1        4 0.76931210E-02 0.12500112E+03</pdfrwt>
<pdfrwt beam="1">  1       -4 0.12018176E-01 0.12500112E+03</pdfrwt>
<totfact> 0.10384560E+04</totfact>
</mgrwt>
</event>
<event>
 5    1  0.3179758E-002  0.1250003E+03  0.7818608E-02  0.1235069E+00
         -4   -1    0    0    0  501 -0.00000000000E+00  0.00000000000E+00  0.42337984810E+02  0.42357028435E+02  0.12700000000E+01 0. -1.
          4   -1    0    0  501    0  0.00000000000E+00 -0.00000000000E+00 -0.92219822666E+02  0.92228567117E+02  0.12700000000E+01 0. -1.
         25    2    1    2    0    0  0.00000000000E+00  0.00000000000E+00 -0.49881837855E+02  0.13458559555E+03  0.12500033913E+03 0.  0.
    9000005    1    3    3    0    0  0.14218652869E+02 -0.40675528724E+02 -0.73673143320E+02  0.85354559182E+02  0.10000000000E+01 0.  0.
    9000005    1    3    3    0    0 -0.14218652869E+02  0.40675528724E+02  0.23791305465E+02  0.49231036371E+02  0.10000000000E+01 0.  0.
<mgrwt>
<rscale>  0 0.12500034E+03</rscale>
<asrwt>0</asrwt>
<pdfrwt beam="2">  1        4 0.14189803E-01 0.12500034E+03</pdfrwt>
<pdfrwt beam="1">  1       -4 0.65156737E-02 0.12500034E+03</pdfrwt>
<totfact> 0.10246734E+04</totfact>
</mgrwt>
</event>
<event>
 5    1  0.3179758E-002  0.1250076E+03  0.7818608E-02  0.1235057E+00
         -4   -1    0    0    0  501 -0.00000000000E+00  0.00000000000E+00  0.10695362983E+02  0.10770500886E+02  0.12700000000E+01 0.  1.
          4   -1    0    0  501    0  0.00000000000E+00 -0.00000000000E+00 -0.36391779182E+03  0.36392000784E+03  0.12700000000E+01 0.  1.
         25    2    1    2    0    0  0.00000000000E+00  0.00000000000E+00 -0.35322242884E+03  0.37469050872E+03  0.12500757214E+03 0.  0.
    9000005    1    3    3    0    0 -0.18256436115E+02  0.56028317114E+02 -0.23900012597E+03  0.24615956206E+03  0.10000000000E+01 0.  0.
    9000005    1    3    3    0    0  0.18256436115E+02 -0.56028317114E+02 -0.11422230287E+03  0.12853094667E+03  0.10000000000E+01 0.  0.
<mgrwt>
<rscale>  0 0.12500757E+03</rscale>
<asrwt>0</asrwt>
<pdfrwt beam="2">  1        4 0.55993293E-01 0.12500757E+03</pdfrwt>
<pdfrwt beam="1">  1       -4 0.16513910E-02 0.12500757E+03</pdfrwt>
<totfact> 0.67079837E+03</totfact>
</mgrwt>
</event>
<event>
 5    1  0.3179758E-002  0.1250040E+03  0.7818608E-02  0.1235063E+00
          4   -1    0    0  501    0  0.00000000000E+00  0.00000000000E+00  0.92509408357E+02  0.92518125438E+02  0.12700000000E+01 0. -1.
         -4   -1    0    0    0  501 -0.00000000000E+00 -0.00000000000E+00 -0.42207907858E+02  0.42227010145E+02  0.12700000000E+01 0. -1.
         25    2    1    2    0    0  0.00000000000E+00  0.00000000000E+00  0.50301500498E+02  0.13474513558E+03  0.12500404238E+03 0.  0.
    9000005    1    3    3    0    0  0.59621829164E+02  0.15103555456E+01  0.45272459069E+02  0.74884172139E+02  0.10000000000E+01 0.  0.
    9000005    1    3    3    0    0 -0.59621829164E+02 -0.15103555456E+01  0.50290414289E+01  0.59860963444E+02  0.10000000000E+01 0.  0.
<mgrwt>
<rscale>  0 0.12500404E+03</rscale>
<asrwt>0</asrwt>
<pdfrwt beam="1">  1        4 0.14234356E-01 0.12500404E+03</pdfrwt>
<pdfrwt beam="2">  1       -4 0.64956643E-02 0.12500404E+03</pdfrwt>
<totfact> 0.10242512E+04</totfact>
</mgrwt>
</event>
<event>
 5    1  0.3179758E-002  0.1250026E+03  0.7818608E-02  0.1235065E+00
         -4   -1    0    0    0  501 -0.00000000000E+00  0.00000000000E+00  0.42587134452E+03  0.42587323816E+03  0.12700000000E+01 0. -1.
          4   -1    0    0  501    0  0.00000000000E+00 -0.00000000000E+00 -0.91268735149E+01  0.92148098275E+01  0.12700000000E+01 0. -1.
         25    2    1    2    0    0  0.00000000000E+00  0.00000000000E+00  0.41674447100E+03  0.43508804799E+03  0.12500262153E+03 0.  0.
    9000005    1    3    3    0    0  0.13687716436E+02 -0.21829538153E+02  0.40654006715E+03  0.40735697922E+03  0.10000000000E+01 0.  0.
    9000005    1    3    3    0    0 -0.13687716436E+02  0.21829538153E+02  0.10204403850E+02  0.27731068770E+02  0.10000000000E+01 0.  0.
<mgrwt>
<rscale>  0 0.12500262E+03</rscale>
<asrwt>0</asrwt>
<pdfrwt beam="2">  1        4 0.14110449E-02 0.12500262E+03</pdfrwt>
<pdfrwt beam="1">  1       -4 0.65525555E-01 0.12500262E+03</pdfrwt>
<totfact> 0.61273954E+03</totfact>
</mgrwt>
</event>
<event>
 5    1  0.3179758E-002  0.1249990E+03  0.7818608E-02  0.1235071E+00
         -4   -1    0    0    0  501 -0.00000000000E+00  0.00000000000E+00  0.20767435653E+03  0.20767823974E+03  0.12700000000E+01 0. -1.
          4   -1    0    0  501    0  0.00000000000E+00 -0.00000000000E+00 -0.18783701985E+02  0.18826586527E+02  0.12700000000E+01 0. -1.
         25    2    1    2    0    0  0.00000000000E+00  0.00000000000E+00  0.18889065454E+03  0.22650482626E+03  0.12499902778E+03 0.  0.
    9000005    1    3    3    0    0  0.40451710859E+02 -0.47608630893E+02  0.97173408344E+02  0.11552745966E+03  0.10000000000E+01 0.  0.
    9000005    1    3    3    0    0 -0.40451710859E+02  0.47608630893E+02  0.91717246200E+02  0.11097736660E+03  0.10000000000E+01 0.  0.
<mgrwt>
<rscale>  0 0.12499903E+03</rscale>
<asrwt>0</asrwt>
<pdfrwt beam="2">  1        4 0.28933979E-02 0.12499903E+03</pdfrwt>
<pdfrwt beam="1">  1       -4 0.31953498E-01 0.12499903E+03</pdfrwt>
<totfact> 0.85851052E+03</totfact>
</mgrwt>
</event>
<event>
 5    1  0.3179758E-002  0.1249986E+03  0.7818608E-02  0.1235072E+00
          4   -1    0    0  501    0  0.00000000000E+00  0.00000000000E+00  0.11462303481E+02  0.11532445581E+02  0.12700000000E+01 0.  1.
         -4   -1    0    0    0  501 -0.00000000000E+00 -0.00000000000E+00 -0.33967234947E+03  0.33967472367E+03  0.12700000000E+01 0.  1.
         25    2    1    2    0    0  0.00000000000E+00  0.00000000000E+00 -0.32821004599E+03  0.35120716925E+03  0.12499856575E+03 0.  0.
    9000005    1    3    3    0    0  0.12085249901E+02 -0.20446124358E+02 -0.16995423025E+01  0.23832450787E+02  0.10000000000E+01 0.  0.
    9000005    1    3    3    0    0 -0.12085249901E+02  0.20446124358E+02 -0.32651050369E+03  0.32737471846E+03  0.10000000000E+01 0.  0.
<mgrwt>
<rscale>  0 0.12499857E+03</rscale>
<asrwt>0</asrwt>
<pdfrwt beam="1">  1        4 0.17690097E-02 0.12499857E+03</pdfrwt>
<pdfrwt beam="2">  1       -4 0.52262855E-01 0.12499857E+03</pdfrwt>
<totfact> 0.69594169E+03</totfact>
</mgrwt>
</event>
<event>
 5    1  0.3179758E-002  0.1250020E+03  0.7818608E-02  0.1235066E+00
          4   -1    0    0  501    0  0.00000000000E+00  0.00000000000E+00  0.78060748632E+02  0.78071079005E+02  0.12700000000E+01 0. -1.
         -4   -1    0    0    0  501 -0.00000000000E+00 -0.00000000000E+00 -0.50021044422E+02  0.50037164039E+02  0.12700000000E+01 0. -1.
         25    2    1    2    0    0  0.00000000000E+00  0.00000000000E+00  0.28039704210E+02  0.12810824304E+03  0.12500198768E+03 0.  0.
    9000005    1    3    3    0    0 -0.21480947988E+02  0.49134934709E+02 -0.18866506317E+02  0.56856116610E+02  0.10000000000E+01 0.  0.
    9000005    1    3    3    0    0  0.21480947988E+02 -0.49134934709E+02  0.46906210527E+02  0.71252126434E+02  0.10000000000E+01 0.  0.
<mgrwt>
<rscale>  0 0.12500199E+03</rscale>
<asrwt>0</asrwt>
<pdfrwt beam="1">  1        4 0.12011381E-01 0.12500199E+03</pdfrwt>
<pdfrwt beam="2">  1       -4 0.76975799E-02 0.12500199E+03</pdfrwt>
<totfact> 0.10384685E+04</totfact>
</mgrwt>
</event>
<event>
 5    1  0.3179758E-002  0.1249929E+03  0.7818608E-02  0.1235080E+00
         -4   -1    0    0    0  501 -0.00000000000E+00  0.00000000000E+00  0.31558096461E+03  0.31558352004E+03  0.12700000000E+01 0.  1.
          4   -1    0    0  501    0  0.00000000000E+00 -0.00000000000E+00 -0.12341359283E+02  0.12406532511E+02  0.12700000000E+01 0.  1.
         25    2    1    2    0    0  0.00000000000E+00  0.00000000000E+00  0.30323960532E+03  0.32799005255E+03  0.12499286514E+03 0.  0.
    9000005    1    3    3    0    0 -0.35177823651E+02 -0.31094323852E+02  0.25982787476E+03  0.26403761239E+03  0.10000000000E+01 0.  0.
    9000005    1    3    3    0    0  0.35177823651E+02  0.31094323852E+02  0.43411730562E+02  0.63952440165E+02  0.10000000000E+01 0.  0.
<mgrwt>
<rscale>  0 0.12499287E+03</rscale>
<asrwt>0</asrwt>
<pdfrwt beam="2">  1        4 0.19038803E-02 0.12499287E+03</pdfrwt>
<pdfrwt beam="1">  1       -4 0.48556135E-01 0.12499287E+03</pdfrwt>
<totfact> 0.72227196E+03</totfact>
</mgrwt>
</event>
<event>
 5    1  0.3179758E-002  0.1250008E+03  0.7818608E-02  0.1235068E+00
          4   -1    0    0  501    0  0.00000000000E+00  0.00000000000E+00  0.69433630442E+02  0.69445244160E+02  0.12700000000E+01 0.  1.
         -4   -1    0    0    0  501 -0.00000000000E+00 -0.00000000000E+00 -0.56235992274E+02  0.56250330906E+02  0.12700000000E+01 0.  1.
         25    2    1    2    0    0  0.00000000000E+00  0.00000000000E+00  0.13197638169E+02  0.12569557507E+03  0.12500079975E+03 0.  0.
    9000005    1    3    3    0    0  0.13197720150E+02  0.44184125763E+02  0.49010053598E+02  0.67300833132E+02  0.10000000000E+01 0.  0.
    9000005    1    3    3    0    0 -0.13197720150E+02 -0.44184125763E+02 -0.35812415430E+02  0.58394741933E+02  0.10000000000E+01 0.  0.
<mgrwt>
<rscale>  0 0.12500080E+03</rscale>
<asrwt>0</asrwt>
<pdfrwt beam="1">  1        4 0.10684093E-01 0.12500080E+03</pdfrwt>
<pdfrwt beam="2">  1       -4 0.86536875E-02 0.12500080E+03</pdfrwt>
<totfact> 0.10437453E+04</totfact>
</mgrwt>
</event>
<event>
 5    1  0.3179758E-002  0.1250381E+03  0.7818608E-02  0.1235010E+00
          4   -1    0    0  501    0  0.00000000000E+00  0.00000000000E+00  0.21546645986E+03  0.21547020264E+03  0.12700000000E+01 0. -1.
         -4   -1    0    0    0  501 -0.00000000000E+00 -0.00000000000E+00 -0.18114186118E+02  0.18158651897E+02  0.12700000000E+01 0. -1.
         25    2    1    2    0    0  0.00000000000E+00  0.00000000000E+00  0.19735227375E+03  0.23362885454E+03  0.12503808108E+03 0.  0.
    9000005    1    3    3    0    0  0.79679161408E+01 -0.61957762056E+02  0.10300938231E+03  0.12047483061E+03  0.10000000000E+01 0.  0.
    9000005    1    3    3    0    0 -0.79679161408E+01  0.61957762056E+02  0.94342891438E+02  0.11315402393E+03  0.10000000000E+01 0.  0.
<mgrwt>
<rscale>  0 0.12503808E+03</rscale>
<asrwt>0</asrwt>
<pdfrwt beam="1">  1        4 0.33152392E-01 0.12503808E+03</pdfrwt>
<pdfrwt beam="2">  1       -4 0.27905064E-02 0.12503808E+03</pdfrwt>
<totfact> 0.84683530E+03</totfact>
</mgrwt>
</event>
<event>
 5    1  0.3179758E-002  0.1250019E+03  0.7818608E-02  0.1235066E+00
          4   -1    0    0  501    0  0.00000000000E+00  0.00000000000E+00  0.77001873349E+03  0.77001978080E+03  0.12700000000E+01 0.  1.
         -4   -1    0    0    0  501 -0.00000000000E+00 -0.00000000000E+00 -0.49925337160E+01  0.51515330636E+01  0.12700000000E+01 0.  1.
         25    2    1    2    0    0  0.00000000000E+00  0.00000000000E+00  0.76502619978E+03  0.77517131387E+03  0.12500191798E+03 0.  0.
    9000005    1    3    3    0    0  0.32044278757E+02  0.52046645204E+02  0.30173430620E+03  0.30786406191E+03  0.10000000000E+01 0.  0.
    9000005    1    3    3    0    0 -0.32044278757E+02 -0.52046645204E+02  0.46329189358E+03  0.46730725196E+03  0.10000000000E+01 0.  0.
<mgrwt>
<rscale>  0 0.12500192E+03</rscale>
<asrwt>0</asrwt>
<pdfrwt beam="1">  1        4 0.11847674E+00 0.12500192E+03</pdfrwt>
<pdfrwt beam="2">  1       -4 0.78039331E-03 0.12500192E+03</pdfrwt>
<totfact> 0.39395788E+03</totfact>
</mgrwt>
</event>
<event>
 5    1  0.3179758E-002  0.1249990E+03  0.7818608E-02  0.1235071E+00
         -4   -1    0    0    0  501 -0.00000000000E+00  0.00000000000E+00  0.17608621700E+03  0.17609079680E+03  0.12700000000E+01 0.  1.
          4   -1    0    0  501    0  0.00000000000E+00 -0.00000000000E+00 -0.22160347795E+02  0.22196709540E+02  0.12700000000E+01 0.  1.
         25    2    1    2    0    0  0.00000000000E+00  0.00000000000E+00  0.15392586921E+03  0.19828750634E+03  0.12499904784E+03 0.  0.
    9000005    1    3    3    0    0 -0.31969688789E+02  0.20284716291E+02  0.15582769551E+03  0.16036458900E+03  0.10000000000E+01 0.  0.
    9000005    1    3    3    0    0  0.31969688789E+02 -0.20284716291E+02 -0.19018263078E+01  0.37922917340E+02  0.10000000000E+01 0.  0.
<mgrwt>
<rscale>  0 0.12499905E+03</rscale>
<asrwt>0</asrwt>
<pdfrwt beam="2">  1        4 0.34124337E-02 0.12499905E+03</pdfrwt>
<pdfrwt beam="1">  1       -4 0.27093336E-01 0.12499905E+03</pdfrwt>
<totfact> 0.90426903E+03</totfact>
</mgrwt>
</event>
<event>
 5    1  0.3179758E-002  0.1250031E+03  0.7818608E-02  0.1235064E+00
          4   -1    0    0  501    0  0.00000000000E+00  0.00000000000E+00  0.22925432545E+02  0.22960582688E+02  0.12700000000E+01 0.  1.
         -4   -1    0    0    0  501 -0.00000000000E+00 -0.00000000000E+00 -0.17022973625E+03  0.17023447361E+03  0.12700000000E+01 0.  1.
         25    2    1    2    0    0  0.00000000000E+00  0.00000000000E+00 -0.14730430371E+03  0.19319505629E+03  0.12500308751E+03 0.  0.
    9000005    1    3    3    0    0  0.52403969077E+02  0.29399363133E+02 -0.47109434722E+02  0.76359657984E+02  0.10000000000E+01 0.  0.
    9000005    1    3    3    0    0 -0.52403969077E+02 -0.29399363133E+02 -0.10019486898E+03  0.11683539831E+03  0.10000000000E+01 0.  0.
<mgrwt>
<rscale>  0 0.12500309E+03</rscale>
<asrwt>0</asrwt>
<pdfrwt beam="1">  1        4 0.35300580E-02 0.12500309E+03</pdfrwt>
<pdfrwt beam="2">  1       -4 0.26192258E-01 0.12500309E+03</pdfrwt>
<totfact> 0.91288027E+03</totfact>
</mgrwt>
</event>
<event>
 5    1  0.3179758E-002  0.1250028E+03  0.7818608E-02  0.1235065E+00
         -4   -1    0    0    0  501 -0.00000000000E+00  0.00000000000E+00  0.14957607090E+03  0.14958146238E+03  0.12700000000E+01 0.  1.
          4   -1    0    0  501    0  0.00000000000E+00 -0.00000000000E+00 -0.26095319817E+02  0.26126205549E+02  0.12700000000E+01 0.  1.
         25    2    1    2    0    0  0.00000000000E+00  0.00000000000E+00  0.12348075109E+03  0.17570766793E+03  0.12500275469E+03 0.  0.
    9000005    1    3    3    0    0 -0.20427952508E+02  0.58507592169E+02  0.50409339479E+02  0.79890807305E+02  0.10000000000E+01 0.  0.
    9000005    1    3    3    0    0  0.20427952508E+02 -0.58507592169E+02  0.73071411608E+02  0.95816860622E+02  0.10000000000E+01 0.  0.
<mgrwt>
<rscale>  0 0.12500275E+03</rscale>
<asrwt>0</asrwt>
<pdfrwt beam="2">  1        4 0.40174552E-02 0.12500275E+03</pdfrwt>
<pdfrwt beam="1">  1       -4 0.23014493E-01 0.12500275E+03</pdfrwt>
<totfact> 0.94389560E+03</totfact>
</mgrwt>
</event>
<event>
 5    1  0.3179758E-002  0.1249994E+03  0.7818608E-02  0.1235070E+00
         -4   -1    0    0    0  501 -0.00000000000E+00  0.00000000000E+00  0.40401366379E+02  0.40421322409E+02  0.12700000000E+01 0.  1.
          4   -1    0    0  501    0  0.00000000000E+00 -0.00000000000E+00 -0.96637208405E+02  0.96645553174E+02  0.12700000000E+01 0.  1.
         25    2    1    2    0    0  0.00000000000E+00  0.00000000000E+00 -0.56235842026E+02  0.13706687558E+03  0.12499943381E+03 0.  0.
    9000005    1    3    3    0    0 -0.30866380668E+02  0.30567011057E+02 -0.77378555817E+02  0.88744106964E+02  0.10000000000E+01 0.  0.
    9000005    1    3    3    0    0  0.30866380668E+02 -0.30567011057E+02  0.21142713791E+02  0.48322768619E+02  0.10000000000E+01 0.  0.
<mgrwt>
<rscale>  0 0.12499943E+03</rscale>
<asrwt>0</asrwt>
<pdfrwt beam="2">  1        4 0.14869440E-01 0.12499943E+03</pdfrwt>
<pdfrwt beam="1">  1       -4 0.62177718E-02 0.12499943E+03</pdfrwt>
<totfact> 0.10194818E+04</totfact>
</mgrwt>
</event>
<event>
 5    1  0.3179758E-002  0.1250016E+03  0.7818608E-02  0.1235067E+00
         -4   -1    0    0    0  501 -0.00000000000E+00  0.00000000000E+00  0.24706407419E+03  0.24706733830E+03  0.12700000000E+01 0.  1.
          4   -1    0    0  501    0  0.00000000000E+00 -0.00000000000E+00 -0.15782196630E+02  0.15833212891E+02  0.12700000000E+01 0.  1.
         25    2    1    2    0    0  0.00000000000E+00  0.00000000000E+00  0.23128187756E+03  0.26290055119E+03  0.12500157171E+03 0.  0.
    9000005    1    3    3    0    0 -0.61117267848E+02 -0.57774120934E+00  0.14303833495E+03  0.15555262608E+03  0.10000000000E+01 0.  0.
    9000005    1    3    3    0    0  0.61117267848E+02  0.57774120934E+00  0.88243542608E+02  0.10734792511E+03  0.10000000000E+01 0.  0.
<mgrwt>
<rscale>  0 0.12500157E+03</rscale>
<asrwt>0</asrwt>
<pdfrwt beam="2">  1        4 0.24322058E-02 0.12500157E+03</pdfrwt>
<pdfrwt beam="1">  1       -4 0.38014031E-01 0.12500157E+03</pdfrwt>
<totfact> 0.80497910E+03</totfact>
</mgrwt>
</event>
<event>
 5    1  0.3179758E-002  0.1249993E+03  0.7818608E-02  0.1235070E+00
         -4   -1    0    0    0  501 -0.00000000000E+00  0.00000000000E+00  0.32216130047E+02  0.32241152820E+02  0.12700000000E+01 0. -1.
          4   -1    0    0  501    0  0.00000000000E+00 -0.00000000000E+00 -0.12117450152E+03  0.12118115662E+03  0.12700000000E+01 0. -1.
         25    2    1    2    0    0  0.00000000000E+00  0.00000000000E+00 -0.88958371477E+02  0.15342230944E+03  0.12499925271E+03 0.  0.
    9000005    1    3    3    0    0 -0.44717782289E+02 -0.25923029143E+02 -0.87586817266E+02  0.10170611610E+03  0.10000000000E+01 0.  0.
    9000005    1    3    3    0    0  0.44717782289E+02  0.25923029143E+02 -0.13715542107E+01  0.51716193342E+02  0.10000000000E+01 0.  0.
<mgrwt>
<rscale>  0 0.12499925E+03</rscale>
<asrwt>0</asrwt>
<pdfrwt beam="2">  1        4 0.18644668E-01 0.12499925E+03</pdfrwt>
<pdfrwt beam="1">  1       -4 0.49587645E-02 0.12499925E+03</pdfrwt>
<totfact> 0.98627493E+03</totfact>
</mgrwt>
</event>
<event>
 5    1  0.3179758E-002  0.1249992E+03  0.7818608E-02  0.1235071E+00
          4   -1    0    0  501    0  0.00000000000E+00  0.00000000000E+00  0.59086233539E+01  0.60435693045E+01  0.12700000000E+01 0.  1.
         -4   -1    0    0    0  501 -0.00000000000E+00 -0.00000000000E+00 -0.65350151776E+03  0.65350275181E+03  0.12700000000E+01 0.  1.
         25    2    1    2    0    0  0.00000000000E+00  0.00000000000E+00 -0.64759289441E+03  0.65954632111E+03  0.12499917120E+03 0.  0.
    9000005    1    3    3    0    0  0.28624345964E+02 -0.31895798050E+02 -0.83821306347E+02  0.94147259721E+02  0.10000000000E+01 0.  0.
    9000005    1    3    3    0    0 -0.28624345964E+02  0.31895798050E+02 -0.56377158806E+03  0.56539906139E+03  0.10000000000E+01 0.  0.
<mgrwt>
<rscale>  0 0.12499917E+03</rscale>
<asrwt>0</asrwt>
<pdfrwt beam="1">  1        4 0.91949488E-03 0.12499917E+03</pdfrwt>
<pdfrwt beam="2">  1       -4 0.10054911E+00 0.12499917E+03</pdfrwt>
<totfact> 0.45310610E+03</totfact>
</mgrwt>
</event>
<event>
 5    1  0.3179758E-002  0.1249480E+03  0.7818608E-02  0.1235151E+00
         -4   -1    0    0    0  501 -0.00000000000E+00  0.00000000000E+00  0.22929230188E+02  0.22964374518E+02  0.12700000000E+01 0. -1.
          4   -1    0    0  501    0  0.00000000000E+00 -0.00000000000E+00 -0.17005166311E+03  0.17005640543E+03  0.12700000000E+01 0. -1.
         25    2    1    2    0    0  0.00000000000E+00  0.00000000000E+00 -0.14712243292E+03  0.19302077995E+03  0.12494803409E+03 0.  0.
    9000005    1    3    3    0    0 -0.61711619551E+02 -0.93601471819E+01 -0.69756323891E+02  0.93610261540E+02  0.10000000000E+01 0.  0.
    9000005    1    3    3    0    0  0.61711619551E+02  0.93601471819E+01 -0.77366109033E+02  0.99410518406E+02  0.10000000000E+01 0.  0.
<mgrwt>
<rscale>  0 0.12494803E+03</rscale>
<asrwt>0</asrwt>
<pdfrwt beam="2">  1        4 0.26164862E-01 0.12494803E+03</pdfrwt>
<pdfrwt beam="1">  1       -4 0.35306422E-02 0.12494803E+03</pdfrwt>
<totfact> 0.91430704E+03</totfact>
</mgrwt>
</event>
<event>
 5    1  0.3179758E-002  0.1249989E+03  0.7818608E-02  0.1235071E+00
         -4   -1    0    0    0  501 -0.00000000000E+00  0.00000000000E+00  0.23130931525E+03  0.23131280168E+03  0.12700000000E+01 0.  1.
          4   -1    0    0  501    0  0.00000000000E+00 -0.00000000000E+00 -0.16859778681E+02  0.16907543795E+02  0.12700000000E+01 0.  1.
         25    2    1    2    0    0  0.00000000000E+00  0.00000000000E+00  0.21444953657E+03  0.24822034547E+03  0.12499894469E+03 0.  0.
    9000005    1    3    3    0    0  0.22689521030E+02  0.24871912988E+02  0.26784713455E+01  0.33787580988E+02  0.10000000000E+01 0.  0.
    9000005    1    3    3    0    0 -0.22689521030E+02 -0.24871912988E+02  0.21177106522E+03  0.21443276449E+03  0.10000000000E+01 0.  0.
<mgrwt>
<rscale>  0 0.12499894E+03</rscale>
<asrwt>0</asrwt>
<pdfrwt beam="2">  1        4 0.25977545E-02 0.12499894E+03</pdfrwt>
<pdfrwt beam="1">  1       -4 0.35589992E-01 0.12499894E+03</pdfrwt>
<totfact> 0.82590065E+03</totfact>
</mgrwt>
</event>
<event>
 5    1  0.3179758E-002  0.1249994E+03  0.7818608E-02  0.1235070E+00
         -4   -1    0    0    0  501 -0.00000000000E+00  0.00000000000E+00  0.11190948277E+03  0.11191668880E+03  0.12700000000E+01 0. -1.
          4   -1    0    0  501    0  0.00000000000E+00 -0.00000000000E+00 -0.34885230537E+02  0.34908340116E+02  0.12700000000E+01 0. -1.
         25    2    1    2    0    0  0.00000000000E+00  0.00000000000E+00  0.77024252229E+02  0.14682502892E+03  0.12499941474E+03 0.  0.
    9000005    1    3    3    0    0  0.11459634194E+02 -0.59436007528E+02  0.20267840190E+02  0.63841581690E+02  0.10000000000E+01 0.  0.
    9000005    1    3    3    0    0 -0.11459634194E+02  0.59436007528E+02  0.56756412040E+02  0.82983447231E+02  0.10000000000E+01 0.  0.
<mgrwt>
<rscale>  0 0.12499941E+03</rscale>
<asrwt>0</asrwt>
<pdfrwt beam="2">  1        4 0.53692905E-02 0.12499941E+03</pdfrwt>
<pdfrwt beam="1">  1       -4 0.17219175E-01 0.12499941E+03</pdfrwt>
<totfact> 0.99941705E+03</totfact>
</mgrwt>
</event>
<event>
 5    1  0.3179758E-002  0.1249985E+03  0.7818608E-02  0.1235072E+00
          4   -1    0    0  501    0  0.00000000000E+00  0.00000000000E+00  0.35856007529E+01  0.38038707601E+01  0.12700000000E+01 0.  1.
         -4   -1    0    0    0  501 -0.00000000000E+00 -0.00000000000E+00 -0.10570032571E+04  0.10570040201E+04  0.12700000000E+01 0.  1.
         25    2    1    2    0    0  0.00000000000E+00  0.00000000000E+00 -0.10534176564E+04  0.10608078908E+04  0.12499849007E+03 0.  0.
    9000005    1    3    3    0    0  0.41925343143E+02 -0.45735622096E+02 -0.59003140678E+03  0.59328538033E+03  0.10000000000E+01 0.  0.
    9000005    1    3    3    0    0 -0.41925343143E+02  0.45735622096E+02 -0.46338624958E+03  0.46752251050E+03  0.10000000000E+01 0.  0.
<mgrwt>
<rscale>  0 0.12499849E+03</rscale>
<asrwt>0</asrwt>
<pdfrwt beam="1">  1        4 0.56848041E-03 0.12499849E+03</pdfrwt>
<pdfrwt beam="2">  1       -4 0.16263249E+00 0.12499849E+03</pdfrwt>
<totfact> 0.28660682E+03</totfact>
</mgrwt>
</event>
<event>
 5    1  0.3179758E-002  0.1250060E+03  0.7818608E-02  0.1235060E+00
         -4   -1    0    0    0  501 -0.00000000000E+00  0.00000000000E+00  0.21334692385E+03  0.21335070381E+03  0.12700000000E+01 0.  1.
          4   -1    0    0  501    0  0.00000000000E+00 -0.00000000000E+00 -0.18285157797E+02  0.18329208812E+02  0.12700000000E+01 0.  1.
         25    2    1    2    0    0  0.00000000000E+00  0.00000000000E+00  0.19506176605E+03  0.23167991262E+03  0.12500595720E+03 0.  0.
    9000005    1    3    3    0    0  0.11540485394E+02 -0.47273743358E+02  0.17020570502E+03  0.17702816623E+03  0.10000000000E+01 0.  0.
    9000005    1    3    3    0    0 -0.11540485394E+02  0.47273743358E+02  0.24856061028E+02  0.54651746395E+02  0.10000000000E+01 0.  0.
<mgrwt>
<rscale>  0 0.12500596E+03</rscale>
<asrwt>0</asrwt>
<pdfrwt beam="2">  1        4 0.28167803E-02 0.12500596E+03</pdfrwt>
<pdfrwt beam="1">  1       -4 0.32826285E-01 0.12500596E+03</pdfrwt>
<totfact> 0.85041005E+03</totfact>
</mgrwt>
</event>
<event>
 5    1  0.3179758E-002  0.1250041E+03  0.7818608E-02  0.1235063E+00
          4   -1    0    0  501    0  0.00000000000E+00  0.00000000000E+00  0.81989445638E+02  0.81999281071E+02  0.12700000000E+01 0.  1.
         -4   -1    0    0    0  501 -0.00000000000E+00 -0.00000000000E+00 -0.47625261029E+02  0.47642191260E+02  0.12700000000E+01 0.  1.
         25    2    1    2    0    0  0.00000000000E+00  0.00000000000E+00  0.34364184610E+02  0.12964147233E+03  0.12500405659E+03 0.  0.
    9000005    1    3    3    0    0 -0.30191627128E+02 -0.47819823298E+02 -0.10398355856E+02  0.57509961340E+02  0.10000000000E+01 0.  0.
    9000005    1    3    3    0    0  0.30191627128E+02  0.47819823298E+02  0.44762540465E+02  0.72131510990E+02  0.10000000000E+01 0.  0.
<mgrwt>
<rscale>  0 0.12500406E+03</rscale>
<asrwt>0</asrwt>
<pdfrwt beam="1">  1        4 0.12615820E-01 0.12500406E+03</pdfrwt>
<pdfrwt beam="2">  1       -4 0.73290222E-02 0.12500406E+03</pdfrwt>
<totfact> 0.10351235E+04</totfact>
</mgrwt>
</event>
<event>
 5    1  0.3179758E-002  0.1249968E+03  0.7818608E-02  0.1235074E+00
         -4   -1    0    0    0  501 -0.00000000000E+00  0.00000000000E+00  0.11538210282E+02  0.11607893716E+02  0.12700000000E+01 0. -1.
          4   -1    0    0  501    0  0.00000000000E+00 -0.00000000000E+00 -0.33744151802E+03  0.33744390791E+03  0.12700000000E+01 0. -1.
         25    2    1    2    0    0  0.00000000000E+00  0.00000000000E+00 -0.32590330774E+03  0.34905180162E+03  0.12499677684E+03 0.  0.
    9000005    1    3    3    0    0 -0.24156554943E+02 -0.39856633715E+02 -0.27919955164E+03  0.28306444502E+03  0.10000000000E+01 0.  0.
    9000005    1    3    3    0    0  0.24156554943E+02  0.39856633715E+02 -0.46703756096E+02  0.65987356602E+02  0.10000000000E+01 0.  0.
<mgrwt>
<rscale>  0 0.12499678E+03</rscale>
<asrwt>0</asrwt>
<pdfrwt beam="2">  1        4 0.51919616E-01 0.12499678E+03</pdfrwt>
<pdfrwt beam="1">  1       -4 0.17806536E-02 0.12499678E+03</pdfrwt>
<totfact> 0.69833980E+03</totfact>
</mgrwt>
</event>
<event>
 5    1  0.3179758E-002  0.1250005E+03  0.7818608E-02  0.1235069E+00
          4   -1    0    0  501    0  0.00000000000E+00  0.00000000000E+00  0.40674497652E+01  0.42611087281E+01  0.12700000000E+01 0. -1.
         -4   -1    0    0    0  501 -0.00000000000E+00 -0.00000000000E+00 -0.93785055458E+03  0.93785141447E+03  0.12700000000E+01 0. -1.
         25    2    1    2    0    0  0.00000000000E+00  0.00000000000E+00 -0.93378310481E+03  0.94211252320E+03  0.12500047813E+03 0.  0.
    9000005    1    3    3    0    0  0.23528209833E+02 -0.50916572817E+02 -0.67456017003E+03  0.67688883654E+03  0.10000000000E+01 0.  0.
    9000005    1    3    3    0    0 -0.23528209833E+02  0.50916572817E+02 -0.25922293479E+03  0.26522368666E+03  0.10000000000E+01 0.  0.
<mgrwt>
<rscale>  0 0.12500048E+03</rscale>
<asrwt>0</asrwt>
<pdfrwt beam="1">  1        4 0.64072523E-03 0.12500048E+03</pdfrwt>
<pdfrwt beam="2">  1       -4 0.14429950E+00 0.12500048E+03</pdfrwt>
<totfact> 0.32597372E+03</totfact>
</mgrwt>
</event>
<event>
 5    1  0.3179758E-002  0.1250004E+03  0.7818608E-02  0.1235069E+00
         -4   -1    0    0    0  501 -0.00000000000E+00  0.00000000000E+00  0.63905454515E+02  0.63918072693E+02  0.12700000000E+01 0. -1.
          4   -1    0    0  501    0  0.00000000000E+00 -0.00000000000E+00 -0.61100560119E+02  0.61113757427E+02  0.12700000000E+01 0. -1.
         25    2    1    2    0    0  0.00000000000E+00  0.00000000000E+00  0.28048943959E+01  0.12503183012E+03  0.12500036444E+03 0.  0.
    9000005    1    3    3    0    0 -0.32650525032E+02  0.47037757735E+02 -0.23637138941E+02  0.61954190939E+02  0.10000000000E+01 0.  0.
    9000005    1    3    3    0    0  0.32650525032E+02 -0.47037757735E+02  0.26442033337E+02  0.63077639181E+02  0.10000000000E+01 0.  0.
<mgrwt>
<rscale>  0 0.12500036E+03</rscale>
<asrwt>0</asrwt>
<pdfrwt beam="2">  1        4 0.94020720E-02 0.12500036E+03</pdfrwt>
<pdfrwt beam="1">  1       -4 0.98335942E-02 0.12500036E+03</pdfrwt>
<totfact> 0.10452085E+04</totfact>
</mgrwt>
</event>
<event>
 5    1  0.3179758E-002  0.1249980E+03  0.7818608E-02  0.1235072E+00
          4   -1    0    0  501    0  0.00000000000E+00  0.00000000000E+00  0.89216176878E+02  0.89225215700E+02  0.12700000000E+01 0. -1.
         -4   -1    0    0    0  501 -0.00000000000E+00 -0.00000000000E+00 -0.43762242124E+02  0.43780666232E+02  0.12700000000E+01 0. -1.
         25    2    1    2    0    0  0.00000000000E+00  0.00000000000E+00  0.45453934755E+02  0.13300588193E+03  0.12499801776E+03 0.  0.
    9000005    1    3    3    0    0 -0.56491237098E+02 -0.97500418229E+01  0.49196355420E+02  0.75548690068E+02  0.10000000000E+01 0.  0.
    9000005    1    3    3    0    0  0.56491237098E+02  0.97500418229E+01 -0.37424206656E+01  0.57457191864E+02  0.10000000000E+01 0.  0.
<mgrwt>
<rscale>  0 0.12499802E+03</rscale>
<asrwt>0</asrwt>
<pdfrwt beam="1">  1        4 0.13727678E-01 0.12499802E+03</pdfrwt>
<pdfrwt beam="2">  1       -4 0.67347652E-02 0.12499802E+03</pdfrwt>
<totfact> 0.10280735E+04</totfact>
</mgrwt>
</event>
<event>
 5    1  0.3179758E-002  0.1250012E+03  0.7818608E-02  0.1235067E+00
         -4   -1    0    0    0  501 -0.00000000000E+00  0.00000000000E+00  0.57318313188E+02  0.57332381135E+02  0.12700000000E+01 0.  1.
          4   -1    0    0  501    0  0.00000000000E+00 -0.00000000000E+00 -0.68123055115E+02  0.68134892223E+02  0.12700000000E+01 0.  1.
         25    2    1    2    0    0  0.00000000000E+00  0.00000000000E+00 -0.10804741928E+02  0.12546727336E+03  0.12500117694E+03 0.  0.
    9000005    1    3    3    0    0  0.53411333993E+02  0.15341692599E+02 -0.34095417645E+02  0.65204567594E+02  0.10000000000E+01 0.  0.
    9000005    1    3    3    0    0 -0.53411333993E+02 -0.15341692599E+02  0.23290675717E+02  0.60262705765E+02  0.10000000000E+01 0.  0.
<mgrwt>
<rscale>  0 0.12500118E+03</rscale>
<asrwt>0</asrwt>
<pdfrwt beam="2">  1        4 0.10482463E-01 0.12500118E+03</pdfrwt>
<pdfrwt beam="1">  1       -4 0.88201948E-02 0.12500118E+03</pdfrwt>
<totfact> 0.10442400E+04</totfact>
</mgrwt>
</event>
<event>
 5    1  0.3179758E-002  0.1249959E+03  0.7818608E-02  0.1235076E+00
         -4   -1    0    0    0  501 -0.00000000000E+00  0.00000000000E+00  0.12427996531E+02  0.12492717789E+02  0.12700000000E+01 0.  1.
          4   -1    0    0  501    0  0.00000000000E+00 -0.00000000000E+00 -0.31340770631E+03  0.31341027947E+03  0.12700000000E+01 0.  1.
         25    2    1    2    0    0  0.00000000000E+00  0.00000000000E+00 -0.30097970978E+03  0.32590299726E+03  0.12499591162E+03 0.  0.
    9000005    1    3    3    0    0 -0.11019176418E+02 -0.40860140913E+02 -0.27036998532E+03  0.27366384914E+03  0.10000000000E+01 0.  0.
    9000005    1    3    3    0    0  0.11019176418E+02  0.40860140913E+02 -0.30609724461E+02  0.52239148116E+02  0.10000000000E+01 0.  0.
<mgrwt>
<rscale>  0 0.12499591E+03</rscale>
<asrwt>0</asrwt>
<pdfrwt beam="2">  1        4 0.48221741E-01 0.12499591E+03</pdfrwt>
<pdfrwt beam="1">  1       -4 0.19171762E-02 0.12499591E+03</pdfrwt>
<totfact> 0.72466067E+03</totfact>
</mgrwt>
</event>
<event>
 5    1  0.3179758E-002  0.1249997E+03  0.7818608E-02  0.1235070E+00
         -4   -1    0    0    0  501 -0.00000000000E+00  0.00000000000E+00  0.85048946709E+03  0.85049041531E+03  0.12700000000E+01 0. -1.
          4   -1    0    0  501    0  0.00000000000E+00 -0.00000000000E+00 -0.45041610868E+01  0.46797828043E+01  0.12700000000E+01 0. -1.
         25    2    1    2    0    0  0.00000000000E+00  0.00000000000E+00  0.84598530601E+03  0.85517019811E+03  0.12499971907E+03 0.  0.
    9000005    1    3    3    0    0  0.22263992846E+02  0.56874199722E+02  0.33252272532E+03  0.33808685693E+03  0.10000000000E+01 0.  0.
    9000005    1    3    3    0    0 -0.22263992846E+02 -0.56874199722E+02  0.51346258068E+03  0.51708334119E+03  0.10000000000E+01 0.  0.
<mgrwt>
<rscale>  0 0.12499972E+03</rscale>
<asrwt>0</asrwt>
<pdfrwt beam="2">  1        4 0.70653045E-03 0.12499972E+03</pdfrwt>
<pdfrwt beam="1">  1       -4 0.13085806E+00 0.12499972E+03</pdfrwt>
<totfact> 0.35916916E+03</totfact>
</mgrwt>
</event>
<event>
 5    1  0.3179758E-002  0.1250012E+03  0.7818608E-02  0.1235067E+00
          4   -1    0    0  501    0  0.00000000000E+00  0.00000000000E+00  0.18024999810E+03  0.18025447211E+03  0.12700000000E+01 0. -1.
         -4   -1    0    0    0  501 -0.00000000000E+00 -0.00000000000E+00 -0.21648365612E+02  0.21685585850E+02  0.12700000000E+01 0. -1.
         25    2    1    2    0    0  0.00000000000E+00  0.00000000000E+00  0.15860163249E+03  0.20194005796E+03  0.12500123672E+03 0.  0.
    9000005    1    3    3    0    0 -0.20000950958E+02  0.59158141958E+02  0.75476641748E+02  0.97966561891E+02  0.10000000000E+01 0.  0.
    9000005    1    3    3    0    0  0.20000950958E+02 -0.59158141958E+02  0.83124990744E+02  0.10397349607E+03  0.10000000000E+01 0.  0.
<mgrwt>
<rscale>  0 0.12500124E+03</rscale>
<asrwt>0</asrwt>
<pdfrwt beam="1">  1        4 0.27733977E-01 0.12500124E+03</pdfrwt>
<pdfrwt beam="2">  1       -4 0.33337249E-02 0.12500124E+03</pdfrwt>
<totfact> 0.89806842E+03</totfact>
</mgrwt>
</event>
<event>
 5    1  0.3179758E-002  0.1250024E+03  0.7818608E-02  0.1235066E+00
          4   -1    0    0  501    0  0.00000000000E+00  0.00000000000E+00  0.34088834403E+03  0.34089070975E+03  0.12700000000E+01 0. -1.
         -4   -1    0    0    0  501 -0.00000000000E+00 -0.00000000000E+00 -0.11421872328E+02  0.11492261200E+02  0.12700000000E+01 0. -1.
         25    2    1    2    0    0  0.00000000000E+00  0.00000000000E+00  0.32946647170E+03  0.35238297095E+03  0.12500240894E+03 0.  0.
    9000005    1    3    3    0    0 -0.55262397438E+02 -0.26620509127E+02  0.13104442370E+03  0.14469355569E+03  0.10000000000E+01 0.  0.
    9000005    1    3    3    0    0  0.55262397438E+02  0.26620509127E+02  0.19842204801E+03  0.20768941526E+03  0.10000000000E+01 0.  0.
<mgrwt>
<rscale>  0 0.12500241E+03</rscale>
<asrwt>0</asrwt>
<pdfrwt beam="1">  1        4 0.52449949E-01 0.12500241E+03</pdfrwt>
<pdfrwt beam="2">  1       -4 0.17628079E-02 0.12500241E+03</pdfrwt>
<totfact> 0.69459495E+03</totfact>
</mgrwt>
</event>
<event>
 5    1  0.3179758E-002  0.1250036E+03  0.7818608E-02  0.1235064E+00
          4   -1    0    0  501    0  0.00000000000E+00  0.00000000000E+00  0.13278900281E+03  0.13279507584E+03  0.12700000000E+01 0.  1.
         -4   -1    0    0    0  501 -0.00000000000E+00 -0.00000000000E+00 -0.29398215295E+02  0.29425634446E+02  0.12700000000E+01 0.  1.
         25    2    1    2    0    0  0.00000000000E+00  0.00000000000E+00  0.10339078752E+03  0.16222071029E+03  0.12500361556E+03 0.  0.
    9000005    1    3    3    0    0  0.59033416452E+02 -0.16023351474E+02  0.68303471217E+02  0.91695453708E+02  0.10000000000E+01 0.  0.
    9000005    1    3    3    0    0 -0.59033416452E+02  0.16023351474E+02  0.35087316300E+02  0.70525256579E+02  0.10000000000E+01 0.  0.
<mgrwt>
<rscale>  0 0.12500362E+03</rscale>
<asrwt>0</asrwt>
<pdfrwt beam="1">  1        4 0.20431653E-01 0.12500362E+03</pdfrwt>
<pdfrwt beam="2">  1       -4 0.45253788E-02 0.12500362E+03</pdfrwt>
<totfact> 0.96908477E+03</totfact>
</mgrwt>
</event>
<event>
 5    1  0.3179758E-002  0.1249989E+03  0.7818608E-02  0.1235071E+00
         -4   -1    0    0    0  501 -0.00000000000E+00  0.00000000000E+00  0.49255589972E+01  0.50866522817E+01  0.12700000000E+01 0.  1.
          4   -1    0    0  501    0  0.00000000000E+00 -0.00000000000E+00 -0.78012146441E+03  0.78012249816E+03  0.12700000000E+01 0.  1.
         25    2    1    2    0    0  0.00000000000E+00  0.00000000000E+00 -0.77519590541E+03  0.78520915044E+03  0.12499887266E+03 0.  0.
    9000005    1    3    3    0    0 -0.54915344100E+02 -0.29705990490E+02 -0.37093223448E+03  0.37615138371E+03  0.10000000000E+01 0.  0.
    9000005    1    3    3    0    0  0.54915344100E+02  0.29705990490E+02 -0.40426367093E+03  0.40905776673E+03  0.10000000000E+01 0.  0.
<mgrwt>
<rscale>  0 0.12499887E+03</rscale>
<asrwt>0</asrwt>
<pdfrwt beam="2">  1        4 0.12003106E+00 0.12499887E+03</pdfrwt>
<pdfrwt beam="1">  1       -4 0.77025024E-03 0.12499887E+03</pdfrwt>
<totfact> 0.38934606E+03</totfact>
</mgrwt>
</event>
<event>
 5    1  0.3179758E-002  0.1250005E+03  0.7818608E-02  0.1235068E+00
          4   -1    0    0  501    0  0.00000000000E+00  0.00000000000E+00  0.39525641277E+01  0.41515856228E+01  0.12700000000E+01 0.  1.
         -4   -1    0    0    0  501 -0.00000000000E+00 -0.00000000000E+00 -0.96382113103E+03  0.96382196775E+03  0.12700000000E+01 0.  1.
         25    2    1    2    0    0  0.00000000000E+00  0.00000000000E+00 -0.95986856690E+03  0.96797355337E+03  0.12500053722E+03 0.  0.
    9000005    1    3    3    0    0 -0.12210282582E+02 -0.37808194746E+02 -0.10640480132E+03  0.11358491245E+03  0.10000000000E+01 0.  0.
    9000005    1    3    3    0    0  0.12210282582E+02  0.37808194746E+02 -0.85346376558E+03  0.85438864093E+03  0.10000000000E+01 0.  0.
<mgrwt>
<rscale>  0 0.12500054E+03</rscale>
<asrwt>0</asrwt>
<pdfrwt beam="1">  1        4 0.62346127E-03 0.12500054E+03</pdfrwt>
<pdfrwt beam="2">  1       -4 0.14829536E+00 0.12500054E+03</pdfrwt>
<totfact> 0.31685981E+03</totfact>
</mgrwt>
</event>
<event>
 5    1  0.3179758E-002  0.1250034E+03  0.7818608E-02  0.1235064E+00
          4   -1    0    0  501    0  0.00000000000E+00  0.00000000000E+00  0.54266785839E+01  0.55733060613E+01  0.12700000000E+01 0. -1.
         -4   -1    0    0    0  501 -0.00000000000E+00 -0.00000000000E+00 -0.71012007970E+03  0.71012121535E+03  0.12700000000E+01 0. -1.
         25    2    1    2    0    0  0.00000000000E+00  0.00000000000E+00 -0.70469340112E+03  0.71569452141E+03  0.12500343357E+03 0.  0.
    9000005    1    3    3    0    0  0.56593217754E+02 -0.12322894384E+02 -0.48671909028E+03  0.49015417867E+03  0.10000000000E+01 0.  0.
    9000005    1    3    3    0    0 -0.56593217754E+02  0.12322894384E+02 -0.21797431084E+03  0.22554034275E+03  0.10000000000E+01 0.  0.
<mgrwt>
<rscale>  0 0.12500343E+03</rscale>
<asrwt>0</asrwt>
<pdfrwt beam="1">  1        4 0.84624058E-03 0.12500343E+03</pdfrwt>
<pdfrwt beam="2">  1       -4 0.10926054E+00 0.12500343E+03</pdfrwt>
<totfact> 0.42267898E+03</totfact>
</mgrwt>
</event>
<event>
 5    1  0.3179758E-002  0.1250029E+03  0.7818608E-02  0.1235065E+00
         -4   -1    0    0    0  501 -0.00000000000E+00  0.00000000000E+00  0.24328267294E+02  0.24361393424E+02  0.12700000000E+01 0.  1.
          4   -1    0    0  501    0  0.00000000000E+00 -0.00000000000E+00 -0.16042679265E+03  0.16043181947E+03  0.12700000000E+01 0.  1.
         25    2    1    2    0    0  0.00000000000E+00  0.00000000000E+00 -0.13609852535E+03  0.18479321290E+03  0.12500289168E+03 0.  0.
    9000005    1    3    3    0    0 -0.17635208966E+02 -0.58166706285E+02 -0.46572270057E+02  0.76578996165E+02  0.10000000000E+01 0.  0.
    9000005    1    3    3    0    0  0.17635208966E+02  0.58166706285E+02 -0.89526255296E+02  0.10821421673E+03  0.10000000000E+01 0.  0.
<mgrwt>
<rscale>  0 0.12500289E+03</rscale>
<asrwt>0</asrwt>
<pdfrwt beam="2">  1        4 0.24683979E-01 0.12500289E+03</pdfrwt>
<pdfrwt beam="1">  1       -4 0.37457453E-02 0.12500289E+03</pdfrwt>
<totfact> 0.92755244E+03</totfact>
</mgrwt>
</event>
<event>
 5    1  0.3179758E-002  0.1250001E+03  0.7818608E-02  0.1235069E+00
          4   -1    0    0  501    0  0.00000000000E+00  0.00000000000E+00  0.13134121794E+03  0.13134735791E+03  0.12700000000E+01 0. -1.
         -4   -1    0    0    0  501 -0.00000000000E+00 -0.00000000000E+00 -0.29720870096E+02  0.29747991852E+02  0.12700000000E+01 0. -1.
         25    2    1    2    0    0  0.00000000000E+00  0.00000000000E+00  0.10162034784E+03  0.16109534976E+03  0.12500006647E+03 0.  0.
    9000005    1    3    3    0    0 -0.50751114143E+02 -0.35310818699E+02  0.62531863917E+02  0.87941818885E+02  0.10000000000E+01 0.  0.
    9000005    1    3    3    0    0  0.50751114143E+02  0.35310818699E+02  0.39088483925E+02  0.73153530875E+02  0.10000000000E+01 0.  0.
<mgrwt>
<rscale>  0 0.12500007E+03</rscale>
<asrwt>0</asrwt>
<pdfrwt beam="1">  1        4 0.20208900E-01 0.12500007E+03</pdfrwt>
<pdfrwt beam="2">  1       -4 0.45750001E-02 0.12500007E+03</pdfrwt>
<totfact> 0.97131880E+03</totfact>
</mgrwt>
</event>
<event>
 5    1  0.3179758E-002  0.1250045E+03  0.7818608E-02  0.1235062E+00
         -4   -1    0    0    0  501 -0.00000000000E+00  0.00000000000E+00  0.18629842422E+03  0.18630275298E+03  0.12700000000E+01 0. -1.
          4   -1    0    0  501    0  0.00000000000E+00 -0.00000000000E+00 -0.20945410906E+02  0.20983878050E+02  0.12700000000E+01 0. -1.
         25    2    1    2    0    0  0.00000000000E+00  0.00000000000E+00  0.16535301332E+03  0.20728663103E+03  0.12500451348E+03 0.  0.
    9000005    1    3    3    0    0 -0.46245285190E+01  0.48976488875E+02  0.18765666593E+02  0.52661494180E+02  0.10000000000E+01 0.  0.
    9000005    1    3    3    0    0  0.46245285190E+01 -0.48976488875E+02  0.14658734672E+03  0.15462513685E+03  0.10000000000E+01 0.  0.
<mgrwt>
<rscale>  0 0.12500451E+03</rscale>
<asrwt>0</asrwt>
<pdfrwt beam="2">  1        4 0.32256629E-02 0.12500451E+03</pdfrwt>
<pdfrwt beam="1">  1       -4 0.28664588E-01 0.12500451E+03</pdfrwt>
<totfact> 0.88911960E+03</totfact>
</mgrwt>
</event>
<event>
 5    1  0.3179758E-002  0.1249993E+03  0.7818608E-02  0.1235070E+00
          4   -1    0    0  501    0  0.00000000000E+00  0.00000000000E+00  0.10274676561E+01  0.16335818879E+01  0.12700000000E+01 0. -1.
         -4   -1    0    0    0  501 -0.00000000000E+00 -0.00000000000E+00 -0.29352329764E+04  0.29352332511E+04  0.12700000000E+01 0. -1.
         25    2    1    2    0    0  0.00000000000E+00  0.00000000000E+00 -0.29342055087E+04  0.29368668330E+04  0.12499930978E+03 0.  0.
    9000005    1    3    3    0    0 -0.41681707104E+02  0.29827994452E+02 -0.62713106850E+03  0.62922289456E+03  0.10000000000E+01 0.  0.
    9000005    1    3    3    0    0  0.41681707104E+02 -0.29827994452E+02 -0.23070744402E+04  0.23076439385E+04  0.10000000000E+01 0.  0.
<mgrwt>
<rscale>  0 0.12499931E+03</rscale>
<asrwt>0</asrwt>
<pdfrwt beam="1">  1        4 0.20471960E-03 0.12499931E+03</pdfrwt>
<pdfrwt beam="2">  1       -4 0.45161577E+00 0.12499931E+03</pdfrwt>
<totfact> 0.20714240E+02</totfact>
</mgrwt>
</event>
<event>
 5    1  0.3179758E-002  0.1250081E+03  0.7818608E-02  0.1235057E+00
         -4   -1    0    0    0  501 -0.00000000000E+00  0.00000000000E+00  0.36791828539E+02  0.36813741283E+02  0.12700000000E+01 0. -1.
          4   -1    0    0  501    0  0.00000000000E+00 -0.00000000000E+00 -0.10612812138E+03  0.10613571994E+03  0.12700000000E+01 0. -1.
         25    2    1    2    0    0  0.00000000000E+00  0.00000000000E+00 -0.69336292838E+02  0.14294946122E+03  0.12500810757E+03 0.  0.
    9000005    1    3    3    0    0  0.50373031331E+02  0.22948568730E+02 -0.14926645986E+01  0.55383274911E+02  0.10000000000E+01 0.  0.
    9000005    1    3    3    0    0 -0.50373031331E+02 -0.22948568730E+02 -0.67843628239E+02  0.87566186311E+02  0.10000000000E+01 0.  0.
<mgrwt>
<rscale>  0 0.12500811E+03</rscale>
<asrwt>0</asrwt>
<pdfrwt beam="2">  1        4 0.16329673E-01 0.12500811E+03</pdfrwt>
<pdfrwt beam="1">  1       -4 0.56625515E-02 0.12500811E+03</pdfrwt>
<totfact> 0.10070979E+04</totfact>
</mgrwt>
</event>
<event>
 5    1  0.3179758E-002  0.1250594E+03  0.7818608E-02  0.1234976E+00
          4   -1    0    0  501    0  0.00000000000E+00  0.00000000000E+00  0.13447989861E+02  0.13507824818E+02  0.12700000000E+01 0.  1.
         -4   -1    0    0    0  501 -0.00000000000E+00 -0.00000000000E+00 -0.29004063145E+03  0.29004341191E+03  0.12700000000E+01 0.  1.
         25    2    1    2    0    0  0.00000000000E+00  0.00000000000E+00 -0.27659264159E+03  0.30355123673E+03  0.12505944162E+03 0.  0.
    9000005    1    3    3    0    0 -0.22004462543E+01  0.84326471289E+01  0.11978338321E+02  0.14846955589E+02  0.10000000000E+01 0.  0.
    9000005    1    3    3    0    0  0.22004462543E+01 -0.84326471289E+01 -0.28857097991E+03  0.28870428114E+03  0.10000000000E+01 0.  0.
<mgrwt>
<rscale>  0 0.12505944E+03</rscale>
<asrwt>0</asrwt>
<pdfrwt beam="1">  1        4 0.20737383E-02 0.12505944E+03</pdfrwt>
<pdfrwt beam="2">  1       -4 0.44626447E-01 0.12505944E+03</pdfrwt>
<totfact> 0.75056465E+03</totfact>
</mgrwt>
</event>
<event>
 5    1  0.3179758E-002  0.1250015E+03  0.7818608E-02  0.1235067E+00
          4   -1    0    0  501    0  0.00000000000E+00  0.00000000000E+00  0.20799210831E+02  0.20837947864E+02  0.12700000000E+01 0.  1.
         -4   -1    0    0    0  501 -0.00000000000E+00 -0.00000000000E+00 -0.18759638699E+03  0.18760068579E+03  0.12700000000E+01 0.  1.
         25    2    1    2    0    0  0.00000000000E+00  0.00000000000E+00 -0.16679717616E+03  0.20843863366E+03  0.12500146410E+03 0.  0.
    9000005    1    3    3    0    0  0.16613350665E+02  0.56845059551E+02 -0.11666395083E+03  0.13083899128E+03  0.10000000000E+01 0.  0.
    9000005    1    3    3    0    0 -0.16613350665E+02 -0.56845059551E+02 -0.50133225326E+02  0.77599642379E+02  0.10000000000E+01 0.  0.
<mgrwt>
<rscale>  0 0.12500146E+03</rscale>
<asrwt>0</asrwt>
<pdfrwt beam="1">  1        4 0.32031892E-02 0.12500146E+03</pdfrwt>
<pdfrwt beam="2">  1       -4 0.28864292E-01 0.12500146E+03</pdfrwt>
<totfact> 0.88728605E+03</totfact>
</mgrwt>
</event>
<event>
 5    1  0.3179758E-002  0.1249924E+03  0.7818608E-02  0.1235081E+00
         -4   -1    0    0    0  501 -0.00000000000E+00  0.00000000000E+00  0.15314860287E+03  0.15315386858E+03  0.12700000000E+01 0. -1.
          4   -1    0    0  501    0  0.00000000000E+00 -0.00000000000E+00 -0.25481656908E+02  0.25513285534E+02  0.12700000000E+01 0. -1.
         25    2    1    2    0    0  0.00000000000E+00  0.00000000000E+00  0.12766694596E+03  0.17866715411E+03  0.12499241124E+03 0.  0.
    9000005    1    3    3    0    0  0.19980165935E+02 -0.57143767616E+02  0.85985326082E+02  0.10516222473E+03  0.10000000000E+01 0.  0.
    9000005    1    3    3    0    0 -0.19980165935E+02  0.57143767616E+02  0.41681619877E+02  0.73504929384E+02  0.10000000000E+01 0.  0.
<mgrwt>
<rscale>  0 0.12499241E+03</rscale>
<asrwt>0</asrwt>
<pdfrwt beam="2">  1        4 0.39230930E-02 0.12499241E+03</pdfrwt>
<pdfrwt beam="1">  1       -4 0.23564161E-01 0.12499241E+03</pdfrwt>
<totfact> 0.93873445E+03</totfact>
</mgrwt>
</event>
<event>
 5    1  0.3179758E-002  0.1249952E+03  0.7818608E-02  0.1235077E+00
          4   -1    0    0  501    0  0.00000000000E+00  0.00000000000E+00  0.69385625882E+03  0.69385742109E+03  0.12700000000E+01 0. -1.
         -4   -1    0    0    0  501 -0.00000000000E+00 -0.00000000000E+00 -0.55565277783E+01  0.56998158699E+01  0.12700000000E+01 0. -1.
         25    2    1    2    0    0  0.00000000000E+00  0.00000000000E+00  0.68829973104E+03  0.69955723696E+03  0.12499523204E+03 0.  0.
    9000005    1    3    3    0    0  0.38244252267E+02  0.44939134451E+02  0.45922964674E+03  0.46300649788E+03  0.10000000000E+01 0.  0.
    9000005    1    3    3    0    0 -0.38244252267E+02 -0.44939134451E+02  0.22907008431E+03  0.23655073908E+03  0.10000000000E+01 0.  0.
<mgrwt>
<rscale>  0 0.12499523E+03</rscale>
<asrwt>0</asrwt>
<pdfrwt beam="1">  1        4 0.10675814E+00 0.12499523E+03</pdfrwt>
<pdfrwt beam="2">  1       -4 0.86596268E-03 0.12499523E+03</pdfrwt>
<totfact> 0.43114598E+03</totfact>
</mgrwt>
</event>
<event>
 5    1  0.3179758E-002  0.1250056E+03  0.7818608E-02  0.1235061E+00
          4   -1    0    0  501    0  0.00000000000E+00  0.00000000000E+00  0.56146953863E+03  0.56147097495E+03  0.12700000000E+01 0. -1.
         -4   -1    0    0    0  501 -0.00000000000E+00 -0.00000000000E+00 -0.68983978674E+01  0.70143277038E+01  0.12700000000E+01 0. -1.
         25    2    1    2    0    0  0.00000000000E+00  0.00000000000E+00  0.55457114076E+03  0.56848530265E+03  0.12500555653E+03 0.  0.
    9000005    1    3    3    0    0 -0.16068104842E+02 -0.15414681692E+02  0.11730601028E+02  0.25187365987E+02  0.10000000000E+01 0.  0.
    9000005    1    3    3    0    0  0.16068104842E+02  0.15414681692E+02  0.54284053973E+03  0.54329793666E+03  0.10000000000E+01 0.  0.
<mgrwt>
<rscale>  0 0.12500556E+03</rscale>
<asrwt>0</asrwt>
<pdfrwt beam="1">  1        4 0.86388980E-01 0.12500556E+03</pdfrwt>
<pdfrwt beam="2">  1       -4 0.10703199E-02 0.12500556E+03</pdfrwt>
<totfact> 0.50913096E+03</totfact>
</mgrwt>
</event>
<event>
 5    1  0.3179758E-002  0.1250028E+03  0.7818608E-02  0.1235065E+00
          4   -1    0    0  501    0  0.00000000000E+00  0.00000000000E+00  0.50488936727E+03  0.50489096454E+03  0.12700000000E+01 0. -1.
         -4   -1    0    0    0  501 -0.00000000000E+00 -0.00000000000E+00 -0.76834527078E+01  0.77877047653E+01  0.12700000000E+01 0. -1.
         25    2    1    2    0    0  0.00000000000E+00  0.00000000000E+00  0.49720591456E+03  0.51267866931E+03  0.12500278594E+03 0.  0.
    9000005    1    3    3    0    0  0.53771617341E+02 -0.16540285537E+02  0.36020579992E+03  0.36457397901E+03  0.10000000000E+01 0.  0.
    9000005    1    3    3    0    0 -0.53771617341E+02  0.16540285537E+02  0.13700011464E+03  0.14810469030E+03  0.10000000000E+01 0.  0.
<mgrwt>
<rscale>  0 0.12500279E+03</rscale>
<asrwt>0</asrwt>
<pdfrwt beam="1">  1        4 0.77683465E-01 0.12500279E+03</pdfrwt>
<pdfrwt beam="2">  1       -4 0.11902114E-02 0.12500279E+03</pdfrwt>
<totfact> 0.54890524E+03</totfact>
</mgrwt>
</event>
<event>
 5    1  0.3179758E-002  0.1250009E+03  0.7818608E-02  0.1235068E+00
          4   -1    0    0  501    0  0.00000000000E+00  0.00000000000E+00  0.36949662339E+03  0.36949880594E+03  0.12700000000E+01 0. -1.
         -4   -1    0    0    0  501 -0.00000000000E+00 -0.00000000000E+00 -0.10531608710E+02  0.10607906580E+02  0.12700000000E+01 0. -1.
         25    2    1    2    0    0  0.00000000000E+00  0.00000000000E+00  0.35896501468E+03  0.38010671252E+03  0.12500092457E+03 0.  0.
    9000005    1    3    3    0    0  0.36610118746E+02  0.47875149104E+02  0.22972317630E+03  0.23749961774E+03  0.10000000000E+01 0.  0.
    9000005    1    3    3    0    0 -0.36610118746E+02 -0.47875149104E+02  0.12924183837E+03  0.14260709478E+03  0.10000000000E+01 0.  0.
<mgrwt>
<rscale>  0 0.12500092E+03</rscale>
<asrwt>0</asrwt>
<pdfrwt beam="1">  1        4 0.56851667E-01 0.12500092E+03</pdfrwt>
<pdfrwt beam="2">  1       -4 0.16262846E-02 0.12500092E+03</pdfrwt>
<totfact> 0.66533316E+03</totfact>
</mgrwt>
</event>
<event>
 5    1  0.3179758E-002  0.1250160E+03  0.7818608E-02  0.1235044E+00
          4   -1    0    0  501    0  0.00000000000E+00  0.00000000000E+00  0.64721655360E+03  0.64721779963E+03  0.12700000000E+01 0. -1.
         -4   -1    0    0    0  501 -0.00000000000E+00 -0.00000000000E+00 -0.59689485627E+01  0.61025606874E+01  0.12700000000E+01 0. -1.
         25    2    1    2    0    0  0.00000000000E+00  0.00000000000E+00  0.64124760504E+03  0.65332036031E+03  0.12501600792E+03 0.  0.
    9000005    1    3    3    0    0 -0.22838610170E+02  0.56235832817E+02  0.39851934557E+03  0.40311628570E+03  0.10000000000E+01 0.  0.
    9000005    1    3    3    0    0  0.22838610170E+02 -0.56235832817E+02  0.24272825947E+03  0.25020407461E+03  0.10000000000E+01 0.  0.
<mgrwt>
<rscale>  0 0.12501601E+03</rscale>
<asrwt>0</asrwt>
<pdfrwt beam="1">  1        4 0.99582142E-01 0.12501601E+03</pdfrwt>
<pdfrwt beam="2">  1       -4 0.92867357E-03 0.12501601E+03</pdfrwt>
<totfact> 0.45649819E+03</totfact>
</mgrwt>
</event>
<event>
 5    1  0.3179758E-002  0.1250263E+03  0.7818608E-02  0.1235028E+00
         -4   -1    0    0    0  501 -0.00000000000E+00  0.00000000000E+00  0.33709589537E+02  0.33733504514E+02  0.12700000000E+01 0.  1.
          4   -1    0    0  501    0  0.00000000000E+00 -0.00000000000E+00 -0.11585976878E+03  0.11586672915E+03  0.12700000000E+01 0.  1.
         25    2    1    2    0    0  0.00000000000E+00  0.00000000000E+00 -0.82150179247E+02  0.14960023366E+03  0.12502630907E+03 0.  0.
    9000005    1    3    3    0    0 -0.47642593079E+02 -0.26607021097E+02 -0.46020102641E+01  0.54771605284E+02  0.10000000000E+01 0.  0.
    9000005    1    3    3    0    0  0.47642593079E+02  0.26607021097E+02 -0.77548168983E+02  0.94828628375E+02  0.10000000000E+01 0.  0.
<mgrwt>
<rscale>  0 0.12502631E+03</rscale>
<asrwt>0</asrwt>
<pdfrwt beam="2">  1        4 0.17826955E-01 0.12502631E+03</pdfrwt>
<pdfrwt beam="1">  1       -4 0.51884658E-02 0.12502631E+03</pdfrwt>
<totfact> 0.99324620E+03</totfact>
</mgrwt>
</event>
<event>
 5    1  0.3179758E-002  0.1250537E+03  0.7818608E-02  0.1234985E+00
         -4   -1    0    0    0  501 -0.00000000000E+00  0.00000000000E+00  0.11709668219E+02  0.11778337311E+02  0.12700000000E+01 0.  1.
          4   -1    0    0  501    0  0.00000000000E+00 -0.00000000000E+00 -0.33283258577E+03  0.33283500875E+03  0.12700000000E+01 0.  1.
         25    2    1    2    0    0  0.00000000000E+00  0.00000000000E+00 -0.32112291755E+03  0.34461334606E+03  0.12505370889E+03 0.  0.
    9000005    1    3    3    0    0 -0.27252644384E+02 -0.46537128164E+02 -0.73409289078E+02  0.91095195518E+02  0.10000000000E+01 0.  0.
    9000005    1    3    3    0    0  0.27252644384E+02  0.46537128164E+02 -0.24771362847E+03  0.25351815055E+03  0.10000000000E+01 0.  0.
<mgrwt>
<rscale>  0 0.12505371E+03</rscale>
<asrwt>0</asrwt>
<pdfrwt beam="2">  1        4 0.51210475E-01 0.12505371E+03</pdfrwt>
<pdfrwt beam="1">  1       -4 0.18069563E-02 0.12505371E+03</pdfrwt>
<totfact> 0.70237708E+03</totfact>
</mgrwt>
</event>
<event>
 5    1  0.3179758E-002  0.1250016E+03  0.7818608E-02  0.1235067E+00
          4   -1    0    0  501    0  0.00000000000E+00  0.00000000000E+00  0.13337215372E+02  0.13397545069E+02  0.12700000000E+01 0.  1.
         -4   -1    0    0    0  501 -0.00000000000E+00 -0.00000000000E+00 -0.29216851751E+03  0.29217127772E+03  0.12700000000E+01 0.  1.
         25    2    1    2    0    0  0.00000000000E+00  0.00000000000E+00 -0.27883130214E+03  0.30556882279E+03  0.12500164162E+03 0.  0.
    9000005    1    3    3    0    0 -0.20808979414E+02  0.14743203258E+02  0.50007609109E-01  0.25522111341E+02  0.10000000000E+01 0.  0.
    9000005    1    3    3    0    0  0.20808979414E+02 -0.14743203258E+02 -0.27888130975E+03  0.28004671145E+03  0.10000000000E+01 0.  0.
<mgrwt>
<rscale>  0 0.12500164E+03</rscale>
<asrwt>0</asrwt>
<pdfrwt beam="1">  1        4 0.20567326E-02 0.12500164E+03</pdfrwt>
<pdfrwt beam="2">  1       -4 0.44953851E-01 0.12500164E+03</pdfrwt>
<totfact> 0.74902837E+03</totfact>
</mgrwt>
</event>
<event>
 5    1  0.3179758E-002  0.1249987E+03  0.7818608E-02  0.1235071E+00
          4   -1    0    0  501    0  0.00000000000E+00  0.00000000000E+00  0.61891316012E+02  0.61904344740E+02  0.12700000000E+01 0. -1.
         -4   -1    0    0    0  501 -0.00000000000E+00 -0.00000000000E+00 -0.63087338433E+02  0.63100120210E+02  0.12700000000E+01 0. -1.
         25    2    1    2    0    0  0.00000000000E+00  0.00000000000E+00 -0.11960224201E+01  0.12500446495E+03  0.12499874315E+03 0.  0.
    9000005    1    3    3    0    0  0.89739504142E+01 -0.60053411452E+02 -0.15371210358E+02  0.62643580045E+02  0.10000000000E+01 0.  0.
    9000005    1    3    3    0    0 -0.89739504142E+01  0.60053411452E+02  0.14175187938E+02  0.62360884905E+02  0.10000000000E+01 0.  0.
<mgrwt>
<rscale>  0 0.12499874E+03</rscale>
<asrwt>0</asrwt>
<pdfrwt beam="1">  1        4 0.95237264E-02 0.12499874E+03</pdfrwt>
<pdfrwt beam="2">  1       -4 0.97077298E-02 0.12499874E+03</pdfrwt>
<totfact> 0.10453062E+04</totfact>
</mgrwt>
</event>
<event>
 5    1  0.3179758E-002  0.1249955E+03  0.7818608E-02  0.1235076E+00
         -4   -1    0    0    0  501 -0.00000000000E+00  0.00000000000E+00  0.85890788173E+01  0.86824636440E+01  0.12700000000E+01 0. -1.
          4   -1    0    0  501    0  0.00000000000E+00 -0.00000000000E+00 -0.45220665477E+03  0.45220843814E+03  0.12700000000E+01 0. -1.
         25    2    1    2    0    0  0.00000000000E+00  0.00000000000E+00 -0.44361757596E+03  0.46089090178E+03  0.12499547850E+03 0.  0.
    9000005    1    3    3    0    0 -0.37273529858E+02 -0.50156269072E+02 -0.22183645095E+03  0.23047207710E+03  0.10000000000E+01 0.  0.
    9000005    1    3    3    0    0  0.37273529858E+02  0.50156269072E+02 -0.22178112501E+03  0.23041882468E+03  0.10000000000E+01 0.  0.
<mgrwt>
<rscale>  0 0.12499548E+03</rscale>
<asrwt>0</asrwt>
<pdfrwt beam="2">  1        4 0.69577557E-01 0.12499548E+03</pdfrwt>
<pdfrwt beam="1">  1       -4 0.13287177E-02 0.12499548E+03</pdfrwt>
<totfact> 0.59037679E+03</totfact>
</mgrwt>
</event>
<event>
 5    1  0.3179758E-002  0.1250023E+03  0.7818608E-02  0.1235066E+00
          4   -1    0    0  501    0  0.00000000000E+00  0.00000000000E+00  0.41398043244E+02  0.41417519052E+02  0.12700000000E+01 0.  1.
         -4   -1    0    0    0  501 -0.00000000000E+00 -0.00000000000E+00 -0.94315857722E+02  0.94324407858E+02  0.12700000000E+01 0.  1.
         25    2    1    2    0    0  0.00000000000E+00  0.00000000000E+00 -0.52917814478E+02  0.13574192691E+03  0.12500230251E+03 0.  0.
    9000005    1    3    3    0    0 -0.42382129814E+02  0.23868041468E+02  0.16148095921E+02  0.51260992313E+02  0.10000000000E+01 0.  0.
    9000005    1    3    3    0    0  0.42382129814E+02 -0.23868041468E+02 -0.69065910399E+02  0.84480934597E+02  0.10000000000E+01 0.  0.
<mgrwt>
<rscale>  0 0.12500230E+03</rscale>
<asrwt>0</asrwt>
<pdfrwt beam="1">  1        4 0.63710856E-02 0.12500230E+03</pdfrwt>
<pdfrwt beam="2">  1       -4 0.14512288E-01 0.12500230E+03</pdfrwt>
<totfact> 0.10221926E+04</totfact>
</mgrwt>
</event>
<event>
 5    1  0.3179758E-002  0.1249821E+03  0.7818608E-02  0.1235097E+00
         -4   -1    0    0    0  501 -0.00000000000E+00  0.00000000000E+00  0.51930223090E+01  0.53460621677E+01  0.12700000000E+01 0. -1.
          4   -1    0    0  501    0  0.00000000000E+00 -0.00000000000E+00 -0.74092270854E+03  0.74092379698E+03  0.12700000000E+01 0. -1.
         25    2    1    2    0    0  0.00000000000E+00  0.00000000000E+00 -0.73572968623E+03  0.74626985915E+03  0.12498212460E+03 0.  0.
    9000005    1    3    3    0    0 -0.35407794166E+02  0.15713530368E+02 -0.75132574470E+02  0.84537155563E+02  0.10000000000E+01 0.  0.
    9000005    1    3    3    0    0  0.35407794166E+02 -0.15713530368E+02 -0.66059711176E+03  0.66173270358E+03  0.10000000000E+01 0.  0.
<mgrwt>
<rscale>  0 0.12498212E+03</rscale>
<asrwt>0</asrwt>
<pdfrwt beam="2">  1        4 0.11399988E+00 0.12498212E+03</pdfrwt>
<pdfrwt beam="1">  1       -4 0.81078312E-03 0.12498212E+03</pdfrwt>
<totfact> 0.40769142E+03</totfact>
</mgrwt>
</event>
<event>
 5    1  0.3179758E-002  0.1249970E+03  0.7818608E-02  0.1235074E+00
          4   -1    0    0  501    0  0.00000000000E+00  0.00000000000E+00  0.11184533991E+02  0.11256407091E+02  0.12700000000E+01 0. -1.
         -4   -1    0    0    0  501 -0.00000000000E+00 -0.00000000000E+00 -0.34804631543E+03  0.34804863250E+03  0.12700000000E+01 0. -1.
         25    2    1    2    0    0  0.00000000000E+00  0.00000000000E+00 -0.33686178144E+03  0.35930503959E+03  0.12499700669E+03 0.  0.
    9000005    1    3    3    0    0  0.31408896781E+01  0.61723466885E+02 -0.19499660724E+03  0.20455886289E+03  0.10000000000E+01 0.  0.
    9000005    1    3    3    0    0 -0.31408896781E+01 -0.61723466885E+02 -0.14186517420E+03  0.15474617670E+03  0.10000000000E+01 0.  0.
<mgrwt>
<rscale>  0 0.12499701E+03</rscale>
<asrwt>0</asrwt>
<pdfrwt beam="1">  1        4 0.17264047E-02 0.12499701E+03</pdfrwt>
<pdfrwt beam="2">  1       -4 0.53551286E-01 0.12499701E+03</pdfrwt>
<totfact> 0.68717428E+03</totfact>
</mgrwt>
</event>
<event>
 5    1  0.3179758E-002  0.1249993E+03  0.7818608E-02  0.1235070E+00
         -4   -1    0    0    0  501 -0.00000000000E+00  0.00000000000E+00  0.43177211325E+02  0.43195884964E+02  0.12700000000E+01 0.  1.
          4   -1    0    0  501    0  0.00000000000E+00 -0.00000000000E+00 -0.90426422897E+02  0.90435340757E+02  0.12700000000E+01 0.  1.
         25    2    1    2    0    0  0.00000000000E+00  0.00000000000E+00 -0.47249211572E+02  0.13363122572E+03  0.12499926597E+03 0.  0.
    9000005    1    3    3    0    0  0.18358692494E+02 -0.52688547171E+02 -0.53712021331E+02  0.77453894857E+02  0.10000000000E+01 0.  0.
    9000005    1    3    3    0    0 -0.18358692494E+02  0.52688547171E+02  0.64628097597E+01  0.56177330864E+02  0.10000000000E+01 0.  0.
<mgrwt>
<rscale>  0 0.12499927E+03</rscale>
<asrwt>0</asrwt>
<pdfrwt beam="2">  1        4 0.13913880E-01 0.12499927E+03</pdfrwt>
<pdfrwt beam="1">  1       -4 0.66447703E-02 0.12499927E+03</pdfrwt>
<totfact> 0.10267172E+04</totfact>
</mgrwt>
</event>
<event>
 5    1  0.3179758E-002  0.1250050E+03  0.7818608E-02  0.1235061E+00
         -4   -1    0    0    0  501 -0.00000000000E+00  0.00000000000E+00  0.53833703144E+03  0.53833852948E+03  0.12700000000E+01 0. -1.
          4   -1    0    0  501    0  0.00000000000E+00 -0.00000000000E+00 -0.71996362090E+01  0.73107907604E+01  0.12700000000E+01 0. -1.
         25    2    1    2    0    0  0.00000000000E+00  0.00000000000E+00  0.53113739523E+03  0.54564932024E+03  0.12500499215E+03 0.  0.
    9000005    1    3    3    0    0  0.40770930572E+02  0.98738264679E+01  0.63368785993E+02  0.76002396456E+02  0.10000000000E+01 0.  0.
    9000005    1    3    3    0    0 -0.40770930572E+02 -0.98738264679E+01  0.46776860924E+03  0.46964692378E+03  0.10000000000E+01 0.  0.
<mgrwt>
<rscale>  0 0.12500499E+03</rscale>
<asrwt>0</asrwt>
<pdfrwt beam="2">  1        4 0.11163015E-02 0.12500499E+03</pdfrwt>
<pdfrwt beam="1">  1       -4 0.82829775E-01 0.12500499E+03</pdfrwt>
<totfact> 0.52482938E+03</totfact>
</mgrwt>
</event>
<event>
 5    1  0.3179758E-002  0.1250132E+03  0.7818608E-02  0.1235049E+00
         -4   -1    0    0    0  501 -0.00000000000E+00  0.00000000000E+00  0.31713161486E+01  0.34161595563E+01  0.12700000000E+01 0. -1.
          4   -1    0    0  501    0  0.00000000000E+00 -0.00000000000E+00 -0.11859670217E+04  0.11859677017E+04  0.12700000000E+01 0. -1.
         25    2    1    2    0    0  0.00000000000E+00  0.00000000000E+00 -0.11827957056E+04  0.11893838613E+04  0.12501315263E+03 0.  0.
    9000005    1    3    3    0    0  0.76980795189E+01  0.54197507381E+02 -0.87831321421E+03  0.88001802964E+03  0.10000000000E+01 0.  0.
    9000005    1    3    3    0    0 -0.76980795189E+01 -0.54197507381E+02 -0.30448249136E+03  0.30936583163E+03  0.10000000000E+01 0.  0.
<mgrwt>
<rscale>  0 0.12501315E+03</rscale>
<asrwt>0</asrwt>
<pdfrwt beam="2">  1        4 0.18247501E+00 0.12501315E+03</pdfrwt>
<pdfrwt beam="1">  1       -4 0.50678215E-03 0.12501315E+03</pdfrwt>
<totfact> 0.24985216E+03</totfact>
</mgrwt>
</event>
<event>
 5    1  0.3179758E-002  0.1250000E+03  0.7818608E-02  0.1235069E+00
         -4   -1    0    0    0  501 -0.00000000000E+00  0.00000000000E+00  0.30965396170E+03  0.30965656605E+03  0.12700000000E+01 0. -1.
          4   -1    0    0  501    0  0.00000000000E+00 -0.00000000000E+00 -0.12580252003E+02  0.12644193942E+02  0.12700000000E+01 0. -1.
         25    2    1    2    0    0  0.00000000000E+00  0.00000000000E+00  0.29707370970E+03  0.32230075999E+03  0.12499996359E+03 0.  0.
    9000005    1    3    3    0    0  0.79535918579E+01  0.49300507863E+02  0.51668061868E+02  0.71863678699E+02  0.10000000000E+01 0.  0.
    9000005    1    3    3    0    0 -0.79535918579E+01 -0.49300507863E+02  0.24540564783E+03  0.25043708129E+03  0.10000000000E+01 0.  0.
<mgrwt>
<rscale>  0 0.12499996E+03</rscale>
<asrwt>0</asrwt>
<pdfrwt beam="2">  1        4 0.19405423E-02 0.12499996E+03</pdfrwt>
<pdfrwt beam="1">  1       -4 0.47644190E-01 0.12499996E+03</pdfrwt>
<totfact> 0.72883370E+03</totfact>
</mgrwt>
</event>
<event>
 5    1  0.3179758E-002  0.1250015E+03  0.7818608E-02  0.1235067E+00
         -4   -1    0    0    0  501 -0.00000000000E+00  0.00000000000E+00  0.56395477209E+01  0.57807783642E+01  0.12700000000E+01 0.  1.
          4   -1    0    0  501    0  0.00000000000E+00 -0.00000000000E+00 -0.68396197329E+03  0.68396315238E+03  0.12700000000E+01 0.  1.
         25    2    1    2    0    0  0.00000000000E+00  0.00000000000E+00 -0.67832242557E+03  0.68974393074E+03  0.12500150784E+03 0.  0.
    9000005    1    3    3    0    0  0.22506956458E+02 -0.51340533266E+02 -0.18675060021E+03  0.19498512795E+03  0.10000000000E+01 0.  0.
    9000005    1    3    3    0    0 -0.22506956458E+02  0.51340533266E+02 -0.49157182536E+03  0.49475880279E+03  0.10000000000E+01 0.  0.
<mgrwt>
<rscale>  0 0.12500151E+03</rscale>
<asrwt>0</asrwt>
<pdfrwt beam="2">  1        4 0.10523581E+00 0.12500151E+03</pdfrwt>
<pdfrwt beam="1">  1       -4 0.87857786E-03 0.12500151E+03</pdfrwt>
<totfact> 0.43632234E+03</totfact>
</mgrwt>
</event>
<event>
 5    1  0.3179758E-002  0.1250028E+03  0.7818608E-02  0.1235065E+00
         -4   -1    0    0    0  501 -0.00000000000E+00  0.00000000000E+00  0.51163281433E+02  0.51179041286E+02  0.12700000000E+01 0. -1.
          4   -1    0    0  501    0  0.00000000000E+00 -0.00000000000E+00 -0.76319376371E+02  0.76329942419E+02  0.12700000000E+01 0. -1.
         25    2    1    2    0    0  0.00000000000E+00  0.00000000000E+00 -0.25156094938E+02  0.12750898371E+03  0.12500284722E+03 0.  0.
    9000005    1    3    3    0    0  0.12194314484E+02 -0.32210030362E+02  0.40613753682E+02  0.53260345003E+02  0.10000000000E+01 0.  0.
    9000005    1    3    3    0    0 -0.12194314484E+02  0.32210030362E+02 -0.65769848620E+02  0.74248638703E+02  0.10000000000E+01 0.  0.
<mgrwt>
<rscale>  0 0.12500285E+03</rscale>
<asrwt>0</asrwt>
<pdfrwt beam="2">  1        4 0.11743467E-01 0.12500285E+03</pdfrwt>
<pdfrwt beam="1">  1       -4 0.78732992E-02 0.12500285E+03</pdfrwt>
<totfact> 0.10397438E+04</totfact>
</mgrwt>
</event>
<event>
 5    1  0.3179758E-002  0.1249968E+03  0.7818608E-02  0.1235074E+00
         -4   -1    0    0    0  501 -0.00000000000E+00  0.00000000000E+00  0.10342489243E+01  0.16378555606E+01  0.12700000000E+01 0. -1.
          4   -1    0    0  501    0  0.00000000000E+00 -0.00000000000E+00 -0.29229723261E+04  0.29229726020E+04  0.12700000000E+01 0. -1.
         25    2    1    2    0    0  0.00000000000E+00  0.00000000000E+00 -0.29219380772E+04  0.29246104576E+04  0.12499680647E+03 0.  0.
    9000005    1    3    3    0    0  0.17986230257E+02 -0.31719193942E+02 -0.26483626742E+04  0.26486138763E+04  0.10000000000E+01 0.  0.
    9000005    1    3    3    0    0 -0.17986230257E+02  0.31719193942E+02 -0.27357540299E+03  0.27599658125E+03  0.10000000000E+01 0.  0.
<mgrwt>
<rscale>  0 0.12499681E+03</rscale>
<asrwt>0</asrwt>
<pdfrwt beam="2">  1        4 0.44972938E+00 0.12499681E+03</pdfrwt>
<pdfrwt beam="1">  1       -4 0.20557006E-03 0.12499681E+03</pdfrwt>
<totfact> 0.21239115E+02</totfact>
</mgrwt>
</event>
<event>
 5    1  0.3179758E-002  0.1250004E+03  0.7818608E-02  0.1235069E+00
         -4   -1    0    0    0  501 -0.00000000000E+00  0.00000000000E+00  0.15759222815E+03  0.15759734538E+03  0.12700000000E+01 0.  1.
          4   -1    0    0  501    0  0.00000000000E+00 -0.00000000000E+00 -0.24765438897E+02  0.24797981042E+02  0.12700000000E+01 0.  1.
         25    2    1    2    0    0  0.00000000000E+00  0.00000000000E+00  0.13282678925E+03  0.18239532643E+03  0.12500039664E+03 0.  0.
    9000005    1    3    3    0    0 -0.37222466764E+02 -0.49984781466E+02  0.59681569682E+02  0.86295307925E+02  0.10000000000E+01 0.  0.
    9000005    1    3    3    0    0  0.37222466764E+02  0.49984781466E+02  0.73145219568E+02  0.96100018501E+02  0.10000000000E+01 0.  0.
<mgrwt>
<rscale>  0 0.12500040E+03</rscale>
<asrwt>0</asrwt>
<pdfrwt beam="2">  1        4 0.38129643E-02 0.12500040E+03</pdfrwt>
<pdfrwt beam="1">  1       -4 0.24247856E-01 0.12500040E+03</pdfrwt>
<totfact> 0.93186776E+03</totfact>
</mgrwt>
</event>
<event>
 5    1  0.3179758E-002  0.1249963E+03  0.7818608E-02  0.1235075E+00
          4   -1    0    0  501    0  0.00000000000E+00  0.00000000000E+00  0.73630259546E+02  0.73641211430E+02  0.12700000000E+01 0. -1.
         -4   -1    0    0    0  501 -0.00000000000E+00 -0.00000000000E+00 -0.53026607943E+02  0.53041814166E+02  0.12700000000E+01 0. -1.
         25    2    1    2    0    0  0.00000000000E+00  0.00000000000E+00  0.20603651603E+02  0.12668302560E+03  0.12499631400E+03 0.  0.
    9000005    1    3    3    0    0  0.18979088596E+02 -0.58491391528E+02  0.21568076196E+02  0.65173849031E+02  0.10000000000E+01 0.  0.
    9000005    1    3    3    0    0 -0.18979088596E+02  0.58491391528E+02 -0.96442459289E+00  0.61509176564E+02  0.10000000000E+01 0.  0.
<mgrwt>
<rscale>  0 0.12499631E+03</rscale>
<asrwt>0</asrwt>
<pdfrwt beam="1">  1        4 0.11329744E-01 0.12499631E+03</pdfrwt>
<pdfrwt beam="2">  1       -4 0.81599518E-02 0.12499631E+03</pdfrwt>
<totfact> 0.10416906E+04</totfact>
</mgrwt>
</event>
<event>
 5    1  0.3179758E-002  0.1250001E+03  0.7818608E-02  0.1235069E+00
          4   -1    0    0  501    0  0.00000000000E+00  0.00000000000E+00  0.38935000209E+02  0.38955707429E+02  0.12700000000E+01 0. -1.
         -4   -1    0    0    0  501 -0.00000000000E+00 -0.00000000000E+00 -0.10027627077E+03  0.10028431273E+03  0.12700000000E+01 0. -1.
         25    2    1    2    0    0  0.00000000000E+00  0.00000000000E+00 -0.61341270558E+02  0.13924002015E+03  0.12500012696E+03 0.  0.
    9000005    1    3    3    0    0  0.60969053303E+01  0.28531897185E+02 -0.92229317529E+02  0.96739280664E+02  0.10000000000E+01 0.  0.
    9000005    1    3    3    0    0 -0.60969053303E+01 -0.28531897185E+02  0.30888046971E+02  0.42500739491E+02  0.10000000000E+01 0.  0.
<mgrwt>
<rscale>  0 0.12500013E+03</rscale>
<asrwt>0</asrwt>
<pdfrwt beam="1">  1        4 0.59922116E-02 0.12500013E+03</pdfrwt>
<pdfrwt beam="2">  1       -4 0.15429330E-01 0.12500013E+03</pdfrwt>
<totfact> 0.10149332E+04</totfact>
</mgrwt>
</event>
<event>
 5    1  0.3179758E-002  0.1249988E+03  0.7818608E-02  0.1235071E+00
          4   -1    0    0  501    0  0.00000000000E+00  0.00000000000E+00  0.52503312349E+03  0.52503465949E+03  0.12700000000E+01 0.  1.
         -4   -1    0    0    0  501 -0.00000000000E+00 -0.00000000000E+00 -0.73841095636E+01  0.74925278810E+01  0.12700000000E+01 0.  1.
         25    2    1    2    0    0  0.00000000000E+00  0.00000000000E+00  0.51764901393E+03  0.53252718737E+03  0.12499881466E+03 0.  0.
    9000005    1    3    3    0    0  0.17734048790E+02  0.58765227546E+02  0.30874910609E+03  0.31479335915E+03  0.10000000000E+01 0.  0.
    9000005    1    3    3    0    0 -0.17734048790E+02 -0.58765227546E+02  0.20889990784E+03  0.21773382822E+03  0.10000000000E+01 0.  0.
<mgrwt>
<rscale>  0 0.12499881E+03</rscale>
<asrwt>0</asrwt>
<pdfrwt beam="1">  1        4 0.80782784E-01 0.12499881E+03</pdfrwt>
<pdfrwt beam="2">  1       -4 0.11444749E-02 0.12499881E+03</pdfrwt>
<totfact> 0.53427510E+03</totfact>
</mgrwt>
</event>
<event>
 5    1  0.3179758E-002  0.1249999E+03  0.7818608E-02  0.1235069E+00
         -4   -1    0    0    0  501 -0.00000000000E+00  0.00000000000E+00  0.66783382099E+02  0.66795456617E+02  0.12700000000E+01 0.  1.
          4   -1    0    0  501    0  0.00000000000E+00 -0.00000000000E+00 -0.58466984781E+02  0.58480776409E+02  0.12700000000E+01 0.  1.
         25    2    1    2    0    0  0.00000000000E+00  0.00000000000E+00  0.83163973187E+01  0.12527623303E+03  0.12499988839E+03 0.  0.
    9000005    1    3    3    0    0 -0.47561130451E+02  0.36522651928E+02 -0.13466975935E+02  0.61468078500E+02  0.10000000000E+01 0.  0.
    9000005    1    3    3    0    0  0.47561130451E+02 -0.36522651928E+02  0.21783373253E+02  0.63808154525E+02  0.10000000000E+01 0.  0.
<mgrwt>
<rscale>  0 0.12499989E+03</rscale>
<asrwt>0</asrwt>
<pdfrwt beam="2">  1        4 0.89969105E-02 0.12499989E+03</pdfrwt>
<pdfrwt beam="1">  1       -4 0.10276356E-01 0.12499989E+03</pdfrwt>
<totfact> 0.10446892E+04</totfact>
</mgrwt>
</event>
<event>
 5    1  0.3179758E-002  0.1249987E+03  0.7818608E-02  0.1235071E+00
         -4   -1    0    0    0  501 -0.00000000000E+00  0.00000000000E+00  0.94370866190E+02  0.94379411343E+02  0.12700000000E+01 0.  1.
          4   -1    0    0  501    0  0.00000000000E+00 -0.00000000000E+00 -0.41371533798E+02  0.41391022080E+02  0.12700000000E+01 0.  1.
         25    2    1    2    0    0  0.00000000000E+00  0.00000000000E+00  0.52999332391E+02  0.13577043342E+03  0.12499872543E+03 0.  0.
    9000005    1    3    3    0    0  0.41859702808E+00 -0.62407998930E+02  0.23024453244E+02  0.66528632942E+02  0.10000000000E+01 0.  0.
    9000005    1    3    3    0    0 -0.41859702808E+00  0.62407998930E+02  0.29974879147E+02  0.69241800481E+02  0.10000000000E+01 0.  0.
<mgrwt>
<rscale>  0 0.12499873E+03</rscale>
<asrwt>0</asrwt>
<pdfrwt beam="2">  1        4 0.63670078E-02 0.12499873E+03</pdfrwt>
<pdfrwt beam="1">  1       -4 0.14520751E-01 0.12499873E+03</pdfrwt>
<totfact> 0.10222151E+04</totfact>
</mgrwt>
</event>
<event>
 5    1  0.3179758E-002  0.1249987E+03  0.7818608E-02  0.1235071E+00
          4   -1    0    0  501    0  0.00000000000E+00  0.00000000000E+00  0.18615487983E+02  0.18658759145E+02  0.12700000000E+01 0.  1.
         -4   -1    0    0    0  501 -0.00000000000E+00 -0.00000000000E+00 -0.20954554650E+03  0.20954939503E+03  0.12700000000E+01 0.  1.
         25    2    1    2    0    0  0.00000000000E+00  0.00000000000E+00 -0.19093005852E+03  0.22820815418E+03  0.12499869754E+03 0.  0.
    9000005    1    3    3    0    0 -0.68670495632E+01  0.16837190636E+02  0.13687703044E+02  0.22781584072E+02  0.10000000000E+01 0.  0.
    9000005    1    3    3    0    0  0.68670495632E+01 -0.16837190636E+02 -0.20461776156E+03  0.20542657011E+03  0.10000000000E+01 0.  0.
<mgrwt>
<rscale>  0 0.12499870E+03</rscale>
<asrwt>0</asrwt>
<pdfrwt beam="1">  1        4 0.28675460E-02 0.12499870E+03</pdfrwt>
<pdfrwt beam="2">  1       -4 0.32241399E-01 0.12499870E+03</pdfrwt>
<totfact> 0.85587986E+03</totfact>
</mgrwt>
</event>
<event>
 5    1  0.3179758E-002  0.1249899E+03  0.7818608E-02  0.1235085E+00
         -4   -1    0    0    0  501 -0.00000000000E+00  0.00000000000E+00  0.18856364638E+03  0.18856792313E+03  0.12700000000E+01 0.  1.
          4   -1    0    0  501    0  0.00000000000E+00 -0.00000000000E+00 -0.20688471115E+02  0.20727415108E+02  0.12700000000E+01 0.  1.
         25    2    1    2    0    0  0.00000000000E+00  0.00000000000E+00  0.16787517526E+03  0.20929533824E+03  0.12498985615E+03 0.  0.
    9000005    1    3    3    0    0 -0.34900557816E+02  0.32328262781E+02  0.16095580925E+02  0.50231795067E+02  0.10000000000E+01 0.  0.
    9000005    1    3    3    0    0  0.34900557816E+02 -0.32328262781E+02  0.15177959434E+03  0.15906354317E+03  0.10000000000E+01 0.  0.
<mgrwt>
<rscale>  0 0.12498986E+03</rscale>
<asrwt>0</asrwt>
<pdfrwt beam="2">  1        4 0.31861664E-02 0.12498986E+03</pdfrwt>
<pdfrwt beam="1">  1       -4 0.29013116E-01 0.12498986E+03</pdfrwt>
<totfact> 0.88611185E+03</totfact>
</mgrwt>
</event>
<event>
 5    1  0.3179758E-002  0.1250085E+03  0.7818608E-02  0.1235056E+00
          4   -1    0    0  501    0  0.00000000000E+00  0.00000000000E+00  0.19787179850E+02  0.19827894150E+02  0.12700000000E+01 0. -1.
         -4   -1    0    0    0  501 -0.00000000000E+00 -0.00000000000E+00 -0.19719430022E+03  0.19719838980E+03  0.12700000000E+01 0. -1.
         25    2    1    2    0    0  0.00000000000E+00  0.00000000000E+00 -0.17740712037E+03  0.21702628395E+03  0.12500848598E+03 0.  0.
    9000005    1    3    3    0    0  0.39766511017E+02 -0.17496066452E+02 -0.16669822723E+03  0.17226951762E+03  0.10000000000E+01 0.  0.
    9000005    1    3    3    0    0 -0.39766511017E+02  0.17496066452E+02 -0.10708893139E+02  0.44756766327E+02  0.10000000000E+01 0.  0.
<mgrwt>
<rscale>  0 0.12500849E+03</rscale>
<asrwt>0</asrwt>
<pdfrwt beam="1">  1        4 0.30476281E-02 0.12500849E+03</pdfrwt>
<pdfrwt beam="2">  1       -4 0.30341030E-01 0.12500849E+03</pdfrwt>
<totfact> 0.87324542E+03</totfact>
</mgrwt>
</event>
<event>
 5    1  0.3179758E-002  0.1250021E+03  0.7818608E-02  0.1235066E+00
          4   -1    0    0  501    0  0.00000000000E+00  0.00000000000E+00  0.19901504092E+03  0.19901909309E+03  0.12700000000E+01 0.  1.
         -4   -1    0    0    0  501 -0.00000000000E+00 -0.00000000000E+00 -0.19603773744E+02  0.19644868159E+02  0.12700000000E+01 0.  1.
         25    2    1    2    0    0  0.00000000000E+00  0.00000000000E+00  0.17941126718E+03  0.21866396124E+03  0.12500210061E+03 0.  0.
    9000005    1    3    3    0    0  0.36659483611E+02 -0.21479221620E+02  0.16986985317E+03  0.17510580149E+03  0.10000000000E+01 0.  0.
    9000005    1    3    3    0    0 -0.36659483611E+02  0.21479221620E+02  0.95414140099E+01  0.43558159756E+02  0.10000000000E+01 0.  0.
<mgrwt>
<rscale>  0 0.12500210E+03</rscale>
<asrwt>0</asrwt>
<pdfrwt beam="1">  1        4 0.30621173E-01 0.12500210E+03</pdfrwt>
<pdfrwt beam="2">  1       -4 0.30194379E-02 0.12500210E+03</pdfrwt>
<totfact> 0.87076114E+03</totfact>
</mgrwt>
</event>
<event>
 5    1  0.3179758E-002  0.1249897E+03  0.7818608E-02  0.1235085E+00
          4   -1    0    0  501    0  0.00000000000E+00  0.00000000000E+00  0.49308978359E+01  0.50918222149E+01  0.12700000000E+01 0. -1.
         -4   -1    0    0    0  501 -0.00000000000E+00 -0.00000000000E+00 -0.77918938247E+03  0.77919041746E+03  0.12700000000E+01 0. -1.
         25    2    1    2    0    0  0.00000000000E+00  0.00000000000E+00 -0.77425848463E+03  0.78428223967E+03  0.12498972131E+03 0.  0.
    9000005    1    3    3    0    0 -0.36020561051E+01 -0.24059044935E+01 -0.77827694613E+03  0.77828964278E+03  0.10000000000E+01 0.  0.
    9000005    1    3    3    0    0  0.36020561051E+01  0.24059044935E+01  0.40184614984E+01  0.59925968853E+01  0.10000000000E+01 0.  0.
<mgrwt>
<rscale>  0 0.12498972E+03</rscale>
<asrwt>0</asrwt>
<pdfrwt beam="1">  1        4 0.77105870E-03 0.12498972E+03</pdfrwt>
<pdfrwt beam="2">  1       -4 0.11988765E+00 0.12498972E+03</pdfrwt>
<totfact> 0.38984897E+03</totfact>
</mgrwt>
</event>
<event>
 5    1  0.3179758E-002  0.1250008E+03  0.7818608E-02  0.1235068E+00
          4   -1    0    0  501    0  0.00000000000E+00  0.00000000000E+00  0.19485222950E+03  0.19485636823E+03  0.12700000000E+01 0.  1.
         -4   -1    0    0    0  501 -0.00000000000E+00 -0.00000000000E+00 -0.20023023438E+02  0.20063259147E+02  0.12700000000E+01 0.  1.
         25    2    1    2    0    0  0.00000000000E+00  0.00000000000E+00  0.17482920606E+03  0.21491962738E+03  0.12500077976E+03 0.  0.
    9000005    1    3    3    0    0 -0.24594543388E+02 -0.57055683870E+02  0.75873689216E+02  0.98071705102E+02  0.10000000000E+01 0.  0.
    9000005    1    3    3    0    0  0.24594543388E+02  0.57055683870E+02  0.98955516843E+02  0.11684792228E+03  0.10000000000E+01 0.  0.
<mgrwt>
<rscale>  0 0.12500078E+03</rscale>
<asrwt>0</asrwt>
<pdfrwt beam="1">  1        4 0.29980680E-01 0.12500078E+03</pdfrwt>
<pdfrwt beam="2">  1       -4 0.30838785E-02 0.12500078E+03</pdfrwt>
<totfact> 0.87677162E+03</totfact>
</mgrwt>
</event>
<event>
 5    1  0.3179758E-002  0.1250030E+03  0.7818608E-02  0.1235065E+00
          4   -1    0    0  501    0  0.00000000000E+00  0.00000000000E+00  0.29382853764E+03  0.29383128226E+03  0.12700000000E+01 0. -1.
         -4   -1    0    0    0  501 -0.00000000000E+00 -0.00000000000E+00 -0.13261817505E+02  0.13322488639E+02  0.12700000000E+01 0. -1.
         25    2    1    2    0    0  0.00000000000E+00  0.00000000000E+00  0.28056672014E+03  0.30715377090E+03  0.12500301807E+03 0.  0.
    9000005    1    3    3    0    0 -0.82344664786E+01 -0.61377378905E+02  0.11965928541E+03  0.13473801863E+03  0.10000000000E+01 0.  0.
    9000005    1    3    3    0    0  0.82344664786E+01  0.61377378905E+02  0.16090743472E+03  0.17241575226E+03  0.10000000000E+01 0.  0.
<mgrwt>
<rscale>  0 0.12500302E+03</rscale>
<asrwt>0</asrwt>
<pdfrwt beam="1">  1        4 0.45209266E-01 0.12500302E+03</pdfrwt>
<pdfrwt beam="2">  1       -4 0.20451579E-02 0.12500302E+03</pdfrwt>
<totfact> 0.74705154E+03</totfact>
</mgrwt>
</event>
<event>
 5    1  0.3179758E-002  0.1250014E+03  0.7818608E-02  0.1235067E+00
          4   -1    0    0  501    0  0.00000000000E+00  0.00000000000E+00  0.32322840140E+03  0.32323089637E+03  0.12700000000E+01 0.  1.
         -4   -1    0    0    0  501 -0.00000000000E+00 -0.00000000000E+00 -0.12049467221E+02  0.12116210641E+02  0.12700000000E+01 0.  1.
         25    2    1    2    0    0  0.00000000000E+00  0.00000000000E+00  0.31117893418E+03  0.33534710701E+03  0.12500141242E+03 0.  0.
    9000005    1    3    3    0    0  0.19926941113E+02 -0.56967169655E+02  0.19909604645E+03  0.20804465173E+03  0.10000000000E+01 0.  0.
    9000005    1    3    3    0    0 -0.19926941113E+02  0.56967169655E+02  0.11208288773E+03  0.12730245529E+03  0.10000000000E+01 0.  0.
<mgrwt>
<rscale>  0 0.12500141E+03</rscale>
<asrwt>0</asrwt>
<pdfrwt beam="1">  1        4 0.49732767E-01 0.12500141E+03</pdfrwt>
<pdfrwt beam="2">  1       -4 0.18590904E-02 0.12500141E+03</pdfrwt>
<totfact> 0.71364986E+03</totfact>
</mgrwt>
</event>
<event>
 5    1  0.3179758E-002  0.1249966E+03  0.7818608E-02  0.1235075E+00
         -4   -1    0    0    0  501 -0.00000000000E+00  0.00000000000E+00  0.41412849568E+01  0.43316441559E+01  0.12700000000E+01 0.  1.
          4   -1    0    0  501    0  0.00000000000E+00 -0.00000000000E+00 -0.92181378482E+03  0.92181465967E+03  0.12700000000E+01 0.  1.
         25    2    1    2    0    0  0.00000000000E+00  0.00000000000E+00 -0.91767249986E+03  0.92614630383E+03  0.12499663630E+03 0.  0.
    9000005    1    3    3    0    0 -0.62408427728E+02  0.82251312919E+00 -0.43593735019E+03  0.44038376636E+03  0.10000000000E+01 0.  0.
    9000005    1    3    3    0    0  0.62408427728E+02 -0.82251312919E+00 -0.48173514967E+03  0.48576253747E+03  0.10000000000E+01 0.  0.
<mgrwt>
<rscale>  0 0.12499664E+03</rscale>
<asrwt>0</asrwt>
<pdfrwt beam="2">  1        4 0.14183206E+00 0.12499664E+03</pdfrwt>
<pdfrwt beam="1">  1       -4 0.65183181E-03 0.12499664E+03</pdfrwt>
<totfact> 0.33180763E+03</totfact>
</mgrwt>
</event>
<event>
 5    1  0.3179758E-002  0.1250015E+03  0.7818608E-02  0.1235067E+00
         -4   -1    0    0    0  501 -0.00000000000E+00  0.00000000000E+00  0.85119003743E+01  0.86061227032E+01  0.12700000000E+01 0.  1.
          4   -1    0    0  501    0  0.00000000000E+00 -0.00000000000E+00 -0.45630633326E+03  0.45630810060E+03  0.12700000000E+01 0.  1.
         25    2    1    2    0    0  0.00000000000E+00  0.00000000000E+00 -0.44779443289E+03  0.46491422331E+03  0.12500152362E+03 0.  0.
    9000005    1    3    3    0    0 -0.23006666643E+02  0.43397817813E+02 -0.80203053524E+02  0.94054277391E+02  0.10000000000E+01 0.  0.
    9000005    1    3    3    0    0  0.23006666643E+02 -0.43397817813E+02 -0.36759137937E+03  0.37085994592E+03  0.10000000000E+01 0.  0.
<mgrwt>
<rscale>  0 0.12500152E+03</rscale>
<asrwt>0</asrwt>
<pdfrwt beam="2">  1        4 0.70208339E-01 0.12500152E+03</pdfrwt>
<pdfrwt beam="1">  1       -4 0.13169073E-02 0.12500152E+03</pdfrwt>
<totfact> 0.58691245E+03</totfact>
</mgrwt>
</event>
<event>
 5    1  0.3179758E-002  0.1249863E+03  0.7818608E-02  0.1235091E+00
          4   -1    0    0  501    0  0.00000000000E+00  0.00000000000E+00  0.13765076644E+02  0.13823539164E+02  0.12700000000E+01 0. -1.
         -4   -1    0    0    0  501 -0.00000000000E+00 -0.00000000000E+00 -0.28305644586E+03  0.28305929492E+03  0.12700000000E+01 0. -1.
         25    2    1    2    0    0  0.00000000000E+00  0.00000000000E+00 -0.26929136921E+03  0.29688283409E+03  0.12498630182E+03 0.  0.
    9000005    1    3    3    0    0  0.36824996472E+02  0.28518876950E+02 -0.23358543425E+03  0.23818598153E+03  0.10000000000E+01 0.  0.
    9000005    1    3    3    0    0 -0.36824996472E+02 -0.28518876950E+02 -0.35705934970E+02  0.58696852554E+02  0.10000000000E+01 0.  0.
<mgrwt>
<rscale>  0 0.12498630E+03</rscale>
<asrwt>0</asrwt>
<pdfrwt beam="1">  1        4 0.21224206E-02 0.12498630E+03</pdfrwt>
<pdfrwt beam="2">  1       -4 0.43551857E-01 0.12498630E+03</pdfrwt>
<totfact> 0.76014641E+03</totfact>
</mgrwt>
</event>
<event>
 5    1  0.3179758E-002  0.1250010E+03  0.7818608E-02  0.1235068E+00
         -4   -1    0    0    0  501 -0.00000000000E+00  0.00000000000E+00  0.34404660828E+03  0.34404895229E+03  0.12700000000E+01 0. -1.
          4   -1    0    0  501    0  0.00000000000E+00 -0.00000000000E+00 -0.11316119557E+02  0.11387162150E+02  0.12700000000E+01 0. -1.
         25    2    1    2    0    0  0.00000000000E+00  0.00000000000E+00  0.33273048873E+03  0.35543611444E+03  0.12500101327E+03 0.  0.
    9000005    1    3    3    0    0 -0.32478701488E+00 -0.32734149980E+02  0.15000869323E+02  0.36022994628E+02  0.10000000000E+01 0.  0.
    9000005    1    3    3    0    0  0.32478701488E+00  0.32734149980E+02  0.31772961940E+03  0.31941311981E+03  0.10000000000E+01 0.  0.
<mgrwt>
<rscale>  0 0.12500101E+03</rscale>
<asrwt>0</asrwt>
<pdfrwt beam="2">  1        4 0.17465864E-02 0.12500101E+03</pdfrwt>
<pdfrwt beam="1">  1       -4 0.52935899E-01 0.12500101E+03</pdfrwt>
<totfact> 0.69129072E+03</totfact>
</mgrwt>
</event>
<event>
 5    1  0.3179758E-002  0.1250031E+03  0.7818608E-02  0.1235065E+00
         -4   -1    0    0    0  501 -0.00000000000E+00  0.00000000000E+00  0.13650336199E+03  0.13650926977E+03  0.12700000000E+01 0. -1.
          4   -1    0    0  501    0  0.00000000000E+00 -0.00000000000E+00 -0.28597288487E+02  0.28625474822E+02  0.12700000000E+01 0. -1.
         25    2    1    2    0    0  0.00000000000E+00  0.00000000000E+00  0.10790607350E+03  0.16513474459E+03  0.12500305266E+03 0.  0.
    9000005    1    3    3    0    0 -0.37552273387E+02  0.39553690924E+02  0.94256257180E+02  0.10890321262E+03  0.10000000000E+01 0.  0.
    9000005    1    3    3    0    0  0.37552273387E+02 -0.39553690924E+02  0.13649816321E+02  0.56231531971E+02  0.10000000000E+01 0.  0.
<mgrwt>
<rscale>  0 0.12500305E+03</rscale>
<asrwt>0</asrwt>
<pdfrwt beam="2">  1        4 0.44022056E-02 0.12500305E+03</pdfrwt>
<pdfrwt beam="1">  1       -4 0.21003139E-01 0.12500305E+03</pdfrwt>
<totfact> 0.96355272E+03</totfact>
</mgrwt>
</event>
<event>
 5    1  0.3179758E-002  0.1250022E+03  0.7818608E-02  0.1235066E+00
         -4   -1    0    0    0  501 -0.00000000000E+00  0.00000000000E+00  0.62208021367E+03  0.62208151004E+03  0.12700000000E+01 0. -1.
          4   -1    0    0  501    0  0.00000000000E+00 -0.00000000000E+00 -0.62140307829E+01  0.63424820513E+01  0.12700000000E+01 0. -1.
         25    2    1    2    0    0  0.00000000000E+00  0.00000000000E+00  0.61586618289E+03  0.62842399209E+03  0.12500223445E+03 0.  0.
    9000005    1    3    3    0    0  0.29578206776E+01  0.48013492476E+02  0.10738560641E+03  0.11767205542E+03  0.10000000000E+01 0.  0.
    9000005    1    3    3    0    0 -0.29578206776E+01 -0.48013492476E+02  0.50848057648E+03  0.51075193667E+03  0.10000000000E+01 0.  0.
<mgrwt>
<rscale>  0 0.12500223E+03</rscale>
<asrwt>0</asrwt>
<pdfrwt beam="2">  1        4 0.96598501E-03 0.12500223E+03</pdfrwt>
<pdfrwt beam="1">  1       -4 0.95714660E-01 0.12500223E+03</pdfrwt>
<totfact> 0.47118874E+03</totfact>
</mgrwt>
</event>
<event>
 5    1  0.3179758E-002  0.1249827E+03  0.7818608E-02  0.1235096E+00
          4   -1    0    0  501    0  0.00000000000E+00  0.00000000000E+00  0.12928276767E+02  0.12990505770E+02  0.12700000000E+01 0.  1.
         -4   -1    0    0    0  501 -0.00000000000E+00 -0.00000000000E+00 -0.30127551974E+03  0.30127819651E+03  0.12700000000E+01 0.  1.
         25    2    1    2    0    0  0.00000000000E+00  0.00000000000E+00 -0.28834724297E+03  0.31426870228E+03  0.12498273763E+03 0.  0.
    9000005    1    3    3    0    0  0.27735019443E+02  0.16339745311E+02 -0.95140949106E+01  0.33581789445E+02  0.10000000000E+01 0.  0.
    9000005    1    3    3    0    0 -0.27735019443E+02 -0.16339745311E+02 -0.27883314806E+03  0.28068691283E+03  0.10000000000E+01 0.  0.
<mgrwt>
<rscale>  0 0.12498274E+03</rscale>
<asrwt>0</asrwt>
<pdfrwt beam="1">  1        4 0.19939586E-02 0.12498274E+03</pdfrwt>
<pdfrwt beam="2">  1       -4 0.46355068E-01 0.12498274E+03</pdfrwt>
<totfact> 0.73871288E+03</totfact>
</mgrwt>
</event>
<event>
 5    1  0.3179758E-002  0.1250207E+03  0.7818608E-02  0.1235037E+00
          4   -1    0    0  501    0  0.00000000000E+00  0.00000000000E+00  0.16767286763E+02  0.16815314609E+02  0.12700000000E+01 0. -1.
         -4   -1    0    0    0  501 -0.00000000000E+00 -0.00000000000E+00 -0.23266270246E+03  0.23266616861E+03  0.12700000000E+01 0. -1.
         25    2    1    2    0    0  0.00000000000E+00  0.00000000000E+00 -0.21589541570E+03  0.24948148322E+03  0.12502071809E+03 0.  0.
    9000005    1    3    3    0    0 -0.34381703377E+01  0.59560475165E+02 -0.70760607170E+02  0.92559898143E+02  0.10000000000E+01 0.  0.
    9000005    1    3    3    0    0  0.34381703377E+01 -0.59560475165E+02 -0.14513480853E+03  0.15692158508E+03  0.10000000000E+01 0.  0.
<mgrwt>
<rscale>  0 0.12502072E+03</rscale>
<asrwt>0</asrwt>
<pdfrwt beam="1">  1        4 0.25835438E-02 0.12502072E+03</pdfrwt>
<pdfrwt beam="2">  1       -4 0.35798221E-01 0.12502072E+03</pdfrwt>
<totfact> 0.82367206E+03</totfact>
</mgrwt>
</event>
<event>
 5    1  0.3179758E-002  0.1249997E+03  0.7818608E-02  0.1235070E+00
         -4   -1    0    0    0  501 -0.00000000000E+00  0.00000000000E+00  0.28843285933E+02  0.28871232107E+02  0.12700000000E+01 0.  1.
          4   -1    0    0  501    0  0.00000000000E+00 -0.00000000000E+00 -0.13533300492E+03  0.13533896380E+03  0.12700000000E+01 0.  1.
         25    2    1    2    0    0  0.00000000000E+00  0.00000000000E+00 -0.10648971899E+03  0.16421019590E+03  0.12499971275E+03 0.  0.
    9000005    1    3    3    0    0 -0.52845954598E+02  0.22332300741E+02 -0.85791523650E+02  0.10321149211E+03  0.10000000000E+01 0.  0.
    9000005    1    3    3    0    0  0.52845954598E+02 -0.22332300741E+02 -0.20698195339E+02  0.60998703790E+02  0.10000000000E+01 0.  0.
<mgrwt>
<rscale>  0 0.12499971E+03</rscale>
<asrwt>0</asrwt>
<pdfrwt beam="2">  1        4 0.20823070E-01 0.12499971E+03</pdfrwt>
<pdfrwt beam="1">  1       -4 0.44400368E-02 0.12499971E+03</pdfrwt>
<totfact> 0.96537801E+03</totfact>
</mgrwt>
</event>
<event>
 5    1  0.3179758E-002  0.1249992E+03  0.7818608E-02  0.1235071E+00
         -4   -1    0    0    0  501 -0.00000000000E+00  0.00000000000E+00  0.47552201083E+01  0.49218917378E+01  0.12700000000E+01 0.  1.
          4   -1    0    0  501    0  0.00000000000E+00 -0.00000000000E+00 -0.80713946405E+03  0.80714046320E+03  0.12700000000E+01 0.  1.
         25    2    1    2    0    0  0.00000000000E+00  0.00000000000E+00 -0.80238424394E+03  0.81206235494E+03  0.12499917349E+03 0.  0.
    9000005    1    3    3    0    0 -0.52666783795E+01  0.13873734775E+02 -0.68258182360E+01  0.16364907954E+02  0.10000000000E+01 0.  0.
    9000005    1    3    3    0    0  0.52666783795E+01 -0.13873734775E+02 -0.79555842571E+03  0.79569744698E+03  0.10000000000E+01 0.  0.
<mgrwt>
<rscale>  0 0.12499917E+03</rscale>
<asrwt>0</asrwt>
<pdfrwt beam="2">  1        4 0.12418809E+00 0.12499917E+03</pdfrwt>
<pdfrwt beam="1">  1       -4 0.74447072E-03 0.12499917E+03</pdfrwt>
<totfact> 0.37732583E+03</totfact>
</mgrwt>
</event>
<event>
 5    1  0.3179758E-002  0.1249987E+03  0.7818608E-02  0.1235071E+00
          4   -1    0    0  501    0  0.00000000000E+00  0.00000000000E+00  0.16480367621E+03  0.16480856954E+03  0.12700000000E+01 0. -1.
         -4   -1    0    0    0  501 -0.00000000000E+00 -0.00000000000E+00 -0.23679694943E+02  0.23713727092E+02  0.12700000000E+01 0. -1.
         25    2    1    2    0    0  0.00000000000E+00  0.00000000000E+00  0.14112398127E+03  0.18852229663E+03  0.12499871294E+03 0.  0.
    9000005    1    3    3    0    0  0.50159264696E+02  0.45780610668E+01  0.12635006231E+03  0.13602297131E+03  0.10000000000E+01 0.  0.
    9000005    1    3    3    0    0 -0.50159264696E+02 -0.45780610668E+01  0.14773918963E+02  0.52499325324E+02  0.10000000000E+01 0.  0.
<mgrwt>
<rscale>  0 0.12499871E+03</rscale>
<asrwt>0</asrwt>
<pdfrwt beam="1">  1        4 0.25357406E-01 0.12499871E+03</pdfrwt>
<pdfrwt beam="2">  1       -4 0.36460242E-02 0.12499871E+03</pdfrwt>
<totfact> 0.92107722E+03</totfact>
</mgrwt>
</event>
<event>
 5    1  0.3179758E-002  0.1249999E+03  0.7818608E-02  0.1235069E+00
          4   -1    0    0  501    0  0.00000000000E+00  0.00000000000E+00  0.42663906983E+02  0.42682805192E+02  0.12700000000E+01 0. -1.
         -4   -1    0    0    0  501 -0.00000000000E+00 -0.00000000000E+00 -0.91514934302E+02  0.91523746101E+02  0.12700000000E+01 0. -1.
         25    2    1    2    0    0  0.00000000000E+00  0.00000000000E+00 -0.48851027319E+02  0.13420655129E+03  0.12499990216E+03 0.  0.
    9000005    1    3    3    0    0 -0.22113825944E+02  0.27980897133E+02 -0.79520686750E+02  0.87157854054E+02  0.10000000000E+01 0.  0.
    9000005    1    3    3    0    0  0.22113825944E+02 -0.27980897133E+02  0.30669659430E+02  0.47048697238E+02  0.10000000000E+01 0.  0.
<mgrwt>
<rscale>  0 0.12499990E+03</rscale>
<asrwt>0</asrwt>
<pdfrwt beam="1">  1        4 0.65658096E-02 0.12499990E+03</pdfrwt>
<pdfrwt beam="2">  1       -4 0.14081352E-01 0.12499990E+03</pdfrwt>
<totfact> 0.10254845E+04</totfact>
</mgrwt>
</event>
<event>
 5    1  0.3179758E-002  0.1250009E+03  0.7818608E-02  0.1235068E+00
          4   -1    0    0  501    0  0.00000000000E+00  0.00000000000E+00  0.21996922077E+03  0.21997288693E+03  0.12700000000E+01 0. -1.
         -4   -1    0    0    0  501 -0.00000000000E+00 -0.00000000000E+00 -0.17731885400E+02  0.17777307440E+02  0.12700000000E+01 0. -1.
         25    2    1    2    0    0  0.00000000000E+00  0.00000000000E+00  0.20223733537E+03  0.23775019437E+03  0.12500086043E+03 0.  0.
    9000005    1    3    3    0    0 -0.58363116782E+02 -0.94524929573E+01  0.13961694171E+03  0.15162286581E+03  0.10000000000E+01 0.  0.
    9000005    1    3    3    0    0  0.58363116782E+02  0.94524929573E+01  0.62620393659E+02  0.86127328564E+02  0.10000000000E+01 0.  0.
<mgrwt>
<rscale>  0 0.12500086E+03</rscale>
<asrwt>0</asrwt>
<pdfrwt beam="1">  1        4 0.33845193E-01 0.12500086E+03</pdfrwt>
<pdfrwt beam="2">  1       -4 0.27317585E-02 0.12500086E+03</pdfrwt>
<totfact> 0.84131967E+03</totfact>
</mgrwt>
</event>
<event>
 5    1  0.3179758E-002  0.1249960E+03  0.7818608E-02  0.1235076E+00
         -4   -1    0    0    0  501 -0.00000000000E+00  0.00000000000E+00  0.43770478233E+03  0.43770662478E+03  0.12700000000E+01 0.  1.
          4   -1    0    0  501    0  0.00000000000E+00 -0.00000000000E+00 -0.88767623455E+01  0.89671517071E+01  0.12700000000E+01 0.  1.
         25    2    1    2    0    0  0.00000000000E+00  0.00000000000E+00  0.42882801998E+03  0.44667377648E+03  0.12499596744E+03 0.  0.
    9000005    1    3    3    0    0  0.41487607511E+02 -0.41293761941E+02  0.29259146619E+03  0.29839095569E+03  0.10000000000E+01 0.  0.
    9000005    1    3    3    0    0 -0.41487607511E+02  0.41293761941E+02  0.13623655379E+03  0.14828282079E+03  0.10000000000E+01 0.  0.
<mgrwt>
<rscale>  0 0.12499597E+03</rscale>
<asrwt>0</asrwt>
<pdfrwt beam="2">  1        4 0.13727507E-02 0.12499597E+03</pdfrwt>
<pdfrwt beam="1">  1       -4 0.67346285E-01 0.12499597E+03</pdfrwt>
<totfact> 0.60258387E+03</totfact>
</mgrwt>
</event>
<event>
 5    1  0.3179758E-002  0.1250269E+03  0.7818608E-02  0.1235027E+00
          4   -1    0    0  501    0  0.00000000000E+00  0.00000000000E+00  0.10108954563E+03  0.10109752289E+03  0.12700000000E+01 0. -1.
         -4   -1    0    0    0  501 -0.00000000000E+00 -0.00000000000E+00 -0.38638177923E+02  0.38659044132E+02  0.12700000000E+01 0. -1.
         25    2    1    2    0    0  0.00000000000E+00  0.00000000000E+00  0.62451367704E+02  0.13975656703E+03  0.12502689590E+03 0.  0.
    9000005    1    3    3    0    0  0.47178415538E+02  0.40550883575E+00 -0.14604116087E+02  0.49398861695E+02  0.10000000000E+01 0.  0.
    9000005    1    3    3    0    0 -0.47178415538E+02 -0.40550883575E+00  0.77055483791E+02  0.90357705330E+02  0.10000000000E+01 0.  0.
<mgrwt>
<rscale>  0 0.12502690E+03</rscale>
<asrwt>0</asrwt>
<pdfrwt beam="1">  1        4 0.15554456E-01 0.12502690E+03</pdfrwt>
<pdfrwt beam="2">  1       -4 0.59465538E-02 0.12502690E+03</pdfrwt>
<totfact> 0.10132492E+04</totfact>
</mgrwt>
</event>
<event>
 5    1  0.3179758E-002  0.1250004E+03  0.7818608E-02  0.1235069E+00
          4   -1    0    0  501    0  0.00000000000E+00  0.00000000000E+00  0.23218596643E+01  0.26464943417E+01  0.12700000000E+01 0. -1.
         -4   -1    0    0    0  501 -0.00000000000E+00 -0.00000000000E+00 -0.15721367793E+04  0.15721372922E+04  0.12700000000E+01 0. -1.
         25    2    1    2    0    0  0.00000000000E+00  0.00000000000E+00 -0.15698149196E+04  0.15747837866E+04  0.12500037058E+03 0.  0.
    9000005    1    3    3    0    0  0.44593009794E+02  0.27199479830E+02 -0.35270820224E+03  0.35655634079E+03  0.10000000000E+01 0.  0.
    9000005    1    3    3    0    0 -0.44593009794E+02 -0.27199479830E+02 -0.12171067174E+04  0.12182274458E+04  0.10000000000E+01 0.  0.
<mgrwt>
<rscale>  0 0.12500037E+03</rscale>
<asrwt>0</asrwt>
<pdfrwt beam="1">  1        4 0.38222179E-03 0.12500037E+03</pdfrwt>
<pdfrwt beam="2">  1       -4 0.24189141E+00 0.12500037E+03</pdfrwt>
<totfact> 0.16506284E+03</totfact>
</mgrwt>
</event>
<event>
 5    1  0.3179758E-002  0.1250003E+03  0.7818608E-02  0.1235069E+00
          4   -1    0    0  501    0  0.00000000000E+00  0.00000000000E+00  0.41063316623E+02  0.41082951112E+02  0.12700000000E+01 0. -1.
         -4   -1    0    0    0  501 -0.00000000000E+00 -0.00000000000E+00 -0.95081326679E+02  0.95089807988E+02  0.12700000000E+01 0. -1.
         25    2    1    2    0    0  0.00000000000E+00  0.00000000000E+00 -0.54018010056E+02  0.13617275910E+03  0.12500029964E+03 0.  0.
    9000005    1    3    3    0    0  0.47107190770E+02 -0.14699055992E+02  0.14760125681E+02  0.51517094051E+02  0.10000000000E+01 0.  0.
    9000005    1    3    3    0    0 -0.47107190770E+02  0.14699055992E+02 -0.68778135737E+02  0.84655665049E+02  0.10000000000E+01 0.  0.
<mgrwt>
<rscale>  0 0.12500030E+03</rscale>
<asrwt>0</asrwt>
<pdfrwt beam="1">  1        4 0.63195961E-02 0.12500030E+03</pdfrwt>
<pdfrwt beam="2">  1       -4 0.14630059E-01 0.12500030E+03</pdfrwt>
<totfact> 0.10213342E+04</totfact>
</mgrwt>
</event>
<event>
 5    1  0.3179758E-002  0.1250001E+03  0.7818608E-02  0.1235069E+00
         -4   -1    0    0    0  501 -0.00000000000E+00  0.00000000000E+00  0.10720074186E+03  0.10720826440E+03  0.12700000000E+01 0. -1.
          4   -1    0    0  501    0  0.00000000000E+00 -0.00000000000E+00 -0.36418837119E+02  0.36440974151E+02  0.12700000000E+01 0. -1.
         25    2    1    2    0    0  0.00000000000E+00  0.00000000000E+00  0.70781904746E+02  0.14364923855E+03  0.12500010279E+03 0.  0.
    9000005    1    3    3    0    0 -0.10767990053E+01 -0.42769975120E+01  0.10702729681E+03  0.10712280087E+03  0.10000000000E+01 0.  0.
    9000005    1    3    3    0    0  0.10767990053E+01  0.42769975120E+01 -0.36245392066E+02  0.36526437683E+02  0.10000000000E+01 0.  0.
<mgrwt>
<rscale>  0 0.12500010E+03</rscale>
<asrwt>0</asrwt>
<pdfrwt beam="2">  1        4 0.56051795E-02 0.12500010E+03</pdfrwt>
<pdfrwt beam="1">  1       -4 0.16494703E-01 0.12500010E+03</pdfrwt>
<totfact> 0.10058482E+04</totfact>
</mgrwt>
</event>
<event>
 5    1  0.3179758E-002  0.1249998E+03  0.7818608E-02  0.1235070E+00
         -4   -1    0    0    0  501 -0.00000000000E+00  0.00000000000E+00  0.23321780050E+02  0.23356333717E+02  0.12700000000E+01 0.  1.
          4   -1    0    0  501    0  0.00000000000E+00 -0.00000000000E+00 -0.16733205578E+03  0.16733687517E+03  0.12700000000E+01 0.  1.
         25    2    1    2    0    0  0.00000000000E+00  0.00000000000E+00 -0.14401027573E+03  0.19069320889E+03  0.12499976160E+03 0.  0.
    9000005    1    3    3    0    0  0.11486729503E+02  0.36649157975E+02  0.31988271742E+01  0.38553057339E+02  0.10000000000E+01 0.  0.
    9000005    1    3    3    0    0 -0.11486729503E+02 -0.36649157975E+02 -0.14720910291E+03  0.15214015155E+03  0.10000000000E+01 0.  0.
<mgrwt>
<rscale>  0 0.12499976E+03</rscale>
<asrwt>0</asrwt>
<pdfrwt beam="2">  1        4 0.25746421E-01 0.12499976E+03</pdfrwt>
<pdfrwt beam="1">  1       -4 0.35909950E-02 0.12499976E+03</pdfrwt>
<totfact> 0.91727328E+03</totfact>
</mgrwt>
</event>
<event>
 5    1  0.3179758E-002  0.1250003E+03  0.7818608E-02  0.1235069E+00
          4   -1    0    0  501    0  0.00000000000E+00  0.00000000000E+00  0.10228736085E+03  0.10229524470E+03  0.12700000000E+01 0.  1.
         -4   -1    0    0    0  501 -0.00000000000E+00 -0.00000000000E+00 -0.38169262147E+02  0.38190384560E+02  0.12700000000E+01 0.  1.
         25    2    1    2    0    0  0.00000000000E+00  0.00000000000E+00  0.64118098701E+02  0.14048562926E+03  0.12500032579E+03 0.  0.
    9000005    1    3    3    0    0  0.33013093620E+02 -0.20644733262E+00 -0.27574132924E+02  0.43026036041E+02  0.10000000000E+01 0.  0.
    9000005    1    3    3    0    0 -0.33013093620E+02  0.20644733262E+00  0.91692231625E+02  0.97459593223E+02  0.10000000000E+01 0.  0.
<mgrwt>
<rscale>  0 0.12500033E+03</rscale>
<asrwt>0</asrwt>
<pdfrwt beam="1">  1        4 0.15738748E-01 0.12500033E+03</pdfrwt>
<pdfrwt beam="2">  1       -4 0.58744255E-02 0.12500033E+03</pdfrwt>
<totfact> 0.10123457E+04</totfact>
</mgrwt>
</event>
<event>
 5    1  0.3179758E-002  0.1250003E+03  0.7818608E-02  0.1235069E+00
          4   -1    0    0  501    0  0.00000000000E+00  0.00000000000E+00  0.17313824002E+02  0.17360339904E+02  0.12700000000E+01 0. -1.
         -4   -1    0    0    0  501 -0.00000000000E+00 -0.00000000000E+00 -0.22526466137E+03  0.22526824135E+03  0.12700000000E+01 0. -1.
         25    2    1    2    0    0  0.00000000000E+00  0.00000000000E+00 -0.20795083737E+03  0.24262858126E+03  0.12500031072E+03 0.  0.
    9000005    1    3    3    0    0 -0.40023581650E+02 -0.41456906965E+02 -0.15091077140E+03  0.16154139763E+03  0.10000000000E+01 0.  0.
    9000005    1    3    3    0    0  0.40023581650E+02  0.41456906965E+02 -0.57040065969E+02  0.81087183629E+02  0.10000000000E+01 0.  0.
<mgrwt>
<rscale>  0 0.12500031E+03</rscale>
<asrwt>0</asrwt>
<pdfrwt beam="1">  1        4 0.26675189E-02 0.12500031E+03</pdfrwt>
<pdfrwt beam="2">  1       -4 0.34659953E-01 0.12500031E+03</pdfrwt>
<totfact> 0.83406861E+03</totfact>
</mgrwt>
</event>
<event>
 5    1  0.3179758E-002  0.1249994E+03  0.7818608E-02  0.1235070E+00
         -4   -1    0    0    0  501 -0.00000000000E+00  0.00000000000E+00  0.19274316131E+03  0.19274734533E+03  0.12700000000E+01 0. -1.
          4   -1    0    0  501    0  0.00000000000E+00 -0.00000000000E+00 -0.20242104653E+02  0.20281905748E+02  0.12700000000E+01 0. -1.
         25    2    1    2    0    0  0.00000000000E+00  0.00000000000E+00  0.17250105666E+03  0.21302925108E+03  0.12499938907E+03 0.  0.
    9000005    1    3    3    0    0  0.22768020835E+02 -0.34677764376E+02  0.16590050886E+03  0.17101142931E+03  0.10000000000E+01 0.  0.
    9000005    1    3    3    0    0 -0.22768020835E+02  0.34677764376E+02  0.66005477965E+01  0.42017821767E+02  0.10000000000E+01 0.  0.
<mgrwt>
<rscale>  0 0.12499939E+03</rscale>
<asrwt>0</asrwt>
<pdfrwt beam="2">  1        4 0.31175534E-02 0.12499939E+03</pdfrwt>
<pdfrwt beam="1">  1       -4 0.29656178E-01 0.12499939E+03</pdfrwt>
<totfact> 0.87984743E+03</totfact>
</mgrwt>
</event>
<event>
 5    1  0.3179758E-002  0.1249990E+03  0.7818608E-02  0.1235071E+00
          4   -1    0    0  501    0  0.00000000000E+00  0.00000000000E+00  0.18950633034E+02  0.18993140666E+02  0.12700000000E+01 0. -1.
         -4   -1    0    0    0  501 -0.00000000000E+00 -0.00000000000E+00 -0.20584903213E+03  0.20585294977E+03  0.12700000000E+01 0. -1.
         25    2    1    2    0    0  0.00000000000E+00  0.00000000000E+00 -0.18689839910E+03  0.22484609044E+03  0.12499901119E+03 0.  0.
    9000005    1    3    3    0    0  0.11666017355E+02  0.52502260311E+02 -0.36209311510E+02  0.64843639154E+02  0.10000000000E+01 0.  0.
    9000005    1    3    3    0    0 -0.11666017355E+02 -0.52502260311E+02 -0.15068908759E+03  0.16000245128E+03  0.10000000000E+01 0.  0.
<mgrwt>
<rscale>  0 0.12499901E+03</rscale>
<asrwt>0</asrwt>
<pdfrwt beam="1">  1        4 0.29190533E-02 0.12499901E+03</pdfrwt>
<pdfrwt beam="2">  1       -4 0.31672651E-01 0.12499901E+03</pdfrwt>
<totfact> 0.86109182E+03</totfact>
</mgrwt>
</event>
<event>
 5    1  0.3179758E-002  0.1249988E+03  0.7818608E-02  0.1235071E+00
         -4   -1    0    0    0  501 -0.00000000000E+00  0.00000000000E+00  0.29610017979E+02  0.29637241179E+02  0.12700000000E+01 0.  1.
          4   -1    0    0  501    0  0.00000000000E+00 -0.00000000000E+00 -0.13182991616E+03  0.13183603337E+03  0.12700000000E+01 0.  1.
         25    2    1    2    0    0  0.00000000000E+00  0.00000000000E+00 -0.10221989818E+03  0.16147327455E+03  0.12499884323E+03 0.  0.
    9000005    1    3    3    0    0  0.13057267182E+02  0.65603956118E+01  0.27378314880E+02  0.31050010346E+02  0.10000000000E+01 0.  0.
    9000005    1    3    3    0    0 -0.13057267182E+02 -0.65603956118E+01 -0.12959821306E+03  0.13042326421E+03  0.10000000000E+01 0.  0.
<mgrwt>
<rscale>  0 0.12499884E+03</rscale>
<asrwt>0</asrwt>
<pdfrwt beam="2">  1        4 0.20284090E-01 0.12499884E+03</pdfrwt>
<pdfrwt beam="1">  1       -4 0.45579521E-02 0.12499884E+03</pdfrwt>
<totfact> 0.97062023E+03</totfact>
</mgrwt>
</event>
<event>
 5    1  0.3179758E-002  0.1250103E+03  0.7818608E-02  0.1235053E+00
         -4   -1    0    0    0  501 -0.00000000000E+00  0.00000000000E+00  0.33374386221E+02  0.33398541220E+02  0.12700000000E+01 0. -1.
          4   -1    0    0  501    0  0.00000000000E+00 -0.00000000000E+00 -0.11699271609E+03  0.11699960905E+03  0.12700000000E+01 0. -1.
         25    2    1    2    0    0  0.00000000000E+00  0.00000000000E+00 -0.83618329866E+02  0.15039815027E+03  0.12501031363E+03 0.  0.
    9000005    1    3    3    0    0  0.41181773772E+02  0.46945860532E+02 -0.44766485395E+02  0.76843285502E+02  0.10000000000E+01 0.  0.
    9000005    1    3    3    0    0 -0.41181773772E+02 -0.46945860532E+02 -0.38851844472E+02  0.73554864767E+02  0.10000000000E+01 0.  0.
<mgrwt>
<rscale>  0 0.12501031E+03</rscale>
<asrwt>0</asrwt>
<pdfrwt beam="2">  1        4 0.18001267E-01 0.12501031E+03</pdfrwt>
<pdfrwt beam="1">  1       -4 0.51369093E-02 0.12501031E+03</pdfrwt>
<totfact> 0.99201365E+03</totfact>
</mgrwt>
</event>
<event>
 5    1  0.3179758E-002  0.1250514E+03  0.7818608E-02  0.1234989E+00
         -4   -1    0    0    0  501 -0.00000000000E+00  0.00000000000E+00  0.20799639303E+03  0.20800027023E+03  0.12700000000E+01 0.  1.
          4   -1    0    0  501    0  0.00000000000E+00 -0.00000000000E+00 -0.18770309894E+02  0.18813224963E+02  0.12700000000E+01 0.  1.
         25    2    1    2    0    0  0.00000000000E+00  0.00000000000E+00  0.18922608314E+03  0.22681349519E+03  0.12505139368E+03 0.  0.
    9000005    1    3    3    0    0  0.35983777366E+02  0.19478744975E+02  0.88811796429E+01  0.41882324329E+02  0.10000000000E+01 0.  0.
    9000005    1    3    3    0    0 -0.35983777366E+02 -0.19478744975E+02  0.18034490349E+03  0.18493117086E+03  0.10000000000E+01 0.  0.
<mgrwt>
<rscale>  0 0.12505139E+03</rscale>
<asrwt>0</asrwt>
<pdfrwt beam="2">  1        4 0.28913395E-02 0.12505139E+03</pdfrwt>
<pdfrwt beam="1">  1       -4 0.32003043E-01 0.12505139E+03</pdfrwt>
<totfact> 0.85702964E+03</totfact>
</mgrwt>
</event>
<event>
 5    1  0.3179758E-002  0.1249986E+03  0.7818608E-02  0.1235071E+00
          4   -1    0    0  501    0  0.00000000000E+00  0.00000000000E+00  0.72944527174E+02  0.72955581998E+02  0.12700000000E+01 0.  1.
         -4   -1    0    0    0  501 -0.00000000000E+00 -0.00000000000E+00 -0.53527150326E+02  0.53542214393E+02  0.12700000000E+01 0.  1.
         25    2    1    2    0    0  0.00000000000E+00  0.00000000000E+00  0.19417376848E+02  0.12649779639E+03  0.12499863186E+03 0.  0.
    9000005    1    3    3    0    0  0.29809779345E+02 -0.49027017504E+01  0.65068569365E+02  0.71746624647E+02  0.10000000000E+01 0.  0.
    9000005    1    3    3    0    0 -0.29809779345E+02  0.49027017504E+01 -0.45651192517E+02  0.54751171744E+02  0.10000000000E+01 0.  0.
<mgrwt>
<rscale>  0 0.12499863E+03</rscale>
<asrwt>0</asrwt>
<pdfrwt beam="1">  1        4 0.11224244E-01 0.12499863E+03</pdfrwt>
<pdfrwt beam="2">  1       -4 0.82369554E-02 0.12499863E+03</pdfrwt>
<totfact> 0.10420398E+04</totfact>
</mgrwt>
</event>
<event>
 5    1  0.3179758E-002  0.1249984E+03  0.7818608E-02  0.1235072E+00
         -4   -1    0    0    0  501 -0.00000000000E+00  0.00000000000E+00  0.23192944254E+02  0.23227689579E+02  0.12700000000E+01 0.  1.
          4   -1    0    0  501    0  0.00000000000E+00 -0.00000000000E+00 -0.16825657032E+03  0.16826136323E+03  0.12700000000E+01 0.  1.
         25    2    1    2    0    0  0.00000000000E+00  0.00000000000E+00 -0.14506362606E+03  0.19148905280E+03  0.12499840694E+03 0.  0.
    9000005    1    3    3    0    0  0.61095183517E+02 -0.12653739679E+02 -0.77928880709E+02  0.99833105859E+02  0.10000000000E+01 0.  0.
    9000005    1    3    3    0    0 -0.61095183517E+02  0.12653739679E+02 -0.67134745352E+02  0.91655946945E+02  0.10000000000E+01 0.  0.
<mgrwt>
<rscale>  0 0.12499841E+03</rscale>
<asrwt>0</asrwt>
<pdfrwt beam="2">  1        4 0.25888667E-01 0.12499841E+03</pdfrwt>
<pdfrwt beam="1">  1       -4 0.35711868E-02 0.12499841E+03</pdfrwt>
<totfact> 0.91592136E+03</totfact>
</mgrwt>
</event>
<event>
 5    1  0.3179758E-002  0.1249972E+03  0.7818608E-02  0.1235074E+00
          4   -1    0    0  501    0  0.00000000000E+00  0.00000000000E+00  0.14990439449E+03  0.14990977415E+03  0.12700000000E+01 0.  1.
         -4   -1    0    0    0  501 -0.00000000000E+00 -0.00000000000E+00 -0.26035799285E+02  0.26066755540E+02  0.12700000000E+01 0.  1.
         25    2    1    2    0    0  0.00000000000E+00  0.00000000000E+00  0.12386859520E+03  0.17597652969E+03  0.12499724047E+03 0.  0.
    9000005    1    3    3    0    0  0.43591470370E+02  0.26251044937E+02  0.10867337816E+02  0.52042604475E+02  0.10000000000E+01 0.  0.
    9000005    1    3    3    0    0 -0.43591470370E+02 -0.26251044937E+02  0.11300125739E+03  0.12393392522E+03  0.10000000000E+01 0.  0.
<mgrwt>
<rscale>  0 0.12499724E+03</rscale>
<asrwt>0</asrwt>
<pdfrwt beam="1">  1        4 0.23065010E-01 0.12499724E+03</pdfrwt>
<pdfrwt beam="2">  1       -4 0.40083026E-02 0.12499724E+03</pdfrwt>
<totfact> 0.94352135E+03</totfact>
</mgrwt>
</event>
<event>
 5    1  0.3179758E-002  0.1250041E+03  0.7818608E-02  0.1235063E+00
          4   -1    0    0  501    0  0.00000000000E+00  0.00000000000E+00  0.14462360472E+02  0.14518015375E+02  0.12700000000E+01 0. -1.
         -4   -1    0    0    0  501 -0.00000000000E+00 -0.00000000000E+00 -0.26953948951E+03  0.26954248145E+03  0.12700000000E+01 0. -1.
         25    2    1    2    0    0  0.00000000000E+00  0.00000000000E+00 -0.25507712904E+03  0.28406049682E+03  0.12500409632E+03 0.  0.
    9000005    1    3    3    0    0 -0.30519135207E+02  0.95703319975E+01 -0.55354152754E+01  0.32475370523E+02  0.10000000000E+01 0.  0.
    9000005    1    3    3    0    0  0.30519135207E+02 -0.95703319975E+01 -0.24954171376E+03  0.25158512630E+03  0.10000000000E+01 0.  0.
<mgrwt>
<rscale>  0 0.12500410E+03</rscale>
<asrwt>0</asrwt>
<pdfrwt beam="1">  1        4 0.22294900E-02 0.12500410E+03</pdfrwt>
<pdfrwt beam="2">  1       -4 0.41472122E-01 0.12500410E+03</pdfrwt>
<totfact> 0.77635709E+03</totfact>
</mgrwt>
</event>
<event>
 5    1  0.3179758E-002  0.1250030E+03  0.7818608E-02  0.1235065E+00
         -4   -1    0    0    0  501 -0.00000000000E+00  0.00000000000E+00  0.18098733809E+03  0.18099179387E+03  0.12700000000E+01 0.  1.
          4   -1    0    0  501    0  0.00000000000E+00 -0.00000000000E+00 -0.21560629795E+02  0.21598001230E+02  0.12700000000E+01 0.  1.
         25    2    1    2    0    0  0.00000000000E+00  0.00000000000E+00  0.15942670829E+03  0.20258979510E+03  0.12500299901E+03 0.  0.
    9000005    1    3    3    0    0  0.28886538018E+02 -0.10789177821E+02 -0.83806613044E+01  0.31969890845E+02  0.10000000000E+01 0.  0.
    9000005    1    3    3    0    0 -0.28886538018E+02  0.10789177821E+02  0.16780736960E+03  0.17061990425E+03  0.10000000000E+01 0.  0.
<mgrwt>
<rscale>  0 0.12500300E+03</rscale>
<asrwt>0</asrwt>
<pdfrwt beam="2">  1        4 0.33202375E-02 0.12500300E+03</pdfrwt>
<pdfrwt beam="1">  1       -4 0.27847423E-01 0.12500300E+03</pdfrwt>
<totfact> 0.89694529E+03</totfact>
</mgrwt>
</event>
<event>
 5    1  0.3179758E-002  0.1250007E+03  0.7818608E-02  0.1235068E+00
          4   -1    0    0  501    0  0.00000000000E+00  0.00000000000E+00  0.85373706867E+02  0.85383152461E+02  0.12700000000E+01 0. -1.
         -4   -1    0    0    0  501 -0.00000000000E+00 -0.00000000000E+00 -0.45734419783E+02  0.45752049713E+02  0.12700000000E+01 0. -1.
         25    2    1    2    0    0  0.00000000000E+00  0.00000000000E+00  0.39639287084E+02  0.13113520217E+03  0.12500067267E+03 0.  0.
    9000005    1    3    3    0    0 -0.58840445599E+02  0.97981681954E+00  0.41878544892E+02  0.72235521744E+02  0.10000000000E+01 0.  0.
    9000005    1    3    3    0    0  0.58840445599E+02 -0.97981681954E+00 -0.22392578088E+01  0.58899680430E+02  0.10000000000E+01 0.  0.
<mgrwt>
<rscale>  0 0.12500067E+03</rscale>
<asrwt>0</asrwt>
<pdfrwt beam="1">  1        4 0.13136499E-01 0.12500067E+03</pdfrwt>
<pdfrwt beam="2">  1       -4 0.70381473E-02 0.12500067E+03</pdfrwt>
<totfact> 0.10320035E+04</totfact>
</mgrwt>
</event>
<event>
 5    1  0.3179758E-002  0.1250032E+03  0.7818608E-02  0.1235064E+00
          4   -1    0    0  501    0  0.00000000000E+00  0.00000000000E+00  0.24390835620E+02  0.24423876888E+02  0.12700000000E+01 0.  1.
         -4   -1    0    0    0  501 -0.00000000000E+00 -0.00000000000E+00 -0.16001650510E+03  0.16002154481E+03  0.12700000000E+01 0.  1.
         25    2    1    2    0    0  0.00000000000E+00  0.00000000000E+00 -0.13562566948E+03  0.18444542170E+03  0.12500316542E+03 0.  0.
    9000005    1    3    3    0    0 -0.14545117095E+02 -0.41953271730E+02 -0.29264145135E+01  0.44510687954E+02  0.10000000000E+01 0.  0.
    9000005    1    3    3    0    0  0.14545117095E+02  0.41953271730E+02 -0.13269925497E+03  0.13993473375E+03  0.10000000000E+01 0.  0.
<mgrwt>
<rscale>  0 0.12500317E+03</rscale>
<asrwt>0</asrwt>
<pdfrwt beam="1">  1        4 0.37553657E-02 0.12500317E+03</pdfrwt>
<pdfrwt beam="2">  1       -4 0.24620852E-01 0.12500317E+03</pdfrwt>
<totfact> 0.92816293E+03</totfact>
</mgrwt>
</event>
<event>
 5    1  0.3179758E-002  0.1249958E+03  0.7818608E-02  0.1235076E+00
         -4   -1    0    0    0  501 -0.00000000000E+00  0.00000000000E+00  0.90957301767E+01  0.91839646911E+01  0.12700000000E+01 0.  1.
          4   -1    0    0  501    0  0.00000000000E+00 -0.00000000000E+00 -0.42726891153E+03  0.42727079898E+03  0.12700000000E+01 0.  1.
         25    2    1    2    0    0  0.00000000000E+00  0.00000000000E+00 -0.41817318135E+03  0.43645476367E+03  0.12499580444E+03 0.  0.
    9000005    1    3    3    0    0  0.38730955914E+02  0.45510173331E+02 -0.27287446741E+03  0.27934340477E+03  0.10000000000E+01 0.  0.
    9000005    1    3    3    0    0 -0.38730955914E+02 -0.45510173331E+02 -0.14529871394E+03  0.15711135890E+03  0.10000000000E+01 0.  0.
<mgrwt>
<rscale>  0 0.12499580E+03</rscale>
<asrwt>0</asrwt>
<pdfrwt beam="2">  1        4 0.65740596E-01 0.12499580E+03</pdfrwt>
<pdfrwt beam="1">  1       -4 0.14062759E-02 0.12499580E+03</pdfrwt>
<totfact> 0.61160896E+03</totfact>
</mgrwt>
</event>
<event>
 5    1  0.3179758E-002  0.1250003E+03  0.7818608E-02  0.1235069E+00
          4   -1    0    0  501    0  0.00000000000E+00  0.00000000000E+00  0.75102611226E+02  0.75113348434E+02  0.12700000000E+01 0. -1.
         -4   -1    0    0    0  501 -0.00000000000E+00 -0.00000000000E+00 -0.51990220689E+02  0.52005729947E+02  0.12700000000E+01 0. -1.
         25    2    1    2    0    0  0.00000000000E+00  0.00000000000E+00  0.23112390536E+02  0.12711907838E+03  0.12500030997E+03 0.  0.
    9000005    1    3    3    0    0 -0.11423529669E+02 -0.56075994100E+02  0.37086610261E+02  0.68201398850E+02  0.10000000000E+01 0.  0.
    9000005    1    3    3    0    0  0.11423529669E+02  0.56075994100E+02 -0.13974219724E+02  0.58917679531E+02  0.10000000000E+01 0.  0.
<mgrwt>
<rscale>  0 0.12500031E+03</rscale>
<asrwt>0</asrwt>
<pdfrwt beam="1">  1        4 0.11556267E-01 0.12500031E+03</pdfrwt>
<pdfrwt beam="2">  1       -4 0.80005145E-02 0.12500031E+03</pdfrwt>
<totfact> 0.10406487E+04</totfact>
</mgrwt>
</event>
<event>
 5    1  0.3179758E-002  0.1249991E+03  0.7818608E-02  0.1235071E+00
         -4   -1    0    0    0  501 -0.00000000000E+00  0.00000000000E+00  0.12058005986E+03  0.12058674776E+03  0.12700000000E+01 0. -1.
          4   -1    0    0  501    0  0.00000000000E+00 -0.00000000000E+00 -0.32375009230E+02  0.32399909300E+02  0.12700000000E+01 0. -1.
         25    2    1    2    0    0  0.00000000000E+00  0.00000000000E+00  0.88205050627E+02  0.15298665706E+03  0.12499914513E+03 0.  0.
    9000005    1    3    3    0    0  0.33713190449E+02  0.27716983084E+02 -0.10637303878E+02  0.44932867651E+02  0.10000000000E+01 0.  0.
    9000005    1    3    3    0    0 -0.33713190449E+02 -0.27716983084E+02  0.98842354505E+02  0.10805378941E+03  0.10000000000E+01 0.  0.
<mgrwt>
<rscale>  0 0.12499915E+03</rscale>
<asrwt>0</asrwt>
<pdfrwt beam="2">  1        4 0.49832005E-02 0.12499915E+03</pdfrwt>
<pdfrwt beam="1">  1       -4 0.18553208E-01 0.12499915E+03</pdfrwt>
<totfact> 0.98713548E+03</totfact>
</mgrwt>
</event>
<event>
 5    1  0.3179758E-002  0.1249842E+03  0.7818608E-02  0.1235094E+00
          4   -1    0    0  501    0  0.00000000000E+00  0.00000000000E+00  0.93949721547E+02  0.93958305002E+02  0.12700000000E+01 0.  1.
         -4   -1    0    0    0  501 -0.00000000000E+00 -0.00000000000E+00 -0.41547388771E+02  0.41566794605E+02  0.12700000000E+01 0.  1.
         25    2    1    2    0    0  0.00000000000E+00  0.00000000000E+00  0.52402332776E+02  0.13552509961E+03  0.12498419157E+03 0.  0.
    9000005    1    3    3    0    0  0.22565608295E+02  0.17048745693E+02 -0.34215002359E+02  0.44401945834E+02  0.10000000000E+01 0.  0.
    9000005    1    3    3    0    0 -0.22565608295E+02 -0.17048745693E+02  0.86617335135E+02  0.91123153772E+02  0.10000000000E+01 0.  0.
<mgrwt>
<rscale>  0 0.12498419E+03</rscale>
<asrwt>0</asrwt>
<pdfrwt beam="1">  1        4 0.14455956E-01 0.12498419E+03</pdfrwt>
<pdfrwt beam="2">  1       -4 0.63940590E-02 0.12498419E+03</pdfrwt>
<totfact> 0.10230662E+04</totfact>
</mgrwt>
</event>
<event>
 5    1  0.3179758E-002  0.1249956E+03  0.7818608E-02  0.1235076E+00
         -4   -1    0    0    0  501 -0.00000000000E+00  0.00000000000E+00  0.14698977198E+03  0.14699525832E+03  0.12700000000E+01 0. -1.
          4   -1    0    0  501    0  0.00000000000E+00 -0.00000000000E+00 -0.26551927341E+02  0.26582282549E+02  0.12700000000E+01 0. -1.
         25    2    1    2    0    0  0.00000000000E+00  0.00000000000E+00  0.12043784464E+03  0.17357754086E+03  0.12499555300E+03 0.  0.
    9000005    1    3    3    0    0  0.65401964584E+01 -0.59840647237E+02  0.36928366718E+02  0.70628475135E+02  0.10000000000E+01 0.  0.
    9000005    1    3    3    0    0 -0.65401964584E+01  0.59840647237E+02  0.83509477924E+02  0.10294906573E+03  0.10000000000E+01 0.  0.
<mgrwt>
<rscale>  0 0.12499555E+03</rscale>
<asrwt>0</asrwt>
<pdfrwt beam="2">  1        4 0.40876689E-02 0.12499555E+03</pdfrwt>
<pdfrwt beam="1">  1       -4 0.22616568E-01 0.12499555E+03</pdfrwt>
<totfact> 0.94795466E+03</totfact>
</mgrwt>
</event>
<event>
 5    1  0.3179758E-002  0.1250014E+03  0.7818608E-02  0.1235067E+00
          4   -1    0    0  501    0  0.00000000000E+00  0.00000000000E+00  0.88336522844E+02  0.88345651665E+02  0.12700000000E+01 0.  1.
         -4   -1    0    0    0  501 -0.00000000000E+00 -0.00000000000E+00 -0.44200571414E+02  0.44218812890E+02  0.12700000000E+01 0.  1.
         25    2    1    2    0    0  0.00000000000E+00  0.00000000000E+00  0.44135951429E+02  0.13256446455E+03  0.12500142021E+03 0.  0.
    9000005    1    3    3    0    0 -0.48027454908E+02 -0.29347109999E+02 -0.67310840821E+01  0.56693886647E+02  0.10000000000E+01 0.  0.
    9000005    1    3    3    0    0  0.48027454908E+02  0.29347109999E+02  0.50867035511E+02  0.75870577907E+02  0.10000000000E+01 0.  0.
<mgrwt>
<rscale>  0 0.12500142E+03</rscale>
<asrwt>0</asrwt>
<pdfrwt beam="1">  1        4 0.13592340E-01 0.12500142E+03</pdfrwt>
<pdfrwt beam="2">  1       -4 0.68021934E-02 0.12500142E+03</pdfrwt>
<totfact> 0.10289335E+04</totfact>
</mgrwt>
</event>
<event>
 5    1  0.3179758E-002  0.1250005E+03  0.7818608E-02  0.1235068E+00
         -4   -1    0    0    0  501 -0.00000000000E+00  0.00000000000E+00  0.10210350494E+03  0.10211140300E+03  0.12700000000E+01 0. -1.
          4   -1    0    0  501    0  0.00000000000E+00 -0.00000000000E+00 -0.38238135550E+02  0.38259219939E+02  0.12700000000E+01 0. -1.
         25    2    1    2    0    0  0.00000000000E+00  0.00000000000E+00  0.63865369394E+02  0.14037062293E+03  0.12500050550E+03 0.  0.
    9000005    1    3    3    0    0 -0.29309207525E+02  0.47765754578E+02  0.62985833231E+02  0.84313771971E+02  0.10000000000E+01 0.  0.
    9000005    1    3    3    0    0  0.29309207525E+02 -0.47765754578E+02  0.87953616272E+00  0.56056850964E+02  0.10000000000E+01 0.  0.
<mgrwt>
<rscale>  0 0.12500051E+03</rscale>
<asrwt>0</asrwt>
<pdfrwt beam="2">  1        4 0.58850196E-02 0.12500051E+03</pdfrwt>
<pdfrwt beam="1">  1       -4 0.15710461E-01 0.12500051E+03</pdfrwt>
<totfact> 0.10125795E+04</totfact>
</mgrwt>
</event>
<event>
 5    1  0.3179758E-002  0.1250017E+03  0.7818608E-02  0.1235067E+00
          4   -1    0    0  501    0  0.00000000000E+00  0.00000000000E+00  0.45927739940E+02  0.45945295689E+02  0.12700000000E+01 0. -1.
         -4   -1    0    0    0  501 -0.00000000000E+00 -0.00000000000E+00 -0.85015900256E+02  0.85025385600E+02  0.12700000000E+01 0. -1.
         25    2    1    2    0    0  0.00000000000E+00  0.00000000000E+00 -0.39088160317E+02  0.13097068129E+03  0.12500174031E+03 0.  0.
    9000005    1    3    3    0    0  0.14519670466E+02  0.42035089069E+02 -0.65544868278E+02  0.79214261980E+02  0.10000000000E+01 0.  0.
    9000005    1    3    3    0    0 -0.14519670466E+02 -0.42035089069E+02  0.26456707961E+02  0.51756419309E+02  0.10000000000E+01 0.  0.
<mgrwt>
<rscale>  0 0.12500174E+03</rscale>
<asrwt>0</asrwt>
<pdfrwt beam="1">  1        4 0.70678862E-02 0.12500174E+03</pdfrwt>
<pdfrwt beam="2">  1       -4 0.13081449E-01 0.12500174E+03</pdfrwt>
<totfact> 0.10323313E+04</totfact>
</mgrwt>
</event>
<event>
 5    1  0.3179758E-002  0.1250012E+03  0.7818608E-02  0.1235067E+00
          4   -1    0    0  501    0  0.00000000000E+00  0.00000000000E+00  0.80588101851E+02  0.80598108290E+02  0.12700000000E+01 0. -1.
         -4   -1    0    0    0  501 -0.00000000000E+00 -0.00000000000E+00 -0.48451355857E+02  0.48467997528E+02  0.12700000000E+01 0. -1.
         25    2    1    2    0    0  0.00000000000E+00  0.00000000000E+00  0.32136745994E+02  0.12906610582E+03  0.12500115691E+03 0.  0.
    9000005    1    3    3    0    0  0.12134145486E+02  0.18062696501E+02 -0.44418434934E+02  0.49472172517E+02  0.10000000000E+01 0.  0.
    9000005    1    3    3    0    0 -0.12134145486E+02 -0.18062696501E+02  0.76555180927E+02  0.79593933301E+02  0.10000000000E+01 0.  0.
<mgrwt>
<rscale>  0 0.12500116E+03</rscale>
<asrwt>0</asrwt>
<pdfrwt beam="1">  1        4 0.12400219E-01 0.12500116E+03</pdfrwt>
<pdfrwt beam="2">  1       -4 0.74561046E-02 0.12500116E+03</pdfrwt>
<totfact> 0.10364256E+04</totfact>
</mgrwt>
</event>
<event>
 5    1  0.3179758E-002  0.1250009E+03  0.7818608E-02  0.1235068E+00
         -4   -1    0    0    0  501 -0.00000000000E+00  0.00000000000E+00  0.16579507450E+03  0.16579993856E+03  0.12700000000E+01 0. -1.
          4   -1    0    0  501    0  0.00000000000E+00 -0.00000000000E+00 -0.23538723872E+02  0.23572959541E+02  0.12700000000E+01 0. -1.
         25    2    1    2    0    0  0.00000000000E+00  0.00000000000E+00  0.14225635063E+03  0.18937289810E+03  0.12500090097E+03 0.  0.
    9000005    1    3    3    0    0 -0.38891704808E+02  0.48250457145E+02  0.83307929857E+02  0.10383584398E+03  0.10000000000E+01 0.  0.
    9000005    1    3    3    0    0  0.38891704808E+02 -0.48250457145E+02  0.58948420769E+02  0.85537054127E+02  0.10000000000E+01 0.  0.
<mgrwt>
<rscale>  0 0.12500090E+03</rscale>
<asrwt>0</asrwt>
<pdfrwt beam="2">  1        4 0.36243498E-02 0.12500090E+03</pdfrwt>
<pdfrwt beam="1">  1       -4 0.25509942E-01 0.12500090E+03</pdfrwt>
<totfact> 0.91954686E+03</totfact>
</mgrwt>
</event>
<event>
 5    1  0.3179758E-002  0.1250020E+03  0.7818608E-02  0.1235066E+00
          4   -1    0    0  501    0  0.00000000000E+00  0.00000000000E+00  0.28436115616E+02  0.28464461550E+02  0.12700000000E+01 0.  1.
         -4   -1    0    0    0  501 -0.00000000000E+00 -0.00000000000E+00 -0.13727395823E+03  0.13727983285E+03  0.12700000000E+01 0.  1.
         25    2    1    2    0    0  0.00000000000E+00  0.00000000000E+00 -0.10883784261E+03  0.16574429440E+03  0.12500198055E+03 0.  0.
    9000005    1    3    3    0    0 -0.12035955230E+02 -0.44519982647E+02 -0.11033623158E+03  0.11959087370E+03  0.10000000000E+01 0.  0.
    9000005    1    3    3    0    0  0.12035955230E+02  0.44519982647E+02  0.14983889645E+01  0.46153420704E+02  0.10000000000E+01 0.  0.
<mgrwt>
<rscale>  0 0.12500198E+03</rscale>
<asrwt>0</asrwt>
<pdfrwt beam="1">  1        4 0.43774195E-02 0.12500198E+03</pdfrwt>
<pdfrwt beam="2">  1       -4 0.21121702E-01 0.12500198E+03</pdfrwt>
<totfact> 0.96242339E+03</totfact>
</mgrwt>
</event>
<event>
 5    1  0.3179758E-002  0.1249974E+03  0.7818608E-02  0.1235073E+00
         -4   -1    0    0    0  501 -0.00000000000E+00  0.00000000000E+00  0.23686349366E+02  0.23720371967E+02  0.12700000000E+01 0. -1.
          4   -1    0    0  501    0  0.00000000000E+00 -0.00000000000E+00 -0.16475401569E+03  0.16475891049E+03  0.12700000000E+01 0. -1.
         25    2    1    2    0    0  0.00000000000E+00  0.00000000000E+00 -0.14106766633E+03  0.18847928246E+03  0.12499741371E+03 0.  0.
    9000005    1    3    3    0    0 -0.15625849873E+02  0.31598883335E+02  0.72701505130E+01  0.36007106254E+02  0.10000000000E+01 0.  0.
    9000005    1    3    3    0    0  0.15625849873E+02 -0.31598883335E+02 -0.14833781684E+03  0.15247217620E+03  0.10000000000E+01 0.  0.
<mgrwt>
<rscale>  0 0.12499741E+03</rscale>
<asrwt>0</asrwt>
<pdfrwt beam="2">  1        4 0.25349764E-01 0.12499741E+03</pdfrwt>
<pdfrwt beam="1">  1       -4 0.36470475E-02 0.12499741E+03</pdfrwt>
<totfact> 0.92117927E+03</totfact>
</mgrwt>
</event>
<event>
 5    1  0.3179758E-002  0.1249993E+03  0.7818608E-02  0.1235070E+00
         -4   -1    0    0    0  501 -0.00000000000E+00  0.00000000000E+00  0.27233572010E+03  0.27233868132E+03  0.12700000000E+01 0.  1.
          4   -1    0    0  501    0  0.00000000000E+00 -0.00000000000E+00 -0.14312188290E+02  0.14368424884E+02  0.12700000000E+01 0.  1.
         25    2    1    2    0    0  0.00000000000E+00  0.00000000000E+00  0.25802353181E+03  0.28670710621E+03  0.12499928712E+03 0.  0.
    9000005    1    3    3    0    0  0.32496899518E+01 -0.74492780957E+01  0.27112962072E+03  0.27125324599E+03  0.10000000000E+01 0.  0.
    9000005    1    3    3    0    0 -0.32496899518E+01  0.74492780957E+01 -0.13106088910E+02  0.15453860212E+02  0.10000000000E+01 0.  0.
<mgrwt>
<rscale>  0 0.12499929E+03</rscale>
<asrwt>0</asrwt>
<pdfrwt beam="2">  1        4 0.22064289E-02 0.12499929E+03</pdfrwt>
<pdfrwt beam="1">  1       -4 0.41902355E-01 0.12499929E+03</pdfrwt>
<totfact> 0.77298339E+03</totfact>
</mgrwt>
</event>
<event>
 5    1  0.3179758E-002  0.1250022E+03  0.7818608E-02  0.1235066E+00
          4   -1    0    0  501    0  0.00000000000E+00  0.00000000000E+00  0.29158001221E+03  0.29158277799E+03  0.12700000000E+01 0.  1.
         -4   -1    0    0    0  501 -0.00000000000E+00 -0.00000000000E+00 -0.13364376734E+02  0.13424584369E+02  0.12700000000E+01 0.  1.
         25    2    1    2    0    0  0.00000000000E+00  0.00000000000E+00  0.27821563547E+03  0.30500736236E+03  0.12500220506E+03 0.  0.
    9000005    1    3    3    0    0  0.34486703255E+02  0.24042331678E+02  0.25193108511E+03  0.25541659707E+03  0.10000000000E+01 0.  0.
    9000005    1    3    3    0    0 -0.34486703255E+02 -0.24042331678E+02  0.26284550363E+02  0.49590765286E+02  0.10000000000E+01 0.  0.
<mgrwt>
<rscale>  0 0.12500221E+03</rscale>
<asrwt>0</asrwt>
<pdfrwt beam="1">  1        4 0.44863308E-01 0.12500221E+03</pdfrwt>
<pdfrwt beam="2">  1       -4 0.20609021E-02 0.12500221E+03</pdfrwt>
<totfact> 0.74971316E+03</totfact>
</mgrwt>
</event>
<event>
 5    1  0.3179758E-002  0.1250012E+03  0.7818608E-02  0.1235067E+00
          4   -1    0    0  501    0  0.00000000000E+00  0.00000000000E+00  0.28995718602E+03  0.28995996728E+03  0.12700000000E+01 0.  1.
         -4   -1    0    0    0  501 -0.00000000000E+00 -0.00000000000E+00 -0.13439281585E+02  0.13499155141E+02  0.12700000000E+01 0.  1.
         25    2    1    2    0    0  0.00000000000E+00  0.00000000000E+00  0.27651790444E+03  0.30345912242E+03  0.12500115003E+03 0.  0.
    9000005    1    3    3    0    0 -0.12792636695E+00 -0.48378302030E+02  0.42225639935E+02  0.64222123450E+02  0.10000000000E+01 0.  0.
    9000005    1    3    3    0    0  0.12792636695E+00  0.48378302030E+02  0.23429226450E+03  0.23923699897E+03  0.10000000000E+01 0.  0.
<mgrwt>
<rscale>  0 0.12500115E+03</rscale>
<asrwt>0</asrwt>
<pdfrwt beam="1">  1        4 0.44613616E-01 0.12500115E+03</pdfrwt>
<pdfrwt beam="2">  1       -4 0.20724014E-02 0.12500115E+03</pdfrwt>
<totfact> 0.75165052E+03</totfact>
</mgrwt>
</event>
<event>
 5    1  0.3179758E-002  0.1250039E+03  0.7818608E-02  0.1235063E+00
         -4   -1    0    0    0  501 -0.00000000000E+00  0.00000000000E+00  0.14939416832E+02  0.14993301013E+02  0.12700000000E+01 0.  1.
          4   -1    0    0  501    0  0.00000000000E+00 -0.00000000000E+00 -0.26096287652E+03  0.26096596679E+03  0.12700000000E+01 0.  1.
         25    2    1    2    0    0  0.00000000000E+00  0.00000000000E+00 -0.24602345969E+03  0.27595926780E+03  0.12500389901E+03 0.  0.
    9000005    1    3    3    0    0 -0.54468158529E+02 -0.73428596032E+01 -0.57345368277E+02  0.79436698972E+02  0.10000000000E+01 0.  0.
    9000005    1    3    3    0    0  0.54468158529E+02  0.73428596032E+01 -0.18867809141E+03  0.19652256883E+03  0.10000000000E+01 0.  0.
<mgrwt>
<rscale>  0 0.12500390E+03</rscale>
<asrwt>0</asrwt>
<pdfrwt beam="2">  1        4 0.40152514E-01 0.12500390E+03</pdfrwt>
<pdfrwt beam="1">  1       -4 0.23027547E-02 0.12500390E+03</pdfrwt>
<totfact> 0.78710123E+03</totfact>
</mgrwt>
</event>
<event>
 5    1  0.3179758E-002  0.1250059E+03  0.7818608E-02  0.1235060E+00
         -4   -1    0    0    0  501 -0.00000000000E+00  0.00000000000E+00  0.14322148017E+01  0.19141941485E+01  0.12700000000E+01 0.  1.
          4   -1    0    0  501    0  0.00000000000E+00 -0.00000000000E+00 -0.23343287046E+04  0.23343290501E+04  0.12700000000E+01 0.  1.
         25    2    1    2    0    0  0.00000000000E+00  0.00000000000E+00 -0.23328964898E+04  0.23362432442E+04  0.12500585611E+03 0.  0.
    9000005    1    3    3    0    0  0.56868725138E+02  0.25898960297E+02 -0.11496491479E+04  0.11513465904E+04  0.10000000000E+01 0.  0.
    9000005    1    3    3    0    0 -0.56868725138E+02 -0.25898960297E+02 -0.11832473419E+04  0.11848966538E+04  0.10000000000E+01 0.  0.
<mgrwt>
<rscale>  0 0.12500586E+03</rscale>
<asrwt>0</asrwt>
<pdfrwt beam="2">  1        4 0.35916199E+00 0.12500586E+03</pdfrwt>
<pdfrwt beam="1">  1       -4 0.25744452E-03 0.12500586E+03</pdfrwt>
<totfact> 0.60858689E+02</totfact>
</mgrwt>
</event>
<event>
 5    1  0.3179758E-002  0.1249891E+03  0.7818608E-02  0.1235086E+00
         -4   -1    0    0    0  501 -0.00000000000E+00  0.00000000000E+00  0.89563145971E+01  0.90459090844E+01  0.12700000000E+01 0. -1.
          4   -1    0    0  501    0  0.00000000000E+00 -0.00000000000E+00 -0.43380813733E+03  0.43380999633E+03  0.12700000000E+01 0. -1.
         25    2    1    2    0    0  0.00000000000E+00  0.00000000000E+00 -0.42485182274E+03  0.44285590542E+03  0.12498912624E+03 0.  0.
    9000005    1    3    3    0    0 -0.52812667521E+02  0.13183150667E+01 -0.33066619659E+03  0.33486123899E+03  0.10000000000E+01 0.  0.
    9000005    1    3    3    0    0  0.52812667521E+02 -0.13183150667E+01 -0.94185626142E+02  0.10799466643E+03  0.10000000000E+01 0.  0.
<mgrwt>
<rscale>  0 0.12498913E+03</rscale>
<asrwt>0</asrwt>
<pdfrwt beam="2">  1        4 0.66746732E-01 0.12498913E+03</pdfrwt>
<pdfrwt beam="1">  1       -4 0.13849298E-02 0.12498913E+03</pdfrwt>
<totfact> 0.60602248E+03</totfact>
</mgrwt>
</event>
<event>
 5    1  0.3179758E-002  0.1249966E+03  0.7818608E-02  0.1235075E+00
          4   -1    0    0  501    0  0.00000000000E+00  0.00000000000E+00  0.60705383474E+02  0.60718666675E+02  0.12700000000E+01 0. -1.
         -4   -1    0    0    0  501 -0.00000000000E+00 -0.00000000000E+00 -0.64317545961E+02  0.64330083308E+02  0.12700000000E+01 0. -1.
         25    2    1    2    0    0  0.00000000000E+00  0.00000000000E+00 -0.36121624870E+01  0.12504874998E+03  0.12499656857E+03 0.  0.
    9000005    1    3    3    0    0  0.31455838484E+02 -0.37397268617E+02 -0.40771154305E+02  0.63649921430E+02  0.10000000000E+01 0.  0.
    9000005    1    3    3    0    0 -0.31455838484E+02  0.37397268617E+02  0.37158991818E+02  0.61398828553E+02  0.10000000000E+01 0.  0.
<mgrwt>
<rscale>  0 0.12499657E+03</rscale>
<asrwt>0</asrwt>
<pdfrwt beam="1">  1        4 0.93412760E-02 0.12499657E+03</pdfrwt>
<pdfrwt beam="2">  1       -4 0.98969933E-02 0.12499657E+03</pdfrwt>
<totfact> 0.10452614E+04</totfact>
</mgrwt>
</event>
<event>
 5    1  0.3179758E-002  0.1249918E+03  0.7818608E-02  0.1235082E+00
         -4   -1    0    0    0  501 -0.00000000000E+00  0.00000000000E+00  0.58993848849E+02  0.59007517335E+02  0.12700000000E+01 0. -1.
          4   -1    0    0  501    0  0.00000000000E+00 -0.00000000000E+00 -0.66178444493E+02  0.66190629364E+02  0.12700000000E+01 0. -1.
         25    2    1    2    0    0  0.00000000000E+00  0.00000000000E+00 -0.71845956446E+01  0.12519814670E+03  0.12499182982E+03 0.  0.
    9000005    1    3    3    0    0  0.26186012402E+02 -0.42555176197E+02  0.33994155255E+02  0.60442144719E+02  0.10000000000E+01 0.  0.
    9000005    1    3    3    0    0 -0.26186012402E+02  0.42555176197E+02 -0.41178750900E+02  0.64756001979E+02  0.10000000000E+01 0.  0.
<mgrwt>
<rscale>  0 0.12499183E+03</rscale>
<asrwt>0</asrwt>
<pdfrwt beam="2">  1        4 0.10183288E-01 0.12499183E+03</pdfrwt>
<pdfrwt beam="1">  1       -4 0.90779655E-02 0.12499183E+03</pdfrwt>
<totfact> 0.10450490E+04</totfact>
</mgrwt>
</event>
<event>
 5    1  0.3179758E-002  0.1250007E+03  0.7818608E-02  0.1235068E+00
         -4   -1    0    0    0  501 -0.00000000000E+00  0.00000000000E+00  0.40457113188E+01  0.42403632009E+01  0.12700000000E+01 0. -1.
          4   -1    0    0  501    0  0.00000000000E+00 -0.00000000000E+00 -0.94266197104E+03  0.94266282654E+03  0.12700000000E+01 0. -1.
         25    2    1    2    0    0  0.00000000000E+00  0.00000000000E+00 -0.93861625972E+03  0.94690318974E+03  0.12500067093E+03 0.  0.
    9000005    1    3    3    0    0  0.43397680539E+02  0.17525715737E+02 -0.15562023296E+03  0.16250897297E+03  0.10000000000E+01 0.  0.
    9000005    1    3    3    0    0 -0.43397680539E+02 -0.17525715737E+02 -0.78299602676E+03  0.78439421678E+03  0.10000000000E+01 0.  0.
<mgrwt>
<rscale>  0 0.12500067E+03</rscale>
<asrwt>0</asrwt>
<pdfrwt beam="2">  1        4 0.14503979E+00 0.12500067E+03</pdfrwt>
<pdfrwt beam="1">  1       -4 0.63745691E-03 0.12500067E+03</pdfrwt>
<totfact> 0.32425739E+03</totfact>
</mgrwt>
</event>
<event>
 5    1  0.3179758E-002  0.1249988E+03  0.7818608E-02  0.1235071E+00
         -4   -1    0    0    0  501 -0.00000000000E+00  0.00000000000E+00  0.69097631564E+01  0.70255054535E+01  0.12700000000E+01 0.  1.
          4   -1    0    0  501    0  0.00000000000E+00 -0.00000000000E+00 -0.56050032366E+03  0.56050176246E+03  0.12700000000E+01 0.  1.
         25    2    1    2    0    0  0.00000000000E+00  0.00000000000E+00 -0.55359056050E+03  0.56752726791E+03  0.12499876459E+03 0.  0.
    9000005    1    3    3    0    0 -0.59225970547E+02  0.19558109099E+02 -0.29434301120E+03  0.30088044713E+03  0.10000000000E+01 0.  0.
    9000005    1    3    3    0    0  0.59225970547E+02 -0.19558109099E+02 -0.25924754930E+03  0.26664682079E+03  0.10000000000E+01 0.  0.
<mgrwt>
<rscale>  0 0.12499876E+03</rscale>
<asrwt>0</asrwt>
<pdfrwt beam="2">  1        4 0.86239797E-01 0.12499876E+03</pdfrwt>
<pdfrwt beam="1">  1       -4 0.10720549E-02 0.12499876E+03</pdfrwt>
<totfact> 0.50985104E+03</totfact>
</mgrwt>
</event>
<event>
 5    1  0.3179758E-002  0.1250314E+03  0.7818608E-02  0.1235020E+00
         -4   -1    0    0    0  501 -0.00000000000E+00  0.00000000000E+00  0.26746480673E+03  0.26746782188E+03  0.12700000000E+01 0.  1.
          4   -1    0    0  501    0  0.00000000000E+00 -0.00000000000E+00 -0.14581369947E+02  0.14636572329E+02  0.12700000000E+01 0.  1.
         25    2    1    2    0    0  0.00000000000E+00  0.00000000000E+00  0.25288343678E+03  0.28210439421E+03  0.12503142257E+03 0.  0.
    9000005    1    3    3    0    0  0.17654615764E+02 -0.54116730325E+02  0.18470885909E+03  0.19328390669E+03  0.10000000000E+01 0.  0.
    9000005    1    3    3    0    0 -0.17654615764E+02  0.54116730325E+02  0.68174577697E+02  0.88820487519E+02  0.10000000000E+01 0.  0.
<mgrwt>
<rscale>  0 0.12503142E+03</rscale>
<asrwt>0</asrwt>
<pdfrwt beam="2">  1        4 0.22477660E-02 0.12503142E+03</pdfrwt>
<pdfrwt beam="1">  1       -4 0.41152910E-01 0.12503142E+03</pdfrwt>
<totfact> 0.77845524E+03</totfact>
</mgrwt>
</event>
<event>
 5    1  0.3179758E-002  0.1249920E+03  0.7818608E-02  0.1235082E+00
          4   -1    0    0  501    0  0.00000000000E+00  0.00000000000E+00  0.47907109844E+02  0.47923940506E+02  0.12700000000E+01 0. -1.
         -4   -1    0    0    0  501 -0.00000000000E+00 -0.00000000000E+00 -0.81491410744E+02  0.81501306279E+02  0.12700000000E+01 0. -1.
         25    2    1    2    0    0  0.00000000000E+00  0.00000000000E+00 -0.33584300900E+02  0.12942524678E+03  0.12499195669E+03 0.  0.
    9000005    1    3    3    0    0 -0.40513236042E+01  0.48081512134E+02  0.24321329318E+02  0.54044167972E+02  0.10000000000E+01 0.  0.
    9000005    1    3    3    0    0  0.40513236042E+01 -0.48081512134E+02 -0.57905630218E+02  0.75381078813E+02  0.10000000000E+01 0.  0.
<mgrwt>
<rscale>  0 0.12499196E+03</rscale>
<asrwt>0</asrwt>
<pdfrwt beam="1">  1        4 0.73723805E-02 0.12499196E+03</pdfrwt>
<pdfrwt beam="2">  1       -4 0.12539196E-01 0.12499196E+03</pdfrwt>
<totfact> 0.10358699E+04</totfact>
</mgrwt>
</event>
<event>
 5    1  0.3179758E-002  0.1250017E+03  0.7818608E-02  0.1235067E+00
          4   -1    0    0  501    0  0.00000000000E+00  0.00000000000E+00  0.93683163342E+03  0.93683249425E+03  0.12700000000E+01 0.  1.
         -4   -1    0    0    0  501 -0.00000000000E+00 -0.00000000000E+00 -0.40721662149E+01  0.42656110561E+01  0.12700000000E+01 0.  1.
         25    2    1    2    0    0  0.00000000000E+00  0.00000000000E+00  0.93275946721E+03  0.94109810531E+03  0.12500168056E+03 0.  0.
    9000005    1    3    3    0    0  0.59819029879E+02 -0.30329296652E+01  0.60060162339E+03  0.60358166392E+03  0.10000000000E+01 0.  0.
    9000005    1    3    3    0    0 -0.59819029879E+02  0.30329296652E+01  0.33215784382E+03  0.33751644139E+03  0.10000000000E+01 0.  0.
<mgrwt>
<rscale>  0 0.12500168E+03</rscale>
<asrwt>0</asrwt>
<pdfrwt beam="1">  1        4 0.14414288E+00 0.12500168E+03</pdfrwt>
<pdfrwt beam="2">  1       -4 0.64143375E-03 0.12500168E+03</pdfrwt>
<totfact> 0.32632953E+03</totfact>
</mgrwt>
</event>
<event>
 5    1  0.3179758E-002  0.1249952E+03  0.7818608E-02  0.1235077E+00
          4   -1    0    0  501    0  0.00000000000E+00  0.00000000000E+00  0.54875833816E+01  0.56326256196E+01  0.12700000000E+01 0. -1.
         -4   -1    0    0    0  501 -0.00000000000E+00 -0.00000000000E+00 -0.70235024217E+03  0.70235139039E+03  0.12700000000E+01 0. -1.
         25    2    1    2    0    0  0.00000000000E+00  0.00000000000E+00 -0.69686265879E+03  0.70798401601E+03  0.12499520673E+03 0.  0.
    9000005    1    3    3    0    0 -0.28611517859E+02  0.54085278269E+02 -0.42032603857E+03  0.42475736012E+03  0.10000000000E+01 0.  0.
    9000005    1    3    3    0    0  0.28611517859E+02 -0.54085278269E+02 -0.27653662022E+03  0.28322665588E+03  0.10000000000E+01 0.  0.
<mgrwt>
<rscale>  0 0.12499521E+03</rscale>
<asrwt>0</asrwt>
<pdfrwt beam="1">  1        4 0.85548957E-03 0.12499521E+03</pdfrwt>
<pdfrwt beam="2">  1       -4 0.10806506E+00 0.12499521E+03</pdfrwt>
<totfact> 0.42673067E+03</totfact>
</mgrwt>
</event>
<event>
 5    1  0.3179758E-002  0.1249991E+03  0.7818608E-02  0.1235071E+00
         -4   -1    0    0    0  501 -0.00000000000E+00  0.00000000000E+00  0.18424686920E+03  0.18425124615E+03  0.12700000000E+01 0. -1.
          4   -1    0    0  501    0  0.00000000000E+00 -0.00000000000E+00 -0.21177231489E+02  0.21215278304E+02  0.12700000000E+01 0. -1.
         25    2    1    2    0    0  0.00000000000E+00  0.00000000000E+00  0.16306963771E+03  0.20546652446E+03  0.12499914372E+03 0.  0.
    9000005    1    3    3    0    0  0.61960264977E+02 -0.35242730201E+01  0.93580390968E+02  0.11229329682E+03  0.10000000000E+01 0.  0.
    9000005    1    3    3    0    0 -0.61960264977E+02  0.35242730201E+01  0.69489246741E+02  0.93173227641E+02  0.10000000000E+01 0.  0.
<mgrwt>
<rscale>  0 0.12499914E+03</rscale>
<asrwt>0</asrwt>
<pdfrwt beam="2">  1        4 0.32612990E-02 0.12499914E+03</pdfrwt>
<pdfrwt beam="1">  1       -4 0.28348935E-01 0.12499914E+03</pdfrwt>
<totfact> 0.89223359E+03</totfact>
</mgrwt>
</event>
<event>
 5    1  0.3179758E-002  0.1250012E+03  0.7818608E-02  0.1235067E+00
         -4   -1    0    0    0  501 -0.00000000000E+00  0.00000000000E+00  0.77992425662E+02  0.78002765083E+02  0.12700000000E+01 0.  1.
          4   -1    0    0  501    0  0.00000000000E+00 -0.00000000000E+00 -0.50064262835E+02  0.50080368541E+02  0.12700000000E+01 0.  1.
         25    2    1    2    0    0  0.00000000000E+00  0.00000000000E+00  0.27928162827E+02  0.12808313362E+03  0.12500122736E+03 0.  0.
    9000005    1    3    3    0    0  0.52166054282E+02 -0.33313041070E+02  0.22794609480E+02  0.65967038330E+02  0.10000000000E+01 0.  0.
    9000005    1    3    3    0    0 -0.52166054282E+02  0.33313041070E+02  0.51335533465E+01  0.62116095295E+02  0.10000000000E+01 0.  0.
<mgrwt>
<rscale>  0 0.12500123E+03</rscale>
<asrwt>0</asrwt>
<pdfrwt beam="2">  1        4 0.77042285E-02 0.12500123E+03</pdfrwt>
<pdfrwt beam="1">  1       -4 0.12000869E-01 0.12500123E+03</pdfrwt>
<totfact> 0.10385405E+04</totfact>
</mgrwt>
</event>
<event>
 5    1  0.3179758E-002  0.1249966E+03  0.7818608E-02  0.1235075E+00
         -4   -1    0    0    0  501 -0.00000000000E+00  0.00000000000E+00  0.31388689986E+02  0.31414371854E+02  0.12700000000E+01 0. -1.
          4   -1    0    0  501    0  0.00000000000E+00 -0.00000000000E+00 -0.12436103379E+03  0.12436751837E+03  0.12700000000E+01 0. -1.
         25    2    1    2    0    0  0.00000000000E+00  0.00000000000E+00 -0.92972343807E+02  0.15578189023E+03  0.12499656239E+03 0.  0.
    9000005    1    3    3    0    0 -0.54724324931E+01  0.48871029054E+02  0.15681057804E+01  0.49211624175E+02  0.10000000000E+01 0.  0.
    9000005    1    3    3    0    0  0.54724324931E+01 -0.48871029054E+02 -0.94540449587E+02  0.10657026605E+03  0.10000000000E+01 0.  0.
<mgrwt>
<rscale>  0 0.12499656E+03</rscale>
<asrwt>0</asrwt>
<pdfrwt beam="2">  1        4 0.19134941E-01 0.12499656E+03</pdfrwt>
<pdfrwt beam="1">  1       -4 0.48315036E-02 0.12499656E+03</pdfrwt>
<totfact> 0.98169811E+03</totfact>
</mgrwt>
</event>
<event>
 5    1  0.3179758E-002  0.1250006E+03  0.7818608E-02  0.1235068E+00
         -4   -1    0    0    0  501 -0.00000000000E+00  0.00000000000E+00  0.22499551313E+02  0.22535365745E+02  0.12700000000E+01 0.  1.
          4   -1    0    0  501    0  0.00000000000E+00 -0.00000000000E+00 -0.17343999097E+03  0.17344464064E+03  0.12700000000E+01 0.  1.
         25    2    1    2    0    0  0.00000000000E+00  0.00000000000E+00 -0.15094043966E+03  0.19598000639E+03  0.12500058632E+03 0.  0.
    9000005    1    3    3    0    0  0.48565452425E+02  0.37948832527E+02 -0.59285083724E+02  0.85524488958E+02  0.10000000000E+01 0.  0.
    9000005    1    3    3    0    0 -0.48565452425E+02 -0.37948832527E+02 -0.91655355933E+02  0.11045551743E+03  0.10000000000E+01 0.  0.
<mgrwt>
<rscale>  0 0.12500059E+03</rscale>
<asrwt>0</asrwt>
<pdfrwt beam="2">  1        4 0.26686187E-01 0.12500059E+03</pdfrwt>
<pdfrwt beam="1">  1       -4 0.34645822E-02 0.12500059E+03</pdfrwt>
<totfact> 0.90815907E+03</totfact>
</mgrwt>
</event>
<event>
 5    1  0.3179758E-002  0.1250033E+03  0.7818608E-02  0.1235064E+00
          4   -1    0    0  501    0  0.00000000000E+00  0.00000000000E+00  0.22859213848E+03  0.22859566635E+03  0.12700000000E+01 0. -1.
         -4   -1    0    0    0  501 -0.00000000000E+00 -0.00000000000E+00 -0.17061934822E+02  0.17109135568E+02  0.12700000000E+01 0. -1.
         25    2    1    2    0    0  0.00000000000E+00  0.00000000000E+00  0.21153020366E+03  0.24570480192E+03  0.12500329046E+03 0.  0.
    9000005    1    3    3    0    0  0.39376904028E+02 -0.33744971142E+02  0.17431286250E+03  0.18186598825E+03  0.10000000000E+01 0.  0.
    9000005    1    3    3    0    0 -0.39376904028E+02  0.33744971142E+02  0.37217341157E+02  0.63838813672E+02  0.10000000000E+01 0.  0.
<mgrwt>
<rscale>  0 0.12500329E+03</rscale>
<asrwt>0</asrwt>
<pdfrwt beam="1">  1        4 0.35171921E-01 0.12500329E+03</pdfrwt>
<pdfrwt beam="2">  1       -4 0.26288154E-02 0.12500329E+03</pdfrwt>
<totfact> 0.82948926E+03</totfact>
</mgrwt>
</event>
<event>
 5    1  0.3179758E-002  0.1249835E+03  0.7818608E-02  0.1235095E+00
          4   -1    0    0  501    0  0.00000000000E+00  0.00000000000E+00  0.23374157298E+03  0.23374502313E+03  0.12700000000E+01 0. -1.
         -4   -1    0    0    0  501 -0.00000000000E+00 -0.00000000000E+00 -0.16679715123E+02  0.16727994398E+02  0.12700000000E+01 0. -1.
         25    2    1    2    0    0  0.00000000000E+00  0.00000000000E+00  0.21706185786E+03  0.25047301753E+03  0.12498352841E+03 0.  0.
    9000005    1    3    3    0    0  0.27393184422E+02 -0.44960451382E+02  0.17596921663E+03  0.18367905146E+03  0.10000000000E+01 0.  0.
    9000005    1    3    3    0    0 -0.27393184422E+02  0.44960451382E+02  0.41092641223E+02  0.66793966074E+02  0.10000000000E+01 0.  0.
<mgrwt>
<rscale>  0 0.12498353E+03</rscale>
<asrwt>0</asrwt>
<pdfrwt beam="1">  1        4 0.35964221E-01 0.12498353E+03</pdfrwt>
<pdfrwt beam="2">  1       -4 0.25700892E-02 0.12498353E+03</pdfrwt>
<totfact> 0.82292099E+03</totfact>
</mgrwt>
</event>
<event>
 5    1  0.3179758E-002  0.1249994E+03  0.7818608E-02  0.1235070E+00
          4   -1    0    0  501    0  0.00000000000E+00  0.00000000000E+00  0.94545373524E+03  0.94545458821E+03  0.12700000000E+01 0. -1.
         -4   -1    0    0    0  501 -0.00000000000E+00 -0.00000000000E+00 -0.40331043589E+01  0.42283366434E+01  0.12700000000E+01 0. -1.
         25    2    1    2    0    0  0.00000000000E+00  0.00000000000E+00  0.94142063088E+03  0.94968292486E+03  0.12499941408E+03 0.  0.
    9000005    1    3    3    0    0  0.26198396776E+02 -0.69711902733E+01  0.89848796060E+03  0.89889741841E+03  0.10000000000E+01 0.  0.
    9000005    1    3    3    0    0 -0.26198396776E+02  0.69711902733E+01  0.42932670278E+02  0.50785506443E+02  0.10000000000E+01 0.  0.
<mgrwt>
<rscale>  0 0.12499941E+03</rscale>
<asrwt>0</asrwt>
<pdfrwt beam="1">  1        4 0.14546945E+00 0.12499941E+03</pdfrwt>
<pdfrwt beam="2">  1       -4 0.63556131E-03 0.12499941E+03</pdfrwt>
<totfact> 0.32327654E+03</totfact>
</mgrwt>
</event>
<event>
 5    1  0.3179758E-002  0.1249989E+03  0.7818608E-02  0.1235071E+00
         -4   -1    0    0    0  501 -0.00000000000E+00  0.00000000000E+00  0.26999543870E+02  0.27029396390E+02  0.12700000000E+01 0. -1.
          4   -1    0    0  501    0  0.00000000000E+00 -0.00000000000E+00 -0.14456314755E+03  0.14456872597E+03  0.12700000000E+01 0. -1.
         25    2    1    2    0    0  0.00000000000E+00  0.00000000000E+00 -0.11756360368E+03  0.17159812236E+03  0.12499885875E+03 0.  0.
    9000005    1    3    3    0    0  0.48556063646E+02  0.24197336975E+02 -0.10136013501E+03  0.11496990651E+03  0.10000000000E+01 0.  0.
    9000005    1    3    3    0    0 -0.48556063646E+02 -0.24197336975E+02 -0.16203468666E+02  0.56628215849E+02  0.10000000000E+01 0.  0.
<mgrwt>
<rscale>  0 0.12499886E+03</rscale>
<asrwt>0</asrwt>
<pdfrwt beam="2">  1        4 0.22243209E-01 0.12499886E+03</pdfrwt>
<pdfrwt beam="1">  1       -4 0.41565015E-02 0.12499886E+03</pdfrwt>
<totfact> 0.95154042E+03</totfact>
</mgrwt>
</event>
<event>
 5    1  0.3179758E-002  0.1250009E+03  0.7818608E-02  0.1235068E+00
          4   -1    0    0  501    0  0.00000000000E+00  0.00000000000E+00  0.11117236353E+02  0.11189541730E+02  0.12700000000E+01 0. -1.
         -4   -1    0    0    0  501 -0.00000000000E+00 -0.00000000000E+00 -0.35016165150E+03  0.35016395457E+03  0.12700000000E+01 0. -1.
         25    2    1    2    0    0  0.00000000000E+00  0.00000000000E+00 -0.33904441515E+03  0.36135349630E+03  0.12500093538E+03 0.  0.
    9000005    1    3    3    0    0  0.22925568196E+02 -0.20703671444E+02 -0.32656204642E+03  0.32802133139E+03  0.10000000000E+01 0.  0.
    9000005    1    3    3    0    0 -0.22925568196E+02  0.20703671444E+02 -0.12482368729E+02  0.33332164908E+02  0.10000000000E+01 0.  0.
<mgrwt>
<rscale>  0 0.12500094E+03</rscale>
<asrwt>0</asrwt>
<pdfrwt beam="1">  1        4 0.17160834E-02 0.12500094E+03</pdfrwt>
<pdfrwt beam="2">  1       -4 0.53876754E-01 0.12500094E+03</pdfrwt>
<totfact> 0.68491917E+03</totfact>
</mgrwt>
</event>
<event>
 5    1  0.3179758E-002  0.1250069E+03  0.7818608E-02  0.1235058E+00
          4   -1    0    0  501    0  0.00000000000E+00  0.00000000000E+00  0.27541446738E+03  0.27541739550E+03  0.12700000000E+01 0. -1.
         -4   -1    0    0    0  501 -0.00000000000E+00 -0.00000000000E+00 -0.14153301996E+02  0.14210167395E+02  0.12700000000E+01 0. -1.
         25    2    1    2    0    0  0.00000000000E+00  0.00000000000E+00  0.26126116538E+03  0.28962756289E+03  0.12500691441E+03 0.  0.
    9000005    1    3    3    0    0  0.51029142630E+02 -0.18284366790E+02  0.58568500365E+02  0.79809527636E+02  0.10000000000E+01 0.  0.
    9000005    1    3    3    0    0 -0.51029142630E+02  0.18284366790E+02  0.20269266502E+03  0.20981803526E+03  0.10000000000E+01 0.  0.
<mgrwt>
<rscale>  0 0.12500691E+03</rscale>
<asrwt>0</asrwt>
<pdfrwt beam="1">  1        4 0.42376051E-01 0.12500691E+03</pdfrwt>
<pdfrwt beam="2">  1       -4 0.21820309E-02 0.12500691E+03</pdfrwt>
<totfact> 0.76906825E+03</totfact>
</mgrwt>
</event>
<event>
 5    1  0.3179758E-002  0.1250020E+03  0.7818608E-02  0.1235066E+00
         -4   -1    0    0    0  501 -0.00000000000E+00  0.00000000000E+00  0.37810906479E+02  0.37832228969E+02  0.12700000000E+01 0. -1.
          4   -1    0    0  501    0  0.00000000000E+00 -0.00000000000E+00 -0.10325905726E+03  0.10326686693E+03  0.12700000000E+01 0. -1.
         25    2    1    2    0    0  0.00000000000E+00  0.00000000000E+00 -0.65448150782E+02  0.14109909590E+03  0.12500197768E+03 0.  0.
    9000005    1    3    3    0    0  0.34361354761E+02 -0.23171835597E+02  0.20072395888E+02  0.46060153524E+02  0.10000000000E+01 0.  0.
    9000005    1    3    3    0    0 -0.34361354761E+02  0.23171835597E+02 -0.85520546671E+02  0.95038942380E+02  0.10000000000E+01 0.  0.
<mgrwt>
<rscale>  0 0.12500198E+03</rscale>
<asrwt>0</asrwt>
<pdfrwt beam="2">  1        4 0.15888250E-01 0.12500198E+03</pdfrwt>
<pdfrwt beam="1">  1       -4 0.58193035E-02 0.12500198E+03</pdfrwt>
<totfact> 0.10110407E+04</totfact>
</mgrwt>
</event>
<event>
 5    1  0.3179758E-002  0.1250093E+03  0.7818608E-02  0.1235055E+00
         -4   -1    0    0    0  501 -0.00000000000E+00  0.00000000000E+00  0.97899158955E+01  0.98719477937E+01  0.12700000000E+01 0.  1.
          4   -1    0    0  501    0  0.00000000000E+00 -0.00000000000E+00 -0.39731879323E+03  0.39732082295E+03  0.12700000000E+01 0.  1.
         25    2    1    2    0    0  0.00000000000E+00  0.00000000000E+00 -0.38752887733E+03  0.40719277075E+03  0.12500928678E+03 0.  0.
    9000005    1    3    3    0    0 -0.12870190671E+02  0.10978176816E+02 -0.38973560035E+03  0.39010383279E+03  0.10000000000E+01 0.  0.
    9000005    1    3    3    0    0  0.12870190671E+02 -0.10978176816E+02  0.22067230183E+01  0.17088937960E+02  0.10000000000E+01 0.  0.
<mgrwt>
<rscale>  0 0.12500929E+03</rscale>
<asrwt>0</asrwt>
<pdfrwt beam="2">  1        4 0.61132422E-01 0.12500929E+03</pdfrwt>
<pdfrwt beam="1">  1       -4 0.15126075E-02 0.12500929E+03</pdfrwt>
<totfact> 0.63846109E+03</totfact>
</mgrwt>
</event>
<event>
 5    1  0.3179758E-002  0.1250096E+03  0.7818608E-02  0.1235054E+00
         -4   -1    0    0    0  501 -0.00000000000E+00  0.00000000000E+00  0.91553897204E+02  0.91562705253E+02  0.12700000000E+01 0.  1.
          4   -1    0    0  501    0  0.00000000000E+00 -0.00000000000E+00 -0.42652382246E+02  0.42671285559E+02  0.12700000000E+01 0.  1.
         25    2    1    2    0    0  0.00000000000E+00  0.00000000000E+00  0.48901514958E+02  0.13423399081E+03  0.12500962413E+03 0.  0.
    9000005    1    3    3    0    0 -0.61867889217E+01  0.93547525714E+00  0.91221974992E+02  0.91441785813E+02  0.10000000000E+01 0.  0.
    9000005    1    3    3    0    0  0.61867889217E+01 -0.93547525714E+00 -0.42320460034E+02  0.42792204999E+02  0.10000000000E+01 0.  0.
<mgrwt>
<rscale>  0 0.12500962E+03</rscale>
<asrwt>0</asrwt>
<pdfrwt beam="2">  1        4 0.65640367E-02 0.12500962E+03</pdfrwt>
<pdfrwt beam="1">  1       -4 0.14087346E-01 0.12500962E+03</pdfrwt>
<totfact> 0.10252016E+04</totfact>
</mgrwt>
</event>
<event>
 5    1  0.3179758E-002  0.1250011E+03  0.7818608E-02  0.1235068E+00
          4   -1    0    0  501    0  0.00000000000E+00  0.00000000000E+00  0.27374360838E+03  0.27374655436E+03  0.12700000000E+01 0.  1.
         -4   -1    0    0    0  501 -0.00000000000E+00 -0.00000000000E+00 -0.14238703131E+02  0.14295228815E+02  0.12700000000E+01 0.  1.
         25    2    1    2    0    0  0.00000000000E+00  0.00000000000E+00  0.25950490524E+03  0.28804178318E+03  0.12500109204E+03 0.  0.
    9000005    1    3    3    0    0  0.23052108516E+02 -0.31295532854E+01  0.26340514440E+03  0.26443234277E+03  0.10000000000E+01 0.  0.
    9000005    1    3    3    0    0 -0.23052108516E+02  0.31295532854E+01 -0.39002391520E+01  0.23609440405E+02  0.10000000000E+01 0.  0.
<mgrwt>
<rscale>  0 0.12500109E+03</rscale>
<asrwt>0</asrwt>
<pdfrwt beam="1">  1        4 0.42118971E-01 0.12500109E+03</pdfrwt>
<pdfrwt beam="2">  1       -4 0.21951447E-02 0.12500109E+03</pdfrwt>
<totfact> 0.77121896E+03</totfact>
</mgrwt>
</event>
<event>
 5    1  0.3179758E-002  0.1249912E+03  0.7818608E-02  0.1235083E+00
         -4   -1    0    0    0  501 -0.00000000000E+00  0.00000000000E+00  0.10431674360E+04  0.10431682091E+04  0.12700000000E+01 0. -1.
          4   -1    0    0  501    0  0.00000000000E+00 -0.00000000000E+00 -0.36355815466E+01  0.38510197587E+01  0.12700000000E+01 0. -1.
         25    2    1    2    0    0  0.00000000000E+00  0.00000000000E+00  0.10395318545E+04  0.10470192289E+04  0.12499115621E+03 0.  0.
    9000005    1    3    3    0    0  0.26275353173E+02  0.44007463514E+02  0.81918584391E+03  0.82078833928E+03  0.10000000000E+01 0.  0.
    9000005    1    3    3    0    0 -0.26275353173E+02 -0.44007463514E+02  0.22034601058E+03  0.22623088960E+03  0.10000000000E+01 0.  0.
<mgrwt>
<rscale>  0 0.12499116E+03</rscale>
<asrwt>0</asrwt>
<pdfrwt beam="2">  1        4 0.57595160E-03 0.12499116E+03</pdfrwt>
<pdfrwt beam="1">  1       -4 0.16050401E+00 0.12499116E+03</pdfrwt>
<totfact> 0.29093616E+03</totfact>
</mgrwt>
</event>
<event>
 5    1  0.3179758E-002  0.1250041E+03  0.7818608E-02  0.1235063E+00
         -4   -1    0    0    0  501 -0.00000000000E+00  0.00000000000E+00  0.75002758923E+03  0.75002866445E+03  0.12700000000E+01 0. -1.
          4   -1    0    0  501    0  0.00000000000E+00 -0.00000000000E+00 -0.51299700423E+01  0.52848361030E+01  0.12700000000E+01 0. -1.
         25    2    1    2    0    0  0.00000000000E+00  0.00000000000E+00  0.74489761919E+03  0.75531350056E+03  0.12500408416E+03 0.  0.
    9000005    1    3    3    0    0 -0.38140114024E+02 -0.38731331281E+02  0.55875598232E+03  0.56139472041E+03  0.10000000000E+01 0.  0.
    9000005    1    3    3    0    0  0.38140114024E+02  0.38731331281E+02  0.18614163686E+03  0.19391878015E+03  0.10000000000E+01 0.  0.
<mgrwt>
<rscale>  0 0.12500408E+03</rscale>
<asrwt>0</asrwt>
<pdfrwt beam="2">  1        4 0.80122175E-03 0.12500408E+03</pdfrwt>
<pdfrwt beam="1">  1       -4 0.11540084E+00 0.12500408E+03</pdfrwt>
<totfact> 0.40317676E+03</totfact>
</mgrwt>
</event>
<event>
 5    1  0.3179758E-002  0.1250001E+03  0.7818608E-02  0.1235069E+00
          4   -1    0    0  501    0  0.00000000000E+00  0.00000000000E+00  0.98129780432E+01  0.98948187490E+01  0.12700000000E+01 0. -1.
         -4   -1    0    0    0  501 -0.00000000000E+00 -0.00000000000E+00 -0.39633443335E+03  0.39633646812E+03  0.12700000000E+01 0. -1.
         25    2    1    2    0    0  0.00000000000E+00  0.00000000000E+00 -0.38652145531E+03  0.40623128687E+03  0.12500009206E+03 0.  0.
    9000005    1    3    3    0    0 -0.15519128967E+02  0.54102975599E+02 -0.28150354925E+03  0.28707703421E+03  0.10000000000E+01 0.  0.
    9000005    1    3    3    0    0  0.15519128967E+02 -0.54102975599E+02 -0.10501790606E+03  0.11915425266E+03  0.10000000000E+01 0.  0.
<mgrwt>
<rscale>  0 0.12500009E+03</rscale>
<asrwt>0</asrwt>
<pdfrwt beam="1">  1        4 0.15161412E-02 0.12500009E+03</pdfrwt>
<pdfrwt beam="2">  1       -4 0.60980968E-01 0.12500009E+03</pdfrwt>
<totfact> 0.63951096E+03</totfact>
</mgrwt>
</event>
<event>
 5    1  0.3179758E-002  0.1250005E+03  0.7818608E-02  0.1235069E+00
          4   -1    0    0  501    0  0.00000000000E+00  0.00000000000E+00  0.32340879079E+03  0.32341128438E+03  0.12700000000E+01 0.  1.
         -4   -1    0    0    0  501 -0.00000000000E+00 -0.00000000000E+00 -0.12042522872E+02  0.12109304568E+02  0.12700000000E+01 0.  1.
         25    2    1    2    0    0  0.00000000000E+00  0.00000000000E+00  0.31136626792E+03  0.33552058895E+03  0.12500045123E+03 0.  0.
    9000005    1    3    3    0    0  0.45551949860E+02 -0.34315502135E+02  0.22426024176E+03  0.23140049667E+03  0.10000000000E+01 0.  0.
    9000005    1    3    3    0    0 -0.45551949860E+02  0.34315502135E+02  0.87106026161E+02  0.10412009228E+03  0.10000000000E+01 0.  0.
<mgrwt>
<rscale>  0 0.12500045E+03</rscale>
<asrwt>0</asrwt>
<pdfrwt beam="1">  1        4 0.49760519E-01 0.12500045E+03</pdfrwt>
<pdfrwt beam="2">  1       -4 0.18580250E-02 0.12500045E+03</pdfrwt>
<totfact> 0.71346694E+03</totfact>
</mgrwt>
</event>
<event>
 5    1  0.3179758E-002  0.1249999E+03  0.7818608E-02  0.1235069E+00
          4   -1    0    0  501    0  0.00000000000E+00  0.00000000000E+00  0.29197934387E+02  0.29225541441E+02  0.12700000000E+01 0. -1.
         -4   -1    0    0    0  501 -0.00000000000E+00 -0.00000000000E+00 -0.13369104290E+03  0.13369707496E+03  0.12700000000E+01 0. -1.
         25    2    1    2    0    0  0.00000000000E+00  0.00000000000E+00 -0.10449310852E+03  0.16292261640E+03  0.12499987683E+03 0.  0.
    9000005    1    3    3    0    0  0.22530235798E+02 -0.58116498266E+02 -0.58090505889E+02  0.85209423013E+02  0.10000000000E+01 0.  0.
    9000005    1    3    3    0    0 -0.22530235798E+02  0.58116498266E+02 -0.46402602627E+02  0.77713193387E+02  0.10000000000E+01 0.  0.
<mgrwt>
<rscale>  0 0.12499988E+03</rscale>
<asrwt>0</asrwt>
<pdfrwt beam="1">  1        4 0.44945776E-02 0.12499988E+03</pdfrwt>
<pdfrwt beam="2">  1       -4 0.20570440E-01 0.12499988E+03</pdfrwt>
<totfact> 0.96782536E+03</totfact>
</mgrwt>
</event>
<event>
 5    1  0.3179758E-002  0.1250015E+03  0.7818608E-02  0.1235067E+00
          4   -1    0    0  501    0  0.00000000000E+00  0.00000000000E+00  0.66932993638E+01  0.68127201890E+01  0.12700000000E+01 0. -1.
         -4   -1    0    0    0  501 -0.00000000000E+00 -0.00000000000E+00 -0.57833942477E+03  0.57834081919E+03  0.12700000000E+01 0. -1.
         25    2    1    2    0    0  0.00000000000E+00  0.00000000000E+00 -0.57164612540E+03  0.58515353938E+03  0.12500148782E+03 0.  0.
    9000005    1    3    3    0    0  0.14483475941E+02  0.53615952913E+02 -0.15170101338E+03  0.16155073179E+03  0.10000000000E+01 0.  0.
    9000005    1    3    3    0    0 -0.14483475941E+02 -0.53615952913E+02 -0.41994511202E+03  0.42360280758E+03  0.10000000000E+01 0.  0.
<mgrwt>
<rscale>  0 0.12500149E+03</rscale>
<asrwt>0</asrwt>
<pdfrwt beam="1">  1        4 0.10390323E-02 0.12500149E+03</pdfrwt>
<pdfrwt beam="2">  1       -4 0.88984551E-01 0.12500149E+03</pdfrwt>
<totfact> 0.49816765E+03</totfact>
</mgrwt>
</event>
<event>
 5    1  0.3179758E-002  0.1249987E+03  0.7818608E-02  0.1235071E+00
         -4   -1    0    0    0  501 -0.00000000000E+00  0.00000000000E+00  0.50553086994E+02  0.50569037015E+02  0.12700000000E+01 0. -1.
          4   -1    0    0  501    0  0.00000000000E+00 -0.00000000000E+00 -0.77235305921E+02  0.77245746684E+02  0.12700000000E+01 0. -1.
         25    2    1    2    0    0  0.00000000000E+00  0.00000000000E+00 -0.26682218927E+02  0.12781478370E+03  0.12499871249E+03 0.  0.
    9000005    1    3    3    0    0  0.26930600599E+02  0.50167707479E+02  0.12990017956E+02  0.58410587129E+02  0.10000000000E+01 0.  0.
    9000005    1    3    3    0    0 -0.26930600599E+02 -0.50167707479E+02 -0.39672236882E+02  0.69404196570E+02  0.10000000000E+01 0.  0.
<mgrwt>
<rscale>  0 0.12499871E+03</rscale>
<asrwt>0</asrwt>
<pdfrwt beam="2">  1        4 0.11884385E-01 0.12499871E+03</pdfrwt>
<pdfrwt beam="1">  1       -4 0.77794281E-02 0.12499871E+03</pdfrwt>
<totfact> 0.10391792E+04</totfact>
</mgrwt>
</event>
<event>
 5    1  0.3179758E-002  0.1249993E+03  0.7818608E-02  0.1235070E+00
         -4   -1    0    0    0  501 -0.00000000000E+00  0.00000000000E+00  0.11303302265E+03  0.11304015706E+03  0.12700000000E+01 0. -1.
          4   -1    0    0  501    0  0.00000000000E+00 -0.00000000000E+00 -0.34538177971E+02  0.34561519607E+02  0.12700000000E+01 0. -1.
         25    2    1    2    0    0  0.00000000000E+00  0.00000000000E+00  0.78494844677E+02  0.14760167667E+03  0.12499925726E+03 0.  0.
    9000005    1    3    3    0    0 -0.24190341038E+02  0.53930645402E+02  0.15293454235E+02  0.61062073789E+02  0.10000000000E+01 0.  0.
    9000005    1    3    3    0    0  0.24190341038E+02 -0.53930645402E+02  0.63201390442E+02  0.86539602881E+02  0.10000000000E+01 0.  0.
<mgrwt>
<rscale>  0 0.12499926E+03</rscale>
<asrwt>0</asrwt>
<pdfrwt beam="2">  1        4 0.53159101E-02 0.12499926E+03</pdfrwt>
<pdfrwt beam="1">  1       -4 0.17392040E-01 0.12499926E+03</pdfrwt>
<totfact> 0.99785602E+03</totfact>
</mgrwt>
</event>
<event>
 5    1  0.3179758E-002  0.1250049E+03  0.7818608E-02  0.1235062E+00
         -4   -1    0    0    0  501 -0.00000000000E+00  0.00000000000E+00  0.74794190104E+02  0.74804971581E+02  0.12700000000E+01 0. -1.
          4   -1    0    0  501    0  0.00000000000E+00 -0.00000000000E+00 -0.52208503928E+02  0.52223948361E+02  0.12700000000E+01 0. -1.
         25    2    1    2    0    0  0.00000000000E+00  0.00000000000E+00  0.22585686176E+02  0.12702891994E+03  0.12500493303E+03 0.  0.
    9000005    1    3    3    0    0  0.52674444494E+02  0.21507573384E+02  0.37564590816E+02  0.68185565179E+02  0.10000000000E+01 0.  0.
    9000005    1    3    3    0    0 -0.52674444494E+02 -0.21507573384E+02 -0.14978904640E+02  0.58843354764E+02  0.10000000000E+01 0.  0.
<mgrwt>
<rscale>  0 0.12500493E+03</rscale>
<asrwt>0</asrwt>
<pdfrwt beam="2">  1        4 0.80340950E-02 0.12500493E+03</pdfrwt>
<pdfrwt beam="1">  1       -4 0.11508816E-01 0.12500493E+03</pdfrwt>
<totfact> 0.10407358E+04</totfact>
</mgrwt>
</event>
<event>
 5    1  0.3179758E-002  0.1249988E+03  0.7818608E-02  0.1235071E+00
          4   -1    0    0  501    0  0.00000000000E+00  0.00000000000E+00  0.26881637417E+03  0.26881937415E+03  0.12700000000E+01 0.  1.
         -4   -1    0    0    0  501 -0.00000000000E+00 -0.00000000000E+00 -0.14500189013E+02  0.14555699276E+02  0.12700000000E+01 0.  1.
         25    2    1    2    0    0  0.00000000000E+00  0.00000000000E+00  0.25431618515E+03  0.28337507343E+03  0.12499884084E+03 0.  0.
    9000005    1    3    3    0    0 -0.21180478961E+02  0.40058476116E+02  0.29600185646E+02  0.54133771234E+02  0.10000000000E+01 0.  0.
    9000005    1    3    3    0    0  0.21180478961E+02 -0.40058476116E+02  0.22471599951E+03  0.22924130219E+03  0.10000000000E+01 0.  0.
<mgrwt>
<rscale>  0 0.12499884E+03</rscale>
<asrwt>0</asrwt>
<pdfrwt beam="1">  1        4 0.41360869E-01 0.12499884E+03</pdfrwt>
<pdfrwt beam="2">  1       -4 0.22352989E-02 0.12499884E+03</pdfrwt>
<totfact> 0.77734712E+03</totfact>
</mgrwt>
</event>
<event>
 5    1  0.3179758E-002  0.1250068E+03  0.7818608E-02  0.1235059E+00
          4   -1    0    0  501    0  0.00000000000E+00  0.00000000000E+00  0.85084246405E+01  0.86026850380E+01  0.12700000000E+01 0. -1.
         -4   -1    0    0    0  501 -0.00000000000E+00 -0.00000000000E+00 -0.45652931534E+03  0.45653108182E+03  0.12700000000E+01 0. -1.
         25    2    1    2    0    0  0.00000000000E+00  0.00000000000E+00 -0.44802089070E+03  0.46513376686E+03  0.12500681008E+03 0.  0.
    9000005    1    3    3    0    0 -0.52211344684E+02  0.34333762174E+02 -0.22059230135E+03  0.22927449739E+03  0.10000000000E+01 0.  0.
    9000005    1    3    3    0    0  0.52211344684E+02 -0.34333762174E+02 -0.22742858935E+03  0.23585926947E+03  0.10000000000E+01 0.  0.
<mgrwt>
<rscale>  0 0.12500681E+03</rscale>
<asrwt>0</asrwt>
<pdfrwt beam="1">  1        4 0.13163754E-02 0.12500681E+03</pdfrwt>
<pdfrwt beam="2">  1       -4 0.70242647E-01 0.12500681E+03</pdfrwt>
<totfact> 0.58666029E+03</totfact>
</mgrwt>
</event>
<event>
 5    1  0.3179758E-002  0.1249644E+03  0.7818608E-02  0.1235125E+00
         -4   -1    0    0    0  501 -0.00000000000E+00  0.00000000000E+00  0.53320523354E+03  0.53320674599E+03  0.12700000000E+01 0.  1.
          4   -1    0    0  501    0  0.00000000000E+00 -0.00000000000E+00 -0.72651986589E+01  0.73753651810E+01  0.12700000000E+01 0.  1.
         25    2    1    2    0    0  0.00000000000E+00  0.00000000000E+00  0.52594003488E+03  0.54058211117E+03  0.12496438946E+03 0.  0.
    9000005    1    3    3    0    0  0.29697800954E+02 -0.23252149762E+02  0.47524974787E+02  0.60681505243E+02  0.10000000000E+01 0.  0.
    9000005    1    3    3    0    0 -0.29697800954E+02  0.23252149762E+02  0.47841506009E+03  0.47990060593E+03  0.10000000000E+01 0.  0.
<mgrwt>
<rscale>  0 0.12496439E+03</rscale>
<asrwt>0</asrwt>
<pdfrwt beam="2">  1        4 0.11263137E-02 0.12496439E+03</pdfrwt>
<pdfrwt beam="1">  1       -4 0.82040154E-01 0.12496439E+03</pdfrwt>
<totfact> 0.52889025E+03</totfact>
</mgrwt>
</event>
<event>
 5    1  0.3179758E-002  0.1250062E+03  0.7818608E-02  0.1235060E+00
          4   -1    0    0  501    0  0.00000000000E+00  0.00000000000E+00  0.35516511492E+02  0.35539210579E+02  0.12700000000E+01 0.  1.
         -4   -1    0    0    0  501 -0.00000000000E+00 -0.00000000000E+00 -0.10993341116E+03  0.10994074672E+03  0.12700000000E+01 0.  1.
         25    2    1    2    0    0  0.00000000000E+00  0.00000000000E+00 -0.74416899670E+02  0.14547995730E+03  0.12500617193E+03 0.  0.
    9000005    1    3    3    0    0 -0.56953138882E+02 -0.21467231075E+02 -0.20703502302E+02  0.64297255355E+02  0.10000000000E+01 0.  0.
    9000005    1    3    3    0    0  0.56953138882E+02  0.21467231075E+02 -0.53713397368E+02  0.81182701946E+02  0.10000000000E+01 0.  0.
<mgrwt>
<rscale>  0 0.12500617E+03</rscale>
<asrwt>0</asrwt>
<pdfrwt beam="1">  1        4 0.54663891E-02 0.12500617E+03</pdfrwt>
<pdfrwt beam="2">  1       -4 0.16915143E-01 0.12500617E+03</pdfrwt>
<totfact> 0.10019853E+04</totfact>
</mgrwt>
</event>
<event>
 5    1  0.3179758E-002  0.1250039E+03  0.7818608E-02  0.1235063E+00
         -4   -1    0    0    0  501 -0.00000000000E+00  0.00000000000E+00  0.29455991111E+02  0.29483356531E+02  0.12700000000E+01 0. -1.
          4   -1    0    0  501    0  0.00000000000E+00 -0.00000000000E+00 -0.13252936445E+03  0.13253544938E+03  0.12700000000E+01 0. -1.
         25    2    1    2    0    0  0.00000000000E+00  0.00000000000E+00 -0.10307337334E+03  0.16201880591E+03  0.12500389265E+03 0.  0.
    9000005    1    3    3    0    0  0.49067915481E+01  0.42484750155E+02 -0.11059811647E+03  0.11858319428E+03  0.10000000000E+01 0.  0.
    9000005    1    3    3    0    0 -0.49067915481E+01 -0.42484750155E+02  0.75247431232E+01  0.43435611634E+02  0.10000000000E+01 0.  0.
<mgrwt>
<rscale>  0 0.12500389E+03</rscale>
<asrwt>0</asrwt>
<pdfrwt beam="2">  1        4 0.20391706E-01 0.12500389E+03</pdfrwt>
<pdfrwt beam="1">  1       -4 0.45342641E-02 0.12500389E+03</pdfrwt>
<totfact> 0.96946501E+03</totfact>
</mgrwt>
</event>
<event>
 5    1  0.3179758E-002  0.1250146E+03  0.7818608E-02  0.1235047E+00
         -4   -1    0    0    0  501 -0.00000000000E+00  0.00000000000E+00  0.26237996228E+04  0.26237999302E+04  0.12700000000E+01 0.  1.
          4   -1    0    0  501    0  0.00000000000E+00 -0.00000000000E+00 -0.12179791107E+01  0.17596514183E+01  0.12700000000E+01 0.  1.
         25    2    1    2    0    0  0.00000000000E+00  0.00000000000E+00  0.26225816437E+04  0.26255595816E+04  0.12501455355E+03 0.  0.
    9000005    1    3    3    0    0  0.22575159791E+02  0.64633684258E+00  0.87374297592E+02  0.90251445809E+02  0.10000000000E+01 0.  0.
    9000005    1    3    3    0    0 -0.22575159791E+02 -0.64633684258E+00  0.25352073461E+04  0.25353081358E+04  0.10000000000E+01 0.  0.
<mgrwt>
<rscale>  0 0.12501455E+03</rscale>
<asrwt>0</asrwt>
<pdfrwt beam="2">  1        4 0.22907327E-03 0.12501455E+03</pdfrwt>
<pdfrwt beam="1">  1       -4 0.40370119E+00 0.12501455E+03</pdfrwt>
<totfact> 0.37551811E+02</totfact>
</mgrwt>
</event>
<event>
 5    1  0.3179758E-002  0.1250039E+03  0.7818608E-02  0.1235063E+00
         -4   -1    0    0    0  501 -0.00000000000E+00  0.00000000000E+00  0.36521348199E+02  0.36543423133E+02  0.12700000000E+01 0. -1.
          4   -1    0    0  501    0  0.00000000000E+00 -0.00000000000E+00 -0.10690653602E+03  0.10691407926E+03  0.12700000000E+01 0. -1.
         25    2    1    2    0    0  0.00000000000E+00  0.00000000000E+00 -0.70385187820E+02  0.14345750239E+03  0.12500392125E+03 0.  0.
    9000005    1    3    3    0    0  0.25739455729E+02 -0.33429279956E+02 -0.88101157181E+02  0.97687513205E+02  0.10000000000E+01 0.  0.
    9000005    1    3    3    0    0 -0.25739455729E+02  0.33429279956E+02  0.17715969361E+02  0.45769989185E+02  0.10000000000E+01 0.  0.
<mgrwt>
<rscale>  0 0.12500392E+03</rscale>
<asrwt>0</asrwt>
<pdfrwt beam="2">  1        4 0.16449438E-01 0.12500392E+03</pdfrwt>
<pdfrwt beam="1">  1       -4 0.56209473E-02 0.12500392E+03</pdfrwt>
<totfact> 0.10061535E+04</totfact>
</mgrwt>
</event>
<event>
 5    1  0.3179758E-002  0.1250007E+03  0.7818608E-02  0.1235068E+00
         -4   -1    0    0    0  501 -0.00000000000E+00  0.00000000000E+00  0.29348748438E+02  0.29376213760E+02  0.12700000000E+01 0.  1.
          4   -1    0    0  501    0  0.00000000000E+00 -0.00000000000E+00 -0.13300631758E+03  0.13301238069E+03  0.12700000000E+01 0.  1.
         25    2    1    2    0    0  0.00000000000E+00  0.00000000000E+00 -0.10365756914E+03  0.16238859445E+03  0.12500065586E+03 0.  0.
    9000005    1    3    3    0    0  0.34788528016E+02  0.51913796109E+02 -0.51938121481E+02  0.81264090292E+02  0.10000000000E+01 0.  0.
    9000005    1    3    3    0    0 -0.34788528016E+02 -0.51913796109E+02 -0.51719447659E+02  0.81124504153E+02  0.10000000000E+01 0.  0.
<mgrwt>
<rscale>  0 0.12500066E+03</rscale>
<asrwt>0</asrwt>
<pdfrwt beam="2">  1        4 0.20465089E-01 0.12500066E+03</pdfrwt>
<pdfrwt beam="1">  1       -4 0.45177713E-02 0.12500066E+03</pdfrwt>
<totfact> 0.96882822E+03</totfact>
</mgrwt>
</event>
<event>
 5    1  0.3179758E-002  0.1250034E+03  0.7818608E-02  0.1235064E+00
         -4   -1    0    0    0  501 -0.00000000000E+00  0.00000000000E+00  0.11680458834E+03  0.11681149240E+03  0.12700000000E+01 0.  1.
          4   -1    0    0  501    0  0.00000000000E+00 -0.00000000000E+00 -0.33424455520E+02  0.33448574362E+02  0.12700000000E+01 0.  1.
         25    2    1    2    0    0  0.00000000000E+00  0.00000000000E+00  0.83380132816E+02  0.15026006676E+03  0.12500336441E+03 0.  0.
    9000005    1    3    3    0    0  0.52823608403E+02  0.13606087158E+02  0.78347630171E+02  0.95471515992E+02  0.10000000000E+01 0.  0.
    9000005    1    3    3    0    0 -0.52823608403E+02 -0.13606087158E+02  0.50325026454E+01  0.54788550768E+02  0.10000000000E+01 0.  0.
<mgrwt>
<rscale>  0 0.12500336E+03</rscale>
<asrwt>0</asrwt>
<pdfrwt beam="2">  1        4 0.51446103E-02 0.12500336E+03</pdfrwt>
<pdfrwt beam="1">  1       -4 0.17972323E-01 0.12500336E+03</pdfrwt>
<totfact> 0.99244368E+03</totfact>
</mgrwt>
</event>
<event>
 5    1  0.3179758E-002  0.1249998E+03  0.7818608E-02  0.1235070E+00
          4   -1    0    0  501    0  0.00000000000E+00  0.00000000000E+00  0.61201535305E+02  0.61214710844E+02  0.12700000000E+01 0.  1.
         -4   -1    0    0    0  501 -0.00000000000E+00 -0.00000000000E+00 -0.63799409421E+02  0.63812048568E+02  0.12700000000E+01 0.  1.
         25    2    1    2    0    0  0.00000000000E+00  0.00000000000E+00 -0.25978741161E+01  0.12502675941E+03  0.12499976648E+03 0.  0.
    9000005    1    3    3    0    0  0.26418964777E+01 -0.22140997412E+01  0.61111280242E+02  0.61216586213E+02  0.10000000000E+01 0.  0.
    9000005    1    3    3    0    0 -0.26418964777E+01  0.22140997412E+01 -0.63709154358E+02  0.63810173199E+02  0.10000000000E+01 0.  0.
<mgrwt>
<rscale>  0 0.12499977E+03</rscale>
<asrwt>0</asrwt>
<pdfrwt beam="1">  1        4 0.94176065E-02 0.12499977E+03</pdfrwt>
<pdfrwt beam="2">  1       -4 0.98172795E-02 0.12499977E+03</pdfrwt>
<totfact> 0.10452337E+04</totfact>
</mgrwt>
</event>
<event>
 5    1  0.3179758E-002  0.1250007E+03  0.7818608E-02  0.1235068E+00
         -4   -1    0    0    0  501 -0.00000000000E+00  0.00000000000E+00  0.11420391849E+03  0.11421097977E+03  0.12700000000E+01 0. -1.
          4   -1    0    0  501    0  0.00000000000E+00 -0.00000000000E+00 -0.34184616853E+02  0.34208199739E+02  0.12700000000E+01 0. -1.
         25    2    1    2    0    0  0.00000000000E+00  0.00000000000E+00  0.80019301639E+02  0.14841917950E+03  0.12500065684E+03 0.  0.
    9000005    1    3    3    0    0 -0.25268776156E+01 -0.60800616470E+02  0.23126301016E+02  0.65107033970E+02  0.10000000000E+01 0.  0.
    9000005    1    3    3    0    0  0.25268776156E+01  0.60800616470E+02  0.56893000623E+02  0.83312145535E+02  0.10000000000E+01 0.  0.
<mgrwt>
<rscale>  0 0.12500066E+03</rscale>
<asrwt>0</asrwt>
<pdfrwt beam="2">  1        4 0.52615291E-02 0.12500066E+03</pdfrwt>
<pdfrwt beam="1">  1       -4 0.17572191E-01 0.12500066E+03</pdfrwt>
<totfact> 0.99618276E+03</totfact>
</mgrwt>
</event>
<event>
 5    1  0.3179758E-002  0.1249992E+03  0.7818608E-02  0.1235070E+00
          4   -1    0    0  501    0  0.00000000000E+00  0.00000000000E+00  0.32447540933E+02  0.32472385385E+02  0.12700000000E+01 0. -1.
         -4   -1    0    0    0  501 -0.00000000000E+00 -0.00000000000E+00 -0.12031089838E+03  0.12031760124E+03  0.12700000000E+01 0. -1.
         25    2    1    2    0    0  0.00000000000E+00  0.00000000000E+00 -0.87863357445E+02  0.15278998663E+03  0.12499924173E+03 0.  0.
    9000005    1    3    3    0    0  0.62006481909E+01  0.44691406532E+02  0.89180105220E+01  0.46003269095E+02  0.10000000000E+01 0.  0.
    9000005    1    3    3    0    0 -0.62006481909E+01 -0.44691406532E+02 -0.96781367967E+02  0.10678671753E+03  0.10000000000E+01 0.  0.
<mgrwt>
<rscale>  0 0.12499924E+03</rscale>
<asrwt>0</asrwt>
<pdfrwt beam="1">  1        4 0.49943562E-02 0.12499924E+03</pdfrwt>
<pdfrwt beam="2">  1       -4 0.18511795E-01 0.12499924E+03</pdfrwt>
<totfact> 0.98752120E+03</totfact>
</mgrwt>
</event>
<event>
 5    1  0.3179758E-002  0.1250163E+03  0.7818608E-02  0.1235044E+00
         -4   -1    0    0    0  501 -0.00000000000E+00  0.00000000000E+00  0.15116616578E+04  0.15116621912E+04  0.12700000000E+01 0. -1.
          4   -1    0    0  501    0  0.00000000000E+00 -0.00000000000E+00 -0.24281819938E+01  0.27402495863E+01  0.12700000000E+01 0. -1.
         25    2    1    2    0    0  0.00000000000E+00  0.00000000000E+00  0.15092334758E+04  0.15144024408E+04  0.12501627264E+03 0.  0.
    9000005    1    3    3    0    0  0.16084901633E+02 -0.56523639316E+02  0.49690023964E+03  0.50036436126E+03  0.10000000000E+01 0.  0.
    9000005    1    3    3    0    0 -0.16084901633E+02  0.56523639316E+02  0.10123332361E+04  0.10140380796E+04  0.10000000000E+01 0.  0.
<mgrwt>
<rscale>  0 0.12501627E+03</rscale>
<asrwt>0</asrwt>
<pdfrwt beam="2">  1        4 0.39761339E-03 0.12501627E+03</pdfrwt>
<pdfrwt beam="1">  1       -4 0.23258697E+00 0.12501627E+03</pdfrwt>
<totfact> 0.17642793E+03</totfact>
</mgrwt>
</event>
<event>
 5    1  0.3179758E-002  0.1250043E+03  0.7818608E-02  0.1235063E+00
         -4   -1    0    0    0  501 -0.00000000000E+00  0.00000000000E+00  0.98630215482E+01  0.99444504152E+01  0.12700000000E+01 0.  1.
          4   -1    0    0  501    0  0.00000000000E+00 -0.00000000000E+00 -0.39436653987E+03  0.39436858479E+03  0.12700000000E+01 0.  1.
         25    2    1    2    0    0  0.00000000000E+00  0.00000000000E+00 -0.38450351832E+03  0.40431303521E+03  0.12500429927E+03 0.  0.
    9000005    1    3    3    0    0 -0.45698298250E+02 -0.41194483091E+02 -0.15679142082E+03  0.16843357606E+03  0.10000000000E+01 0.  0.
    9000005    1    3    3    0    0  0.45698298250E+02  0.41194483091E+02 -0.22771209750E+03  0.23587945915E+03  0.10000000000E+01 0.  0.
<mgrwt>
<rscale>  0 0.12500430E+03</rscale>
<asrwt>0</asrwt>
<pdfrwt beam="2">  1        4 0.60678184E-01 0.12500430E+03</pdfrwt>
<pdfrwt beam="1">  1       -4 0.15238093E-02 0.12500430E+03</pdfrwt>
<totfact> 0.64129379E+03</totfact>
</mgrwt>
</event>
<event>
 5    1  0.3179758E-002  0.1249995E+03  0.7818608E-02  0.1235070E+00
         -4   -1    0    0    0  501 -0.00000000000E+00  0.00000000000E+00  0.30883063694E+02  0.30909165682E+02  0.12700000000E+01 0.  1.
          4   -1    0    0  501    0  0.00000000000E+00 -0.00000000000E+00 -0.12640146950E+03  0.12640784940E+03  0.12700000000E+01 0.  1.
         25    2    1    2    0    0  0.00000000000E+00  0.00000000000E+00 -0.95518405802E+02  0.15731701508E+03  0.12499950955E+03 0.  0.
    9000005    1    3    3    0    0  0.29576552143E+02  0.44058812723E+02 -0.89296166662E+02  0.10387856755E+03  0.10000000000E+01 0.  0.
    9000005    1    3    3    0    0 -0.29576552143E+02 -0.44058812723E+02 -0.62222391392E+01  0.53438447537E+02  0.10000000000E+01 0.  0.
<mgrwt>
<rscale>  0 0.12499951E+03</rscale>
<asrwt>0</asrwt>
<pdfrwt beam="2">  1        4 0.19448878E-01 0.12499951E+03</pdfrwt>
<pdfrwt beam="1">  1       -4 0.47537392E-02 0.12499951E+03</pdfrwt>
<totfact> 0.97863630E+03</totfact>
</mgrwt>
</event>
<event>
 5    1  0.3179758E-002  0.1249994E+03  0.7818608E-02  0.1235070E+00
          4   -1    0    0  501    0  0.00000000000E+00  0.00000000000E+00  0.18778672394E+03  0.18779101839E+03  0.12700000000E+01 0.  1.
         -4   -1    0    0    0  501 -0.00000000000E+00 -0.00000000000E+00 -0.20777418313E+02  0.20816195900E+02  0.12700000000E+01 0.  1.
         25    2    1    2    0    0  0.00000000000E+00  0.00000000000E+00  0.16700930563E+03  0.20860721429E+03  0.12499944675E+03 0.  0.
    9000005    1    3    3    0    0 -0.28635568705E+02  0.25200884856E+01 -0.90965915663E+01  0.30167774515E+02  0.10000000000E+01 0.  0.
    9000005    1    3    3    0    0  0.28635568705E+02 -0.25200884856E+01  0.17610589719E+03  0.17843943978E+03  0.10000000000E+01 0.  0.
<mgrwt>
<rscale>  0 0.12499945E+03</rscale>
<asrwt>0</asrwt>
<pdfrwt beam="1">  1        4 0.28893579E-01 0.12499945E+03</pdfrwt>
<pdfrwt beam="2">  1       -4 0.31998390E-02 0.12499945E+03</pdfrwt>
<totfact> 0.88704943E+03</totfact>
</mgrwt>
</event>
<event>
 5    1  0.3179758E-002  0.1249964E+03  0.7818608E-02  0.1235075E+00
          4   -1    0    0  501    0  0.00000000000E+00  0.00000000000E+00  0.67181788300E+01  0.68371651137E+01  0.12700000000E+01 0. -1.
         -4   -1    0    0    0  501 -0.00000000000E+00 -0.00000000000E+00 -0.57618783281E+03  0.57618923244E+03  0.12700000000E+01 0. -1.
         25    2    1    2    0    0  0.00000000000E+00  0.00000000000E+00 -0.56946965398E+03  0.58302639755E+03  0.12499637370E+03 0.  0.
    9000005    1    3    3    0    0  0.60604184822E+02  0.69433059454E+01 -0.34799592705E+03  0.35330332855E+03  0.10000000000E+01 0.  0.
    9000005    1    3    3    0    0 -0.60604184822E+02 -0.69433059454E+01 -0.22147372693E+03  0.22972306901E+03  0.10000000000E+01 0.  0.
<mgrwt>
<rscale>  0 0.12499637E+03</rscale>
<asrwt>0</asrwt>
<pdfrwt beam="1">  1        4 0.10428269E-02 0.12499637E+03</pdfrwt>
<pdfrwt beam="2">  1       -4 0.88653504E-01 0.12499637E+03</pdfrwt>
<totfact> 0.49960856E+03</totfact>
</mgrwt>
</event>
<event>
 5    1  0.3179758E-002  0.1249965E+03  0.7818608E-02  0.1235075E+00
         -4   -1    0    0    0  501 -0.00000000000E+00  0.00000000000E+00  0.47950161801E+02  0.47966977357E+02  0.12700000000E+01 0.  1.
          4   -1    0    0  501    0  0.00000000000E+00 -0.00000000000E+00 -0.81424161033E+02  0.81434064739E+02  0.12700000000E+01 0.  1.
         25    2    1    2    0    0  0.00000000000E+00  0.00000000000E+00 -0.33473999232E+02  0.12940104210E+03  0.12499648423E+03 0.  0.
    9000005    1    3    3    0    0 -0.65691492461E+01  0.17672653580E+02  0.44940514493E+02  0.48745525428E+02  0.10000000000E+01 0.  0.
    9000005    1    3    3    0    0  0.65691492461E+01 -0.17672653580E+02 -0.78414513725E+02  0.80655516668E+02  0.10000000000E+01 0.  0.
<mgrwt>
<rscale>  0 0.12499648E+03</rscale>
<asrwt>0</asrwt>
<pdfrwt beam="2">  1        4 0.12528849E-01 0.12499648E+03</pdfrwt>
<pdfrwt beam="1">  1       -4 0.73790033E-02 0.12499648E+03</pdfrwt>
<totfact> 0.10358159E+04</totfact>
</mgrwt>
</event>
<event>
 5    1  0.3179758E-002  0.1249997E+03  0.7818608E-02  0.1235070E+00
         -4   -1    0    0    0  501 -0.00000000000E+00  0.00000000000E+00  0.15902183794E+03  0.15902690918E+03  0.12700000000E+01 0.  1.
          4   -1    0    0  501    0  0.00000000000E+00 -0.00000000000E+00 -0.24542217500E+02  0.24575055236E+02  0.12700000000E+01 0.  1.
         25    2    1    2    0    0  0.00000000000E+00  0.00000000000E+00  0.13447962044E+03  0.18360196441E+03  0.12499965209E+03 0.  0.
    9000005    1    3    3    0    0  0.61150917018E+02  0.12813636214E+02  0.69100249119E+02  0.93163664342E+02  0.10000000000E+01 0.  0.
    9000005    1    3    3    0    0 -0.61150917018E+02 -0.12813636214E+02  0.65379371322E+02  0.90438300070E+02  0.10000000000E+01 0.  0.
<mgrwt>
<rscale>  0 0.12499965E+03</rscale>
<asrwt>0</asrwt>
<pdfrwt beam="2">  1        4 0.37786418E-02 0.12499965E+03</pdfrwt>
<pdfrwt beam="1">  1       -4 0.24467815E-01 0.12499965E+03</pdfrwt>
<totfact> 0.92973351E+03</totfact>
</mgrwt>
</event>
<event>
 5    1  0.3179758E-002  0.1249959E+03  0.7818608E-02  0.1235076E+00
          4   -1    0    0  501    0  0.00000000000E+00  0.00000000000E+00  0.46438658513E+02  0.46456021187E+02  0.12700000000E+01 0. -1.
         -4   -1    0    0    0  501 -0.00000000000E+00 -0.00000000000E+00 -0.84072957680E+02  0.84082549397E+02  0.12700000000E+01 0. -1.
         25    2    1    2    0    0  0.00000000000E+00  0.00000000000E+00 -0.37634299167E+02  0.13053857058E+03  0.12499591168E+03 0.  0.
    9000005    1    3    3    0    0 -0.33369427508E+02 -0.38229018424E+02  0.19269414403E+02  0.54288920355E+02  0.10000000000E+01 0.  0.
    9000005    1    3    3    0    0  0.33369427508E+02  0.38229018424E+02 -0.56903713570E+02  0.76249650228E+02  0.10000000000E+01 0.  0.
<mgrwt>
<rscale>  0 0.12499591E+03</rscale>
<asrwt>0</asrwt>
<pdfrwt beam="1">  1        4 0.71464824E-02 0.12499591E+03</pdfrwt>
<pdfrwt beam="2">  1       -4 0.12936375E-01 0.12499591E+03</pdfrwt>
<totfact> 0.10333945E+04</totfact>
</mgrwt>
</event>
<event>
 5    1  0.3179758E-002  0.1249864E+03  0.7818608E-02  0.1235091E+00
         -4   -1    0    0    0  501 -0.00000000000E+00  0.00000000000E+00  0.18416189556E+02  0.18459927891E+02  0.12700000000E+01 0.  1.
          4   -1    0    0  501    0  0.00000000000E+00 -0.00000000000E+00 -0.21176619854E+03  0.21177000671E+03  0.12700000000E+01 0.  1.
         25    2    1    2    0    0  0.00000000000E+00  0.00000000000E+00 -0.19335000898E+03  0.23022993460E+03  0.12498638652E+03 0.  0.
    9000005    1    3    3    0    0  0.11339405025E+02 -0.26251265627E+01 -0.20976075170E+03  0.21008580711E+03  0.10000000000E+01 0.  0.
    9000005    1    3    3    0    0 -0.11339405025E+02  0.26251265627E+01  0.16410742719E+02  0.20144127491E+02  0.10000000000E+01 0.  0.
<mgrwt>
<rscale>  0 0.12498639E+03</rscale>
<asrwt>0</asrwt>
<pdfrwt beam="2">  1        4 0.32583071E-01 0.12498639E+03</pdfrwt>
<pdfrwt beam="1">  1       -4 0.28369175E-02 0.12498639E+03</pdfrwt>
<totfact> 0.85300209E+03</totfact>
</mgrwt>
</event>
<event>
 5    1  0.3179758E-002  0.1249996E+03  0.7818608E-02  0.1235070E+00
          4   -1    0    0  501    0  0.00000000000E+00  0.00000000000E+00  0.43163141489E+02  0.43181821213E+02  0.12700000000E+01 0. -1.
         -4   -1    0    0    0  501 -0.00000000000E+00 -0.00000000000E+00 -0.90456410290E+02  0.90465325195E+02  0.12700000000E+01 0. -1.
         25    2    1    2    0    0  0.00000000000E+00  0.00000000000E+00 -0.47293268801E+02  0.13364714641E+03  0.12499962588E+03 0.  0.
    9000005    1    3    3    0    0  0.21913189764E+02 -0.16146905329E+02  0.36497172367E+02  0.45540685416E+02  0.10000000000E+01 0.  0.
    9000005    1    3    3    0    0 -0.21913189764E+02  0.16146905329E+02 -0.83790441168E+02  0.88106460991E+02  0.10000000000E+01 0.  0.
<mgrwt>
<rscale>  0 0.12499963E+03</rscale>
<asrwt>0</asrwt>
<pdfrwt beam="1">  1        4 0.66426060E-02 0.12499963E+03</pdfrwt>
<pdfrwt beam="2">  1       -4 0.13918494E-01 0.12499963E+03</pdfrwt>
<totfact> 0.10266752E+04</totfact>
</mgrwt>
</event>
<event>
 5    1  0.3179758E-002  0.1249923E+03  0.7818608E-02  0.1235081E+00
         -4   -1    0    0    0  501 -0.00000000000E+00  0.00000000000E+00  0.23418288211E+03  0.23418632576E+03  0.12700000000E+01 0. -1.
          4   -1    0    0  501    0  0.00000000000E+00 -0.00000000000E+00 -0.16650537221E+02  0.16698900855E+02  0.12700000000E+01 0. -1.
         25    2    1    2    0    0  0.00000000000E+00  0.00000000000E+00  0.21753234489E+03  0.25088522662E+03  0.12499230321E+03 0.  0.
    9000005    1    3    3    0    0  0.49792225123E+01  0.54361016762E+02  0.47724149782E+02  0.72515565726E+02  0.10000000000E+01 0.  0.
    9000005    1    3    3    0    0 -0.49792225123E+01 -0.54361016762E+02  0.16980819511E+03  0.17836966089E+03  0.10000000000E+01 0.  0.
<mgrwt>
<rscale>  0 0.12499230E+03</rscale>
<asrwt>0</asrwt>
<pdfrwt beam="2">  1        4 0.25656063E-02 0.12499230E+03</pdfrwt>
<pdfrwt beam="1">  1       -4 0.36032121E-01 0.12499230E+03</pdfrwt>
<totfact> 0.82216547E+03</totfact>
</mgrwt>
</event>
<event>
 5    1  0.3179758E-002  0.1250060E+03  0.7818608E-02  0.1235060E+00
          4   -1    0    0  501    0  0.00000000000E+00  0.00000000000E+00  0.79975550647E+02  0.79985633719E+02  0.12700000000E+01 0. -1.
         -4   -1    0    0    0  501 -0.00000000000E+00 -0.00000000000E+00 -0.48826291411E+02  0.48842805335E+02  0.12700000000E+01 0. -1.
         25    2    1    2    0    0  0.00000000000E+00  0.00000000000E+00  0.31149259236E+02  0.12882843905E+03  0.12500596129E+03 0.  0.
    9000005    1    3    3    0    0 -0.28552481496E+02 -0.43553101253E+02  0.51178177744E+02  0.73022754711E+02  0.10000000000E+01 0.  0.
    9000005    1    3    3    0    0  0.28552481496E+02  0.43553101253E+02 -0.20028918507E+02  0.55805684342E+02  0.10000000000E+01 0.  0.
<mgrwt>
<rscale>  0 0.12500596E+03</rscale>
<asrwt>0</asrwt>
<pdfrwt beam="1">  1        4 0.12305977E-01 0.12500596E+03</pdfrwt>
<pdfrwt beam="2">  1       -4 0.75137831E-02 0.12500596E+03</pdfrwt>
<totfact> 0.10368239E+04</totfact>
</mgrwt>
</event>
<event>
 5    1  0.3179758E-002  0.1249996E+03  0.7818608E-02  0.1235070E+00
          4   -1    0    0  501    0  0.00000000000E+00  0.00000000000E+00  0.42248127431E+02  0.42267211541E+02  0.12700000000E+01 0.  1.
         -4   -1    0    0    0  501 -0.00000000000E+00 -0.00000000000E+00 -0.92414830765E+02  0.92423556766E+02  0.12700000000E+01 0.  1.
         25    2    1    2    0    0  0.00000000000E+00  0.00000000000E+00 -0.50166703334E+02  0.13469076831E+03  0.12499961977E+03 0.  0.
    9000005    1    3    3    0    0  0.50186304300E+02  0.19156595800E+02 -0.59489896008E+02  0.80160389401E+02  0.10000000000E+01 0.  0.
    9000005    1    3    3    0    0 -0.50186304300E+02 -0.19156595800E+02  0.93231926741E+01  0.54530378905E+02  0.10000000000E+01 0.  0.
<mgrwt>
<rscale>  0 0.12499962E+03</rscale>
<asrwt>0</asrwt>
<pdfrwt beam="1">  1        4 0.65018512E-02 0.12499962E+03</pdfrwt>
<pdfrwt beam="2">  1       -4 0.14219806E-01 0.12499962E+03</pdfrwt>
<totfact> 0.10244681E+04</totfact>
</mgrwt>
</event>
<event>
 5    1  0.3179758E-002  0.1250008E+03  0.7818608E-02  0.1235068E+00
         -4   -1    0    0    0  501 -0.00000000000E+00  0.00000000000E+00  0.44073716042E+03  0.44073899019E+03  0.12700000000E+01 0.  1.
          4   -1    0    0  501    0  0.00000000000E+00 -0.00000000000E+00 -0.88157548914E+01  0.89067634024E+01  0.12700000000E+01 0.  1.
         25    2    1    2    0    0  0.00000000000E+00  0.00000000000E+00  0.43192140553E+03  0.44964575359E+03  0.12500081268E+03 0.  0.
    9000005    1    3    3    0    0 -0.10915110497E+02  0.28853786477E+02  0.41145540000E+03  0.41261147200E+03  0.10000000000E+01 0.  0.
    9000005    1    3    3    0    0  0.10915110497E+02 -0.28853786477E+02  0.20466005523E+02  0.37034281595E+02  0.10000000000E+01 0.  0.
<mgrwt>
<rscale>  0 0.12500081E+03</rscale>
<asrwt>0</asrwt>
<pdfrwt beam="2">  1        4 0.13634110E-02 0.12500081E+03</pdfrwt>
<pdfrwt beam="1">  1       -4 0.67812877E-01 0.12500081E+03</pdfrwt>
<totfact> 0.59993409E+03</totfact>
</mgrwt>
</event>
<event>
 5    1  0.3179758E-002  0.1249931E+03  0.7818608E-02  0.1235080E+00
         -4   -1    0    0    0  501 -0.00000000000E+00  0.00000000000E+00  0.57006232805E+02  0.57020377749E+02  0.12700000000E+01 0.  1.
          4   -1    0    0  501    0  0.00000000000E+00 -0.00000000000E+00 -0.68487109844E+02  0.68498884041E+02  0.12700000000E+01 0.  1.
         25    2    1    2    0    0  0.00000000000E+00  0.00000000000E+00 -0.11480877039E+02  0.12551926179E+03  0.12499309798E+03 0.  0.
    9000005    1    3    3    0    0  0.60183194143E+01 -0.32189763559E+02 -0.59184934466E+02  0.67648041467E+02  0.10000000000E+01 0.  0.
    9000005    1    3    3    0    0 -0.60183194143E+01  0.32189763559E+02  0.47704057427E+02  0.57871220322E+02  0.10000000000E+01 0.  0.
<mgrwt>
<rscale>  0 0.12499310E+03</rscale>
<asrwt>0</asrwt>
<pdfrwt beam="2">  1        4 0.10538472E-01 0.12499310E+03</pdfrwt>
<pdfrwt beam="1">  1       -4 0.87721834E-02 0.12499310E+03</pdfrwt>
<totfact> 0.10443154E+04</totfact>
</mgrwt>
</event>
<event>
 5    1  0.3179758E-002  0.1250022E+03  0.7818608E-02  0.1235066E+00
          4   -1    0    0  501    0  0.00000000000E+00  0.00000000000E+00  0.96591967644E+02  0.96600316321E+02  0.12700000000E+01 0.  1.
         -4   -1    0    0    0  501 -0.00000000000E+00 -0.00000000000E+00 -0.40422081092E+02  0.40442026900E+02  0.12700000000E+01 0.  1.
         25    2    1    2    0    0  0.00000000000E+00  0.00000000000E+00  0.56169886552E+02  0.13704234322E+03  0.12500219070E+03 0.  0.
    9000005    1    3    3    0    0  0.17191928642E+02  0.50452761405E+02 -0.76816875838E+01  0.53861413535E+02  0.10000000000E+01 0.  0.
    9000005    1    3    3    0    0 -0.17191928642E+02 -0.50452761405E+02  0.63851574136E+02  0.83180929686E+02  0.10000000000E+01 0.  0.
<mgrwt>
<rscale>  0 0.12500219E+03</rscale>
<asrwt>0</asrwt>
<pdfrwt beam="1">  1        4 0.14862479E-01 0.12500219E+03</pdfrwt>
<pdfrwt beam="2">  1       -4 0.62209583E-02 0.12500219E+03</pdfrwt>
<totfact> 0.10194697E+04</totfact>
</mgrwt>
</event>
<event>
 5    1  0.3179758E-002  0.1249928E+03  0.7818608E-02  0.1235081E+00
          4   -1    0    0  501    0  0.00000000000E+00  0.00000000000E+00  0.52407357957E+01  0.53924216897E+01  0.12700000000E+01 0. -1.
         -4   -1    0    0    0  501 -0.00000000000E+00 -0.00000000000E+00 -0.73449298769E+03  0.73449408566E+03  0.12700000000E+01 0. -1.
         25    2    1    2    0    0  0.00000000000E+00  0.00000000000E+00 -0.72925225190E+03  0.73988650735E+03  0.12499278724E+03 0.  0.
    9000005    1    3    3    0    0 -0.62420845575E+02 -0.13928741312E+01 -0.34953777560E+03  0.35507176547E+03  0.10000000000E+01 0.  0.
    9000005    1    3    3    0    0  0.62420845575E+02  0.13928741312E+01 -0.37971447629E+03  0.38481474188E+03  0.10000000000E+01 0.  0.
<mgrwt>
<rscale>  0 0.12499279E+03</rscale>
<asrwt>0</asrwt>
<pdfrwt beam="1">  1        4 0.81802023E-03 0.12499279E+03</pdfrwt>
<pdfrwt beam="2">  1       -4 0.11301059E+00 0.12499279E+03</pdfrwt>
<totfact> 0.41069101E+03</totfact>
</mgrwt>
</event>
<event>
 5    1  0.3179758E-002  0.1249981E+03  0.7818608E-02  0.1235072E+00
          4   -1    0    0  501    0  0.00000000000E+00  0.00000000000E+00  0.40634242135E+02  0.40654083853E+02  0.12700000000E+01 0. -1.
         -4   -1    0    0    0  501 -0.00000000000E+00 -0.00000000000E+00 -0.96081599367E+02  0.96089992387E+02  0.12700000000E+01 0. -1.
         25    2    1    2    0    0  0.00000000000E+00  0.00000000000E+00 -0.55447357231E+02  0.13674407624E+03  0.12499813184E+03 0.  0.
    9000005    1    3    3    0    0 -0.39512234524E+02 -0.47817820450E+02 -0.36009914775E+02  0.71731963530E+02  0.10000000000E+01 0.  0.
    9000005    1    3    3    0    0  0.39512234524E+02  0.47817820450E+02 -0.19437442456E+02  0.65012112710E+02  0.10000000000E+01 0.  0.
<mgrwt>
<rscale>  0 0.12499813E+03</rscale>
<asrwt>0</asrwt>
<pdfrwt beam="1">  1        4 0.62535938E-02 0.12499813E+03</pdfrwt>
<pdfrwt beam="2">  1       -4 0.14783956E-01 0.12499813E+03</pdfrwt>
<totfact> 0.10201869E+04</totfact>
</mgrwt>
</event>
<event>
 5    1  0.3179758E-002  0.1249989E+03  0.7818608E-02  0.1235071E+00
         -4   -1    0    0    0  501 -0.00000000000E+00  0.00000000000E+00  0.16217110489E+02  0.16266762819E+02  0.12700000000E+01 0. -1.
          4   -1    0    0  501    0  0.00000000000E+00 -0.00000000000E+00 -0.24044845235E+03  0.24045180627E+03  0.12700000000E+01 0. -1.
         25    2    1    2    0    0  0.00000000000E+00  0.00000000000E+00 -0.22423134186E+03  0.25671856909E+03  0.12499891616E+03 0.  0.
    9000005    1    3    3    0    0 -0.33666878947E+02  0.26630289343E+02 -0.18843216256E+02  0.46890274550E+02  0.10000000000E+01 0.  0.
    9000005    1    3    3    0    0  0.33666878947E+02 -0.26630289343E+02 -0.20538812561E+03  0.20982829454E+03  0.10000000000E+01 0.  0.
<mgrwt>
<rscale>  0 0.12499892E+03</rscale>
<asrwt>0</asrwt>
<pdfrwt beam="2">  1        4 0.36996144E-01 0.12499892E+03</pdfrwt>
<pdfrwt beam="1">  1       -4 0.24990177E-02 0.12499892E+03</pdfrwt>
<totfact> 0.81370744E+03</totfact>
</mgrwt>
</event>
<event>
 5    1  0.3179758E-002  0.1250064E+03  0.7818608E-02  0.1235059E+00
         -4   -1    0    0    0  501 -0.00000000000E+00  0.00000000000E+00  0.23297491290E+02  0.23332080928E+02  0.12700000000E+01 0. -1.
          4   -1    0    0  501    0  0.00000000000E+00 -0.00000000000E+00 -0.16752410099E+03  0.16752891486E+03  0.12700000000E+01 0. -1.
         25    2    1    2    0    0  0.00000000000E+00  0.00000000000E+00 -0.14422660970E+03  0.19086099579E+03  0.12500641890E+03 0.  0.
    9000005    1    3    3    0    0  0.13983107054E+02  0.25926594893E+02 -0.15626718632E+03  0.15902247994E+03  0.10000000000E+01 0.  0.
    9000005    1    3    3    0    0 -0.13983107054E+02 -0.25926594893E+02  0.12040576622E+02  0.31838515842E+02  0.10000000000E+01 0.  0.
<mgrwt>
<rscale>  0 0.12500642E+03</rscale>
<asrwt>0</asrwt>
<pdfrwt beam="2">  1        4 0.25775969E-01 0.12500642E+03</pdfrwt>
<pdfrwt beam="1">  1       -4 0.35872606E-02 0.12500642E+03</pdfrwt>
<totfact> 0.91684538E+03</totfact>
</mgrwt>
</event>
<event>
 5    1  0.3179758E-002  0.1250187E+03  0.7818608E-02  0.1235040E+00
         -4   -1    0    0    0  501 -0.00000000000E+00  0.00000000000E+00  0.16001536196E+03  0.16002040171E+03  0.12700000000E+01 0.  1.
          4   -1    0    0  501    0  0.00000000000E+00 -0.00000000000E+00 -0.24397082440E+02  0.24430115260E+02  0.12700000000E+01 0.  1.
         25    2    1    2    0    0  0.00000000000E+00  0.00000000000E+00  0.13561827952E+03  0.18445051697E+03  0.12501870048E+03 0.  0.
    9000005    1    3    3    0    0  0.27856487285E+02 -0.25339239181E+02 -0.57880654370E+01  0.38112499625E+02  0.10000000000E+01 0.  0.
    9000005    1    3    3    0    0 -0.27856487285E+02  0.25339239181E+02  0.14140634496E+03  0.14633801734E+03  0.10000000000E+01 0.  0.
<mgrwt>
<rscale>  0 0.12501870E+03</rscale>
<asrwt>0</asrwt>
<pdfrwt beam="2">  1        4 0.37563258E-02 0.12501870E+03</pdfrwt>
<pdfrwt beam="1">  1       -4 0.24620678E-01 0.12501870E+03</pdfrwt>
<totfact> 0.92783081E+03</totfact>
</mgrwt>
</event>
<event>
 5    1  0.3179758E-002  0.1250006E+03  0.7818608E-02  0.1235068E+00
         -4   -1    0    0    0  501 -0.00000000000E+00  0.00000000000E+00  0.22291364062E+02  0.22327512440E+02  0.12700000000E+01 0. -1.
          4   -1    0    0  501    0  0.00000000000E+00 -0.00000000000E+00 -0.17505717927E+03  0.17506178599E+03  0.12700000000E+01 0. -1.
         25    2    1    2    0    0  0.00000000000E+00  0.00000000000E+00 -0.15276581521E+03  0.19738929843E+03  0.12500056335E+03 0.  0.
    9000005    1    3    3    0    0  0.13934114115E+02  0.52784636222E+02 -0.28358627164E+02  0.61527141100E+02  0.10000000000E+01 0.  0.
    9000005    1    3    3    0    0 -0.13934114115E+02 -0.52784636222E+02 -0.12440718804E+03  0.13586215733E+03  0.10000000000E+01 0.  0.
<mgrwt>
<rscale>  0 0.12500056E+03</rscale>
<asrwt>0</asrwt>
<pdfrwt beam="2">  1        4 0.26935008E-01 0.12500056E+03</pdfrwt>
<pdfrwt beam="1">  1       -4 0.34325757E-02 0.12500056E+03</pdfrwt>
<totfact> 0.90576118E+03</totfact>
</mgrwt>
</event>
<event>
 5    1  0.3179758E-002  0.1250040E+03  0.7818608E-02  0.1235063E+00
          4   -1    0    0  501    0  0.00000000000E+00  0.00000000000E+00  0.37233368004E+03  0.37233584596E+03  0.12700000000E+01 0.  1.
         -4   -1    0    0    0  501 -0.00000000000E+00 -0.00000000000E+00 -0.10451289972E+02  0.10528169930E+02  0.12700000000E+01 0.  1.
         25    2    1    2    0    0  0.00000000000E+00  0.00000000000E+00  0.36188239006E+03  0.38286401589E+03  0.12500396165E+03 0.  0.
    9000005    1    3    3    0    0  0.37371190355E+02  0.25339525748E+02  0.31327466171E+03  0.31651336639E+03  0.10000000000E+01 0.  0.
    9000005    1    3    3    0    0 -0.37371190355E+02 -0.25339525748E+02  0.48607728350E+02  0.66350649500E+02  0.10000000000E+01 0.  0.
<mgrwt>
<rscale>  0 0.12500396E+03</rscale>
<asrwt>0</asrwt>
<pdfrwt beam="1">  1        4 0.57288171E-01 0.12500396E+03</pdfrwt>
<pdfrwt beam="2">  1       -4 0.16139716E-02 0.12500396E+03</pdfrwt>
<totfact> 0.66248458E+03</totfact>
</mgrwt>
</event>
<event>
 4    1  0.3179758E-002  0.1255088E+03  0.7818608E-02  0.1234276E+00
         -4   -1    0    0    0  501 -0.00000000000E+00  0.00000000000E+00  0.48572697202E+03  0.48572863231E+03  0.12700000000E+01 0. -1.
          4   -1    0    0  501    0  0.00000000000E+00 -0.00000000000E+00 -0.80562560365E+01  0.81557440694E+01  0.12700000000E+01 0. -1.
    9000005    1    1    2    0    0  0.50097343236E+02  0.35930309040E+02  0.28479055338E+03  0.29138872697E+03  0.10000000000E+01 0.  0.
    9000005    1    1    2    0    0 -0.50097343236E+02 -0.35930309040E+02  0.19288016260E+03  0.20249564941E+03  0.10000000000E+01 0.  0.
<mgrwt>
<rscale>  0 0.12550882E+03</rscale>
<asrwt>0</asrwt>
<pdfrwt beam="2">  1        4 0.12472044E-02 0.12550882E+03</pdfrwt>
<pdfrwt beam="1">  1       -4 0.74735022E-01 0.12550882E+03</pdfrwt>
<totfact> 0.55716146E+03</totfact>
</mgrwt>
</event>
<event>
 5    1  0.3179758E-002  0.1250008E+03  0.7818608E-02  0.1235068E+00
          4   -1    0    0  501    0  0.00000000000E+00  0.00000000000E+00  0.13492363017E+04  0.13492368994E+04  0.12700000000E+01 0. -1.
         -4   -1    0    0    0  501 -0.00000000000E+00 -0.00000000000E+00 -0.27552942703E+01  0.30338995560E+01  0.12700000000E+01 0. -1.
         25    2    1    2    0    0  0.00000000000E+00  0.00000000000E+00  0.13464810074E+04  0.13522707990E+04  0.12500084145E+03 0.  0.
    9000005    1    3    3    0    0  0.34800318107E+02 -0.29722010114E+02  0.21288739459E+03  0.21775330721E+03  0.10000000000E+01 0.  0.
    9000005    1    3    3    0    0 -0.34800318107E+02  0.29722010114E+02  0.11335936129E+04  0.11345174918E+04  0.10000000000E+01 0.  0.
<mgrwt>
<rscale>  0 0.12500084E+03</rscale>
<asrwt>0</asrwt>
<pdfrwt beam="1">  1        4 0.20759638E+00 0.12500084E+03</pdfrwt>
<pdfrwt beam="2">  1       -4 0.44536840E-03 0.12500084E+03</pdfrwt>
<totfact> 0.21026978E+03</totfact>
</mgrwt>
</event>
<event>
 5    1  0.3179758E-002  0.1250016E+03  0.7818608E-02  0.1235067E+00
         -4   -1    0    0    0  501 -0.00000000000E+00  0.00000000000E+00  0.45387815578E+03  0.45387993258E+03  0.12700000000E+01 0.  1.
          4   -1    0    0  501    0  0.00000000000E+00 -0.00000000000E+00 -0.85579465133E+01  0.86516673841E+01  0.12700000000E+01 0.  1.
         25    2    1    2    0    0  0.00000000000E+00  0.00000000000E+00  0.44532020927E+03  0.46253159996E+03  0.12500156871E+03 0.  0.
    9000005    1    3    3    0    0 -0.52159856427E+02  0.29504907695E+02  0.28824440648E+03  0.29440962632E+03  0.10000000000E+01 0.  0.
    9000005    1    3    3    0    0  0.52159856427E+02 -0.29504907695E+02  0.15707580279E+03  0.16812197364E+03  0.10000000000E+01 0.  0.
<mgrwt>
<rscale>  0 0.12500157E+03</rscale>
<asrwt>0</asrwt>
<pdfrwt beam="2">  1        4 0.13239532E-02 0.12500157E+03</pdfrwt>
<pdfrwt beam="1">  1       -4 0.69834752E-01 0.12500157E+03</pdfrwt>
<totfact> 0.58891316E+03</totfact>
</mgrwt>
</event>
<event>
 5    1  0.3179758E-002  0.1250010E+03  0.7818608E-02  0.1235068E+00
          4   -1    0    0  501    0  0.00000000000E+00  0.00000000000E+00  0.15460764880E+02  0.15512838254E+02  0.12700000000E+01 0.  1.
         -4   -1    0    0    0  501 -0.00000000000E+00 -0.00000000000E+00 -0.25218110581E+03  0.25218430369E+03  0.12700000000E+01 0.  1.
         25    2    1    2    0    0  0.00000000000E+00  0.00000000000E+00 -0.23672034093E+03  0.26769714194E+03  0.12500095998E+03 0.  0.
    9000005    1    3    3    0    0  0.61362171325E+02 -0.65548428964E+01 -0.97265203752E+02  0.11519462616E+03  0.10000000000E+01 0.  0.
    9000005    1    3    3    0    0 -0.61362171325E+02  0.65548428964E+01 -0.13945513718E+03  0.15250251578E+03  0.10000000000E+01 0.  0.
<mgrwt>
<rscale>  0 0.12500096E+03</rscale>
<asrwt>0</asrwt>
<pdfrwt beam="1">  1        4 0.23828310E-02 0.12500096E+03</pdfrwt>
<pdfrwt beam="2">  1       -4 0.38801342E-01 0.12500096E+03</pdfrwt>
<totfact> 0.79836162E+03</totfact>
</mgrwt>
</event>
<event>
 5    1  0.3179758E-002  0.1249995E+03  0.7818608E-02  0.1235070E+00
          4   -1    0    0  501    0  0.00000000000E+00  0.00000000000E+00  0.10367093890E+03  0.10367871755E+03  0.12700000000E+01 0. -1.
         -4   -1    0    0    0  501 -0.00000000000E+00 -0.00000000000E+00 -0.37659116996E+02  0.37680525380E+02  0.12700000000E+01 0. -1.
         25    2    1    2    0    0  0.00000000000E+00  0.00000000000E+00  0.66011821904E+02  0.14135924293E+03  0.12499949972E+03 0.  0.
    9000005    1    3    3    0    0  0.44806878319E+02  0.21498203469E+02 -0.98391572722E+01  0.50671867076E+02  0.10000000000E+01 0.  0.
    9000005    1    3    3    0    0 -0.44806878319E+02 -0.21498203469E+02  0.75850979176E+02  0.90687375853E+02  0.10000000000E+01 0.  0.
<mgrwt>
<rscale>  0 0.12499950E+03</rscale>
<asrwt>0</asrwt>
<pdfrwt beam="1">  1        4 0.15951620E-01 0.12499950E+03</pdfrwt>
<pdfrwt beam="2">  1       -4 0.57959555E-02 0.12499950E+03</pdfrwt>
<totfact> 0.10105606E+04</totfact>
</mgrwt>
</event>
<event>
 5    1  0.3179758E-002  0.1249997E+03  0.7818608E-02  0.1235070E+00
          4   -1    0    0  501    0  0.00000000000E+00  0.00000000000E+00  0.17764567753E+02  0.17809906441E+02  0.12700000000E+01 0.  1.
         -4   -1    0    0    0  501 -0.00000000000E+00 -0.00000000000E+00 -0.21956156512E+03  0.21956523809E+03  0.12700000000E+01 0.  1.
         25    2    1    2    0    0  0.00000000000E+00  0.00000000000E+00 -0.20179699737E+03  0.23737514453E+03  0.12499972438E+03 0.  0.
    9000005    1    3    3    0    0  0.75015350670E+01  0.60576178489E+02 -0.12633995068E+03  0.14031582080E+03  0.10000000000E+01 0.  0.
    9000005    1    3    3    0    0 -0.75015350670E+01 -0.60576178489E+02 -0.75457046687E+02  0.97059323732E+02  0.10000000000E+01 0.  0.
<mgrwt>
<rscale>  0 0.12499972E+03</rscale>
<asrwt>0</asrwt>
<pdfrwt beam="1">  1        4 0.27367807E-02 0.12499972E+03</pdfrwt>
<pdfrwt beam="2">  1       -4 0.33782471E-01 0.12499972E+03</pdfrwt>
<totfact> 0.84190371E+03</totfact>
</mgrwt>
</event>
<event>
 5    1  0.3179758E-002  0.1250008E+03  0.7818608E-02  0.1235068E+00
         -4   -1    0    0    0  501 -0.00000000000E+00  0.00000000000E+00  0.18737086200E+01  0.22635556085E+01  0.12700000000E+01 0. -1.
          4   -1    0    0  501    0  0.00000000000E+00 -0.00000000000E+00 -0.18879593681E+04  0.18879597953E+04  0.12700000000E+01 0. -1.
         25    2    1    2    0    0  0.00000000000E+00  0.00000000000E+00 -0.18860856595E+04  0.18902233509E+04  0.12500080500E+03 0.  0.
    9000005    1    3    3    0    0  0.55714165042E+02 -0.27054504796E+02 -0.81717268405E+03  0.81951705899E+03  0.10000000000E+01 0.  0.
    9000005    1    3    3    0    0 -0.55714165042E+02  0.27054504796E+02 -0.10689129754E+04  0.10707062919E+04  0.10000000000E+01 0.  0.
<mgrwt>
<rscale>  0 0.12500081E+03</rscale>
<asrwt>0</asrwt>
<pdfrwt beam="2">  1        4 0.29048393E+00 0.12500081E+03</pdfrwt>
<pdfrwt beam="1">  1       -4 0.31828546E-03 0.12500081E+03</pdfrwt>
<totfact> 0.11362843E+03</totfact>
</mgrwt>
</event>
<event>
 5    1  0.3179758E-002  0.1250142E+03  0.7818608E-02  0.1235047E+00
          4   -1    0    0  501    0  0.00000000000E+00  0.00000000000E+00  0.77668260336E+02  0.77678642906E+02  0.12700000000E+01 0. -1.
         -4   -1    0    0    0  501 -0.00000000000E+00 -0.00000000000E+00 -0.50283719825E+02  0.50299755262E+02  0.12700000000E+01 0. -1.
         25    2    1    2    0    0  0.00000000000E+00  0.00000000000E+00  0.27384540511E+02  0.12797839817E+03  0.12501422854E+03 0.  0.
    9000005    1    3    3    0    0 -0.58952643800E+02  0.11567360767E+02  0.31332242325E+02  0.67763762109E+02  0.10000000000E+01 0.  0.
    9000005    1    3    3    0    0  0.58952643800E+02 -0.11567360767E+02 -0.39477018135E+01  0.60214636059E+02  0.10000000000E+01 0.  0.
<mgrwt>
<rscale>  0 0.12501423E+03</rscale>
<asrwt>0</asrwt>
<pdfrwt beam="1">  1        4 0.11950995E-01 0.12501423E+03</pdfrwt>
<pdfrwt beam="2">  1       -4 0.77379890E-02 0.12501423E+03</pdfrwt>
<totfact> 0.10384618E+04</totfact>
</mgrwt>
</event>
<event>
 5    1  0.3179758E-002  0.1249997E+03  0.7818608E-02  0.1235070E+00
         -4   -1    0    0    0  501 -0.00000000000E+00  0.00000000000E+00  0.93183696457E+01  0.94045155566E+01  0.12700000000E+01 0.  1.
          4   -1    0    0  501    0  0.00000000000E+00 -0.00000000000E+00 -0.41718106902E+03  0.41718300211E+03  0.12700000000E+01 0.  1.
         25    2    1    2    0    0  0.00000000000E+00  0.00000000000E+00 -0.40786269937E+03  0.42658751766E+03  0.12499971475E+03 0.  0.
    9000005    1    3    3    0    0 -0.42821736722E+02  0.14655465095E+02 -0.56877753980E+02  0.72694997702E+02  0.10000000000E+01 0.  0.
    9000005    1    3    3    0    0  0.42821736722E+02 -0.14655465095E+02 -0.35098494539E+03  0.35389251996E+03  0.10000000000E+01 0.  0.
<mgrwt>
<rscale>  0 0.12499971E+03</rscale>
<asrwt>0</asrwt>
<pdfrwt beam="2">  1        4 0.64188464E-01 0.12499971E+03</pdfrwt>
<pdfrwt beam="1">  1       -4 0.14403710E-02 0.12499971E+03</pdfrwt>
<totfact> 0.62046931E+03</totfact>
</mgrwt>
</event>
<event>
 5    1  0.3179758E-002  0.1250027E+03  0.7818608E-02  0.1235065E+00
          4   -1    0    0  501    0  0.00000000000E+00  0.00000000000E+00  0.22277528620E+02  0.22313699411E+02  0.12700000000E+01 0. -1.
         -4   -1    0    0    0  501 -0.00000000000E+00 -0.00000000000E+00 -0.17517172323E+03  0.17517632694E+03  0.12700000000E+01 0. -1.
         25    2    1    2    0    0  0.00000000000E+00  0.00000000000E+00 -0.15289419461E+03  0.19749002635E+03  0.12500270302E+03 0.  0.
    9000005    1    3    3    0    0  0.51333238912E+01 -0.61355851995E+02 -0.93354635370E+02  0.11183460794E+03  0.10000000000E+01 0.  0.
    9000005    1    3    3    0    0 -0.51333238912E+01  0.61355851995E+02 -0.59539559241E+02  0.85655418409E+02  0.10000000000E+01 0.  0.
<mgrwt>
<rscale>  0 0.12500270E+03</rscale>
<asrwt>0</asrwt>
<pdfrwt beam="1">  1        4 0.34304487E-02 0.12500270E+03</pdfrwt>
<pdfrwt beam="2">  1       -4 0.26952631E-01 0.12500270E+03</pdfrwt>
<totfact> 0.90554681E+03</totfact>
</mgrwt>
</event>
<event>
 5    1  0.3179758E-002  0.1249998E+03  0.7818608E-02  0.1235070E+00
          4   -1    0    0  501    0  0.00000000000E+00  0.00000000000E+00  0.90406965808E+02  0.90415885588E+02  0.12700000000E+01 0. -1.
         -4   -1    0    0    0  501 -0.00000000000E+00 -0.00000000000E+00 -0.43186858979E+02  0.43205528448E+02  0.12700000000E+01 0. -1.
         25    2    1    2    0    0  0.00000000000E+00  0.00000000000E+00  0.47220106830E+02  0.13362141404E+03  0.12499977520E+03 0.  0.
    9000005    1    3    3    0    0  0.27648817781E+02  0.36554796845E+02 -0.21799618226E+02  0.50763507088E+02  0.10000000000E+01 0.  0.
    9000005    1    3    3    0    0 -0.27648817781E+02 -0.36554796845E+02  0.69019725055E+02  0.82857906948E+02  0.10000000000E+01 0.  0.
<mgrwt>
<rscale>  0 0.12499978E+03</rscale>
<asrwt>0</asrwt>
<pdfrwt beam="1">  1        4 0.13910886E-01 0.12499978E+03</pdfrwt>
<pdfrwt beam="2">  1       -4 0.66462544E-02 0.12499978E+03</pdfrwt>
<totfact> 0.10267262E+04</totfact>
</mgrwt>
</event>
<event>
 5    1  0.3179758E-002  0.1250025E+03  0.7818608E-02  0.1235065E+00
         -4   -1    0    0    0  501 -0.00000000000E+00  0.00000000000E+00  0.17914793753E+02  0.17959753206E+02  0.12700000000E+01 0.  1.
          4   -1    0    0  501    0  0.00000000000E+00 -0.00000000000E+00 -0.21773467483E+03  0.21773837862E+03  0.12700000000E+01 0.  1.
         25    2    1    2    0    0  0.00000000000E+00  0.00000000000E+00 -0.19981988108E+03  0.23569813183E+03  0.12500249786E+03 0.  0.
    9000005    1    3    3    0    0 -0.41161834009E+02 -0.31377243676E+02 -0.33873287252E+02  0.61864590753E+02  0.10000000000E+01 0.  0.
    9000005    1    3    3    0    0  0.41161834009E+02  0.31377243676E+02 -0.16594659383E+03  0.17383354107E+03  0.10000000000E+01 0.  0.
<mgrwt>
<rscale>  0 0.12500250E+03</rscale>
<asrwt>0</asrwt>
<pdfrwt beam="2">  1        4 0.33501384E-01 0.12500250E+03</pdfrwt>
<pdfrwt beam="1">  1       -4 0.27598656E-02 0.12500250E+03</pdfrwt>
<totfact> 0.84437552E+03</totfact>
</mgrwt>
</event>
<event>
 5    1  0.3179758E-002  0.1250205E+03  0.7818608E-02  0.1235037E+00
         -4   -1    0    0    0  501 -0.00000000000E+00  0.00000000000E+00  0.99516034642E+01  0.10032313368E+02  0.12700000000E+01 0.  1.
          4   -1    0    0  501    0  0.00000000000E+00 -0.00000000000E+00 -0.39098595720E+03  0.39098801980E+03  0.12700000000E+01 0.  1.
         25    2    1    2    0    0  0.00000000000E+00  0.00000000000E+00 -0.38103435374E+03  0.40102033317E+03  0.12502051387E+03 0.  0.
    9000005    1    3    3    0    0  0.32076491989E+02  0.53640287458E+02 -0.18861830749E+03  0.19870593272E+03  0.10000000000E+01 0.  0.
    9000005    1    3    3    0    0 -0.32076491989E+02 -0.53640287458E+02 -0.19241604624E+03  0.20231440045E+03  0.10000000000E+01 0.  0.
<mgrwt>
<rscale>  0 0.12502051E+03</rscale>
<asrwt>0</asrwt>
<pdfrwt beam="2">  1        4 0.60158041E-01 0.12502051E+03</pdfrwt>
<pdfrwt beam="1">  1       -4 0.15373833E-02 0.12502051E+03</pdfrwt>
<totfact> 0.64424499E+03</totfact>
</mgrwt>
</event>
<event>
 5    1  0.3179758E-002  0.1250009E+03  0.7818608E-02  0.1235068E+00
          4   -1    0    0  501    0  0.00000000000E+00  0.00000000000E+00  0.83941763081E+02  0.83951369787E+02  0.12700000000E+01 0.  1.
         -4   -1    0    0    0  501 -0.00000000000E+00 -0.00000000000E+00 -0.46514936664E+02  0.46532270875E+02  0.12700000000E+01 0.  1.
         25    2    1    2    0    0  0.00000000000E+00  0.00000000000E+00  0.37426826417E+02  0.13048364066E+03  0.12500085258E+03 0.  0.
    9000005    1    3    3    0    0 -0.33806709772E+01  0.57377218017E+02  0.44319524861E+02  0.72586461324E+02  0.10000000000E+01 0.  0.
    9000005    1    3    3    0    0  0.33806709772E+01 -0.57377218017E+02 -0.68926984436E+01  0.57897179339E+02  0.10000000000E+01 0.  0.
<mgrwt>
<rscale>  0 0.12500085E+03</rscale>
<asrwt>0</asrwt>
<pdfrwt beam="1">  1        4 0.12916190E-01 0.12500085E+03</pdfrwt>
<pdfrwt beam="2">  1       -4 0.71582165E-02 0.12500085E+03</pdfrwt>
<totfact> 0.10333973E+04</totfact>
</mgrwt>
</event>
<event>
 4    1  0.3179758E-002  0.1251412E+03  0.7818608E-02  0.1234849E+00
         -4   -1    0    0    0  501 -0.00000000000E+00  0.00000000000E+00  0.10377606860E+02  0.10455028653E+02  0.12700000000E+01 0.  1.
          4   -1    0    0  501    0  0.00000000000E+00 -0.00000000000E+00 -0.37578189842E+03  0.37578404447E+03  0.12700000000E+01 0.  1.
    9000005    1    1    2    0    0  0.14342123611E+02  0.22598986599E+02 -0.35723318719E+03  0.35823590095E+03  0.10000000000E+01 0.  0.
    9000005    1    1    2    0    0 -0.14342123611E+02 -0.22598986599E+02 -0.81711043752E+01  0.28003172172E+02  0.10000000000E+01 0.  0.
<mgrwt>
<rscale>  0 0.12514122E+03</rscale>
<asrwt>0</asrwt>
<pdfrwt beam="2">  1        4 0.57818710E-01 0.12514122E+03</pdfrwt>
<pdfrwt beam="1">  1       -4 0.16026758E-02 0.12514122E+03</pdfrwt>
<totfact> 0.65708330E+03</totfact>
</mgrwt>
</event>
<event>
 5    1  0.3179758E-002  0.1249965E+03  0.7818608E-02  0.1235075E+00
          4   -1    0    0  501    0  0.00000000000E+00  0.00000000000E+00  0.80312067156E+02  0.80322107984E+02  0.12700000000E+01 0. -1.
         -4   -1    0    0    0  501 -0.00000000000E+00 -0.00000000000E+00 -0.48614259253E+02  0.48630845178E+02  0.12700000000E+01 0. -1.
         25    2    1    2    0    0  0.00000000000E+00  0.00000000000E+00  0.31697807903E+02  0.12895295316E+03  0.12499645236E+03 0.  0.
    9000005    1    3    3    0    0 -0.10231199382E+02 -0.56075772314E+01  0.79183536208E+02  0.80044704820E+02  0.10000000000E+01 0.  0.
    9000005    1    3    3    0    0  0.10231199382E+02  0.56075772314E+01 -0.47485728305E+02  0.48908248342E+02  0.10000000000E+01 0.  0.
<mgrwt>
<rscale>  0 0.12499645E+03</rscale>
<asrwt>0</asrwt>
<pdfrwt beam="1">  1        4 0.12357751E-01 0.12499645E+03</pdfrwt>
<pdfrwt beam="2">  1       -4 0.74811651E-02 0.12499645E+03</pdfrwt>
<totfact> 0.10367788E+04</totfact>
</mgrwt>
</event>
<event>
 5    1  0.3179758E-002  0.1250160E+03  0.7818608E-02  0.1235044E+00
          4   -1    0    0  501    0  0.00000000000E+00  0.00000000000E+00  0.10221585585E+03  0.10222374522E+03  0.12700000000E+01 0. -1.
         -4   -1    0    0    0  501 -0.00000000000E+00 -0.00000000000E+00 -0.38205547664E+02  0.38226650027E+02  0.12700000000E+01 0. -1.
         25    2    1    2    0    0  0.00000000000E+00  0.00000000000E+00  0.64010308186E+02  0.14045039525E+03  0.12501597486E+03 0.  0.
    9000005    1    3    3    0    0  0.41617238612E+02 -0.43596751401E+02  0.13422942016E+02  0.61756349105E+02  0.10000000000E+01 0.  0.
    9000005    1    3    3    0    0 -0.41617238612E+02  0.43596751401E+02  0.50587366170E+02  0.78694046144E+02  0.10000000000E+01 0.  0.
<mgrwt>
<rscale>  0 0.12501597E+03</rscale>
<asrwt>0</asrwt>
<pdfrwt beam="1">  1        4 0.15727746E-01 0.12501597E+03</pdfrwt>
<pdfrwt beam="2">  1       -4 0.58800068E-02 0.12501597E+03</pdfrwt>
<totfact> 0.10120617E+04</totfact>
</mgrwt>
</event>
<event>
 5    1  0.3179758E-002  0.1249993E+03  0.7818608E-02  0.1235070E+00
          4   -1    0    0  501    0  0.00000000000E+00  0.00000000000E+00  0.11961086590E+03  0.11961760799E+03  0.12700000000E+01 0. -1.
         -4   -1    0    0    0  501 -0.00000000000E+00 -0.00000000000E+00 -0.32637592756E+02  0.32662292646E+02  0.12700000000E+01 0. -1.
         25    2    1    2    0    0  0.00000000000E+00  0.00000000000E+00  0.86973273147E+02  0.15227990064E+03  0.12499927159E+03 0.  0.
    9000005    1    3    3    0    0  0.53998356019E+02 -0.11925507706E+02  0.80282539273E+01  0.55888219223E+02  0.10000000000E+01 0.  0.
    9000005    1    3    3    0    0 -0.53998356019E+02  0.11925507706E+02  0.78945019219E+02  0.96391681417E+02  0.10000000000E+01 0.  0.
<mgrwt>
<rscale>  0 0.12499927E+03</rscale>
<asrwt>0</asrwt>
<pdfrwt beam="1">  1        4 0.18404090E-01 0.12499927E+03</pdfrwt>
<pdfrwt beam="2">  1       -4 0.50235867E-02 0.12499927E+03</pdfrwt>
<totfact> 0.98852780E+03</totfact>
</mgrwt>
</event>
<event>
 5    1  0.3179758E-002  0.1250001E+03  0.7818608E-02  0.1235069E+00
         -4   -1    0    0    0  501 -0.00000000000E+00  0.00000000000E+00  0.12011074032E+03  0.12011745435E+03  0.12700000000E+01 0.  1.
          4   -1    0    0  501    0  0.00000000000E+00 -0.00000000000E+00 -0.32502120391E+02  0.32526923154E+02  0.12700000000E+01 0.  1.
         25    2    1    2    0    0  0.00000000000E+00  0.00000000000E+00  0.87608619925E+02  0.15264437750E+03  0.12500014279E+03 0.  0.
    9000005    1    3    3    0    0 -0.46239564951E+02  0.26427063679E+02  0.38822622893E+01  0.53409353320E+02  0.10000000000E+01 0.  0.
    9000005    1    3    3    0    0  0.46239564951E+02 -0.26427063679E+02  0.83726357636E+02  0.99235024183E+02  0.10000000000E+01 0.  0.
<mgrwt>
<rscale>  0 0.12500014E+03</rscale>
<asrwt>0</asrwt>
<pdfrwt beam="2">  1        4 0.50027505E-02 0.12500014E+03</pdfrwt>
<pdfrwt beam="1">  1       -4 0.18481000E-01 0.12500014E+03</pdfrwt>
<totfact> 0.98778852E+03</totfact>
</mgrwt>
</event>
<event>
 5    1  0.3179758E-002  0.1249860E+03  0.7818608E-02  0.1235091E+00
          4   -1    0    0  501    0  0.00000000000E+00  0.00000000000E+00  0.15206489357E+02  0.15259430479E+02  0.12700000000E+01 0.  1.
         -4   -1    0    0    0  501 -0.00000000000E+00 -0.00000000000E+00 -0.25632192401E+03  0.25632507023E+03  0.12700000000E+01 0.  1.
         25    2    1    2    0    0  0.00000000000E+00  0.00000000000E+00 -0.24111543465E+03  0.27158450071E+03  0.12498595200E+03 0.  0.
    9000005    1    3    3    0    0 -0.13498795791E+02  0.38236648827E+02 -0.17255681810E+02  0.44079670552E+02  0.10000000000E+01 0.  0.
    9000005    1    3    3    0    0  0.13498795791E+02 -0.38236648827E+02 -0.22385975284E+03  0.22750483015E+03  0.10000000000E+01 0.  0.
<mgrwt>
<rscale>  0 0.12498595E+03</rscale>
<asrwt>0</asrwt>
<pdfrwt beam="1">  1        4 0.23437745E-02 0.12498595E+03</pdfrwt>
<pdfrwt beam="2">  1       -4 0.39438453E-01 0.12498595E+03</pdfrwt>
<totfact> 0.79332120E+03</totfact>
</mgrwt>
</event>
<event>
 5    1  0.3179758E-002  0.1250003E+03  0.7818608E-02  0.1235069E+00
         -4   -1    0    0    0  501 -0.00000000000E+00  0.00000000000E+00  0.15471833422E+03  0.15472354651E+03  0.12700000000E+01 0.  1.
          4   -1    0    0  501    0  0.00000000000E+00 -0.00000000000E+00 -0.25225993602E+02  0.25257942378E+02  0.12700000000E+01 0.  1.
         25    2    1    2    0    0  0.00000000000E+00  0.00000000000E+00  0.12949234062E+03  0.17998148888E+03  0.12500028025E+03 0.  0.
    9000005    1    3    3    0    0 -0.60488012929E+02 -0.99594250275E+01  0.47272453534E+02  0.77418826638E+02  0.10000000000E+01 0.  0.
    9000005    1    3    3    0    0  0.60488012929E+02  0.99594250275E+01  0.82219887082E+02  0.10256266225E+03  0.10000000000E+01 0.  0.
<mgrwt>
<rscale>  0 0.12500028E+03</rscale>
<asrwt>0</asrwt>
<pdfrwt beam="2">  1        4 0.38837807E-02 0.12500028E+03</pdfrwt>
<pdfrwt beam="1">  1       -4 0.23805679E-01 0.12500028E+03</pdfrwt>
<totfact> 0.93619747E+03</totfact>
</mgrwt>
</event>
<event>
 5    1  0.3179758E-002  0.1250013E+03  0.7818608E-02  0.1235067E+00
          4   -1    0    0  501    0  0.00000000000E+00  0.00000000000E+00  0.55509715048E+03  0.55509860329E+03  0.12700000000E+01 0. -1.
         -4   -1    0    0    0  501 -0.00000000000E+00 -0.00000000000E+00 -0.69784247670E+01  0.70930467522E+01  0.12700000000E+01 0. -1.
         25    2    1    2    0    0  0.00000000000E+00  0.00000000000E+00  0.54811872572E+03  0.56219165004E+03  0.12500125558E+03 0.  0.
    9000005    1    3    3    0    0  0.48023341178E+02  0.41686113358E+01  0.95191043652E+02  0.10670498306E+03  0.10000000000E+01 0.  0.
    9000005    1    3    3    0    0 -0.48023341178E+02 -0.41686113358E+01  0.45292768206E+03  0.45548666698E+03  0.10000000000E+01 0.  0.
<mgrwt>
<rscale>  0 0.12500126E+03</rscale>
<asrwt>0</asrwt>
<pdfrwt beam="1">  1        4 0.85408477E-01 0.12500126E+03</pdfrwt>
<pdfrwt beam="2">  1       -4 0.10825328E-02 0.12500126E+03</pdfrwt>
<totfact> 0.51343186E+03</totfact>
</mgrwt>
</event>
<event>
 5    1  0.3179758E-002  0.1250066E+03  0.7818608E-02  0.1235059E+00
         -4   -1    0    0    0  501 -0.00000000000E+00  0.00000000000E+00  0.40410068140E+03  0.40410267706E+03  0.12700000000E+01 0. -1.
          4   -1    0    0  501    0  0.00000000000E+00 -0.00000000000E+00 -0.96238144319E+01  0.97072500853E+01  0.12700000000E+01 0. -1.
         25    2    1    2    0    0  0.00000000000E+00  0.00000000000E+00  0.39447686697E+03  0.41380992715E+03  0.12500662875E+03 0.  0.
    9000005    1    3    3    0    0  0.39377367306E+02  0.46686725142E+02  0.24108427333E+03  0.24870234058E+03  0.10000000000E+01 0.  0.
    9000005    1    3    3    0    0 -0.39377367306E+02 -0.46686725142E+02  0.15339259364E+03  0.16510758657E+03  0.10000000000E+01 0.  0.
<mgrwt>
<rscale>  0 0.12500663E+03</rscale>
<asrwt>0</asrwt>
<pdfrwt beam="2">  1        4 0.14871584E-02 0.12500663E+03</pdfrwt>
<pdfrwt beam="1">  1       -4 0.62175912E-01 0.12500663E+03</pdfrwt>
<totfact> 0.63222202E+03</totfact>
</mgrwt>
</event>
<event>
 5    1  0.3179758E-002  0.1250018E+03  0.7818608E-02  0.1235067E+00
          4   -1    0    0  501    0  0.00000000000E+00  0.00000000000E+00  0.51468714512E+02  0.51484380870E+02  0.12700000000E+01 0. -1.
         -4   -1    0    0    0  501 -0.00000000000E+00 -0.00000000000E+00 -0.75865216982E+02  0.75875846273E+02  0.12700000000E+01 0. -1.
         25    2    1    2    0    0  0.00000000000E+00  0.00000000000E+00 -0.24396502469E+02  0.12736022714E+03  0.12500175249E+03 0.  0.
    9000005    1    3    3    0    0  0.45120325738E+02 -0.39838622014E+02 -0.29320074806E+02  0.66959886389E+02  0.10000000000E+01 0.  0.
    9000005    1    3    3    0    0 -0.45120325738E+02  0.39838622014E+02  0.49235723365E+01  0.60400340754E+02  0.10000000000E+01 0.  0.
<mgrwt>
<rscale>  0 0.12500175E+03</rscale>
<asrwt>0</asrwt>
<pdfrwt beam="1">  1        4 0.79202866E-02 0.12500175E+03</pdfrwt>
<pdfrwt beam="2">  1       -4 0.11673595E-01 0.12500175E+03</pdfrwt>
<totfact> 0.10400917E+04</totfact>
</mgrwt>
</event>
<event>
 5    1  0.3179758E-002  0.1250003E+03  0.7818608E-02  0.1235069E+00
          4   -1    0    0  501    0  0.00000000000E+00  0.00000000000E+00  0.93407893789E+02  0.93416527028E+02  0.12700000000E+01 0.  1.
         -4   -1    0    0    0  501 -0.00000000000E+00 -0.00000000000E+00 -0.41799284064E+02  0.41818573006E+02  0.12700000000E+01 0.  1.
         25    2    1    2    0    0  0.00000000000E+00  0.00000000000E+00  0.51608609725E+02  0.13523510003E+03  0.12500033473E+03 0.  0.
    9000005    1    3    3    0    0 -0.55927618142E+02 -0.11228371308E+02  0.53414374285E+02  0.78154143674E+02  0.10000000000E+01 0.  0.
    9000005    1    3    3    0    0  0.55927618142E+02  0.11228371308E+02 -0.18057645599E+01  0.57080956360E+02  0.10000000000E+01 0.  0.
<mgrwt>
<rscale>  0 0.12500033E+03</rscale>
<asrwt>0</asrwt>
<pdfrwt beam="1">  1        4 0.14372593E-01 0.12500033E+03</pdfrwt>
<pdfrwt beam="2">  1       -4 0.64328070E-02 0.12500033E+03</pdfrwt>
<totfact> 0.10233041E+04</totfact>
</mgrwt>
</event>
<event>
 5    1  0.3179758E-002  0.1250002E+03  0.7818608E-02  0.1235069E+00
         -4   -1    0    0    0  501 -0.00000000000E+00  0.00000000000E+00  0.29561676755E+03  0.29561949557E+03  0.12700000000E+01 0.  1.
          4   -1    0    0  501    0  0.00000000000E+00 -0.00000000000E+00 -0.13180637984E+02  0.13241681074E+02  0.12700000000E+01 0.  1.
         25    2    1    2    0    0  0.00000000000E+00  0.00000000000E+00  0.28243612957E+03  0.30886117664E+03  0.12500023660E+03 0.  0.
    9000005    1    3    3    0    0  0.41164403144E+02 -0.22032109296E+02  0.24385181358E+03  0.24828336415E+03  0.10000000000E+01 0.  0.
    9000005    1    3    3    0    0 -0.41164403144E+02  0.22032109296E+02  0.38584315992E+02  0.60577812496E+02  0.10000000000E+01 0.  0.
<mgrwt>
<rscale>  0 0.12500024E+03</rscale>
<asrwt>0</asrwt>
<pdfrwt beam="2">  1        4 0.20326959E-02 0.12500024E+03</pdfrwt>
<pdfrwt beam="1">  1       -4 0.45484409E-01 0.12500024E+03</pdfrwt>
<totfact> 0.74500191E+03</totfact>
</mgrwt>
</event>
<event>
 4    1  0.3179758E-002  0.1248048E+03  0.7818608E-02  0.1235375E+00
          4   -1    0    0  501    0  0.00000000000E+00  0.00000000000E+00  0.42748451388E+02  0.42767312238E+02  0.12700000000E+01 0. -1.
         -4   -1    0    0    0  501 -0.00000000000E+00 -0.00000000000E+00 -0.91048979794E+02  0.91057836684E+02  0.12700000000E+01 0. -1.
    9000005    1    1    2    0    0 -0.53325780815E+02 -0.11084414438E+02 -0.56789650622E+02  0.78692868551E+02  0.10000000000E+01 0.  0.
    9000005    1    1    2    0    0  0.53325780815E+02  0.11084414438E+02  0.84891222161E+01  0.55132280371E+02  0.10000000000E+01 0.  0.
<mgrwt>
<rscale>  0 0.12480477E+03</rscale>
<asrwt>0</asrwt>
<pdfrwt beam="1">  1        4 0.65788170E-02 0.12480477E+03</pdfrwt>
<pdfrwt beam="2">  1       -4 0.14009667E-01 0.12480477E+03</pdfrwt>
<totfact> 0.10308218E+04</totfact>
</mgrwt>
</event>
<event>
 5    1  0.3179758E-002  0.1250035E+03  0.7818608E-02  0.1235064E+00
         -4   -1    0    0    0  501 -0.00000000000E+00  0.00000000000E+00  0.14947270540E+02  0.15001126511E+02  0.12700000000E+01 0.  1.
          4   -1    0    0  501    0  0.00000000000E+00 -0.00000000000E+00 -0.26082440012E+03  0.26082749202E+03  0.12700000000E+01 0.  1.
         25    2    1    2    0    0  0.00000000000E+00  0.00000000000E+00 -0.24587712958E+03  0.27582861853E+03  0.12500345577E+03 0.  0.
    9000005    1    3    3    0    0  0.45814714334E+02 -0.32615215494E+02 -0.18307414676E+03  0.19151992989E+03  0.10000000000E+01 0.  0.
    9000005    1    3    3    0    0 -0.45814714334E+02  0.32615215494E+02 -0.62802982812E+02  0.84308688647E+02  0.10000000000E+01 0.  0.
<mgrwt>
<rscale>  0 0.12500346E+03</rscale>
<asrwt>0</asrwt>
<pdfrwt beam="2">  1        4 0.40131208E-01 0.12500346E+03</pdfrwt>
<pdfrwt beam="1">  1       -4 0.23039609E-02 0.12500346E+03</pdfrwt>
<totfact> 0.78728423E+03</totfact>
</mgrwt>
</event>
<event>
 5    1  0.3179758E-002  0.1250022E+03  0.7818608E-02  0.1235066E+00
          4   -1    0    0  501    0  0.00000000000E+00  0.00000000000E+00  0.65559089024E+02  0.65571388986E+02  0.12700000000E+01 0. -1.
         -4   -1    0    0    0  501 -0.00000000000E+00 -0.00000000000E+00 -0.59561051506E+02  0.59574589856E+02  0.12700000000E+01 0. -1.
         25    2    1    2    0    0  0.00000000000E+00  0.00000000000E+00  0.59980375176E+01  0.12514597884E+03  0.12500215825E+03 0.  0.
    9000005    1    3    3    0    0  0.78127720524E+01 -0.17708029753E+02  0.62487677023E+02  0.65424181345E+02  0.10000000000E+01 0.  0.
    9000005    1    3    3    0    0 -0.78127720524E+01  0.17708029753E+02 -0.56489639506E+02  0.59721797498E+02  0.10000000000E+01 0.  0.
<mgrwt>
<rscale>  0 0.12500216E+03</rscale>
<asrwt>0</asrwt>
<pdfrwt beam="1">  1        4 0.10088001E-01 0.12500216E+03</pdfrwt>
<pdfrwt beam="2">  1       -4 0.91652263E-02 0.12500216E+03</pdfrwt>
<totfact> 0.10449183E+04</totfact>
</mgrwt>
</event>
<event>
 5    1  0.3179758E-002  0.1249938E+03  0.7818608E-02  0.1235079E+00
          4   -1    0    0  501    0  0.00000000000E+00  0.00000000000E+00  0.35225235897E+02  0.35248122560E+02  0.12700000000E+01 0.  1.
         -4   -1    0    0    0  501 -0.00000000000E+00 -0.00000000000E+00 -0.11081999308E+03  0.11082726995E+03  0.12700000000E+01 0.  1.
         25    2    1    2    0    0  0.00000000000E+00  0.00000000000E+00 -0.75594757179E+02  0.14607539251E+03  0.12499381179E+03 0.  0.
    9000005    1    3    3    0    0 -0.13121996222E+02  0.50628007270E+02  0.21681165710E+01  0.52355349626E+02  0.10000000000E+01 0.  0.
    9000005    1    3    3    0    0  0.13121996222E+02 -0.50628007270E+02 -0.77762873750E+02  0.93720042888E+02  0.10000000000E+01 0.  0.
<mgrwt>
<rscale>  0 0.12499381E+03</rscale>
<asrwt>0</asrwt>
<pdfrwt beam="1">  1        4 0.54215874E-02 0.12499381E+03</pdfrwt>
<pdfrwt beam="2">  1       -4 0.17051550E-01 0.12499381E+03</pdfrwt>
<totfact> 0.10010579E+04</totfact>
</mgrwt>
</event>
<event>
 5    1  0.3179758E-002  0.1249981E+03  0.7818608E-02  0.1235072E+00
          4   -1    0    0  501    0  0.00000000000E+00  0.00000000000E+00  0.19726177626E+04  0.19726181714E+04  0.12700000000E+01 0. -1.
         -4   -1    0    0    0  501 -0.00000000000E+00 -0.00000000000E+00 -0.17760957373E+01  0.21834413361E+01  0.12700000000E+01 0. -1.
         25    2    1    2    0    0  0.00000000000E+00  0.00000000000E+00  0.19708416668E+04  0.19748016127E+04  0.12499813563E+03 0.  0.
    9000005    1    3    3    0    0 -0.23480197429E+02  0.28984064698E+02  0.19332099325E+03  0.19688931436E+03  0.10000000000E+01 0.  0.
    9000005    1    3    3    0    0  0.23480197429E+02 -0.28984064698E+02  0.17775206736E+04  0.17779122984E+04  0.10000000000E+01 0.  0.
<mgrwt>
<rscale>  0 0.12499814E+03</rscale>
<asrwt>0</asrwt>
<pdfrwt beam="1">  1        4 0.30351127E+00 0.12499814E+03</pdfrwt>
<pdfrwt beam="2">  1       -4 0.30461097E-03 0.12499814E+03</pdfrwt>
<totfact> 0.10194174E+03</totfact>
</mgrwt>
</event>
<event>
 5    1  0.3179758E-002  0.1249998E+03  0.7818608E-02  0.1235070E+00
          4   -1    0    0  501    0  0.00000000000E+00  0.00000000000E+00  0.13646964774E+02  0.13705931108E+02  0.12700000000E+01 0. -1.
         -4   -1    0    0    0  501 -0.00000000000E+00 -0.00000000000E+00 -0.28555766615E+03  0.28556049026E+03  0.12700000000E+01 0. -1.
         25    2    1    2    0    0  0.00000000000E+00  0.00000000000E+00 -0.27191070138E+03  0.29926642137E+03  0.12499984574E+03 0.  0.
    9000005    1    3    3    0    0 -0.42556354876E+01  0.51250924330E+02 -0.22095462775E+03  0.22686276734E+03  0.10000000000E+01 0.  0.
    9000005    1    3    3    0    0  0.42556354876E+01 -0.51250924330E+02 -0.50956073624E+02  0.72403654032E+02  0.10000000000E+01 0.  0.
<mgrwt>
<rscale>  0 0.12499985E+03</rscale>
<asrwt>0</asrwt>
<pdfrwt beam="1">  1        4 0.21042864E-02 0.12499985E+03</pdfrwt>
<pdfrwt beam="2">  1       -4 0.43936697E-01 0.12499985E+03</pdfrwt>
<totfact> 0.75691211E+03</totfact>
</mgrwt>
</event>
<event>
 5    1  0.3179758E-002  0.1249994E+03  0.7818608E-02  0.1235070E+00
          4   -1    0    0  501    0  0.00000000000E+00  0.00000000000E+00  0.50912819773E+01  0.52472899836E+01  0.12700000000E+01 0. -1.
         -4   -1    0    0    0  501 -0.00000000000E+00 -0.00000000000E+00 -0.75550156817E+03  0.75550263561E+03  0.12700000000E+01 0. -1.
         25    2    1    2    0    0  0.00000000000E+00  0.00000000000E+00 -0.75041028619E+03  0.76074992559E+03  0.12499940664E+03 0.  0.
    9000005    1    3    3    0    0  0.48854642564E+02 -0.40825604651E+01 -0.61105499572E+03  0.61301929104E+03  0.10000000000E+01 0.  0.
    9000005    1    3    3    0    0 -0.48854642564E+02  0.40825604651E+01 -0.13935529048E+03  0.14773063455E+03  0.10000000000E+01 0.  0.
<mgrwt>
<rscale>  0 0.12499941E+03</rscale>
<asrwt>0</asrwt>
<pdfrwt beam="1">  1        4 0.79535748E-03 0.12499941E+03</pdfrwt>
<pdfrwt beam="2">  1       -4 0.11624301E+00 0.12499941E+03</pdfrwt>
<totfact> 0.40065718E+03</totfact>
</mgrwt>
</event>
<event>
 5    1  0.3179758E-002  0.1250107E+03  0.7818608E-02  0.1235053E+00
         -4   -1    0    0    0  501 -0.00000000000E+00  0.00000000000E+00  0.26132916146E+02  0.26163757495E+02  0.12700000000E+01 0.  1.
          4   -1    0    0  501    0  0.00000000000E+00 -0.00000000000E+00 -0.14938001096E+03  0.14938540951E+03  0.12700000000E+01 0.  1.
         25    2    1    2    0    0  0.00000000000E+00  0.00000000000E+00 -0.12324709482E+03  0.17554916701E+03  0.12501065417E+03 0.  0.
    9000005    1    3    3    0    0  0.25431366016E+02  0.55688823878E+02 -0.43976770055E+02  0.75385381785E+02  0.10000000000E+01 0.  0.
    9000005    1    3    3    0    0 -0.25431366016E+02 -0.55688823878E+02 -0.79270324763E+02  0.10016378522E+03  0.10000000000E+01 0.  0.
<mgrwt>
<rscale>  0 0.12501065E+03</rscale>
<asrwt>0</asrwt>
<pdfrwt beam="2">  1        4 0.22984327E-01 0.12501065E+03</pdfrwt>
<pdfrwt beam="1">  1       -4 0.40232364E-02 0.12501065E+03</pdfrwt>
<totfact> 0.94401795E+03</totfact>
</mgrwt>
</event>
<event>
 5    1  0.3179758E-002  0.1249950E+03  0.7818608E-02  0.1235077E+00
         -4   -1    0    0    0  501 -0.00000000000E+00  0.00000000000E+00  0.56515594808E+03  0.56515737503E+03  0.12700000000E+01 0. -1.
          4   -1    0    0  501    0  0.00000000000E+00 -0.00000000000E+00 -0.68514682283E+01  0.69681788785E+01  0.12700000000E+01 0. -1.
         25    2    1    2    0    0  0.00000000000E+00  0.00000000000E+00  0.55830447986E+03  0.57212555391E+03  0.12499502875E+03 0.  0.
    9000005    1    3    3    0    0 -0.19996650267E+02 -0.57586475894E+02  0.34205668442E+03  0.34744761272E+03  0.10000000000E+01 0.  0.
    9000005    1    3    3    0    0  0.19996650267E+02  0.57586475894E+02  0.21624779543E+03  0.22467794119E+03  0.10000000000E+01 0.  0.
<mgrwt>
<rscale>  0 0.12499503E+03</rscale>
<asrwt>0</asrwt>
<pdfrwt beam="2">  1        4 0.10631594E-02 0.12499503E+03</pdfrwt>
<pdfrwt beam="1">  1       -4 0.86956171E-01 0.12499503E+03</pdfrwt>
<totfact> 0.50681284E+03</totfact>
</mgrwt>
</event>
<event>
 5    1  0.3179758E-002  0.1250045E+03  0.7818608E-02  0.1235062E+00
          4   -1    0    0  501    0  0.00000000000E+00  0.00000000000E+00  0.82019183465E+02  0.82029015332E+02  0.12700000000E+01 0.  1.
         -4   -1    0    0    0  501 -0.00000000000E+00 -0.00000000000E+00 -0.47608326554E+02  0.47625262805E+02  0.12700000000E+01 0.  1.
         25    2    1    2    0    0  0.00000000000E+00  0.00000000000E+00  0.34410856911E+02  0.12965427814E+03  0.12500449898E+03 0.  0.
    9000005    1    3    3    0    0  0.47248934895E+02 -0.70076738370E+01  0.59002814180E+02  0.75920362370E+02  0.10000000000E+01 0.  0.
    9000005    1    3    3    0    0 -0.47248934895E+02  0.70076738370E+01 -0.24591957269E+02  0.53733915767E+02  0.10000000000E+01 0.  0.
<mgrwt>
<rscale>  0 0.12500450E+03</rscale>
<asrwt>0</asrwt>
<pdfrwt beam="1">  1        4 0.12620395E-01 0.12500450E+03</pdfrwt>
<pdfrwt beam="2">  1       -4 0.73264171E-02 0.12500450E+03</pdfrwt>
<totfact> 0.10350857E+04</totfact>
</mgrwt>
</event>
<event>
 5    1  0.3179758E-002  0.1249993E+03  0.7818608E-02  0.1235070E+00
          4   -1    0    0  501    0  0.00000000000E+00  0.00000000000E+00  0.15465839312E+04  0.15465844527E+04  0.12700000000E+01 0. -1.
         -4   -1    0    0    0  501 -0.00000000000E+00 -0.00000000000E+00 -0.23654936251E+01  0.26848575549E+01  0.12700000000E+01 0. -1.
         25    2    1    2    0    0  0.00000000000E+00  0.00000000000E+00  0.15442184376E+04  0.15492693102E+04  0.12499925025E+03 0.  0.
    9000005    1    3    3    0    0 -0.62341270339E+02  0.61548841917E+00  0.71895787583E+03  0.72165659426E+03  0.10000000000E+01 0.  0.
    9000005    1    3    3    0    0  0.62341270339E+02 -0.61548841917E+00  0.82526056177E+03  0.82761271596E+03  0.10000000000E+01 0.  0.
<mgrwt>
<rscale>  0 0.12499925E+03</rscale>
<asrwt>0</asrwt>
<pdfrwt beam="1">  1        4 0.23796041E+00 0.12499925E+03</pdfrwt>
<pdfrwt beam="2">  1       -4 0.38852897E-03 0.12499925E+03</pdfrwt>
<totfact> 0.16982300E+03</totfact>
</mgrwt>
</event>
<event>
 5    1  0.3179758E-002  0.1249994E+03  0.7818608E-02  0.1235070E+00
          4   -1    0    0  501    0  0.00000000000E+00  0.00000000000E+00  0.41360605985E+03  0.41360800965E+03  0.12700000000E+01 0. -1.
         -4   -1    0    0    0  501 -0.00000000000E+00 -0.00000000000E+00 -0.93996106360E+01  0.94850187195E+01  0.12700000000E+01 0. -1.
         25    2    1    2    0    0  0.00000000000E+00  0.00000000000E+00  0.40420644922E+03  0.42309302837E+03  0.12499942827E+03 0.  0.
    9000005    1    3    3    0    0  0.17029819093E+02 -0.10169770423E+02  0.15215732776E+01  0.19918688563E+02  0.10000000000E+01 0.  0.
    9000005    1    3    3    0    0 -0.17029819093E+02  0.10169770423E+02  0.40268487594E+03  0.40317433981E+03  0.10000000000E+01 0.  0.
<mgrwt>
<rscale>  0 0.12499943E+03</rscale>
<asrwt>0</asrwt>
<pdfrwt beam="1">  1        4 0.63638425E-01 0.12499943E+03</pdfrwt>
<pdfrwt beam="2">  1       -4 0.14528137E-02 0.12499943E+03</pdfrwt>
<totfact> 0.62367877E+03</totfact>
</mgrwt>
</event>
<event>
 5    1  0.3179758E-002  0.1249980E+03  0.7818608E-02  0.1235072E+00
         -4   -1    0    0    0  501 -0.00000000000E+00  0.00000000000E+00  0.44754942880E+02  0.44772958493E+02  0.12700000000E+01 0. -1.
          4   -1    0    0  501    0  0.00000000000E+00 -0.00000000000E+00 -0.87237928363E+02  0.87247172133E+02  0.12700000000E+01 0. -1.
         25    2    1    2    0    0  0.00000000000E+00  0.00000000000E+00 -0.42482985483E+02  0.13202013063E+03  0.12499804332E+03 0.  0.
    9000005    1    3    3    0    0  0.45303036587E+02  0.99745070609E+01 -0.65465853728E+02  0.80241098693E+02  0.10000000000E+01 0.  0.
    9000005    1    3    3    0    0 -0.45303036587E+02 -0.99745070609E+01  0.22982868245E+02  0.51779031933E+02  0.10000000000E+01 0.  0.
<mgrwt>
<rscale>  0 0.12499804E+03</rscale>
<asrwt>0</asrwt>
<pdfrwt beam="2">  1        4 0.13423317E-01 0.12499804E+03</pdfrwt>
<pdfrwt beam="1">  1       -4 0.68874727E-02 0.12499804E+03</pdfrwt>
<totfact> 0.10301723E+04</totfact>
</mgrwt>
</event>
<event>
 5    1  0.3179758E-002  0.1249990E+03  0.7818608E-02  0.1235071E+00
         -4   -1    0    0    0  501 -0.00000000000E+00  0.00000000000E+00  0.31623953114E+01  0.34078797082E+01  0.12700000000E+01 0.  1.
          4   -1    0    0  501    0  0.00000000000E+00 -0.00000000000E+00 -0.11888033041E+04  0.11888039825E+04  0.12700000000E+01 0.  1.
         25    2    1    2    0    0  0.00000000000E+00  0.00000000000E+00 -0.11856409088E+04  0.11922118622E+04  0.12499903891E+03 0.  0.
    9000005    1    3    3    0    0 -0.37249693987E+02  0.44789475868E+02 -0.80854130166E+03  0.81063781885E+03  0.10000000000E+01 0.  0.
    9000005    1    3    3    0    0  0.37249693987E+02 -0.44789475868E+02 -0.37709960716E+03  0.38157404337E+03  0.10000000000E+01 0.  0.
<mgrwt>
<rscale>  0 0.12499904E+03</rscale>
<asrwt>0</asrwt>
<pdfrwt beam="2">  1        4 0.18291141E+00 0.12499904E+03</pdfrwt>
<pdfrwt beam="1">  1       -4 0.50545890E-03 0.12499904E+03</pdfrwt>
<totfact> 0.24918096E+03</totfact>
</mgrwt>
</event>
<event>
 5    1  0.3179758E-002  0.1249993E+03  0.7818608E-02  0.1235070E+00
         -4   -1    0    0    0  501 -0.00000000000E+00  0.00000000000E+00  0.11995991070E+02  0.12063030371E+02  0.12700000000E+01 0.  1.
          4   -1    0    0  501    0  0.00000000000E+00 -0.00000000000E+00 -0.32465034589E+03  0.32465282994E+03  0.12700000000E+01 0.  1.
         25    2    1    2    0    0  0.00000000000E+00  0.00000000000E+00 -0.31265435482E+03  0.33671586031E+03  0.12499929998E+03 0.  0.
    9000005    1    3    3    0    0 -0.26845641196E+02 -0.51713774781E+02 -0.95481795371E+02  0.11186052119E+03  0.10000000000E+01 0.  0.
    9000005    1    3    3    0    0  0.26845641196E+02  0.51713774781E+02 -0.21717255945E+03  0.22485533912E+03  0.10000000000E+01 0.  0.
<mgrwt>
<rscale>  0 0.12499930E+03</rscale>
<asrwt>0</asrwt>
<pdfrwt beam="2">  1        4 0.49951548E-01 0.12499930E+03</pdfrwt>
<pdfrwt beam="1">  1       -4 0.18508853E-02 0.12499930E+03</pdfrwt>
<totfact> 0.71212237E+03</totfact>
</mgrwt>
</event>
<event>
 5    1  0.3179758E-002  0.1249995E+03  0.7818608E-02  0.1235070E+00
          4   -1    0    0  501    0  0.00000000000E+00  0.00000000000E+00  0.27856178216E+03  0.27856467720E+03  0.12700000000E+01 0.  1.
         -4   -1    0    0    0  501 -0.00000000000E+00 -0.00000000000E+00 -0.13991069391E+02  0.14048591484E+02  0.12700000000E+01 0.  1.
         25    2    1    2    0    0  0.00000000000E+00  0.00000000000E+00  0.26457071277E+03  0.29261326868E+03  0.12499945180E+03 0.  0.
    9000005    1    3    3    0    0 -0.52424174384E+02  0.26898296420E+02  0.83551359870E+02  0.10224305427E+03  0.10000000000E+01 0.  0.
    9000005    1    3    3    0    0  0.52424174384E+02 -0.26898296420E+02  0.18101935290E+03  0.19037021441E+03  0.10000000000E+01 0.  0.
<mgrwt>
<rscale>  0 0.12499945E+03</rscale>
<asrwt>0</asrwt>
<pdfrwt beam="1">  1        4 0.42860305E-01 0.12499945E+03</pdfrwt>
<pdfrwt beam="2">  1       -4 0.21571197E-02 0.12499945E+03</pdfrwt>
<totfact> 0.76535789E+03</totfact>
</mgrwt>
</event>
<event>
 5    1  0.3179758E-002  0.1249945E+03  0.7818608E-02  0.1235078E+00
          4   -1    0    0  501    0  0.00000000000E+00  0.00000000000E+00  0.73654843079E+02  0.73665791308E+02  0.12700000000E+01 0. -1.
         -4   -1    0    0    0  501 -0.00000000000E+00 -0.00000000000E+00 -0.53007329391E+02  0.53022541142E+02  0.12700000000E+01 0. -1.
         25    2    1    2    0    0  0.00000000000E+00  0.00000000000E+00  0.20647513688E+02  0.12668833245E+03  0.12499445491E+03 0.  0.
    9000005    1    3    3    0    0  0.32366330935E+02  0.10194201996E+02 -0.42860207762E+02  0.54676306952E+02  0.10000000000E+01 0.  0.
    9000005    1    3    3    0    0 -0.32366330935E+02 -0.10194201996E+02  0.63507721450E+02  0.72012025498E+02  0.10000000000E+01 0.  0.
<mgrwt>
<rscale>  0 0.12499445E+03</rscale>
<asrwt>0</asrwt>
<pdfrwt beam="1">  1        4 0.11333527E-01 0.12499445E+03</pdfrwt>
<pdfrwt beam="2">  1       -4 0.81569861E-02 0.12499445E+03</pdfrwt>
<totfact> 0.10417228E+04</totfact>
</mgrwt>
</event>
<event>
 5    1  0.3179758E-002  0.1250003E+03  0.7818608E-02  0.1235069E+00
         -4   -1    0    0    0  501 -0.00000000000E+00  0.00000000000E+00  0.83330689312E+02  0.83340366457E+02  0.12700000000E+01 0. -1.
          4   -1    0    0  501    0  0.00000000000E+00 -0.00000000000E+00 -0.46855745414E+02  0.46872953590E+02  0.12700000000E+01 0. -1.
         25    2    1    2    0    0  0.00000000000E+00  0.00000000000E+00  0.36474943898E+02  0.13021332005E+03  0.12500034874E+03 0.  0.
    9000005    1    3    3    0    0  0.59057044447E+02  0.66401323926E+01  0.38368134013E+02  0.70745597493E+02  0.10000000000E+01 0.  0.
    9000005    1    3    3    0    0 -0.59057044447E+02 -0.66401323926E+01 -0.18931901140E+01  0.59467722554E+02  0.10000000000E+01 0.  0.
<mgrwt>
<rscale>  0 0.12500035E+03</rscale>
<asrwt>0</asrwt>
<pdfrwt beam="2">  1        4 0.72106444E-02 0.12500035E+03</pdfrwt>
<pdfrwt beam="1">  1       -4 0.12822174E-01 0.12500035E+03</pdfrwt>
<totfact> 0.10339865E+04</totfact>
</mgrwt>
</event>
<event>
 5    1  0.3179758E-002  0.1250004E+03  0.7818608E-02  0.1235069E+00
          4   -1    0    0  501    0  0.00000000000E+00  0.00000000000E+00  0.29991286666E+03  0.29991555559E+03  0.12700000000E+01 0.  1.
         -4   -1    0    0    0  501 -0.00000000000E+00 -0.00000000000E+00 -0.12990988133E+02  0.13052918167E+02  0.12700000000E+01 0.  1.
         25    2    1    2    0    0  0.00000000000E+00  0.00000000000E+00  0.28692187852E+03  0.31296847376E+03  0.12500040477E+03 0.  0.
    9000005    1    3    3    0    0  0.47810543837E+02  0.38407918062E+02  0.11338905295E+03  0.12891506352E+03  0.10000000000E+01 0.  0.
    9000005    1    3    3    0    0 -0.47810543837E+02 -0.38407918062E+02  0.17353282557E+03  0.18405341024E+03  0.10000000000E+01 0.  0.
<mgrwt>
<rscale>  0 0.12500040E+03</rscale>
<asrwt>0</asrwt>
<pdfrwt beam="1">  1        4 0.46145408E-01 0.12500040E+03</pdfrwt>
<pdfrwt beam="2">  1       -4 0.20035844E-02 0.12500040E+03</pdfrwt>
<totfact> 0.73999648E+03</totfact>
</mgrwt>
</event>
<event>
 5    1  0.3179758E-002  0.1250041E+03  0.7818608E-02  0.1235063E+00
         -4   -1    0    0    0  501 -0.00000000000E+00  0.00000000000E+00  0.30584686895E+01  0.33116658534E+01  0.12700000000E+01 0.  1.
          4   -1    0    0  501    0  0.00000000000E+00 -0.00000000000E+00 -0.12262524421E+04  0.12262530998E+04  0.12700000000E+01 0.  1.
         25    2    1    2    0    0  0.00000000000E+00  0.00000000000E+00 -0.12231939734E+04  0.12295647656E+04  0.12500406488E+03 0.  0.
    9000005    1    3    3    0    0 -0.19443195930E+02 -0.46749521070E+02 -0.25127132422E+03  0.25632368982E+03  0.10000000000E+01 0.  0.
    9000005    1    3    3    0    0  0.19443195930E+02  0.46749521070E+02 -0.97192264921E+03  0.97324107581E+03  0.10000000000E+01 0.  0.
<mgrwt>
<rscale>  0 0.12500406E+03</rscale>
<asrwt>0</asrwt>
<pdfrwt beam="2">  1        4 0.18867337E+00 0.12500406E+03</pdfrwt>
<pdfrwt beam="1">  1       -4 0.49006192E-03 0.12500406E+03</pdfrwt>
<totfact> 0.23949689E+03</totfact>
</mgrwt>
</event>
<event>
 5    1  0.3179758E-002  0.1249937E+03  0.7818608E-02  0.1235079E+00
         -4   -1    0    0    0  501 -0.00000000000E+00  0.00000000000E+00  0.36420140164E+03  0.36420361593E+03  0.12700000000E+01 0. -1.
          4   -1    0    0  501    0  0.00000000000E+00 -0.00000000000E+00 -0.10684583087E+02  0.10759796268E+02  0.12700000000E+01 0. -1.
         25    2    1    2    0    0  0.00000000000E+00  0.00000000000E+00  0.35351681855E+03  0.37496341220E+03  0.12499367779E+03 0.  0.
    9000005    1    3    3    0    0 -0.28669181289E+02  0.54594373144E+02  0.14640384735E+03  0.15886331878E+03  0.10000000000E+01 0.  0.
    9000005    1    3    3    0    0  0.28669181289E+02 -0.54594373144E+02  0.20711297121E+03  0.21610009342E+03  0.10000000000E+01 0.  0.
<mgrwt>
<rscale>  0 0.12499368E+03</rscale>
<asrwt>0</asrwt>
<pdfrwt beam="2">  1        4 0.16497380E-02 0.12499368E+03</pdfrwt>
<pdfrwt beam="1">  1       -4 0.56036939E-01 0.12499368E+03</pdfrwt>
<totfact> 0.67072220E+03</totfact>
</mgrwt>
</event>
<event>
 5    1  0.3179758E-002  0.1250026E+03  0.7818608E-02  0.1235065E+00
          4   -1    0    0  501    0  0.00000000000E+00  0.00000000000E+00  0.43482875806E+02  0.43501418234E+02  0.12700000000E+01 0.  1.
         -4   -1    0    0    0  501 -0.00000000000E+00 -0.00000000000E+00 -0.89795708915E+02  0.89804689407E+02  0.12700000000E+01 0.  1.
         25    2    1    2    0    0  0.00000000000E+00  0.00000000000E+00 -0.46312833109E+02  0.13330610764E+03  0.12500255927E+03 0.  0.
    9000005    1    3    3    0    0  0.49056441665E+02 -0.38466086121E+02 -0.27833608618E+02  0.68277990736E+02  0.10000000000E+01 0.  0.
    9000005    1    3    3    0    0 -0.49056441665E+02  0.38466086121E+02 -0.18479224491E+02  0.65028116904E+02  0.10000000000E+01 0.  0.
<mgrwt>
<rscale>  0 0.12500256E+03</rscale>
<asrwt>0</asrwt>
<pdfrwt beam="1">  1        4 0.66917904E-02 0.12500256E+03</pdfrwt>
<pdfrwt beam="2">  1       -4 0.13816842E-01 0.12500256E+03</pdfrwt>
<totfact> 0.10273305E+04</totfact>
</mgrwt>
</event>
<event>
 5    1  0.3179758E-002  0.1249924E+03  0.7818608E-02  0.1235081E+00
          4   -1    0    0  501    0  0.00000000000E+00  0.00000000000E+00  0.77690706813E+01  0.78721889745E+01  0.12700000000E+01 0.  1.
         -4   -1    0    0    0  501 -0.00000000000E+00 -0.00000000000E+00 -0.49931581322E+03  0.49931742833E+03  0.12700000000E+01 0.  1.
         25    2    1    2    0    0  0.00000000000E+00  0.00000000000E+00 -0.49154674254E+03  0.50718961730E+03  0.12499243096E+03 0.  0.
    9000005    1    3    3    0    0 -0.44040601190E+02  0.23223875943E+02 -0.39899644361E+03  0.40209213494E+03  0.10000000000E+01 0.  0.
    9000005    1    3    3    0    0  0.44040601190E+02 -0.23223875943E+02 -0.92550298925E+02  0.10509748236E+03  0.10000000000E+01 0.  0.
<mgrwt>
<rscale>  0 0.12499243E+03</rscale>
<asrwt>0</asrwt>
<pdfrwt beam="1">  1        4 0.12032985E-02 0.12499243E+03</pdfrwt>
<pdfrwt beam="2">  1       -4 0.76825849E-01 0.12499243E+03</pdfrwt>
<totfact> 0.55320039E+03</totfact>
</mgrwt>
</event>
<event>
 5    1  0.3179758E-002  0.1250007E+03  0.7818608E-02  0.1235068E+00
         -4   -1    0    0    0  501 -0.00000000000E+00  0.00000000000E+00  0.37820442812E+01  0.39895812994E+01  0.12700000000E+01 0. -1.
          4   -1    0    0  501    0  0.00000000000E+00 -0.00000000000E+00 -0.10050632714E+04  0.10050640738E+04  0.12700000000E+01 0. -1.
         25    2    1    2    0    0  0.00000000000E+00  0.00000000000E+00 -0.10012812272E+04  0.10090536551E+04  0.12500073225E+03 0.  0.
    9000005    1    3    3    0    0  0.58899967226E+02 -0.92402791339E+01 -0.65181347667E+03  0.65453525288E+03  0.10000000000E+01 0.  0.
    9000005    1    3    3    0    0 -0.58899967226E+02  0.92402791339E+01 -0.34946775049E+03  0.35451840224E+03  0.10000000000E+01 0.  0.
<mgrwt>
<rscale>  0 0.12500073E+03</rscale>
<asrwt>0</asrwt>
<pdfrwt beam="2">  1        4 0.15464094E+00 0.12500073E+03</pdfrwt>
<pdfrwt beam="1">  1       -4 0.59787987E-03 0.12500073E+03</pdfrwt>
<totfact> 0.30306959E+03</totfact>
</mgrwt>
</event>
<event>
 5    1  0.3179758E-002  0.1249949E+03  0.7818608E-02  0.1235077E+00
         -4   -1    0    0    0  501 -0.00000000000E+00  0.00000000000E+00  0.24948212741E+03  0.24948535989E+03  0.12700000000E+01 0.  1.
          4   -1    0    0  501    0  0.00000000000E+00 -0.00000000000E+00 -0.15627053658E+02  0.15678574745E+02  0.12700000000E+01 0.  1.
         25    2    1    2    0    0  0.00000000000E+00  0.00000000000E+00  0.23385507375E+03  0.26516393463E+03  0.12499486673E+03 0.  0.
    9000005    1    3    3    0    0 -0.96974408569E+00 -0.55087728139E+02  0.54379331180E+02  0.77419053563E+02  0.10000000000E+01 0.  0.
    9000005    1    3    3    0    0  0.96974408569E+00  0.55087728139E+02  0.17947574257E+03  0.18774488107E+03  0.10000000000E+01 0.  0.
<mgrwt>
<rscale>  0 0.12499487E+03</rscale>
<asrwt>0</asrwt>
<pdfrwt beam="2">  1        4 0.24083739E-02 0.12499487E+03</pdfrwt>
<pdfrwt beam="1">  1       -4 0.38386078E-01 0.12499487E+03</pdfrwt>
<totfact> 0.80195952E+03</totfact>
</mgrwt>
</event>
<event>
 5    1  0.3179758E-002  0.1249977E+03  0.7818608E-02  0.1235073E+00
          4   -1    0    0  501    0  0.00000000000E+00  0.00000000000E+00  0.11526958856E+03  0.11527658456E+03  0.12700000000E+01 0.  1.
         -4   -1    0    0    0  501 -0.00000000000E+00 -0.00000000000E+00 -0.33866800474E+02  0.33890604514E+02  0.12700000000E+01 0.  1.
         25    2    1    2    0    0  0.00000000000E+00  0.00000000000E+00  0.81402788091E+02  0.14916718907E+03  0.12499774553E+03 0.  0.
    9000005    1    3    3    0    0 -0.34481877846E+02 -0.52116057314E+02  0.40892953560E+02  0.74688131458E+02  0.10000000000E+01 0.  0.
    9000005    1    3    3    0    0  0.34481877846E+02  0.52116057314E+02  0.40509834530E+02  0.74479057617E+02  0.10000000000E+01 0.  0.
<mgrwt>
<rscale>  0 0.12499775E+03</rscale>
<asrwt>0</asrwt>
<pdfrwt beam="1">  1        4 0.17736152E-01 0.12499775E+03</pdfrwt>
<pdfrwt beam="2">  1       -4 0.52126462E-02 0.12499775E+03</pdfrwt>
<totfact> 0.99475013E+03</totfact>
</mgrwt>
</event>
<event>
 5    1  0.3179758E-002  0.1249983E+03  0.7818608E-02  0.1235072E+00
         -4   -1    0    0    0  501 -0.00000000000E+00  0.00000000000E+00  0.13698040640E+03  0.13698629361E+03  0.12700000000E+01 0.  1.
          4   -1    0    0  501    0  0.00000000000E+00 -0.00000000000E+00 -0.28495443188E+02  0.28523730164E+02  0.12700000000E+01 0.  1.
         25    2    1    2    0    0  0.00000000000E+00  0.00000000000E+00  0.10848496321E+03  0.16551002377E+03  0.12499832290E+03 0.  0.
    9000005    1    3    3    0    0 -0.19155986807E+02  0.54456932302E+02  0.85927896001E+02  0.10352348824E+03  0.10000000000E+01 0.  0.
    9000005    1    3    3    0    0  0.19155986807E+02 -0.54456932302E+02  0.22557067207E+02  0.61986535532E+02  0.10000000000E+01 0.  0.
<mgrwt>
<rscale>  0 0.12499832E+03</rscale>
<asrwt>0</asrwt>
<pdfrwt beam="2">  1        4 0.43865432E-02 0.12499832E+03</pdfrwt>
<pdfrwt beam="1">  1       -4 0.21076537E-01 0.12499832E+03</pdfrwt>
<totfact> 0.96294517E+03</totfact>
</mgrwt>
</event>
<event>
 5    1  0.3179758E-002  0.1249993E+03  0.7818608E-02  0.1235070E+00
         -4   -1    0    0    0  501 -0.00000000000E+00  0.00000000000E+00  0.13857679679E+03  0.13858261619E+03  0.12700000000E+01 0.  1.
          4   -1    0    0  501    0  0.00000000000E+00 -0.00000000000E+00 -0.28167302638E+02  0.28195918817E+02  0.12700000000E+01 0.  1.
         25    2    1    2    0    0  0.00000000000E+00  0.00000000000E+00  0.11040949415E+03  0.16677853500E+03  0.12499929335E+03 0.  0.
    9000005    1    3    3    0    0  0.39010789929E+02  0.16150103390E+02 -0.62648492248E+01  0.42695619285E+02  0.10000000000E+01 0.  0.
    9000005    1    3    3    0    0 -0.39010789929E+02 -0.16150103390E+02  0.11667434338E+03  0.12408291572E+03  0.10000000000E+01 0.  0.
<mgrwt>
<rscale>  0 0.12499929E+03</rscale>
<asrwt>0</asrwt>
<pdfrwt beam="2">  1        4 0.43360801E-02 0.12499929E+03</pdfrwt>
<pdfrwt beam="1">  1       -4 0.21322156E-01 0.12499929E+03</pdfrwt>
<totfact> 0.96053147E+03</totfact>
</mgrwt>
</event>
<event>
 5    1  0.3179758E-002  0.1250046E+03  0.7818608E-02  0.1235062E+00
         -4   -1    0    0    0  501 -0.00000000000E+00  0.00000000000E+00  0.81174587879E+01  0.82162057650E+01  0.12700000000E+01 0.  1.
          4   -1    0    0  501    0  0.00000000000E+00 -0.00000000000E+00 -0.47824216741E+03  0.47824385369E+03  0.12700000000E+01 0.  1.
         25    2    1    2    0    0  0.00000000000E+00  0.00000000000E+00 -0.47012470862E+03  0.48646005945E+03  0.12500459105E+03 0.  0.
    9000005    1    3    3    0    0 -0.58609461596E+02  0.96006243512E+01 -0.15937260235E+03  0.17008194306E+03  0.10000000000E+01 0.  0.
    9000005    1    3    3    0    0  0.58609461596E+02 -0.96006243512E+01 -0.31075210628E+03  0.31637811639E+03  0.10000000000E+01 0.  0.
<mgrwt>
<rscale>  0 0.12500459E+03</rscale>
<asrwt>0</asrwt>
<pdfrwt beam="2">  1        4 0.73583422E-01 0.12500459E+03</pdfrwt>
<pdfrwt beam="1">  1       -4 0.12565658E-02 0.12500459E+03</pdfrwt>
<totfact> 0.56924678E+03</totfact>
</mgrwt>
</event>
<event>
 5    1  0.3179758E-002  0.1250033E+03  0.7818608E-02  0.1235064E+00
          4   -1    0    0  501    0  0.00000000000E+00  0.00000000000E+00  0.36112098708E+01  0.38280199491E+01  0.12700000000E+01 0. -1.
         -4   -1    0    0    0  501 -0.00000000000E+00 -0.00000000000E+00 -0.10500134116E+04  0.10500141796E+04  0.12700000000E+01 0. -1.
         25    2    1    2    0    0  0.00000000000E+00  0.00000000000E+00 -0.10464022017E+04  0.10538421996E+04  0.12500325534E+03 0.  0.
    9000005    1    3    3    0    0  0.34305349121E+02 -0.19785344354E+02 -0.93076556776E+03  0.93160821108E+03  0.10000000000E+01 0.  0.
    9000005    1    3    3    0    0 -0.34305349121E+02  0.19785344354E+02 -0.11563663395E+03  0.12223398848E+03  0.10000000000E+01 0.  0.
<mgrwt>
<rscale>  0 0.12500326E+03</rscale>
<asrwt>0</asrwt>
<pdfrwt beam="1">  1        4 0.57230836E-03 0.12500326E+03</pdfrwt>
<pdfrwt beam="2">  1       -4 0.16155703E+00 0.12500326E+03</pdfrwt>
<totfact> 0.28873099E+03</totfact>
</mgrwt>
</event>
<event>
 5    1  0.3179758E-002  0.1250049E+03  0.7818608E-02  0.1235062E+00
         -4   -1    0    0    0  501 -0.00000000000E+00  0.00000000000E+00  0.10909391153E+03  0.10910130354E+03  0.12700000000E+01 0.  1.
          4   -1    0    0  501    0  0.00000000000E+00 -0.00000000000E+00 -0.35789225863E+02  0.35811752092E+02  0.12700000000E+01 0.  1.
         25    2    1    2    0    0  0.00000000000E+00  0.00000000000E+00  0.73304685670E+02  0.14491305563E+03  0.12500486691E+03 0.  0.
    9000005    1    3    3    0    0  0.74262659196E+01 -0.52931943178E+02 -0.88715421097E+00  0.53467065346E+02  0.10000000000E+01 0.  0.
    9000005    1    3    3    0    0 -0.74262659196E+01  0.52931943178E+02  0.74191839881E+02  0.91445990284E+02  0.10000000000E+01 0.  0.
<mgrwt>
<rscale>  0 0.12500487E+03</rscale>
<asrwt>0</asrwt>
<pdfrwt beam="2">  1        4 0.55083361E-02 0.12500487E+03</pdfrwt>
<pdfrwt beam="1">  1       -4 0.16785980E-01 0.12500487E+03</pdfrwt>
<totfact> 0.10031656E+04</totfact>
</mgrwt>
</event>
<event>
 5    1  0.3179758E-002  0.1250069E+03  0.7818608E-02  0.1235059E+00
         -4   -1    0    0    0  501 -0.00000000000E+00  0.00000000000E+00  0.40355275556E+03  0.40355475393E+03  0.12700000000E+01 0.  1.
          4   -1    0    0  501    0  0.00000000000E+00 -0.00000000000E+00 -0.96370324368E+01  0.97203546329E+01  0.12700000000E+01 0.  1.
         25    2    1    2    0    0  0.00000000000E+00  0.00000000000E+00  0.39391572313E+03  0.41327510857E+03  0.12500687355E+03 0.  0.
    9000005    1    3    3    0    0 -0.53938634798E+01  0.18071299443E+02  0.39393706955E+03  0.39438950340E+03  0.10000000000E+01 0.  0.
    9000005    1    3    3    0    0  0.53938634798E+01 -0.18071299443E+02 -0.21346424390E-01  0.18885605166E+02  0.10000000000E+01 0.  0.
<mgrwt>
<rscale>  0 0.12500687E+03</rscale>
<asrwt>0</asrwt>
<pdfrwt beam="2">  1        4 0.14891835E-02 0.12500687E+03</pdfrwt>
<pdfrwt beam="1">  1       -4 0.62091603E-01 0.12500687E+03</pdfrwt>
<totfact> 0.63272228E+03</totfact>
</mgrwt>
</event>
<event>
 5    1  0.3179758E-002  0.1249809E+03  0.7818608E-02  0.1235099E+00
         -4   -1    0    0    0  501 -0.00000000000E+00  0.00000000000E+00  0.10081770134E+04  0.10081778133E+04  0.12700000000E+01 0. -1.
          4   -1    0    0  501    0  0.00000000000E+00 -0.00000000000E+00 -0.37684580935E+01  0.39767042136E+01  0.12700000000E+01 0. -1.
         25    2    1    2    0    0  0.00000000000E+00  0.00000000000E+00  0.10044085553E+04  0.10121545176E+04  0.12498088401E+03 0.  0.
    9000005    1    3    3    0    0 -0.31531779131E+02 -0.25665860665E+01  0.93856215096E+03  0.93909570953E+03  0.10000000000E+01 0.  0.
    9000005    1    3    3    0    0  0.31531779131E+02  0.25665860665E+01  0.65846404387E+02  0.73058808024E+02  0.10000000000E+01 0.  0.
<mgrwt>
<rscale>  0 0.12498088E+03</rscale>
<asrwt>0</asrwt>
<pdfrwt beam="2">  1        4 0.59584307E-03 0.12498088E+03</pdfrwt>
<pdfrwt beam="1">  1       -4 0.15512028E+00 0.12498088E+03</pdfrwt>
<totfact> 0.30219036E+03</totfact>
</mgrwt>
</event>
<event>
 4    1  0.3179758E-002  0.1257985E+03  0.7818608E-02  0.1233827E+00
         -4   -1    0    0    0  501 -0.00000000000E+00  0.00000000000E+00  0.18363663416E+03  0.18364102566E+03  0.12700000000E+01 0.  1.
          4   -1    0    0  501    0  0.00000000000E+00 -0.00000000000E+00 -0.21520884155E+02  0.21558324490E+02  0.12700000000E+01 0.  1.
    9000005    1    1    2    0    0 -0.50304684729E+02  0.29739606405E+02  0.11897379422E+03  0.13255477813E+03  0.10000000000E+01 0.  0.
    9000005    1    1    2    0    0  0.50304684729E+02 -0.29739606405E+02  0.43141955787E+02  0.72644572020E+02  0.10000000000E+01 0.  0.
<mgrwt>
<rscale>  0 0.12579848E+03</rscale>
<asrwt>0</asrwt>
<pdfrwt beam="2">  1        4 0.33141232E-02 0.12579848E+03</pdfrwt>
<pdfrwt beam="1">  1       -4 0.28255007E-01 0.12579848E+03</pdfrwt>
<totfact> 0.87690278E+03</totfact>
</mgrwt>
</event>
<event>
 5    1  0.3179758E-002  0.1250076E+03  0.7818608E-02  0.1235057E+00
         -4   -1    0    0    0  501 -0.00000000000E+00  0.00000000000E+00  0.18789846120E+02  0.18832716671E+02  0.12700000000E+01 0. -1.
          4   -1    0    0  501    0  0.00000000000E+00 -0.00000000000E+00 -0.20763519461E+03  0.20763907855E+03  0.12700000000E+01 0. -1.
         25    2    1    2    0    0  0.00000000000E+00  0.00000000000E+00 -0.18884534849E+03  0.22647179522E+03  0.12500763330E+03 0.  0.
    9000005    1    3    3    0    0  0.21207947180E+02  0.44441112196E+02 -0.16414084318E+03  0.17137095984E+03  0.10000000000E+01 0.  0.
    9000005    1    3    3    0    0 -0.21207947180E+02 -0.44441112196E+02 -0.24704505310E+02  0.55100835379E+02  0.10000000000E+01 0.  0.
<mgrwt>
<rscale>  0 0.12500763E+03</rscale>
<asrwt>0</asrwt>
<pdfrwt beam="2">  1        4 0.31947471E-01 0.12500763E+03</pdfrwt>
<pdfrwt beam="1">  1       -4 0.28943422E-02 0.12500763E+03</pdfrwt>
<totfact> 0.85839693E+03</totfact>
</mgrwt>
</event>
<event>
 5    1  0.3179758E-002  0.1250022E+03  0.7818608E-02  0.1235066E+00
         -4   -1    0    0    0  501 -0.00000000000E+00  0.00000000000E+00  0.56116755734E+02  0.56131124825E+02  0.12700000000E+01 0.  1.
          4   -1    0    0  501    0  0.00000000000E+00 -0.00000000000E+00 -0.69582762986E+02  0.69594351817E+02  0.12700000000E+01 0.  1.
         25    2    1    2    0    0  0.00000000000E+00  0.00000000000E+00 -0.13466007252E+02  0.12572547664E+03  0.12500224848E+03 0.  0.
    9000005    1    3    3    0    0  0.34796300897E+02  0.28710571595E+02 -0.50230312260E+02  0.67521579863E+02  0.10000000000E+01 0.  0.
    9000005    1    3    3    0    0 -0.34796300897E+02 -0.28710571595E+02  0.36764305008E+02  0.58203896779E+02  0.10000000000E+01 0.  0.
<mgrwt>
<rscale>  0 0.12500225E+03</rscale>
<asrwt>0</asrwt>
<pdfrwt beam="2">  1        4 0.10707037E-01 0.12500225E+03</pdfrwt>
<pdfrwt beam="1">  1       -4 0.86353438E-02 0.12500225E+03</pdfrwt>
<totfact> 0.10436454E+04</totfact>
</mgrwt>
</event>
<event>
 5    1  0.3179758E-002  0.1249983E+03  0.7818608E-02  0.1235072E+00
          4   -1    0    0  501    0  0.00000000000E+00  0.00000000000E+00  0.17707188781E+02  0.17752674010E+02  0.12700000000E+01 0.  1.
         -4   -1    0    0    0  501 -0.00000000000E+00 -0.00000000000E+00 -0.22026609155E+03  0.22026975277E+03  0.12700000000E+01 0.  1.
         25    2    1    2    0    0  0.00000000000E+00  0.00000000000E+00 -0.20255890277E+03  0.23802242678E+03  0.12499826623E+03 0.  0.
    9000005    1    3    3    0    0  0.32649565656E+02 -0.46843284438E+02 -0.52924087270E+02  0.77860429281E+02  0.10000000000E+01 0.  0.
    9000005    1    3    3    0    0 -0.32649565656E+02  0.46843284438E+02 -0.14963481550E+03  0.16016199750E+03  0.10000000000E+01 0.  0.
<mgrwt>
<rscale>  0 0.12499827E+03</rscale>
<asrwt>0</asrwt>
<pdfrwt beam="1">  1        4 0.27279635E-02 0.12499827E+03</pdfrwt>
<pdfrwt beam="2">  1       -4 0.33890870E-01 0.12499827E+03</pdfrwt>
<totfact> 0.84096028E+03</totfact>
</mgrwt>
</event>
<event>
 5    1  0.3179758E-002  0.1249995E+03  0.7818608E-02  0.1235070E+00
          4   -1    0    0  501    0  0.00000000000E+00  0.00000000000E+00  0.15876593833E+02  0.15927307737E+02  0.12700000000E+01 0.  1.
         -4   -1    0    0    0  501 -0.00000000000E+00 -0.00000000000E+00 -0.24559177484E+03  0.24559505852E+03  0.12700000000E+01 0.  1.
         25    2    1    2    0    0  0.00000000000E+00  0.00000000000E+00 -0.22971518100E+03  0.26152236625E+03  0.12499953467E+03 0.  0.
    9000005    1    3    3    0    0  0.50820857688E+01 -0.61016623301E+02 -0.14101954694E+03  0.15374123888E+03  0.10000000000E+01 0.  0.
    9000005    1    3    3    0    0 -0.50820857688E+01  0.61016623301E+02 -0.88695634069E+02  0.10778112737E+03  0.10000000000E+01 0.  0.
<mgrwt>
<rscale>  0 0.12499953E+03</rscale>
<asrwt>0</asrwt>
<pdfrwt beam="1">  1        4 0.24467067E-02 0.12499953E+03</pdfrwt>
<pdfrwt beam="2">  1       -4 0.37787501E-01 0.12499953E+03</pdfrwt>
<totfact> 0.80693729E+03</totfact>
</mgrwt>
</event>
<event>
 5    1  0.3179758E-002  0.1250008E+03  0.7818608E-02  0.1235068E+00
          4   -1    0    0  501    0  0.00000000000E+00  0.00000000000E+00  0.11502708305E+03  0.11503409379E+03  0.12700000000E+01 0.  1.
         -4   -1    0    0    0  501 -0.00000000000E+00 -0.00000000000E+00 -0.33939929671E+02  0.33963682458E+02  0.12700000000E+01 0.  1.
         25    2    1    2    0    0  0.00000000000E+00  0.00000000000E+00  0.81087153379E+02  0.14899777625E+03  0.12500084354E+03 0.  0.
    9000005    1    3    3    0    0  0.60839610854E+01 -0.62120818715E+02  0.36910103735E+02  0.72521489629E+02  0.10000000000E+01 0.  0.
    9000005    1    3    3    0    0 -0.60839610854E+01  0.62120818715E+02  0.44177049644E+02  0.76476286622E+02  0.10000000000E+01 0.  0.
<mgrwt>
<rscale>  0 0.12500084E+03</rscale>
<asrwt>0</asrwt>
<pdfrwt beam="1">  1        4 0.17698841E-01 0.12500084E+03</pdfrwt>
<pdfrwt beam="2">  1       -4 0.52238940E-02 0.12500084E+03</pdfrwt>
<totfact> 0.99501963E+03</totfact>
</mgrwt>
</event>
<event>
 5    1  0.3179758E-002  0.1249992E+03  0.7818608E-02  0.1235070E+00
         -4   -1    0    0    0  501 -0.00000000000E+00  0.00000000000E+00  0.22711023813E+02  0.22746505284E+02  0.12700000000E+01 0. -1.
          4   -1    0    0  501    0  0.00000000000E+00 -0.00000000000E+00 -0.17182380530E+03  0.17182849870E+03  0.12700000000E+01 0. -1.
         25    2    1    2    0    0  0.00000000000E+00  0.00000000000E+00 -0.14911278148E+03  0.19457500399E+03  0.12499924230E+03 0.  0.
    9000005    1    3    3    0    0  0.51545858195E+02 -0.21233905977E+02 -0.11851092945E+03  0.13097211405E+03  0.10000000000E+01 0.  0.
    9000005    1    3    3    0    0 -0.51545858195E+02  0.21233905977E+02 -0.30601852032E+02  0.63602889934E+02  0.10000000000E+01 0.  0.
<mgrwt>
<rscale>  0 0.12499924E+03</rscale>
<asrwt>0</asrwt>
<pdfrwt beam="2">  1        4 0.26437521E-01 0.12499924E+03</pdfrwt>
<pdfrwt beam="1">  1       -4 0.34970941E-02 0.12499924E+03</pdfrwt>
<totfact> 0.91058862E+03</totfact>
</mgrwt>
</event>
<event>
 5    1  0.3179758E-002  0.1250039E+03  0.7818608E-02  0.1235063E+00
          4   -1    0    0  501    0  0.00000000000E+00  0.00000000000E+00  0.58149344983E+01  0.59520049747E+01  0.12700000000E+01 0.  1.
         -4   -1    0    0    0  501 -0.00000000000E+00 -0.00000000000E+00 -0.66384032205E+03  0.66384153688E+03  0.12700000000E+01 0.  1.
         25    2    1    2    0    0  0.00000000000E+00  0.00000000000E+00 -0.65802538755E+03  0.66979354185E+03  0.12500391210E+03 0.  0.
    9000005    1    3    3    0    0 -0.39071954232E+01 -0.61901691709E+02 -0.28806241571E+03  0.29466598201E+03  0.10000000000E+01 0.  0.
    9000005    1    3    3    0    0  0.39071954232E+01  0.61901691709E+02 -0.36996297185E+03  0.37512755984E+03  0.10000000000E+01 0.  0.
<mgrwt>
<rscale>  0 0.12500391E+03</rscale>
<asrwt>0</asrwt>
<pdfrwt beam="1">  1        4 0.90524316E-03 0.12500391E+03</pdfrwt>
<pdfrwt beam="2">  1       -4 0.10213986E+00 0.12500391E+03</pdfrwt>
<totfact> 0.44726107E+03</totfact>
</mgrwt>
</event>
<event>
 5    1  0.3179758E-002  0.1250039E+03  0.7818608E-02  0.1235063E+00
          4   -1    0    0  501    0  0.00000000000E+00  0.00000000000E+00  0.22879896654E+02  0.22915116646E+02  0.12700000000E+01 0. -1.
         -4   -1    0    0    0  501 -0.00000000000E+00 -0.00000000000E+00 -0.17057017527E+03  0.17057490317E+03  0.12700000000E+01 0. -1.
         25    2    1    2    0    0  0.00000000000E+00  0.00000000000E+00 -0.14769027862E+03  0.19349001982E+03  0.12500387742E+03 0.  0.
    9000005    1    3    3    0    0 -0.12980132554E+02 -0.24479028989E+01  0.20702057330E+02  0.24577454046E+02  0.10000000000E+01 0.  0.
    9000005    1    3    3    0    0  0.12980132554E+02  0.24479028989E+01 -0.16839233595E+03  0.16891256577E+03  0.10000000000E+01 0.  0.
<mgrwt>
<rscale>  0 0.12500388E+03</rscale>
<asrwt>0</asrwt>
<pdfrwt beam="1">  1        4 0.35230571E-02 0.12500388E+03</pdfrwt>
<pdfrwt beam="2">  1       -4 0.26244637E-01 0.12500388E+03</pdfrwt>
<totfact> 0.91235663E+03</totfact>
</mgrwt>
</event>
<event>
 5    1  0.3179758E-002  0.1250035E+03  0.7818608E-02  0.1235064E+00
         -4   -1    0    0    0  501 -0.00000000000E+00  0.00000000000E+00  0.50314781551E+02  0.50330807092E+02  0.12700000000E+01 0. -1.
          4   -1    0    0  501    0  0.00000000000E+00 -0.00000000000E+00 -0.77606935277E+02  0.77617326050E+02  0.12700000000E+01 0. -1.
         25    2    1    2    0    0  0.00000000000E+00  0.00000000000E+00 -0.27292153726E+02  0.12794813314E+03  0.12500345243E+03 0.  0.
    9000005    1    3    3    0    0  0.42562052250E+02  0.36657546066E+02 -0.41680357701E+02  0.69953957668E+02  0.10000000000E+01 0.  0.
    9000005    1    3    3    0    0 -0.42562052250E+02 -0.36657546066E+02  0.14388203975E+02  0.57994175474E+02  0.10000000000E+01 0.  0.
<mgrwt>
<rscale>  0 0.12500345E+03</rscale>
<asrwt>0</asrwt>
<pdfrwt beam="2">  1        4 0.11941561E-01 0.12500345E+03</pdfrwt>
<pdfrwt beam="1">  1       -4 0.77427676E-02 0.12500345E+03</pdfrwt>
<totfact> 0.10387798E+04</totfact>
</mgrwt>
</event>
<event>
 5    1  0.3179758E-002  0.1249997E+03  0.7818608E-02  0.1235070E+00
          4   -1    0    0  501    0  0.00000000000E+00  0.00000000000E+00  0.33802408213E+02  0.33826257567E+02  0.12700000000E+01 0. -1.
         -4   -1    0    0    0  501 -0.00000000000E+00 -0.00000000000E+00 -0.11549255458E+03  0.11549953707E+03  0.12700000000E+01 0. -1.
         25    2    1    2    0    0  0.00000000000E+00  0.00000000000E+00 -0.81690146366E+02  0.14932579464E+03  0.12499965172E+03 0.  0.
    9000005    1    3    3    0    0  0.30938343744E+02 -0.21286873332E+02 -0.10051479430E+03  0.10730580582E+03  0.10000000000E+01 0.  0.
    9000005    1    3    3    0    0 -0.30938343744E+02  0.21286873332E+02  0.18824647936E+02  0.42019988812E+02  0.10000000000E+01 0.  0.
<mgrwt>
<rscale>  0 0.12499965E+03</rscale>
<asrwt>0</asrwt>
<pdfrwt beam="1">  1        4 0.52027422E-02 0.12499965E+03</pdfrwt>
<pdfrwt beam="2">  1       -4 0.17770457E-01 0.12499965E+03</pdfrwt>
<totfact> 0.99439040E+03</totfact>
</mgrwt>
</event>
<event>
 5    1  0.3179758E-002  0.1249930E+03  0.7818608E-02  0.1235080E+00
          4   -1    0    0  501    0  0.00000000000E+00  0.00000000000E+00  0.21261342510E+03  0.21261721810E+03  0.12700000000E+01 0.  1.
         -4   -1    0    0    0  501 -0.00000000000E+00 -0.00000000000E+00 -0.18344586711E+02  0.18388495360E+02  0.12700000000E+01 0.  1.
         25    2    1    2    0    0  0.00000000000E+00  0.00000000000E+00  0.19426883839E+03  0.23100571346E+03  0.12499303213E+03 0.  0.
    9000005    1    3    3    0    0  0.38449063756E+02  0.87014236888E+01  0.75274232726E+01  0.40146075512E+02  0.10000000000E+01 0.  0.
    9000005    1    3    3    0    0 -0.38449063756E+02 -0.87014236888E+01  0.18674141511E+03  0.19085963795E+03  0.10000000000E+01 0.  0.
<mgrwt>
<rscale>  0 0.12499303E+03</rscale>
<asrwt>0</asrwt>
<pdfrwt beam="1">  1        4 0.32713428E-01 0.12499303E+03</pdfrwt>
<pdfrwt beam="2">  1       -4 0.28259134E-02 0.12499303E+03</pdfrwt>
<totfact> 0.85168644E+03</totfact>
</mgrwt>
</event>
<event>
 5    1  0.3179758E-002  0.1250008E+03  0.7818608E-02  0.1235068E+00
         -4   -1    0    0    0  501 -0.00000000000E+00  0.00000000000E+00  0.60200927910E+03  0.60201061870E+03  0.12700000000E+01 0. -1.
          4   -1    0    0  501    0  0.00000000000E+00 -0.00000000000E+00 -0.64252643624E+01  0.65495741944E+01  0.12700000000E+01 0. -1.
         25    2    1    2    0    0  0.00000000000E+00  0.00000000000E+00  0.59558401474E+03  0.60856019289E+03  0.12500075904E+03 0.  0.
    9000005    1    3    3    0    0  0.50321301130E+02 -0.18641579102E+02  0.14188325349E+03  0.15169574628E+03  0.10000000000E+01 0.  0.
    9000005    1    3    3    0    0 -0.50321301130E+02  0.18641579102E+02  0.45370076125E+03  0.45686444661E+03  0.10000000000E+01 0.  0.
<mgrwt>
<rscale>  0 0.12500076E+03</rscale>
<asrwt>0</asrwt>
<pdfrwt beam="2">  1        4 0.99816766E-03 0.12500076E+03</pdfrwt>
<pdfrwt beam="1">  1       -4 0.92626467E-01 0.12500076E+03</pdfrwt>
<totfact> 0.48330886E+03</totfact>
</mgrwt>
</event>
<event>
 5    1  0.3179758E-002  0.1249940E+03  0.7818608E-02  0.1235079E+00
          4   -1    0    0  501    0  0.00000000000E+00  0.00000000000E+00  0.29261116119E+03  0.29261391722E+03  0.12700000000E+01 0. -1.
         -4   -1    0    0    0  501 -0.00000000000E+00 -0.00000000000E+00 -0.13315316793E+02  0.13375745261E+02  0.12700000000E+01 0. -1.
         25    2    1    2    0    0  0.00000000000E+00  0.00000000000E+00  0.27929584440E+03  0.30598966248E+03  0.12499401926E+03 0.  0.
    9000005    1    3    3    0    0 -0.25322434193E+02  0.32612134118E+02  0.24822339620E+02  0.48186362276E+02  0.10000000000E+01 0.  0.
    9000005    1    3    3    0    0  0.25322434193E+02 -0.32612134118E+02  0.25447350478E+03  0.25780330021E+03  0.10000000000E+01 0.  0.
<mgrwt>
<rscale>  0 0.12499402E+03</rscale>
<asrwt>0</asrwt>
<pdfrwt beam="1">  1        4 0.45021962E-01 0.12499402E+03</pdfrwt>
<pdfrwt beam="2">  1       -4 0.20533706E-02 0.12499402E+03</pdfrwt>
<totfact> 0.74863531E+03</totfact>
</mgrwt>
</event>
<event>
 5    1  0.3179758E-002  0.1249903E+03  0.7818608E-02  0.1235085E+00
          4   -1    0    0  501    0  0.00000000000E+00  0.00000000000E+00  0.10291930919E+02  0.10369992384E+02  0.12700000000E+01 0.  1.
         -4   -1    0    0    0  501 -0.00000000000E+00 -0.00000000000E+00 -0.37797290995E+03  0.37797504357E+03  0.12700000000E+01 0.  1.
         25    2    1    2    0    0  0.00000000000E+00  0.00000000000E+00 -0.36768097903E+03  0.38834503595E+03  0.12499025803E+03 0.  0.
    9000005    1    3    3    0    0 -0.49284193536E+01 -0.39363013675E+02 -0.33836130644E+02  0.52149975071E+02  0.10000000000E+01 0.  0.
    9000005    1    3    3    0    0  0.49284193536E+01  0.39363013675E+02 -0.33384484839E+03  0.33619506088E+03  0.10000000000E+01 0.  0.
<mgrwt>
<rscale>  0 0.12499026E+03</rscale>
<asrwt>0</asrwt>
<pdfrwt beam="1">  1        4 0.15895431E-02 0.12499026E+03</pdfrwt>
<pdfrwt beam="2">  1       -4 0.58155837E-01 0.12499026E+03</pdfrwt>
<totfact> 0.65716489E+03</totfact>
</mgrwt>
</event>
<event>
 5    1  0.3179758E-002  0.1249999E+03  0.7818608E-02  0.1235069E+00
         -4   -1    0    0    0  501 -0.00000000000E+00  0.00000000000E+00  0.31492876603E+02  0.31518473578E+02  0.12700000000E+01 0. -1.
          4   -1    0    0  501    0  0.00000000000E+00 -0.00000000000E+00 -0.12395655524E+03  0.12396306097E+03  0.12700000000E+01 0. -1.
         25    2    1    2    0    0  0.00000000000E+00  0.00000000000E+00 -0.92463678632E+02  0.15548153455E+03  0.12499990288E+03 0.  0.
    9000005    1    3    3    0    0 -0.53597811579E+01 -0.40853841972E+02 -0.10467282850E+03  0.11249517627E+03  0.10000000000E+01 0.  0.
    9000005    1    3    3    0    0  0.53597811579E+01  0.40853841972E+02  0.12209149866E+02  0.42986358282E+02  0.10000000000E+01 0.  0.
<mgrwt>
<rscale>  0 0.12499990E+03</rscale>
<asrwt>0</asrwt>
<pdfrwt beam="2">  1        4 0.19072709E-01 0.12499990E+03</pdfrwt>
<pdfrwt beam="1">  1       -4 0.48475274E-02 0.12499990E+03</pdfrwt>
<totfact> 0.98221265E+03</totfact>
</mgrwt>
</event>
<event>
 5    1  0.3179758E-002  0.1250004E+03  0.7818608E-02  0.1235069E+00
         -4   -1    0    0    0  501 -0.00000000000E+00  0.00000000000E+00  0.22630314132E+03  0.22630670487E+03  0.12700000000E+01 0. -1.
          4   -1    0    0  501    0  0.00000000000E+00 -0.00000000000E+00 -0.17234186326E+02  0.17280916594E+02  0.12700000000E+01 0. -1.
         25    2    1    2    0    0  0.00000000000E+00  0.00000000000E+00  0.20906895499E+03  0.24358762147E+03  0.12500040556E+03 0.  0.
    9000005    1    3    3    0    0 -0.48969091846E+02 -0.25048602254E+02  0.46731092192E+02  0.72181711039E+02  0.10000000000E+01 0.  0.
    9000005    1    3    3    0    0  0.48969091846E+02  0.25048602254E+02  0.16233786280E+03  0.17140591043E+03  0.10000000000E+01 0.  0.
<mgrwt>
<rscale>  0 0.12500041E+03</rscale>
<asrwt>0</asrwt>
<pdfrwt beam="2">  1        4 0.26552821E-02 0.12500041E+03</pdfrwt>
<pdfrwt beam="1">  1       -4 0.34819736E-01 0.12500041E+03</pdfrwt>
<totfact> 0.83265186E+03</totfact>
</mgrwt>
</event>
<event>
 5    1  0.3179758E-002  0.1249977E+03  0.7818608E-02  0.1235073E+00
          4   -1    0    0  501    0  0.00000000000E+00  0.00000000000E+00  0.10998174788E+02  0.11071257772E+02  0.12700000000E+01 0. -1.
         -4   -1    0    0    0  501 -0.00000000000E+00 -0.00000000000E+00 -0.35390939260E+03  0.35391167128E+03  0.12700000000E+01 0. -1.
         25    2    1    2    0    0  0.00000000000E+00  0.00000000000E+00 -0.34291121781E+03  0.36498292905E+03  0.12499774078E+03 0.  0.
    9000005    1    3    3    0    0 -0.60280528190E+01 -0.50319203729E+02 -0.64698859604E+02  0.82190644959E+02  0.10000000000E+01 0.  0.
    9000005    1    3    3    0    0  0.60280528190E+01  0.50319203729E+02 -0.27821235821E+03  0.28279228409E+03  0.10000000000E+01 0.  0.
<mgrwt>
<rscale>  0 0.12499774E+03</rscale>
<asrwt>0</asrwt>
<pdfrwt beam="1">  1        4 0.16978242E-02 0.12499774E+03</pdfrwt>
<pdfrwt beam="2">  1       -4 0.54453387E-01 0.12499774E+03</pdfrwt>
<totfact> 0.68110510E+03</totfact>
</mgrwt>
</event>
<event>
 5    1  0.3179758E-002  0.1249898E+03  0.7818608E-02  0.1235085E+00
         -4   -1    0    0    0  501 -0.00000000000E+00  0.00000000000E+00  0.12413701255E+04  0.12413707751E+04  0.12700000000E+01 0. -1.
          4   -1    0    0  501    0  0.00000000000E+00 -0.00000000000E+00 -0.30173738987E+01  0.32737509442E+01  0.12700000000E+01 0. -1.
         25    2    1    2    0    0  0.00000000000E+00  0.00000000000E+00  0.12383527516E+04  0.12446445260E+04  0.12498983529E+03 0.  0.
    9000005    1    3    3    0    0 -0.11350578375E+02 -0.81792346196E+01  0.12256221626E+04  0.12257024194E+04  0.10000000000E+01 0.  0.
    9000005    1    3    3    0    0  0.11350578375E+02  0.81792346196E+01  0.12730588966E+02  0.18942106637E+02  0.10000000000E+01 0.  0.
<mgrwt>
<rscale>  0 0.12498984E+03</rscale>
<asrwt>0</asrwt>
<pdfrwt beam="2">  1        4 0.48398282E-03 0.12498984E+03</pdfrwt>
<pdfrwt beam="1">  1       -4 0.19099973E+00 0.12498984E+03</pdfrwt>
<totfact> 0.23578395E+03</totfact>
</mgrwt>
</event>
<event>
 5    1  0.3179758E-002  0.1249939E+03  0.7818608E-02  0.1235079E+00
         -4   -1    0    0    0  501 -0.00000000000E+00  0.00000000000E+00  0.42733291116E+03  0.42733479833E+03  0.12700000000E+01 0.  1.
          4   -1    0    0  501    0  0.00000000000E+00 -0.00000000000E+00 -0.90940693166E+01  0.91823197905E+01  0.12700000000E+01 0.  1.
         25    2    1    2    0    0  0.00000000000E+00  0.00000000000E+00  0.41823884185E+03  0.43651711812E+03  0.12499386218E+03 0.  0.
    9000005    1    3    3    0    0  0.60312631477E+02 -0.14883870008E+02  0.23273406175E+03  0.24088438431E+03  0.10000000000E+01 0.  0.
    9000005    1    3    3    0    0 -0.60312631477E+02  0.14883870008E+02  0.18550478009E+03  0.19563273381E+03  0.10000000000E+01 0.  0.
<mgrwt>
<rscale>  0 0.12499386E+03</rscale>
<asrwt>0</asrwt>
<pdfrwt beam="2">  1        4 0.14060211E-02 0.12499386E+03</pdfrwt>
<pdfrwt beam="1">  1       -4 0.65750465E-01 0.12499386E+03</pdfrwt>
<totfact> 0.61157933E+03</totfact>
</mgrwt>
</event>
<event>
 5    1  0.3179758E-002  0.1250034E+03  0.7818608E-02  0.1235064E+00
          4   -1    0    0  501    0  0.00000000000E+00  0.00000000000E+00  0.24058235872E+04  0.24058239224E+04  0.12700000000E+01 0. -1.
         -4   -1    0    0    0  501 -0.00000000000E+00 -0.00000000000E+00 -0.13750381313E+01  0.18717985636E+01  0.12700000000E+01 0. -1.
         25    2    1    2    0    0  0.00000000000E+00  0.00000000000E+00  0.24044485490E+04  0.24076957209E+04  0.12500343861E+03 0.  0.
    9000005    1    3    3    0    0 -0.14803693855E+02 -0.18376933271E+01  0.23711229632E+04  0.23711700979E+04  0.10000000000E+01 0.  0.
    9000005    1    3    3    0    0  0.14803693855E+02  0.18376933271E+01  0.33325585848E+02  0.36525623070E+02  0.10000000000E+01 0.  0.
<mgrwt>
<rscale>  0 0.12500344E+03</rscale>
<asrwt>0</asrwt>
<pdfrwt beam="1">  1        4 0.37016288E+00 0.12500344E+03</pdfrwt>
<pdfrwt beam="2">  1       -4 0.24978385E-03 0.12500344E+03</pdfrwt>
<totfact> 0.54353427E+02</totfact>
</mgrwt>
</event>
<event>
 5    1  0.3179758E-002  0.1250005E+03  0.7818608E-02  0.1235068E+00
         -4   -1    0    0    0  501 -0.00000000000E+00  0.00000000000E+00  0.38165627494E+03  0.38165838796E+03  0.12700000000E+01 0.  1.
          4   -1    0    0  501    0  0.00000000000E+00 -0.00000000000E+00 -0.10193537570E+02  0.10272346772E+02  0.12700000000E+01 0.  1.
         25    2    1    2    0    0  0.00000000000E+00  0.00000000000E+00  0.37146273737E+03  0.39193073473E+03  0.12500054230E+03 0.  0.
    9000005    1    3    3    0    0 -0.27798340713E+02  0.10754015476E+02  0.35794874469E+03  0.35918894808E+03  0.10000000000E+01 0.  0.
    9000005    1    3    3    0    0  0.27798340713E+02 -0.10754015476E+02  0.13513992679E+02  0.32741786656E+02  0.10000000000E+01 0.  0.
<mgrwt>
<rscale>  0 0.12500054E+03</rscale>
<asrwt>0</asrwt>
<pdfrwt beam="2">  1        4 0.15744616E-02 0.12500054E+03</pdfrwt>
<pdfrwt beam="1">  1       -4 0.58722565E-01 0.12500054E+03</pdfrwt>
<totfact> 0.65344458E+03</totfact>
</mgrwt>
</event>
<event>
 5    1  0.3179758E-002  0.1250009E+03  0.7818608E-02  0.1235068E+00
          4   -1    0    0  501    0  0.00000000000E+00  0.00000000000E+00  0.23338416426E+02  0.23372945498E+02  0.12700000000E+01 0. -1.
         -4   -1    0    0    0  501 -0.00000000000E+00 -0.00000000000E+00 -0.16721597945E+03  0.16722080218E+03  0.12700000000E+01 0. -1.
         25    2    1    2    0    0  0.00000000000E+00  0.00000000000E+00 -0.14387756302E+03  0.19059374768E+03  0.12500089405E+03 0.  0.
    9000005    1    3    3    0    0  0.43900364637E+02  0.20113059733E+02 -0.11455845681E+02  0.49638831447E+02  0.10000000000E+01 0.  0.
    9000005    1    3    3    0    0 -0.43900364637E+02 -0.20113059733E+02 -0.13242171734E+03  0.14095491623E+03  0.10000000000E+01 0.  0.
<mgrwt>
<rscale>  0 0.12500089E+03</rscale>
<asrwt>0</asrwt>
<pdfrwt beam="1">  1        4 0.35935528E-02 0.12500089E+03</pdfrwt>
<pdfrwt beam="2">  1       -4 0.25728562E-01 0.12500089E+03</pdfrwt>
<totfact> 0.91742270E+03</totfact>
</mgrwt>
</event>
<event>
 5    1  0.3179758E-002  0.1250024E+03  0.7818608E-02  0.1235066E+00
         -4   -1    0    0    0  501 -0.00000000000E+00  0.00000000000E+00  0.23922401169E+03  0.23922738277E+03  0.12700000000E+01 0.  1.
          4   -1    0    0  501    0  0.00000000000E+00 -0.00000000000E+00 -0.16301274486E+02  0.16350671236E+02  0.12700000000E+01 0.  1.
         25    2    1    2    0    0  0.00000000000E+00  0.00000000000E+00  0.22292273720E+03  0.25557805401E+03  0.12500237970E+03 0.  0.
    9000005    1    3    3    0    0 -0.44908681598E+02 -0.38840985728E+02  0.71605747863E+02  0.93025775902E+02  0.10000000000E+01 0.  0.
    9000005    1    3    3    0    0  0.44908681598E+02  0.38840985728E+02  0.15131698934E+03  0.16255227811E+03  0.10000000000E+01 0.  0.
<mgrwt>
<rscale>  0 0.12500238E+03</rscale>
<asrwt>0</asrwt>
<pdfrwt beam="2">  1        4 0.25119475E-02 0.12500238E+03</pdfrwt>
<pdfrwt beam="1">  1       -4 0.36807752E-01 0.12500238E+03</pdfrwt>
<totfact> 0.81526331E+03</totfact>
</mgrwt>
</event>
<event>
 4    1  0.3179758E-002  0.1250942E+03  0.7818608E-02  0.1234922E+00
          4   -1    0    0  501    0  0.00000000000E+00  0.00000000000E+00  0.27044851874E+02  0.27074654437E+02  0.12700000000E+01 0.  1.
         -4   -1    0    0    0  501 -0.00000000000E+00 -0.00000000000E+00 -0.14454142098E+03  0.14454700025E+03  0.12700000000E+01 0.  1.
    9000005    1    1    2    0    0  0.35575251177E+02 -0.49039786382E+02 -0.80030516087E+02  0.10038118673E+03  0.10000000000E+01 0.  0.
    9000005    1    1    2    0    0 -0.35575251177E+02  0.49039786382E+02 -0.37466053023E+02  0.71240467951E+02  0.10000000000E+01 0.  0.
<mgrwt>
<rscale>  0 0.12509416E+03</rscale>
<asrwt>0</asrwt>
<pdfrwt beam="1">  1        4 0.41634682E-02 0.12509416E+03</pdfrwt>
<pdfrwt beam="2">  1       -4 0.22239863E-01 0.12509416E+03</pdfrwt>
<totfact> 0.94946472E+03</totfact>
</mgrwt>
</event>
<event>
 5    1  0.3179758E-002  0.1249981E+03  0.7818608E-02  0.1235072E+00
         -4   -1    0    0    0  501 -0.00000000000E+00  0.00000000000E+00  0.60152707462E+02  0.60166112680E+02  0.12700000000E+01 0.  1.
          4   -1    0    0  501    0  0.00000000000E+00 -0.00000000000E+00 -0.64910071267E+02  0.64922494190E+02  0.12700000000E+01 0.  1.
         25    2    1    2    0    0  0.00000000000E+00  0.00000000000E+00 -0.47573638047E+01  0.12508860687E+03  0.12499810822E+03 0.  0.
    9000005    1    3    3    0    0 -0.24125973428E+01 -0.13010467367E+02 -0.63496943742E+02  0.64868750193E+02  0.10000000000E+01 0.  0.
    9000005    1    3    3    0    0  0.24125973428E+01  0.13010467367E+02  0.58739579937E+02  0.60219856678E+02  0.10000000000E+01 0.  0.
<mgrwt>
<rscale>  0 0.12499811E+03</rscale>
<asrwt>0</asrwt>
<pdfrwt beam="2">  1        4 0.99881516E-02 0.12499811E+03</pdfrwt>
<pdfrwt beam="1">  1       -4 0.92562495E-02 0.12499811E+03</pdfrwt>
<totfact> 0.10451385E+04</totfact>
</mgrwt>
</event>
<event>
 5    1  0.3179758E-002  0.1249996E+03  0.7818608E-02  0.1235070E+00
         -4   -1    0    0    0  501 -0.00000000000E+00  0.00000000000E+00  0.55381479131E+02  0.55396038944E+02  0.12700000000E+01 0.  1.
          4   -1    0    0  501    0  0.00000000000E+00 -0.00000000000E+00 -0.70503520089E+02  0.70514957597E+02  0.12700000000E+01 0.  1.
         25    2    1    2    0    0  0.00000000000E+00  0.00000000000E+00 -0.15122040958E+02  0.12591099654E+03  0.12499961171E+03 0.  0.
    9000005    1    3    3    0    0  0.49392574201E+02 -0.34030617646E+02 -0.25225024059E+02  0.65076963377E+02  0.10000000000E+01 0.  0.
    9000005    1    3    3    0    0 -0.49392574201E+02  0.34030617646E+02  0.10102983101E+02  0.60834033165E+02  0.10000000000E+01 0.  0.
<mgrwt>
<rscale>  0 0.12499961E+03</rscale>
<asrwt>0</asrwt>
<pdfrwt beam="2">  1        4 0.10848695E-01 0.12499961E+03</pdfrwt>
<pdfrwt beam="1">  1       -4 0.85222273E-02 0.12499961E+03</pdfrwt>
<totfact> 0.10433000E+04</totfact>
</mgrwt>
</event>
<event>
 5    1  0.3179758E-002  0.1250013E+03  0.7818608E-02  0.1235067E+00
         -4   -1    0    0    0  501 -0.00000000000E+00  0.00000000000E+00  0.85039103079E+02  0.85048585835E+02  0.12700000000E+01 0. -1.
          4   -1    0    0  501    0  0.00000000000E+00 -0.00000000000E+00 -0.45914903723E+02  0.45932464379E+02  0.12700000000E+01 0. -1.
         25    2    1    2    0    0  0.00000000000E+00  0.00000000000E+00  0.39124199356E+02  0.13098105021E+03  0.12500133015E+03 0.  0.
    9000005    1    3    3    0    0 -0.21807503688E+02  0.43112706365E+02  0.61094811074E+02  0.77896396626E+02  0.10000000000E+01 0.  0.
    9000005    1    3    3    0    0  0.21807503688E+02 -0.43112706365E+02 -0.21970611718E+02  0.53084653587E+02  0.10000000000E+01 0.  0.
<mgrwt>
<rscale>  0 0.12500133E+03</rscale>
<asrwt>0</asrwt>
<pdfrwt beam="2">  1        4 0.70659118E-02 0.12500133E+03</pdfrwt>
<pdfrwt beam="1">  1       -4 0.13085019E-01 0.12500133E+03</pdfrwt>
<totfact> 0.10323186E+04</totfact>
</mgrwt>
</event>
<event>
 5    1  0.3179758E-002  0.1249995E+03  0.7818608E-02  0.1235070E+00
          4   -1    0    0  501    0  0.00000000000E+00  0.00000000000E+00  0.68223378446E+01  0.69395384332E+01  0.12700000000E+01 0.  1.
         -4   -1    0    0    0  501 -0.00000000000E+00 -0.00000000000E+00 -0.56756888180E+03  0.56757030268E+03  0.12700000000E+01 0.  1.
         25    2    1    2    0    0  0.00000000000E+00  0.00000000000E+00 -0.56074654395E+03  0.57450984111E+03  0.12499948392E+03 0.  0.
    9000005    1    3    3    0    0 -0.53812652293E+01  0.51042594113E+02 -0.44422356313E+03  0.44717991734E+03  0.10000000000E+01 0.  0.
    9000005    1    3    3    0    0  0.53812652293E+01 -0.51042594113E+02 -0.11652298083E+03  0.12732992378E+03  0.10000000000E+01 0.  0.
<mgrwt>
<rscale>  0 0.12499948E+03</rscale>
<asrwt>0</asrwt>
<pdfrwt beam="1">  1        4 0.10587156E-02 0.12499948E+03</pdfrwt>
<pdfrwt beam="2">  1       -4 0.87327377E-01 0.12499948E+03</pdfrwt>
<totfact> 0.50517782E+03</totfact>
</mgrwt>
</event>
<event>
 5    1  0.3179758E-002  0.1249947E+03  0.7818608E-02  0.1235078E+00
         -4   -1    0    0    0  501 -0.00000000000E+00  0.00000000000E+00  0.16730665149E+03  0.16731147161E+03  0.12700000000E+01 0.  1.
          4   -1    0    0  501    0  0.00000000000E+00 -0.00000000000E+00 -0.23323436587E+02  0.23357987803E+02  0.12700000000E+01 0.  1.
         25    2    1    2    0    0  0.00000000000E+00  0.00000000000E+00  0.14398321490E+03  0.19066945941E+03  0.12499470621E+03 0.  0.
    9000005    1    3    3    0    0  0.23397275979E+02 -0.52569936136E+02  0.34817380179E+02  0.67262773293E+02  0.10000000000E+01 0.  0.
    9000005    1    3    3    0    0 -0.23397275979E+02  0.52569936136E+02  0.10916583472E+03  0.12340668612E+03  0.10000000000E+01 0.  0.
<mgrwt>
<rscale>  0 0.12499471E+03</rscale>
<asrwt>0</asrwt>
<pdfrwt beam="2">  1        4 0.35912495E-02 0.12499471E+03</pdfrwt>
<pdfrwt beam="1">  1       -4 0.25742514E-01 0.12499471E+03</pdfrwt>
<totfact> 0.91741838E+03</totfact>
</mgrwt>
</event>
<event>
 5    1  0.3179758E-002  0.1250000E+03  0.7818608E-02  0.1235069E+00
         -4   -1    0    0    0  501 -0.00000000000E+00  0.00000000000E+00  0.74559429966E+02  0.74570245385E+02  0.12700000000E+01 0.  1.
          4   -1    0    0  501    0  0.00000000000E+00 -0.00000000000E+00 -0.52368798703E+02  0.52384195876E+02  0.12700000000E+01 0.  1.
         25    2    1    2    0    0  0.00000000000E+00  0.00000000000E+00  0.22190631263E+02  0.12695444126E+03  0.12500002416E+03 0.  0.
    9000005    1    3    3    0    0 -0.36864223333E+02 -0.30980733266E+02 -0.29358023826E+02  0.56406297154E+02  0.10000000000E+01 0.  0.
    9000005    1    3    3    0    0  0.36864223333E+02  0.30980733266E+02  0.51548655089E+02  0.70548144108E+02  0.10000000000E+01 0.  0.
<mgrwt>
<rscale>  0 0.12500002E+03</rscale>
<asrwt>0</asrwt>
<pdfrwt beam="2">  1        4 0.80587546E-02 0.12500002E+03</pdfrwt>
<pdfrwt beam="1">  1       -4 0.11472698E-01 0.12500002E+03</pdfrwt>
<totfact> 0.10410130E+04</totfact>
</mgrwt>
</event>
<event>
 5    1  0.3179758E-002  0.1249989E+03  0.7818608E-02  0.1235071E+00
         -4   -1    0    0    0  501 -0.00000000000E+00  0.00000000000E+00  0.41595334437E+02  0.41614717913E+02  0.12700000000E+01 0.  1.
          4   -1    0    0  501    0  0.00000000000E+00 -0.00000000000E+00 -0.93863502353E+02  0.93872093691E+02  0.12700000000E+01 0.  1.
         25    2    1    2    0    0  0.00000000000E+00  0.00000000000E+00 -0.52268167916E+02  0.13548681160E+03  0.12499885896E+03 0.  0.
    9000005    1    3    3    0    0  0.45559797762E+02  0.41034026297E+02 -0.13051030277E+02  0.62696219005E+02  0.10000000000E+01 0.  0.
    9000005    1    3    3    0    0 -0.45559797762E+02 -0.41034026297E+02 -0.39217137639E+02  0.72790592599E+02  0.10000000000E+01 0.  0.
<mgrwt>
<rscale>  0 0.12499886E+03</rscale>
<asrwt>0</asrwt>
<pdfrwt beam="2">  1        4 0.14442691E-01 0.12499886E+03</pdfrwt>
<pdfrwt beam="1">  1       -4 0.64014341E-02 0.12499886E+03</pdfrwt>
<totfact> 0.10228084E+04</totfact>
</mgrwt>
</event>
<event>
 5    1  0.3179758E-002  0.1249949E+03  0.7818608E-02  0.1235077E+00
          4   -1    0    0  501    0  0.00000000000E+00  0.00000000000E+00  0.13039022955E+03  0.13039641430E+03  0.12700000000E+01 0.  1.
         -4   -1    0    0    0  501 -0.00000000000E+00 -0.00000000000E+00 -0.29935350336E+02  0.29962277946E+02  0.12700000000E+01 0.  1.
         25    2    1    2    0    0  0.00000000000E+00  0.00000000000E+00  0.10045487921E+03  0.16035869224E+03  0.12499490958E+03 0.  0.
    9000005    1    3    3    0    0  0.24928042946E+02 -0.36623625091E+02 -0.63119380953E+01  0.44760895907E+02  0.10000000000E+01 0.  0.
    9000005    1    3    3    0    0 -0.24928042946E+02  0.36623625091E+02  0.10676681731E+03  0.11559779633E+03  0.10000000000E+01 0.  0.
<mgrwt>
<rscale>  0 0.12499491E+03</rscale>
<asrwt>0</asrwt>
<pdfrwt beam="1">  1        4 0.20062582E-01 0.12499491E+03</pdfrwt>
<pdfrwt beam="2">  1       -4 0.46079857E-02 0.12499491E+03</pdfrwt>
<totfact> 0.97284807E+03</totfact>
</mgrwt>
</event>
<event>
 5    1  0.3179758E-002  0.1249999E+03  0.7818608E-02  0.1235069E+00
          4   -1    0    0  501    0  0.00000000000E+00  0.00000000000E+00  0.25217002874E+02  0.25248963027E+02  0.12700000000E+01 0. -1.
         -4   -1    0    0    0  501 -0.00000000000E+00 -0.00000000000E+00 -0.15477250591E+03  0.15477771637E+03  0.12700000000E+01 0. -1.
         25    2    1    2    0    0  0.00000000000E+00  0.00000000000E+00 -0.12955550303E+03  0.18002667940E+03  0.12499990772E+03 0.  0.
    9000005    1    3    3    0    0 -0.60329638209E+02  0.79428025956E+01 -0.44283601791E+02  0.75264804172E+02  0.10000000000E+01 0.  0.
    9000005    1    3    3    0    0  0.60329638209E+02 -0.79428025956E+01 -0.85271901243E+02  0.10476187523E+03  0.10000000000E+01 0.  0.
<mgrwt>
<rscale>  0 0.12499991E+03</rscale>
<asrwt>0</asrwt>
<pdfrwt beam="1">  1        4 0.38823983E-02 0.12499991E+03</pdfrwt>
<pdfrwt beam="2">  1       -4 0.23814013E-01 0.12499991E+03</pdfrwt>
<totfact> 0.93612395E+03</totfact>
</mgrwt>
</event>
<event>
 5    1  0.3179758E-002  0.1249969E+03  0.7818608E-02  0.1235074E+00
         -4   -1    0    0    0  501 -0.00000000000E+00  0.00000000000E+00  0.31486122284E+02  0.31511724746E+02  0.12700000000E+01 0. -1.
          4   -1    0    0  501    0  0.00000000000E+00 -0.00000000000E+00 -0.12397716946E+03  0.12398367411E+03  0.12700000000E+01 0. -1.
         25    2    1    2    0    0  0.00000000000E+00  0.00000000000E+00 -0.92491047172E+02  0.15549539886E+03  0.12499690100E+03 0.  0.
    9000005    1    3    3    0    0  0.64145663607E+01  0.43667931387E+02  0.87865765376E+01  0.45013762567E+02  0.10000000000E+01 0.  0.
    9000005    1    3    3    0    0 -0.64145663607E+01 -0.43667931387E+02 -0.10127762371E+03  0.11048163629E+03  0.10000000000E+01 0.  0.
<mgrwt>
<rscale>  0 0.12499690E+03</rscale>
<asrwt>0</asrwt>
<pdfrwt beam="2">  1        4 0.19075880E-01 0.12499690E+03</pdfrwt>
<pdfrwt beam="1">  1       -4 0.48464886E-02 0.12499690E+03</pdfrwt>
<totfact> 0.98225179E+03</totfact>
</mgrwt>
</event>
<event>
 5    1  0.3179758E-002  0.1250007E+03  0.7818608E-02  0.1235068E+00
          4   -1    0    0  501    0  0.00000000000E+00  0.00000000000E+00  0.38533183508E+01  0.40572111497E+01  0.12700000000E+01 0. -1.
         -4   -1    0    0    0  501 -0.00000000000E+00 -0.00000000000E+00 -0.98741445819E+03  0.98741527492E+03  0.12700000000E+01 0. -1.
         25    2    1    2    0    0  0.00000000000E+00  0.00000000000E+00 -0.98356113984E+03  0.99147248607E+03  0.12500069931E+03 0.  0.
    9000005    1    3    3    0    0  0.56807125557E+02 -0.22623109180E+02 -0.59410891136E+03  0.59724806667E+03  0.10000000000E+01 0.  0.
    9000005    1    3    3    0    0 -0.56807125557E+02  0.22623109180E+02 -0.38945222848E+03  0.39422441940E+03  0.10000000000E+01 0.  0.
<mgrwt>
<rscale>  0 0.12500070E+03</rscale>
<asrwt>0</asrwt>
<pdfrwt beam="1">  1        4 0.60856588E-03 0.12500070E+03</pdfrwt>
<pdfrwt beam="2">  1       -4 0.15192547E+00 0.12500070E+03</pdfrwt>
<totfact> 0.30887296E+03</totfact>
</mgrwt>
</event>
<event>
 5    1  0.3179758E-002  0.1249959E+03  0.7818608E-02  0.1235076E+00
          4   -1    0    0  501    0  0.00000000000E+00  0.00000000000E+00  0.18706517766E+02  0.18749578847E+02  0.12700000000E+01 0. -1.
         -4   -1    0    0    0  501 -0.00000000000E+00 -0.00000000000E+00 -0.20851892289E+03  0.20852279037E+03  0.12700000000E+01 0. -1.
         25    2    1    2    0    0  0.00000000000E+00  0.00000000000E+00 -0.18981240513E+03  0.22727236922E+03  0.12499592262E+03 0.  0.
    9000005    1    3    3    0    0  0.41564271102E+02  0.15001871419E+02 -0.17524580430E+03  0.18073388366E+03  0.10000000000E+01 0.  0.
    9000005    1    3    3    0    0 -0.41564271102E+02 -0.15001871419E+02 -0.14566600825E+02  0.46538485557E+02  0.10000000000E+01 0.  0.
<mgrwt>
<rscale>  0 0.12499592E+03</rscale>
<asrwt>0</asrwt>
<pdfrwt beam="1">  1        4 0.28815358E-02 0.12499592E+03</pdfrwt>
<pdfrwt beam="2">  1       -4 0.32083443E-01 0.12499592E+03</pdfrwt>
<totfact> 0.85737996E+03</totfact>
</mgrwt>
</event>
<event>
 5    1  0.3179758E-002  0.1249901E+03  0.7818608E-02  0.1235085E+00
         -4   -1    0    0    0  501 -0.00000000000E+00  0.00000000000E+00  0.73879451492E+03  0.73879560650E+03  0.12700000000E+01 0.  1.
          4   -1    0    0  501    0  0.00000000000E+00 -0.00000000000E+00 -0.52091068613E+01  0.53616876347E+01  0.12700000000E+01 0.  1.
         25    2    1    2    0    0  0.00000000000E+00  0.00000000000E+00  0.73358540806E+03  0.74415729413E+03  0.12499010957E+03 0.  0.
    9000005    1    3    3    0    0  0.98370112913E+01 -0.23377279149E+02  0.70680059040E+03  0.70725620432E+03  0.10000000000E+01 0.  0.
    9000005    1    3    3    0    0 -0.98370112913E+01  0.23377279149E+02  0.26784817664E+02  0.36901089806E+02  0.10000000000E+01 0.  0.
<mgrwt>
<rscale>  0 0.12499011E+03</rscale>
<asrwt>0</asrwt>
<pdfrwt beam="2">  1        4 0.81322255E-03 0.12499011E+03</pdfrwt>
<pdfrwt beam="1">  1       -4 0.11367244E+00 0.12499011E+03</pdfrwt>
<totfact> 0.40864022E+03</totfact>
</mgrwt>
</event>
<event>
 5    1  0.3179758E-002  0.1249967E+03  0.7818608E-02  0.1235074E+00
         -4   -1    0    0    0  501 -0.00000000000E+00  0.00000000000E+00  0.38350024074E+03  0.38350234360E+03  0.12700000000E+01 0. -1.
          4   -1    0    0  501    0  0.00000000000E+00 -0.00000000000E+00 -0.10143516240E+02  0.10222711075E+02  0.12700000000E+01 0. -1.
         25    2    1    2    0    0  0.00000000000E+00  0.00000000000E+00  0.37335672450E+03  0.39372505467E+03  0.12499669976E+03 0.  0.
    9000005    1    3    3    0    0 -0.10862851660E+02  0.60931319091E+02  0.21385084099E+03  0.22262930935E+03  0.10000000000E+01 0.  0.
    9000005    1    3    3    0    0  0.10862851660E+02 -0.60931319091E+02  0.15950588351E+03  0.17109574532E+03  0.10000000000E+01 0.  0.
<mgrwt>
<rscale>  0 0.12499670E+03</rscale>
<asrwt>0</asrwt>
<pdfrwt beam="2">  1        4 0.15667947E-02 0.12499670E+03</pdfrwt>
<pdfrwt beam="1">  1       -4 0.59006287E-01 0.12499670E+03</pdfrwt>
<totfact> 0.65172442E+03</totfact>
</mgrwt>
</event>
<event>
 5    1  0.3179758E-002  0.1249970E+03  0.7818608E-02  0.1235074E+00
         -4   -1    0    0    0  501 -0.00000000000E+00  0.00000000000E+00  0.50168321620E+02  0.50184393930E+02  0.12700000000E+01 0. -1.
          4   -1    0    0  501    0  0.00000000000E+00 -0.00000000000E+00 -0.77825455297E+02  0.77835816898E+02  0.12700000000E+01 0. -1.
         25    2    1    2    0    0  0.00000000000E+00  0.00000000000E+00 -0.27657133677E+02  0.12802021083E+03  0.12499702931E+03 0.  0.
    9000005    1    3    3    0    0  0.24547585839E+02 -0.49454567736E+02 -0.43806372768E+02  0.70486428024E+02  0.10000000000E+01 0.  0.
    9000005    1    3    3    0    0 -0.24547585839E+02  0.49454567736E+02  0.16149239091E+02  0.57533782804E+02  0.10000000000E+01 0.  0.
<mgrwt>
<rscale>  0 0.12499703E+03</rscale>
<asrwt>0</asrwt>
<pdfrwt beam="2">  1        4 0.11975180E-01 0.12499703E+03</pdfrwt>
<pdfrwt beam="1">  1       -4 0.77202368E-02 0.12499703E+03</pdfrwt>
<totfact> 0.10387748E+04</totfact>
</mgrwt>
</event>
<event>
 5    1  0.3179758E-002  0.1250031E+03  0.7818608E-02  0.1235064E+00
          4   -1    0    0  501    0  0.00000000000E+00  0.00000000000E+00  0.61632305972E+02  0.61645389441E+02  0.12700000000E+01 0. -1.
         -4   -1    0    0    0  501 -0.00000000000E+00 -0.00000000000E+00 -0.63356912931E+02  0.63369640335E+02  0.12700000000E+01 0. -1.
         25    2    1    2    0    0  0.00000000000E+00  0.00000000000E+00 -0.17246069593E+01  0.12501502978E+03  0.12500313356E+03 0.  0.
    9000005    1    3    3    0    0  0.43945570467E+02  0.28786171377E+02 -0.34712075704E+02  0.62974479163E+02  0.10000000000E+01 0.  0.
    9000005    1    3    3    0    0 -0.43945570467E+02 -0.28786171377E+02  0.32987468744E+02  0.62040550613E+02  0.10000000000E+01 0.  0.
<mgrwt>
<rscale>  0 0.12500313E+03</rscale>
<asrwt>0</asrwt>
<pdfrwt beam="1">  1        4 0.94838787E-02 0.12500313E+03</pdfrwt>
<pdfrwt beam="2">  1       -4 0.97492028E-02 0.12500313E+03</pdfrwt>
<totfact> 0.10451796E+04</totfact>
</mgrwt>
</event>
<event>
 5    1  0.3179758E-002  0.1250012E+03  0.7818608E-02  0.1235067E+00
          4   -1    0    0  501    0  0.00000000000E+00  0.00000000000E+00  0.12727957492E+01  0.17980292042E+01  0.12700000000E+01 0.  1.
         -4   -1    0    0    0  501 -0.00000000000E+00 -0.00000000000E+00 -0.25436281559E+04  0.25436284730E+04  0.12700000000E+01 0.  1.
         25    2    1    2    0    0  0.00000000000E+00  0.00000000000E+00 -0.25423553602E+04  0.25454265022E+04  0.12500120226E+03 0.  0.
    9000005    1    3    3    0    0 -0.25113283114E+01 -0.26241670048E+02 -0.11739110926E+03  0.12031876226E+03  0.10000000000E+01 0.  0.
    9000005    1    3    3    0    0  0.25113283114E+01  0.26241670048E+02 -0.24249642509E+04  0.24251077399E+04  0.10000000000E+01 0.  0.
<mgrwt>
<rscale>  0 0.12500120E+03</rscale>
<asrwt>0</asrwt>
<pdfrwt beam="1">  1        4 0.23624373E-03 0.12500120E+03</pdfrwt>
<pdfrwt beam="2">  1       -4 0.39136446E+00 0.12500120E+03</pdfrwt>
<totfact> 0.43222492E+02</totfact>
</mgrwt>
</event>
<event>
 5    1  0.3179758E-002  0.1249962E+03  0.7818608E-02  0.1235075E+00
         -4   -1    0    0    0  501 -0.00000000000E+00  0.00000000000E+00  0.35772673733E+02  0.35795210378E+02  0.12700000000E+01 0.  1.
          4   -1    0    0  501    0  0.00000000000E+00 -0.00000000000E+00 -0.10912923395E+03  0.10913662356E+03  0.12700000000E+01 0.  1.
         25    2    1    2    0    0  0.00000000000E+00  0.00000000000E+00 -0.73356560218E+02  0.14493183394E+03  0.12499620619E+03 0.  0.
    9000005    1    3    3    0    0  0.25229729222E+02 -0.24871075789E+02 -0.96365584314E+02  0.10267636285E+03  0.10000000000E+01 0.  0.
    9000005    1    3    3    0    0 -0.25229729222E+02  0.24871075789E+02  0.23009024095E+02  0.42255471094E+02  0.10000000000E+01 0.  0.
<mgrwt>
<rscale>  0 0.12499621E+03</rscale>
<asrwt>0</asrwt>
<pdfrwt beam="2">  1        4 0.16791415E-01 0.12499621E+03</pdfrwt>
<pdfrwt beam="1">  1       -4 0.55057903E-02 0.12499621E+03</pdfrwt>
<totfact> 0.10033231E+04</totfact>
</mgrwt>
</event>
<event>
 5    1  0.3179758E-002  0.1250042E+03  0.7818608E-02  0.1235063E+00
         -4   -1    0    0    0  501 -0.00000000000E+00  0.00000000000E+00  0.11464583264E+02  0.11534711501E+02  0.12700000000E+01 0. -1.
          4   -1    0    0  501    0  0.00000000000E+00 -0.00000000000E+00 -0.33963607944E+03  0.33963845389E+03  0.12700000000E+01 0. -1.
         25    2    1    2    0    0  0.00000000000E+00  0.00000000000E+00 -0.32817149618E+03  0.35117316539E+03  0.12500424467E+03 0.  0.
    9000005    1    3    3    0    0  0.41380623402E+02 -0.45965580438E+02 -0.13890775168E+03  0.15205773264E+03  0.10000000000E+01 0.  0.
    9000005    1    3    3    0    0 -0.41380623402E+02  0.45965580438E+02 -0.18926374450E+03  0.19911543275E+03  0.10000000000E+01 0.  0.
<mgrwt>
<rscale>  0 0.12500424E+03</rscale>
<asrwt>0</asrwt>
<pdfrwt beam="2">  1        4 0.52257274E-01 0.12500424E+03</pdfrwt>
<pdfrwt beam="1">  1       -4 0.17693594E-02 0.12500424E+03</pdfrwt>
<totfact> 0.69589153E+03</totfact>
</mgrwt>
</event>
<event>
 5    1  0.3179758E-002  0.1250023E+03  0.7818608E-02  0.1235066E+00
         -4   -1    0    0    0  501 -0.00000000000E+00  0.00000000000E+00  0.16212186297E+03  0.16212683724E+03  0.12700000000E+01 0.  1.
          4   -1    0    0  501    0  0.00000000000E+00 -0.00000000000E+00 -0.24073335691E+02  0.24106812134E+02  0.12700000000E+01 0.  1.
         25    2    1    2    0    0  0.00000000000E+00  0.00000000000E+00  0.13804852728E+03  0.18623364938E+03  0.12500230508E+03 0.  0.
    9000005    1    3    3    0    0  0.19630033859E+02 -0.42221638343E+02  0.69246815281E+01  0.47084564222E+02  0.10000000000E+01 0.  0.
    9000005    1    3    3    0    0 -0.19630033859E+02  0.42221638343E+02  0.13112384575E+03  0.13914908515E+03  0.10000000000E+01 0.  0.
<mgrwt>
<rscale>  0 0.12500231E+03</rscale>
<asrwt>0</asrwt>
<pdfrwt beam="2">  1        4 0.37065479E-02 0.12500231E+03</pdfrwt>
<pdfrwt beam="1">  1       -4 0.24944782E-01 0.12500231E+03</pdfrwt>
<totfact> 0.92502031E+03</totfact>
</mgrwt>
</event>
<event>
 5    1  0.3179758E-002  0.1249982E+03  0.7818608E-02  0.1235072E+00
         -4   -1    0    0    0  501 -0.00000000000E+00  0.00000000000E+00  0.39355222245E+02  0.39375708476E+02  0.12700000000E+01 0.  1.
          4   -1    0    0  501    0  0.00000000000E+00 -0.00000000000E+00 -0.99202957614E+02  0.99211086575E+02  0.12700000000E+01 0.  1.
         25    2    1    2    0    0  0.00000000000E+00  0.00000000000E+00 -0.59847735368E+02  0.13858679505E+03  0.12499819332E+03 0.  0.
    9000005    1    3    3    0    0 -0.80062809912E+01  0.61835441074E+02 -0.34550628541E+02  0.71291431749E+02  0.10000000000E+01 0.  0.
    9000005    1    3    3    0    0  0.80062809912E+01 -0.61835441074E+02 -0.25297106827E+02  0.67295363302E+02  0.10000000000E+01 0.  0.
<mgrwt>
<rscale>  0 0.12499819E+03</rscale>
<asrwt>0</asrwt>
<pdfrwt beam="2">  1        4 0.15264195E-01 0.12499819E+03</pdfrwt>
<pdfrwt beam="1">  1       -4 0.60568508E-02 0.12499819E+03</pdfrwt>
<totfact> 0.10163373E+04</totfact>
</mgrwt>
</event>
<event>
 5    1  0.3179758E-002  0.1249937E+03  0.7818608E-02  0.1235079E+00
          4   -1    0    0  501    0  0.00000000000E+00  0.00000000000E+00  0.71863286623E+01  0.72976859101E+01  0.12700000000E+01 0.  1.
         -4   -1    0    0    0  501 -0.00000000000E+00 -0.00000000000E+00 -0.53922119882E+03  0.53922269440E+03  0.12700000000E+01 0.  1.
         25    2    1    2    0    0  0.00000000000E+00  0.00000000000E+00 -0.53203487016E+03  0.54652038031E+03  0.12499369197E+03 0.  0.
    9000005    1    3    3    0    0 -0.61699719616E+01  0.19923609880E+02 -0.52357410484E+03  0.52399032628E+03  0.10000000000E+01 0.  0.
    9000005    1    3    3    0    0  0.61699719616E+01 -0.19923609880E+02 -0.84607653228E+01  0.22530054028E+02  0.10000000000E+01 0.  0.
<mgrwt>
<rscale>  0 0.12499369E+03</rscale>
<asrwt>0</asrwt>
<pdfrwt beam="1">  1        4 0.11142704E-02 0.12499369E+03</pdfrwt>
<pdfrwt beam="2">  1       -4 0.82965757E-01 0.12499369E+03</pdfrwt>
<totfact> 0.52434652E+03</totfact>
</mgrwt>
</event>
<event>
 5    1  0.3179758E-002  0.1249958E+03  0.7818608E-02  0.1235076E+00
         -4   -1    0    0    0  501 -0.00000000000E+00  0.00000000000E+00  0.16059625751E+03  0.16060127904E+03  0.12700000000E+01 0. -1.
          4   -1    0    0  501    0  0.00000000000E+00 -0.00000000000E+00 -0.24299793431E+02  0.24332958324E+02  0.12700000000E+01 0. -1.
         25    2    1    2    0    0  0.00000000000E+00  0.00000000000E+00  0.13629646408E+03  0.18493423736E+03  0.12499578403E+03 0.  0.
    9000005    1    3    3    0    0 -0.66727814965E+01 -0.25725233511E+02  0.15182537975E+03  0.15413714539E+03  0.10000000000E+01 0.  0.
    9000005    1    3    3    0    0  0.66727814965E+01  0.25725233511E+02 -0.15528915666E+02  0.30797091971E+02  0.10000000000E+01 0.  0.
<mgrwt>
<rscale>  0 0.12499578E+03</rscale>
<asrwt>0</asrwt>
<pdfrwt beam="2">  1        4 0.37413670E-02 0.12499578E+03</pdfrwt>
<pdfrwt beam="1">  1       -4 0.24710055E-01 0.12499578E+03</pdfrwt>
<totfact> 0.92745050E+03</totfact>
</mgrwt>
</event>
<event>
 5    1  0.3179758E-002  0.1250053E+03  0.7818608E-02  0.1235061E+00
         -4   -1    0    0    0  501 -0.00000000000E+00  0.00000000000E+00  0.89906612354E+02  0.89915581770E+02  0.12700000000E+01 0. -1.
          4   -1    0    0  501    0  0.00000000000E+00 -0.00000000000E+00 -0.43431117862E+02  0.43449682378E+02  0.12700000000E+01 0. -1.
         25    2    1    2    0    0  0.00000000000E+00  0.00000000000E+00  0.46475494492E+02  0.13336526415E+03  0.12500528826E+03 0.  0.
    9000005    1    3    3    0    0 -0.23471911991E+02 -0.57418694725E+02  0.15130649770E+02  0.63857448421E+02  0.10000000000E+01 0.  0.
    9000005    1    3    3    0    0  0.23471911991E+02  0.57418694725E+02  0.31344844722E+02  0.69507815727E+02  0.10000000000E+01 0.  0.
<mgrwt>
<rscale>  0 0.12500529E+03</rscale>
<asrwt>0</asrwt>
<pdfrwt beam="2">  1        4 0.66838285E-02 0.12500529E+03</pdfrwt>
<pdfrwt beam="1">  1       -4 0.13833904E-01 0.12500529E+03</pdfrwt>
<totfact> 0.10271418E+04</totfact>
</mgrwt>
</event>
<event>
 5    1  0.3179758E-002  0.1250006E+03  0.7818608E-02  0.1235068E+00
          4   -1    0    0  501    0  0.00000000000E+00  0.00000000000E+00  0.41358505778E+02  0.41378000196E+02  0.12700000000E+01 0.  1.
         -4   -1    0    0    0  501 -0.00000000000E+00 -0.00000000000E+00 -0.94403364150E+02  0.94411906361E+02  0.12700000000E+01 0.  1.
         25    2    1    2    0    0  0.00000000000E+00  0.00000000000E+00 -0.53044858371E+02  0.13578990656E+03  0.12500056689E+03 0.  0.
    9000005    1    3    3    0    0 -0.29866929182E+02 -0.54585813962E+02 -0.20221723109E+02  0.65433650594E+02  0.10000000000E+01 0.  0.
    9000005    1    3    3    0    0  0.29866929182E+02  0.54585813962E+02 -0.32823135262E+02  0.70356255962E+02  0.10000000000E+01 0.  0.
<mgrwt>
<rscale>  0 0.12500057E+03</rscale>
<asrwt>0</asrwt>
<pdfrwt beam="1">  1        4 0.63650037E-02 0.12500057E+03</pdfrwt>
<pdfrwt beam="2">  1       -4 0.14525751E-01 0.12500057E+03</pdfrwt>
<totfact> 0.10221318E+04</totfact>
</mgrwt>
</event>
<event>
 5    1  0.3179758E-002  0.1250005E+03  0.7818608E-02  0.1235068E+00
          4   -1    0    0  501    0  0.00000000000E+00  0.00000000000E+00  0.89383825476E+03  0.89383915699E+03  0.12700000000E+01 0. -1.
         -4   -1    0    0    0  501 -0.00000000000E+00 -0.00000000000E+00 -0.42770437903E+01  0.44616144594E+01  0.12700000000E+01 0. -1.
         25    2    1    2    0    0  0.00000000000E+00  0.00000000000E+00  0.88956121097E+03  0.89830077145E+03  0.12500051171E+03 0.  0.
    9000005    1    3    3    0    0 -0.35698632617E+02 -0.35329802208E+02  0.17755804017E+03  0.18452762645E+03  0.10000000000E+01 0.  0.
    9000005    1    3    3    0    0  0.35698632617E+02  0.35329802208E+02  0.71200317080E+03  0.71377314500E+03  0.10000000000E+01 0.  0.
<mgrwt>
<rscale>  0 0.12500051E+03</rscale>
<asrwt>0</asrwt>
<pdfrwt beam="1">  1        4 0.13752781E+00 0.12500051E+03</pdfrwt>
<pdfrwt beam="2">  1       -4 0.67227407E-03 0.12500051E+03</pdfrwt>
<totfact> 0.34224691E+03</totfact>
</mgrwt>
</event>
<event>
 5    1  0.3179758E-002  0.1250029E+03  0.7818608E-02  0.1235065E+00
         -4   -1    0    0    0  501 -0.00000000000E+00  0.00000000000E+00  0.17476796369E+02  0.17522879653E+02  0.12700000000E+01 0.  1.
          4   -1    0    0  501    0  0.00000000000E+00 -0.00000000000E+00 -0.22317868001E+03  0.22318229345E+03  0.12700000000E+01 0.  1.
         25    2    1    2    0    0  0.00000000000E+00  0.00000000000E+00 -0.20570188364E+03  0.24070517310E+03  0.12500286167E+03 0.  0.
    9000005    1    3    3    0    0 -0.24362043710E+02  0.45129781569E+01 -0.21332641637E+03  0.21476274367E+03  0.10000000000E+01 0.  0.
    9000005    1    3    3    0    0  0.24362043710E+02 -0.45129781569E+01  0.76245327341E+01  0.25942429435E+02  0.10000000000E+01 0.  0.
<mgrwt>
<rscale>  0 0.12500286E+03</rscale>
<asrwt>0</asrwt>
<pdfrwt beam="2">  1        4 0.34339002E-01 0.12500286E+03</pdfrwt>
<pdfrwt beam="1">  1       -4 0.26925609E-02 0.12500286E+03</pdfrwt>
<totfact> 0.83687118E+03</totfact>
</mgrwt>
</event>
<event>
 5    1  0.3179758E-002  0.1250058E+03  0.7818608E-02  0.1235060E+00
          4   -1    0    0  501    0  0.00000000000E+00  0.00000000000E+00  0.82035665126E+01  0.83012892689E+01  0.12700000000E+01 0. -1.
         -4   -1    0    0    0  501 -0.00000000000E+00 -0.00000000000E+00 -0.47329101297E+03  0.47329271689E+03  0.12700000000E+01 0. -1.
         25    2    1    2    0    0  0.00000000000E+00  0.00000000000E+00 -0.46508744646E+03  0.48159400616E+03  0.12500581552E+03 0.  0.
    9000005    1    3    3    0    0 -0.17778254663E+02 -0.52641153892E+02 -0.34276071130E+03  0.34723632101E+03  0.10000000000E+01 0.  0.
    9000005    1    3    3    0    0  0.17778254663E+02  0.52641153892E+02 -0.12232673516E+03  0.13435768515E+03  0.10000000000E+01 0.  0.
<mgrwt>
<rscale>  0 0.12500582E+03</rscale>
<asrwt>0</asrwt>
<pdfrwt beam="1">  1        4 0.12697357E-02 0.12500582E+03</pdfrwt>
<pdfrwt beam="2">  1       -4 0.72821629E-01 0.12500582E+03</pdfrwt>
<totfact> 0.57313946E+03</totfact>
</mgrwt>
</event>
<event>
 5    1  0.3179758E-002  0.1250024E+03  0.7818608E-02  0.1235066E+00
          4   -1    0    0  501    0  0.00000000000E+00  0.00000000000E+00  0.18160410194E+02  0.18204763070E+02  0.12700000000E+01 0.  1.
         -4   -1    0    0    0  501 -0.00000000000E+00 -0.00000000000E+00 -0.21479674387E+03  0.21480049832E+03  0.12700000000E+01 0.  1.
         25    2    1    2    0    0  0.00000000000E+00  0.00000000000E+00 -0.19663633368E+03  0.23300526139E+03  0.12500241643E+03 0.  0.
    9000005    1    3    3    0    0 -0.55120751239E+02 -0.19974272636E+02 -0.13864848024E+03  0.15053793494E+03  0.10000000000E+01 0.  0.
    9000005    1    3    3    0    0  0.55120751239E+02  0.19974272636E+02 -0.57987853439E+02  0.82467326445E+02  0.10000000000E+01 0.  0.
<mgrwt>
<rscale>  0 0.12500242E+03</rscale>
<asrwt>0</asrwt>
<pdfrwt beam="1">  1        4 0.27976100E-02 0.12500242E+03</pdfrwt>
<pdfrwt beam="2">  1       -4 0.33049352E-01 0.12500242E+03</pdfrwt>
<totfact> 0.84845690E+03</totfact>
</mgrwt>
</event>
<event>
 5    1  0.3179758E-002  0.1249960E+03  0.7818608E-02  0.1235076E+00
         -4   -1    0    0    0  501 -0.00000000000E+00  0.00000000000E+00  0.20516736503E+04  0.20516740434E+04  0.12700000000E+01 0.  1.
          4   -1    0    0  501    0  0.00000000000E+00 -0.00000000000E+00 -0.16915746955E+01  0.21152600196E+01  0.12700000000E+01 0.  1.
         25    2    1    2    0    0  0.00000000000E+00  0.00000000000E+00  0.20499820756E+04  0.20537893034E+04  0.12499596959E+03 0.  0.
    9000005    1    3    3    0    0  0.47396509222E+02  0.33918087342E+02  0.13953717038E+04  0.13965887216E+04  0.10000000000E+01 0.  0.
    9000005    1    3    3    0    0 -0.47396509222E+02 -0.33918087342E+02  0.65461037184E+03  0.65720058175E+03  0.10000000000E+01 0.  0.
<mgrwt>
<rscale>  0 0.12499597E+03</rscale>
<asrwt>0</asrwt>
<pdfrwt beam="2">  1        4 0.29286404E-03 0.12499597E+03</pdfrwt>
<pdfrwt beam="1">  1       -4 0.31567433E+00 0.12499597E+03</pdfrwt>
<totfact> 0.91762514E+02</totfact>
</mgrwt>
</event>
<event>
 5    1  0.3179758E-002  0.1250010E+03  0.7818608E-02  0.1235068E+00
          4   -1    0    0  501    0  0.00000000000E+00  0.00000000000E+00  0.16888354262E+03  0.16888831774E+03  0.12700000000E+01 0. -1.
         -4   -1    0    0    0  501 -0.00000000000E+00 -0.00000000000E+00 -0.23107677239E+02  0.23142550580E+02  0.12700000000E+01 0. -1.
         25    2    1    2    0    0  0.00000000000E+00  0.00000000000E+00  0.14577586539E+03  0.19203086832E+03  0.12500100583E+03 0.  0.
    9000005    1    3    3    0    0  0.25122681898E+02 -0.12244051033E+02  0.15875570859E+03  0.16120000292E+03  0.10000000000E+01 0.  0.
    9000005    1    3    3    0    0 -0.25122681898E+02  0.12244051033E+02 -0.12979843209E+02  0.30830865397E+02  0.10000000000E+01 0.  0.
<mgrwt>
<rscale>  0 0.12500101E+03</rscale>
<asrwt>0</asrwt>
<pdfrwt beam="1">  1        4 0.25985132E-01 0.12500101E+03</pdfrwt>
<pdfrwt beam="2">  1       -4 0.35580773E-02 0.12500101E+03</pdfrwt>
<totfact> 0.91493086E+03</totfact>
</mgrwt>
</event>
<event>
 5    1  0.3179758E-002  0.1250009E+03  0.7818608E-02  0.1235068E+00
          4   -1    0    0  501    0  0.00000000000E+00  0.00000000000E+00  0.28399479282E+03  0.28399763247E+03  0.12700000000E+01 0. -1.
         -4   -1    0    0    0  501 -0.00000000000E+00 -0.00000000000E+00 -0.13722622215E+02  0.13781264835E+02  0.12700000000E+01 0. -1.
         25    2    1    2    0    0  0.00000000000E+00  0.00000000000E+00  0.27027217060E+03  0.29777889730E+03  0.12500090190E+03 0.  0.
    9000005    1    3    3    0    0  0.93248258660E+01 -0.55003286198E+02  0.20221952308E+03  0.20977618879E+03  0.10000000000E+01 0.  0.
    9000005    1    3    3    0    0 -0.93248258660E+01  0.55003286198E+02  0.68052647519E+02  0.88002708506E+02  0.10000000000E+01 0.  0.
<mgrwt>
<rscale>  0 0.12500090E+03</rscale>
<asrwt>0</asrwt>
<pdfrwt beam="1">  1        4 0.43696234E-01 0.12500090E+03</pdfrwt>
<pdfrwt beam="2">  1       -4 0.21159022E-02 0.12500090E+03</pdfrwt>
<totfact> 0.75876778E+03</totfact>
</mgrwt>
</event>
<event>
 5    1  0.3179758E-002  0.1250017E+03  0.7818608E-02  0.1235067E+00
         -4   -1    0    0    0  501 -0.00000000000E+00  0.00000000000E+00  0.17583734741E+02  0.17629538492E+02  0.12700000000E+01 0. -1.
          4   -1    0    0  501    0  0.00000000000E+00 -0.00000000000E+00 -0.22182090991E+03  0.22182454547E+03  0.12700000000E+01 0. -1.
         25    2    1    2    0    0  0.00000000000E+00  0.00000000000E+00 -0.20423717517E+03  0.23945408396E+03  0.12500173841E+03 0.  0.
    9000005    1    3    3    0    0 -0.57874212706E+02  0.73068905324E+01 -0.59175523593E+02  0.83099685548E+02  0.10000000000E+01 0.  0.
    9000005    1    3    3    0    0  0.57874212706E+02 -0.73068905324E+01 -0.14506165157E+03  0.15635439841E+03  0.10000000000E+01 0.  0.
<mgrwt>
<rscale>  0 0.12500174E+03</rscale>
<asrwt>0</asrwt>
<pdfrwt beam="2">  1        4 0.34130095E-01 0.12500174E+03</pdfrwt>
<pdfrwt beam="1">  1       -4 0.27089931E-02 0.12500174E+03</pdfrwt>
<totfact> 0.83875489E+03</totfact>
</mgrwt>
</event>
<event>
 4    1  0.3179758E-002  0.1249040E+03  0.7818608E-02  0.1235219E+00
         -4   -1    0    0    0  501 -0.00000000000E+00  0.00000000000E+00  0.91110760366E+01  0.91991633611E+01  0.12700000000E+01 0. -1.
          4   -1    0    0  501    0  0.00000000000E+00 -0.00000000000E+00 -0.42592956209E+03  0.42593145548E+03  0.12700000000E+01 0. -1.
    9000005    1    1    2    0    0 -0.59234105333E+02  0.18538396780E+02 -0.18455150413E+03  0.19471160485E+03  0.10000000000E+01 0.  0.
    9000005    1    1    2    0    0  0.59234105333E+02 -0.18538396780E+02 -0.23226698193E+03  0.24041901398E+03  0.10000000000E+01 0.  0.
<mgrwt>
<rscale>  0 0.12490398E+03</rscale>
<asrwt>0</asrwt>
<pdfrwt beam="2">  1        4 0.65534531E-01 0.12490398E+03</pdfrwt>
<pdfrwt beam="1">  1       -4 0.14086259E-02 0.12490398E+03</pdfrwt>
<totfact> 0.61403548E+03</totfact>
</mgrwt>
</event>
<event>
 5    1  0.3179758E-002  0.1250176E+03  0.7818608E-02  0.1235042E+00
         -4   -1    0    0    0  501 -0.00000000000E+00  0.00000000000E+00  0.14692510092E+03  0.14693058967E+03  0.12700000000E+01 0.  1.
          4   -1    0    0  501    0  0.00000000000E+00 -0.00000000000E+00 -0.26572995846E+02  0.26603327015E+02  0.12700000000E+01 0.  1.
         25    2    1    2    0    0  0.00000000000E+00  0.00000000000E+00  0.12035210508E+03  0.17353391669E+03  0.12501756294E+03 0.  0.
    9000005    1    3    3    0    0 -0.71716646462E+01 -0.60698404753E+02  0.42044850891E+02  0.74192308225E+02  0.10000000000E+01 0.  0.
    9000005    1    3    3    0    0  0.71716646462E+01  0.60698404753E+02  0.78307254186E+02  0.99341608460E+02  0.10000000000E+01 0.  0.
<mgrwt>
<rscale>  0 0.12501756E+03</rscale>
<asrwt>0</asrwt>
<pdfrwt beam="2">  1        4 0.40909087E-02 0.12501756E+03</pdfrwt>
<pdfrwt beam="1">  1       -4 0.22606616E-01 0.12501756E+03</pdfrwt>
<totfact> 0.94756694E+03</totfact>
</mgrwt>
</event>
<event>
 5    1  0.3179758E-002  0.1250056E+03  0.7818608E-02  0.1235061E+00
          4   -1    0    0  501    0  0.00000000000E+00  0.00000000000E+00  0.10244531294E+04  0.10244539166E+04  0.12700000000E+01 0. -1.
         -4   -1    0    0    0  501 -0.00000000000E+00 -0.00000000000E+00 -0.37067983270E+01  0.39183228347E+01  0.12700000000E+01 0. -1.
         25    2    1    2    0    0  0.00000000000E+00  0.00000000000E+00  0.10207463310E+04  0.10283722394E+04  0.12500556164E+03 0.  0.
    9000005    1    3    3    0    0 -0.10382805467E+02 -0.41005542744E+01  0.10162248758E+04  0.10162866797E+04  0.10000000000E+01 0.  0.
    9000005    1    3    3    0    0  0.10382805467E+02  0.41005542744E+01  0.45214552095E+01  0.12085559645E+02  0.10000000000E+01 0.  0.
<mgrwt>
<rscale>  0 0.12500556E+03</rscale>
<asrwt>0</asrwt>
<pdfrwt beam="1">  1        4 0.15762441E+00 0.12500556E+03</pdfrwt>
<pdfrwt beam="2">  1       -4 0.58660867E-03 0.12500556E+03</pdfrwt>
<totfact> 0.29676210E+03</totfact>
</mgrwt>
</event>
<event>
 5    1  0.3179758E-002  0.1250009E+03  0.7818608E-02  0.1235068E+00
         -4   -1    0    0    0  501 -0.00000000000E+00  0.00000000000E+00  0.33037208108E+02  0.33061609452E+02  0.12700000000E+01 0. -1.
          4   -1    0    0  501    0  0.00000000000E+00 -0.00000000000E+00 -0.11816813883E+03  0.11817496323E+03  0.12700000000E+01 0. -1.
         25    2    1    2    0    0  0.00000000000E+00  0.00000000000E+00 -0.85130930724E+02  0.15123657268E+03  0.12500090220E+03 0.  0.
    9000005    1    3    3    0    0 -0.39862308863E+02 -0.32583506145E+02 -0.85420259169E+02  0.99741211227E+02  0.10000000000E+01 0.  0.
    9000005    1    3    3    0    0  0.39862308863E+02  0.32583506145E+02  0.28932844569E+00  0.51495361456E+02  0.10000000000E+01 0.  0.
<mgrwt>
<rscale>  0 0.12500090E+03</rscale>
<asrwt>0</asrwt>
<pdfrwt beam="2">  1        4 0.18182115E-01 0.12500090E+03</pdfrwt>
<pdfrwt beam="1">  1       -4 0.50850494E-02 0.12500090E+03</pdfrwt>
<totfact> 0.99055764E+03</totfact>
</mgrwt>
</event>
<event>
 5    1  0.3179758E-002  0.1249903E+03  0.7818608E-02  0.1235084E+00
          4   -1    0    0  501    0  0.00000000000E+00  0.00000000000E+00  0.61339027485E+03  0.61339158959E+03  0.12700000000E+01 0.  1.
         -4   -1    0    0    0  501 -0.00000000000E+00 -0.00000000000E+00 -0.63026439370E+01  0.64293250498E+01  0.12700000000E+01 0.  1.
         25    2    1    2    0    0  0.00000000000E+00  0.00000000000E+00  0.60708763091E+03  0.61982091464E+03  0.12499029810E+03 0.  0.
    9000005    1    3    3    0    0  0.40645120644E+02  0.45046575017E+02  0.37766711416E+03  0.38251100490E+03  0.10000000000E+01 0.  0.
    9000005    1    3    3    0    0 -0.40645120644E+02 -0.45046575017E+02  0.22942051675E+03  0.23730990973E+03  0.10000000000E+01 0.  0.
<mgrwt>
<rscale>  0 0.12499030E+03</rscale>
<asrwt>0</asrwt>
<pdfrwt beam="1">  1        4 0.94377603E-01 0.12499030E+03</pdfrwt>
<pdfrwt beam="2">  1       -4 0.97948313E-03 0.12499030E+03</pdfrwt>
<totfact> 0.47650014E+03</totfact>
</mgrwt>
</event>
<event>
 5    1  0.3179758E-002  0.1250012E+03  0.7818608E-02  0.1235067E+00
          4   -1    0    0  501    0  0.00000000000E+00  0.00000000000E+00  0.49873821749E+03  0.49873983447E+03  0.12700000000E+01 0.  1.
         -4   -1    0    0    0  501 -0.00000000000E+00 -0.00000000000E+00 -0.77792984960E+01  0.78822829872E+01  0.12700000000E+01 0.  1.
         25    2    1    2    0    0  0.00000000000E+00  0.00000000000E+00  0.49095891900E+03  0.50662211746E+03  0.12500123901E+03 0.  0.
    9000005    1    3    3    0    0  0.42062419498E+02 -0.12483424940E+02  0.42583489089E+03  0.42809045461E+03  0.10000000000E+01 0.  0.
    9000005    1    3    3    0    0 -0.42062419498E+02  0.12483424940E+02  0.65124028108E+02  0.78531662845E+02  0.10000000000E+01 0.  0.
<mgrwt>
<rscale>  0 0.12500124E+03</rscale>
<asrwt>0</asrwt>
<pdfrwt beam="1">  1        4 0.76737038E-01 0.12500124E+03</pdfrwt>
<pdfrwt beam="2">  1       -4 0.12048609E-02 0.12500124E+03</pdfrwt>
<totfact> 0.55352681E+03</totfact>
</mgrwt>
</event>
<event>
 5    1  0.3179758E-002  0.1249975E+03  0.7818608E-02  0.1235073E+00
         -4   -1    0    0    0  501 -0.00000000000E+00  0.00000000000E+00  0.24520892083E+03  0.24521220963E+03  0.12700000000E+01 0.  1.
          4   -1    0    0  501    0  0.00000000000E+00 -0.00000000000E+00 -0.15900943493E+02  0.15951579983E+02  0.12700000000E+01 0.  1.
         25    2    1    2    0    0  0.00000000000E+00  0.00000000000E+00  0.22930797733E+03  0.26116378962E+03  0.12499750612E+03 0.  0.
    9000005    1    3    3    0    0  0.59343685863E+02 -0.18329543495E+01  0.73921731880E+02  0.94818011040E+02  0.10000000000E+01 0.  0.
    9000005    1    3    3    0    0 -0.59343685863E+02  0.18329543495E+01  0.15538624545E+03  0.16634577858E+03  0.10000000000E+01 0.  0.
<mgrwt>
<rscale>  0 0.12499751E+03</rscale>
<asrwt>0</asrwt>
<pdfrwt beam="2">  1        4 0.24504471E-02 0.12499751E+03</pdfrwt>
<pdfrwt beam="1">  1       -4 0.37728597E-01 0.12499751E+03</pdfrwt>
<totfact> 0.80747498E+03</totfact>
</mgrwt>
</event>
<event>
 5    1  0.3179758E-002  0.1249998E+03  0.7818608E-02  0.1235070E+00
         -4   -1    0    0    0  501 -0.00000000000E+00  0.00000000000E+00  0.75074510767E+02  0.75085251993E+02  0.12700000000E+01 0. -1.
          4   -1    0    0  501    0  0.00000000000E+00 -0.00000000000E+00 -0.52009300525E+02  0.52024804095E+02  0.12700000000E+01 0. -1.
         25    2    1    2    0    0  0.00000000000E+00  0.00000000000E+00  0.23065210242E+02  0.12711005609E+03  0.12499984974E+03 0.  0.
    9000005    1    3    3    0    0 -0.50789493211E+02  0.12892853333E+02 -0.23092810390E+02  0.57271949325E+02  0.10000000000E+01 0.  0.
    9000005    1    3    3    0    0  0.50789493211E+02 -0.12892853333E+02  0.46158020632E+02  0.69838106764E+02  0.10000000000E+01 0.  0.
<mgrwt>
<rscale>  0 0.12499985E+03</rscale>
<asrwt>0</asrwt>
<pdfrwt beam="2">  1        4 0.80034496E-02 0.12499985E+03</pdfrwt>
<pdfrwt beam="1">  1       -4 0.11551944E-01 0.12499985E+03</pdfrwt>
<totfact> 0.10406791E+04</totfact>
</mgrwt>
</event>
<event>
 5    1  0.3179758E-002  0.1250023E+03  0.7818608E-02  0.1235066E+00
         -4   -1    0    0    0  501 -0.00000000000E+00  0.00000000000E+00  0.12517852091E+03  0.12518496315E+03  0.12700000000E+01 0. -1.
          4   -1    0    0  501    0  0.00000000000E+00 -0.00000000000E+00 -0.31186413791E+02  0.31212262096E+02  0.12700000000E+01 0. -1.
         25    2    1    2    0    0  0.00000000000E+00  0.00000000000E+00  0.93992107120E+02  0.15639722524E+03  0.12500230343E+03 0.  0.
    9000005    1    3    3    0    0 -0.18430337949E+01  0.39043863633E+02  0.10800282477E+03  0.11486265807E+03  0.10000000000E+01 0.  0.
    9000005    1    3    3    0    0  0.18430337949E+01 -0.39043863633E+02 -0.14010717649E+02  0.41534567170E+02  0.10000000000E+01 0.  0.
<mgrwt>
<rscale>  0 0.12500230E+03</rscale>
<asrwt>0</asrwt>
<pdfrwt beam="2">  1        4 0.48003937E-02 0.12500230E+03</pdfrwt>
<pdfrwt beam="1">  1       -4 0.19260718E-01 0.12500230E+03</pdfrwt>
<totfact> 0.98036824E+03</totfact>
</mgrwt>
</event>
<event>
 5    1  0.3179758E-002  0.1250012E+03  0.7818608E-02  0.1235067E+00
         -4   -1    0    0    0  501 -0.00000000000E+00  0.00000000000E+00  0.19091290723E+03  0.19091713136E+03  0.12700000000E+01 0.  1.
          4   -1    0    0  501    0  0.00000000000E+00 -0.00000000000E+00 -0.20437140149E+02  0.20476562150E+02  0.12700000000E+01 0.  1.
         25    2    1    2    0    0  0.00000000000E+00  0.00000000000E+00  0.17047576708E+03  0.21139369351E+03  0.12500122597E+03 0.  0.
    9000005    1    3    3    0    0 -0.15424155698E+01  0.56700867193E+02  0.40881195891E+02  0.69925957724E+02  0.10000000000E+01 0.  0.
    9000005    1    3    3    0    0  0.15424155698E+01 -0.56700867193E+02  0.12959457119E+03  0.14146773578E+03  0.10000000000E+01 0.  0.
<mgrwt>
<rscale>  0 0.12500123E+03</rscale>
<asrwt>0</asrwt>
<pdfrwt beam="2">  1        4 0.31475328E-02 0.12500123E+03</pdfrwt>
<pdfrwt beam="1">  1       -4 0.29374574E-01 0.12500123E+03</pdfrwt>
<totfact> 0.88246358E+03</totfact>
</mgrwt>
</event>
<event>
 5    1  0.3179758E-002  0.1250039E+03  0.7818608E-02  0.1235063E+00
         -4   -1    0    0    0  501 -0.00000000000E+00  0.00000000000E+00  0.62449044421E+01  0.63727334395E+01  0.12700000000E+01 0.  1.
          4   -1    0    0  501    0  0.00000000000E+00 -0.00000000000E+00 -0.61908357305E+03  0.61908487570E+03  0.12700000000E+01 0.  1.
         25    2    1    2    0    0  0.00000000000E+00  0.00000000000E+00 -0.61283866861E+03  0.62545760914E+03  0.12500394829E+03 0.  0.
    9000005    1    3    3    0    0  0.50326844510E+01 -0.22457767393E+02 -0.15706883290E+02  0.27881632157E+02  0.10000000000E+01 0.  0.
    9000005    1    3    3    0    0 -0.50326844510E+01  0.22457767393E+02 -0.59713178532E+03  0.59757597698E+03  0.10000000000E+01 0.  0.
<mgrwt>
<rscale>  0 0.12500395E+03</rscale>
<asrwt>0</asrwt>
<pdfrwt beam="2">  1        4 0.95253512E-01 0.12500395E+03</pdfrwt>
<pdfrwt beam="1">  1       -4 0.97068822E-03 0.12500395E+03</pdfrwt>
<totfact> 0.47295023E+03</totfact>
</mgrwt>
</event>
<event>
 5    1  0.3179758E-002  0.1250017E+03  0.7818608E-02  0.1235067E+00
         -4   -1    0    0    0  501 -0.00000000000E+00  0.00000000000E+00  0.73245396334E+03  0.73245506436E+03  0.12700000000E+01 0. -1.
          4   -1    0    0  501    0  0.00000000000E+00 -0.00000000000E+00 -0.52565193812E+01  0.54077625692E+01  0.12700000000E+01 0. -1.
         25    2    1    2    0    0  0.00000000000E+00  0.00000000000E+00  0.72719744396E+03  0.73786282693E+03  0.12500171547E+03 0.  0.
    9000005    1    3    3    0    0 -0.89000737042E+01 -0.55014072494E+02  0.53051374835E+03  0.53343377908E+03  0.10000000000E+01 0.  0.
    9000005    1    3    3    0    0  0.89000737042E+01  0.55014072494E+02  0.19668369561E+03  0.20442904785E+03  0.10000000000E+01 0.  0.
<mgrwt>
<rscale>  0 0.12500172E+03</rscale>
<asrwt>0</asrwt>
<pdfrwt beam="2">  1        4 0.82041464E-03 0.12500172E+03</pdfrwt>
<pdfrwt beam="1">  1       -4 0.11269687E+00 0.12500172E+03</pdfrwt>
<totfact> 0.41159975E+03</totfact>
</mgrwt>
</event>
<event>
 5    1  0.3179758E-002  0.1249874E+03  0.7818608E-02  0.1235089E+00
         -4   -1    0    0    0  501 -0.00000000000E+00  0.00000000000E+00  0.10800688955E+02  0.10875099167E+02  0.12700000000E+01 0. -1.
          4   -1    0    0  501    0  0.00000000000E+00 -0.00000000000E+00 -0.36027681260E+03  0.36027905102E+03  0.12700000000E+01 0. -1.
         25    2    1    2    0    0  0.00000000000E+00  0.00000000000E+00 -0.34947612365E+03  0.37115415018E+03  0.12498736815E+03 0.  0.
    9000005    1    3    3    0    0 -0.37210120553E+01  0.45420294232E+02 -0.30168731134E+03  0.30511159087E+03  0.10000000000E+01 0.  0.
    9000005    1    3    3    0    0  0.37210120553E+01 -0.45420294232E+02 -0.47788812312E+02  0.66042559316E+02  0.10000000000E+01 0.  0.
<mgrwt>
<rscale>  0 0.12498737E+03</rscale>
<asrwt>0</asrwt>
<pdfrwt beam="2">  1        4 0.55433089E-01 0.12498737E+03</pdfrwt>
<pdfrwt beam="1">  1       -4 0.16675408E-02 0.12498737E+03</pdfrwt>
<totfact> 0.67477209E+03</totfact>
</mgrwt>
</event>
<event>
 5    1  0.3179758E-002  0.1249969E+03  0.7818608E-02  0.1235074E+00
         -4   -1    0    0    0  501 -0.00000000000E+00  0.00000000000E+00  0.32716899308E+03  0.32717145800E+03  0.12700000000E+01 0.  1.
          4   -1    0    0  501    0  0.00000000000E+00 -0.00000000000E+00 -0.11902672167E+02  0.11970234113E+02  0.12700000000E+01 0.  1.
         25    2    1    2    0    0  0.00000000000E+00  0.00000000000E+00  0.31526632091E+03  0.33914169211E+03  0.12499693688E+03 0.  0.
    9000005    1    3    3    0    0  0.35385802320E+02 -0.27961712699E+02  0.27499423167E+03  0.27866976842E+03  0.10000000000E+01 0.  0.
    9000005    1    3    3    0    0 -0.35385802320E+02  0.27961712699E+02  0.40272089241E+02  0.60471923690E+02  0.10000000000E+01 0.  0.
<mgrwt>
<rscale>  0 0.12499694E+03</rscale>
<asrwt>0</asrwt>
<pdfrwt beam="2">  1        4 0.18365674E-02 0.12499694E+03</pdfrwt>
<pdfrwt beam="1">  1       -4 0.50339069E-01 0.12499694E+03</pdfrwt>
<totfact> 0.70940673E+03</totfact>
</mgrwt>
</event>
<event>
 5    1  0.3179758E-002  0.1250023E+03  0.7818608E-02  0.1235066E+00
          4   -1    0    0  501    0  0.00000000000E+00  0.00000000000E+00  0.30869850760E+02  0.30895963911E+02  0.12700000000E+01 0. -1.
         -4   -1    0    0    0  501 -0.00000000000E+00 -0.00000000000E+00 -0.12646107626E+03  0.12646745316E+03  0.12700000000E+01 0. -1.
         25    2    1    2    0    0  0.00000000000E+00  0.00000000000E+00 -0.95591225497E+02  0.15736341707E+03  0.12500225054E+03 0.  0.
    9000005    1    3    3    0    0  0.53616270103E+02 -0.25156709802E+02 -0.22686426866E+02  0.63429003080E+02  0.10000000000E+01 0.  0.
    9000005    1    3    3    0    0 -0.53616270103E+02  0.25156709802E+02 -0.72904798631E+02  0.93934413988E+02  0.10000000000E+01 0.  0.
<mgrwt>
<rscale>  0 0.12500225E+03</rscale>
<asrwt>0</asrwt>
<pdfrwt beam="1">  1        4 0.47517071E-02 0.12500225E+03</pdfrwt>
<pdfrwt beam="2">  1       -4 0.19458049E-01 0.12500225E+03</pdfrwt>
<totfact> 0.97848567E+03</totfact>
</mgrwt>
</event>
<event>
 5    1  0.3179758E-002  0.1250047E+03  0.7818608E-02  0.1235062E+00
          4   -1    0    0  501    0  0.00000000000E+00  0.00000000000E+00  0.11299618155E+02  0.11370763846E+02  0.12700000000E+01 0.  1.
         -4   -1    0    0    0  501 -0.00000000000E+00 -0.00000000000E+00 -0.34456622773E+03  0.34456856820E+03  0.12700000000E+01 0.  1.
         25    2    1    2    0    0  0.00000000000E+00  0.00000000000E+00 -0.33326660958E+03  0.35593933205E+03  0.12500470008E+03 0.  0.
    9000005    1    3    3    0    0  0.26566457391E+02 -0.48499817962E+02 -0.83738292921E+02  0.10035492366E+03  0.10000000000E+01 0.  0.
    9000005    1    3    3    0    0 -0.26566457391E+02  0.48499817962E+02 -0.24952831666E+03  0.25558440839E+03  0.10000000000E+01 0.  0.
<mgrwt>
<rscale>  0 0.12500470E+03</rscale>
<asrwt>0</asrwt>
<pdfrwt beam="1">  1        4 0.17440558E-02 0.12500470E+03</pdfrwt>
<pdfrwt beam="2">  1       -4 0.53015834E-01 0.12500470E+03</pdfrwt>
<totfact> 0.69068883E+03</totfact>
</mgrwt>
</event>
<event>
 5    1  0.3179758E-002  0.1249986E+03  0.7818608E-02  0.1235072E+00
         -4   -1    0    0    0  501 -0.00000000000E+00  0.00000000000E+00  0.82041296743E+02  0.82051125960E+02  0.12700000000E+01 0.  1.
          4   -1    0    0  501    0  0.00000000000E+00 -0.00000000000E+00 -0.47590969881E+02  0.47607912307E+02  0.12700000000E+01 0.  1.
         25    2    1    2    0    0  0.00000000000E+00  0.00000000000E+00  0.34450326862E+02  0.12965903827E+03  0.12499856472E+03 0.  0.
    9000005    1    3    3    0    0  0.13915958385E+02  0.51987626432E+02 -0.15720542699E+02  0.56075865242E+02  0.10000000000E+01 0.  0.
    9000005    1    3    3    0    0 -0.13915958385E+02 -0.51987626432E+02  0.50170869561E+02  0.73583173025E+02  0.10000000000E+01 0.  0.
<mgrwt>
<rscale>  0 0.12499856E+03</rscale>
<asrwt>0</asrwt>
<pdfrwt beam="2">  1        4 0.73237472E-02 0.12499856E+03</pdfrwt>
<pdfrwt beam="1">  1       -4 0.12623797E-01 0.12499856E+03</pdfrwt>
<totfact> 0.10352142E+04</totfact>
</mgrwt>
</event>
<event>
 5    1  0.3179758E-002  0.1249974E+03  0.7818608E-02  0.1235073E+00
          4   -1    0    0  501    0  0.00000000000E+00  0.00000000000E+00  0.23313696652E+03  0.23314042562E+03  0.12700000000E+01 0. -1.
         -4   -1    0    0    0  501 -0.00000000000E+00 -0.00000000000E+00 -0.16726812637E+02  0.16774956364E+02  0.12700000000E+01 0. -1.
         25    2    1    2    0    0  0.00000000000E+00  0.00000000000E+00  0.21641015388E+03  0.24991538198E+03  0.12499737376E+03 0.  0.
    9000005    1    3    3    0    0 -0.22451859152E+01  0.55985312537E+01  0.23256335701E+03  0.23264371781E+03  0.10000000000E+01 0.  0.
    9000005    1    3    3    0    0  0.22451859152E+01 -0.55985312537E+01 -0.16153203129E+02  0.17271664173E+02  0.10000000000E+01 0.  0.
<mgrwt>
<rscale>  0 0.12499737E+03</rscale>
<asrwt>0</asrwt>
<pdfrwt beam="1">  1        4 0.35871193E-01 0.12499737E+03</pdfrwt>
<pdfrwt beam="2">  1       -4 0.25773254E-02 0.12499737E+03</pdfrwt>
<totfact> 0.82347278E+03</totfact>
</mgrwt>
</event>
<event>
 5    1  0.3179758E-002  0.1249970E+03  0.7818608E-02  0.1235074E+00
         -4   -1    0    0    0  501 -0.00000000000E+00  0.00000000000E+00  0.19361820917E+01  0.23155347314E+01  0.12700000000E+01 0. -1.
          4   -1    0    0  501    0  0.00000000000E+00 -0.00000000000E+00 -0.18370262574E+04  0.18370266964E+04  0.12700000000E+01 0. -1.
         25    2    1    2    0    0  0.00000000000E+00  0.00000000000E+00 -0.18350900753E+04  0.18393422311E+04  0.12499703484E+03 0.  0.
    9000005    1    3    3    0    0 -0.11500515162E+02 -0.24408564531E+01 -0.14412041991E+02  0.18625965306E+02  0.10000000000E+01 0.  0.
    9000005    1    3    3    0    0  0.11500515162E+02  0.24408564531E+01 -0.18206780333E+04  0.18207162658E+04  0.10000000000E+01 0.  0.
<mgrwt>
<rscale>  0 0.12499703E+03</rscale>
<asrwt>0</asrwt>
<pdfrwt beam="2">  1        4 0.28264737E+00 0.12499703E+03</pdfrwt>
<pdfrwt beam="1">  1       -4 0.32709038E-03 0.12499703E+03</pdfrwt>
<totfact> 0.12107972E+03</totfact>
</mgrwt>
</event>
<event>
 5    1  0.3179758E-002  0.1250003E+03  0.7818608E-02  0.1235069E+00
         -4   -1    0    0    0  501 -0.00000000000E+00  0.00000000000E+00  0.12041955961E+04  0.12041962658E+04  0.12700000000E+01 0. -1.
          4   -1    0    0  501    0  0.00000000000E+00 -0.00000000000E+00 -0.31188843708E+01  0.33675420886E+01  0.12700000000E+01 0. -1.
         25    2    1    2    0    0  0.00000000000E+00  0.00000000000E+00  0.12010767118E+04  0.12075638079E+04  0.12500033066E+03 0.  0.
    9000005    1    3    3    0    0  0.33290649552E+02  0.81329930755E+01  0.95704508716E+02  0.10166005072E+03  0.10000000000E+01 0.  0.
    9000005    1    3    3    0    0 -0.33290649552E+02 -0.81329930755E+01  0.11053722031E+04  0.11059037572E+04  0.10000000000E+01 0.  0.
<mgrwt>
<rscale>  0 0.12500033E+03</rscale>
<asrwt>0</asrwt>
<pdfrwt beam="2">  1        4 0.49900705E-03 0.12500033E+03</pdfrwt>
<pdfrwt beam="1">  1       -4 0.18528017E+00 0.12500033E+03</pdfrwt>
<totfact> 0.24515423E+03</totfact>
</mgrwt>
</event>
<event>
 5    1  0.3179758E-002  0.1249980E+03  0.7818608E-02  0.1235072E+00
         -4   -1    0    0    0  501 -0.00000000000E+00  0.00000000000E+00  0.60409861858E+02  0.60423210025E+02  0.12700000000E+01 0.  1.
          4   -1    0    0  501    0  0.00000000000E+00 -0.00000000000E+00 -0.64633613248E+02  0.64646089298E+02  0.12700000000E+01 0.  1.
         25    2    1    2    0    0  0.00000000000E+00  0.00000000000E+00 -0.42237513895E+01  0.12506929932E+03  0.12499795821E+03 0.  0.
    9000005    1    3    3    0    0 -0.82431278872E+01  0.46189818113E+02 -0.43411018460E+02  0.63929374926E+02  0.10000000000E+01 0.  0.
    9000005    1    3    3    0    0  0.82431278872E+01 -0.46189818113E+02  0.39187267071E+02  0.61139924396E+02  0.10000000000E+01 0.  0.
<mgrwt>
<rscale>  0 0.12499796E+03</rscale>
<asrwt>0</asrwt>
<pdfrwt beam="2">  1        4 0.99456193E-02 0.12499796E+03</pdfrwt>
<pdfrwt beam="1">  1       -4 0.92958113E-02 0.12499796E+03</pdfrwt>
<totfact> 0.10451840E+04</totfact>
</mgrwt>
</event>
<event>
 5    1  0.3179758E-002  0.1249984E+03  0.7818608E-02  0.1235072E+00
          4   -1    0    0  501    0  0.00000000000E+00  0.00000000000E+00  0.36625217697E+02  0.36647230064E+02  0.12700000000E+01 0. -1.
         -4   -1    0    0    0  501 -0.00000000000E+00 -0.00000000000E+00 -0.10659417341E+03  0.10660173876E+03  0.12700000000E+01 0. -1.
         25    2    1    2    0    0  0.00000000000E+00  0.00000000000E+00 -0.69968955718E+02  0.14324896882E+03  0.12499844921E+03 0.  0.
    9000005    1    3    3    0    0 -0.12375341839E+02  0.14829201555E+02  0.33124333226E+02  0.38357212569E+02  0.10000000000E+01 0.  0.
    9000005    1    3    3    0    0  0.12375341839E+02 -0.14829201555E+02 -0.10309328894E+03  0.10489175625E+03  0.10000000000E+01 0.  0.
<mgrwt>
<rscale>  0 0.12499845E+03</rscale>
<asrwt>0</asrwt>
<pdfrwt beam="1">  1        4 0.56369241E-02 0.12499845E+03</pdfrwt>
<pdfrwt beam="2">  1       -4 0.16401379E-01 0.12499845E+03</pdfrwt>
<totfact> 0.10067039E+04</totfact>
</mgrwt>
</event>
<event>
 5    1  0.3179758E-002  0.1250084E+03  0.7818608E-02  0.1235056E+00
          4   -1    0    0  501    0  0.00000000000E+00  0.00000000000E+00  0.60391193957E+01  0.61712124478E+01  0.12700000000E+01 0. -1.
         -4   -1    0    0    0  501 -0.00000000000E+00 -0.00000000000E+00 -0.63978063653E+03  0.63978189703E+03  0.12700000000E+01 0. -1.
         25    2    1    2    0    0  0.00000000000E+00  0.00000000000E+00 -0.63374151713E+03  0.64595310948E+03  0.12500843618E+03 0.  0.
    9000005    1    3    3    0    0  0.27329900023E+02 -0.34785535896E+02 -0.88759052677E+02  0.99177247264E+02  0.10000000000E+01 0.  0.
    9000005    1    3    3    0    0 -0.27329900023E+02  0.34785535896E+02 -0.54498246445E+03  0.54677586222E+03  0.10000000000E+01 0.  0.
<mgrwt>
<rscale>  0 0.12500844E+03</rscale>
<asrwt>0</asrwt>
<pdfrwt beam="1">  1        4 0.93935376E-03 0.12500844E+03</pdfrwt>
<pdfrwt beam="2">  1       -4 0.98437995E-01 0.12500844E+03</pdfrwt>
<totfact> 0.46081088E+03</totfact>
</mgrwt>
</event>
<event>
 5    1  0.3179758E-002  0.1249989E+03  0.7818608E-02  0.1235071E+00
         -4   -1    0    0    0  501 -0.00000000000E+00  0.00000000000E+00  0.35053487914E+01  0.37283200170E+01  0.12700000000E+01 0.  1.
          4   -1    0    0  501    0  0.00000000000E+00 -0.00000000000E+00 -0.10797758071E+04  0.10797765540E+04  0.12700000000E+01 0.  1.
         25    2    1    2    0    0  0.00000000000E+00  0.00000000000E+00 -0.10762704583E+04  0.10835048740E+04  0.12499885008E+03 0.  0.
    9000005    1    3    3    0    0  0.43626890242E+01  0.10785416912E+02 -0.59226313643E+01  0.13093350823E+02  0.10000000000E+01 0.  0.
    9000005    1    3    3    0    0 -0.43626890242E+01 -0.10785416912E+02 -0.10703478270E+04  0.10704115232E+04  0.10000000000E+01 0.  0.
<mgrwt>
<rscale>  0 0.12499885E+03</rscale>
<asrwt>0</asrwt>
<pdfrwt beam="2">  1        4 0.16613631E+00 0.12499885E+03</pdfrwt>
<pdfrwt beam="1">  1       -4 0.55649437E-03 0.12499885E+03</pdfrwt>
<totfact> 0.27971987E+03</totfact>
</mgrwt>
</event>
<event>
 5    1  0.3179758E-002  0.1249882E+03  0.7818608E-02  0.1235088E+00
         -4   -1    0    0    0  501 -0.00000000000E+00  0.00000000000E+00  0.63750088341E+03  0.63750214843E+03  0.12700000000E+01 0. -1.
          4   -1    0    0  501    0  0.00000000000E+00 -0.00000000000E+00 -0.60591850398E+01  0.61908499696E+01  0.12700000000E+01 0. -1.
         25    2    1    2    0    0  0.00000000000E+00  0.00000000000E+00  0.63144169837E+03  0.64369299840E+03  0.12498823042E+03 0.  0.
    9000005    1    3    3    0    0  0.53051729623E+02 -0.26438281896E+02  0.21387967293E+03  0.22194364884E+03  0.10000000000E+01 0.  0.
    9000005    1    3    3    0    0 -0.53051729623E+02  0.26438281896E+02  0.41756202544E+03  0.42174934956E+03  0.10000000000E+01 0.  0.
<mgrwt>
<rscale>  0 0.12498823E+03</rscale>
<asrwt>0</asrwt>
<pdfrwt beam="2">  1        4 0.94240795E-03 0.12498823E+03</pdfrwt>
<pdfrwt beam="1">  1       -4 0.98087258E-01 0.12498823E+03</pdfrwt>
<totfact> 0.46232662E+03</totfact>
</mgrwt>
</event>
<event>
 5    1  0.3179758E-002  0.1249987E+03  0.7818608E-02  0.1235071E+00
         -4   -1    0    0    0  501 -0.00000000000E+00  0.00000000000E+00  0.96770486141E+02  0.96778819418E+02  0.12700000000E+01 0. -1.
          4   -1    0    0  501    0  0.00000000000E+00 -0.00000000000E+00 -0.40345205403E+02  0.40365189198E+02  0.12700000000E+01 0. -1.
         25    2    1    2    0    0  0.00000000000E+00  0.00000000000E+00  0.56425280737E+02  0.13714400862E+03  0.12499866716E+03 0.  0.
    9000005    1    3    3    0    0 -0.21622262869E+02 -0.87362820415E+00 -0.36108497506E+02  0.42108301675E+02  0.10000000000E+01 0.  0.
    9000005    1    3    3    0    0  0.21622262869E+02  0.87362820415E+00  0.92533778243E+02  0.95035706941E+02  0.10000000000E+01 0.  0.
<mgrwt>
<rscale>  0 0.12499867E+03</rscale>
<asrwt>0</asrwt>
<pdfrwt beam="2">  1        4 0.62091329E-02 0.12499867E+03</pdfrwt>
<pdfrwt beam="1">  1       -4 0.14889945E-01 0.12499867E+03</pdfrwt>
<totfact> 0.10193382E+04</totfact>
</mgrwt>
</event>
<event>
 5    1  0.3179758E-002  0.1250007E+03  0.7818608E-02  0.1235068E+00
          4   -1    0    0  501    0  0.00000000000E+00  0.00000000000E+00  0.92357720935E+02  0.92366452332E+02  0.12700000000E+01 0.  1.
         -4   -1    0    0    0  501 -0.00000000000E+00 -0.00000000000E+00 -0.42274981996E+02  0.42294053988E+02  0.12700000000E+01 0.  1.
         25    2    1    2    0    0  0.00000000000E+00  0.00000000000E+00  0.50082738939E+02  0.13466050632E+03  0.12500068489E+03 0.  0.
    9000005    1    3    3    0    0 -0.33344116761E+02 -0.52713655267E+02  0.29176382257E+02  0.68868141080E+02  0.10000000000E+01 0.  0.
    9000005    1    3    3    0    0  0.33344116761E+02  0.52713655267E+02  0.20906356682E+02  0.65792365240E+02  0.10000000000E+01 0.  0.
<mgrwt>
<rscale>  0 0.12500068E+03</rscale>
<asrwt>0</asrwt>
<pdfrwt beam="1">  1        4 0.14211019E-01 0.12500068E+03</pdfrwt>
<pdfrwt beam="2">  1       -4 0.65059820E-02 0.12500068E+03</pdfrwt>
<totfact> 0.10245073E+04</totfact>
</mgrwt>
</event>
<event>
 5    1  0.3179758E-002  0.1250002E+03  0.7818608E-02  0.1235069E+00
          4   -1    0    0  501    0  0.00000000000E+00  0.00000000000E+00  0.71074093903E+01  0.72199839502E+01  0.12700000000E+01 0.  1.
         -4   -1    0    0    0  501 -0.00000000000E+00 -0.00000000000E+00 -0.54517227762E+03  0.54517375688E+03  0.12700000000E+01 0.  1.
         25    2    1    2    0    0  0.00000000000E+00  0.00000000000E+00 -0.53806486823E+03  0.55239374083E+03  0.12500016992E+03 0.  0.
    9000005    1    3    3    0    0 -0.55691224688E+02 -0.28337718736E+02 -0.26527795670E+03  0.27253978264E+03  0.10000000000E+01 0.  0.
    9000005    1    3    3    0    0  0.55691224688E+02  0.28337718736E+02 -0.27278691153E+03  0.27985395819E+03  0.10000000000E+01 0.  0.
<mgrwt>
<rscale>  0 0.12500017E+03</rscale>
<asrwt>0</asrwt>
<pdfrwt beam="1">  1        4 0.11022214E-02 0.12500017E+03</pdfrwt>
<pdfrwt beam="2">  1       -4 0.83881399E-01 0.12500017E+03</pdfrwt>
<totfact> 0.52017311E+03</totfact>
</mgrwt>
</event>
<event>
 5    1  0.3179758E-002  0.1250002E+03  0.7818608E-02  0.1235069E+00
          4   -1    0    0  501    0  0.00000000000E+00  0.00000000000E+00  0.40880453971E+03  0.40880651241E+03  0.12700000000E+01 0. -1.
         -4   -1    0    0    0  501 -0.00000000000E+00 -0.00000000000E+00 -0.95111258882E+01  0.95955414470E+01  0.12700000000E+01 0. -1.
         25    2    1    2    0    0  0.00000000000E+00  0.00000000000E+00  0.39929341382E+03  0.41840205385E+03  0.12500019340E+03 0.  0.
    9000005    1    3    3    0    0  0.31156209823E+02  0.34133071567E+01  0.18683513792E+02  0.36502517227E+02  0.10000000000E+01 0.  0.
    9000005    1    3    3    0    0 -0.31156209823E+02 -0.34133071567E+01  0.38060990003E+03  0.38189953663E+03  0.10000000000E+01 0.  0.
<mgrwt>
<rscale>  0 0.12500019E+03</rscale>
<asrwt>0</asrwt>
<pdfrwt beam="1">  1        4 0.62899637E-01 0.12500019E+03</pdfrwt>
<pdfrwt beam="2">  1       -4 0.14698957E-02 0.12500019E+03</pdfrwt>
<totfact> 0.62801270E+03</totfact>
</mgrwt>
</event>
<event>
 5    1  0.3179758E-002  0.1250045E+03  0.7818608E-02  0.1235062E+00
         -4   -1    0    0    0  501 -0.00000000000E+00  0.00000000000E+00  0.28313879058E+02  0.28342347244E+02  0.12700000000E+01 0.  1.
          4   -1    0    0  501    0  0.00000000000E+00 -0.00000000000E+00 -0.13787154879E+03  0.13787739795E+03  0.12700000000E+01 0.  1.
         25    2    1    2    0    0  0.00000000000E+00  0.00000000000E+00 -0.10955766973E+03  0.16621974520E+03  0.12500448270E+03 0.  0.
    9000005    1    3    3    0    0 -0.34308102609E+02 -0.46416545313E+02 -0.86636112096E+02  0.10410743250E+03  0.10000000000E+01 0.  0.
    9000005    1    3    3    0    0  0.34308102609E+02  0.46416545313E+02 -0.22921557636E+02  0.62112312691E+02  0.10000000000E+01 0.  0.
<mgrwt>
<rscale>  0 0.12500448E+03</rscale>
<asrwt>0</asrwt>
<pdfrwt beam="2">  1        4 0.21213647E-01 0.12500448E+03</pdfrwt>
<pdfrwt beam="1">  1       -4 0.43586213E-02 0.12500448E+03</pdfrwt>
<totfact> 0.96147208E+03</totfact>
</mgrwt>
</event>
<event>
 5    1  0.3179758E-002  0.1250045E+03  0.7818608E-02  0.1235062E+00
         -4   -1    0    0    0  501 -0.00000000000E+00  0.00000000000E+00  0.46055473023E+02  0.46072980101E+02  0.12700000000E+01 0. -1.
          4   -1    0    0  501    0  0.00000000000E+00 -0.00000000000E+00 -0.84783952693E+02  0.84793463983E+02  0.12700000000E+01 0. -1.
         25    2    1    2    0    0  0.00000000000E+00  0.00000000000E+00 -0.38728479670E+02  0.13086644408E+03  0.12500452412E+03 0.  0.
    9000005    1    3    3    0    0  0.24740354600E+02 -0.14420292592E+02 -0.77516358445E+02  0.82642699682E+02  0.10000000000E+01 0.  0.
    9000005    1    3    3    0    0 -0.24740354600E+02  0.14420292592E+02  0.38787878776E+02  0.48223744401E+02  0.10000000000E+01 0.  0.
<mgrwt>
<rscale>  0 0.12500452E+03</rscale>
<asrwt>0</asrwt>
<pdfrwt beam="2">  1        4 0.13045763E-01 0.12500452E+03</pdfrwt>
<pdfrwt beam="1">  1       -4 0.70875357E-02 0.12500452E+03</pdfrwt>
<totfact> 0.10324899E+04</totfact>
</mgrwt>
</event>
<event>
 5    1  0.3179758E-002  0.1250021E+03  0.7818608E-02  0.1235066E+00
          4   -1    0    0  501    0  0.00000000000E+00  0.00000000000E+00  0.72468915820E+02  0.72480043185E+02  0.12700000000E+01 0. -1.
         -4   -1    0    0    0  501 -0.00000000000E+00 -0.00000000000E+00 -0.53881496769E+02  0.53896461795E+02  0.12700000000E+01 0. -1.
         25    2    1    2    0    0  0.00000000000E+00  0.00000000000E+00  0.18587419051E+02  0.12637650498E+03  0.12500211544E+03 0.  0.
    9000005    1    3    3    0    0  0.57500716625E+02  0.17552931557E+02 -0.79509243050E+01  0.60651916836E+02  0.10000000000E+01 0.  0.
    9000005    1    3    3    0    0 -0.57500716625E+02 -0.17552931557E+02  0.26538343356E+02  0.65724588144E+02  0.10000000000E+01 0.  0.
<mgrwt>
<rscale>  0 0.12500212E+03</rscale>
<asrwt>0</asrwt>
<pdfrwt beam="1">  1        4 0.11151071E-01 0.12500212E+03</pdfrwt>
<pdfrwt beam="2">  1       -4 0.82914681E-02 0.12500212E+03</pdfrwt>
<totfact> 0.10422225E+04</totfact>
</mgrwt>
</event>
<event>
 5    1  0.3179758E-002  0.1250024E+03  0.7818608E-02  0.1235066E+00
          4   -1    0    0  501    0  0.00000000000E+00  0.00000000000E+00  0.88812028771E+02  0.88821108721E+02  0.12700000000E+01 0. -1.
         -4   -1    0    0    0  501 -0.00000000000E+00 -0.00000000000E+00 -0.43964547829E+02  0.43982887193E+02  0.12700000000E+01 0. -1.
         25    2    1    2    0    0  0.00000000000E+00  0.00000000000E+00  0.44847480942E+02  0.13280399591E+03  0.12500241911E+03 0.  0.
    9000005    1    3    3    0    0  0.26527147924E+01  0.62057654601E+02  0.29723659284E+02  0.68867156988E+02  0.10000000000E+01 0.  0.
    9000005    1    3    3    0    0 -0.26527147924E+01 -0.62057654601E+02  0.15123821658E+02  0.63936838926E+02  0.10000000000E+01 0.  0.
<mgrwt>
<rscale>  0 0.12500242E+03</rscale>
<asrwt>0</asrwt>
<pdfrwt beam="1">  1        4 0.13665498E-01 0.12500242E+03</pdfrwt>
<pdfrwt beam="2">  1       -4 0.67658858E-02 0.12500242E+03</pdfrwt>
<totfact> 0.10284006E+04</totfact>
</mgrwt>
</event>
<event>
 5    1  0.3179758E-002  0.1250022E+03  0.7818608E-02  0.1235066E+00
          4   -1    0    0  501    0  0.00000000000E+00  0.00000000000E+00  0.16809060324E+03  0.16809540089E+03  0.12700000000E+01 0.  1.
         -4   -1    0    0    0  501 -0.00000000000E+00 -0.00000000000E+00 -0.23217295289E+02  0.23252004227E+02  0.12700000000E+01 0.  1.
         25    2    1    2    0    0  0.00000000000E+00  0.00000000000E+00  0.14487330795E+03  0.19134740511E+03  0.12500221632E+03 0.  0.
    9000005    1    3    3    0    0  0.41032132897E+02  0.34214505940E+02  0.12206514263E+03  0.13324851741E+03  0.10000000000E+01 0.  0.
    9000005    1    3    3    0    0 -0.41032132897E+02 -0.34214505940E+02  0.22808165326E+02  0.58098887703E+02  0.10000000000E+01 0.  0.
<mgrwt>
<rscale>  0 0.12500222E+03</rscale>
<asrwt>0</asrwt>
<pdfrwt beam="1">  1        4 0.25863132E-01 0.12500222E+03</pdfrwt>
<pdfrwt beam="2">  1       -4 0.35749305E-02 0.12500222E+03</pdfrwt>
<totfact> 0.91608850E+03</totfact>
</mgrwt>
</event>
<event>
 5    1  0.3179758E-002  0.1249986E+03  0.7818608E-02  0.1235071E+00
         -4   -1    0    0    0  501 -0.00000000000E+00  0.00000000000E+00  0.28475784891E+02  0.28504091376E+02  0.12700000000E+01 0.  1.
          4   -1    0    0  501    0  0.00000000000E+00 -0.00000000000E+00 -0.13707557941E+03  0.13708146253E+03  0.12700000000E+01 0.  1.
         25    2    1    2    0    0  0.00000000000E+00  0.00000000000E+00 -0.10859979451E+03  0.16558555391E+03  0.12499864117E+03 0.  0.
    9000005    1    3    3    0    0 -0.19400158308E+02  0.10077221455E+02 -0.13185135277E+03  0.13365513743E+03  0.10000000000E+01 0.  0.
    9000005    1    3    3    0    0  0.19400158308E+02 -0.10077221455E+02  0.23251558258E+02  0.31930416472E+02  0.10000000000E+01 0.  0.
<mgrwt>
<rscale>  0 0.12499864E+03</rscale>
<asrwt>0</asrwt>
<pdfrwt beam="2">  1        4 0.21091180E-01 0.12499864E+03</pdfrwt>
<pdfrwt beam="1">  1       -4 0.43835200E-02 0.12499864E+03</pdfrwt>
<totfact> 0.96279551E+03</totfact>
</mgrwt>
</event>
<event>
 5    1  0.3179758E-002  0.1250019E+03  0.7818608E-02  0.1235066E+00
         -4   -1    0    0    0  501 -0.00000000000E+00  0.00000000000E+00  0.78287045696E+03  0.78287148708E+03  0.12700000000E+01 0.  1.
          4   -1    0    0  501    0  0.00000000000E+00 -0.00000000000E+00 -0.49079452586E+01  0.50695982742E+01  0.12700000000E+01 0.  1.
         25    2    1    2    0    0  0.00000000000E+00  0.00000000000E+00  0.77796251170E+03  0.78794108535E+03  0.12500193748E+03 0.  0.
    9000005    1    3    3    0    0  0.27961064105E+02  0.45016004223E+02  0.18019497397E+03  0.18782835352E+03  0.10000000000E+01 0.  0.
    9000005    1    3    3    0    0 -0.27961064105E+02 -0.45016004223E+02  0.59776753773E+03  0.60011273183E+03  0.10000000000E+01 0.  0.
<mgrwt>
<rscale>  0 0.12500194E+03</rscale>
<asrwt>0</asrwt>
<pdfrwt beam="2">  1        4 0.76758332E-03 0.12500194E+03</pdfrwt>
<pdfrwt beam="1">  1       -4 0.12045401E+00 0.12500194E+03</pdfrwt>
<totfact> 0.38807162E+03</totfact>
</mgrwt>
</event>
<event>
 5    1  0.3179758E-002  0.1250042E+03  0.7818608E-02  0.1235063E+00
          4   -1    0    0  501    0  0.00000000000E+00  0.00000000000E+00  0.14530897911E+03  0.14531452890E+03  0.12700000000E+01 0.  1.
         -4   -1    0    0    0  501 -0.00000000000E+00 -0.00000000000E+00 -0.26863098433E+02  0.26893102414E+02  0.12700000000E+01 0.  1.
         25    2    1    2    0    0  0.00000000000E+00  0.00000000000E+00  0.11844588068E+03  0.17220763132E+03  0.12500416647E+03 0.  0.
    9000005    1    3    3    0    0  0.16300287836E+02 -0.48230548867E+02  0.10915317844E+03  0.12044626018E+03  0.10000000000E+01 0.  0.
    9000005    1    3    3    0    0 -0.16300287836E+02  0.48230548867E+02  0.92927022440E+01  0.51761371143E+02  0.10000000000E+01 0.  0.
<mgrwt>
<rscale>  0 0.12500417E+03</rscale>
<asrwt>0</asrwt>
<pdfrwt beam="1">  1        4 0.22357962E-01 0.12500417E+03</pdfrwt>
<pdfrwt beam="2">  1       -4 0.41355194E-02 0.12500417E+03</pdfrwt>
<totfact> 0.95029874E+03</totfact>
</mgrwt>
</event>
<event>
 5    1  0.3179758E-002  0.1250019E+03  0.7818608E-02  0.1235066E+00
          4   -1    0    0  501    0  0.00000000000E+00  0.00000000000E+00  0.10987870154E+02  0.11061021224E+02  0.12700000000E+01 0. -1.
         -4   -1    0    0    0  501 -0.00000000000E+00 -0.00000000000E+00 -0.35426287646E+03  0.35426515287E+03  0.12700000000E+01 0. -1.
         25    2    1    2    0    0  0.00000000000E+00  0.00000000000E+00 -0.34327500631E+03  0.36532617410E+03  0.12500193408E+03 0.  0.
    9000005    1    3    3    0    0  0.34346767630E+02  0.51954462783E+02 -0.18665511306E+03  0.19677423073E+03  0.10000000000E+01 0.  0.
    9000005    1    3    3    0    0 -0.34346767630E+02 -0.51954462783E+02 -0.15661989325E+03  0.16855194336E+03  0.10000000000E+01 0.  0.
<mgrwt>
<rscale>  0 0.12500193E+03</rscale>
<asrwt>0</asrwt>
<pdfrwt beam="1">  1        4 0.16962439E-02 0.12500193E+03</pdfrwt>
<pdfrwt beam="2">  1       -4 0.54507774E-01 0.12500193E+03</pdfrwt>
<totfact> 0.68067850E+03</totfact>
</mgrwt>
</event>
<event>
 5    1  0.3179758E-002  0.1249945E+03  0.7818608E-02  0.1235078E+00
          4   -1    0    0  501    0  0.00000000000E+00  0.00000000000E+00  0.91507388895E+03  0.91507477025E+03  0.12700000000E+01 0.  1.
         -4   -1    0    0    0  501 -0.00000000000E+00 -0.00000000000E+00 -0.41730317577E+01  0.43620057372E+01  0.12700000000E+01 0.  1.
         25    2    1    2    0    0  0.00000000000E+00  0.00000000000E+00  0.91090085720E+03  0.91943677599E+03  0.12499445345E+03 0.  0.
    9000005    1    3    3    0    0  0.23782072172E+02 -0.25820078779E+02  0.83572856306E+03  0.83646607495E+03  0.10000000000E+01 0.  0.
    9000005    1    3    3    0    0 -0.23782072172E+02  0.25820078779E+02  0.75172294138E+02  0.82970701039E+02  0.10000000000E+01 0.  0.
<mgrwt>
<rscale>  0 0.12499445E+03</rscale>
<asrwt>0</asrwt>
<pdfrwt beam="1">  1        4 0.14079534E+00 0.12499445E+03</pdfrwt>
<pdfrwt beam="2">  1       -4 0.65660852E-03 0.12499445E+03</pdfrwt>
<totfact> 0.33430524E+03</totfact>
</mgrwt>
</event>
<event>
 5    1  0.3179758E-002  0.1250002E+03  0.7818608E-02  0.1235069E+00
         -4   -1    0    0    0  501 -0.00000000000E+00  0.00000000000E+00  0.17163557663E+03  0.17164027518E+03  0.12700000000E+01 0. -1.
          4   -1    0    0  501    0  0.00000000000E+00 -0.00000000000E+00 -0.22736311771E+02  0.22771753840E+02  0.12700000000E+01 0. -1.
         25    2    1    2    0    0  0.00000000000E+00  0.00000000000E+00  0.14889926486E+03  0.19441202902E+03  0.12500018381E+03 0.  0.
    9000005    1    3    3    0    0  0.25175515946E+02  0.51773527734E+02  0.36641056852E+02  0.68248603095E+02  0.10000000000E+01 0.  0.
    9000005    1    3    3    0    0 -0.25175515946E+02 -0.51773527734E+02  0.11225820801E+03  0.12616342593E+03  0.10000000000E+01 0.  0.
<mgrwt>
<rscale>  0 0.12500018E+03</rscale>
<asrwt>0</asrwt>
<pdfrwt beam="2">  1        4 0.35009819E-02 0.12500018E+03</pdfrwt>
<pdfrwt beam="1">  1       -4 0.26408560E-01 0.12500018E+03</pdfrwt>
<totfact> 0.91084878E+03</totfact>
</mgrwt>
</event>
<event>
 5    1  0.3179758E-002  0.1249951E+03  0.7818608E-02  0.1235077E+00
         -4   -1    0    0    0  501 -0.00000000000E+00  0.00000000000E+00  0.80458390330E+02  0.80468412899E+02  0.12700000000E+01 0. -1.
          4   -1    0    0  501    0  0.00000000000E+00 -0.00000000000E+00 -0.48524774331E+02  0.48541390832E+02  0.12700000000E+01 0. -1.
         25    2    1    2    0    0  0.00000000000E+00  0.00000000000E+00  0.31933615999E+02  0.12900980373E+03  0.12499509442E+03 0.  0.
    9000005    1    3    3    0    0 -0.47468714454E+02 -0.33589669955E+02 -0.76459129782E+01  0.58660078119E+02  0.10000000000E+01 0.  0.
    9000005    1    3    3    0    0  0.47468714454E+02  0.33589669955E+02  0.39579528977E+02  0.70349725612E+02  0.10000000000E+01 0.  0.
<mgrwt>
<rscale>  0 0.12499509E+03</rscale>
<asrwt>0</asrwt>
<pdfrwt beam="2">  1        4 0.74673991E-02 0.12499509E+03</pdfrwt>
<pdfrwt beam="1">  1       -4 0.12380263E-01 0.12499509E+03</pdfrwt>
<totfact> 0.10366884E+04</totfact>
</mgrwt>
</event>
<event>
 5    1  0.3179758E-002  0.1250048E+03  0.7818608E-02  0.1235062E+00
          4   -1    0    0  501    0  0.00000000000E+00  0.00000000000E+00  0.93546321004E+03  0.93546407213E+03  0.12700000000E+01 0. -1.
         -4   -1    0    0    0  501 -0.00000000000E+00 -0.00000000000E+00 -0.40786211108E+01  0.42717736557E+01  0.12700000000E+01 0. -1.
         25    2    1    2    0    0  0.00000000000E+00  0.00000000000E+00  0.93138458893E+03  0.93973584579E+03  0.12500482931E+03 0.  0.
    9000005    1    3    3    0    0 -0.61039690256E+02  0.10176802216E+02  0.40009475168E+03  0.40485333321E+03  0.10000000000E+01 0.  0.
    9000005    1    3    3    0    0  0.61039690256E+02 -0.10176802216E+02  0.53128983725E+03  0.53488251257E+03  0.10000000000E+01 0.  0.
<mgrwt>
<rscale>  0 0.12500483E+03</rscale>
<asrwt>0</asrwt>
<pdfrwt beam="1">  1        4 0.14393243E+00 0.12500483E+03</pdfrwt>
<pdfrwt beam="2">  1       -4 0.64240396E-03 0.12500483E+03</pdfrwt>
<totfact> 0.32679751E+03</totfact>
</mgrwt>
</event>
<event>
 5    1  0.3179758E-002  0.1250097E+03  0.7818608E-02  0.1235054E+00
         -4   -1    0    0    0  501 -0.00000000000E+00  0.00000000000E+00  0.98672482948E+02  0.98680655608E+02  0.12700000000E+01 0. -1.
          4   -1    0    0  501    0  0.00000000000E+00 -0.00000000000E+00 -0.39574158963E+02  0.39594531916E+02  0.12700000000E+01 0. -1.
         25    2    1    2    0    0  0.00000000000E+00  0.00000000000E+00  0.59098323985E+02  0.13827518752E+03  0.12500966197E+03 0.  0.
    9000005    1    3    3    0    0 -0.36634422768E+02 -0.28583061807E+02  0.75778744612E+02  0.88895953163E+02  0.10000000000E+01 0.  0.
    9000005    1    3    3    0    0  0.36634422768E+02  0.28583061807E+02 -0.16680420627E+02  0.49379234361E+02  0.10000000000E+01 0.  0.
<mgrwt>
<rscale>  0 0.12500966E+03</rscale>
<asrwt>0</asrwt>
<pdfrwt beam="2">  1        4 0.60905281E-02 0.12500966E+03</pdfrwt>
<pdfrwt beam="1">  1       -4 0.15182578E-01 0.12500966E+03</pdfrwt>
<totfact> 0.10167245E+04</totfact>
</mgrwt>
</event>
<event>
 5    1  0.3179758E-002  0.1249993E+03  0.7818608E-02  0.1235070E+00
          4   -1    0    0  501    0  0.00000000000E+00  0.00000000000E+00  0.75076673346E+01  0.76143265498E+01  0.12700000000E+01 0. -1.
         -4   -1    0    0    0  501 -0.00000000000E+00 -0.00000000000E+00 -0.51651808144E+03  0.51651964276E+03  0.12700000000E+01 0. -1.
         25    2    1    2    0    0  0.00000000000E+00  0.00000000000E+00 -0.50901041410E+03  0.52413396931E+03  0.12499926445E+03 0.  0.
    9000005    1    3    3    0    0 -0.60965873882E+01  0.57990974851E+02 -0.34874102508E+03  0.35358368757E+03  0.10000000000E+01 0.  0.
    9000005    1    3    3    0    0  0.60965873882E+01 -0.57990974851E+02 -0.16026938902E+03  0.17055028173E+03  0.10000000000E+01 0.  0.
<mgrwt>
<rscale>  0 0.12499926E+03</rscale>
<asrwt>0</asrwt>
<pdfrwt beam="1">  1        4 0.11633508E-02 0.12499926E+03</pdfrwt>
<pdfrwt beam="2">  1       -4 0.79472617E-01 0.12499926E+03</pdfrwt>
<totfact> 0.54040196E+03</totfact>
</mgrwt>
</event>
<event>
 5    1  0.3179758E-002  0.1249957E+03  0.7818608E-02  0.1235076E+00
         -4   -1    0    0    0  501 -0.00000000000E+00  0.00000000000E+00  0.15133109736E+03  0.15133642631E+03  0.12700000000E+01 0.  1.
          4   -1    0    0  501    0  0.00000000000E+00 -0.00000000000E+00 -0.25789409622E+02  0.25820661274E+02  0.12700000000E+01 0.  1.
         25    2    1    2    0    0  0.00000000000E+00  0.00000000000E+00  0.12554168774E+03  0.17715708758E+03  0.12499567321E+03 0.  0.
    9000005    1    3    3    0    0  0.32947717592E+02  0.46635577249E+02  0.98753399048E+02  0.11407744292E+03  0.10000000000E+01 0.  0.
    9000005    1    3    3    0    0 -0.32947717592E+02 -0.46635577249E+02  0.26788288690E+02  0.63079644663E+02  0.10000000000E+01 0.  0.
<mgrwt>
<rscale>  0 0.12499567E+03</rscale>
<asrwt>0</asrwt>
<pdfrwt beam="2">  1        4 0.39704154E-02 0.12499567E+03</pdfrwt>
<pdfrwt beam="1">  1       -4 0.23284521E-01 0.12499567E+03</pdfrwt>
<totfact> 0.94140389E+03</totfact>
</mgrwt>
</event>
<event>
 5    1  0.3179758E-002  0.1250016E+03  0.7818608E-02  0.1235067E+00
          4   -1    0    0  501    0  0.00000000000E+00  0.00000000000E+00  0.49219744276E+01  0.50831813135E+01  0.12700000000E+01 0.  1.
         -4   -1    0    0    0  501 -0.00000000000E+00 -0.00000000000E+00 -0.78070517683E+03  0.78070620981E+03  0.12700000000E+01 0.  1.
         25    2    1    2    0    0  0.00000000000E+00  0.00000000000E+00 -0.77578320241E+03  0.78578939112E+03  0.12500156025E+03 0.  0.
    9000005    1    3    3    0    0 -0.30030735233E+02 -0.42971224588E+02 -0.60171388386E+03  0.60399417980E+03  0.10000000000E+01 0.  0.
    9000005    1    3    3    0    0  0.30030735233E+02  0.42971224588E+02 -0.17406931855E+03  0.18179521132E+03  0.10000000000E+01 0.  0.
<mgrwt>
<rscale>  0 0.12500156E+03</rscale>
<asrwt>0</asrwt>
<pdfrwt beam="1">  1        4 0.76970744E-03 0.12500156E+03</pdfrwt>
<pdfrwt beam="2">  1       -4 0.12012087E+00 0.12500156E+03</pdfrwt>
<totfact> 0.38905755E+03</totfact>
</mgrwt>
</event>
<event>
 5    1  0.3179758E-002  0.1250043E+03  0.7818608E-02  0.1235063E+00
         -4   -1    0    0    0  501 -0.00000000000E+00  0.00000000000E+00  0.70445695339E+01  0.71581324323E+01  0.12700000000E+01 0.  1.
          4   -1    0    0  501    0  0.00000000000E+00 -0.00000000000E+00 -0.54999468097E+03  0.54999614726E+03  0.12700000000E+01 0.  1.
         25    2    1    2    0    0  0.00000000000E+00  0.00000000000E+00 -0.54295011144E+03  0.55715427969E+03  0.12500427139E+03 0.  0.
    9000005    1    3    3    0    0 -0.54381274224E+02  0.28041976163E+02 -0.21477341363E+03  0.22332105726E+03  0.10000000000E+01 0.  0.
    9000005    1    3    3    0    0  0.54381274224E+02 -0.28041976163E+02 -0.32817669781E+03  0.33383322243E+03  0.10000000000E+01 0.  0.
<mgrwt>
<rscale>  0 0.12500427E+03</rscale>
<asrwt>0</asrwt>
<pdfrwt beam="2">  1        4 0.84623381E-01 0.12500427E+03</pdfrwt>
<pdfrwt beam="1">  1       -4 0.10926288E-02 0.12500427E+03</pdfrwt>
<totfact> 0.51684052E+03</totfact>
</mgrwt>
</event>
<event>
 5    1  0.3179758E-002  0.1250001E+03  0.7818608E-02  0.1235069E+00
          4   -1    0    0  501    0  0.00000000000E+00  0.00000000000E+00  0.23080034078E+03  0.23080383490E+03  0.12700000000E+01 0.  1.
         -4   -1    0    0    0  501 -0.00000000000E+00 -0.00000000000E+00 -0.16897376309E+02  0.16945035442E+02  0.12700000000E+01 0.  1.
         25    2    1    2    0    0  0.00000000000E+00  0.00000000000E+00  0.21390296447E+03  0.24774887034E+03  0.12500009818E+03 0.  0.
    9000005    1    3    3    0    0 -0.21455979551E+02  0.43836727449E+02  0.18430592629E+03  0.19066119741E+03  0.10000000000E+01 0.  0.
    9000005    1    3    3    0    0  0.21455979551E+02 -0.43836727449E+02  0.29597038186E+02  0.57087672937E+02  0.10000000000E+01 0.  0.
<mgrwt>
<rscale>  0 0.12500010E+03</rscale>
<asrwt>0</asrwt>
<pdfrwt beam="1">  1        4 0.35511677E-01 0.12500010E+03</pdfrwt>
<pdfrwt beam="2">  1       -4 0.26035314E-02 0.12500010E+03</pdfrwt>
<totfact> 0.82656499E+03</totfact>
</mgrwt>
</event>
<event>
 5    1  0.3179758E-002  0.1250033E+03  0.7818608E-02  0.1235064E+00
          4   -1    0    0  501    0  0.00000000000E+00  0.00000000000E+00  0.27267171395E+01  0.30079704718E+01  0.12700000000E+01 0.  1.
         -4   -1    0    0    0  501 -0.00000000000E+00 -0.00000000000E+00 -0.13621132553E+04  0.13621138473E+04  0.12700000000E+01 0.  1.
         25    2    1    2    0    0  0.00000000000E+00  0.00000000000E+00 -0.13593865381E+04  0.13651218178E+04  0.12500326949E+03 0.  0.
    9000005    1    3    3    0    0  0.21136537061E+02  0.47532589361E+02 -0.10578952043E+04  0.10591739061E+04  0.10000000000E+01 0.  0.
    9000005    1    3    3    0    0 -0.21136537061E+02 -0.47532589361E+02 -0.30149133387E+03  0.30594791166E+03  0.10000000000E+01 0.  0.
<mgrwt>
<rscale>  0 0.12500327E+03</rscale>
<asrwt>0</asrwt>
<pdfrwt beam="1">  1        4 0.44117645E-03 0.12500327E+03</pdfrwt>
<pdfrwt beam="2">  1       -4 0.20957705E+00 0.12500327E+03</pdfrwt>
<totfact> 0.20740188E+03</totfact>
</mgrwt>
</event>
<event>
 5    1  0.3179758E-002  0.1249997E+03  0.7818608E-02  0.1235070E+00
         -4   -1    0    0    0  501 -0.00000000000E+00  0.00000000000E+00  0.23094458505E+01  0.26356100122E+01  0.12700000000E+01 0.  1.
          4   -1    0    0  501    0  0.00000000000E+00 -0.00000000000E+00 -0.15795268742E+04  0.15795273847E+04  0.12700000000E+01 0.  1.
         25    2    1    2    0    0  0.00000000000E+00  0.00000000000E+00 -0.15772174283E+04  0.15821629947E+04  0.12499970300E+03 0.  0.
    9000005    1    3    3    0    0  0.49287141356E+02  0.29287555345E+02 -0.11033282373E+04  0.11048172620E+04  0.10000000000E+01 0.  0.
    9000005    1    3    3    0    0 -0.49287141356E+02 -0.29287555345E+02 -0.47388919103E+03  0.47734573275E+03  0.10000000000E+01 0.  0.
<mgrwt>
<rscale>  0 0.12499970E+03</rscale>
<asrwt>0</asrwt>
<pdfrwt beam="2">  1        4 0.24302846E+00 0.12499970E+03</pdfrwt>
<pdfrwt beam="1">  1       -4 0.38042945E-03 0.12499970E+03</pdfrwt>
<totfact> 0.16370851E+03</totfact>
</mgrwt>
</event>
<event>
 5    1  0.3179758E-002  0.1249981E+03  0.7818608E-02  0.1235072E+00
          4   -1    0    0  501    0  0.00000000000E+00  0.00000000000E+00  0.14774033734E+02  0.14828518900E+02  0.12700000000E+01 0. -1.
         -4   -1    0    0    0  501 -0.00000000000E+00 -0.00000000000E+00 -0.26384902884E+03  0.26385208531E+03  0.12700000000E+01 0. -1.
         25    2    1    2    0    0  0.00000000000E+00  0.00000000000E+00 -0.24907499511E+03  0.27868060421E+03  0.12499810388E+03 0.  0.
    9000005    1    3    3    0    0 -0.13372978472E+02 -0.14067889795E+02 -0.25696908157E+03  0.25770302862E+03  0.10000000000E+01 0.  0.
    9000005    1    3    3    0    0  0.13372978472E+02  0.14067889795E+02  0.78940864619E+01  0.20977575589E+02  0.10000000000E+01 0.  0.
<mgrwt>
<rscale>  0 0.12499810E+03</rscale>
<asrwt>0</asrwt>
<pdfrwt beam="1">  1        4 0.22773547E-02 0.12499810E+03</pdfrwt>
<pdfrwt beam="2">  1       -4 0.40596581E-01 0.12499810E+03</pdfrwt>
<totfact> 0.78356678E+03</totfact>
</mgrwt>
</event>
<event>
 5    1  0.3179758E-002  0.1249999E+03  0.7818608E-02  0.1235069E+00
          4   -1    0    0  501    0  0.00000000000E+00  0.00000000000E+00  0.68385019663E+02  0.68396811434E+02  0.12700000000E+01 0. -1.
         -4   -1    0    0    0  501 -0.00000000000E+00 -0.00000000000E+00 -0.57097583350E+02  0.57111705669E+02  0.12700000000E+01 0. -1.
         25    2    1    2    0    0  0.00000000000E+00  0.00000000000E+00  0.11287436313E+02  0.12550851710E+03  0.12499992659E+03 0.  0.
    9000005    1    3    3    0    0  0.43185469244E+02 -0.57223827773E+01 -0.39343883310E+02  0.58708360328E+02  0.10000000000E+01 0.  0.
    9000005    1    3    3    0    0 -0.43185469244E+02  0.57223827773E+01  0.50631319623E+02  0.66800156776E+02  0.10000000000E+01 0.  0.
<mgrwt>
<rscale>  0 0.12499993E+03</rscale>
<asrwt>0</asrwt>
<pdfrwt beam="1">  1        4 0.10522766E-01 0.12499993E+03</pdfrwt>
<pdfrwt beam="2">  1       -4 0.87862370E-02 0.12499993E+03</pdfrwt>
<totfact> 0.10441783E+04</totfact>
</mgrwt>
</event>
<event>
 5    1  0.3179758E-002  0.1249985E+03  0.7818608E-02  0.1235072E+00
         -4   -1    0    0    0  501 -0.00000000000E+00  0.00000000000E+00  0.92833657882E+02  0.92842344519E+02  0.12700000000E+01 0. -1.
          4   -1    0    0  501    0  0.00000000000E+00 -0.00000000000E+00 -0.42056666752E+02  0.42075837701E+02  0.12700000000E+01 0. -1.
         25    2    1    2    0    0  0.00000000000E+00  0.00000000000E+00  0.50776991130E+02  0.13491818222E+03  0.12499845225E+03 0.  0.
    9000005    1    3    3    0    0 -0.17347404767E+02 -0.22974404176E+02 -0.34478446477E+02  0.44927930854E+02  0.10000000000E+01 0.  0.
    9000005    1    3    3    0    0  0.17347404767E+02  0.22974404176E+02  0.85255437607E+02  0.89990251366E+02  0.10000000000E+01 0.  0.
<mgrwt>
<rscale>  0 0.12499845E+03</rscale>
<asrwt>0</asrwt>
<pdfrwt beam="2">  1        4 0.64723994E-02 0.12499845E+03</pdfrwt>
<pdfrwt beam="1">  1       -4 0.14284244E-01 0.12499845E+03</pdfrwt>
<totfact> 0.10240153E+04</totfact>
</mgrwt>
</event>
<event>
 5    1  0.3179758E-002  0.1249925E+03  0.7818608E-02  0.1235081E+00
          4   -1    0    0  501    0  0.00000000000E+00  0.00000000000E+00  0.19385556379E+03  0.19385972380E+03  0.12700000000E+01 0.  1.
         -4   -1    0    0    0  501 -0.00000000000E+00 -0.00000000000E+00 -0.20123492753E+02  0.20163527980E+02  0.12700000000E+01 0.  1.
         25    2    1    2    0    0  0.00000000000E+00  0.00000000000E+00  0.17373207103E+03  0.21402325178E+03  0.12499247896E+03 0.  0.
    9000005    1    3    3    0    0  0.51672492363E+02  0.13064049737E+02  0.31011175266E+02  0.61671783287E+02  0.10000000000E+01 0.  0.
    9000005    1    3    3    0    0 -0.51672492363E+02 -0.13064049737E+02  0.14272089577E+03  0.15235146849E+03  0.10000000000E+01 0.  0.
<mgrwt>
<rscale>  0 0.12499248E+03</rscale>
<asrwt>0</asrwt>
<pdfrwt beam="1">  1        4 0.29827332E-01 0.12499248E+03</pdfrwt>
<pdfrwt beam="2">  1       -4 0.30993217E-02 0.12499248E+03</pdfrwt>
<totfact> 0.87837781E+03</totfact>
</mgrwt>
</event>
<event>
 5    1  0.3179758E-002  0.1249983E+03  0.7818608E-02  0.1235072E+00
          4   -1    0    0  501    0  0.00000000000E+00  0.00000000000E+00  0.55773555349E+01  0.57201219185E+01  0.12700000000E+01 0.  1.
         -4   -1    0    0    0  501 -0.00000000000E+00 -0.00000000000E+00 -0.69136379405E+03  0.69136496051E+03  0.12700000000E+01 0.  1.
         25    2    1    2    0    0  0.00000000000E+00  0.00000000000E+00 -0.68578643852E+03  0.69708508243E+03  0.12499829157E+03 0.  0.
    9000005    1    3    3    0    0 -0.24150901561E+02  0.27544387567E+02 -0.60553749864E+02  0.70779346954E+02  0.10000000000E+01 0.  0.
    9000005    1    3    3    0    0  0.24150901561E+02 -0.27544387567E+02 -0.62523268865E+03  0.62630573548E+03  0.10000000000E+01 0.  0.
<mgrwt>
<rscale>  0 0.12499829E+03</rscale>
<asrwt>0</asrwt>
<pdfrwt beam="1">  1        4 0.86912700E-03 0.12499829E+03</pdfrwt>
<pdfrwt beam="2">  1       -4 0.10637467E+00 0.12499829E+03</pdfrwt>
<totfact> 0.43242648E+03</totfact>
</mgrwt>
</event>
<event>
 5    1  0.3179758E-002  0.1250036E+03  0.7818608E-02  0.1235064E+00
         -4   -1    0    0    0  501 -0.00000000000E+00  0.00000000000E+00  0.10386598558E+02  0.10463953823E+02  0.12700000000E+01 0.  1.
          4   -1    0    0  501    0  0.00000000000E+00 -0.00000000000E+00 -0.37463351621E+03  0.37463566884E+03  0.12700000000E+01 0.  1.
         25    2    1    2    0    0  0.00000000000E+00  0.00000000000E+00 -0.36424691765E+03  0.38509962267E+03  0.12500360938E+03 0.  0.
    9000005    1    3    3    0    0 -0.52788906816E+01  0.43931677769E+02 -0.46166239764E+02  0.63954520500E+02  0.10000000000E+01 0.  0.
    9000005    1    3    3    0    0  0.52788906816E+01 -0.43931677769E+02 -0.31808067789E+03  0.32114510217E+03  0.10000000000E+01 0.  0.
<mgrwt>
<rscale>  0 0.12500361E+03</rscale>
<asrwt>0</asrwt>
<pdfrwt beam="2">  1        4 0.57642031E-01 0.12500361E+03</pdfrwt>
<pdfrwt beam="1">  1       -4 0.16040545E-02 0.12500361E+03</pdfrwt>
<totfact> 0.66022989E+03</totfact>
</mgrwt>
</event>
<event>
 5    1  0.3179758E-002  0.1249864E+03  0.7818608E-02  0.1235091E+00
          4   -1    0    0  501    0  0.00000000000E+00  0.00000000000E+00  0.22084342803E+02  0.22120829484E+02  0.12700000000E+01 0.  1.
         -4   -1    0    0    0  501 -0.00000000000E+00 -0.00000000000E+00 -0.17665549064E+03  0.17666005568E+03  0.12700000000E+01 0.  1.
         25    2    1    2    0    0  0.00000000000E+00  0.00000000000E+00 -0.15457114783E+03  0.19878088516E+03  0.12498640151E+03 0.  0.
    9000005    1    3    3    0    0 -0.57313558434E+02  0.13166578441E+02 -0.11088062919E+03  0.12551381079E+03  0.10000000000E+01 0.  0.
    9000005    1    3    3    0    0  0.57313558434E+02 -0.13166578441E+02 -0.43690518641E+02  0.73267074375E+02  0.10000000000E+01 0.  0.
<mgrwt>
<rscale>  0 0.12498640E+03</rscale>
<asrwt>0</asrwt>
<pdfrwt beam="1">  1        4 0.34007491E-02 0.12498640E+03</pdfrwt>
<pdfrwt beam="2">  1       -4 0.27180925E-01 0.12498640E+03</pdfrwt>
<totfact> 0.90369019E+03</totfact>
</mgrwt>
</event>
<event>
 5    1  0.3179758E-002  0.1249868E+03  0.7818608E-02  0.1235090E+00
         -4   -1    0    0    0  501 -0.00000000000E+00  0.00000000000E+00  0.21859963124E+02  0.21896823691E+02  0.12700000000E+01 0.  1.
          4   -1    0    0  501    0  0.00000000000E+00 -0.00000000000E+00 -0.17846690191E+03  0.17847142062E+03  0.12700000000E+01 0.  1.
         25    2    1    2    0    0  0.00000000000E+00  0.00000000000E+00 -0.15660693879E+03  0.20036824431E+03  0.12498679951E+03 0.  0.
    9000005    1    3    3    0    0 -0.28239944825E+02  0.47701439065E+02 -0.12453057674E+03  0.13631502601E+03  0.10000000000E+01 0.  0.
    9000005    1    3    3    0    0  0.28239944825E+02 -0.47701439065E+02 -0.32076362049E+02  0.64053218303E+02  0.10000000000E+01 0.  0.
<mgrwt>
<rscale>  0 0.12498680E+03</rscale>
<asrwt>0</asrwt>
<pdfrwt beam="2">  1        4 0.27459628E-01 0.12498680E+03</pdfrwt>
<pdfrwt beam="1">  1       -4 0.33662544E-02 0.12498680E+03</pdfrwt>
<totfact> 0.90100048E+03</totfact>
</mgrwt>
</event>
<event>
 5    1  0.3179758E-002  0.1249995E+03  0.7818608E-02  0.1235070E+00
          4   -1    0    0  501    0  0.00000000000E+00  0.00000000000E+00  0.12192132705E+02  0.12258099359E+02  0.12700000000E+01 0.  1.
         -4   -1    0    0    0  501 -0.00000000000E+00 -0.00000000000E+00 -0.31945708225E+03  0.31945960668E+03  0.12700000000E+01 0.  1.
         25    2    1    2    0    0  0.00000000000E+00  0.00000000000E+00 -0.30726494955E+03  0.33171770604E+03  0.12499954912E+03 0.  0.
    9000005    1    3    3    0    0  0.26795072623E+02 -0.39604705604E+01 -0.30308274763E+03  0.30429231531E+03  0.10000000000E+01 0.  0.
    9000005    1    3    3    0    0 -0.26795072623E+02  0.39604705604E+01 -0.41822019154E+01  0.27425390732E+02  0.10000000000E+01 0.  0.
<mgrwt>
<rscale>  0 0.12499955E+03</rscale>
<asrwt>0</asrwt>
<pdfrwt beam="1">  1        4 0.18809815E-02 0.12499955E+03</pdfrwt>
<pdfrwt beam="2">  1       -4 0.49152506E-01 0.12499955E+03</pdfrwt>
<totfact> 0.71784517E+03</totfact>
</mgrwt>
</event>
<event>
 5    1  0.3179758E-002  0.1250396E+03  0.7818608E-02  0.1235007E+00
          4   -1    0    0  501    0  0.00000000000E+00  0.00000000000E+00  0.47444542281E+02  0.47461536978E+02  0.12700000000E+01 0. -1.
         -4   -1    0    0    0  501 -0.00000000000E+00 -0.00000000000E+00 -0.82348478995E+02  0.82358271550E+02  0.12700000000E+01 0. -1.
         25    2    1    2    0    0  0.00000000000E+00  0.00000000000E+00 -0.34903936713E+02  0.12981980853E+03  0.12503958528E+03 0.  0.
    9000005    1    3    3    0    0 -0.56944250807E+02 -0.20712032441E+02 -0.33404545065E+02  0.69198985677E+02  0.10000000000E+01 0.  0.
    9000005    1    3    3    0    0  0.56944250807E+02  0.20712032441E+02 -0.14993916484E+01  0.60620822851E+02  0.10000000000E+01 0.  0.
<mgrwt>
<rscale>  0 0.12503959E+03</rscale>
<asrwt>0</asrwt>
<pdfrwt beam="1">  1        4 0.73012209E-02 0.12503959E+03</pdfrwt>
<pdfrwt beam="2">  1       -4 0.12671057E-01 0.12503959E+03</pdfrwt>
<totfact> 0.10339122E+04</totfact>
</mgrwt>
</event>
<event>
 5    1  0.3179758E-002  0.1249987E+03  0.7818608E-02  0.1235071E+00
         -4   -1    0    0    0  501 -0.00000000000E+00  0.00000000000E+00  0.38424176279E+03  0.38424386160E+03  0.12700000000E+01 0. -1.
          4   -1    0    0  501    0  0.00000000000E+00 -0.00000000000E+00 -0.10124110911E+02  0.10203456362E+02  0.12700000000E+01 0. -1.
         25    2    1    2    0    0  0.00000000000E+00  0.00000000000E+00  0.37411765188E+03  0.39444731796E+03  0.12499867677E+03 0.  0.
    9000005    1    3    3    0    0 -0.34921184891E+02  0.50577211032E+02  0.15140964595E+03  0.16341182429E+03  0.10000000000E+01 0.  0.
    9000005    1    3    3    0    0  0.34921184891E+02 -0.50577211032E+02  0.22270800593E+03  0.23103549367E+03  0.10000000000E+01 0.  0.
<mgrwt>
<rscale>  0 0.12499868E+03</rscale>
<asrwt>0</asrwt>
<pdfrwt beam="2">  1        4 0.15638203E-02 0.12499868E+03</pdfrwt>
<pdfrwt beam="1">  1       -4 0.59120390E-01 0.12499868E+03</pdfrwt>
<totfact> 0.65098338E+03</totfact>
</mgrwt>
</event>
<event>
 5    1  0.3179758E-002  0.1249973E+03  0.7818608E-02  0.1235074E+00
          4   -1    0    0  501    0  0.00000000000E+00  0.00000000000E+00  0.33369478483E+02  0.33393637032E+02  0.12700000000E+01 0.  1.
         -4   -1    0    0    0  501 -0.00000000000E+00 -0.00000000000E+00 -0.11698553118E+03  0.11699242456E+03  0.12700000000E+01 0.  1.
         25    2    1    2    0    0  0.00000000000E+00  0.00000000000E+00 -0.83616052697E+02  0.15038606160E+03  0.12499729299E+03 0.  0.
    9000005    1    3    3    0    0  0.77745320809E+01 -0.56954442357E+02 -0.71298544756E+02  0.91590034052E+02  0.10000000000E+01 0.  0.
    9000005    1    3    3    0    0 -0.77745320809E+01  0.56954442357E+02 -0.12317507941E+02  0.58796027545E+02  0.10000000000E+01 0.  0.
<mgrwt>
<rscale>  0 0.12499729E+03</rscale>
<asrwt>0</asrwt>
<pdfrwt beam="1">  1        4 0.51361546E-02 0.12499729E+03</pdfrwt>
<pdfrwt beam="2">  1       -4 0.18000162E-01 0.12499729E+03</pdfrwt>
<totfact> 0.99232843E+03</totfact>
</mgrwt>
</event>
<event>
 5    1  0.3179758E-002  0.1249953E+03  0.7818608E-02  0.1235077E+00
         -4   -1    0    0    0  501 -0.00000000000E+00  0.00000000000E+00  0.99936205183E+02  0.99944274505E+02  0.12700000000E+01 0. -1.
          4   -1    0    0  501    0  0.00000000000E+00 -0.00000000000E+00 -0.39064526663E+02  0.39085165260E+02  0.12700000000E+01 0. -1.
         25    2    1    2    0    0  0.00000000000E+00  0.00000000000E+00  0.60871678520E+02  0.13902943977E+03  0.12499529541E+03 0.  0.
    9000005    1    3    3    0    0  0.91877609568E+01  0.52273077549E+02 -0.62535769374E+01  0.53450882241E+02  0.10000000000E+01 0.  0.
    9000005    1    3    3    0    0 -0.91877609568E+01 -0.52273077549E+02  0.67125255457E+02  0.85578557525E+02  0.10000000000E+01 0.  0.
<mgrwt>
<rscale>  0 0.12499530E+03</rscale>
<asrwt>0</asrwt>
<pdfrwt beam="2">  1        4 0.60121356E-02 0.12499530E+03</pdfrwt>
<pdfrwt beam="1">  1       -4 0.15377009E-01 0.12499530E+03</pdfrwt>
<totfact> 0.10154817E+04</totfact>
</mgrwt>
</event>
<event>
 5    1  0.3179758E-002  0.1250002E+03  0.7818608E-02  0.1235069E+00
         -4   -1    0    0    0  501 -0.00000000000E+00  0.00000000000E+00  0.30594133971E+02  0.30620482253E+02  0.12700000000E+01 0.  1.
          4   -1    0    0  501    0  0.00000000000E+00 -0.00000000000E+00 -0.12759556635E+03  0.12760188655E+03  0.12700000000E+01 0.  1.
         25    2    1    2    0    0  0.00000000000E+00  0.00000000000E+00 -0.97001432377E+02  0.15822236881E+03  0.12500016043E+03 0.  0.
    9000005    1    3    3    0    0 -0.56471335643E+02  0.24522459198E+02 -0.34932830645E+02  0.70793116977E+02  0.10000000000E+01 0.  0.
    9000005    1    3    3    0    0  0.56471335643E+02 -0.24522459198E+02 -0.62068601732E+02  0.87429251829E+02  0.10000000000E+01 0.  0.
<mgrwt>
<rscale>  0 0.12500016E+03</rscale>
<asrwt>0</asrwt>
<pdfrwt beam="2">  1        4 0.19632600E-01 0.12500016E+03</pdfrwt>
<pdfrwt beam="1">  1       -4 0.47093029E-02 0.12500016E+03</pdfrwt>
<totfact> 0.97686244E+03</totfact>
</mgrwt>
</event>
<event>
 5    1  0.3179758E-002  0.1249906E+03  0.7818608E-02  0.1235084E+00
         -4   -1    0    0    0  501 -0.00000000000E+00  0.00000000000E+00  0.33799505223E+02  0.33823356624E+02  0.12700000000E+01 0. -1.
          4   -1    0    0  501    0  0.00000000000E+00 -0.00000000000E+00 -0.11548568103E+03  0.11549266393E+03  0.12700000000E+01 0. -1.
         25    2    1    2    0    0  0.00000000000E+00  0.00000000000E+00 -0.81686175805E+02  0.14931602056E+03  0.12499057035E+03 0.  0.
    9000005    1    3    3    0    0  0.54188783267E+01  0.62189773772E+02 -0.44164140758E+02  0.76474855560E+02  0.10000000000E+01 0.  0.
    9000005    1    3    3    0    0 -0.54188783267E+01 -0.62189773772E+02 -0.37522035048E+02  0.72841164998E+02  0.10000000000E+01 0.  0.
<mgrwt>
<rscale>  0 0.12499057E+03</rscale>
<asrwt>0</asrwt>
<pdfrwt beam="2">  1        4 0.17769400E-01 0.12499057E+03</pdfrwt>
<pdfrwt beam="1">  1       -4 0.52022958E-02 0.12499057E+03</pdfrwt>
<totfact> 0.99461321E+03</totfact>
</mgrwt>
</event>
<event>
 5    1  0.3179758E-002  0.1249952E+03  0.7818608E-02  0.1235077E+00
          4   -1    0    0  501    0  0.00000000000E+00  0.00000000000E+00  0.86238921625E+01  0.87169040393E+01  0.12700000000E+01 0. -1.
         -4   -1    0    0    0  501 -0.00000000000E+00 -0.00000000000E+00 -0.45039844930E+03  0.45040023982E+03  0.12700000000E+01 0. -1.
         25    2    1    2    0    0  0.00000000000E+00  0.00000000000E+00 -0.44177455713E+03  0.45911714386E+03  0.12499516972E+03 0.  0.
    9000005    1    3    3    0    0  0.11451952764E+02  0.29419223389E+02 -0.41897184611E+03  0.42016073801E+03  0.10000000000E+01 0.  0.
    9000005    1    3    3    0    0 -0.11451952764E+02 -0.29419223389E+02 -0.22802711020E+02  0.38956405851E+02  0.10000000000E+01 0.  0.
<mgrwt>
<rscale>  0 0.12499517E+03</rscale>
<asrwt>0</asrwt>
<pdfrwt beam="1">  1        4 0.13340455E-02 0.12499517E+03</pdfrwt>
<pdfrwt beam="2">  1       -4 0.69299343E-01 0.12499517E+03</pdfrwt>
<totfact> 0.59188339E+03</totfact>
</mgrwt>
</event>
<event>
 5    1  0.3179758E-002  0.1250021E+03  0.7818608E-02  0.1235066E+00
         -4   -1    0    0    0  501 -0.00000000000E+00  0.00000000000E+00  0.40742542196E+02  0.40762331197E+02  0.12700000000E+01 0. -1.
          4   -1    0    0  501    0  0.00000000000E+00 -0.00000000000E+00 -0.95832318453E+02  0.95840733303E+02  0.12700000000E+01 0. -1.
         25    2    1    2    0    0  0.00000000000E+00  0.00000000000E+00 -0.55089776257E+02  0.13660306450E+03  0.12500205511E+03 0.  0.
    9000005    1    3    3    0    0  0.12993902692E+02  0.45180573102E+02 -0.72539500862E+02  0.86447121863E+02  0.10000000000E+01 0.  0.
    9000005    1    3    3    0    0 -0.12993902692E+02 -0.45180573102E+02  0.17449724605E+02  0.50155942637E+02  0.10000000000E+01 0.  0.
<mgrwt>
<rscale>  0 0.12500206E+03</rscale>
<asrwt>0</asrwt>
<pdfrwt beam="2">  1        4 0.14745603E-01 0.12500206E+03</pdfrwt>
<pdfrwt beam="1">  1       -4 0.62702530E-02 0.12500206E+03</pdfrwt>
<totfact> 0.10203919E+04</totfact>
</mgrwt>
</event>
<event>
 5    1  0.3179758E-002  0.1249981E+03  0.7818608E-02  0.1235072E+00
          4   -1    0    0  501    0  0.00000000000E+00  0.00000000000E+00  0.11385234515E+02  0.11455848504E+02  0.12700000000E+01 0. -1.
         -4   -1    0    0    0  501 -0.00000000000E+00 -0.00000000000E+00 -0.34195488140E+03  0.34195723974E+03  0.12700000000E+01 0. -1.
         25    2    1    2    0    0  0.00000000000E+00  0.00000000000E+00 -0.33056964688E+03  0.35341308825E+03  0.12499807800E+03 0.  0.
    9000005    1    3    3    0    0 -0.44413021916E+02  0.24868241902E+02 -0.26778092936E+03  0.27257764417E+03  0.10000000000E+01 0.  0.
    9000005    1    3    3    0    0  0.44413021916E+02 -0.24868241902E+02 -0.62788717519E+02  0.80835444074E+02  0.10000000000E+01 0.  0.
<mgrwt>
<rscale>  0 0.12499808E+03</rscale>
<asrwt>0</asrwt>
<pdfrwt beam="1">  1        4 0.17571881E-02 0.12499808E+03</pdfrwt>
<pdfrwt beam="2">  1       -4 0.52614049E-01 0.12499808E+03</pdfrwt>
<totfact> 0.69353652E+03</totfact>
</mgrwt>
</event>
<event>
 5    1  0.3179758E-002  0.1249988E+03  0.7818608E-02  0.1235071E+00
          4   -1    0    0  501    0  0.00000000000E+00  0.00000000000E+00  0.32397339577E+02  0.32422222498E+02  0.12700000000E+01 0.  1.
         -4   -1    0    0    0  501 -0.00000000000E+00 -0.00000000000E+00 -0.12049632535E+03  0.12050301790E+03  0.12700000000E+01 0.  1.
         25    2    1    2    0    0  0.00000000000E+00  0.00000000000E+00 -0.88098985773E+02  0.15292524040E+03  0.12499879142E+03 0.  0.
    9000005    1    3    3    0    0  0.50623373678E+02 -0.36624169235E+02 -0.45343497669E+02  0.77208085817E+02  0.10000000000E+01 0.  0.
    9000005    1    3    3    0    0 -0.50623373678E+02  0.36624169235E+02 -0.42755488104E+02  0.75717154580E+02  0.10000000000E+01 0.  0.
<mgrwt>
<rscale>  0 0.12499879E+03</rscale>
<asrwt>0</asrwt>
<pdfrwt beam="1">  1        4 0.49866350E-02 0.12499879E+03</pdfrwt>
<pdfrwt beam="2">  1       -4 0.18540325E-01 0.12499879E+03</pdfrwt>
<totfact> 0.98726444E+03</totfact>
</mgrwt>
</event>
<event>
 5    1  0.3179758E-002  0.1249978E+03  0.7818608E-02  0.1235073E+00
          4   -1    0    0  501    0  0.00000000000E+00  0.00000000000E+00  0.21767927680E+03  0.21768298153E+03  0.12700000000E+01 0. -1.
         -4   -1    0    0    0  501 -0.00000000000E+00 -0.00000000000E+00 -0.17918007801E+02  0.17962959209E+02  0.12700000000E+01 0. -1.
         25    2    1    2    0    0  0.00000000000E+00  0.00000000000E+00  0.19976126900E+03  0.23564594074E+03  0.12499777916E+03 0.  0.
    9000005    1    3    3    0    0 -0.20045985773E+02 -0.43526259359E+02  0.17549422138E+03  0.18192195727E+03  0.10000000000E+01 0.  0.
    9000005    1    3    3    0    0  0.20045985773E+02  0.43526259359E+02  0.24267047615E+02  0.53723983465E+02  0.10000000000E+01 0.  0.
<mgrwt>
<rscale>  0 0.12499778E+03</rscale>
<asrwt>0</asrwt>
<pdfrwt beam="1">  1        4 0.33492863E-01 0.12499778E+03</pdfrwt>
<pdfrwt beam="2">  1       -4 0.27603593E-02 0.12499778E+03</pdfrwt>
<totfact> 0.84454312E+03</totfact>
</mgrwt>
</event>
<event>
 5    1  0.3179758E-002  0.1249996E+03  0.7818608E-02  0.1235070E+00
          4   -1    0    0  501    0  0.00000000000E+00  0.00000000000E+00  0.55993285075E+01  0.57415485485E+01  0.12700000000E+01 0.  1.
         -4   -1    0    0    0  501 -0.00000000000E+00 -0.00000000000E+00 -0.68873225001E+03  0.68873342093E+03  0.12700000000E+01 0.  1.
         25    2    1    2    0    0  0.00000000000E+00  0.00000000000E+00 -0.68313292150E+03  0.69447496947E+03  0.12499957916E+03 0.  0.
    9000005    1    3    3    0    0 -0.13979853293E+02 -0.59096413617E+02 -0.42348441758E+03  0.42781757132E+03  0.10000000000E+01 0.  0.
    9000005    1    3    3    0    0  0.13979853293E+02  0.59096413617E+02 -0.25964850392E+03  0.26665739815E+03  0.10000000000E+01 0.  0.
<mgrwt>
<rscale>  0 0.12499958E+03</rscale>
<asrwt>0</asrwt>
<pdfrwt beam="1">  1        4 0.87246577E-03 0.12499958E+03</pdfrwt>
<pdfrwt beam="2">  1       -4 0.10596977E+00 0.12499958E+03</pdfrwt>
<totfact> 0.43380377E+03</totfact>
</mgrwt>
</event>
<event>
 5    1  0.3179758E-002  0.1249998E+03  0.7818608E-02  0.1235070E+00
          4   -1    0    0  501    0  0.00000000000E+00  0.00000000000E+00  0.20026020569E+04  0.20026024596E+04  0.12700000000E+01 0. -1.
         -4   -1    0    0    0  501 -0.00000000000E+00 -0.00000000000E+00 -0.17434157673E+01  0.21569419412E+01  0.12700000000E+01 0. -1.
         25    2    1    2    0    0  0.00000000000E+00  0.00000000000E+00  0.20008586411E+04  0.20047594015E+04  0.12499982511E+03 0.  0.
    9000005    1    3    3    0    0 -0.26154488444E+02 -0.52416977457E+02  0.65138700274E+03  0.65401653200E+03  0.10000000000E+01 0.  0.
    9000005    1    3    3    0    0  0.26154488444E+02  0.52416977457E+02  0.13494716384E+04  0.13507428695E+04  0.10000000000E+01 0.  0.
<mgrwt>
<rscale>  0 0.12499983E+03</rscale>
<asrwt>0</asrwt>
<pdfrwt beam="1">  1        4 0.30812444E+00 0.12499983E+03</pdfrwt>
<pdfrwt beam="2">  1       -4 0.30005851E-03 0.12499983E+03</pdfrwt>
<totfact> 0.97992419E+02</totfact>
</mgrwt>
</event>
<event>
 5    1  0.3179758E-002  0.1250101E+03  0.7818608E-02  0.1235054E+00
          4   -1    0    0  501    0  0.00000000000E+00  0.00000000000E+00  0.14065399694E+02  0.14122619040E+02  0.12700000000E+01 0. -1.
         -4   -1    0    0    0  501 -0.00000000000E+00 -0.00000000000E+00 -0.27714286587E+03  0.27714577573E+03  0.12700000000E+01 0. -1.
         25    2    1    2    0    0  0.00000000000E+00  0.00000000000E+00 -0.26307746618E+03  0.29126839477E+03  0.12501009791E+03 0.  0.
    9000005    1    3    3    0    0 -0.56066452355E+02  0.17558732088E+01 -0.67333630482E+02  0.87643299597E+02  0.10000000000E+01 0.  0.
    9000005    1    3    3    0    0  0.56066452355E+02 -0.17558732088E+01 -0.19574383570E+03  0.20362509517E+03  0.10000000000E+01 0.  0.
<mgrwt>
<rscale>  0 0.12501010E+03</rscale>
<asrwt>0</asrwt>
<pdfrwt beam="1">  1        4 0.21685332E-02 0.12501010E+03</pdfrwt>
<pdfrwt beam="2">  1       -4 0.42641985E-01 0.12501010E+03</pdfrwt>
<totfact> 0.76690133E+03</totfact>
</mgrwt>
</event>
<event>
 5    1  0.3179758E-002  0.1250013E+03  0.7818608E-02  0.1235067E+00
         -4   -1    0    0    0  501 -0.00000000000E+00  0.00000000000E+00  0.10150849821E+03  0.10151644255E+03  0.12700000000E+01 0.  1.
          4   -1    0    0  501    0  0.00000000000E+00 -0.00000000000E+00 -0.38462863262E+02  0.38483824528E+02  0.12700000000E+01 0.  1.
         25    2    1    2    0    0  0.00000000000E+00  0.00000000000E+00  0.63045634943E+02  0.14000026708E+03  0.12500129078E+03 0.  0.
    9000005    1    3    3    0    0 -0.31844492462E+02  0.38372064051E+02 -0.10664473732E+02  0.51002137207E+02  0.10000000000E+01 0.  0.
    9000005    1    3    3    0    0  0.31844492462E+02 -0.38372064051E+02  0.73710108676E+02  0.88998129872E+02  0.10000000000E+01 0.  0.
<mgrwt>
<rscale>  0 0.12500129E+03</rscale>
<asrwt>0</asrwt>
<pdfrwt beam="2">  1        4 0.59195871E-02 0.12500129E+03</pdfrwt>
<pdfrwt beam="1">  1       -4 0.15618916E-01 0.12500129E+03</pdfrwt>
<totfact> 0.10133286E+04</totfact>
</mgrwt>
</event>
<event>
 5    1  0.3179758E-002  0.1250011E+03  0.7818608E-02  0.1235068E+00
          4   -1    0    0  501    0  0.00000000000E+00  0.00000000000E+00  0.51528712883E+02  0.51544361005E+02  0.12700000000E+01 0.  1.
         -4   -1    0    0    0  501 -0.00000000000E+00 -0.00000000000E+00 -0.75776057953E+02  0.75786699749E+02  0.12700000000E+01 0.  1.
         25    2    1    2    0    0  0.00000000000E+00  0.00000000000E+00 -0.24247345069E+02  0.12733106075E+03  0.12500106115E+03 0.  0.
    9000005    1    3    3    0    0  0.27499841958E+02  0.26553015088E+02  0.38234778139E+02  0.54075892755E+02  0.10000000000E+01 0.  0.
    9000005    1    3    3    0    0 -0.27499841958E+02 -0.26553015088E+02 -0.62482123208E+02  0.73255167999E+02  0.10000000000E+01 0.  0.
<mgrwt>
<rscale>  0 0.12500106E+03</rscale>
<asrwt>0</asrwt>
<pdfrwt beam="1">  1        4 0.79295166E-02 0.12500106E+03</pdfrwt>
<pdfrwt beam="2">  1       -4 0.11659877E-01 0.12500106E+03</pdfrwt>
<totfact> 0.10401712E+04</totfact>
</mgrwt>
</event>
<event>
 5    1  0.3179758E-002  0.1250004E+03  0.7818608E-02  0.1235069E+00
         -4   -1    0    0    0  501 -0.00000000000E+00  0.00000000000E+00  0.25597142273E+03  0.25597457326E+03  0.12700000000E+01 0.  1.
          4   -1    0    0  501    0  0.00000000000E+00 -0.00000000000E+00 -0.15230916531E+02  0.15283773042E+02  0.12700000000E+01 0.  1.
         25    2    1    2    0    0  0.00000000000E+00  0.00000000000E+00  0.24074050620E+03  0.27125834630E+03  0.12500039645E+03 0.  0.
    9000005    1    3    3    0    0  0.13025401824E+02  0.20332136552E+01  0.25293018205E+03  0.25327548646E+03  0.10000000000E+01 0.  0.
    9000005    1    3    3    0    0 -0.13025401824E+02 -0.20332136552E+01 -0.12189675854E+02  0.17982859835E+02  0.10000000000E+01 0.  0.
<mgrwt>
<rscale>  0 0.12500040E+03</rscale>
<asrwt>0</asrwt>
<pdfrwt beam="2">  1        4 0.23475262E-02 0.12500040E+03</pdfrwt>
<pdfrwt beam="1">  1       -4 0.39384526E-01 0.12500040E+03</pdfrwt>
<totfact> 0.79350920E+03</totfact>
</mgrwt>
</event>
<event>
 5    1  0.3179758E-002  0.1250082E+03  0.7818608E-02  0.1235056E+00
          4   -1    0    0  501    0  0.00000000000E+00  0.00000000000E+00  0.30214923858E+03  0.30215190761E+03  0.12700000000E+01 0. -1.
         -4   -1    0    0    0  501 -0.00000000000E+00 -0.00000000000E+00 -0.12895997895E+02  0.12958381910E+02  0.12700000000E+01 0. -1.
         25    2    1    2    0    0  0.00000000000E+00  0.00000000000E+00  0.28925324068E+03  0.31511028952E+03  0.12500822900E+03 0.  0.
    9000005    1    3    3    0    0 -0.33733513579E+00 -0.26928135086E+02  0.24679140911E+01  0.27061575234E+02  0.10000000000E+01 0.  0.
    9000005    1    3    3    0    0  0.33733513579E+00  0.26928135086E+02  0.28678532659E+03  0.28804871428E+03  0.10000000000E+01 0.  0.
<mgrwt>
<rscale>  0 0.12500823E+03</rscale>
<asrwt>0</asrwt>
<pdfrwt beam="1">  1        4 0.46489501E-01 0.12500823E+03</pdfrwt>
<pdfrwt beam="2">  1       -4 0.19890038E-02 0.12500823E+03</pdfrwt>
<totfact> 0.73728035E+03</totfact>
</mgrwt>
</event>
<event>
 5    1  0.3179758E-002  0.1250010E+03  0.7818608E-02  0.1235068E+00
          4   -1    0    0  501    0  0.00000000000E+00  0.00000000000E+00  0.21936757799E+02  0.21973489544E+02  0.12700000000E+01 0.  1.
         -4   -1    0    0    0  501 -0.00000000000E+00 -0.00000000000E+00 -0.17788348733E+03  0.17788802085E+03  0.12700000000E+01 0.  1.
         25    2    1    2    0    0  0.00000000000E+00  0.00000000000E+00 -0.15594672953E+03  0.19986151040E+03  0.12500096355E+03 0.  0.
    9000005    1    3    3    0    0 -0.38555449308E+02  0.45023570668E+02 -0.46330664428E+02  0.75240780521E+02  0.10000000000E+01 0.  0.
    9000005    1    3    3    0    0  0.38555449308E+02 -0.45023570668E+02 -0.10961606510E+03  0.12462072988E+03  0.10000000000E+01 0.  0.
<mgrwt>
<rscale>  0 0.12500096E+03</rscale>
<asrwt>0</asrwt>
<pdfrwt beam="1">  1        4 0.33780602E-02 0.12500096E+03</pdfrwt>
<pdfrwt beam="2">  1       -4 0.27369864E-01 0.12500096E+03</pdfrwt>
<totfact> 0.90156925E+03</totfact>
</mgrwt>
</event>
<event>
 5    1  0.3179758E-002  0.1249965E+03  0.7818608E-02  0.1235075E+00
          4   -1    0    0  501    0  0.00000000000E+00  0.00000000000E+00  0.11755298829E+02  0.11823702912E+02  0.12700000000E+01 0.  1.
         -4   -1    0    0    0  501 -0.00000000000E+00 -0.00000000000E+00 -0.33124477121E+03  0.33124720580E+03  0.12700000000E+01 0.  1.
         25    2    1    2    0    0  0.00000000000E+00  0.00000000000E+00 -0.31948947238E+03  0.34307090872E+03  0.12499650173E+03 0.  0.
    9000005    1    3    3    0    0 -0.21861799192E+02  0.25388414118E+02 -0.30452364554E+03  0.30636279233E+03  0.10000000000E+01 0.  0.
    9000005    1    3    3    0    0  0.21861799192E+02 -0.25388414118E+02 -0.14965826845E+02  0.36708116385E+02  0.10000000000E+01 0.  0.
<mgrwt>
<rscale>  0 0.12499650E+03</rscale>
<asrwt>0</asrwt>
<pdfrwt beam="1">  1        4 0.18139569E-02 0.12499650E+03</pdfrwt>
<pdfrwt beam="2">  1       -4 0.50966176E-01 0.12499650E+03</pdfrwt>
<totfact> 0.70499091E+03</totfact>
</mgrwt>
</event>
<event>
 5    1  0.3179758E-002  0.1249992E+03  0.7818608E-02  0.1235071E+00
         -4   -1    0    0    0  501 -0.00000000000E+00  0.00000000000E+00  0.99031919480E+03  0.99032000914E+03  0.12700000000E+01 0. -1.
          4   -1    0    0  501    0  0.00000000000E+00 -0.00000000000E+00 -0.38413189547E+01  0.40458165198E+01  0.12700000000E+01 0. -1.
         25    2    1    2    0    0  0.00000000000E+00  0.00000000000E+00  0.98647787585E+03  0.99436582566E+03  0.12499918277E+03 0.  0.
    9000005    1    3    3    0    0 -0.85428179531E+01 -0.43315013947E+02  0.84506388702E+03  0.84621695995E+03  0.10000000000E+01 0.  0.
    9000005    1    3    3    0    0  0.85428179531E+01  0.43315013947E+02  0.14141398883E+03  0.14814886570E+03  0.10000000000E+01 0.  0.
<mgrwt>
<rscale>  0 0.12499918E+03</rscale>
<asrwt>0</asrwt>
<pdfrwt beam="2">  1        4 0.60676493E-03 0.12499918E+03</pdfrwt>
<pdfrwt beam="1">  1       -4 0.15237270E+00 0.12499918E+03</pdfrwt>
<totfact> 0.30791767E+03</totfact>
</mgrwt>
</event>
<event>
 5    1  0.3179758E-002  0.1249995E+03  0.7818608E-02  0.1235070E+00
          4   -1    0    0  501    0  0.00000000000E+00  0.00000000000E+00  0.16503821089E+02  0.16552613406E+02  0.12700000000E+01 0. -1.
         -4   -1    0    0    0  501 -0.00000000000E+00 -0.00000000000E+00 -0.23628604391E+03  0.23628945691E+03  0.12700000000E+01 0. -1.
         25    2    1    2    0    0  0.00000000000E+00  0.00000000000E+00 -0.21978222282E+03  0.25284207032E+03  0.12499954821E+03 0.  0.
    9000005    1    3    3    0    0 -0.13860980325E+02 -0.44573481656E+02 -0.25848605267E+02  0.53367334923E+02  0.10000000000E+01 0.  0.
    9000005    1    3    3    0    0  0.13860980325E+02  0.44573481656E+02 -0.19393361755E+03  0.19947473539E+03  0.10000000000E+01 0.  0.
<mgrwt>
<rscale>  0 0.12499955E+03</rscale>
<asrwt>0</asrwt>
<pdfrwt beam="1">  1        4 0.25430654E-02 0.12499955E+03</pdfrwt>
<pdfrwt beam="2">  1       -4 0.36355712E-01 0.12499955E+03</pdfrwt>
<totfact> 0.81922013E+03</totfact>
</mgrwt>
</event>
<event>
 5    1  0.3179758E-002  0.1249979E+03  0.7818608E-02  0.1235073E+00
         -4   -1    0    0    0  501 -0.00000000000E+00  0.00000000000E+00  0.14438545766E+04  0.14438551351E+04  0.12700000000E+01 0. -1.
          4   -1    0    0  501    0  0.00000000000E+00 -0.00000000000E+00 -0.25557046017E+01  0.28538615963E+01  0.12700000000E+01 0. -1.
         25    2    1    2    0    0  0.00000000000E+00  0.00000000000E+00  0.14412988720E+04  0.14467089967E+04  0.12499793123E+03 0.  0.
    9000005    1    3    3    0    0 -0.14560726234E+01  0.51397745768E+02  0.11316882022E+04  0.11328561407E+04  0.10000000000E+01 0.  0.
    9000005    1    3    3    0    0  0.14560726234E+01 -0.51397745768E+02  0.30961066972E+03  0.31385285600E+03  0.10000000000E+01 0.  0.
<mgrwt>
<rscale>  0 0.12499793E+03</rscale>
<asrwt>0</asrwt>
<pdfrwt beam="2">  1        4 0.41616331E-03 0.12499793E+03</pdfrwt>
<pdfrwt beam="1">  1       -4 0.22215452E+00 0.12499793E+03</pdfrwt>
<totfact> 0.19001087E+03</totfact>
</mgrwt>
</event>
<event>
 5    1  0.3179758E-002  0.1250009E+03  0.7818608E-02  0.1235068E+00
          4   -1    0    0  501    0  0.00000000000E+00  0.00000000000E+00  0.58530587426E+01  0.59892567689E+01  0.12700000000E+01 0.  1.
         -4   -1    0    0    0  501 -0.00000000000E+00 -0.00000000000E+00 -0.65958337708E+03  0.65958459974E+03  0.12700000000E+01 0.  1.
         25    2    1    2    0    0  0.00000000000E+00  0.00000000000E+00 -0.65373031834E+03  0.66557385651E+03  0.12500091744E+03 0.  0.
    9000005    1    3    3    0    0  0.37649185323E+02 -0.17207184916E+02 -0.57614057574E+03  0.57762661935E+03  0.10000000000E+01 0.  0.
    9000005    1    3    3    0    0 -0.37649185323E+02  0.17207184916E+02 -0.77589742593E+02  0.87947237158E+02  0.10000000000E+01 0.  0.
<mgrwt>
<rscale>  0 0.12500092E+03</rscale>
<asrwt>0</asrwt>
<pdfrwt beam="1">  1        4 0.91104192E-03 0.12500092E+03</pdfrwt>
<pdfrwt beam="2">  1       -4 0.10148488E+00 0.12500092E+03</pdfrwt>
<totfact> 0.44966426E+03</totfact>
</mgrwt>
</event>
<event>
 5    1  0.3179758E-002  0.1249921E+03  0.7818608E-02  0.1235082E+00
         -4   -1    0    0    0  501 -0.00000000000E+00  0.00000000000E+00  0.86285525386E+02  0.86294871175E+02  0.12700000000E+01 0. -1.
          4   -1    0    0  501    0  0.00000000000E+00 -0.00000000000E+00 -0.45244748831E+02  0.45262569489E+02  0.12700000000E+01 0. -1.
         25    2    1    2    0    0  0.00000000000E+00  0.00000000000E+00  0.41040776555E+02  0.13155744066E+03  0.12499205916E+03 0.  0.
    9000005    1    3    3    0    0  0.34234135885E+02 -0.51597973094E+02  0.11687513938E+02  0.63023208973E+02  0.10000000000E+01 0.  0.
    9000005    1    3    3    0    0 -0.34234135885E+02  0.51597973094E+02  0.29353262617E+02  0.68534231691E+02  0.10000000000E+01 0.  0.
<mgrwt>
<rscale>  0 0.12499206E+03</rscale>
<asrwt>0</asrwt>
<pdfrwt beam="2">  1        4 0.69628204E-02 0.12499206E+03</pdfrwt>
<pdfrwt beam="1">  1       -4 0.13276786E-01 0.12499206E+03</pdfrwt>
<totfact> 0.10313001E+04</totfact>
</mgrwt>
</event>
<event>
 5    1  0.3179758E-002  0.1250007E+03  0.7818608E-02  0.1235068E+00
         -4   -1    0    0    0  501 -0.00000000000E+00  0.00000000000E+00  0.98925226899E+02  0.98933378679E+02  0.12700000000E+01 0. -1.
          4   -1    0    0  501    0  0.00000000000E+00 -0.00000000000E+00 -0.39467355351E+02  0.39487783407E+02  0.12700000000E+01 0. -1.
         25    2    1    2    0    0  0.00000000000E+00  0.00000000000E+00  0.59457871547E+02  0.13842116209E+03  0.12500071850E+03 0.  0.
    9000005    1    3    3    0    0 -0.35051329244E+02  0.46357071031E+02  0.55167479638E+02  0.80137535063E+02  0.10000000000E+01 0.  0.
    9000005    1    3    3    0    0  0.35051329244E+02 -0.46357071031E+02  0.42903919096E+01  0.58283627024E+02  0.10000000000E+01 0.  0.
<mgrwt>
<rscale>  0 0.12500072E+03</rscale>
<asrwt>0</asrwt>
<pdfrwt beam="2">  1        4 0.60740993E-02 0.12500072E+03</pdfrwt>
<pdfrwt beam="1">  1       -4 0.15221464E-01 0.12500072E+03</pdfrwt>
<totfact> 0.10166249E+04</totfact>
</mgrwt>
</event>
<event>
 5    1  0.3179758E-002  0.1250006E+03  0.7818608E-02  0.1235068E+00
         -4   -1    0    0    0  501 -0.00000000000E+00  0.00000000000E+00  0.60086680247E+02  0.60100100192E+02  0.12700000000E+01 0.  1.
          4   -1    0    0  501    0  0.00000000000E+00 -0.00000000000E+00 -0.64983993076E+02  0.64996401871E+02  0.12700000000E+01 0.  1.
         25    2    1    2    0    0  0.00000000000E+00  0.00000000000E+00 -0.48973128292E+01  0.12509650206E+03  0.12500060462E+03 0.  0.
    9000005    1    3    3    0    0  0.27368069643E+02 -0.54504444707E+02 -0.16080488865E+02  0.63081913818E+02  0.10000000000E+01 0.  0.
    9000005    1    3    3    0    0 -0.27368069643E+02  0.54504444707E+02  0.11183176036E+02  0.62014588244E+02  0.10000000000E+01 0.  0.
<mgrwt>
<rscale>  0 0.12500060E+03</rscale>
<asrwt>0</asrwt>
<pdfrwt beam="2">  1        4 0.99995242E-02 0.12500060E+03</pdfrwt>
<pdfrwt beam="1">  1       -4 0.92460915E-02 0.12500060E+03</pdfrwt>
<totfact> 0.10450624E+04</totfact>
</mgrwt>
</event>
<event>
 5    1  0.3179758E-002  0.1250073E+03  0.7818608E-02  0.1235058E+00
          4   -1    0    0  501    0  0.00000000000E+00  0.00000000000E+00  0.54144454262E+03  0.54144603206E+03  0.12700000000E+01 0. -1.
         -4   -1    0    0    0  501 -0.00000000000E+00 -0.00000000000E+00 -0.71579404444E+01  0.72697325540E+01  0.12700000000E+01 0. -1.
         25    2    1    2    0    0  0.00000000000E+00  0.00000000000E+00  0.53428660218E+03  0.54871576462E+03  0.12500726807E+03 0.  0.
    9000005    1    3    3    0    0 -0.41772997029E+01 -0.54998858591E+02  0.39612056590E+03  0.39994352977E+03  0.10000000000E+01 0.  0.
    9000005    1    3    3    0    0  0.41772997029E+01  0.54998858591E+02  0.13816603628E+03  0.14877223485E+03  0.10000000000E+01 0.  0.
<mgrwt>
<rscale>  0 0.12500727E+03</rscale>
<asrwt>0</asrwt>
<pdfrwt beam="1">  1        4 0.83307859E-01 0.12500727E+03</pdfrwt>
<pdfrwt beam="2">  1       -4 0.11099358E-02 0.12500727E+03</pdfrwt>
<totfact> 0.52265224E+03</totfact>
</mgrwt>
</event>
<event>
 5    1  0.3179758E-002  0.1250004E+03  0.7818608E-02  0.1235069E+00
          4   -1    0    0  501    0  0.00000000000E+00  0.00000000000E+00  0.17608270661E+02  0.17654010753E+02  0.12700000000E+01 0.  1.
         -4   -1    0    0    0  501 -0.00000000000E+00 -0.00000000000E+00 -0.22150777216E+03  0.22151141286E+03  0.12700000000E+01 0.  1.
         25    2    1    2    0    0  0.00000000000E+00  0.00000000000E+00 -0.20389950150E+03  0.23916542361E+03  0.12500037256E+03 0.  0.
    9000005    1    3    3    0    0 -0.18049673456E+02  0.59056158062E+02 -0.83612542768E+02  0.10394940031E+03  0.10000000000E+01 0.  0.
    9000005    1    3    3    0    0  0.18049673456E+02 -0.59056158062E+02 -0.12028695873E+03  0.13521602330E+03  0.10000000000E+01 0.  0.
<mgrwt>
<rscale>  0 0.12500037E+03</rscale>
<asrwt>0</asrwt>
<pdfrwt beam="1">  1        4 0.27127634E-02 0.12500037E+03</pdfrwt>
<pdfrwt beam="2">  1       -4 0.34081915E-01 0.12500037E+03</pdfrwt>
<totfact> 0.83921124E+03</totfact>
</mgrwt>
</event>
<event>
 5    1  0.3179758E-002  0.1250019E+03  0.7818608E-02  0.1235066E+00
          4   -1    0    0  501    0  0.00000000000E+00  0.00000000000E+00  0.73800700396E+03  0.73800809670E+03  0.12700000000E+01 0. -1.
         -4   -1    0    0    0  501 -0.00000000000E+00 -0.00000000000E+00 -0.52158397446E+01  0.53682291532E+01  0.12700000000E+01 0. -1.
         25    2    1    2    0    0  0.00000000000E+00  0.00000000000E+00  0.73279116422E+03  0.74337632585E+03  0.12500188593E+03 0.  0.
    9000005    1    3    3    0    0 -0.45803337365E+02 -0.42194799079E+02  0.33548240940E+03  0.34121517229E+03  0.10000000000E+01 0.  0.
    9000005    1    3    3    0    0  0.45803337365E+02  0.42194799079E+02  0.39730875481E+03  0.40216115356E+03  0.10000000000E+01 0.  0.
<mgrwt>
<rscale>  0 0.12500189E+03</rscale>
<asrwt>0</asrwt>
<pdfrwt beam="1">  1        4 0.11355135E+00 0.12500189E+03</pdfrwt>
<pdfrwt beam="2">  1       -4 0.81424314E-03 0.12500189E+03</pdfrwt>
<totfact> 0.40891278E+03</totfact>
</mgrwt>
</event>
<event>
 5    1  0.3179758E-002  0.1250015E+03  0.7818608E-02  0.1235067E+00
          4   -1    0    0  501    0  0.00000000000E+00  0.00000000000E+00  0.34977949093E+03  0.34978179652E+03  0.12700000000E+01 0. -1.
         -4   -1    0    0    0  501 -0.00000000000E+00 -0.00000000000E+00 -0.11129569575E+02  0.11201795344E+02  0.12700000000E+01 0. -1.
         25    2    1    2    0    0  0.00000000000E+00  0.00000000000E+00  0.33864992136E+03  0.36098359187E+03  0.12500153743E+03 0.  0.
    9000005    1    3    3    0    0 -0.12533119698E+01  0.11122755676E+02  0.34687526924E+03  0.34705725593E+03  0.10000000000E+01 0.  0.
    9000005    1    3    3    0    0  0.12533119698E+01 -0.11122755676E+02 -0.82253478818E+01  0.13926335932E+02  0.10000000000E+01 0.  0.
<mgrwt>
<rscale>  0 0.12500154E+03</rscale>
<asrwt>0</asrwt>
<pdfrwt beam="1">  1        4 0.53817952E-01 0.12500154E+03</pdfrwt>
<pdfrwt beam="2">  1       -4 0.17179750E-02 0.12500154E+03</pdfrwt>
<totfact> 0.68530566E+03</totfact>
</mgrwt>
</event>
<event>
 5    1  0.3179758E-002  0.1249981E+03  0.7818608E-02  0.1235072E+00
         -4   -1    0    0    0  501 -0.00000000000E+00  0.00000000000E+00  0.29176529585E+03  0.29176805988E+03  0.12700000000E+01 0. -1.
          4   -1    0    0  501    0  0.00000000000E+00 -0.00000000000E+00 -0.13354963198E+02  0.13415213082E+02  0.12700000000E+01 0. -1.
         25    2    1    2    0    0  0.00000000000E+00  0.00000000000E+00  0.27841033266E+03  0.30518327296E+03  0.12499806704E+03 0.  0.
    9000005    1    3    3    0    0  0.29779080567E+02 -0.40767602090E+02  0.22912208614E+03  0.23462037716E+03  0.10000000000E+01 0.  0.
    9000005    1    3    3    0    0 -0.29779080567E+02  0.40767602090E+02  0.49288246513E+02  0.70562895801E+02  0.10000000000E+01 0.  0.
<mgrwt>
<rscale>  0 0.12499807E+03</rscale>
<asrwt>0</asrwt>
<pdfrwt beam="2">  1        4 0.20594571E-02 0.12499807E+03</pdfrwt>
<pdfrwt beam="1">  1       -4 0.44891813E-01 0.12499807E+03</pdfrwt>
<totfact> 0.74956440E+03</totfact>
</mgrwt>
</event>
<event>
 5    1  0.3179758E-002  0.1249991E+03  0.7818608E-02  0.1235071E+00
          4   -1    0    0  501    0  0.00000000000E+00  0.00000000000E+00  0.11227344200E+03  0.11228062468E+03  0.12700000000E+01 0.  1.
         -4   -1    0    0    0  501 -0.00000000000E+00 -0.00000000000E+00 -0.34771889525E+02  0.34795074381E+02  0.12700000000E+01 0.  1.
         25    2    1    2    0    0  0.00000000000E+00  0.00000000000E+00  0.77501552478E+02  0.14707569906E+03  0.12499908247E+03 0.  0.
    9000005    1    3    3    0    0 -0.20782389150E+02  0.12185156786E+02 -0.29094139960E+02  0.37786965011E+02  0.10000000000E+01 0.  0.
    9000005    1    3    3    0    0  0.20782389150E+02 -0.12185156786E+02  0.10659569244E+03  0.10928873405E+03  0.10000000000E+01 0.  0.
<mgrwt>
<rscale>  0 0.12499908E+03</rscale>
<asrwt>0</asrwt>
<pdfrwt beam="1">  1        4 0.17275173E-01 0.12499908E+03</pdfrwt>
<pdfrwt beam="2">  1       -4 0.53518574E-02 0.12499908E+03</pdfrwt>
<totfact> 0.99891904E+03</totfact>
</mgrwt>
</event>
<event>
 5    1  0.3179758E-002  0.1250007E+03  0.7818608E-02  0.1235068E+00
          4   -1    0    0  501    0  0.00000000000E+00  0.00000000000E+00  0.27339661350E+02  0.27369142894E+02  0.12700000000E+01 0. -1.
         -4   -1    0    0    0  501 -0.00000000000E+00 -0.00000000000E+00 -0.14277085950E+03  0.14277650795E+03  0.12700000000E+01 0. -1.
         25    2    1    2    0    0  0.00000000000E+00  0.00000000000E+00 -0.11543119815E+03  0.17014565084E+03  0.12500072397E+03 0.  0.
    9000005    1    3    3    0    0 -0.60659769108E+02  0.14589265727E+02 -0.52837984180E+02  0.81763725667E+02  0.10000000000E+01 0.  0.
    9000005    1    3    3    0    0  0.60659769108E+02 -0.14589265727E+02 -0.62593213965E+02  0.88381925172E+02  0.10000000000E+01 0.  0.
<mgrwt>
<rscale>  0 0.12500072E+03</rscale>
<asrwt>0</asrwt>
<pdfrwt beam="1">  1        4 0.42088042E-02 0.12500072E+03</pdfrwt>
<pdfrwt beam="2">  1       -4 0.21967449E-01 0.12500072E+03</pdfrwt>
<totfact> 0.95419946E+03</totfact>
</mgrwt>
</event>
<event>
 5    1  0.3179758E-002  0.1249987E+03  0.7818608E-02  0.1235071E+00
         -4   -1    0    0    0  501 -0.00000000000E+00  0.00000000000E+00  0.16901760128E+02  0.16949406934E+02  0.12700000000E+01 0.  1.
          4   -1    0    0  501    0  0.00000000000E+00 -0.00000000000E+00 -0.23073548568E+03  0.23073898078E+03  0.12700000000E+01 0.  1.
         25    2    1    2    0    0  0.00000000000E+00  0.00000000000E+00 -0.21383372555E+03  0.24768838772E+03  0.12499870090E+03 0.  0.
    9000005    1    3    3    0    0 -0.33575446360E+02  0.11101710344E+02 -0.48227900341E+01  0.35704591785E+02  0.10000000000E+01 0.  0.
    9000005    1    3    3    0    0  0.33575446360E+02 -0.11101710344E+02 -0.20901093552E+03  0.21198379593E+03  0.10000000000E+01 0.  0.
<mgrwt>
<rscale>  0 0.12499870E+03</rscale>
<asrwt>0</asrwt>
<pdfrwt beam="2">  1        4 0.35501699E-01 0.12499870E+03</pdfrwt>
<pdfrwt beam="1">  1       -4 0.26042049E-02 0.12499870E+03</pdfrwt>
<totfact> 0.82667873E+03</totfact>
</mgrwt>
</event>
<event>
 5    1  0.3179758E-002  0.1249994E+03  0.7818608E-02  0.1235070E+00
         -4   -1    0    0    0  501 -0.00000000000E+00  0.00000000000E+00  0.33443784019E+04  0.33443786430E+04  0.12700000000E+01 0. -1.
          4   -1    0    0  501    0  0.00000000000E+00 -0.00000000000E+00 -0.82245181146E+00  0.15130522074E+01  0.12700000000E+01 0. -1.
         25    2    1    2    0    0  0.00000000000E+00  0.00000000000E+00  0.33435559501E+04  0.33458916952E+04  0.12499937970E+03 0.  0.
    9000005    1    3    3    0    0  0.87568043427E+01 -0.51137835319E+02  0.73935016923E+03  0.74116896357E+03  0.10000000000E+01 0.  0.
    9000005    1    3    3    0    0 -0.87568043427E+01  0.51137835319E+02  0.26042057808E+04  0.26047227316E+04  0.10000000000E+01 0.  0.
<mgrwt>
<rscale>  0 0.12499938E+03</rscale>
<asrwt>0</asrwt>
<pdfrwt beam="2">  1        4 0.17967209E-03 0.12499938E+03</pdfrwt>
<pdfrwt beam="1">  1       -4 0.51457464E+00 0.12499938E+03</pdfrwt>
<totfact> 0.83952288E+01</totfact>
</mgrwt>
</event>
<event>
 5    1  0.3179758E-002  0.1249972E+03  0.7818608E-02  0.1235074E+00
          4   -1    0    0  501    0  0.00000000000E+00  0.00000000000E+00  0.18267370146E+01  0.22248299082E+01  0.12700000000E+01 0. -1.
         -4   -1    0    0    0  501 -0.00000000000E+00 -0.00000000000E+00 -0.19277820922E+04  0.19277825106E+04  0.12700000000E+01 0. -1.
         25    2    1    2    0    0  0.00000000000E+00  0.00000000000E+00 -0.19259553552E+04  0.19300073405E+04  0.12499721589E+03 0.  0.
    9000005    1    3    3    0    0 -0.48164741065E+02  0.25886919664E+02 -0.49589564614E+03  0.49890226172E+03  0.10000000000E+01 0.  0.
    9000005    1    3    3    0    0  0.48164741065E+02 -0.25886919664E+02 -0.14300597091E+04  0.14311050788E+04  0.10000000000E+01 0.  0.
<mgrwt>
<rscale>  0 0.12499722E+03</rscale>
<asrwt>0</asrwt>
<pdfrwt beam="1">  1        4 0.31169272E-03 0.12499722E+03</pdfrwt>
<pdfrwt beam="2">  1       -4 0.29661105E+00 0.12499722E+03</pdfrwt>
<totfact> 0.10803377E+03</totfact>
</mgrwt>
</event>
<event>
 5    1  0.3179758E-002  0.1250098E+03  0.7818608E-02  0.1235054E+00
         -4   -1    0    0    0  501 -0.00000000000E+00  0.00000000000E+00  0.16749159279E+02  0.16797238956E+02  0.12700000000E+01 0. -1.
          4   -1    0    0  501    0  0.00000000000E+00 -0.00000000000E+00 -0.23287309411E+03  0.23287655713E+03  0.12700000000E+01 0. -1.
         25    2    1    2    0    0  0.00000000000E+00  0.00000000000E+00 -0.21612393484E+03  0.24967379609E+03  0.12500979660E+03 0.  0.
    9000005    1    3    3    0    0  0.21784991775E+02  0.57919591351E+02 -0.90582190735E+02  0.10970596250E+03  0.10000000000E+01 0.  0.
    9000005    1    3    3    0    0 -0.21784991775E+02 -0.57919591351E+02 -0.12554174410E+03  0.13996783359E+03  0.10000000000E+01 0.  0.
<mgrwt>
<rscale>  0 0.12500980E+03</rscale>
<asrwt>0</asrwt>
<pdfrwt beam="2">  1        4 0.35830592E-01 0.12500980E+03</pdfrwt>
<pdfrwt beam="1">  1       -4 0.25807587E-02 0.12500980E+03</pdfrwt>
<totfact> 0.82359423E+03</totfact>
</mgrwt>
</event>
<event>
 5    1  0.3179758E-002  0.1249989E+03  0.7818608E-02  0.1235071E+00
         -4   -1    0    0    0  501 -0.00000000000E+00  0.00000000000E+00  0.41371513581E+02  0.41391001872E+02  0.12700000000E+01 0. -1.
          4   -1    0    0  501    0  0.00000000000E+00 -0.00000000000E+00 -0.94371221885E+02  0.94379767006E+02  0.12700000000E+01 0. -1.
         25    2    1    2    0    0  0.00000000000E+00  0.00000000000E+00 -0.52999708304E+02  0.13577076888E+03  0.12499893040E+03 0.  0.
    9000005    1    3    3    0    0  0.62238460118E+02 -0.46903879636E+01 -0.29857786794E+02  0.69196192737E+02  0.10000000000E+01 0.  0.
    9000005    1    3    3    0    0 -0.62238460118E+02  0.46903879636E+01 -0.23141921510E+02  0.66574576140E+02  0.10000000000E+01 0.  0.
<mgrwt>
<rscale>  0 0.12499893E+03</rscale>
<asrwt>0</asrwt>
<pdfrwt beam="2">  1        4 0.14520806E-01 0.12499893E+03</pdfrwt>
<pdfrwt beam="1">  1       -4 0.63670047E-02 0.12499893E+03</pdfrwt>
<totfact> 0.10222097E+04</totfact>
</mgrwt>
</event>
<event>
 5    1  0.3179758E-002  0.1250006E+03  0.7818608E-02  0.1235068E+00
         -4   -1    0    0    0  501 -0.00000000000E+00  0.00000000000E+00  0.30156589302E+03  0.30156856722E+03  0.12700000000E+01 0.  1.
          4   -1    0    0  501    0  0.00000000000E+00 -0.00000000000E+00 -0.12919471095E+02  0.12981742309E+02  0.12700000000E+01 0.  1.
         25    2    1    2    0    0  0.00000000000E+00  0.00000000000E+00  0.28864642193E+03  0.31455030953E+03  0.12500056133E+03 0.  0.
    9000005    1    3    3    0    0 -0.53281492709E+02 -0.14040702766E+02  0.70133346337E+02  0.89194983423E+02  0.10000000000E+01 0.  0.
    9000005    1    3    3    0    0  0.53281492709E+02  0.14040702766E+02  0.21851307559E+03  0.22535532610E+03  0.10000000000E+01 0.  0.
<mgrwt>
<rscale>  0 0.12500056E+03</rscale>
<asrwt>0</asrwt>
<pdfrwt beam="2">  1        4 0.19926068E-02 0.12500056E+03</pdfrwt>
<pdfrwt beam="1">  1       -4 0.46399748E-01 0.12500056E+03</pdfrwt>
<totfact> 0.73808096E+03</totfact>
</mgrwt>
</event>
<event>
 5    1  0.3179758E-002  0.1249971E+03  0.7818608E-02  0.1235074E+00
          4   -1    0    0  501    0  0.00000000000E+00  0.00000000000E+00  0.67087013984E+02  0.67099033863E+02  0.12700000000E+01 0. -1.
         -4   -1    0    0    0  501 -0.00000000000E+00 -0.00000000000E+00 -0.58199775772E+02  0.58213630706E+02  0.12700000000E+01 0. -1.
         25    2    1    2    0    0  0.00000000000E+00  0.00000000000E+00  0.88872382122E+01  0.12531266457E+03  0.12499712356E+03 0.  0.
    9000005    1    3    3    0    0  0.16152380618E+02  0.32254757993E+02  0.55599889543E+02  0.66284361127E+02  0.10000000000E+01 0.  0.
    9000005    1    3    3    0    0 -0.16152380618E+02 -0.32254757993E+02 -0.46712651331E+02  0.59028303442E+02  0.10000000000E+01 0.  0.
<mgrwt>
<rscale>  0 0.12499712E+03</rscale>
<asrwt>0</asrwt>
<pdfrwt beam="1">  1        4 0.10323069E-01 0.12499712E+03</pdfrwt>
<pdfrwt beam="2">  1       -4 0.89558020E-02 0.12499712E+03</pdfrwt>
<totfact> 0.10446754E+04</totfact>
</mgrwt>
</event>
<event>
 5    1  0.3179758E-002  0.1249991E+03  0.7818608E-02  0.1235071E+00
          4   -1    0    0  501    0  0.00000000000E+00  0.00000000000E+00  0.15456762317E+02  0.15508849129E+02  0.12700000000E+01 0. -1.
         -4   -1    0    0    0  501 -0.00000000000E+00 -0.00000000000E+00 -0.25223848360E+03  0.25224168075E+03  0.12700000000E+01 0. -1.
         25    2    1    2    0    0  0.00000000000E+00  0.00000000000E+00 -0.23678172128E+03  0.26775052988E+03  0.12499905087E+03 0.  0.
    9000005    1    3    3    0    0  0.56431316554E+02  0.21350078094E+02 -0.15325196346E+03  0.16470423075E+03  0.10000000000E+01 0.  0.
    9000005    1    3    3    0    0 -0.56431316554E+02 -0.21350078094E+02 -0.83529757821E+02  0.10304629913E+03  0.10000000000E+01 0.  0.
<mgrwt>
<rscale>  0 0.12499905E+03</rscale>
<asrwt>0</asrwt>
<pdfrwt beam="1">  1        4 0.23822162E-02 0.12499905E+03</pdfrwt>
<pdfrwt beam="2">  1       -4 0.38810170E-01 0.12499905E+03</pdfrwt>
<totfact> 0.79832226E+03</totfact>
</mgrwt>
</event>
<event>
 5    1  0.3179758E-002  0.1249887E+03  0.7818608E-02  0.1235087E+00
         -4   -1    0    0    0  501 -0.00000000000E+00  0.00000000000E+00  0.11022053889E+02  0.11094979582E+02  0.12700000000E+01 0.  1.
          4   -1    0    0  501    0  0.00000000000E+00 -0.00000000000E+00 -0.35309652235E+03  0.35309880628E+03  0.12700000000E+01 0.  1.
         25    2    1    2    0    0  0.00000000000E+00  0.00000000000E+00 -0.34207446846E+03  0.36419378586E+03  0.12498868624E+03 0.  0.
    9000005    1    3    3    0    0 -0.15959837187E+01  0.21754888883E+02 -0.34165642366E+03  0.34235352223E+03  0.10000000000E+01 0.  0.
    9000005    1    3    3    0    0  0.15959837187E+01 -0.21754888883E+02 -0.41804480784E+00  0.21840263639E+02  0.10000000000E+01 0.  0.
<mgrwt>
<rscale>  0 0.12498869E+03</rscale>
<asrwt>0</asrwt>
<pdfrwt beam="2">  1        4 0.54328319E-01 0.12498869E+03</pdfrwt>
<pdfrwt beam="1">  1       -4 0.17014862E-02 0.12498869E+03</pdfrwt>
<totfact> 0.68207850E+03</totfact>
</mgrwt>
</event>
<event>
 5    1  0.3179758E-002  0.1250020E+03  0.7818608E-02  0.1235066E+00
          4   -1    0    0  501    0  0.00000000000E+00  0.00000000000E+00  0.21564089806E+03  0.21564463781E+03  0.12700000000E+01 0.  1.
         -4   -1    0    0    0  501 -0.00000000000E+00 -0.00000000000E+00 -0.18089020284E+02  0.18133547773E+02  0.12700000000E+01 0.  1.
         25    2    1    2    0    0  0.00000000000E+00  0.00000000000E+00  0.19755187778E+03  0.23377818559E+03  0.12500198255E+03 0.  0.
    9000005    1    3    3    0    0 -0.57775340203E+02  0.23767760671E+02  0.10171965774E+03  0.11937665246E+03  0.10000000000E+01 0.  0.
    9000005    1    3    3    0    0  0.57775340203E+02 -0.23767760671E+02  0.95832220043E+02  0.11440153312E+03  0.10000000000E+01 0.  0.
<mgrwt>
<rscale>  0 0.12500198E+03</rscale>
<asrwt>0</asrwt>
<pdfrwt beam="1">  1        4 0.33179237E-01 0.12500198E+03</pdfrwt>
<pdfrwt beam="2">  1       -4 0.27866390E-02 0.12500198E+03</pdfrwt>
<totfact> 0.84729061E+03</totfact>
</mgrwt>
</event>
<event>
 5    1  0.3179758E-002  0.1249898E+03  0.7818608E-02  0.1235085E+00
         -4   -1    0    0    0  501 -0.00000000000E+00  0.00000000000E+00  0.69760475740E+02  0.69772035053E+02  0.12700000000E+01 0.  1.
          4   -1    0    0  501    0  0.00000000000E+00 -0.00000000000E+00 -0.55962631191E+02  0.55977039845E+02  0.12700000000E+01 0.  1.
         25    2    1    2    0    0  0.00000000000E+00  0.00000000000E+00  0.13797844549E+02  0.12574907490E+03  0.12498979688E+03 0.  0.
    9000005    1    3    3    0    0 -0.45579299676E+02 -0.61447919179E+01 -0.35659124170E+02  0.58204846562E+02  0.10000000000E+01 0.  0.
    9000005    1    3    3    0    0  0.45579299676E+02  0.61447919179E+01  0.49456968719E+02  0.67544228336E+02  0.10000000000E+01 0.  0.
<mgrwt>
<rscale>  0 0.12498980E+03</rscale>
<asrwt>0</asrwt>
<pdfrwt beam="2">  1        4 0.86116331E-02 0.12498980E+03</pdfrwt>
<pdfrwt beam="1">  1       -4 0.10734378E-01 0.12498980E+03</pdfrwt>
<totfact> 0.10438868E+04</totfact>
</mgrwt>
</event>
<event>
 5    1  0.3179758E-002  0.1249996E+03  0.7818608E-02  0.1235070E+00
         -4   -1    0    0    0  501 -0.00000000000E+00  0.00000000000E+00  0.18691777046E+03  0.18692208488E+03  0.12700000000E+01 0.  1.
          4   -1    0    0  501    0  0.00000000000E+00 -0.00000000000E+00 -0.20874234523E+02  0.20912832590E+02  0.12700000000E+01 0.  1.
         25    2    1    2    0    0  0.00000000000E+00  0.00000000000E+00  0.16604353594E+03  0.20783491747E+03  0.12499958836E+03 0.  0.
    9000005    1    3    3    0    0 -0.42427889596E+01 -0.78897031997E+01 -0.19809280740E+02  0.21763645792E+02  0.10000000000E+01 0.  0.
    9000005    1    3    3    0    0  0.42427889596E+01  0.78897031997E+01  0.18585281668E+03  0.18607127168E+03  0.10000000000E+01 0.  0.
<mgrwt>
<rscale>  0 0.12499959E+03</rscale>
<asrwt>0</asrwt>
<pdfrwt beam="2">  1        4 0.32147217E-02 0.12499959E+03</pdfrwt>
<pdfrwt beam="1">  1       -4 0.28759881E-01 0.12499959E+03</pdfrwt>
<totfact> 0.88831509E+03</totfact>
</mgrwt>
</event>
<event>
 5    1  0.3179758E-002  0.1250016E+03  0.7818608E-02  0.1235067E+00
          4   -1    0    0  501    0  0.00000000000E+00  0.00000000000E+00  0.11813364932E+02  0.11881434721E+02  0.12700000000E+01 0.  1.
         -4   -1    0    0    0  501 -0.00000000000E+00 -0.00000000000E+00 -0.32965263160E+03  0.32965507796E+03  0.12700000000E+01 0.  1.
         25    2    1    2    0    0  0.00000000000E+00  0.00000000000E+00 -0.31783926667E+03  0.34153651268E+03  0.12500156021E+03 0.  0.
    9000005    1    3    3    0    0 -0.55796642735E+02 -0.10465693098E+02 -0.23030174641E+03  0.23719757687E+03  0.10000000000E+01 0.  0.
    9000005    1    3    3    0    0  0.55796642735E+02  0.10465693098E+02 -0.87537520262E+02  0.10433893581E+03  0.10000000000E+01 0.  0.
<mgrwt>
<rscale>  0 0.12500156E+03</rscale>
<asrwt>0</asrwt>
<pdfrwt beam="1">  1        4 0.18228653E-02 0.12500156E+03</pdfrwt>
<pdfrwt beam="2">  1       -4 0.50721207E-01 0.12500156E+03</pdfrwt>
<totfact> 0.70663351E+03</totfact>
</mgrwt>
</event>
<event>
 5    1  0.3179758E-002  0.1249998E+03  0.7818608E-02  0.1235070E+00
          4   -1    0    0  501    0  0.00000000000E+00  0.00000000000E+00  0.37568315381E+01  0.39656882385E+01  0.12700000000E+01 0.  1.
         -4   -1    0    0    0  501 -0.00000000000E+00 -0.00000000000E+00 -0.10114385974E+04  0.10114393948E+04  0.12700000000E+01 0.  1.
         25    2    1    2    0    0  0.00000000000E+00  0.00000000000E+00 -0.10076817659E+04  0.10154050830E+04  0.12499976507E+03 0.  0.
    9000005    1    3    3    0    0 -0.53421575839E+02 -0.11996702980E+02 -0.25913669071E+03  0.26485960455E+03  0.10000000000E+01 0.  0.
    9000005    1    3    3    0    0  0.53421575839E+02  0.11996702980E+02 -0.74854507519E+03  0.75054547846E+03  0.10000000000E+01 0.  0.
<mgrwt>
<rscale>  0 0.12499977E+03</rscale>
<asrwt>0</asrwt>
<pdfrwt beam="1">  1        4 0.59410212E-03 0.12499977E+03</pdfrwt>
<pdfrwt beam="2">  1       -4 0.15562185E+00 0.12499977E+03</pdfrwt>
<totfact> 0.30100183E+03</totfact>
</mgrwt>
</event>
<event>
 5    1  0.3179758E-002  0.1249997E+03  0.7818608E-02  0.1235070E+00
         -4   -1    0    0    0  501 -0.00000000000E+00  0.00000000000E+00  0.38051129878E+02  0.38072317831E+02  0.12700000000E+01 0. -1.
          4   -1    0    0  501    0  0.00000000000E+00 -0.00000000000E+00 -0.10260371784E+03  0.10261157739E+03  0.12700000000E+01 0. -1.
         25    2    1    2    0    0  0.00000000000E+00  0.00000000000E+00 -0.64552587962E+02  0.14068389522E+03  0.12499968705E+03 0.  0.
    9000005    1    3    3    0    0  0.50602247196E+02  0.34724668516E+02 -0.19014770719E+02  0.64256918152E+02  0.10000000000E+01 0.  0.
    9000005    1    3    3    0    0 -0.50602247196E+02 -0.34724668516E+02 -0.45537817243E+02  0.76426977071E+02  0.10000000000E+01 0.  0.
<mgrwt>
<rscale>  0 0.12499969E+03</rscale>
<asrwt>0</asrwt>
<pdfrwt beam="2">  1        4 0.15787422E-01 0.12499969E+03</pdfrwt>
<pdfrwt beam="1">  1       -4 0.58562544E-02 0.12499969E+03</pdfrwt>
<totfact> 0.10119503E+04</totfact>
</mgrwt>
</event>
<event>
 5    1  0.3179758E-002  0.1250050E+03  0.7818608E-02  0.1235062E+00
          4   -1    0    0  501    0  0.00000000000E+00  0.00000000000E+00  0.12366472961E+03  0.12367125070E+03  0.12700000000E+01 0. -1.
         -4   -1    0    0    0  501 -0.00000000000E+00 -0.00000000000E+00 -0.31569811891E+02  0.31595346538E+02  0.12700000000E+01 0. -1.
         25    2    1    2    0    0  0.00000000000E+00  0.00000000000E+00  0.92094917720E+02  0.15526659724E+03  0.12500496929E+03 0.  0.
    9000005    1    3    3    0    0 -0.16819908939E+02  0.21392973589E+02 -0.23829993230E+02  0.36186146977E+02  0.10000000000E+01 0.  0.
    9000005    1    3    3    0    0  0.16819908939E+02 -0.21392973589E+02  0.11592491095E+03  0.11908045026E+03  0.10000000000E+01 0.  0.
<mgrwt>
<rscale>  0 0.12500497E+03</rscale>
<asrwt>0</asrwt>
<pdfrwt beam="1">  1        4 0.19027808E-01 0.12500497E+03</pdfrwt>
<pdfrwt beam="2">  1       -4 0.48593601E-02 0.12500497E+03</pdfrwt>
<totfact> 0.98252208E+03</totfact>
</mgrwt>
</event>
<event>
 5    1  0.3179758E-002  0.1250024E+03  0.7818608E-02  0.1235066E+00
         -4   -1    0    0    0  501 -0.00000000000E+00  0.00000000000E+00  0.36553244630E+03  0.36553465253E+03  0.12700000000E+01 0.  1.
          4   -1    0    0  501    0  0.00000000000E+00 -0.00000000000E+00 -0.10646897445E+02  0.10722374980E+02  0.12700000000E+01 0.  1.
         25    2    1    2    0    0  0.00000000000E+00  0.00000000000E+00  0.35488554886E+03  0.37625702751E+03  0.12500239183E+03 0.  0.
    9000005    1    3    3    0    0 -0.36881223397E+01  0.11894267557E+02 -0.68891983737E+01  0.14266635950E+02  0.10000000000E+01 0.  0.
    9000005    1    3    3    0    0  0.36881223397E+01 -0.11894267557E+02  0.36177474723E+03  0.36199039156E+03  0.10000000000E+01 0.  0.
<mgrwt>
<rscale>  0 0.12500239E+03</rscale>
<asrwt>0</asrwt>
<pdfrwt beam="2">  1        4 0.16439601E-02 0.12500239E+03</pdfrwt>
<pdfrwt beam="1">  1       -4 0.56241730E-01 0.12500239E+03</pdfrwt>
<totfact> 0.66925840E+03</totfact>
</mgrwt>
</event>
<event>
 5    1  0.3179758E-002  0.1250000E+03  0.7818608E-02  0.1235069E+00
          4   -1    0    0  501    0  0.00000000000E+00  0.00000000000E+00  0.22870940203E+02  0.22906173967E+02  0.12700000000E+01 0.  1.
         -4   -1    0    0    0  501 -0.00000000000E+00 -0.00000000000E+00 -0.17062623275E+03  0.17063095910E+03  0.12700000000E+01 0.  1.
         25    2    1    2    0    0  0.00000000000E+00  0.00000000000E+00 -0.14775529255E+03  0.19353713306E+03  0.12499998160E+03 0.  0.
    9000005    1    3    3    0    0 -0.37154471429E+02  0.22955606546E+02 -0.46731870496E+01  0.43934648016E+02  0.10000000000E+01 0.  0.
    9000005    1    3    3    0    0  0.37154471429E+02 -0.22955606546E+02 -0.14308210550E+03  0.14960248505E+03  0.10000000000E+01 0.  0.
<mgrwt>
<rscale>  0 0.12499998E+03</rscale>
<asrwt>0</asrwt>
<pdfrwt beam="1">  1        4 0.35216802E-02 0.12499998E+03</pdfrwt>
<pdfrwt beam="2">  1       -4 0.26253263E-01 0.12499998E+03</pdfrwt>
<totfact> 0.91235520E+03</totfact>
</mgrwt>
</event>
<event>
 5    1  0.3179758E-002  0.1250029E+03  0.7818608E-02  0.1235065E+00
          4   -1    0    0  501    0  0.00000000000E+00  0.00000000000E+00  0.33589359756E+02  0.33613360273E+02  0.12700000000E+01 0. -1.
         -4   -1    0    0    0  501 -0.00000000000E+00 -0.00000000000E+00 -0.11623067199E+03  0.11623761014E+03  0.12700000000E+01 0. -1.
         25    2    1    2    0    0  0.00000000000E+00  0.00000000000E+00 -0.82641312237E+02  0.14985097042E+03  0.12500290735E+03 0.  0.
    9000005    1    3    3    0    0 -0.20262439255E+02  0.41668614772E+01 -0.11201312887E+03  0.11391167727E+03  0.10000000000E+01 0.  0.
    9000005    1    3    3    0    0  0.20262439255E+02 -0.41668614772E+01  0.29371816636E+02  0.35939293144E+02  0.10000000000E+01 0.  0.
<mgrwt>
<rscale>  0 0.12500291E+03</rscale>
<asrwt>0</asrwt>
<pdfrwt beam="1">  1        4 0.51699738E-02 0.12500291E+03</pdfrwt>
<pdfrwt beam="2">  1       -4 0.17884022E-01 0.12500291E+03</pdfrwt>
<totfact> 0.99326914E+03</totfact>
</mgrwt>
</event>
<event>
 5    1  0.3179758E-002  0.1249968E+03  0.7818608E-02  0.1235074E+00
          4   -1    0    0  501    0  0.00000000000E+00  0.00000000000E+00  0.17321083933E+03  0.17321549515E+03  0.12700000000E+01 0. -1.
         -4   -1    0    0    0  501 -0.00000000000E+00 -0.00000000000E+00 -0.22528005547E+02  0.22563774816E+02  0.12700000000E+01 0. -1.
         25    2    1    2    0    0  0.00000000000E+00  0.00000000000E+00  0.15068283378E+03  0.19577926997E+03  0.12499682457E+03 0.  0.
    9000005    1    3    3    0    0 -0.27078586587E+02 -0.43220479757E+02  0.13189652668E+03  0.14141765615E+03  0.10000000000E+01 0.  0.
    9000005    1    3    3    0    0  0.27078586587E+02  0.43220479757E+02  0.18786307103E+02  0.54361613815E+02  0.10000000000E+01 0.  0.
<mgrwt>
<rscale>  0 0.12499682E+03</rscale>
<asrwt>0</asrwt>
<pdfrwt beam="1">  1        4 0.26650931E-01 0.12499682E+03</pdfrwt>
<pdfrwt beam="2">  1       -4 0.34689567E-02 0.12499682E+03</pdfrwt>
<totfact> 0.90857810E+03</totfact>
</mgrwt>
</event>
<event>
 5    1  0.3179758E-002  0.1250035E+03  0.7818608E-02  0.1235064E+00
         -4   -1    0    0    0  501 -0.00000000000E+00  0.00000000000E+00  0.90344974106E+02  0.90353900005E+02  0.12700000000E+01 0.  1.
          4   -1    0    0  501    0  0.00000000000E+00 -0.00000000000E+00 -0.43219085503E+02  0.43237741057E+02  0.12700000000E+01 0.  1.
         25    2    1    2    0    0  0.00000000000E+00  0.00000000000E+00  0.47125888603E+02  0.13359164106E+03  0.12500350869E+03 0.  0.
    9000005    1    3    3    0    0  0.71544081053E+01  0.15739494609E+02 -0.40617568643E+02  0.44155454118E+02  0.10000000000E+01 0.  0.
    9000005    1    3    3    0    0 -0.71544081053E+01 -0.15739494609E+02  0.87743457246E+02  0.89436186945E+02  0.10000000000E+01 0.  0.
<mgrwt>
<rscale>  0 0.12500351E+03</rscale>
<asrwt>0</asrwt>
<pdfrwt beam="2">  1        4 0.66512119E-02 0.12500351E+03</pdfrwt>
<pdfrwt beam="1">  1       -4 0.13901348E-01 0.12500351E+03</pdfrwt>
<totfact> 0.10267029E+04</totfact>
</mgrwt>
</event>
<event>
 5    1  0.3179758E-002  0.1249992E+03  0.7818608E-02  0.1235071E+00
          4   -1    0    0  501    0  0.00000000000E+00  0.00000000000E+00  0.10718982180E+03  0.10719734510E+03  0.12700000000E+01 0.  1.
         -4   -1    0    0    0  501 -0.00000000000E+00 -0.00000000000E+00 -0.36422034025E+02  0.36444169116E+02  0.12700000000E+01 0.  1.
         25    2    1    2    0    0  0.00000000000E+00  0.00000000000E+00  0.70767787770E+02  0.14364151422E+03  0.12499921928E+03 0.  0.
    9000005    1    3    3    0    0 -0.32783636908E+02  0.52816718793E+02  0.28041211040E+02  0.68203241489E+02  0.10000000000E+01 0.  0.
    9000005    1    3    3    0    0  0.32783636908E+02 -0.52816718793E+02  0.42726576731E+02  0.75438272728E+02  0.10000000000E+01 0.  0.
<mgrwt>
<rscale>  0 0.12499922E+03</rscale>
<asrwt>0</asrwt>
<pdfrwt beam="1">  1        4 0.16493023E-01 0.12499922E+03</pdfrwt>
<pdfrwt beam="2">  1       -4 0.56056713E-02 0.12499922E+03</pdfrwt>
<totfact> 0.10058840E+04</totfact>
</mgrwt>
</event>
<event>
 5    1  0.3179758E-002  0.1249970E+03  0.7818608E-02  0.1235074E+00
          4   -1    0    0  501    0  0.00000000000E+00  0.00000000000E+00  0.90462133900E+02  0.90471048240E+02  0.12700000000E+01 0. -1.
         -4   -1    0    0    0  501 -0.00000000000E+00 -0.00000000000E+00 -0.43158589939E+02  0.43177271632E+02  0.12700000000E+01 0. -1.
         25    2    1    2    0    0  0.00000000000E+00  0.00000000000E+00  0.47303543961E+02  0.13364831987E+03  0.12499699250E+03 0.  0.
    9000005    1    3    3    0    0 -0.31589176151E+02 -0.44493093927E+02  0.56215396586E+02  0.78349743269E+02  0.10000000000E+01 0.  0.
    9000005    1    3    3    0    0  0.31589176151E+02  0.44493093927E+02 -0.89118526250E+01  0.55298576603E+02  0.10000000000E+01 0.  0.
<mgrwt>
<rscale>  0 0.12499699E+03</rscale>
<asrwt>0</asrwt>
<pdfrwt beam="1">  1        4 0.13919374E-01 0.12499699E+03</pdfrwt>
<pdfrwt beam="2">  1       -4 0.66419059E-02 0.12499699E+03</pdfrwt>
<totfact> 0.10267336E+04</totfact>
</mgrwt>
</event>
<event>
 5    1  0.3179758E-002  0.1249953E+03  0.7818608E-02  0.1235077E+00
          4   -1    0    0  501    0  0.00000000000E+00  0.00000000000E+00  0.19914662882E+02  0.19955117081E+02  0.12700000000E+01 0. -1.
         -4   -1    0    0    0  501 -0.00000000000E+00 -0.00000000000E+00 -0.19589310009E+03  0.19589721684E+03  0.12700000000E+01 0. -1.
         25    2    1    2    0    0  0.00000000000E+00  0.00000000000E+00 -0.17597843721E+03  0.21585233392E+03  0.12499527869E+03 0.  0.
    9000005    1    3    3    0    0  0.59155977236E+02 -0.17163081035E+02 -0.10617929340E+03  0.12275603179E+03  0.10000000000E+01 0.  0.
    9000005    1    3    3    0    0 -0.59155977236E+02  0.17163081035E+02 -0.69799143810E+02  0.93096302128E+02  0.10000000000E+01 0.  0.
<mgrwt>
<rscale>  0 0.12499528E+03</rscale>
<asrwt>0</asrwt>
<pdfrwt beam="1">  1        4 0.30672230E-02 0.12499528E+03</pdfrwt>
<pdfrwt beam="2">  1       -4 0.30140827E-01 0.12499528E+03</pdfrwt>
<totfact> 0.87538184E+03</totfact>
</mgrwt>
</event>
<event>
 5    1  0.3179758E-002  0.1250021E+03  0.7818608E-02  0.1235066E+00
         -4   -1    0    0    0  501 -0.00000000000E+00  0.00000000000E+00  0.13870080720E+02  0.13928102498E+02  0.12700000000E+01 0. -1.
          4   -1    0    0  501    0  0.00000000000E+00 -0.00000000000E+00 -0.28099347880E+03  0.28099634878E+03  0.12700000000E+01 0. -1.
         25    2    1    2    0    0  0.00000000000E+00  0.00000000000E+00 -0.26712339808E+03  0.29492445128E+03  0.12500208862E+03 0.  0.
    9000005    1    3    3    0    0 -0.49839912464E+02 -0.26991829400E+02 -0.19566275115E+03  0.20370932212E+03  0.10000000000E+01 0.  0.
    9000005    1    3    3    0    0  0.49839912464E+02  0.26991829400E+02 -0.71460646928E+02  0.91215129162E+02  0.10000000000E+01 0.  0.
<mgrwt>
<rscale>  0 0.12500209E+03</rscale>
<asrwt>0</asrwt>
<pdfrwt beam="2">  1        4 0.43234446E-01 0.12500209E+03</pdfrwt>
<pdfrwt beam="1">  1       -4 0.21385428E-02 0.12500209E+03</pdfrwt>
<totfact> 0.76236415E+03</totfact>
</mgrwt>
</event>
<event>
 5    1  0.3179758E-002  0.1250046E+03  0.7818608E-02  0.1235062E+00
         -4   -1    0    0    0  501 -0.00000000000E+00  0.00000000000E+00  0.81490615751E+01  0.82474301789E+01  0.12700000000E+01 0. -1.
          4   -1    0    0  501    0  0.00000000000E+00 -0.00000000000E+00 -0.47640957512E+03  0.47641126788E+03  0.12700000000E+01 0. -1.
         25    2    1    2    0    0  0.00000000000E+00  0.00000000000E+00 -0.46826051355E+03  0.48465869806E+03  0.12500458016E+03 0.  0.
    9000005    1    3    3    0    0 -0.27078307224E+02 -0.24246918211E+02 -0.43123132838E+03  0.43276160451E+03  0.10000000000E+01 0.  0.
    9000005    1    3    3    0    0  0.27078307224E+02  0.24246918211E+02 -0.37029185167E+02  0.51897093550E+02  0.10000000000E+01 0.  0.
<mgrwt>
<rscale>  0 0.12500458E+03</rscale>
<asrwt>0</asrwt>
<pdfrwt beam="2">  1        4 0.73301456E-01 0.12500458E+03</pdfrwt>
<pdfrwt beam="1">  1       -4 0.12613992E-02 0.12500458E+03</pdfrwt>
<totfact> 0.57068882E+03</totfact>
</mgrwt>
</event>
<event>
 5    1  0.3179758E-002  0.1249809E+03  0.7818608E-02  0.1235099E+00
         -4   -1    0    0    0  501 -0.00000000000E+00  0.00000000000E+00  0.12167810455E+03  0.12168473210E+03  0.12700000000E+01 0.  1.
          4   -1    0    0  501    0  0.00000000000E+00 -0.00000000000E+00 -0.32073262809E+02  0.32098396958E+02  0.12700000000E+01 0.  1.
         25    2    1    2    0    0  0.00000000000E+00  0.00000000000E+00  0.89604841738E+02  0.15378312906E+03  0.12498089102E+03 0.  0.
    9000005    1    3    3    0    0  0.39321943288E+02  0.10646742211E+02 -0.13491553568E+02  0.42925404614E+02  0.10000000000E+01 0.  0.
    9000005    1    3    3    0    0 -0.39321943288E+02 -0.10646742211E+02  0.10309639531E+03  0.11085772444E+03  0.10000000000E+01 0.  0.
<mgrwt>
<rscale>  0 0.12498089E+03</rscale>
<asrwt>0</asrwt>
<pdfrwt beam="2">  1        4 0.49367914E-02 0.12498089E+03</pdfrwt>
<pdfrwt beam="1">  1       -4 0.18722151E-01 0.12498089E+03</pdfrwt>
<totfact> 0.98597241E+03</totfact>
</mgrwt>
</event>
<event>
 5    1  0.3179758E-002  0.1249991E+03  0.7818608E-02  0.1235071E+00
          4   -1    0    0  501    0  0.00000000000E+00  0.00000000000E+00  0.52096586691E+02  0.52112064293E+02  0.12700000000E+01 0. -1.
         -4   -1    0    0    0  501 -0.00000000000E+00 -0.00000000000E+00 -0.74947845657E+02  0.74958605034E+02  0.12700000000E+01 0. -1.
         25    2    1    2    0    0  0.00000000000E+00  0.00000000000E+00 -0.22851258966E+02  0.12707066933E+03  0.12499909986E+03 0.  0.
    9000005    1    3    3    0    0 -0.77143988239E+01  0.60160084167E+02 -0.26723142150E+02  0.66286303280E+02  0.10000000000E+01 0.  0.
    9000005    1    3    3    0    0  0.77143988239E+01 -0.60160084167E+02  0.38718831844E+01  0.60784366046E+02  0.10000000000E+01 0.  0.
<mgrwt>
<rscale>  0 0.12499910E+03</rscale>
<asrwt>0</asrwt>
<pdfrwt beam="1">  1        4 0.80168777E-02 0.12499910E+03</pdfrwt>
<pdfrwt beam="2">  1       -4 0.11532456E-01 0.12499910E+03</pdfrwt>
<totfact> 0.10407822E+04</totfact>
</mgrwt>
</event>
<event>
 5    1  0.3179758E-002  0.1249986E+03  0.7818608E-02  0.1235072E+00
          4   -1    0    0  501    0  0.00000000000E+00  0.00000000000E+00  0.72493461169E+03  0.72493572414E+03  0.12700000000E+01 0.  1.
         -4   -1    0    0    0  501 -0.00000000000E+00 -0.00000000000E+00 -0.53123283560E+01  0.54620264153E+01  0.12700000000E+01 0.  1.
         25    2    1    2    0    0  0.00000000000E+00  0.00000000000E+00  0.71962228334E+03  0.73039775055E+03  0.12499857334E+03 0.  0.
    9000005    1    3    3    0    0  0.16111220512E+02 -0.57436626979E+02  0.46859970471E+03  0.47238249417E+03  0.10000000000E+01 0.  0.
    9000005    1    3    3    0    0 -0.16111220512E+02  0.57436626979E+02  0.25102257863E+03  0.25801525639E+03  0.10000000000E+01 0.  0.
<mgrwt>
<rscale>  0 0.12499857E+03</rscale>
<asrwt>0</asrwt>
<pdfrwt beam="1">  1        4 0.11153995E+00 0.12499857E+03</pdfrwt>
<pdfrwt beam="2">  1       -4 0.82888249E-03 0.12499857E+03</pdfrwt>
<totfact> 0.41531029E+03</totfact>
</mgrwt>
</event>
<event>
 5    1  0.3179758E-002  0.1250068E+03  0.7818608E-02  0.1235059E+00
          4   -1    0    0  501    0  0.00000000000E+00  0.00000000000E+00  0.20133973935E+03  0.20134374473E+03  0.12700000000E+01 0. -1.
         -4   -1    0    0    0  501 -0.00000000000E+00 -0.00000000000E+00 -0.19378403328E+02  0.19419974654E+02  0.12700000000E+01 0. -1.
         25    2    1    2    0    0  0.00000000000E+00  0.00000000000E+00  0.18196133602E+03  0.22076371938E+03  0.12500676777E+03 0.  0.
    9000005    1    3    3    0    0 -0.96988246390E+01 -0.47749102518E+02  0.21865882015E+02  0.53414986539E+02  0.10000000000E+01 0.  0.
    9000005    1    3    3    0    0  0.96988246390E+01  0.47749102518E+02  0.16009545400E+03  0.16734873284E+03  0.10000000000E+01 0.  0.
<mgrwt>
<rscale>  0 0.12500677E+03</rscale>
<asrwt>0</asrwt>
<pdfrwt beam="1">  1        4 0.30978849E-01 0.12500677E+03</pdfrwt>
<pdfrwt beam="2">  1       -4 0.29847988E-02 0.12500677E+03</pdfrwt>
<totfact> 0.86734534E+03</totfact>
</mgrwt>
</event>
<event>
 5    1  0.3179758E-002  0.1249999E+03  0.7818608E-02  0.1235069E+00
          4   -1    0    0  501    0  0.00000000000E+00  0.00000000000E+00  0.97207562023E+03  0.97207644984E+03  0.12700000000E+01 0. -1.
         -4   -1    0    0    0  501 -0.00000000000E+00 -0.00000000000E+00 -0.39172628845E+01  0.41179908337E+01  0.12700000000E+01 0. -1.
         25    2    1    2    0    0  0.00000000000E+00  0.00000000000E+00  0.96815835734E+03  0.97619444068E+03  0.12499992447E+03 0.  0.
    9000005    1    3    3    0    0 -0.54133999989E+02  0.70720415019E+01  0.24659386038E+03  0.25256689352E+03  0.10000000000E+01 0.  0.
    9000005    1    3    3    0    0  0.54133999989E+02 -0.70720415019E+01  0.72156449696E+03  0.72362754716E+03  0.10000000000E+01 0.  0.
<mgrwt>
<rscale>  0 0.12499992E+03</rscale>
<asrwt>0</asrwt>
<pdfrwt beam="1">  1        4 0.14956576E+00 0.12499992E+03</pdfrwt>
<pdfrwt beam="2">  1       -4 0.61815960E-03 0.12499992E+03</pdfrwt>
<totfact> 0.31403855E+03</totfact>
</mgrwt>
</event>
<event>
 5    1  0.3179758E-002  0.1249959E+03  0.7818608E-02  0.1235076E+00
         -4   -1    0    0    0  501 -0.00000000000E+00  0.00000000000E+00  0.21193621335E+03  0.21194001847E+03  0.12700000000E+01 0.  1.
          4   -1    0    0  501    0  0.00000000000E+00 -0.00000000000E+00 -0.18404202654E+02  0.18447969409E+02  0.12700000000E+01 0.  1.
         25    2    1    2    0    0  0.00000000000E+00  0.00000000000E+00  0.19353201069E+03  0.23038798788E+03  0.12499594311E+03 0.  0.
    9000005    1    3    3    0    0  0.10343252806E+02 -0.26020519366E+02  0.19973513720E+03  0.20169079141E+03  0.10000000000E+01 0.  0.
    9000005    1    3    3    0    0 -0.10343252806E+02  0.26020519366E+02 -0.62031265060E+01  0.28697196469E+02  0.10000000000E+01 0.  0.
<mgrwt>
<rscale>  0 0.12499594E+03</rscale>
<asrwt>0</asrwt>
<pdfrwt beam="2">  1        4 0.28350752E-02 0.12499594E+03</pdfrwt>
<pdfrwt beam="1">  1       -4 0.32609230E-01 0.12499594E+03</pdfrwt>
<totfact> 0.85257773E+03</totfact>
</mgrwt>
</event>
<event>
 5    1  0.3179758E-002  0.1250011E+03  0.7818608E-02  0.1235068E+00
         -4   -1    0    0    0  501 -0.00000000000E+00  0.00000000000E+00  0.20832051517E+02  0.20870727597E+02  0.12700000000E+01 0.  1.
          4   -1    0    0  501    0  0.00000000000E+00 -0.00000000000E+00 -0.18730003784E+03  0.18730434345E+03  0.12700000000E+01 0.  1.
         25    2    1    2    0    0  0.00000000000E+00  0.00000000000E+00 -0.16646798632E+03  0.20817507105E+03  0.12500107893E+03 0.  0.
    9000005    1    3    3    0    0 -0.49807489615E+02  0.18067343859E+02 -0.13842094405E+03  0.14821799043E+03  0.10000000000E+01 0.  0.
    9000005    1    3    3    0    0  0.49807489615E+02 -0.18067343859E+02 -0.28047042279E+02  0.59957080620E+02  0.10000000000E+01 0.  0.
<mgrwt>
<rscale>  0 0.12500108E+03</rscale>
<asrwt>0</asrwt>
<pdfrwt beam="2">  1        4 0.28818696E-01 0.12500108E+03</pdfrwt>
<pdfrwt beam="1">  1       -4 0.32082374E-02 0.12500108E+03</pdfrwt>
<totfact> 0.88772644E+03</totfact>
</mgrwt>
</event>
<event>
 5    1  0.3179758E-002  0.1249910E+03  0.7818608E-02  0.1235083E+00
          4   -1    0    0  501    0  0.00000000000E+00  0.00000000000E+00  0.28690956247E+03  0.28691237328E+03  0.12700000000E+01 0.  1.
         -4   -1    0    0    0  501 -0.00000000000E+00 -0.00000000000E+00 -0.13580461281E+02  0.13639715122E+02  0.12700000000E+01 0.  1.
         25    2    1    2    0    0  0.00000000000E+00  0.00000000000E+00  0.27332910119E+03  0.30055208840E+03  0.12499104081E+03 0.  0.
    9000005    1    3    3    0    0 -0.59399797465E+02  0.10979398741E+02  0.98205636064E+02  0.11530060750E+03  0.10000000000E+01 0.  0.
    9000005    1    3    3    0    0  0.59399797465E+02 -0.10979398741E+02  0.17512346513E+03  0.18525148090E+03  0.10000000000E+01 0.  0.
<mgrwt>
<rscale>  0 0.12499104E+03</rscale>
<asrwt>0</asrwt>
<pdfrwt beam="1">  1        4 0.44144706E-01 0.12499104E+03</pdfrwt>
<pdfrwt beam="2">  1       -4 0.20940760E-02 0.12499104E+03</pdfrwt>
<totfact> 0.75544660E+03</totfact>
</mgrwt>
</event>
<event>
 5    1  0.3179758E-002  0.1249979E+03  0.7818608E-02  0.1235073E+00
         -4   -1    0    0    0  501 -0.00000000000E+00  0.00000000000E+00  0.49252749123E+02  0.49269120108E+02  0.12700000000E+01 0. -1.
          4   -1    0    0  501    0  0.00000000000E+00 -0.00000000000E+00 -0.79273031077E+02  0.79283203493E+02  0.12700000000E+01 0. -1.
         25    2    1    2    0    0  0.00000000000E+00  0.00000000000E+00 -0.30020281954E+02  0.12855232360E+03  0.12499793028E+03 0.  0.
    9000005    1    3    3    0    0  0.13776903276E+00 -0.20597908404E+02 -0.75686341851E+02  0.78445619085E+02  0.10000000000E+01 0.  0.
    9000005    1    3    3    0    0 -0.13776903276E+00  0.20597908404E+02  0.45666059897E+02  0.50106704516E+02  0.10000000000E+01 0.  0.
<mgrwt>
<rscale>  0 0.12499793E+03</rscale>
<asrwt>0</asrwt>
<pdfrwt beam="2">  1        4 0.12197893E-01 0.12499793E+03</pdfrwt>
<pdfrwt beam="1">  1       -4 0.75793878E-02 0.12499793E+03</pdfrwt>
<totfact> 0.10376062E+04</totfact>
</mgrwt>
</event>
<event>
 5    1  0.3179758E-002  0.1249995E+03  0.7818608E-02  0.1235070E+00
         -4   -1    0    0    0  501 -0.00000000000E+00  0.00000000000E+00  0.27898313107E+02  0.27927204912E+02  0.12700000000E+01 0. -1.
          4   -1    0    0  501    0  0.00000000000E+00 -0.00000000000E+00 -0.13991198854E+03  0.13991775240E+03  0.12700000000E+01 0. -1.
         25    2    1    2    0    0  0.00000000000E+00  0.00000000000E+00 -0.11201367543E+03  0.16784495731E+03  0.12499946485E+03 0.  0.
    9000005    1    3    3    0    0 -0.51189645112E+02 -0.22299978740E+02 -0.18324434921E+02  0.58774601093E+02  0.10000000000E+01 0.  0.
    9000005    1    3    3    0    0  0.51189645112E+02  0.22299978740E+02 -0.93689240513E+02  0.10907035622E+03  0.10000000000E+01 0.  0.
<mgrwt>
<rscale>  0 0.12499946E+03</rscale>
<asrwt>0</asrwt>
<pdfrwt beam="2">  1        4 0.21527587E-01 0.12499946E+03</pdfrwt>
<pdfrwt beam="1">  1       -4 0.42947141E-02 0.12499946E+03</pdfrwt>
<totfact> 0.95852451E+03</totfact>
</mgrwt>
</event>
<event>
 5    1  0.3179758E-002  0.1249995E+03  0.7818608E-02  0.1235070E+00
         -4   -1    0    0    0  501 -0.00000000000E+00  0.00000000000E+00  0.95121492291E+03  0.95121577072E+03  0.12700000000E+01 0.  1.
          4   -1    0    0  501    0  0.00000000000E+00 -0.00000000000E+00 -0.40074936276E+01  0.42039154577E+01  0.12700000000E+01 0.  1.
         25    2    1    2    0    0  0.00000000000E+00  0.00000000000E+00  0.94720742929E+03  0.95541968618E+03  0.12499945059E+03 0.  0.
    9000005    1    3    3    0    0  0.58240956170E+02  0.11110524776E+02  0.62450270873E+03  0.62731179325E+03  0.10000000000E+01 0.  0.
    9000005    1    3    3    0    0 -0.58240956170E+02 -0.11110524776E+02  0.32270472056E+03  0.32810789293E+03  0.10000000000E+01 0.  0.
<mgrwt>
<rscale>  0 0.12499945E+03</rscale>
<asrwt>0</asrwt>
<pdfrwt beam="2">  1        4 0.63171151E-03 0.12499945E+03</pdfrwt>
<pdfrwt beam="1">  1       -4 0.14635606E+00 0.12499945E+03</pdfrwt>
<totfact> 0.32124681E+03</totfact>
</mgrwt>
</event>
<event>
 5    1  0.3179758E-002  0.1249968E+03  0.7818608E-02  0.1235074E+00
         -4   -1    0    0    0  501 -0.00000000000E+00  0.00000000000E+00  0.13094380479E+03  0.13094996339E+03  0.12700000000E+01 0. -1.
          4   -1    0    0  501    0  0.00000000000E+00 -0.00000000000E+00 -0.29809585715E+02  0.29836626828E+02  0.12700000000E+01 0. -1.
         25    2    1    2    0    0  0.00000000000E+00  0.00000000000E+00  0.10113421908E+03  0.16078659022E+03  0.12499678927E+03 0.  0.
    9000005    1    3    3    0    0  0.41164557970E+02  0.44772637700E+02  0.69026642217E+02  0.92004278462E+02  0.10000000000E+01 0.  0.
    9000005    1    3    3    0    0 -0.41164557970E+02 -0.44772637700E+02  0.32107576858E+02  0.68782311761E+02  0.10000000000E+01 0.  0.
<mgrwt>
<rscale>  0 0.12499679E+03</rscale>
<asrwt>0</asrwt>
<pdfrwt beam="2">  1        4 0.45886440E-02 0.12499679E+03</pdfrwt>
<pdfrwt beam="1">  1       -4 0.20147754E-01 0.12499679E+03</pdfrwt>
<totfact> 0.97198365E+03</totfact>
</mgrwt>
</event>
<event>
 5    1  0.3179758E-002  0.1250059E+03  0.7818608E-02  0.1235060E+00
         -4   -1    0    0    0  501 -0.00000000000E+00  0.00000000000E+00  0.21558898140E+03  0.21559272205E+03  0.12700000000E+01 0. -1.
          4   -1    0    0  501    0  0.00000000000E+00 -0.00000000000E+00 -0.18094533583E+02  0.18139047538E+02  0.12700000000E+01 0. -1.
         25    2    1    2    0    0  0.00000000000E+00  0.00000000000E+00  0.19749444782E+03  0.23373176959E+03  0.12500593264E+03 0.  0.
    9000005    1    3    3    0    0 -0.39240764302E+02 -0.47035507215E+02  0.12190849928E+03  0.13643628080E+03  0.10000000000E+01 0.  0.
    9000005    1    3    3    0    0  0.39240764302E+02  0.47035507215E+02  0.75585948531E+02  0.97295488782E+02  0.10000000000E+01 0.  0.
<mgrwt>
<rscale>  0 0.12500593E+03</rscale>
<asrwt>0</asrwt>
<pdfrwt beam="2">  1        4 0.27874865E-02 0.12500593E+03</pdfrwt>
<pdfrwt beam="1">  1       -4 0.33171245E-01 0.12500593E+03</pdfrwt>
<totfact> 0.84728644E+03</totfact>
</mgrwt>
</event>
<event>
 5    1  0.3179758E-002  0.1250087E+03  0.7818608E-02  0.1235056E+00
          4   -1    0    0  501    0  0.00000000000E+00  0.00000000000E+00  0.76579664969E+02  0.76590195109E+02  0.12700000000E+01 0.  1.
         -4   -1    0    0    0  501 -0.00000000000E+00 -0.00000000000E+00 -0.50994104526E+02  0.51009916648E+02  0.12700000000E+01 0.  1.
         25    2    1    2    0    0  0.00000000000E+00  0.00000000000E+00  0.25585560443E+02  0.12760011176E+03  0.12500867017E+03 0.  0.
    9000005    1    3    3    0    0 -0.19965379715E+00  0.61496426951E+02  0.24156468697E+02  0.66078630202E+02  0.10000000000E+01 0.  0.
    9000005    1    3    3    0    0  0.19965379715E+00 -0.61496426951E+02  0.14290917460E+01  0.61521481554E+02  0.10000000000E+01 0.  0.
<mgrwt>
<rscale>  0 0.12500867E+03</rscale>
<asrwt>0</asrwt>
<pdfrwt beam="1">  1        4 0.11783513E-01 0.12500867E+03</pdfrwt>
<pdfrwt beam="2">  1       -4 0.78472732E-02 0.12500867E+03</pdfrwt>
<totfact> 0.10394098E+04</totfact>
</mgrwt>
</event>
<event>
 5    1  0.3179758E-002  0.1249684E+03  0.7818608E-02  0.1235119E+00
         -4   -1    0    0    0  501 -0.00000000000E+00  0.00000000000E+00  0.18908695008E+03  0.18909121500E+03  0.12700000000E+01 0.  1.
          4   -1    0    0  501    0  0.00000000000E+00 -0.00000000000E+00 -0.20624004620E+02  0.20663070115E+02  0.12700000000E+01 0.  1.
         25    2    1    2    0    0  0.00000000000E+00  0.00000000000E+00  0.16846294545E+03  0.20975428511E+03  0.12496838053E+03 0.  0.
    9000005    1    3    3    0    0  0.19603735364E+02  0.55720931754E+02  0.50073892385E+02  0.77443678724E+02  0.10000000000E+01 0.  0.
    9000005    1    3    3    0    0 -0.19603735364E+02 -0.55720931754E+02  0.11838905307E+03  0.13231060639E+03  0.10000000000E+01 0.  0.
<mgrwt>
<rscale>  0 0.12496838E+03</rscale>
<asrwt>0</asrwt>
<pdfrwt beam="2">  1        4 0.31762569E-02 0.12496838E+03</pdfrwt>
<pdfrwt beam="1">  1       -4 0.29093633E-01 0.12496838E+03</pdfrwt>
<totfact> 0.88578627E+03</totfact>
</mgrwt>
</event>
<event>
 5    1  0.3179758E-002  0.1250009E+03  0.7818608E-02  0.1235068E+00
         -4   -1    0    0    0  501 -0.00000000000E+00  0.00000000000E+00  0.30609795634E+01  0.33139848955E+01  0.12700000000E+01 0. -1.
          4   -1    0    0  501    0  0.00000000000E+00 -0.00000000000E+00 -0.12252603962E+04  0.12252610544E+04  0.12700000000E+01 0. -1.
         25    2    1    2    0    0  0.00000000000E+00  0.00000000000E+00 -0.12221994166E+04  0.12285750393E+04  0.12500085248E+03 0.  0.
    9000005    1    3    3    0    0  0.67326832737E+01  0.46386483651E+02 -0.20487459808E+03  0.21017049228E+03  0.10000000000E+01 0.  0.
    9000005    1    3    3    0    0 -0.67326832737E+01 -0.46386483651E+02 -0.10173248185E+04  0.10184045470E+04  0.10000000000E+01 0.  0.
<mgrwt>
<rscale>  0 0.12500085E+03</rscale>
<asrwt>0</asrwt>
<pdfrwt beam="2">  1        4 0.18852074E+00 0.12500085E+03</pdfrwt>
<pdfrwt beam="1">  1       -4 0.49043349E-03 0.12500085E+03</pdfrwt>
<totfact> 0.23976436E+03</totfact>
</mgrwt>
</event>
<event>
 5    1  0.3179758E-002  0.1249853E+03  0.7818608E-02  0.1235092E+00
         -4   -1    0    0    0  501 -0.00000000000E+00  0.00000000000E+00  0.22681701458E+03  0.22682057006E+03  0.12700000000E+01 0. -1.
          4   -1    0    0  501    0  0.00000000000E+00 -0.00000000000E+00 -0.17190865659E+02  0.17237713366E+02  0.12700000000E+01 0. -1.
         25    2    1    2    0    0  0.00000000000E+00  0.00000000000E+00  0.20962614892E+03  0.24405828343E+03  0.12498529273E+03 0.  0.
    9000005    1    3    3    0    0  0.34017020768E+02 -0.51145542530E+02  0.82437305807E+02  0.10281018243E+03  0.10000000000E+01 0.  0.
    9000005    1    3    3    0    0 -0.34017020768E+02  0.51145542530E+02  0.12718884311E+03  0.14124810100E+03  0.10000000000E+01 0.  0.
<mgrwt>
<rscale>  0 0.12498529E+03</rscale>
<asrwt>0</asrwt>
<pdfrwt beam="2">  1        4 0.26486258E-02 0.12498529E+03</pdfrwt>
<pdfrwt beam="1">  1       -4 0.34898802E-01 0.12498529E+03</pdfrwt>
<totfact> 0.83223922E+03</totfact>
</mgrwt>
</event>
<event>
 5    1  0.3179758E-002  0.1249954E+03  0.7818608E-02  0.1235076E+00
         -4   -1    0    0    0  501 -0.00000000000E+00  0.00000000000E+00  0.10122995009E+03  0.10123791630E+03  0.12700000000E+01 0.  1.
          4   -1    0    0  501    0  0.00000000000E+00 -0.00000000000E+00 -0.38565139930E+02  0.38586045636E+02  0.12700000000E+01 0.  1.
         25    2    1    2    0    0  0.00000000000E+00  0.00000000000E+00  0.62664810164E+02  0.13982396193E+03  0.12499544751E+03 0.  0.
    9000005    1    3    3    0    0  0.25965630318E+02 -0.47732369733E+02  0.65853996461E+02  0.85383499156E+02  0.10000000000E+01 0.  0.
    9000005    1    3    3    0    0 -0.25965630318E+02  0.47732369733E+02 -0.31891862975E+01  0.54440462777E+02  0.10000000000E+01 0.  0.
<mgrwt>
<rscale>  0 0.12499545E+03</rscale>
<asrwt>0</asrwt>
<pdfrwt beam="2">  1        4 0.59353194E-02 0.12499545E+03</pdfrwt>
<pdfrwt beam="1">  1       -4 0.15576059E-01 0.12499545E+03</pdfrwt>
<totfact> 0.10138275E+04</totfact>
</mgrwt>
</event>
<event>
 5    1  0.3179758E-002  0.1250192E+03  0.7818608E-02  0.1235039E+00
          4   -1    0    0  501    0  0.00000000000E+00  0.00000000000E+00  0.10551231769E+02  0.10627388760E+02  0.12700000000E+01 0. -1.
         -4   -1    0    0    0  501 -0.00000000000E+00 -0.00000000000E+00 -0.36892196488E+03  0.36892415084E+03  0.12700000000E+01 0. -1.
         25    2    1    2    0    0  0.00000000000E+00  0.00000000000E+00 -0.35837073311E+03  0.37955153960E+03  0.12501915397E+03 0.  0.
    9000005    1    3    3    0    0 -0.42873652668E+02  0.40858619308E+02 -0.11855222383E+03  0.13252624888E+03  0.10000000000E+01 0.  0.
    9000005    1    3    3    0    0  0.42873652668E+02 -0.40858619308E+02 -0.23981850928E+03  0.24702529072E+03  0.10000000000E+01 0.  0.
<mgrwt>
<rscale>  0 0.12501915E+03</rscale>
<asrwt>0</asrwt>
<pdfrwt beam="1">  1        4 0.16292931E-02 0.12501915E+03</pdfrwt>
<pdfrwt beam="2">  1       -4 0.56763242E-01 0.12501915E+03</pdfrwt>
<totfact> 0.66563193E+03</totfact>
</mgrwt>
</event>
<event>
 5    1  0.3179758E-002  0.1249988E+03  0.7818608E-02  0.1235071E+00
          4   -1    0    0  501    0  0.00000000000E+00  0.00000000000E+00  0.53458609319E+02  0.53473692694E+02  0.12700000000E+01 0. -1.
         -4   -1    0    0    0  501 -0.00000000000E+00 -0.00000000000E+00 -0.73038252550E+02  0.73049293190E+02  0.12700000000E+01 0. -1.
         25    2    1    2    0    0  0.00000000000E+00  0.00000000000E+00 -0.19579643231E+02  0.12652298588E+03  0.12499881411E+03 0.  0.
    9000005    1    3    3    0    0  0.20784259401E+02 -0.55960474316E+02  0.89183991957E+01  0.60366364548E+02  0.10000000000E+01 0.  0.
    9000005    1    3    3    0    0 -0.20784259401E+02  0.55960474316E+02 -0.28498042427E+02  0.66156621337E+02  0.10000000000E+01 0.  0.
<mgrwt>
<rscale>  0 0.12499881E+03</rscale>
<asrwt>0</asrwt>
<pdfrwt beam="1">  1        4 0.82264110E-02 0.12499881E+03</pdfrwt>
<pdfrwt beam="2">  1       -4 0.11238664E-01 0.12499881E+03</pdfrwt>
<totfact> 0.10419806E+04</totfact>
</mgrwt>
</event>
<event>
 5    1  0.3179758E-002  0.1250010E+03  0.7818608E-02  0.1235068E+00
          4   -1    0    0  501    0  0.00000000000E+00  0.00000000000E+00  0.42438595175E+03  0.42438785202E+03  0.12700000000E+01 0. -1.
         -4   -1    0    0    0  501 -0.00000000000E+00 -0.00000000000E+00 -0.91588875943E+01  0.92465194514E+01  0.12700000000E+01 0. -1.
         25    2    1    2    0    0  0.00000000000E+00  0.00000000000E+00  0.41522706416E+03  0.43363437147E+03  0.12500101325E+03 0.  0.
    9000005    1    3    3    0    0  0.41022874767E+02  0.72018764478E+00  0.44092274515E+02  0.60237227661E+02  0.10000000000E+01 0.  0.
    9000005    1    3    3    0    0 -0.41022874767E+02 -0.72018764478E+00  0.37113478964E+03  0.37339714381E+03  0.10000000000E+01 0.  0.
<mgrwt>
<rscale>  0 0.12500101E+03</rscale>
<asrwt>0</asrwt>
<pdfrwt beam="1">  1        4 0.65297048E-01 0.12500101E+03</pdfrwt>
<pdfrwt beam="2">  1       -4 0.14159464E-02 0.12500101E+03</pdfrwt>
<totfact> 0.61406552E+03</totfact>
</mgrwt>
</event>
<event>
 5    1  0.3179758E-002  0.1249930E+03  0.7818608E-02  0.1235080E+00
          4   -1    0    0  501    0  0.00000000000E+00  0.00000000000E+00  0.31015324306E+03  0.31015584322E+03  0.12700000000E+01 0.  1.
         -4   -1    0    0    0  501 -0.00000000000E+00 -0.00000000000E+00 -0.12558495007E+02  0.12622547162E+02  0.12700000000E+01 0.  1.
         25    2    1    2    0    0  0.00000000000E+00  0.00000000000E+00  0.29759474805E+03  0.32277839038E+03  0.12499302071E+03 0.  0.
    9000005    1    3    3    0    0  0.84954784747E+01 -0.33951504786E+02  0.28248182507E+03  0.28464338975E+03  0.10000000000E+01 0.  0.
    9000005    1    3    3    0    0 -0.84954784747E+01  0.33951504786E+02  0.15112922978E+02  0.38135000626E+02  0.10000000000E+01 0.  0.
<mgrwt>
<rscale>  0 0.12499302E+03</rscale>
<asrwt>0</asrwt>
<pdfrwt beam="1">  1        4 0.47721009E-01 0.12499302E+03</pdfrwt>
<pdfrwt beam="2">  1       -4 0.19372033E-02 0.12499302E+03</pdfrwt>
<totfact> 0.72838152E+03</totfact>
</mgrwt>
</event>
<event>
 5    1  0.3179758E-002  0.1250000E+03  0.7818608E-02  0.1235069E+00
         -4   -1    0    0    0  501 -0.00000000000E+00  0.00000000000E+00  0.74423456067E+02  0.74434291243E+02  0.12700000000E+01 0. -1.
          4   -1    0    0  501    0  0.00000000000E+00 -0.00000000000E+00 -0.52464500866E+02  0.52479869961E+02  0.12700000000E+01 0. -1.
         25    2    1    2    0    0  0.00000000000E+00  0.00000000000E+00  0.21958955201E+02  0.12691416120E+03  0.12500003440E+03 0.  0.
    9000005    1    3    3    0    0 -0.15513970293E+02  0.45924592508E+02  0.51023256407E+02  0.70385539464E+02  0.10000000000E+01 0.  0.
    9000005    1    3    3    0    0  0.15513970293E+02 -0.45924592508E+02 -0.29064301206E+02  0.56528621740E+02  0.10000000000E+01 0.  0.
<mgrwt>
<rscale>  0 0.12500003E+03</rscale>
<asrwt>0</asrwt>
<pdfrwt beam="2">  1        4 0.80734774E-02 0.12500003E+03</pdfrwt>
<pdfrwt beam="1">  1       -4 0.11451778E-01 0.12500003E+03</pdfrwt>
<totfact> 0.10411003E+04</totfact>
</mgrwt>
</event>
<event>
 5    1  0.3179758E-002  0.1249993E+03  0.7818608E-02  0.1235070E+00
          4   -1    0    0  501    0  0.00000000000E+00  0.00000000000E+00  0.46968087192E+02  0.46985254224E+02  0.12700000000E+01 0.  1.
         -4   -1    0    0    0  501 -0.00000000000E+00 -0.00000000000E+00 -0.83129966224E+02  0.83139666732E+02  0.12700000000E+01 0.  1.
         25    2    1    2    0    0  0.00000000000E+00  0.00000000000E+00 -0.36161879032E+02  0.13012492096E+03  0.12499925423E+03 0.  0.
    9000005    1    3    3    0    0  0.16702889986E+02 -0.56483701383E+02 -0.39812995854E+02  0.71101826240E+02  0.10000000000E+01 0.  0.
    9000005    1    3    3    0    0 -0.16702889986E+02  0.56483701383E+02  0.36511168219E+01  0.59023094716E+02  0.10000000000E+01 0.  0.
<mgrwt>
<rscale>  0 0.12499925E+03</rscale>
<asrwt>0</asrwt>
<pdfrwt beam="1">  1        4 0.72279263E-02 0.12499925E+03</pdfrwt>
<pdfrwt beam="2">  1       -4 0.12791292E-01 0.12499925E+03</pdfrwt>
<totfact> 0.10342010E+04</totfact>
</mgrwt>
</event>
<event>
 5    1  0.3179758E-002  0.1249987E+03  0.7818608E-02  0.1235071E+00
          4   -1    0    0  501    0  0.00000000000E+00  0.00000000000E+00  0.83080706251E+02  0.83090412511E+02  0.12700000000E+01 0. -1.
         -4   -1    0    0    0  501 -0.00000000000E+00 -0.00000000000E+00 -0.46995553485E+02  0.47012710488E+02  0.12700000000E+01 0. -1.
         25    2    1    2    0    0  0.00000000000E+00  0.00000000000E+00  0.36085152766E+02  0.13010312300E+03  0.12499873745E+03 0.  0.
    9000005    1    3    3    0    0  0.42346321287E+02 -0.28265350685E+02 -0.19672886184E+02  0.54590873108E+02  0.10000000000E+01 0.  0.
    9000005    1    3    3    0    0 -0.42346321287E+02  0.28265350685E+02  0.55758038950E+02  0.75512249890E+02  0.10000000000E+01 0.  0.
<mgrwt>
<rscale>  0 0.12499874E+03</rscale>
<asrwt>0</asrwt>
<pdfrwt beam="1">  1        4 0.12783713E-01 0.12499874E+03</pdfrwt>
<pdfrwt beam="2">  1       -4 0.72321516E-02 0.12499874E+03</pdfrwt>
<totfact> 0.10342597E+04</totfact>
</mgrwt>
</event>
<event>
 5    1  0.3179758E-002  0.1250006E+03  0.7818608E-02  0.1235068E+00
         -4   -1    0    0    0  501 -0.00000000000E+00  0.00000000000E+00  0.16665163812E+02  0.16713485121E+02  0.12700000000E+01 0.  1.
          4   -1    0    0  501    0  0.00000000000E+00 -0.00000000000E+00 -0.23400895636E+03  0.23401240257E+03  0.12700000000E+01 0.  1.
         25    2    1    2    0    0  0.00000000000E+00  0.00000000000E+00 -0.21734379255E+03  0.25072588769E+03  0.12500058640E+03 0.  0.
    9000005    1    3    3    0    0 -0.23496321849E+02  0.53910635349E+02 -0.66271548336E+02  0.88607854409E+02  0.10000000000E+01 0.  0.
    9000005    1    3    3    0    0  0.23496321849E+02 -0.53910635349E+02 -0.15107224421E+03  0.16211803328E+03  0.10000000000E+01 0.  0.
<mgrwt>
<rscale>  0 0.12500059E+03</rscale>
<asrwt>0</asrwt>
<pdfrwt beam="2">  1        4 0.36005358E-01 0.12500059E+03</pdfrwt>
<pdfrwt beam="1">  1       -4 0.25678536E-02 0.12500059E+03</pdfrwt>
<totfact> 0.82224355E+03</totfact>
</mgrwt>
</event>
<event>
 4    1  0.3179758E-002  0.1247421E+03  0.7818608E-02  0.1235473E+00
          4   -1    0    0  501    0  0.00000000000E+00  0.00000000000E+00  0.24411378882E+03  0.24411709238E+03  0.12700000000E+01 0.  1.
         -4   -1    0    0    0  501 -0.00000000000E+00 -0.00000000000E+00 -0.15907074203E+02  0.15957691239E+02  0.12700000000E+01 0.  1.
    9000005    1    1    2    0    0 -0.19578175980E+02  0.55927320382E+02  0.15463721257E+03  0.16560446145E+03  0.10000000000E+01 0.  0.
    9000005    1    1    2    0    0  0.19578175980E+02 -0.55927320382E+02  0.73569502049E+02  0.94470322174E+02  0.10000000000E+01 0.  0.
<mgrwt>
<rscale>  0 0.12474209E+03</rscale>
<asrwt>0</asrwt>
<pdfrwt beam="1">  1        4 0.37560112E-01 0.12474209E+03</pdfrwt>
<pdfrwt beam="2">  1       -4 0.24513901E-02 0.12474209E+03</pdfrwt>
<totfact> 0.81361756E+03</totfact>
</mgrwt>
</event>
<event>
 5    1  0.3179758E-002  0.1249938E+03  0.7818608E-02  0.1235079E+00
          4   -1    0    0  501    0  0.00000000000E+00  0.00000000000E+00  0.10589978148E+04  0.10589985763E+04  0.12700000000E+01 0. -1.
         -4   -1    0    0    0  501 -0.00000000000E+00 -0.00000000000E+00 -0.35781517169E+01  0.37968499719E+01  0.12700000000E+01 0. -1.
         25    2    1    2    0    0  0.00000000000E+00  0.00000000000E+00  0.10554196631E+04  0.10627954263E+04  0.12499381156E+03 0.  0.
    9000005    1    3    3    0    0  0.55405491220E+02 -0.14700896623E+02  0.31616670599E+03  0.32132268951E+03  0.10000000000E+01 0.  0.
    9000005    1    3    3    0    0 -0.55405491220E+02  0.14700896623E+02  0.73925295709E+03  0.74147273677E+03  0.10000000000E+01 0.  0.
<mgrwt>
<rscale>  0 0.12499381E+03</rscale>
<asrwt>0</asrwt>
<pdfrwt beam="1">  1        4 0.16293964E+00 0.12499381E+03</pdfrwt>
<pdfrwt beam="2">  1       -4 0.56736633E-03 0.12499381E+03</pdfrwt>
<totfact> 0.28602443E+03</totfact>
</mgrwt>
</event>
<event>
 5    1  0.3179758E-002  0.1250004E+03  0.7818608E-02  0.1235069E+00
         -4   -1    0    0    0  501 -0.00000000000E+00  0.00000000000E+00  0.18278736459E+02  0.18322802912E+02  0.12700000000E+01 0. -1.
          4   -1    0    0  501    0  0.00000000000E+00 -0.00000000000E+00 -0.21340276939E+03  0.21340654837E+03  0.12700000000E+01 0. -1.
         25    2    1    2    0    0  0.00000000000E+00  0.00000000000E+00 -0.19512403294E+03  0.23172935128E+03  0.12500041606E+03 0.  0.
    9000005    1    3    3    0    0 -0.10417139030E+02  0.31568979805E+01  0.16516898630E+02  0.19806330573E+02  0.10000000000E+01 0.  0.
    9000005    1    3    3    0    0  0.10417139030E+02 -0.31568979805E+01 -0.21164093157E+03  0.21192302070E+03  0.10000000000E+01 0.  0.
<mgrwt>
<rscale>  0 0.12500042E+03</rscale>
<asrwt>0</asrwt>
<pdfrwt beam="2">  1        4 0.32834874E-01 0.12500042E+03</pdfrwt>
<pdfrwt beam="1">  1       -4 0.28157939E-02 0.12500042E+03</pdfrwt>
<totfact> 0.85043970E+03</totfact>
</mgrwt>
</event>
<event>
 5    1  0.3179758E-002  0.1249980E+03  0.7818608E-02  0.1235072E+00
          4   -1    0    0  501    0  0.00000000000E+00  0.00000000000E+00  0.16684118803E+03  0.16684602160E+03  0.12700000000E+01 0. -1.
         -4   -1    0    0    0  501 -0.00000000000E+00 -0.00000000000E+00 -0.23389838097E+02  0.23424291370E+02  0.12700000000E+01 0. -1.
         25    2    1    2    0    0  0.00000000000E+00  0.00000000000E+00  0.14345134993E+03  0.19027031297E+03  0.12499800878E+03 0.  0.
    9000005    1    3    3    0    0  0.16088551153E+02  0.23544691507E+02 -0.12915732187E+02  0.31321080988E+02  0.10000000000E+01 0.  0.
    9000005    1    3    3    0    0 -0.16088551153E+02 -0.23544691507E+02  0.15636708212E+03  0.15894923198E+03  0.10000000000E+01 0.  0.
<mgrwt>
<rscale>  0 0.12499801E+03</rscale>
<asrwt>0</asrwt>
<pdfrwt beam="1">  1        4 0.25670897E-01 0.12499801E+03</pdfrwt>
<pdfrwt beam="2">  1       -4 0.36014587E-02 0.12499801E+03</pdfrwt>
<totfact> 0.91804397E+03</totfact>
</mgrwt>
</event>
<event>
 5    1  0.3179758E-002  0.1250013E+03  0.7818608E-02  0.1235067E+00
          4   -1    0    0  501    0  0.00000000000E+00  0.00000000000E+00  0.58635063101E+01  0.59994671637E+01  0.12700000000E+01 0. -1.
         -4   -1    0    0    0  501 -0.00000000000E+00 -0.00000000000E+00 -0.65843883206E+03  0.65844005685E+03  0.12700000000E+01 0. -1.
         25    2    1    2    0    0  0.00000000000E+00  0.00000000000E+00 -0.65257532575E+03  0.66443952402E+03  0.12500130117E+03 0.  0.
    9000005    1    3    3    0    0  0.45502374556E+02  0.42464642974E+02 -0.29639825867E+03  0.30286406148E+03  0.10000000000E+01 0.  0.
    9000005    1    3    3    0    0 -0.45502374556E+02 -0.42464642974E+02 -0.35617706709E+03  0.36157546254E+03  0.10000000000E+01 0.  0.
<mgrwt>
<rscale>  0 0.12500130E+03</rscale>
<asrwt>0</asrwt>
<pdfrwt beam="1">  1        4 0.91263116E-03 0.12500130E+03</pdfrwt>
<pdfrwt beam="2">  1       -4 0.10130878E+00 0.12500130E+03</pdfrwt>
<totfact> 0.45030192E+03</totfact>
</mgrwt>
</event>
<event>
 5    1  0.3179758E-002  0.1249963E+03  0.7818608E-02  0.1235075E+00
         -4   -1    0    0    0  501 -0.00000000000E+00  0.00000000000E+00  0.27781913133E+03  0.27782203411E+03  0.12700000000E+01 0. -1.
          4   -1    0    0  501    0  0.00000000000E+00 -0.00000000000E+00 -0.14027905796E+02  0.14085277456E+02  0.12700000000E+01 0. -1.
         25    2    1    2    0    0  0.00000000000E+00  0.00000000000E+00  0.26379122554E+03  0.29190731156E+03  0.12499627144E+03 0.  0.
    9000005    1    3    3    0    0 -0.43515416979E+02 -0.44635726537E+02  0.14209577700E+03  0.15517135509E+03  0.10000000000E+01 0.  0.
    9000005    1    3    3    0    0  0.43515416979E+02  0.44635726537E+02  0.12169544854E+03  0.13673595648E+03  0.10000000000E+01 0.  0.
<mgrwt>
<rscale>  0 0.12499627E+03</rscale>
<asrwt>0</asrwt>
<pdfrwt beam="2">  1        4 0.21627757E-02 0.12499627E+03</pdfrwt>
<pdfrwt beam="1">  1       -4 0.42746044E-01 0.12499627E+03</pdfrwt>
<totfact> 0.76631657E+03</totfact>
</mgrwt>
</event>
<event>
 5    1  0.3179758E-002  0.1249982E+03  0.7818608E-02  0.1235072E+00
         -4   -1    0    0    0  501 -0.00000000000E+00  0.00000000000E+00  0.11144090932E+03  0.11144814565E+03  0.12700000000E+01 0.  1.
          4   -1    0    0  501    0  0.00000000000E+00 -0.00000000000E+00 -0.35031317940E+02  0.35054331210E+02  0.12700000000E+01 0.  1.
         25    2    1    2    0    0  0.00000000000E+00  0.00000000000E+00  0.76409591379E+02  0.14650247687E+03  0.12499820028E+03 0.  0.
    9000005    1    3    3    0    0  0.45488035072E+02  0.59660126670E+01  0.87935389383E+02  0.99188645257E+02  0.10000000000E+01 0.  0.
    9000005    1    3    3    0    0 -0.45488035072E+02 -0.59660126670E+01 -0.11525798004E+02  0.47313831609E+02  0.10000000000E+01 0.  0.
<mgrwt>
<rscale>  0 0.12499820E+03</rscale>
<asrwt>0</asrwt>
<pdfrwt beam="2">  1        4 0.53917603E-02 0.12499820E+03</pdfrwt>
<pdfrwt beam="1">  1       -4 0.17147083E-01 0.12499820E+03</pdfrwt>
<totfact> 0.10000956E+04</totfact>
</mgrwt>
</event>
<event>
 5    1  0.3179758E-002  0.1250599E+03  0.7818608E-02  0.1234976E+00
         -4   -1    0    0    0  501 -0.00000000000E+00  0.00000000000E+00  0.65048522417E+01  0.66276694762E+01  0.12700000000E+01 0. -1.
          4   -1    0    0  501    0  0.00000000000E+00 -0.00000000000E+00 -0.59534399107E+03  0.59534534567E+03  0.12700000000E+01 0. -1.
         25    2    1    2    0    0  0.00000000000E+00  0.00000000000E+00 -0.58883913883E+03  0.60197301514E+03  0.12505990381E+03 0.  0.
    9000005    1    3    3    0    0 -0.28747100650E+02 -0.28154774118E+02 -0.52475880954E+03  0.52630019503E+03  0.10000000000E+01 0.  0.
    9000005    1    3    3    0    0  0.28747100650E+02  0.28154774118E+02 -0.64080329293E+02  0.75672820112E+02  0.10000000000E+01 0.  0.
<mgrwt>
<rscale>  0 0.12505990E+03</rscale>
<asrwt>0</asrwt>
<pdfrwt beam="2">  1        4 0.91600892E-01 0.12505990E+03</pdfrwt>
<pdfrwt beam="1">  1       -4 0.10102986E-02 0.12505990E+03</pdfrwt>
<totfact> 0.48679354E+03</totfact>
</mgrwt>
</event>
<event>
 5    1  0.3179758E-002  0.1249972E+03  0.7818608E-02  0.1235074E+00
         -4   -1    0    0    0  501 -0.00000000000E+00  0.00000000000E+00  0.31885991479E+01  0.34322098604E+01  0.12700000000E+01 0. -1.
          4   -1    0    0  501    0  0.00000000000E+00 -0.00000000000E+00 -0.11796950357E+04  0.11796957193E+04  0.12700000000E+01 0. -1.
         25    2    1    2    0    0  0.00000000000E+00  0.00000000000E+00 -0.11765064366E+04  0.11831279292E+04  0.12499720609E+03 0.  0.
    9000005    1    3    3    0    0  0.21241636570E+02  0.84549113939E+01 -0.11387347774E+04  0.11389646992E+04  0.10000000000E+01 0.  0.
    9000005    1    3    3    0    0 -0.21241636570E+02 -0.84549113939E+01 -0.37771659173E+02  0.44163230040E+02  0.10000000000E+01 0.  0.
<mgrwt>
<rscale>  0 0.12499721E+03</rscale>
<asrwt>0</asrwt>
<pdfrwt beam="2">  1        4 0.18151000E+00 0.12499721E+03</pdfrwt>
<pdfrwt beam="1">  1       -4 0.50934653E-03 0.12499721E+03</pdfrwt>
<totfact> 0.25160286E+03</totfact>
</mgrwt>
</event>
<event>
 5    1  0.3179758E-002  0.1250123E+03  0.7818608E-02  0.1235050E+00
         -4   -1    0    0    0  501 -0.00000000000E+00  0.00000000000E+00  0.17479845311E+03  0.17480306664E+03  0.12700000000E+01 0.  1.
          4   -1    0    0  501    0  0.00000000000E+00 -0.00000000000E+00 -0.22328626084E+02  0.22364714235E+02  0.12700000000E+01 0.  1.
         25    2    1    2    0    0  0.00000000000E+00  0.00000000000E+00  0.15246982702E+03  0.19716778088E+03  0.12501234205E+03 0.  0.
    9000005    1    3    3    0    0  0.43401801230E+02 -0.38602824900E+02  0.11261725910E+03  0.12671835497E+03  0.10000000000E+01 0.  0.
    9000005    1    3    3    0    0 -0.43401801230E+02  0.38602824900E+02  0.39852567921E+02  0.70449425904E+02  0.10000000000E+01 0.  0.
<mgrwt>
<rscale>  0 0.12501234E+03</rscale>
<asrwt>0</asrwt>
<pdfrwt beam="2">  1        4 0.34383041E-02 0.12501234E+03</pdfrwt>
<pdfrwt beam="1">  1       -4 0.26895201E-01 0.12501234E+03</pdfrwt>
<totfact> 0.90589854E+03</totfact>
</mgrwt>
</event>
<event>
 5    1  0.3179758E-002  0.1249996E+03  0.7818608E-02  0.1235070E+00
          4   -1    0    0  501    0  0.00000000000E+00  0.00000000000E+00  0.20377796469E+01  0.24011342923E+01  0.12700000000E+01 0.  1.
         -4   -1    0    0    0  501 -0.00000000000E+00 -0.00000000000E+00 -0.17596278433E+04  0.17596283016E+04  0.12700000000E+01 0.  1.
         25    2    1    2    0    0  0.00000000000E+00  0.00000000000E+00 -0.17575900636E+04  0.17620294359E+04  0.12499960449E+03 0.  0.
    9000005    1    3    3    0    0  0.73484555637E+01 -0.62057260138E+02 -0.88371755867E+03  0.88592484266E+03  0.10000000000E+01 0.  0.
    9000005    1    3    3    0    0 -0.73484555637E+01  0.62057260138E+02 -0.87387250496E+03  0.87610459322E+03  0.10000000000E+01 0.  0.
<mgrwt>
<rscale>  0 0.12499960E+03</rscale>
<asrwt>0</asrwt>
<pdfrwt beam="1">  1        4 0.34149158E-03 0.12499960E+03</pdfrwt>
<pdfrwt beam="2">  1       -4 0.27073885E+00 0.12499960E+03</pdfrwt>
<totfact> 0.13297889E+03</totfact>
</mgrwt>
</event>
<event>
 5    1  0.3179758E-002  0.1249986E+03  0.7818608E-02  0.1235071E+00
          4   -1    0    0  501    0  0.00000000000E+00  0.00000000000E+00  0.15705442172E+03  0.15705955648E+03  0.12700000000E+01 0. -1.
         -4   -1    0    0    0  501 -0.00000000000E+00 -0.00000000000E+00 -0.24849632451E+02  0.24882064483E+02  0.12700000000E+01 0. -1.
         25    2    1    2    0    0  0.00000000000E+00  0.00000000000E+00  0.13220478927E+03  0.18194162096E+03  0.12499858852E+03 0.  0.
    9000005    1    3    3    0    0 -0.59578940964E+02 -0.12997451949E+02  0.46220537105E+02  0.76523996327E+02  0.10000000000E+01 0.  0.
    9000005    1    3    3    0    0  0.59578940964E+02  0.12997451949E+02  0.85984252163E+02  0.10541762463E+03  0.10000000000E+01 0.  0.
<mgrwt>
<rscale>  0 0.12499859E+03</rscale>
<asrwt>0</asrwt>
<pdfrwt beam="1">  1        4 0.24165108E-01 0.12499859E+03</pdfrwt>
<pdfrwt beam="2">  1       -4 0.38259102E-02 0.12499859E+03</pdfrwt>
<totfact> 0.93271619E+03</totfact>
</mgrwt>
</event>
<event>
 5    1  0.3179758E-002  0.1250195E+03  0.7818608E-02  0.1235039E+00
         -4   -1    0    0    0  501 -0.00000000000E+00  0.00000000000E+00  0.17284807080E+02  0.17331400860E+02  0.12700000000E+01 0.  1.
          4   -1    0    0  501    0  0.00000000000E+00 -0.00000000000E+00 -0.22571125685E+03  0.22571482975E+03  0.12700000000E+01 0.  1.
         25    2    1    2    0    0  0.00000000000E+00  0.00000000000E+00 -0.20842644977E+03  0.24304623061E+03  0.12501953947E+03 0.  0.
    9000005    1    3    3    0    0  0.77881020604E+00  0.12266118416E+02  0.14921812954E+02  0.19357807422E+02  0.10000000000E+01 0.  0.
    9000005    1    3    3    0    0 -0.77881020604E+00 -0.12266118416E+02 -0.22334826273E+03  0.22368842319E+03  0.10000000000E+01 0.  0.
<mgrwt>
<rscale>  0 0.12501954E+03</rscale>
<asrwt>0</asrwt>
<pdfrwt beam="2">  1        4 0.34728666E-01 0.12501954E+03</pdfrwt>
<pdfrwt beam="1">  1       -4 0.26630602E-02 0.12501954E+03</pdfrwt>
<totfact> 0.83309481E+03</totfact>
</mgrwt>
</event>
<event>
 5    1  0.3179758E-002  0.1250041E+03  0.7818608E-02  0.1235063E+00
         -4   -1    0    0    0  501 -0.00000000000E+00  0.00000000000E+00  0.10881181242E+02  0.10955044739E+02  0.12700000000E+01 0. -1.
          4   -1    0    0  501    0  0.00000000000E+00 -0.00000000000E+00 -0.35772524437E+03  0.35772749875E+03  0.12700000000E+01 0. -1.
         25    2    1    2    0    0  0.00000000000E+00  0.00000000000E+00 -0.34684406313E+03  0.36868254349E+03  0.12500405491E+03 0.  0.
    9000005    1    3    3    0    0 -0.29579554382E+02 -0.46269077848E+02 -0.26139648439E+03  0.26710466049E+03  0.10000000000E+01 0.  0.
    9000005    1    3    3    0    0  0.29579554382E+02  0.46269077848E+02 -0.85447578738E+02  0.10157788300E+03  0.10000000000E+01 0.  0.
<mgrwt>
<rscale>  0 0.12500405E+03</rscale>
<asrwt>0</asrwt>
<pdfrwt beam="2">  1        4 0.55040499E-01 0.12500405E+03</pdfrwt>
<pdfrwt beam="1">  1       -4 0.16798834E-02 0.12500405E+03</pdfrwt>
<totfact> 0.67710927E+03</totfact>
</mgrwt>
</event>
<event>
 5    1  0.3179758E-002  0.1249997E+03  0.7818608E-02  0.1235070E+00
          4   -1    0    0  501    0  0.00000000000E+00  0.00000000000E+00  0.21638003779E+03  0.21638376477E+03  0.12700000000E+01 0.  1.
         -4   -1    0    0    0  501 -0.00000000000E+00 -0.00000000000E+00 -0.18026410989E+02  0.18071092749E+02  0.12700000000E+01 0.  1.
         25    2    1    2    0    0  0.00000000000E+00  0.00000000000E+00  0.19835362681E+03  0.23445485752E+03  0.12499967579E+03 0.  0.
    9000005    1    3    3    0    0 -0.83355810510E+00 -0.58550352585E+02  0.58238289291E+02  0.82592596196E+02  0.10000000000E+01 0.  0.
    9000005    1    3    3    0    0  0.83355810510E+00  0.58550352585E+02  0.14011533751E+03  0.15186226132E+03  0.10000000000E+01 0.  0.
<mgrwt>
<rscale>  0 0.12499968E+03</rscale>
<asrwt>0</asrwt>
<pdfrwt beam="1">  1        4 0.33292962E-01 0.12499968E+03</pdfrwt>
<pdfrwt beam="2">  1       -4 0.27770176E-02 0.12499968E+03</pdfrwt>
<totfact> 0.84630821E+03</totfact>
</mgrwt>
</event>
<event>
 5    1  0.3179758E-002  0.1249999E+03  0.7818608E-02  0.1235070E+00
          4   -1    0    0  501    0  0.00000000000E+00  0.00000000000E+00  0.39681454925E+03  0.39681658155E+03  0.12700000000E+01 0. -1.
         -4   -1    0    0    0  501 -0.00000000000E+00 -0.00000000000E+00 -0.98009682934E+01  0.98829084529E+01  0.12700000000E+01 0. -1.
         25    2    1    2    0    0  0.00000000000E+00  0.00000000000E+00  0.38701358095E+03  0.40669949000E+03  0.12499985331E+03 0.  0.
    9000005    1    3    3    0    0 -0.29325636712E+02  0.27337949793E+02  0.37541409835E+02  0.54933722974E+02  0.10000000000E+01 0.  0.
    9000005    1    3    3    0    0  0.29325636712E+02 -0.27337949793E+02  0.34947217112E+03  0.35176576703E+03  0.10000000000E+01 0.  0.
<mgrwt>
<rscale>  0 0.12499985E+03</rscale>
<asrwt>0</asrwt>
<pdfrwt beam="1">  1        4 0.61054844E-01 0.12499985E+03</pdfrwt>
<pdfrwt beam="2">  1       -4 0.15143009E-02 0.12499985E+03</pdfrwt>
<totfact> 0.63906589E+03</totfact>
</mgrwt>
</event>
<event>
 5    1  0.3179758E-002  0.1250000E+03  0.7818608E-02  0.1235069E+00
          4   -1    0    0  501    0  0.00000000000E+00  0.00000000000E+00  0.32261142432E+02  0.32286130319E+02  0.12700000000E+01 0. -1.
         -4   -1    0    0    0  501 -0.00000000000E+00 -0.00000000000E+00 -0.12100694057E+03  0.12101360488E+03  0.12700000000E+01 0. -1.
         25    2    1    2    0    0  0.00000000000E+00  0.00000000000E+00 -0.88745798137E+02  0.15329973520E+03  0.12499996850E+03 0.  0.
    9000005    1    3    3    0    0 -0.18468266941E+02 -0.53927612034E+02 -0.12962166819E+02  0.58466075566E+02  0.10000000000E+01 0.  0.
    9000005    1    3    3    0    0  0.18468266941E+02  0.53927612034E+02 -0.75783631318E+02  0.94833659632E+02  0.10000000000E+01 0.  0.
<mgrwt>
<rscale>  0 0.12499997E+03</rscale>
<asrwt>0</asrwt>
<pdfrwt beam="1">  1        4 0.49656875E-02 0.12499997E+03</pdfrwt>
<pdfrwt beam="2">  1       -4 0.18618887E-01 0.12499997E+03</pdfrwt>
<totfact> 0.98650035E+03</totfact>
</mgrwt>
</event>
<event>
 5    1  0.3179758E-002  0.1250007E+03  0.7818608E-02  0.1235068E+00
          4   -1    0    0  501    0  0.00000000000E+00  0.00000000000E+00  0.18818896008E+02  0.18861700532E+02  0.12700000000E+01 0. -1.
         -4   -1    0    0    0  501 -0.00000000000E+00 -0.00000000000E+00 -0.20729228662E+03  0.20729617698E+03  0.12700000000E+01 0. -1.
         25    2    1    2    0    0  0.00000000000E+00  0.00000000000E+00 -0.18847339061E+03  0.22615787752E+03  0.12500066637E+03 0.  0.
    9000005    1    3    3    0    0  0.96497374981E+01 -0.54412559617E+02 -0.14702993904E+03  0.15707529103E+03  0.10000000000E+01 0.  0.
    9000005    1    3    3    0    0 -0.96497374981E+01  0.54412559617E+02 -0.41443451577E+02  0.69082586492E+02  0.10000000000E+01 0.  0.
<mgrwt>
<rscale>  0 0.12500067E+03</rscale>
<asrwt>0</asrwt>
<pdfrwt beam="1">  1        4 0.28988068E-02 0.12500067E+03</pdfrwt>
<pdfrwt beam="2">  1       -4 0.31894711E-01 0.12500067E+03</pdfrwt>
<totfact> 0.85901795E+03</totfact>
</mgrwt>
</event>
<event>
 5    1  0.3179758E-002  0.1250013E+03  0.7818608E-02  0.1235067E+00
          4   -1    0    0  501    0  0.00000000000E+00  0.00000000000E+00  0.65821739698E+02  0.65833990589E+02  0.12700000000E+01 0. -1.
         -4   -1    0    0    0  501 -0.00000000000E+00 -0.00000000000E+00 -0.59322550501E+02  0.59336143269E+02  0.12700000000E+01 0. -1.
         25    2    1    2    0    0  0.00000000000E+00  0.00000000000E+00  0.64991891963E+01  0.12517013386E+03  0.12500129179E+03 0.  0.
    9000005    1    3    3    0    0 -0.17891718004E+02  0.54854065509E+02 -0.20788009628E+02  0.61336966181E+02  0.10000000000E+01 0.  0.
    9000005    1    3    3    0    0  0.17891718004E+02 -0.54854065509E+02  0.27287198824E+02  0.63833167677E+02  0.10000000000E+01 0.  0.
<mgrwt>
<rscale>  0 0.12500129E+03</rscale>
<asrwt>0</asrwt>
<pdfrwt beam="1">  1        4 0.10128409E-01 0.12500129E+03</pdfrwt>
<pdfrwt beam="2">  1       -4 0.91285342E-02 0.12500129E+03</pdfrwt>
<totfact> 0.10448863E+04</totfact>
</mgrwt>
</event>
<event>
 5    1  0.3179758E-002  0.1250001E+03  0.7818608E-02  0.1235069E+00
          4   -1    0    0  501    0  0.00000000000E+00  0.00000000000E+00  0.18228649910E+02  0.18272837151E+02  0.12700000000E+01 0. -1.
         -4   -1    0    0    0  501 -0.00000000000E+00 -0.00000000000E+00 -0.21398676829E+03  0.21399053695E+03  0.12700000000E+01 0. -1.
         25    2    1    2    0    0  0.00000000000E+00  0.00000000000E+00 -0.19575811838E+03  0.23226337410E+03  0.12500013615E+03 0.  0.
    9000005    1    3    3    0    0 -0.39385651469E+02 -0.46891420172E+02 -0.12102896535E+03  0.13564308048E+03  0.10000000000E+01 0.  0.
    9000005    1    3    3    0    0  0.39385651469E+02  0.46891420172E+02 -0.74729153031E+02  0.96620293625E+02  0.10000000000E+01 0.  0.
<mgrwt>
<rscale>  0 0.12500014E+03</rscale>
<asrwt>0</asrwt>
<pdfrwt beam="1">  1        4 0.28080967E-02 0.12500014E+03</pdfrwt>
<pdfrwt beam="2">  1       -4 0.32924728E-01 0.12500014E+03</pdfrwt>
<totfact> 0.84963004E+03</totfact>
</mgrwt>
</event>
<event>
 5    1  0.3179758E-002  0.1250027E+03  0.7818608E-02  0.1235065E+00
          4   -1    0    0  501    0  0.00000000000E+00  0.00000000000E+00  0.16260352785E+03  0.16260848738E+03  0.12700000000E+01 0.  1.
         -4   -1    0    0    0  501 -0.00000000000E+00 -0.00000000000E+00 -0.24002082451E+02  0.24035658135E+02  0.12700000000E+01 0.  1.
         25    2    1    2    0    0  0.00000000000E+00  0.00000000000E+00  0.13860144540E+03  0.18664414551E+03  0.12500270553E+03 0.  0.
    9000005    1    3    3    0    0  0.38597613194E+01 -0.22222329580E+01 -0.23772136443E+02  0.24206415428E+02  0.10000000000E+01 0.  0.
    9000005    1    3    3    0    0 -0.38597613194E+01  0.22222329580E+01  0.16237358184E+03  0.16243773009E+03  0.10000000000E+01 0.  0.
<mgrwt>
<rscale>  0 0.12500271E+03</rscale>
<asrwt>0</asrwt>
<pdfrwt beam="1">  1        4 0.25018892E-01 0.12500271E+03</pdfrwt>
<pdfrwt beam="2">  1       -4 0.36955922E-02 0.12500271E+03</pdfrwt>
<totfact> 0.92428918E+03</totfact>
</mgrwt>
</event>
<event>
 5    1  0.3179758E-002  0.1250007E+03  0.7818608E-02  0.1235068E+00
          4   -1    0    0  501    0  0.00000000000E+00  0.00000000000E+00  0.25621639994E+02  0.25653096031E+02  0.12700000000E+01 0.  1.
         -4   -1    0    0    0  501 -0.00000000000E+00 -0.00000000000E+00 -0.15233318045E+03  0.15233847434E+03  0.12700000000E+01 0.  1.
         25    2    1    2    0    0  0.00000000000E+00  0.00000000000E+00 -0.12671154045E+03  0.17799157037E+03  0.12500073856E+03 0.  0.
    9000005    1    3    3    0    0  0.59966305959E+02 -0.11526121109E+02 -0.44439172802E+02  0.75529129464E+02  0.10000000000E+01 0.  0.
    9000005    1    3    3    0    0 -0.59966305959E+02  0.11526121109E+02 -0.82272367652E+02  0.10246244091E+03  0.10000000000E+01 0.  0.
<mgrwt>
<rscale>  0 0.12500074E+03</rscale>
<asrwt>0</asrwt>
<pdfrwt beam="1">  1        4 0.39446178E-02 0.12500074E+03</pdfrwt>
<pdfrwt beam="2">  1       -4 0.23438700E-01 0.12500074E+03</pdfrwt>
<totfact> 0.93978225E+03</totfact>
</mgrwt>
</event>
<event>
 5    1  0.3179758E-002  0.1250027E+03  0.7818608E-02  0.1235065E+00
          4   -1    0    0  501    0  0.00000000000E+00  0.00000000000E+00  0.92961487391E+01  0.93824986746E+01  0.12700000000E+01 0.  1.
         -4   -1    0    0    0  501 -0.00000000000E+00 -0.00000000000E+00 -0.41818882148E+03  0.41819074991E+03  0.12700000000E+01 0.  1.
         25    2    1    2    0    0  0.00000000000E+00  0.00000000000E+00 -0.40889267274E+03  0.42757324859E+03  0.12500266031E+03 0.  0.
    9000005    1    3    3    0    0  0.58501012892E+02  0.18581830602E+01 -0.12953827534E+03  0.14215127904E+03  0.10000000000E+01 0.  0.
    9000005    1    3    3    0    0 -0.58501012892E+02 -0.18581830602E+01 -0.27935439740E+03  0.28542196955E+03  0.10000000000E+01 0.  0.
<mgrwt>
<rscale>  0 0.12500266E+03</rscale>
<asrwt>0</asrwt>
<pdfrwt beam="1">  1        4 0.14369677E-02 0.12500266E+03</pdfrwt>
<pdfrwt beam="2">  1       -4 0.64343518E-01 0.12500266E+03</pdfrwt>
<totfact> 0.61952951E+03</totfact>
</mgrwt>
</event>
<event>
 5    1  0.3179758E-002  0.1250016E+03  0.7818608E-02  0.1235067E+00
          4   -1    0    0  501    0  0.00000000000E+00  0.00000000000E+00  0.75707299822E+02  0.75717951282E+02  0.12700000000E+01 0.  1.
         -4   -1    0    0    0  501 -0.00000000000E+00 -0.00000000000E+00 -0.51575932940E+02  0.51591566740E+02  0.12700000000E+01 0.  1.
         25    2    1    2    0    0  0.00000000000E+00  0.00000000000E+00  0.24131366882E+02  0.12730951802E+03  0.12500156204E+03 0.  0.
    9000005    1    3    3    0    0  0.16694066529E+02 -0.59424583545E+02  0.22011991177E+02  0.65540069747E+02  0.10000000000E+01 0.  0.
    9000005    1    3    3    0    0 -0.16694066529E+02  0.59424583545E+02  0.21193757048E+01  0.61769448275E+02  0.10000000000E+01 0.  0.
<mgrwt>
<rscale>  0 0.12500156E+03</rscale>
<asrwt>0</asrwt>
<pdfrwt beam="1">  1        4 0.11649299E-01 0.12500156E+03</pdfrwt>
<pdfrwt beam="2">  1       -4 0.79367809E-02 0.12500156E+03</pdfrwt>
<totfact> 0.10402061E+04</totfact>
</mgrwt>
</event>
<event>
 5    1  0.3179758E-002  0.1250065E+03  0.7818608E-02  0.1235059E+00
          4   -1    0    0  501    0  0.00000000000E+00  0.00000000000E+00  0.68450660933E+03  0.68450778747E+03  0.12700000000E+01 0. -1.
         -4   -1    0    0    0  501 -0.00000000000E+00 -0.00000000000E+00 -0.56354070823E+01  0.57767389575E+01  0.12700000000E+01 0. -1.
         25    2    1    2    0    0  0.00000000000E+00  0.00000000000E+00  0.67887120224E+03  0.69028452643E+03  0.12500647261E+03 0.  0.
    9000005    1    3    3    0    0 -0.16805111398E+02 -0.27331969110E+02  0.63558145042E+03  0.63639156847E+03  0.10000000000E+01 0.  0.
    9000005    1    3    3    0    0  0.16805111398E+02  0.27331969110E+02  0.43289751823E+02  0.53892957958E+02  0.10000000000E+01 0.  0.
<mgrwt>
<rscale>  0 0.12500647E+03</rscale>
<asrwt>0</asrwt>
<pdfrwt beam="1">  1        4 0.10531973E+00 0.12500647E+03</pdfrwt>
<pdfrwt beam="2">  1       -4 0.87794752E-03 0.12500647E+03</pdfrwt>
<totfact> 0.43598346E+03</totfact>
</mgrwt>
</event>
<event>
 5    1  0.3179758E-002  0.1250054E+03  0.7818608E-02  0.1235061E+00
         -4   -1    0    0    0  501 -0.00000000000E+00  0.00000000000E+00  0.79474861162E+02  0.79485007748E+02  0.12700000000E+01 0. -1.
          4   -1    0    0  501    0  0.00000000000E+00 -0.00000000000E+00 -0.49133539443E+02  0.49149950134E+02  0.12700000000E+01 0. -1.
         25    2    1    2    0    0  0.00000000000E+00  0.00000000000E+00  0.30341321719E+02  0.12863495788E+03  0.12500542622E+03 0.  0.
    9000005    1    3    3    0    0 -0.85587506341E+01 -0.61897076338E+02  0.16244450266E+02  0.64570755269E+02  0.10000000000E+01 0.  0.
    9000005    1    3    3    0    0  0.85587506341E+01  0.61897076338E+02  0.14096871454E+02  0.64064202613E+02  0.10000000000E+01 0.  0.
<mgrwt>
<rscale>  0 0.12500543E+03</rscale>
<asrwt>0</asrwt>
<pdfrwt beam="2">  1        4 0.75610490E-02 0.12500543E+03</pdfrwt>
<pdfrwt beam="1">  1       -4 0.12228945E-01 0.12500543E+03</pdfrwt>
<totfact> 0.10372527E+04</totfact>
</mgrwt>
</event>
<event>
 5    1  0.3179758E-002  0.1250032E+03  0.7818608E-02  0.1235064E+00
          4   -1    0    0  501    0  0.00000000000E+00  0.00000000000E+00  0.26636875001E+03  0.26637177756E+03  0.12700000000E+01 0.  1.
         -4   -1    0    0    0  501 -0.00000000000E+00 -0.00000000000E+00 -0.14634951878E+02  0.14689952909E+02  0.12700000000E+01 0.  1.
         25    2    1    2    0    0  0.00000000000E+00  0.00000000000E+00  0.25173379813E+03  0.28106173047E+03  0.12500316481E+03 0.  0.
    9000005    1    3    3    0    0 -0.11639197054E+01  0.12500048495E+02 -0.11781554733E+02  0.17245606785E+02  0.10000000000E+01 0.  0.
    9000005    1    3    3    0    0  0.11639197054E+01 -0.12500048495E+02  0.26351535286E+03  0.26381612368E+03  0.10000000000E+01 0.  0.
<mgrwt>
<rscale>  0 0.12500316E+03</rscale>
<asrwt>0</asrwt>
<pdfrwt beam="1">  1        4 0.40984268E-01 0.12500316E+03</pdfrwt>
<pdfrwt beam="2">  1       -4 0.22559950E-02 0.12500316E+03</pdfrwt>
<totfact> 0.78032050E+03</totfact>
</mgrwt>
</event>
<event>
 5    1  0.3179758E-002  0.1250302E+03  0.7818608E-02  0.1235022E+00
         -4   -1    0    0    0  501 -0.00000000000E+00  0.00000000000E+00  0.78244600990E+01  0.79268578794E+01  0.12700000000E+01 0.  1.
          4   -1    0    0  501    0  0.00000000000E+00 -0.00000000000E+00 -0.49612703287E+03  0.49612865836E+03  0.12700000000E+01 0.  1.
         25    2    1    2    0    0  0.00000000000E+00  0.00000000000E+00 -0.48830257277E+03  0.50405551624E+03  0.12503023984E+03 0.  0.
    9000005    1    3    3    0    0  0.61229365911E+02  0.10069176030E+02 -0.27451246612E+03  0.28144007819E+03  0.10000000000E+01 0.  0.
    9000005    1    3    3    0    0 -0.61229365911E+02 -0.10069176030E+02 -0.21379010665E+03  0.22261543805E+03  0.10000000000E+01 0.  0.
<mgrwt>
<rscale>  0 0.12503024E+03</rscale>
<asrwt>0</asrwt>
<pdfrwt beam="2">  1        4 0.76335213E-01 0.12503024E+03</pdfrwt>
<pdfrwt beam="1">  1       -4 0.12117653E-02 0.12503024E+03</pdfrwt>
<totfact> 0.55514170E+03</totfact>
</mgrwt>
</event>
<event>
 5    1  0.3179758E-002  0.1250062E+03  0.7818608E-02  0.1235060E+00
         -4   -1    0    0    0  501 -0.00000000000E+00  0.00000000000E+00  0.77755717083E+02  0.77766087976E+02  0.12700000000E+01 0. -1.
          4   -1    0    0  501    0  0.00000000000E+00 -0.00000000000E+00 -0.50220671387E+02  0.50236726950E+02  0.12700000000E+01 0. -1.
         25    2    1    2    0    0  0.00000000000E+00  0.00000000000E+00  0.27535045696E+02  0.12800281493E+03  0.12500616740E+03 0.  0.
    9000005    1    3    3    0    0  0.11720461936E+02  0.10428977349E+02 -0.48176458382E+02  0.50676463361E+02  0.10000000000E+01 0.  0.
    9000005    1    3    3    0    0 -0.11720461936E+02 -0.10428977349E+02  0.75711504078E+02  0.77326351564E+02  0.10000000000E+01 0.  0.
<mgrwt>
<rscale>  0 0.12500617E+03</rscale>
<asrwt>0</asrwt>
<pdfrwt beam="2">  1        4 0.77282899E-02 0.12500617E+03</pdfrwt>
<pdfrwt beam="1">  1       -4 0.11964451E-01 0.12500617E+03</pdfrwt>
<totfact> 0.10385981E+04</totfact>
</mgrwt>
</event>
<event>
 5    1  0.3179758E-002  0.1250006E+03  0.7818608E-02  0.1235068E+00
         -4   -1    0    0    0  501 -0.00000000000E+00  0.00000000000E+00  0.23183938493E+02  0.23218697295E+02  0.12700000000E+01 0.  1.
          4   -1    0    0  501    0  0.00000000000E+00 -0.00000000000E+00 -0.16832773720E+03  0.16833252808E+03  0.12700000000E+01 0.  1.
         25    2    1    2    0    0  0.00000000000E+00  0.00000000000E+00 -0.14514379871E+03  0.19155122538E+03  0.12500059856E+03 0.  0.
    9000005    1    3    3    0    0 -0.33677744131E+01  0.87768465944E+01 -0.16724551040E+03  0.16751249413E+03  0.10000000000E+01 0.  0.
    9000005    1    3    3    0    0  0.33677744131E+01 -0.87768465944E+01  0.22101711689E+02  0.24038731252E+02  0.10000000000E+01 0.  0.
<mgrwt>
<rscale>  0 0.12500060E+03</rscale>
<asrwt>0</asrwt>
<pdfrwt beam="2">  1        4 0.25899616E-01 0.12500060E+03</pdfrwt>
<pdfrwt beam="1">  1       -4 0.35698022E-02 0.12500060E+03</pdfrwt>
<totfact> 0.91576878E+03</totfact>
</mgrwt>
</event>
<event>
 5    1  0.3179758E-002  0.1249734E+03  0.7818608E-02  0.1235111E+00
         -4   -1    0    0    0  501 -0.00000000000E+00  0.00000000000E+00  0.91126080543E+03  0.91126169041E+03  0.12700000000E+01 0. -1.
          4   -1    0    0  501    0  0.00000000000E+00 -0.00000000000E+00 -0.41898087629E+01  0.43780586417E+01  0.12700000000E+01 0. -1.
         25    2    1    2    0    0  0.00000000000E+00  0.00000000000E+00  0.90707099667E+03  0.91563974905E+03  0.12497342539E+03 0.  0.
    9000005    1    3    3    0    0  0.51407059377E+02  0.18287013217E+02  0.23052412227E+03  0.23689548656E+03  0.10000000000E+01 0.  0.
    9000005    1    3    3    0    0 -0.51407059377E+02 -0.18287013217E+02  0.67654687439E+03  0.67874426249E+03  0.10000000000E+01 0.  0.
<mgrwt>
<rscale>  0 0.12497343E+03</rscale>
<asrwt>0</asrwt>
<pdfrwt beam="2">  1        4 0.65913534E-03 0.12497343E+03</pdfrwt>
<pdfrwt beam="1">  1       -4 0.14020840E+00 0.12497343E+03</pdfrwt>
<totfact> 0.33587599E+03</totfact>
</mgrwt>
</event>
<event>
 5    1  0.3179758E-002  0.1250012E+03  0.7818608E-02  0.1235067E+00
          4   -1    0    0  501    0  0.00000000000E+00  0.00000000000E+00  0.12699059042E+02  0.12762405751E+02  0.12700000000E+01 0. -1.
         -4   -1    0    0    0  501 -0.00000000000E+00 -0.00000000000E+00 -0.30677770511E+03  0.30678033388E+03  0.12700000000E+01 0. -1.
         25    2    1    2    0    0  0.00000000000E+00  0.00000000000E+00 -0.29407864607E+03  0.31954273963E+03  0.12500124949E+03 0.  0.
    9000005    1    3    3    0    0  0.59115839423E+02 -0.20928786565E+01 -0.95514137727E+02  0.11235218341E+03  0.10000000000E+01 0.  0.
    9000005    1    3    3    0    0 -0.59115839423E+02  0.20928786565E+01 -0.19856450834E+03  0.20719055621E+03  0.10000000000E+01 0.  0.
<mgrwt>
<rscale>  0 0.12500125E+03</rscale>
<asrwt>0</asrwt>
<pdfrwt beam="1">  1        4 0.19587767E-02 0.12500125E+03</pdfrwt>
<pdfrwt beam="2">  1       -4 0.47201639E-01 0.12500125E+03</pdfrwt>
<totfact> 0.73208518E+03</totfact>
</mgrwt>
</event>
<event>
 5    1  0.3179758E-002  0.1249984E+03  0.7818608E-02  0.1235072E+00
          4   -1    0    0  501    0  0.00000000000E+00  0.00000000000E+00  0.14861995871E+03  0.14862538486E+03  0.12700000000E+01 0. -1.
         -4   -1    0    0    0  501 -0.00000000000E+00 -0.00000000000E+00 -0.26261540088E+02  0.26292230560E+02  0.12700000000E+01 0. -1.
         25    2    1    2    0    0  0.00000000000E+00  0.00000000000E+00  0.12235841862E+03  0.17491761542E+03  0.12499835830E+03 0.  0.
    9000005    1    3    3    0    0 -0.10547357963E+02 -0.26312476064E+02 -0.16753348281E+02  0.32943403517E+02  0.10000000000E+01 0.  0.
    9000005    1    3    3    0    0  0.10547357963E+02  0.26312476064E+02  0.13911176690E+03  0.14197421191E+03  0.10000000000E+01 0.  0.
<mgrwt>
<rscale>  0 0.12499836E+03</rscale>
<asrwt>0</asrwt>
<pdfrwt beam="1">  1        4 0.22867387E-01 0.12499836E+03</pdfrwt>
<pdfrwt beam="2">  1       -4 0.40430151E-02 0.12499836E+03</pdfrwt>
<totfact> 0.94543413E+03</totfact>
</mgrwt>
</event>
<event>
 5    1  0.3179758E-002  0.1250033E+03  0.7818608E-02  0.1235064E+00
         -4   -1    0    0    0  501 -0.00000000000E+00  0.00000000000E+00  0.39899653802E+02  0.39919860641E+02  0.12700000000E+01 0.  1.
          4   -1    0    0  501    0  0.00000000000E+00 -0.00000000000E+00 -0.97857919819E+02  0.97866160502E+02  0.12700000000E+01 0.  1.
         25    2    1    2    0    0  0.00000000000E+00  0.00000000000E+00 -0.57958266017E+02  0.13778602114E+03  0.12500330805E+03 0.  0.
    9000005    1    3    3    0    0 -0.12994729587E+02 -0.53272707789E+02  0.40631348663E+01  0.54994122023E+02  0.10000000000E+01 0.  0.
    9000005    1    3    3    0    0  0.12994729587E+02  0.53272707789E+02 -0.62021400883E+02  0.82791899119E+02  0.10000000000E+01 0.  0.
<mgrwt>
<rscale>  0 0.12500331E+03</rscale>
<asrwt>0</asrwt>
<pdfrwt beam="2">  1        4 0.15057253E-01 0.12500331E+03</pdfrwt>
<pdfrwt beam="1">  1       -4 0.61405966E-02 0.12500331E+03</pdfrwt>
<totfact> 0.10178917E+04</totfact>
</mgrwt>
</event>
<event>
 4    1  0.3179758E-002  0.1262544E+03  0.7818608E-02  0.1233122E+00
          4   -1    0    0  501    0  0.00000000000E+00  0.00000000000E+00  0.85731377657E+02  0.85740783848E+02  0.12700000000E+01 0.  1.
         -4   -1    0    0    0  501 -0.00000000000E+00 -0.00000000000E+00 -0.46462249961E+02  0.46479603822E+02  0.12700000000E+01 0.  1.
    9000005    1    1    2    0    0 -0.31315959821E+02  0.50351443533E+02 -0.30230460395E+01  0.59380939810E+02  0.10000000000E+01 0.  0.
    9000005    1    1    2    0    0  0.31315959821E+02 -0.50351443533E+02  0.42292173735E+02  0.72839447860E+02  0.10000000000E+01 0.  0.
<mgrwt>
<rscale>  0 0.12625437E+03</rscale>
<asrwt>0</asrwt>
<pdfrwt beam="1">  1        4 0.13191501E-01 0.12625437E+03</pdfrwt>
<pdfrwt beam="2">  1       -4 0.71500970E-02 0.12625437E+03</pdfrwt>
<totfact> 0.10010964E+04</totfact>
</mgrwt>
</event>
<event>
 5    1  0.3179758E-002  0.1250000E+03  0.7818608E-02  0.1235069E+00
         -4   -1    0    0    0  501 -0.00000000000E+00  0.00000000000E+00  0.18553339336E+03  0.18553773997E+03  0.12700000000E+01 0. -1.
          4   -1    0    0  501    0  0.00000000000E+00 -0.00000000000E+00 -0.21030409351E+02  0.21068721306E+02  0.12700000000E+01 0. -1.
         25    2    1    2    0    0  0.00000000000E+00  0.00000000000E+00  0.16450298401E+03  0.20660646127E+03  0.12499999237E+03 0.  0.
    9000005    1    3    3    0    0 -0.35224499215E+01  0.25169575437E+02  0.17661375966E+03  0.17843580157E+03  0.10000000000E+01 0.  0.
    9000005    1    3    3    0    0  0.35224499215E+01 -0.25169575437E+02 -0.12110775651E+02  0.28170659701E+02  0.10000000000E+01 0.  0.
<mgrwt>
<rscale>  0 0.12499999E+03</rscale>
<asrwt>0</asrwt>
<pdfrwt beam="2">  1        4 0.32387291E-02 0.12499999E+03</pdfrwt>
<pdfrwt beam="1">  1       -4 0.28546880E-01 0.12499999E+03</pdfrwt>
<totfact> 0.89033122E+03</totfact>
</mgrwt>
</event>
<event>
 5    1  0.3179758E-002  0.1250092E+03  0.7818608E-02  0.1235055E+00
         -4   -1    0    0    0  501 -0.00000000000E+00  0.00000000000E+00  0.58936628075E+02  0.58950309828E+02  0.12700000000E+01 0.  1.
          4   -1    0    0  501    0  0.00000000000E+00 -0.00000000000E+00 -0.66261092769E+02  0.66273262443E+02  0.12700000000E+01 0.  1.
         25    2    1    2    0    0  0.00000000000E+00  0.00000000000E+00 -0.73244646939E+01  0.12522357227E+03  0.12500918074E+03 0.  0.
    9000005    1    3    3    0    0 -0.54354695591E+02 -0.12630072775E+02 -0.31850715931E+02  0.64260561594E+02  0.10000000000E+01 0.  0.
    9000005    1    3    3    0    0  0.54354695591E+02  0.12630072775E+02  0.24526251237E+02  0.60963010677E+02  0.10000000000E+01 0.  0.
<mgrwt>
<rscale>  0 0.12500918E+03</rscale>
<asrwt>0</asrwt>
<pdfrwt beam="2">  1        4 0.10196003E-01 0.12500918E+03</pdfrwt>
<pdfrwt beam="1">  1       -4 0.90691621E-02 0.12500918E+03</pdfrwt>
<totfact> 0.10445841E+04</totfact>
</mgrwt>
</event>
<event>
 5    1  0.3179758E-002  0.1250001E+03  0.7818608E-02  0.1235069E+00
         -4   -1    0    0    0  501 -0.00000000000E+00  0.00000000000E+00  0.13179614522E+04  0.13179620641E+04  0.12700000000E+01 0.  1.
          4   -1    0    0  501    0  0.00000000000E+00 -0.00000000000E+00 -0.28271750160E+01  0.30993255026E+01  0.12700000000E+01 0.  1.
         25    2    1    2    0    0  0.00000000000E+00  0.00000000000E+00  0.13151342772E+04  0.13210613896E+04  0.12500011221E+03 0.  0.
    9000005    1    3    3    0    0 -0.11899511834E+02  0.58266957260E+02  0.45465770690E+03  0.45853164246E+03  0.10000000000E+01 0.  0.
    9000005    1    3    3    0    0  0.11899511834E+02 -0.58266957260E+02  0.86047657027E+03  0.86252974713E+03  0.10000000000E+01 0.  0.
<mgrwt>
<rscale>  0 0.12500011E+03</rscale>
<asrwt>0</asrwt>
<pdfrwt beam="2">  1        4 0.45593173E-03 0.12500011E+03</pdfrwt>
<pdfrwt beam="1">  1       -4 0.20278428E+00 0.12500011E+03</pdfrwt>
<totfact> 0.21736775E+03</totfact>
</mgrwt>
</event>
<event>
 5    1  0.3179758E-002  0.1250018E+03  0.7818608E-02  0.1235066E+00
         -4   -1    0    0    0  501 -0.00000000000E+00  0.00000000000E+00  0.15696033420E+02  0.15747328825E+02  0.12700000000E+01 0. -1.
          4   -1    0    0  501    0  0.00000000000E+00 -0.00000000000E+00 -0.24841703013E+03  0.24842027646E+03  0.12700000000E+01 0. -1.
         25    2    1    2    0    0  0.00000000000E+00  0.00000000000E+00 -0.23272099671E+03  0.26416760529E+03  0.12500184548E+03 0.  0.
    9000005    1    3    3    0    0 -0.90284366750E+01  0.54761770990E+02 -0.17706073744E+03  0.18555826301E+03  0.10000000000E+01 0.  0.
    9000005    1    3    3    0    0  0.90284366750E+01 -0.54761770990E+02 -0.55660259274E+02  0.78609342277E+02  0.10000000000E+01 0.  0.
<mgrwt>
<rscale>  0 0.12500185E+03</rscale>
<asrwt>0</asrwt>
<pdfrwt beam="2">  1        4 0.38222197E-01 0.12500185E+03</pdfrwt>
<pdfrwt beam="1">  1       -4 0.24189701E-02 0.12500185E+03</pdfrwt>
<totfact> 0.80321434E+03</totfact>
</mgrwt>
</event>
<event>
 5    1  0.3179758E-002  0.1250070E+03  0.7818608E-02  0.1235058E+00
         -4   -1    0    0    0  501 -0.00000000000E+00  0.00000000000E+00  0.33912783020E+02  0.33936554806E+02  0.12700000000E+01 0. -1.
          4   -1    0    0  501    0  0.00000000000E+00 -0.00000000000E+00 -0.11513053160E+03  0.11513753605E+03  0.12700000000E+01 0. -1.
         25    2    1    2    0    0  0.00000000000E+00  0.00000000000E+00 -0.81217748582E+02  0.14907409085E+03  0.12500704732E+03 0.  0.
    9000005    1    3    3    0    0 -0.32510401674E+02  0.27897027306E+02 -0.94872323989E+02  0.10410056776E+03  0.10000000000E+01 0.  0.
    9000005    1    3    3    0    0  0.32510401674E+02 -0.27897027306E+02  0.13654575407E+02  0.44973523090E+02  0.10000000000E+01 0.  0.
<mgrwt>
<rscale>  0 0.12500705E+03</rscale>
<asrwt>0</asrwt>
<pdfrwt beam="2">  1        4 0.17714757E-01 0.12500705E+03</pdfrwt>
<pdfrwt beam="1">  1       -4 0.52197187E-02 0.12500705E+03</pdfrwt>
<totfact> 0.99472806E+03</totfact>
</mgrwt>
</event>
<event>
 5    1  0.3179758E-002  0.1249987E+03  0.7818608E-02  0.1235071E+00
          4   -1    0    0  501    0  0.00000000000E+00  0.00000000000E+00  0.88400785461E+02  0.88409907647E+02  0.12700000000E+01 0. -1.
         -4   -1    0    0    0  501 -0.00000000000E+00 -0.00000000000E+00 -0.44166488338E+02  0.44184743884E+02  0.12700000000E+01 0. -1.
         25    2    1    2    0    0  0.00000000000E+00  0.00000000000E+00  0.44234297124E+02  0.13259465153E+03  0.12499867428E+03 0.  0.
    9000005    1    3    3    0    0  0.48485114600E+02 -0.31798384825E+02  0.46840644757E+02  0.74545218603E+02  0.10000000000E+01 0.  0.
    9000005    1    3    3    0    0 -0.48485114600E+02  0.31798384825E+02 -0.26063476339E+01  0.58049432928E+02  0.10000000000E+01 0.  0.
<mgrwt>
<rscale>  0 0.12499867E+03</rscale>
<asrwt>0</asrwt>
<pdfrwt beam="1">  1        4 0.13602227E-01 0.12499867E+03</pdfrwt>
<pdfrwt beam="2">  1       -4 0.67969504E-02 0.12499867E+03</pdfrwt>
<totfact> 0.10289330E+04</totfact>
</mgrwt>
</event>
<event>
 5    1  0.3179758E-002  0.1250021E+03  0.7818608E-02  0.1235066E+00
         -4   -1    0    0    0  501 -0.00000000000E+00  0.00000000000E+00  0.10451838494E+04  0.10451846210E+04  0.12700000000E+01 0. -1.
          4   -1    0    0  501    0  0.00000000000E+00 -0.00000000000E+00 -0.36288263183E+01  0.38446430847E+01  0.12700000000E+01 0. -1.
         25    2    1    2    0    0  0.00000000000E+00  0.00000000000E+00  0.10415550231E+04  0.10490292641E+04  0.12500212307E+03 0.  0.
    9000005    1    3    3    0    0 -0.56499532774E+02 -0.21739544626E+02  0.39061141289E+03  0.39527595536E+03  0.10000000000E+01 0.  0.
    9000005    1    3    3    0    0  0.56499532774E+02  0.21739544626E+02  0.65094361023E+03  0.65375330875E+03  0.10000000000E+01 0.  0.
<mgrwt>
<rscale>  0 0.12500212E+03</rscale>
<asrwt>0</asrwt>
<pdfrwt beam="2">  1        4 0.57494102E-03 0.12500212E+03</pdfrwt>
<pdfrwt beam="1">  1       -4 0.16081434E+00 0.12500212E+03</pdfrwt>
<totfact> 0.29023718E+03</totfact>
</mgrwt>
</event>
<event>
 5    1  0.3179758E-002  0.1250103E+03  0.7818608E-02  0.1235053E+00
          4   -1    0    0  501    0  0.00000000000E+00  0.00000000000E+00  0.13573110711E+03  0.13573704851E+03  0.12700000000E+01 0. -1.
         -4   -1    0    0    0  501 -0.00000000000E+00 -0.00000000000E+00 -0.28763472354E+02  0.28791495999E+02  0.12700000000E+01 0. -1.
         25    2    1    2    0    0  0.00000000000E+00  0.00000000000E+00  0.10696763476E+03  0.16452854451E+03  0.12501026787E+03 0.  0.
    9000005    1    3    3    0    0 -0.27838148082E+02 -0.32505498053E+02  0.11342615062E+03  0.12123556218E+03  0.10000000000E+01 0.  0.
    9000005    1    3    3    0    0  0.27838148082E+02  0.32505498053E+02 -0.64585158576E+01  0.43292982334E+02  0.10000000000E+01 0.  0.
<mgrwt>
<rscale>  0 0.12501027E+03</rscale>
<asrwt>0</asrwt>
<pdfrwt beam="1">  1        4 0.20884322E-01 0.12501027E+03</pdfrwt>
<pdfrwt beam="2">  1       -4 0.44277623E-02 0.12501027E+03</pdfrwt>
<totfact> 0.96454501E+03</totfact>
</mgrwt>
</event>
<event>
 5    1  0.3179758E-002  0.1249987E+03  0.7818608E-02  0.1235071E+00
          4   -1    0    0  501    0  0.00000000000E+00  0.00000000000E+00  0.30585790397E+03  0.30586054064E+03  0.12700000000E+01 0. -1.
         -4   -1    0    0    0  501 -0.00000000000E+00 -0.00000000000E+00 -0.12736912766E+02  0.12800072141E+02  0.12700000000E+01 0. -1.
         25    2    1    2    0    0  0.00000000000E+00  0.00000000000E+00  0.29312099120E+03  0.31866061278E+03  0.12499868261E+03 0.  0.
    9000005    1    3    3    0    0 -0.20038225260E+02 -0.57543447622E+02  0.18192054598E+03  0.19185636264E+03  0.10000000000E+01 0.  0.
    9000005    1    3    3    0    0  0.20038225260E+02  0.57543447622E+02  0.11120044522E+03  0.12680425014E+03  0.10000000000E+01 0.  0.
<mgrwt>
<rscale>  0 0.12499868E+03</rscale>
<asrwt>0</asrwt>
<pdfrwt beam="1">  1        4 0.47060121E-01 0.12499868E+03</pdfrwt>
<pdfrwt beam="2">  1       -4 0.19645864E-02 0.12499868E+03</pdfrwt>
<totfact> 0.73317852E+03</totfact>
</mgrwt>
</event>
<event>
 5    1  0.3179758E-002  0.1250001E+03  0.7818608E-02  0.1235069E+00
         -4   -1    0    0    0  501 -0.00000000000E+00  0.00000000000E+00  0.26166452863E+01  0.29085619392E+01  0.12700000000E+01 0.  1.
          4   -1    0    0  501    0  0.00000000000E+00 -0.00000000000E+00 -0.14136834077E+04  0.14136839782E+04  0.12700000000E+01 0.  1.
         25    2    1    2    0    0  0.00000000000E+00  0.00000000000E+00 -0.14110667624E+04  0.14165925401E+04  0.12500006671E+03 0.  0.
    9000005    1    3    3    0    0  0.52676514467E+02 -0.10999739678E+02 -0.10655942922E+04  0.10669526724E+04  0.10000000000E+01 0.  0.
    9000005    1    3    3    0    0 -0.52676514467E+02  0.10999739678E+02 -0.34547247021E+03  0.34963986775E+03  0.10000000000E+01 0.  0.
<mgrwt>
<rscale>  0 0.12500007E+03</rscale>
<asrwt>0</asrwt>
<pdfrwt beam="2">  1        4 0.21751168E+00 0.12500007E+03</pdfrwt>
<pdfrwt beam="1">  1       -4 0.42506095E-03 0.12500007E+03</pdfrwt>
<totfact> 0.19627685E+03</totfact>
</mgrwt>
</event>
<event>
 5    1  0.3179758E-002  0.1250013E+03  0.7818608E-02  0.1235067E+00
          4   -1    0    0  501    0  0.00000000000E+00  0.00000000000E+00  0.31531586408E+03  0.31531842166E+03  0.12700000000E+01 0.  1.
         -4   -1    0    0    0  501 -0.00000000000E+00 -0.00000000000E+00 -0.12353467588E+02  0.12418577271E+02  0.12700000000E+01 0.  1.
         25    2    1    2    0    0  0.00000000000E+00  0.00000000000E+00  0.30296239649E+03  0.32773699893E+03  0.12500130712E+03 0.  0.
    9000005    1    3    3    0    0 -0.82299979015E+01  0.59778407982E+02  0.10886952016E+03  0.12447796330E+03  0.10000000000E+01 0.  0.
    9000005    1    3    3    0    0  0.82299979015E+01 -0.59778407982E+02  0.19409287633E+03  0.20325903564E+03  0.10000000000E+01 0.  0.
<mgrwt>
<rscale>  0 0.12500131E+03</rscale>
<asrwt>0</asrwt>
<pdfrwt beam="1">  1        4 0.48515335E-01 0.12500131E+03</pdfrwt>
<pdfrwt beam="2">  1       -4 0.19057388E-02 0.12500131E+03</pdfrwt>
<totfact> 0.72243172E+03</totfact>
</mgrwt>
</event>
<event>
 5    1  0.3179758E-002  0.1250002E+03  0.7818608E-02  0.1235069E+00
          4   -1    0    0  501    0  0.00000000000E+00  0.00000000000E+00  0.75787241949E+02  0.75797882176E+02  0.12700000000E+01 0.  1.
         -4   -1    0    0    0  501 -0.00000000000E+00 -0.00000000000E+00 -0.51520409797E+02  0.51536060440E+02  0.12700000000E+01 0.  1.
         25    2    1    2    0    0  0.00000000000E+00  0.00000000000E+00  0.24266832152E+02  0.12733394262E+03  0.12500021520E+03 0.  0.
    9000005    1    3    3    0    0 -0.17425641006E+02 -0.34362785384E+02 -0.37986891793E+02  0.54115228281E+02  0.10000000000E+01 0.  0.
    9000005    1    3    3    0    0  0.17425641006E+02  0.34362785384E+02  0.62253723945E+02  0.73218714335E+02  0.10000000000E+01 0.  0.
<mgrwt>
<rscale>  0 0.12500022E+03</rscale>
<asrwt>0</asrwt>
<pdfrwt beam="1">  1        4 0.11661598E-01 0.12500022E+03</pdfrwt>
<pdfrwt beam="2">  1       -4 0.79282393E-02 0.12500022E+03</pdfrwt>
<totfact> 0.10401848E+04</totfact>
</mgrwt>
</event>
<event>
 5    1  0.3179758E-002  0.1249972E+03  0.7818608E-02  0.1235074E+00
          4   -1    0    0  501    0  0.00000000000E+00  0.00000000000E+00  0.24818070115E+03  0.24818395058E+03  0.12700000000E+01 0.  1.
         -4   -1    0    0    0  501 -0.00000000000E+00 -0.00000000000E+00 -0.15709863171E+02  0.15761113567E+02  0.12700000000E+01 0.  1.
         25    2    1    2    0    0  0.00000000000E+00  0.00000000000E+00  0.23247083798E+03  0.26394506414E+03  0.12499722547E+03 0.  0.
    9000005    1    3    3    0    0 -0.39167816372E+02 -0.43080607543E+02  0.68314490689E+02  0.89765952475E+02  0.10000000000E+01 0.  0.
    9000005    1    3    3    0    0  0.39167816372E+02  0.43080607543E+02  0.16415634729E+03  0.17417911167E+03  0.10000000000E+01 0.  0.
<mgrwt>
<rscale>  0 0.12499723E+03</rscale>
<asrwt>0</asrwt>
<pdfrwt beam="1">  1        4 0.38185836E-01 0.12499723E+03</pdfrwt>
<pdfrwt beam="2">  1       -4 0.24210945E-02 0.12499723E+03</pdfrwt>
<totfact> 0.80360558E+03</totfact>
</mgrwt>
</event>
<event>
 5    1  0.3179758E-002  0.1249998E+03  0.7818608E-02  0.1235070E+00
         -4   -1    0    0    0  501 -0.00000000000E+00  0.00000000000E+00  0.15953527861E+04  0.15953532916E+04  0.12700000000E+01 0. -1.
          4   -1    0    0  501    0  0.00000000000E+00 -0.00000000000E+00 -0.22832881500E+01  0.26127198043E+01  0.12700000000E+01 0. -1.
         25    2    1    2    0    0  0.00000000000E+00  0.00000000000E+00  0.15930694980E+04  0.15979660114E+04  0.12499979321E+03 0.  0.
    9000005    1    3    3    0    0 -0.28498089839E+02  0.94611596300E+01  0.14971474712E+04  0.14974488990E+04  0.10000000000E+01 0.  0.
    9000005    1    3    3    0    0  0.28498089839E+02 -0.94611596300E+01  0.95922026811E+02  0.10051711244E+03  0.10000000000E+01 0.  0.
<mgrwt>
<rscale>  0 0.12499979E+03</rscale>
<asrwt>0</asrwt>
<pdfrwt beam="2">  1        4 0.37665585E-03 0.12499979E+03</pdfrwt>
<pdfrwt beam="1">  1       -4 0.24546364E+00 0.12499979E+03</pdfrwt>
<totfact> 0.16083036E+03</totfact>
</mgrwt>
</event>
<event>
 5    1  0.3179758E-002  0.1249966E+03  0.7818608E-02  0.1235075E+00
          4   -1    0    0  501    0  0.00000000000E+00  0.00000000000E+00  0.13750420928E+02  0.13808945496E+02  0.12700000000E+01 0. -1.
         -4   -1    0    0    0  501 -0.00000000000E+00 -0.00000000000E+00 -0.28340353935E+03  0.28340638493E+03  0.12700000000E+01 0. -1.
         25    2    1    2    0    0  0.00000000000E+00  0.00000000000E+00 -0.26965311842E+03  0.29721533042E+03  0.12499659340E+03 0.  0.
    9000005    1    3    3    0    0  0.28346298404E+02 -0.50370780996E+02 -0.78341775328E+02  0.97360987941E+02  0.10000000000E+01 0.  0.
    9000005    1    3    3    0    0 -0.28346298404E+02  0.50370780996E+02 -0.19131134309E+03  0.19985434248E+03  0.10000000000E+01 0.  0.
<mgrwt>
<rscale>  0 0.12499659E+03</rscale>
<asrwt>0</asrwt>
<pdfrwt beam="1">  1        4 0.21201704E-02 0.12499659E+03</pdfrwt>
<pdfrwt beam="2">  1       -4 0.43605261E-01 0.12499659E+03</pdfrwt>
<totfact> 0.75955222E+03</totfact>
</mgrwt>
</event>
<event>
 5    1  0.3179758E-002  0.1249620E+03  0.7818608E-02  0.1235129E+00
         -4   -1    0    0    0  501 -0.00000000000E+00  0.00000000000E+00  0.34028583144E+02  0.34052274092E+02  0.12700000000E+01 0. -1.
          4   -1    0    0  501    0  0.00000000000E+00 -0.00000000000E+00 -0.11465623352E+03  0.11466326694E+03  0.12700000000E+01 0. -1.
         25    2    1    2    0    0  0.00000000000E+00  0.00000000000E+00 -0.80627650374E+02  0.14871554103E+03  0.12496197077E+03 0.  0.
    9000005    1    3    3    0    0 -0.19575836434E+02 -0.24778031828E+02 -0.10446499369E+03  0.10913798211E+03  0.10000000000E+01 0.  0.
    9000005    1    3    3    0    0  0.19575836434E+02  0.24778031828E+02  0.23837343315E+02  0.39577558915E+02  0.10000000000E+01 0.  0.
<mgrwt>
<rscale>  0 0.12496197E+03</rscale>
<asrwt>0</asrwt>
<pdfrwt beam="2">  1        4 0.17641784E-01 0.12496197E+03</pdfrwt>
<pdfrwt beam="1">  1       -4 0.52375301E-02 0.12496197E+03</pdfrwt>
<totfact> 0.99645625E+03</totfact>
</mgrwt>
</event>
<event>
 5    1  0.3179758E-002  0.1250160E+03  0.7818608E-02  0.1235044E+00
         -4   -1    0    0    0  501 -0.00000000000E+00  0.00000000000E+00  0.50079820504E+01  0.51665059970E+01  0.12700000000E+01 0. -1.
          4   -1    0    0  501    0  0.00000000000E+00 -0.00000000000E+00 -0.76788941988E+03  0.76789047010E+03  0.12700000000E+01 0. -1.
         25    2    1    2    0    0  0.00000000000E+00  0.00000000000E+00 -0.76288143783E+03  0.77305697609E+03  0.12501599938E+03 0.  0.
    9000005    1    3    3    0    0  0.40031406690E+02  0.25660803392E+02 -0.63226127884E+03  0.63404756531E+03  0.10000000000E+01 0.  0.
    9000005    1    3    3    0    0 -0.40031406690E+02 -0.25660803392E+02 -0.13062015899E+03  0.13900941079E+03  0.10000000000E+01 0.  0.
<mgrwt>
<rscale>  0 0.12501600E+03</rscale>
<asrwt>0</asrwt>
<pdfrwt beam="2">  1        4 0.11814902E+00 0.12501600E+03</pdfrwt>
<pdfrwt beam="1">  1       -4 0.78273432E-03 0.12501600E+03</pdfrwt>
<totfact> 0.39481048E+03</totfact>
</mgrwt>
</event>
<event>
 5    1  0.3179758E-002  0.1249952E+03  0.7818608E-02  0.1235077E+00
          4   -1    0    0  501    0  0.00000000000E+00  0.00000000000E+00  0.31911216064E+03  0.31911468780E+03  0.12700000000E+01 0.  1.
         -4   -1    0    0    0  501 -0.00000000000E+00 -0.00000000000E+00 -0.12204532838E+02  0.12270432828E+02  0.12700000000E+01 0.  1.
         25    2    1    2    0    0  0.00000000000E+00  0.00000000000E+00  0.30690762780E+03  0.33138512062E+03  0.12499522459E+03 0.  0.
    9000005    1    3    3    0    0 -0.36654570157E+02 -0.41099369438E+02  0.23175287463E+03  0.23820812450E+03  0.10000000000E+01 0.  0.
    9000005    1    3    3    0    0  0.36654570157E+02  0.41099369438E+02  0.75154753174E+02  0.93176996122E+02  0.10000000000E+01 0.  0.
<mgrwt>
<rscale>  0 0.12499522E+03</rscale>
<asrwt>0</asrwt>
<pdfrwt beam="1">  1        4 0.49099428E-01 0.12499522E+03</pdfrwt>
<pdfrwt beam="2">  1       -4 0.18828846E-02 0.12499522E+03</pdfrwt>
<totfact> 0.71829775E+03</totfact>
</mgrwt>
</event>
<event>
 5    1  0.3179758E-002  0.1250004E+03  0.7818608E-02  0.1235069E+00
         -4   -1    0    0    0  501 -0.00000000000E+00  0.00000000000E+00  0.11718305398E+03  0.11718993575E+03  0.12700000000E+01 0.  1.
          4   -1    0    0  501    0  0.00000000000E+00 -0.00000000000E+00 -0.33314845905E+02  0.33339044043E+02  0.12700000000E+01 0.  1.
         25    2    1    2    0    0  0.00000000000E+00  0.00000000000E+00  0.83868208075E+02  0.15052897979E+03  0.12500038972E+03 0.  0.
    9000005    1    3    3    0    0  0.29135504016E+02 -0.54966535229E+02  0.34801985741E+02  0.71290783422E+02  0.10000000000E+01 0.  0.
    9000005    1    3    3    0    0 -0.29135504016E+02  0.54966535229E+02  0.49066222334E+02  0.79238196367E+02  0.10000000000E+01 0.  0.
<mgrwt>
<rscale>  0 0.12500039E+03</rscale>
<asrwt>0</asrwt>
<pdfrwt beam="2">  1        4 0.51277516E-02 0.12500039E+03</pdfrwt>
<pdfrwt beam="1">  1       -4 0.18030553E-01 0.12500039E+03</pdfrwt>
<totfact> 0.99197488E+03</totfact>
</mgrwt>
</event>
<event>
 5    1  0.3179758E-002  0.1250004E+03  0.7818608E-02  0.1235069E+00
          4   -1    0    0  501    0  0.00000000000E+00  0.00000000000E+00  0.22223563746E+03  0.22223926624E+03  0.12700000000E+01 0. -1.
         -4   -1    0    0    0  501 -0.00000000000E+00 -0.00000000000E+00 -0.17550444927E+02  0.17596335332E+02  0.12700000000E+01 0. -1.
         25    2    1    2    0    0  0.00000000000E+00  0.00000000000E+00  0.20468519254E+03  0.23983560157E+03  0.12500035095E+03 0.  0.
    9000005    1    3    3    0    0  0.29991089051E+01 -0.17919375668E+02 -0.12380527828E+02  0.22008547155E+02  0.10000000000E+01 0.  0.
    9000005    1    3    3    0    0 -0.29991089051E+01  0.17919375668E+02  0.21706572036E+03  0.21782705442E+03  0.10000000000E+01 0.  0.
<mgrwt>
<rscale>  0 0.12500035E+03</rscale>
<asrwt>0</asrwt>
<pdfrwt beam="1">  1        4 0.34193907E-01 0.12500035E+03</pdfrwt>
<pdfrwt beam="2">  1       -4 0.27038776E-02 0.12500035E+03</pdfrwt>
<totfact> 0.83821201E+03</totfact>
</mgrwt>
</event>
<event>
 5    1  0.3179758E-002  0.1250022E+03  0.7818608E-02  0.1235066E+00
         -4   -1    0    0    0  501 -0.00000000000E+00  0.00000000000E+00  0.89025764623E+01  0.89927063594E+01  0.12700000000E+01 0.  1.
          4   -1    0    0  501    0  0.00000000000E+00 -0.00000000000E+00 -0.43649221284E+03  0.43649406041E+03  0.12700000000E+01 0.  1.
         25    2    1    2    0    0  0.00000000000E+00  0.00000000000E+00 -0.42758963638E+03  0.44548676677E+03  0.12500224888E+03 0.  0.
    9000005    1    3    3    0    0  0.72185320353E+01 -0.40701067985E+02 -0.38082809103E+03  0.38306620715E+03  0.10000000000E+01 0.  0.
    9000005    1    3    3    0    0 -0.72185320353E+01  0.40701067985E+02 -0.46761545347E+02  0.62420559619E+02  0.10000000000E+01 0.  0.
<mgrwt>
<rscale>  0 0.12500225E+03</rscale>
<asrwt>0</asrwt>
<pdfrwt beam="2">  1        4 0.67159707E-01 0.12500225E+03</pdfrwt>
<pdfrwt beam="1">  1       -4 0.13767027E-02 0.12500225E+03</pdfrwt>
<totfact> 0.60353797E+03</totfact>
</mgrwt>
</event>
<event>
 5    1  0.3179758E-002  0.1250115E+03  0.7818608E-02  0.1235051E+00
         -4   -1    0    0    0  501 -0.00000000000E+00  0.00000000000E+00  0.19119594984E+04  0.19119599202E+04  0.12700000000E+01 0. -1.
          4   -1    0    0  501    0  0.00000000000E+00 -0.00000000000E+00 -0.18456462839E+01  0.22403817097E+01  0.12700000000E+01 0. -1.
         25    2    1    2    0    0  0.00000000000E+00  0.00000000000E+00  0.19101138522E+04  0.19142003019E+04  0.12501147050E+03 0.  0.
    9000005    1    3    3    0    0  0.16347940499E+01  0.57613742172E+02  0.13250774019E+04  0.13263307041E+04  0.10000000000E+01 0.  0.
    9000005    1    3    3    0    0 -0.16347940499E+01 -0.57613742172E+02  0.58503645030E+03  0.58786959780E+03  0.10000000000E+01 0.  0.
<mgrwt>
<rscale>  0 0.12501147E+03</rscale>
<asrwt>0</asrwt>
<pdfrwt beam="2">  1        4 0.31434183E-03 0.12501147E+03</pdfrwt>
<pdfrwt beam="1">  1       -4 0.29417844E+00 0.12501147E+03</pdfrwt>
<totfact> 0.11020152E+03</totfact>
</mgrwt>
</event>
<event>
 5    1  0.3179758E-002  0.1249990E+03  0.7818608E-02  0.1235071E+00
          4   -1    0    0  501    0  0.00000000000E+00  0.00000000000E+00  0.43396661742E+03  0.43396847574E+03  0.12700000000E+01 0. -1.
         -4   -1    0    0    0  501 -0.00000000000E+00 -0.00000000000E+00 -0.89544398403E+01  0.90440528998E+01  0.12700000000E+01 0. -1.
         25    2    1    2    0    0  0.00000000000E+00  0.00000000000E+00  0.42501217758E+03  0.44301252864E+03  0.12499899776E+03 0.  0.
    9000005    1    3    3    0    0  0.28087239723E+02  0.24162347196E+02  0.39085977387E+03  0.39261313642E+03  0.10000000000E+01 0.  0.
    9000005    1    3    3    0    0 -0.28087239723E+02 -0.24162347196E+02  0.34152403713E+02  0.50399392225E+02  0.10000000000E+01 0.  0.
<mgrwt>
<rscale>  0 0.12499900E+03</rscale>
<asrwt>0</asrwt>
<pdfrwt beam="1">  1        4 0.66771118E-01 0.12499900E+03</pdfrwt>
<pdfrwt beam="2">  1       -4 0.13846427E-02 0.12499900E+03</pdfrwt>
<totfact> 0.60575279E+03</totfact>
</mgrwt>
</event>
<event>
 5    1  0.3179758E-002  0.1249960E+03  0.7818608E-02  0.1235076E+00
          4   -1    0    0  501    0  0.00000000000E+00  0.00000000000E+00  0.26308487581E+02  0.26339123349E+02  0.12700000000E+01 0. -1.
         -4   -1    0    0    0  501 -0.00000000000E+00 -0.00000000000E+00 -0.14834945008E+03  0.14835488613E+03  0.12700000000E+01 0. -1.
         25    2    1    2    0    0  0.00000000000E+00  0.00000000000E+00 -0.12204096250E+03  0.17469400948E+03  0.12499600162E+03 0.  0.
    9000005    1    3    3    0    0 -0.28407265725E+02 -0.52325392093E+02 -0.87540987783E+02  0.10587418923E+03  0.10000000000E+01 0.  0.
    9000005    1    3    3    0    0  0.28407265725E+02  0.52325392093E+02 -0.34499974719E+02  0.68819820250E+02  0.10000000000E+01 0.  0.
<mgrwt>
<rscale>  0 0.12499600E+03</rscale>
<asrwt>0</asrwt>
<pdfrwt beam="1">  1        4 0.40502345E-02 0.12499600E+03</pdfrwt>
<pdfrwt beam="2">  1       -4 0.22825767E-01 0.12499600E+03</pdfrwt>
<totfact> 0.94589396E+03</totfact>
</mgrwt>
</event>
<event>
 5    1  0.3179758E-002  0.1250065E+03  0.7818608E-02  0.1235059E+00
          4   -1    0    0  501    0  0.00000000000E+00  0.00000000000E+00  0.35819443278E+03  0.35819668420E+03  0.12700000000E+01 0. -1.
         -4   -1    0    0    0  501 -0.00000000000E+00 -0.00000000000E+00 -0.10867262645E+02  0.10941220105E+02  0.12700000000E+01 0. -1.
         25    2    1    2    0    0  0.00000000000E+00  0.00000000000E+00  0.34732717014E+03  0.36913790431E+03  0.12500651696E+03 0.  0.
    9000005    1    3    3    0    0  0.84828136974E+00  0.61419697516E+01 -0.99712576287E+01  0.11784284128E+02  0.10000000000E+01 0.  0.
    9000005    1    3    3    0    0 -0.84828136974E+00 -0.61419697516E+01  0.35729842776E+03  0.35735362018E+03  0.10000000000E+01 0.  0.
<mgrwt>
<rscale>  0 0.12500652E+03</rscale>
<asrwt>0</asrwt>
<pdfrwt beam="1">  1        4 0.55112691E-01 0.12500652E+03</pdfrwt>
<pdfrwt beam="2">  1       -4 0.16777490E-02 0.12500652E+03</pdfrwt>
<totfact> 0.67659478E+03</totfact>
</mgrwt>
</event>
<event>
 5    1  0.3179758E-002  0.1250031E+03  0.7818608E-02  0.1235065E+00
          4   -1    0    0  501    0  0.00000000000E+00  0.00000000000E+00  0.11432728568E+02  0.11503051008E+02  0.12700000000E+01 0. -1.
         -4   -1    0    0    0  501 -0.00000000000E+00 -0.00000000000E+00 -0.34057015444E+03  0.34057252238E+03  0.12700000000E+01 0. -1.
         25    2    1    2    0    0  0.00000000000E+00  0.00000000000E+00 -0.32913742588E+03  0.35207557338E+03  0.12500305701E+03 0.  0.
    9000005    1    3    3    0    0 -0.68995466338E+01  0.40500958141E+02 -0.29720062374E+03  0.30002856881E+03  0.10000000000E+01 0.  0.
    9000005    1    3    3    0    0  0.68995466338E+01 -0.40500958141E+02 -0.31936802140E+02  0.52047004572E+02  0.10000000000E+01 0.  0.
<mgrwt>
<rscale>  0 0.12500306E+03</rscale>
<asrwt>0</asrwt>
<pdfrwt beam="1">  1        4 0.17644731E-02 0.12500306E+03</pdfrwt>
<pdfrwt beam="2">  1       -4 0.52400992E-01 0.12500306E+03</pdfrwt>
<totfact> 0.69492122E+03</totfact>
</mgrwt>
</event>
<event>
 5    1  0.3179758E-002  0.1249975E+03  0.7818608E-02  0.1235073E+00
         -4   -1    0    0    0  501 -0.00000000000E+00  0.00000000000E+00  0.52807043583E+02  0.52822313013E+02  0.12700000000E+01 0.  1.
          4   -1    0    0  501    0  0.00000000000E+00 -0.00000000000E+00 -0.73937792773E+02  0.73948699111E+02  0.12700000000E+01 0.  1.
         25    2    1    2    0    0  0.00000000000E+00  0.00000000000E+00 -0.21130749190E+02  0.12677101212E+03  0.12499752379E+03 0.  0.
    9000005    1    3    3    0    0 -0.29411014279E+02 -0.39462161035E+02  0.28488447647E+02  0.56875843412E+02  0.10000000000E+01 0.  0.
    9000005    1    3    3    0    0  0.29411014279E+02  0.39462161035E+02 -0.49619196837E+02  0.69895168712E+02  0.10000000000E+01 0.  0.
<mgrwt>
<rscale>  0 0.12499752E+03</rscale>
<asrwt>0</asrwt>
<pdfrwt beam="2">  1        4 0.11377059E-01 0.12499752E+03</pdfrwt>
<pdfrwt beam="1">  1       -4 0.81261741E-02 0.12499752E+03</pdfrwt>
<totfact> 0.10414707E+04</totfact>
</mgrwt>
</event>
<event>
 5    1  0.3179758E-002  0.1249988E+03  0.7818608E-02  0.1235071E+00
          4   -1    0    0  501    0  0.00000000000E+00  0.00000000000E+00  0.37125378817E+02  0.37147094803E+02  0.12700000000E+01 0.  1.
         -4   -1    0    0    0  501 -0.00000000000E+00 -0.00000000000E+00 -0.10515936402E+03  0.10516703258E+03  0.12700000000E+01 0.  1.
         25    2    1    2    0    0  0.00000000000E+00  0.00000000000E+00 -0.68033985204E+02  0.14231412738E+03  0.12499875083E+03 0.  0.
    9000005    1    3    3    0    0 -0.58790103308E+02 -0.13132258088E+02 -0.15087351792E+02  0.62107653583E+02  0.10000000000E+01 0.  0.
    9000005    1    3    3    0    0  0.58790103308E+02  0.13132258088E+02 -0.52946633413E+02  0.80206473799E+02  0.10000000000E+01 0.  0.
<mgrwt>
<rscale>  0 0.12499875E+03</rscale>
<asrwt>0</asrwt>
<pdfrwt beam="1">  1        4 0.57138571E-02 0.12499875E+03</pdfrwt>
<pdfrwt beam="2">  1       -4 0.16180624E-01 0.12499875E+03</pdfrwt>
<totfact> 0.10086131E+04</totfact>
</mgrwt>
</event>
<event>
 5    1  0.3179758E-002  0.1249997E+03  0.7818608E-02  0.1235070E+00
          4   -1    0    0  501    0  0.00000000000E+00  0.00000000000E+00  0.83395080346E+01  0.84356561250E+01  0.12700000000E+01 0. -1.
         -4   -1    0    0    0  501 -0.00000000000E+00 -0.00000000000E+00 -0.46561883166E+03  0.46562056365E+03  0.12700000000E+01 0. -1.
         25    2    1    2    0    0  0.00000000000E+00  0.00000000000E+00 -0.45727932362E+03  0.47405621977E+03  0.12499967878E+03 0.  0.
    9000005    1    3    3    0    0 -0.11498675121E+02 -0.48768895834E+02 -0.87012487254E+02  0.10041313494E+03  0.10000000000E+01 0.  0.
    9000005    1    3    3    0    0  0.11498675121E+02  0.48768895834E+02 -0.37026683637E+03  0.37364308483E+03  0.10000000000E+01 0.  0.
<mgrwt>
<rscale>  0 0.12499968E+03</rscale>
<asrwt>0</asrwt>
<pdfrwt beam="1">  1        4 0.12905308E-02 0.12499968E+03</pdfrwt>
<pdfrwt beam="2">  1       -4 0.71641175E-01 0.12499968E+03</pdfrwt>
<totfact> 0.57935430E+03</totfact>
</mgrwt>
</event>
<event>
 5    1  0.3179758E-002  0.1250015E+03  0.7818608E-02  0.1235067E+00
          4   -1    0    0  501    0  0.00000000000E+00  0.00000000000E+00  0.14244791683E+03  0.14245357809E+03  0.12700000000E+01 0. -1.
         -4   -1    0    0    0  501 -0.00000000000E+00 -0.00000000000E+00 -0.27402026445E+02  0.27431440963E+02  0.12700000000E+01 0. -1.
         25    2    1    2    0    0  0.00000000000E+00  0.00000000000E+00  0.11504589039E+03  0.16988501905E+03  0.12500145120E+03 0.  0.
    9000005    1    3    3    0    0  0.72078084256E+01 -0.33109431795E+02 -0.13839630824E+02  0.36615875757E+02  0.10000000000E+01 0.  0.
    9000005    1    3    3    0    0 -0.72078084256E+01  0.33109431795E+02  0.12888552121E+03  0.13326914329E+03  0.10000000000E+01 0.  0.
<mgrwt>
<rscale>  0 0.12500145E+03</rscale>
<asrwt>0</asrwt>
<pdfrwt beam="1">  1        4 0.21917763E-01 0.12500145E+03</pdfrwt>
<pdfrwt beam="2">  1       -4 0.42183945E-02 0.12500145E+03</pdfrwt>
<totfact> 0.95466961E+03</totfact>
</mgrwt>
</event>
<event>
 5    1  0.3179758E-002  0.1249998E+03  0.7818608E-02  0.1235070E+00
          4   -1    0    0  501    0  0.00000000000E+00  0.00000000000E+00  0.83553603200E+03  0.83553699719E+03  0.12700000000E+01 0. -1.
         -4   -1    0    0    0  501 -0.00000000000E+00 -0.00000000000E+00 -0.45878903673E+01  0.47604241431E+01  0.12700000000E+01 0. -1.
         25    2    1    2    0    0  0.00000000000E+00  0.00000000000E+00  0.83094814163E+03  0.84029742133E+03  0.12499976885E+03 0.  0.
    9000005    1    3    3    0    0 -0.37815664335E+02  0.21675223489E+02  0.71651383717E+03  0.71783906180E+03  0.10000000000E+01 0.  0.
    9000005    1    3    3    0    0  0.37815664335E+02 -0.21675223489E+02  0.11443430446E+03  0.12245835953E+03  0.10000000000E+01 0.  0.
<mgrwt>
<rscale>  0 0.12499977E+03</rscale>
<asrwt>0</asrwt>
<pdfrwt beam="1">  1        4 0.12855727E+00 0.12499977E+03</pdfrwt>
<pdfrwt beam="2">  1       -4 0.71917581E-03 0.12499977E+03</pdfrwt>
<totfact> 0.36527890E+03</totfact>
</mgrwt>
</event>
<event>
 5    1  0.3179758E-002  0.1250287E+03  0.7818608E-02  0.1235024E+00
          4   -1    0    0  501    0  0.00000000000E+00  0.00000000000E+00  0.10068680171E+03  0.10069481089E+03  0.12700000000E+01 0.  1.
         -4   -1    0    0    0  501 -0.00000000000E+00 -0.00000000000E+00 -0.38793897742E+02  0.38814680239E+02  0.12700000000E+01 0.  1.
         25    2    1    2    0    0  0.00000000000E+00  0.00000000000E+00  0.61892903972E+02  0.13950949113E+03  0.12502866292E+03 0.  0.
    9000005    1    3    3    0    0 -0.48776218925E+02 -0.39052736456E+02  0.32815535749E+02  0.70583958120E+02  0.10000000000E+01 0.  0.
    9000005    1    3    3    0    0  0.48776218925E+02  0.39052736456E+02  0.29077368224E+02  0.68925533006E+02  0.10000000000E+01 0.  0.
<mgrwt>
<rscale>  0 0.12502866E+03</rscale>
<asrwt>0</asrwt>
<pdfrwt beam="1">  1        4 0.15492492E-01 0.12502866E+03</pdfrwt>
<pdfrwt beam="2">  1       -4 0.59705067E-02 0.12502866E+03</pdfrwt>
<totfact> 0.10137214E+04</totfact>
</mgrwt>
</event>
<event>
 5    1  0.3179758E-002  0.1250027E+03  0.7818608E-02  0.1235065E+00
          4   -1    0    0  501    0  0.00000000000E+00  0.00000000000E+00  0.19507544442E+04  0.19507548576E+04  0.12700000000E+01 0.  1.
         -4   -1    0    0    0  501 -0.00000000000E+00 -0.00000000000E+00 -0.18007034715E+01  0.22035047067E+01  0.12700000000E+01 0.  1.
         25    2    1    2    0    0  0.00000000000E+00  0.00000000000E+00  0.19489537408E+04  0.19529583624E+04  0.12500272565E+03 0.  0.
    9000005    1    3    3    0    0 -0.50915116332E+02 -0.35648446212E+02  0.10760399874E+04  0.10778340388E+04  0.10000000000E+01 0.  0.
    9000005    1    3    3    0    0  0.50915116332E+02  0.35648446212E+02  0.87291375338E+03  0.87512432353E+03  0.10000000000E+01 0.  0.
<mgrwt>
<rscale>  0 0.12500273E+03</rscale>
<asrwt>0</asrwt>
<pdfrwt beam="1">  1        4 0.30014575E+00 0.12500273E+03</pdfrwt>
<pdfrwt beam="2">  1       -4 0.30804919E-03 0.12500273E+03</pdfrwt>
<totfact> 0.10487297E+03</totfact>
</mgrwt>
</event>
<event>
 5    1  0.3179758E-002  0.1250085E+03  0.7818608E-02  0.1235056E+00
         -4   -1    0    0    0  501 -0.00000000000E+00  0.00000000000E+00  0.10748282365E+03  0.10749032644E+03  0.12700000000E+01 0.  1.
          4   -1    0    0  501    0  0.00000000000E+00 -0.00000000000E+00 -0.36328109284E+02  0.36350301569E+02  0.12700000000E+01 0.  1.
         25    2    1    2    0    0  0.00000000000E+00  0.00000000000E+00  0.71154714363E+02  0.14384062801E+03  0.12500853127E+03 0.  0.
    9000005    1    3    3    0    0 -0.25892672220E+02  0.44221234461E+02 -0.55867725501E+01  0.51557347483E+02  0.10000000000E+01 0.  0.
    9000005    1    3    3    0    0  0.25892672220E+02 -0.44221234461E+02  0.76741486913E+02  0.92283280531E+02  0.10000000000E+01 0.  0.
<mgrwt>
<rscale>  0 0.12500853E+03</rscale>
<asrwt>0</asrwt>
<pdfrwt beam="2">  1        4 0.55912241E-02 0.12500853E+03</pdfrwt>
<pdfrwt beam="1">  1       -4 0.16538103E-01 0.12500853E+03</pdfrwt>
<totfact> 0.10052666E+04</totfact>
</mgrwt>
</event>
<event>
 5    1  0.3179758E-002  0.1249831E+03  0.7818608E-02  0.1235096E+00
         -4   -1    0    0    0  501 -0.00000000000E+00  0.00000000000E+00  0.32765360785E+03  0.32765606913E+03  0.12700000000E+01 0. -1.
          4   -1    0    0  501    0  0.00000000000E+00 -0.00000000000E+00 -0.11882313985E+02  0.11949991031E+02  0.12700000000E+01 0. -1.
         25    2    1    2    0    0  0.00000000000E+00  0.00000000000E+00  0.31577129387E+03  0.33960606016E+03  0.12498306313E+03 0.  0.
    9000005    1    3    3    0    0  0.36638087758E+00 -0.21198379263E+02  0.31759434051E+03  0.31830279710E+03  0.10000000000E+01 0.  0.
    9000005    1    3    3    0    0 -0.36638087758E+00  0.21198379263E+02 -0.18230466367E+01  0.21303263068E+02  0.10000000000E+01 0.  0.
<mgrwt>
<rscale>  0 0.12498306E+03</rscale>
<asrwt>0</asrwt>
<pdfrwt beam="2">  1        4 0.18334438E-02 0.12498306E+03</pdfrwt>
<pdfrwt beam="1">  1       -4 0.50413637E-01 0.12498306E+03</pdfrwt>
<totfact> 0.70909950E+03</totfact>
</mgrwt>
</event>
<event>
 5    1  0.3179758E-002  0.1249567E+03  0.7818608E-02  0.1235137E+00
         -4   -1    0    0    0  501 -0.00000000000E+00  0.00000000000E+00  0.25625934993E+02  0.25657385764E+02  0.12700000000E+01 0. -1.
          4   -1    0    0  501    0  0.00000000000E+00 -0.00000000000E+00 -0.15220028515E+03  0.15220558366E+03  0.12700000000E+01 0. -1.
         25    2    1    2    0    0  0.00000000000E+00  0.00000000000E+00 -0.12657435015E+03  0.17786296943E+03  0.12495667160E+03 0.  0.
    9000005    1    3    3    0    0 -0.27997271822E+02 -0.47758123048E+02 -0.10448848413E+03  0.11825197191E+03  0.10000000000E+01 0.  0.
    9000005    1    3    3    0    0  0.27997271822E+02  0.47758123048E+02 -0.22085866028E+02  0.59610997515E+02  0.10000000000E+01 0.  0.
<mgrwt>
<rscale>  0 0.12495667E+03</rscale>
<asrwt>0</asrwt>
<pdfrwt beam="2">  1        4 0.23418255E-01 0.12495667E+03</pdfrwt>
<pdfrwt beam="1">  1       -4 0.39452785E-02 0.12495667E+03</pdfrwt>
<totfact> 0.94094499E+03</totfact>
</mgrwt>
</event>
<event>
 5    1  0.3179758E-002  0.1249656E+03  0.7818608E-02  0.1235123E+00
          4   -1    0    0  501    0  0.00000000000E+00  0.00000000000E+00  0.34686821586E+02  0.34710063263E+02  0.12700000000E+01 0.  1.
         -4   -1    0    0    0  501 -0.00000000000E+00 -0.00000000000E+00 -0.11248830112E+03  0.11249547008E+03  0.12700000000E+01 0.  1.
         25    2    1    2    0    0  0.00000000000E+00  0.00000000000E+00 -0.77801479531E+02  0.14720553334E+03  0.12496559058E+03 0.  0.
    9000005    1    3    3    0    0  0.39329630150E+02  0.10044697099E+02 -0.94843505412E+02  0.10316979338E+03  0.10000000000E+01 0.  0.
    9000005    1    3    3    0    0 -0.39329630150E+02 -0.10044697099E+02  0.17042025882E+02  0.44035739959E+02  0.10000000000E+01 0.  0.
<mgrwt>
<rscale>  0 0.12496559E+03</rscale>
<asrwt>0</asrwt>
<pdfrwt beam="1">  1        4 0.53387734E-02 0.12496559E+03</pdfrwt>
<pdfrwt beam="2">  1       -4 0.17308232E-01 0.12496559E+03</pdfrwt>
<totfact> 0.99941076E+03</totfact>
</mgrwt>
</event>
<event>
 5    1  0.3179758E-002  0.1250007E+03  0.7818608E-02  0.1235068E+00
          4   -1    0    0  501    0  0.00000000000E+00  0.00000000000E+00  0.20775369302E+04  0.20775373184E+04  0.12700000000E+01 0.  1.
         -4   -1    0    0    0  501 -0.00000000000E+00 -0.00000000000E+00 -0.16653675362E+01  0.20943612464E+01  0.12700000000E+01 0.  1.
         25    2    1    2    0    0  0.00000000000E+00  0.00000000000E+00  0.20758715627E+04  0.20796316797E+04  0.12500071285E+03 0.  0.
    9000005    1    3    3    0    0 -0.19418611569E+02 -0.19810909812E+01  0.50270947634E+02  0.53936771990E+02  0.10000000000E+01 0.  0.
    9000005    1    3    3    0    0  0.19418611569E+02  0.19810909812E+01  0.20256006151E+04  0.20256949077E+04  0.10000000000E+01 0.  0.
<mgrwt>
<rscale>  0 0.12500071E+03</rscale>
<asrwt>0</asrwt>
<pdfrwt beam="1">  1        4 0.31965397E+00 0.12500071E+03</pdfrwt>
<pdfrwt beam="2">  1       -4 0.28923988E-03 0.12500071E+03</pdfrwt>
<totfact> 0.88573222E+02</totfact>
</mgrwt>
</event>
<event>
 5    1  0.3179758E-002  0.1250014E+03  0.7818608E-02  0.1235067E+00
          4   -1    0    0  501    0  0.00000000000E+00  0.00000000000E+00  0.18358377667E+02  0.18402253410E+02  0.12700000000E+01 0. -1.
         -4   -1    0    0    0  501 -0.00000000000E+00 -0.00000000000E+00 -0.21248237552E+03  0.21248617086E+03  0.12700000000E+01 0. -1.
         25    2    1    2    0    0  0.00000000000E+00  0.00000000000E+00 -0.19412399786E+03  0.23088842427E+03  0.12500135167E+03 0.  0.
    9000005    1    3    3    0    0 -0.58115812755E+02  0.18921037699E+02 -0.12113665041E+03  0.13568545033E+03  0.10000000000E+01 0.  0.
    9000005    1    3    3    0    0  0.58115812755E+02 -0.18921037699E+02 -0.72987347448E+02  0.95202973941E+02  0.10000000000E+01 0.  0.
<mgrwt>
<rscale>  0 0.12500135E+03</rscale>
<asrwt>0</asrwt>
<pdfrwt beam="1">  1        4 0.28280330E-02 0.12500135E+03</pdfrwt>
<pdfrwt beam="2">  1       -4 0.32693261E-01 0.12500135E+03</pdfrwt>
<totfact> 0.85170797E+03</totfact>
</mgrwt>
</event>
<event>
 5    1  0.3179758E-002  0.1249764E+03  0.7818608E-02  0.1235106E+00
         -4   -1    0    0    0  501 -0.00000000000E+00  0.00000000000E+00  0.15865602610E+04  0.15865607693E+04  0.12700000000E+01 0. -1.
          4   -1    0    0  501    0  0.00000000000E+00 -0.00000000000E+00 -0.22967784497E+01  0.26245173360E+01  0.12700000000E+01 0. -1.
         25    2    1    2    0    0  0.00000000000E+00  0.00000000000E+00  0.15842634826E+04  0.15891852867E+04  0.12497637025E+03 0.  0.
    9000005    1    3    3    0    0  0.94656913974E+01 -0.39996111539E+02  0.19374356629E+03  0.19805771313E+03  0.10000000000E+01 0.  0.
    9000005    1    3    3    0    0 -0.94656913974E+01  0.39996111539E+02  0.13905199163E+04  0.13911275735E+04  0.10000000000E+01 0.  0.
<mgrwt>
<rscale>  0 0.12497637E+03</rscale>
<asrwt>0</asrwt>
<pdfrwt beam="2">  1        4 0.37860097E-03 0.12497637E+03</pdfrwt>
<pdfrwt beam="1">  1       -4 0.24411102E+00 0.12497637E+03</pdfrwt>
<totfact> 0.16250763E+03</totfact>
</mgrwt>
</event>
<event>
 5    1  0.3179758E-002  0.1249999E+03  0.7818608E-02  0.1235069E+00
         -4   -1    0    0    0  501 -0.00000000000E+00  0.00000000000E+00  0.73468799687E+02  0.73479775635E+02  0.12700000000E+01 0. -1.
          4   -1    0    0  501    0  0.00000000000E+00 -0.00000000000E+00 -0.53146238402E+02  0.53161410406E+02  0.12700000000E+01 0. -1.
         25    2    1    2    0    0  0.00000000000E+00  0.00000000000E+00  0.20322561284E+02  0.12664118604E+03  0.12499993402E+03 0.  0.
    9000005    1    3    3    0    0 -0.50158322933E+02 -0.33766923619E+02 -0.58315274874E+01  0.60754170252E+02  0.10000000000E+01 0.  0.
    9000005    1    3    3    0    0  0.50158322933E+02  0.33766923619E+02  0.26154088772E+02  0.65887015789E+02  0.10000000000E+01 0.  0.
<mgrwt>
<rscale>  0 0.12499993E+03</rscale>
<asrwt>0</asrwt>
<pdfrwt beam="2">  1        4 0.81783558E-02 0.12499993E+03</pdfrwt>
<pdfrwt beam="1">  1       -4 0.11304904E-01 0.12499993E+03</pdfrwt>
<totfact> 0.10416966E+04</totfact>
</mgrwt>
</event>
<event>
 5    1  0.3179758E-002  0.1249990E+03  0.7818608E-02  0.1235071E+00
         -4   -1    0    0    0  501 -0.00000000000E+00  0.00000000000E+00  0.68536469713E+03  0.68536587380E+03  0.12700000000E+01 0. -1.
          4   -1    0    0  501    0  0.00000000000E+00 -0.00000000000E+00 -0.56274837826E+01  0.57690097698E+01  0.12700000000E+01 0. -1.
         25    2    1    2    0    0  0.00000000000E+00  0.00000000000E+00  0.67973721335E+03  0.69113488357E+03  0.12499899232E+03 0.  0.
    9000005    1    3    3    0    0 -0.48339114759E+02  0.38391298298E+02  0.28608378272E+03  0.29266959619E+03  0.10000000000E+01 0.  0.
    9000005    1    3    3    0    0  0.48339114759E+02 -0.38391298298E+02  0.39365343063E+03  0.39846528738E+03  0.10000000000E+01 0.  0.
<mgrwt>
<rscale>  0 0.12499899E+03</rscale>
<asrwt>0</asrwt>
<pdfrwt beam="2">  1        4 0.87674340E-03 0.12499899E+03</pdfrwt>
<pdfrwt beam="1">  1       -4 0.10545176E+00 0.12499899E+03</pdfrwt>
<totfact> 0.43559757E+03</totfact>
</mgrwt>
</event>
<event>
 5    1  0.3179758E-002  0.1250019E+03  0.7818608E-02  0.1235066E+00
          4   -1    0    0  501    0  0.00000000000E+00  0.00000000000E+00  0.39684371377E+02  0.39704687779E+02  0.12700000000E+01 0.  1.
         -4   -1    0    0    0  501 -0.00000000000E+00 -0.00000000000E+00 -0.98386357936E+02  0.98394554361E+02  0.12700000000E+01 0.  1.
         25    2    1    2    0    0  0.00000000000E+00  0.00000000000E+00 -0.58701986558E+02  0.13809924214E+03  0.12500190980E+03 0.  0.
    9000005    1    3    3    0    0  0.34780753433E+02  0.18660866310E+02  0.24175889817E+02  0.46296893948E+02  0.10000000000E+01 0.  0.
    9000005    1    3    3    0    0 -0.34780753433E+02 -0.18660866310E+02 -0.82877876376E+02  0.91802348191E+02  0.10000000000E+01 0.  0.
<mgrwt>
<rscale>  0 0.12500191E+03</rscale>
<asrwt>0</asrwt>
<pdfrwt beam="1">  1        4 0.61074812E-02 0.12500191E+03</pdfrwt>
<pdfrwt beam="2">  1       -4 0.15138556E-01 0.12500191E+03</pdfrwt>
<totfact> 0.10172695E+04</totfact>
</mgrwt>
</event>
<event>
 5    1  0.3179758E-002  0.1250077E+03  0.7818608E-02  0.1235057E+00
          4   -1    0    0  501    0  0.00000000000E+00  0.00000000000E+00  0.52780396735E+03  0.52780549528E+03  0.12700000000E+01 0.  1.
         -4   -1    0    0    0  501 -0.00000000000E+00 -0.00000000000E+00 -0.73458341827E+01  0.74548091753E+01  0.12700000000E+01 0.  1.
         25    2    1    2    0    0  0.00000000000E+00  0.00000000000E+00  0.52045813316E+03  0.53526030445E+03  0.12500770036E+03 0.  0.
    9000005    1    3    3    0    0  0.38156610105E+02  0.46924215768E+02  0.32764865945E+03  0.33318531324E+03  0.10000000000E+01 0.  0.
    9000005    1    3    3    0    0 -0.38156610105E+02 -0.46924215768E+02  0.19280947372E+03  0.20207499122E+03  0.10000000000E+01 0.  0.
<mgrwt>
<rscale>  0 0.12500770E+03</rscale>
<asrwt>0</asrwt>
<pdfrwt beam="1">  1        4 0.81209131E-01 0.12500770E+03</pdfrwt>
<pdfrwt beam="2">  1       -4 0.11386283E-02 0.12500770E+03</pdfrwt>
<totfact> 0.53219745E+03</totfact>
</mgrwt>
</event>
<event>
 5    1  0.3179758E-002  0.1249988E+03  0.7818608E-02  0.1235071E+00
          4   -1    0    0  501    0  0.00000000000E+00  0.00000000000E+00  0.42678395689E+02  0.42697287485E+02  0.12700000000E+01 0. -1.
         -4   -1    0    0    0  501 -0.00000000000E+00 -0.00000000000E+00 -0.91482247014E+02  0.91491061961E+02  0.12700000000E+01 0. -1.
         25    2    1    2    0    0  0.00000000000E+00  0.00000000000E+00 -0.48803851326E+02  0.13418834945E+03  0.12499878889E+03 0.  0.
    9000005    1    3    3    0    0 -0.72099211235E+01  0.43773186063E+02 -0.71650093588E+02  0.84278174469E+02  0.10000000000E+01 0.  0.
    9000005    1    3    3    0    0  0.72099211235E+01 -0.43773186063E+02  0.22846242263E+02  0.49910174977E+02  0.10000000000E+01 0.  0.
<mgrwt>
<rscale>  0 0.12499879E+03</rscale>
<asrwt>0</asrwt>
<pdfrwt beam="1">  1        4 0.65680383E-02 0.12499879E+03</pdfrwt>
<pdfrwt beam="2">  1       -4 0.14076323E-01 0.12499879E+03</pdfrwt>
<totfact> 0.10255487E+04</totfact>
</mgrwt>
</event>
<event>
 5    1  0.3179758E-002  0.1249999E+03  0.7818608E-02  0.1235069E+00
          4   -1    0    0  501    0  0.00000000000E+00  0.00000000000E+00  0.78036459850E+02  0.78046793438E+02  0.12700000000E+01 0. -1.
         -4   -1    0    0    0  501 -0.00000000000E+00 -0.00000000000E+00 -0.50034981242E+02  0.50051096370E+02  0.12700000000E+01 0. -1.
         25    2    1    2    0    0  0.00000000000E+00  0.00000000000E+00  0.28001478608E+02  0.12809788981E+03  0.12499994628E+03 0.  0.
    9000005    1    3    3    0    0  0.34476134988E+02  0.47785253507E+02 -0.73288523685E+01  0.59386416069E+02  0.10000000000E+01 0.  0.
    9000005    1    3    3    0    0 -0.34476134988E+02 -0.47785253507E+02  0.35330330977E+02  0.68711473739E+02  0.10000000000E+01 0.  0.
<mgrwt>
<rscale>  0 0.12499995E+03</rscale>
<asrwt>0</asrwt>
<pdfrwt beam="1">  1        4 0.12007644E-01 0.12499995E+03</pdfrwt>
<pdfrwt beam="2">  1       -4 0.76997239E-02 0.12499995E+03</pdfrwt>
<totfact> 0.10385387E+04</totfact>
</mgrwt>
</event>
<event>
 5    1  0.3179758E-002  0.1250002E+03  0.7818608E-02  0.1235069E+00
         -4   -1    0    0    0  501 -0.00000000000E+00  0.00000000000E+00  0.15238056694E+02  0.15290888522E+02  0.12700000000E+01 0. -1.
          4   -1    0    0  501    0  0.00000000000E+00 -0.00000000000E+00 -0.25585121940E+03  0.25585437141E+03  0.12700000000E+01 0. -1.
         25    2    1    2    0    0  0.00000000000E+00  0.00000000000E+00 -0.24061316271E+03  0.27114525993E+03  0.12500023166E+03 0.  0.
    9000005    1    3    3    0    0 -0.35997169097E+02 -0.25291176316E+02 -0.24033474384E+02  0.50140279950E+02  0.10000000000E+01 0.  0.
    9000005    1    3    3    0    0  0.35997169097E+02  0.25291176316E+02 -0.21657968833E+03  0.22100497998E+03  0.10000000000E+01 0.  0.
<mgrwt>
<rscale>  0 0.12500023E+03</rscale>
<asrwt>0</asrwt>
<pdfrwt beam="2">  1        4 0.39366030E-01 0.12500023E+03</pdfrwt>
<pdfrwt beam="1">  1       -4 0.23486230E-02 0.12500023E+03</pdfrwt>
<totfact> 0.79366577E+03</totfact>
</mgrwt>
</event>
<event>
 5    1  0.3179758E-002  0.1249974E+03  0.7818608E-02  0.1235073E+00
          4   -1    0    0  501    0  0.00000000000E+00  0.00000000000E+00  0.36790081498E+03  0.36790300701E+03  0.12700000000E+01 0. -1.
         -4   -1    0    0    0  501 -0.00000000000E+00 -0.00000000000E+00 -0.10577013227E+02  0.10652985910E+02  0.12700000000E+01 0. -1.
         25    2    1    2    0    0  0.00000000000E+00  0.00000000000E+00  0.35732380176E+03  0.37855599292E+03  0.12499736186E+03 0.  0.
    9000005    1    3    3    0    0  0.14339216608E+02  0.60787886569E+02  0.18494548399E+03  0.19520915024E+03  0.10000000000E+01 0.  0.
    9000005    1    3    3    0    0 -0.14339216608E+02 -0.60787886569E+02  0.17237831776E+03  0.18334684268E+03  0.10000000000E+01 0.  0.
<mgrwt>
<rscale>  0 0.12499736E+03</rscale>
<asrwt>0</asrwt>
<pdfrwt beam="1">  1        4 0.56606150E-01 0.12499736E+03</pdfrwt>
<pdfrwt beam="2">  1       -4 0.16332451E-02 0.12499736E+03</pdfrwt>
<totfact> 0.66697098E+03</totfact>
</mgrwt>
</event>
<event>
 5    1  0.3179758E-002  0.1250050E+03  0.7818608E-02  0.1235061E+00
          4   -1    0    0  501    0  0.00000000000E+00  0.00000000000E+00  0.53569498358E+02  0.53584550519E+02  0.12700000000E+01 0.  1.
         -4   -1    0    0    0  501 -0.00000000000E+00 -0.00000000000E+00 -0.72894342886E+02  0.72905405320E+02  0.12700000000E+01 0.  1.
         25    2    1    2    0    0  0.00000000000E+00  0.00000000000E+00 -0.19324844529E+02  0.12648995584E+03  0.12500503715E+03 0.  0.
    9000005    1    3    3    0    0  0.93414644804E+01  0.61765408383E+02 -0.78141993435E+01  0.62962610672E+02  0.10000000000E+01 0.  0.
    9000005    1    3    3    0    0 -0.93414644804E+01 -0.61765408383E+02 -0.11510645185E+02  0.63527345166E+02  0.10000000000E+01 0.  0.
<mgrwt>
<rscale>  0 0.12500504E+03</rscale>
<asrwt>0</asrwt>
<pdfrwt beam="1">  1        4 0.82434700E-02 0.12500504E+03</pdfrwt>
<pdfrwt beam="2">  1       -4 0.11216523E-01 0.12500504E+03</pdfrwt>
<totfact> 0.10419062E+04</totfact>
</mgrwt>
</event>
<event>
 5    1  0.3179758E-002  0.1249999E+03  0.7818608E-02  0.1235069E+00
          4   -1    0    0  501    0  0.00000000000E+00  0.00000000000E+00  0.86959167887E+02  0.86968441285E+02  0.12700000000E+01 0. -1.
         -4   -1    0    0    0  501 -0.00000000000E+00 -0.00000000000E+00 -0.44899802008E+02  0.44917759520E+02  0.12700000000E+01 0. -1.
         25    2    1    2    0    0  0.00000000000E+00  0.00000000000E+00  0.42059365879E+02  0.13188620081E+03  0.12499991882E+03 0.  0.
    9000005    1    3    3    0    0  0.53647579145E+02 -0.28252276651E+02  0.36995783992E+02  0.71034793709E+02  0.10000000000E+01 0.  0.
    9000005    1    3    3    0    0 -0.53647579145E+02  0.28252276651E+02  0.50635818867E+01  0.60851407096E+02  0.10000000000E+01 0.  0.
<mgrwt>
<rscale>  0 0.12499992E+03</rscale>
<asrwt>0</asrwt>
<pdfrwt beam="1">  1        4 0.13380428E-01 0.12499992E+03</pdfrwt>
<pdfrwt beam="2">  1       -4 0.69097566E-02 0.12499992E+03</pdfrwt>
<totfact> 0.10304147E+04</totfact>
</mgrwt>
</event>
<event>
 5    1  0.3179758E-002  0.1249402E+03  0.7818608E-02  0.1235163E+00
          4   -1    0    0  501    0  0.00000000000E+00  0.00000000000E+00  0.12766431415E+04  0.12766437732E+04  0.12700000000E+01 0.  1.
         -4   -1    0    0    0  501 -0.00000000000E+00 -0.00000000000E+00 -0.29242850153E+01  0.31881566540E+01  0.12700000000E+01 0.  1.
         25    2    1    2    0    0  0.00000000000E+00  0.00000000000E+00  0.12737188565E+04  0.12798319299E+04  0.12494015887E+03 0.  0.
    9000005    1    3    3    0    0 -0.31591793227E+02  0.36810243076E+02  0.23376847940E+03  0.23875036619E+03  0.10000000000E+01 0.  0.
    9000005    1    3    3    0    0  0.31591793227E+02 -0.36810243076E+02  0.10399503771E+04  0.10410815637E+04  0.10000000000E+01 0.  0.
<mgrwt>
<rscale>  0 0.12494016E+03</rscale>
<asrwt>0</asrwt>
<pdfrwt beam="1">  1        4 0.19642681E+00 0.12494016E+03</pdfrwt>
<pdfrwt beam="2">  1       -4 0.47023684E-03 0.12494016E+03</pdfrwt>
<totfact> 0.22739289E+03</totfact>
</mgrwt>
</event>
<event>
 5    1  0.3179758E-002  0.1250026E+03  0.7818608E-02  0.1235065E+00
         -4   -1    0    0    0  501 -0.00000000000E+00  0.00000000000E+00  0.94944450962E+02  0.94952944496E+02  0.12700000000E+01 0. -1.
          4   -1    0    0  501    0  0.00000000000E+00 -0.00000000000E+00 -0.41124046704E+02  0.41143652211E+02  0.12700000000E+01 0. -1.
         25    2    1    2    0    0  0.00000000000E+00  0.00000000000E+00  0.53820404258E+02  0.13609659671E+03  0.12500259086E+03 0.  0.
    9000005    1    3    3    0    0 -0.28567356180E+02  0.11450526043E+02 -0.32306235487E+02  0.44630720778E+02  0.10000000000E+01 0.  0.
    9000005    1    3    3    0    0  0.28567356180E+02 -0.11450526043E+02  0.86126639745E+02  0.91465875930E+02  0.10000000000E+01 0.  0.
<mgrwt>
<rscale>  0 0.12500259E+03</rscale>
<asrwt>0</asrwt>
<pdfrwt beam="2">  1        4 0.63289379E-02 0.12500259E+03</pdfrwt>
<pdfrwt beam="1">  1       -4 0.14609000E-01 0.12500259E+03</pdfrwt>
<totfact> 0.10214412E+04</totfact>
</mgrwt>
</event>
<event>
 5    1  0.3179758E-002  0.1249934E+03  0.7818608E-02  0.1235080E+00
         -4   -1    0    0    0  501 -0.00000000000E+00  0.00000000000E+00  0.16353945295E+03  0.16354438410E+03  0.12700000000E+01 0. -1.
          4   -1    0    0  501    0  0.00000000000E+00 -0.00000000000E+00 -0.23860990070E+02  0.23894764010E+02  0.12700000000E+01 0. -1.
         25    2    1    2    0    0  0.00000000000E+00  0.00000000000E+00  0.13967846288E+03  0.18743914811E+03  0.12499344484E+03 0.  0.
    9000005    1    3    3    0    0 -0.35065439521E+02  0.33044112041E+01 -0.75655112808E+01  0.36038051323E+02  0.10000000000E+01 0.  0.
    9000005    1    3    3    0    0  0.35065439521E+02 -0.33044112041E+01  0.14724397416E+03  0.15140109678E+03  0.10000000000E+01 0.  0.
<mgrwt>
<rscale>  0 0.12499344E+03</rscale>
<asrwt>0</asrwt>
<pdfrwt beam="2">  1        4 0.36738987E-02 0.12499344E+03</pdfrwt>
<pdfrwt beam="1">  1       -4 0.25162894E-01 0.12499344E+03</pdfrwt>
<totfact> 0.92308368E+03</totfact>
</mgrwt>
</event>
<event>
 5    1  0.3179758E-002  0.1250045E+03  0.7818608E-02  0.1235062E+00
          4   -1    0    0  501    0  0.00000000000E+00  0.00000000000E+00  0.22467009449E+03  0.22467368394E+03  0.12700000000E+01 0. -1.
         -4   -1    0    0    0  501 -0.00000000000E+00 -0.00000000000E+00 -0.17360943307E+02  0.17407333297E+02  0.12700000000E+01 0. -1.
         25    2    1    2    0    0  0.00000000000E+00  0.00000000000E+00  0.20730915118E+03  0.24208101724E+03  0.12500453890E+03 0.  0.
    9000005    1    3    3    0    0  0.45016723183E+02  0.31698786599E+01  0.18737613369E+03  0.19273652734E+03  0.10000000000E+01 0.  0.
    9000005    1    3    3    0    0 -0.45016723183E+02 -0.31698786599E+01  0.19933017494E+02  0.49344489898E+02  0.10000000000E+01 0.  0.
<mgrwt>
<rscale>  0 0.12500454E+03</rscale>
<asrwt>0</asrwt>
<pdfrwt beam="1">  1        4 0.34568469E-01 0.12500454E+03</pdfrwt>
<pdfrwt beam="2">  1       -4 0.26747594E-02 0.12500454E+03</pdfrwt>
<totfact> 0.83479968E+03</totfact>
</mgrwt>
</event>
<event>
 5    1  0.3179758E-002  0.1250018E+03  0.7818608E-02  0.1235066E+00
          4   -1    0    0  501    0  0.00000000000E+00  0.00000000000E+00  0.42695007116E+02  0.42713891565E+02  0.12700000000E+01 0.  1.
         -4   -1    0    0    0  501 -0.00000000000E+00 -0.00000000000E+00 -0.91451060143E+02  0.91459878096E+02  0.12700000000E+01 0.  1.
         25    2    1    2    0    0  0.00000000000E+00  0.00000000000E+00 -0.48756053028E+02  0.13417376966E+03  0.12500179102E+03 0.  0.
    9000005    1    3    3    0    0 -0.36969748306E+02 -0.44087646957E+02 -0.50557789957E+02  0.76600085048E+02  0.10000000000E+01 0.  0.
    9000005    1    3    3    0    0  0.36969748306E+02  0.44087646957E+02  0.18017369294E+01  0.57573684613E+02  0.10000000000E+01 0.  0.
<mgrwt>
<rscale>  0 0.12500179E+03</rscale>
<asrwt>0</asrwt>
<pdfrwt beam="1">  1        4 0.65705936E-02 0.12500179E+03</pdfrwt>
<pdfrwt beam="2">  1       -4 0.14071525E-01 0.12500179E+03</pdfrwt>
<totfact> 0.10255101E+04</totfact>
</mgrwt>
</event>
<event>
 5    1  0.3179758E-002  0.1250029E+03  0.7818608E-02  0.1235065E+00
         -4   -1    0    0    0  501 -0.00000000000E+00  0.00000000000E+00  0.25685081328E+02  0.25716459764E+02  0.12700000000E+01 0. -1.
          4   -1    0    0  501    0  0.00000000000E+00 -0.00000000000E+00 -0.15196273621E+03  0.15196804301E+03  0.12700000000E+01 0. -1.
         25    2    1    2    0    0  0.00000000000E+00  0.00000000000E+00 -0.12627765488E+03  0.17768450278E+03  0.12500294558E+03 0.  0.
    9000005    1    3    3    0    0 -0.56623932258E+02  0.16236065825E+02 -0.33473401494E+02  0.67759487493E+02  0.10000000000E+01 0.  0.
    9000005    1    3    3    0    0  0.56623932258E+02 -0.16236065825E+02 -0.92804253391E+02  0.10992501528E+03  0.10000000000E+01 0.  0.
<mgrwt>
<rscale>  0 0.12500295E+03</rscale>
<asrwt>0</asrwt>
<pdfrwt beam="2">  1        4 0.23381704E-01 0.12500295E+03</pdfrwt>
<pdfrwt beam="1">  1       -4 0.39543730E-02 0.12500295E+03</pdfrwt>
<totfact> 0.94029257E+03</totfact>
</mgrwt>
</event>
<event>
 5    1  0.3179758E-002  0.1250251E+03  0.7818608E-02  0.1235030E+00
          4   -1    0    0  501    0  0.00000000000E+00  0.00000000000E+00  0.47200352967E+03  0.47200523824E+03  0.12700000000E+01 0. -1.
         -4   -1    0    0    0  501 -0.00000000000E+00 -0.00000000000E+00 -0.82287803566E+01  0.83262071892E+01  0.12700000000E+01 0. -1.
         25    2    1    2    0    0  0.00000000000E+00  0.00000000000E+00  0.46377474931E+03  0.48033144543E+03  0.12502511493E+03 0.  0.
    9000005    1    3    3    0    0 -0.23413951170E+02 -0.48001523159E+02  0.10713210027E+03  0.11971067723E+03  0.10000000000E+01 0.  0.
    9000005    1    3    3    0    0  0.23413951170E+02  0.48001523159E+02  0.35664264905E+03  0.36062076820E+03  0.10000000000E+01 0.  0.
<mgrwt>
<rscale>  0 0.12502511E+03</rscale>
<asrwt>0</asrwt>
<pdfrwt beam="1">  1        4 0.72623536E-01 0.12502511E+03</pdfrwt>
<pdfrwt beam="2">  1       -4 0.12735923E-02 0.12502511E+03</pdfrwt>
<totfact> 0.57391650E+03</totfact>
</mgrwt>
</event>
<event>
 5    1  0.3179758E-002  0.1249954E+03  0.7818608E-02  0.1235076E+00
          4   -1    0    0  501    0  0.00000000000E+00  0.00000000000E+00  0.30041535908E+03  0.30041804352E+03  0.12700000000E+01 0. -1.
         -4   -1    0    0    0  501 -0.00000000000E+00 -0.00000000000E+00 -0.12968117224E+02  0.13030155960E+02  0.12700000000E+01 0. -1.
         25    2    1    2    0    0  0.00000000000E+00  0.00000000000E+00  0.28744724186E+03  0.31344819948E+03  0.12499542754E+03 0.  0.
    9000005    1    3    3    0    0  0.24252611229E+02 -0.38819915380E+02  0.37042970569E+02  0.58892755497E+02  0.10000000000E+01 0.  0.
    9000005    1    3    3    0    0 -0.24252611229E+02  0.38819915380E+02  0.25040427129E+03  0.25455544398E+03  0.10000000000E+01 0.  0.
<mgrwt>
<rscale>  0 0.12499543E+03</rscale>
<asrwt>0</asrwt>
<pdfrwt beam="1">  1        4 0.46222724E-01 0.12499543E+03</pdfrwt>
<pdfrwt beam="2">  1       -4 0.20000738E-02 0.12499543E+03</pdfrwt>
<totfact> 0.73949710E+03</totfact>
</mgrwt>
</event>
<event>
 5    1  0.3179758E-002  0.1250004E+03  0.7818608E-02  0.1235069E+00
          4   -1    0    0  501    0  0.00000000000E+00  0.00000000000E+00  0.10156601917E+02  0.10235695506E+02  0.12700000000E+01 0.  1.
         -4   -1    0    0    0  501 -0.00000000000E+00 -0.00000000000E+00 -0.38303239854E+03  0.38303450397E+03  0.12700000000E+01 0.  1.
         25    2    1    2    0    0  0.00000000000E+00  0.00000000000E+00 -0.37287579662E+03  0.39327019948E+03  0.12500036035E+03 0.  0.
    9000005    1    3    3    0    0 -0.56570090358E+02  0.24371071348E+02 -0.15326899231E+03  0.16518628347E+03  0.10000000000E+01 0.  0.
    9000005    1    3    3    0    0  0.56570090358E+02 -0.24371071348E+02 -0.21960680431E+03  0.22808391601E+03  0.10000000000E+01 0.  0.
<mgrwt>
<rscale>  0 0.12500036E+03</rscale>
<asrwt>0</asrwt>
<pdfrwt beam="1">  1        4 0.15688005E-02 0.12500036E+03</pdfrwt>
<pdfrwt beam="2">  1       -4 0.58934296E-01 0.12500036E+03</pdfrwt>
<totfact> 0.65212113E+03</totfact>
</mgrwt>
</event>
<event>
 5    1  0.3179758E-002  0.1250015E+03  0.7818608E-02  0.1235067E+00
          4   -1    0    0  501    0  0.00000000000E+00  0.00000000000E+00  0.69910779726E+02  0.69922314192E+02  0.12700000000E+01 0.  1.
         -4   -1    0    0    0  501 -0.00000000000E+00 -0.00000000000E+00 -0.55852760336E+02  0.55867197327E+02  0.12700000000E+01 0.  1.
         25    2    1    2    0    0  0.00000000000E+00  0.00000000000E+00  0.14058019390E+02  0.12578951152E+03  0.12500149319E+03 0.  0.
    9000005    1    3    3    0    0  0.38577045704E+02  0.38295883527E+02  0.38054853795E+02  0.66362150717E+02  0.10000000000E+01 0.  0.
    9000005    1    3    3    0    0 -0.38577045704E+02 -0.38295883527E+02 -0.23996834405E+02  0.59427360802E+02  0.10000000000E+01 0.  0.
<mgrwt>
<rscale>  0 0.12500149E+03</rscale>
<asrwt>0</asrwt>
<pdfrwt beam="1">  1        4 0.10757502E-01 0.12500149E+03</pdfrwt>
<pdfrwt beam="2">  1       -4 0.85947302E-02 0.12500149E+03</pdfrwt>
<totfact> 0.10435224E+04</totfact>
</mgrwt>
</event>
<event>
 5    1  0.3179758E-002  0.1250016E+03  0.7818608E-02  0.1235067E+00
          4   -1    0    0  501    0  0.00000000000E+00  0.00000000000E+00  0.43828850711E+02  0.43847246831E+02  0.12700000000E+01 0.  1.
         -4   -1    0    0    0  501 -0.00000000000E+00 -0.00000000000E+00 -0.89085731891E+02  0.89094783947E+02  0.12700000000E+01 0.  1.
         25    2    1    2    0    0  0.00000000000E+00  0.00000000000E+00 -0.45256881180E+02  0.13294203078E+03  0.12500159300E+03 0.  0.
    9000005    1    3    3    0    0 -0.21005906396E+02 -0.49128766285E+02  0.11841276290E+02  0.54736638593E+02  0.10000000000E+01 0.  0.
    9000005    1    3    3    0    0  0.21005906396E+02  0.49128766285E+02 -0.57098157471E+02  0.78205392185E+02  0.10000000000E+01 0.  0.
<mgrwt>
<rscale>  0 0.12500159E+03</rscale>
<asrwt>0</asrwt>
<pdfrwt beam="1">  1        4 0.67450115E-02 0.12500159E+03</pdfrwt>
<pdfrwt beam="2">  1       -4 0.13707609E-01 0.12500159E+03</pdfrwt>
<totfact> 0.10281263E+04</totfact>
</mgrwt>
</event>
<event>
 5    1  0.3179758E-002  0.1250015E+03  0.7818608E-02  0.1235067E+00
         -4   -1    0    0    0  501 -0.00000000000E+00  0.00000000000E+00  0.51175944425E+03  0.51176102008E+03  0.12700000000E+01 0.  1.
          4   -1    0    0  501    0  0.00000000000E+00 -0.00000000000E+00 -0.75787349770E+01  0.76844078401E+01  0.12700000000E+01 0.  1.
         25    2    1    2    0    0  0.00000000000E+00  0.00000000000E+00  0.50418070927E+03  0.51944542792E+03  0.12500145995E+03 0.  0.
    9000005    1    3    3    0    0  0.61341773813E+01 -0.60010672466E+02  0.18426090643E+03  0.19388654048E+03  0.10000000000E+01 0.  0.
    9000005    1    3    3    0    0 -0.61341773813E+01  0.60010672466E+02  0.31991980284E+03  0.32555888744E+03  0.10000000000E+01 0.  0.
<mgrwt>
<rscale>  0 0.12500146E+03</rscale>
<asrwt>0</asrwt>
<pdfrwt beam="2">  1        4 0.11742089E-02 0.12500146E+03</pdfrwt>
<pdfrwt beam="1">  1       -4 0.78740486E-01 0.12500146E+03</pdfrwt>
<totfact> 0.54384834E+03</totfact>
</mgrwt>
</event>
<event>
 5    1  0.3179758E-002  0.1249997E+03  0.7818608E-02  0.1235070E+00
          4   -1    0    0  501    0  0.00000000000E+00  0.00000000000E+00  0.52514717615E+02  0.52530072017E+02  0.12700000000E+01 0. -1.
         -4   -1    0    0    0  501 -0.00000000000E+00 -0.00000000000E+00 -0.74351905465E+02  0.74362751067E+02  0.12700000000E+01 0. -1.
         25    2    1    2    0    0  0.00000000000E+00  0.00000000000E+00 -0.21837187850E+02  0.12689282308E+03  0.12499970311E+03 0.  0.
    9000005    1    3    3    0    0 -0.37884245915E+02  0.23918893186E+00 -0.61369953592E+02  0.72128666311E+02  0.10000000000E+01 0.  0.
    9000005    1    3    3    0    0  0.37884245915E+02 -0.23918893186E+00  0.39532765742E+02  0.54764156774E+02  0.10000000000E+01 0.  0.
<mgrwt>
<rscale>  0 0.12499970E+03</rscale>
<asrwt>0</asrwt>
<pdfrwt beam="1">  1        4 0.80812027E-02 0.12499970E+03</pdfrwt>
<pdfrwt beam="2">  1       -4 0.11440770E-01 0.12499970E+03</pdfrwt>
<totfact> 0.10411545E+04</totfact>
</mgrwt>
</event>
<event>
 5    1  0.3179758E-002  0.1250012E+03  0.7818608E-02  0.1235067E+00
          4   -1    0    0  501    0  0.00000000000E+00  0.00000000000E+00  0.11317418479E+04  0.11317425605E+04  0.12700000000E+01 0.  1.
         -4   -1    0    0    0  501 -0.00000000000E+00 -0.00000000000E+00 -0.33340438736E+01  0.35677371752E+01  0.12700000000E+01 0.  1.
         25    2    1    2    0    0  0.00000000000E+00  0.00000000000E+00  0.11284078041E+04  0.11353102977E+04  0.12500119904E+03 0.  0.
    9000005    1    3    3    0    0  0.16379085886E+02  0.47312594293E+02  0.22454552305E+03  0.23006183507E+03  0.10000000000E+01 0.  0.
    9000005    1    3    3    0    0 -0.16379085886E+02 -0.47312594293E+02  0.90386228102E+03  0.90524846262E+03  0.10000000000E+01 0.  0.
<mgrwt>
<rscale>  0 0.12500120E+03</rscale>
<asrwt>0</asrwt>
<pdfrwt beam="1">  1        4 0.17413211E+00 0.12500120E+03</pdfrwt>
<pdfrwt beam="2">  1       -4 0.53096120E-03 0.12500120E+03</pdfrwt>
<totfact> 0.26470674E+03</totfact>
</mgrwt>
</event>
<event>
 5    1  0.3179758E-002  0.1250397E+03  0.7818608E-02  0.1235007E+00
          4   -1    0    0  501    0  0.00000000000E+00  0.00000000000E+00  0.41421628785E+02  0.41441093509E+02  0.12700000000E+01 0.  1.
         -4   -1    0    0    0  501 -0.00000000000E+00 -0.00000000000E+00 -0.94318563349E+02  0.94327113240E+02  0.12700000000E+01 0.  1.
         25    2    1    2    0    0  0.00000000000E+00  0.00000000000E+00 -0.52896934564E+02  0.13576820675E+03  0.12503967481E+03 0.  0.
    9000005    1    3    3    0    0  0.92525803251E+01 -0.54898182803E+02  0.44217046221E+01  0.55856711231E+02  0.10000000000E+01 0.  0.
    9000005    1    3    3    0    0 -0.92525803251E+01  0.54898182803E+02 -0.57318639186E+02  0.79911495518E+02  0.10000000000E+01 0.  0.
<mgrwt>
<rscale>  0 0.12503967E+03</rscale>
<asrwt>0</asrwt>
<pdfrwt beam="1">  1        4 0.63747133E-02 0.12503967E+03</pdfrwt>
<pdfrwt beam="2">  1       -4 0.14512703E-01 0.12503967E+03</pdfrwt>
<totfact> 0.10212764E+04</totfact>
</mgrwt>
</event>
<event>
 5    1  0.3179758E-002  0.1250014E+03  0.7818608E-02  0.1235067E+00
          4   -1    0    0  501    0  0.00000000000E+00  0.00000000000E+00  0.33836572774E+03  0.33836811110E+03  0.12700000000E+01 0.  1.
         -4   -1    0    0    0  501 -0.00000000000E+00 -0.00000000000E+00 -0.11507362381E+02  0.11577231490E+02  0.12700000000E+01 0.  1.
         25    2    1    2    0    0  0.00000000000E+00  0.00000000000E+00  0.32685836535E+03  0.34994534259E+03  0.12500140717E+03 0.  0.
    9000005    1    3    3    0    0  0.59405759112E+02  0.17856263685E+02  0.18464800060E+03  0.19479161813E+03  0.10000000000E+01 0.  0.
    9000005    1    3    3    0    0 -0.59405759112E+02 -0.17856263685E+02  0.14221036475E+03  0.15515372445E+03  0.10000000000E+01 0.  0.
<mgrwt>
<rscale>  0 0.12500141E+03</rscale>
<asrwt>0</asrwt>
<pdfrwt beam="1">  1        4 0.52061828E-01 0.12500141E+03</pdfrwt>
<pdfrwt beam="2">  1       -4 0.17759212E-02 0.12500141E+03</pdfrwt>
<totfact> 0.69728393E+03</totfact>
</mgrwt>
</event>
<event>
 5    1  0.3179758E-002  0.1249999E+03  0.7818608E-02  0.1235069E+00
         -4   -1    0    0    0  501 -0.00000000000E+00  0.00000000000E+00  0.80362049572E+02  0.80372084155E+02  0.12700000000E+01 0. -1.
          4   -1    0    0  501    0  0.00000000000E+00 -0.00000000000E+00 -0.48586701736E+02  0.48603297065E+02  0.12700000000E+01 0. -1.
         25    2    1    2    0    0  0.00000000000E+00  0.00000000000E+00  0.31775347837E+02  0.12897538122E+03  0.12499990492E+03 0.  0.
    9000005    1    3    3    0    0 -0.43554613352E+02 -0.19921468556E+02 -0.25530926723E+02  0.54283491717E+02  0.10000000000E+01 0.  0.
    9000005    1    3    3    0    0  0.43554613352E+02  0.19921468556E+02  0.57306274560E+02  0.74691889503E+02  0.10000000000E+01 0.  0.
<mgrwt>
<rscale>  0 0.12499990E+03</rscale>
<asrwt>0</asrwt>
<pdfrwt beam="2">  1        4 0.74769257E-02 0.12499990E+03</pdfrwt>
<pdfrwt beam="1">  1       -4 0.12365441E-01 0.12499990E+03</pdfrwt>
<totfact> 0.10366498E+04</totfact>
</mgrwt>
</event>
<event>
 5    1  0.3179758E-002  0.1250028E+03  0.7818608E-02  0.1235065E+00
         -4   -1    0    0    0  501 -0.00000000000E+00  0.00000000000E+00  0.57612792037E+03  0.57612932015E+03  0.12700000000E+01 0. -1.
          4   -1    0    0  501    0  0.00000000000E+00 -0.00000000000E+00 -0.67195892110E+01  0.68385509550E+01  0.12700000000E+01 0. -1.
         25    2    1    2    0    0  0.00000000000E+00  0.00000000000E+00  0.56940833116E+03  0.58296787110E+03  0.12500276453E+03 0.  0.
    9000005    1    3    3    0    0  0.26313581492E+02 -0.53707190003E+01  0.54786628204E+03  0.54852503333E+03  0.10000000000E+01 0.  0.
    9000005    1    3    3    0    0 -0.26313581492E+02  0.53707190003E+01  0.21542049125E+02  0.34442837775E+02  0.10000000000E+01 0.  0.
<mgrwt>
<rscale>  0 0.12500276E+03</rscale>
<asrwt>0</asrwt>
<pdfrwt beam="2">  1        4 0.10430413E-02 0.12500276E+03</pdfrwt>
<pdfrwt beam="1">  1       -4 0.88644342E-01 0.12500276E+03</pdfrwt>
<totfact> 0.49957646E+03</totfact>
</mgrwt>
</event>
