<event>
 5    1  0.3191162E-002  0.1249985E+03  0.7818608E-02  0.1235072E+00
          4   -1    0    0  501    0  0.00000000000E+00  0.00000000000E+00  0.12954342057E+03  0.12954964575E+03  0.12700000000E+01 0. -1.
         -4   -1    0    0    0  501 -0.00000000000E+00 -0.00000000000E+00 -0.30132943082E+02  0.30159694275E+02  0.12700000000E+01 0. -1.
         25    2    1    2    0    0  0.00000000000E+00  0.00000000000E+00  0.99410477489E+02  0.15970934002E+03  0.12499852101E+03 0.  0.
    9000005    1    3    3    0    0  0.20686383370E+02  0.47459156695E+02  0.49886580414E+01  0.52021002683E+02  0.10000000000E+01 0.  0.
    9000005    1    3    3    0    0 -0.20686383370E+02 -0.47459156695E+02  0.94421819448E+02  0.10768833734E+03  0.10000000000E+01 0.  0.
<mgrwt>
<rscale>  0 0.12499852E+03</rscale>
<asrwt>0</asrwt>
<pdfrwt beam="1">  1        4 0.19932294E-01 0.12499852E+03</pdfrwt>
<pdfrwt beam="2">  1       -4 0.46383740E-02 0.12499852E+03</pdfrwt>
<totfact> 0.97402089E+03</totfact>
</mgrwt>
</event>
<event>
 5    1  0.3191162E-002  0.1249990E+03  0.7818608E-02  0.1235071E+00
         -4   -1    0    0    0  501 -0.00000000000E+00  0.00000000000E+00  0.12026943849E+02  0.12093811572E+02  0.12700000000E+01 0.  1.
          4   -1    0    0  501    0  0.00000000000E+00 -0.00000000000E+00 -0.32381813127E+03  0.32382062170E+03  0.12700000000E+01 0.  1.
         25    2    1    2    0    0  0.00000000000E+00  0.00000000000E+00 -0.31179118742E+03  0.33591443327E+03  0.12499904771E+03 0.  0.
    9000005    1    3    3    0    0  0.28890622107E+02  0.54738736200E+02 -0.17904308869E+03  0.18944240522E+03  0.10000000000E+01 0.  0.
    9000005    1    3    3    0    0 -0.28890622107E+02 -0.54738736200E+02 -0.13274809873E+03  0.14647202805E+03  0.10000000000E+01 0.  0.
<mgrwt>
<rscale>  0 0.12499905E+03</rscale>
<asrwt>0</asrwt>
<pdfrwt beam="2">  1        4 0.49823503E-01 0.12499905E+03</pdfrwt>
<pdfrwt beam="1">  1       -4 0.18556345E-02 0.12499905E+03</pdfrwt>
<totfact> 0.71303960E+03</totfact>
</mgrwt>
</event>
<event>
 5    1  0.3191162E-002  0.1250000E+03  0.7818608E-02  0.1235069E+00
         -4   -1    0    0    0  501 -0.00000000000E+00  0.00000000000E+00  0.85625049241E+02  0.85634467112E+02  0.12700000000E+01 0.  1.
          4   -1    0    0  501    0  0.00000000000E+00 -0.00000000000E+00 -0.45599664239E+02  0.45617346248E+02  0.12700000000E+01 0.  1.
         25    2    1    2    0    0  0.00000000000E+00  0.00000000000E+00  0.40025385001E+02  0.13125181336E+03  0.12500002826E+03 0.  0.
    9000005    1    3    3    0    0 -0.43514220644E+02 -0.37087348307E+02 -0.64737579928E+01  0.57548834439E+02  0.10000000000E+01 0.  0.
    9000005    1    3    3    0    0  0.43514220644E+02  0.37087348307E+02  0.46499142994E+02  0.73702978921E+02  0.10000000000E+01 0.  0.
<mgrwt>
<rscale>  0 0.12500003E+03</rscale>
<asrwt>0</asrwt>
<pdfrwt beam="2">  1        4 0.70174175E-02 0.12500003E+03</pdfrwt>
<pdfrwt beam="1">  1       -4 0.13175169E-01 0.12500003E+03</pdfrwt>
<totfact> 0.10317687E+04</totfact>
</mgrwt>
</event>
<event>
 5    1  0.3191162E-002  0.1249945E+03  0.7818608E-02  0.1235078E+00
          4   -1    0    0  501    0  0.00000000000E+00  0.00000000000E+00  0.39890204561E+02  0.39910416184E+02  0.12700000000E+01 0. -1.
         -4   -1    0    0    0  501 -0.00000000000E+00 -0.00000000000E+00 -0.97867230727E+02  0.97875470626E+02  0.12700000000E+01 0. -1.
         25    2    1    2    0    0  0.00000000000E+00  0.00000000000E+00 -0.57977026166E+02  0.13778588681E+03  0.12499446004E+03 0.  0.
    9000005    1    3    3    0    0 -0.14120766849E+02 -0.35246935754E+02 -0.83697716392E+02  0.91913275785E+02  0.10000000000E+01 0.  0.
    9000005    1    3    3    0    0  0.14120766849E+02  0.35246935754E+02  0.25720690226E+02  0.45872611024E+02  0.10000000000E+01 0.  0.
<mgrwt>
<rscale>  0 0.12499446E+03</rscale>
<asrwt>0</asrwt>
<pdfrwt beam="1">  1        4 0.61391432E-02 0.12499446E+03</pdfrwt>
<pdfrwt beam="2">  1       -4 0.15058686E-01 0.12499446E+03</pdfrwt>
<totfact> 0.10180951E+04</totfact>
</mgrwt>
</event>
<event>
 5    1  0.3191162E-002  0.1249989E+03  0.7818608E-02  0.1235071E+00
          4   -1    0    0  501    0  0.00000000000E+00  0.00000000000E+00  0.68517379958E+01  0.69684441279E+01  0.12700000000E+01 0. -1.
         -4   -1    0    0    0  501 -0.00000000000E+00 -0.00000000000E+00 -0.56516950204E+03  0.56517092895E+03  0.12700000000E+01 0. -1.
         25    2    1    2    0    0  0.00000000000E+00  0.00000000000E+00 -0.55831776404E+03  0.57213937308E+03  0.12499894633E+03 0.  0.
    9000005    1    3    3    0    0 -0.31681824919E+02  0.40862124228E+02 -0.43979890510E+03  0.44282900555E+03  0.10000000000E+01 0.  0.
    9000005    1    3    3    0    0  0.31681824919E+02 -0.40862124228E+02 -0.11851885894E+03  0.12931036753E+03  0.10000000000E+01 0.  0.
<mgrwt>
<rscale>  0 0.12499895E+03</rscale>
<asrwt>0</asrwt>
<pdfrwt beam="1">  1        4 0.10632011E-02 0.12499895E+03</pdfrwt>
<pdfrwt beam="2">  1       -4 0.86958205E-01 0.12499895E+03</pdfrwt>
<totfact> 0.50676028E+03</totfact>
</mgrwt>
</event>
<event>
 5    1  0.3191162E-002  0.1250041E+03  0.7818608E-02  0.1235063E+00
          4   -1    0    0  501    0  0.00000000000E+00  0.00000000000E+00  0.12510832135E+04  0.12510838581E+04  0.12700000000E+01 0.  1.
         -4   -1    0    0    0  501 -0.00000000000E+00 -0.00000000000E+00 -0.29926891184E+01  0.32510134050E+01  0.12700000000E+01 0.  1.
         25    2    1    2    0    0  0.00000000000E+00  0.00000000000E+00  0.12480905244E+04  0.12543348715E+04  0.12500405124E+03 0.  0.
    9000005    1    3    3    0    0  0.58703494110E+02  0.21094406599E+02  0.66216127485E+03  0.66509369875E+03  0.10000000000E+01 0.  0.
    9000005    1    3    3    0    0 -0.58703494110E+02 -0.21094406599E+02  0.58592924954E+03  0.58924117276E+03  0.10000000000E+01 0.  0.
<mgrwt>
<rscale>  0 0.12500405E+03</rscale>
<asrwt>0</asrwt>
<pdfrwt beam="1">  1        4 0.19249447E+00 0.12500405E+03</pdfrwt>
<pdfrwt beam="2">  1       -4 0.48033387E-03 0.12500405E+03</pdfrwt>
<totfact> 0.23330494E+03</totfact>
</mgrwt>
</event>
<event>
 4    1  0.3191162E-002  0.1249235E+03  0.7818608E-02  0.1235189E+00
         -4   -1    0    0    0  501 -0.00000000000E+00  0.00000000000E+00  0.16532057562E+02  0.16580766787E+02  0.12700000000E+01 0. -1.
          4   -1    0    0  501    0  0.00000000000E+00 -0.00000000000E+00 -0.23559657022E+03  0.23559999321E+03  0.12700000000E+01 0. -1.
    9000005    1    1    2    0    0  0.51489862729E+02  0.23930272916E+02 -0.57023052590E+02  0.80476657811E+02  0.10000000000E+01 0.  0.
    9000005    1    1    2    0    0 -0.51489862729E+02 -0.23930272916E+02 -0.16204146007E+03  0.17170410218E+03  0.10000000000E+01 0.  0.
<mgrwt>
<rscale>  0 0.12492348E+03</rscale>
<asrwt>0</asrwt>
<pdfrwt beam="2">  1        4 0.36249634E-01 0.12492348E+03</pdfrwt>
<pdfrwt beam="1">  1       -4 0.25474038E-02 0.12492348E+03</pdfrwt>
<totfact> 0.82156003E+03</totfact>
</mgrwt>
</event>
<event>
 5    1  0.3191162E-002  0.1249997E+03  0.7818608E-02  0.1235070E+00
         -4   -1    0    0    0  501 -0.00000000000E+00  0.00000000000E+00  0.17575607558E+03  0.17576066398E+03  0.12700000000E+01 0. -1.
          4   -1    0    0  501    0  0.00000000000E+00 -0.00000000000E+00 -0.22202270586E+02  0.22238563784E+02  0.12700000000E+01 0. -1.
         25    2    1    2    0    0  0.00000000000E+00  0.00000000000E+00  0.15355380499E+03  0.19799922776E+03  0.12499969267E+03 0.  0.
    9000005    1    3    3    0    0 -0.51221236718E+01 -0.62247865473E+02  0.73531490600E+02  0.96482708382E+02  0.10000000000E+01 0.  0.
    9000005    1    3    3    0    0  0.51221236718E+01  0.62247865473E+02  0.80022314392E+02  0.10151651938E+03  0.10000000000E+01 0.  0.
<mgrwt>
<rscale>  0 0.12499969E+03</rscale>
<asrwt>0</asrwt>
<pdfrwt beam="2">  1        4 0.34188786E-02 0.12499969E+03</pdfrwt>
<pdfrwt beam="1">  1       -4 0.27042542E-01 0.12499969E+03</pdfrwt>
<totfact> 0.90474424E+03</totfact>
</mgrwt>
</event>
<event>
 5    1  0.3191162E-002  0.1249987E+03  0.7818608E-02  0.1235071E+00
          4   -1    0    0  501    0  0.00000000000E+00  0.00000000000E+00  0.39395799351E+01  0.41392257809E+01  0.12700000000E+01 0.  1.
         -4   -1    0    0    0  501 -0.00000000000E+00 -0.00000000000E+00 -0.96681673527E+03  0.96681756940E+03  0.12700000000E+01 0.  1.
         25    2    1    2    0    0  0.00000000000E+00  0.00000000000E+00 -0.96287715534E+03  0.97095679518E+03  0.12499872735E+03 0.  0.
    9000005    1    3    3    0    0 -0.28055726773E+02  0.55321820637E+02 -0.54036225897E+03  0.54391175622E+03  0.10000000000E+01 0.  0.
    9000005    1    3    3    0    0  0.28055726773E+02 -0.55321820637E+02 -0.42251489637E+03  0.42704503896E+03  0.10000000000E+01 0.  0.
<mgrwt>
<rscale>  0 0.12499873E+03</rscale>
<asrwt>0</asrwt>
<pdfrwt beam="1">  1        4 0.62151153E-03 0.12499873E+03</pdfrwt>
<pdfrwt beam="2">  1       -4 0.14875627E+00 0.12499873E+03</pdfrwt>
<totfact> 0.31584331E+03</totfact>
</mgrwt>
</event>
<event>
 5    1  0.3191162E-002  0.1250523E+03  0.7818608E-02  0.1234988E+00
         -4   -1    0    0    0  501 -0.00000000000E+00  0.00000000000E+00  0.23790320087E+03  0.23790659067E+03  0.12700000000E+01 0. -1.
          4   -1    0    0  501    0  0.00000000000E+00 -0.00000000000E+00 -0.16405188545E+02  0.16454273341E+02  0.12700000000E+01 0. -1.
         25    2    1    2    0    0  0.00000000000E+00  0.00000000000E+00  0.22149801232E+03  0.25436086401E+03  0.12505230776E+03 0.  0.
    9000005    1    3    3    0    0 -0.34478454113E+02 -0.45859222557E+02  0.16126062285E+03  0.17116606140E+03  0.10000000000E+01 0.  0.
    9000005    1    3    3    0    0  0.34478454113E+02  0.45859222557E+02  0.60237389474E+02  0.83194802615E+02  0.10000000000E+01 0.  0.
<mgrwt>
<rscale>  0 0.12505231E+03</rscale>
<asrwt>0</asrwt>
<pdfrwt beam="2">  1        4 0.25279118E-02 0.12505231E+03</pdfrwt>
<pdfrwt beam="1">  1       -4 0.36604527E-01 0.12505231E+03</pdfrwt>
<totfact> 0.81608905E+03</totfact>
</mgrwt>
</event>
<event>
 5    1  0.3191162E-002  0.1250058E+03  0.7818608E-02  0.1235060E+00
         -4   -1    0    0    0  501 -0.00000000000E+00  0.00000000000E+00  0.35779910731E+03  0.35780136122E+03  0.12700000000E+01 0.  1.
          4   -1    0    0  501    0  0.00000000000E+00 -0.00000000000E+00 -0.10879233290E+02  0.10953109923E+02  0.12700000000E+01 0.  1.
         25    2    1    2    0    0  0.00000000000E+00  0.00000000000E+00  0.34691987402E+03  0.36875447114E+03  0.12500584386E+03 0.  0.
    9000005    1    3    3    0    0  0.36508279606E+02  0.48791822527E+02  0.13257230692E+03  0.14591063357E+03  0.10000000000E+01 0.  0.
    9000005    1    3    3    0    0 -0.36508279606E+02 -0.48791822527E+02  0.21434756710E+03  0.22284383758E+03  0.10000000000E+01 0.  0.
<mgrwt>
<rscale>  0 0.12500584E+03</rscale>
<asrwt>0</asrwt>
<pdfrwt beam="2">  1        4 0.16795841E-02 0.12500584E+03</pdfrwt>
<pdfrwt beam="1">  1       -4 0.55051882E-01 0.12500584E+03</pdfrwt>
<totfact> 0.67700688E+03</totfact>
</mgrwt>
</event>
<event>
 5    1  0.3191162E-002  0.1249971E+03  0.7818608E-02  0.1235074E+00
         -4   -1    0    0    0  501 -0.00000000000E+00  0.00000000000E+00  0.87362334016E+02  0.87371564624E+02  0.12700000000E+01 0.  1.
          4   -1    0    0  501    0  0.00000000000E+00 -0.00000000000E+00 -0.44690530479E+02  0.44708572047E+02  0.12700000000E+01 0.  1.
         25    2    1    2    0    0  0.00000000000E+00  0.00000000000E+00  0.42671803537E+02  0.13208013667E+03  0.12499711871E+03 0.  0.
    9000005    1    3    3    0    0 -0.53048110689E+02 -0.31941320385E+02  0.30221944670E+02  0.68910927546E+02  0.10000000000E+01 0.  0.
    9000005    1    3    3    0    0  0.53048110689E+02  0.31941320385E+02  0.12449858868E+02  0.63169209125E+02  0.10000000000E+01 0.  0.
<mgrwt>
<rscale>  0 0.12499712E+03</rscale>
<asrwt>0</asrwt>
<pdfrwt beam="2">  1        4 0.68775642E-02 0.12499712E+03</pdfrwt>
<pdfrwt beam="1">  1       -4 0.13442457E-01 0.12499712E+03</pdfrwt>
<totfact> 0.10300658E+04</totfact>
</mgrwt>
</event>
<event>
 5    1  0.3191162E-002  0.1249996E+03  0.7818608E-02  0.1235070E+00
          4   -1    0    0  501    0  0.00000000000E+00  0.00000000000E+00  0.33052774261E+02  0.33077164122E+02  0.12700000000E+01 0.  1.
         -4   -1    0    0    0  501 -0.00000000000E+00 -0.00000000000E+00 -0.11811005933E+03  0.11811688709E+03  0.12700000000E+01 0.  1.
         25    2    1    2    0    0  0.00000000000E+00  0.00000000000E+00 -0.85057285069E+02  0.15119405121E+03  0.12499959751E+03 0.  0.
    9000005    1    3    3    0    0  0.30077215110E+02  0.51137154888E+02 -0.66279640105E+02  0.88958631798E+02  0.10000000000E+01 0.  0.
    9000005    1    3    3    0    0 -0.30077215110E+02 -0.51137154888E+02 -0.18777644963E+02  0.62235419411E+02  0.10000000000E+01 0.  0.
<mgrwt>
<rscale>  0 0.12499960E+03</rscale>
<asrwt>0</asrwt>
<pdfrwt beam="1">  1        4 0.50874436E-02 0.12499960E+03</pdfrwt>
<pdfrwt beam="2">  1       -4 0.18173180E-01 0.12499960E+03</pdfrwt>
<totfact> 0.99067110E+03</totfact>
</mgrwt>
</event>
<event>
 5    1  0.3191162E-002  0.1250046E+03  0.7818608E-02  0.1235062E+00
          4   -1    0    0  501    0  0.00000000000E+00  0.00000000000E+00  0.92460095376E+02  0.92468817106E+02  0.12700000000E+01 0. -1.
         -4   -1    0    0    0  501 -0.00000000000E+00 -0.00000000000E+00 -0.42230826368E+02  0.42249918292E+02  0.12700000000E+01 0. -1.
         25    2    1    2    0    0  0.00000000000E+00  0.00000000000E+00  0.50229269008E+02  0.13471873540E+03  0.12500463272E+03 0.  0.
    9000005    1    3    3    0    0 -0.19343386325E+02  0.59007583161E+02  0.32695317442E+02  0.70185790924E+02  0.10000000000E+01 0.  0.
    9000005    1    3    3    0    0  0.19343386325E+02 -0.59007583161E+02  0.17533951567E+02  0.64532944474E+02  0.10000000000E+01 0.  0.
<mgrwt>
<rscale>  0 0.12500463E+03</rscale>
<asrwt>0</asrwt>
<pdfrwt beam="1">  1        4 0.14226770E-01 0.12500463E+03</pdfrwt>
<pdfrwt beam="2">  1       -4 0.64991897E-02 0.12500463E+03</pdfrwt>
<totfact> 0.10242932E+04</totfact>
</mgrwt>
</event>
<event>
 5    1  0.3191162E-002  0.1250034E+03  0.7818608E-02  0.1235064E+00
         -4   -1    0    0    0  501 -0.00000000000E+00  0.00000000000E+00  0.21961658939E+02  0.21998349106E+02  0.12700000000E+01 0. -1.
          4   -1    0    0  501    0  0.00000000000E+00 -0.00000000000E+00 -0.17768901037E+03  0.17769354886E+03  0.12700000000E+01 0. -1.
         25    2    1    2    0    0  0.00000000000E+00  0.00000000000E+00 -0.15572735143E+03  0.19969189797E+03  0.12500338447E+03 0.  0.
    9000005    1    3    3    0    0  0.27179725443E+01 -0.65930289739E+01  0.21317368570E+02  0.22500791287E+02  0.10000000000E+01 0.  0.
    9000005    1    3    3    0    0 -0.27179725443E+01  0.65930289739E+01 -0.17704472000E+03  0.17719110668E+03  0.10000000000E+01 0.  0.
<mgrwt>
<rscale>  0 0.12500338E+03</rscale>
<asrwt>0</asrwt>
<pdfrwt beam="2">  1        4 0.27339941E-01 0.12500338E+03</pdfrwt>
<pdfrwt beam="1">  1       -4 0.33818883E-02 0.12500338E+03</pdfrwt>
<totfact> 0.90180666E+03</totfact>
</mgrwt>
</event>
<event>
 5    1  0.3191162E-002  0.1249967E+03  0.7818608E-02  0.1235074E+00
          4   -1    0    0  501    0  0.00000000000E+00  0.00000000000E+00  0.20690830628E+02  0.20729770189E+02  0.12700000000E+01 0.  1.
         -4   -1    0    0    0  501 -0.00000000000E+00 -0.00000000000E+00 -0.18856276661E+03  0.18856704338E+03  0.12700000000E+01 0.  1.
         25    2    1    2    0    0  0.00000000000E+00  0.00000000000E+00 -0.16787193598E+03  0.20929681357E+03  0.12499667709E+03 0.  0.
    9000005    1    3    3    0    0 -0.14971103491E+02 -0.17789700010E+02 -0.18105854937E+03  0.18254809138E+03  0.10000000000E+01 0.  0.
    9000005    1    3    3    0    0  0.14971103491E+02  0.17789700010E+02  0.13186613392E+02  0.26748722193E+02  0.10000000000E+01 0.  0.
<mgrwt>
<rscale>  0 0.12499668E+03</rscale>
<asrwt>0</asrwt>
<pdfrwt beam="1">  1        4 0.31865292E-02 0.12499668E+03</pdfrwt>
<pdfrwt beam="2">  1       -4 0.29012980E-01 0.12499668E+03</pdfrwt>
<totfact> 0.88597432E+03</totfact>
</mgrwt>
</event>
<event>
 5    1  0.3191162E-002  0.1250024E+03  0.7818608E-02  0.1235066E+00
          4   -1    0    0  501    0  0.00000000000E+00  0.00000000000E+00  0.10052056620E+03  0.10052858861E+03  0.12700000000E+01 0. -1.
         -4   -1    0    0    0  501 -0.00000000000E+00 -0.00000000000E+00 -0.38841726955E+02  0.38862483874E+02  0.12700000000E+01 0. -1.
         25    2    1    2    0    0  0.00000000000E+00  0.00000000000E+00  0.61678839242E+02  0.13939107249E+03  0.12500236749E+03 0.  0.
    9000005    1    3    3    0    0 -0.23000609634E+01  0.52237843616E+02 -0.73245590760E+01  0.52808443944E+02  0.10000000000E+01 0.  0.
    9000005    1    3    3    0    0  0.23000609634E+01 -0.52237843616E+02  0.69003398318E+02  0.86582628544E+02  0.10000000000E+01 0.  0.
<mgrwt>
<rscale>  0 0.12500237E+03</rscale>
<asrwt>0</asrwt>
<pdfrwt beam="1">  1        4 0.15466916E-01 0.12500237E+03</pdfrwt>
<pdfrwt beam="2">  1       -4 0.59778642E-02 0.12500237E+03</pdfrwt>
<totfact> 0.10145680E+04</totfact>
</mgrwt>
</event>
<event>
 5    1  0.3191162E-002  0.1249985E+03  0.7818608E-02  0.1235072E+00
         -4   -1    0    0    0  501 -0.00000000000E+00  0.00000000000E+00  0.10284295588E+03  0.10285079715E+03  0.12700000000E+01 0. -1.
          4   -1    0    0  501    0  0.00000000000E+00 -0.00000000000E+00 -0.37961872552E+02  0.37983110294E+02  0.12700000000E+01 0. -1.
         25    2    1    2    0    0  0.00000000000E+00  0.00000000000E+00  0.64881083333E+02  0.14083390745E+03  0.12499853804E+03 0.  0.
    9000005    1    3    3    0    0 -0.45060626275E+02  0.43201711977E+02  0.35688573801E+02  0.71913296809E+02  0.10000000000E+01 0.  0.
    9000005    1    3    3    0    0  0.45060626275E+02 -0.43201711977E+02  0.29192509532E+02  0.68920610638E+02  0.10000000000E+01 0.  0.
<mgrwt>
<rscale>  0 0.12499854E+03</rscale>
<asrwt>0</asrwt>
<pdfrwt beam="2">  1        4 0.58425250E-02 0.12499854E+03</pdfrwt>
<pdfrwt beam="1">  1       -4 0.15824230E-01 0.12499854E+03</pdfrwt>
<totfact> 0.10116665E+04</totfact>
</mgrwt>
</event>
<event>
 5    1  0.3191162E-002  0.1249952E+03  0.7818608E-02  0.1235077E+00
         -4   -1    0    0    0  501 -0.00000000000E+00  0.00000000000E+00  0.18352820360E+03  0.18353259770E+03  0.12700000000E+01 0.  1.
          4   -1    0    0  501    0  0.00000000000E+00 -0.00000000000E+00 -0.21258944579E+02  0.21296845415E+02  0.12700000000E+01 0.  1.
         25    2    1    2    0    0  0.00000000000E+00  0.00000000000E+00  0.16226925902E+03  0.20482944311E+03  0.12499515327E+03 0.  0.
    9000005    1    3    3    0    0 -0.46010521888E+02 -0.39917628109E+02  0.58277160456E+02  0.84306658035E+02  0.10000000000E+01 0.  0.
    9000005    1    3    3    0    0  0.46010521888E+02  0.39917628109E+02  0.10399209857E+03  0.12052278508E+03  0.10000000000E+01 0.  0.
<mgrwt>
<rscale>  0 0.12499515E+03</rscale>
<asrwt>0</asrwt>
<pdfrwt beam="2">  1        4 0.32738605E-02 0.12499515E+03</pdfrwt>
<pdfrwt beam="1">  1       -4 0.28238360E-01 0.12499515E+03</pdfrwt>
<totfact> 0.89337010E+03</totfact>
</mgrwt>
</event>
<event>
 5    1  0.3191162E-002  0.1250018E+03  0.7818608E-02  0.1235066E+00
         -4   -1    0    0    0  501 -0.00000000000E+00  0.00000000000E+00  0.45318510244E+02  0.45336301908E+02  0.12700000000E+01 0. -1.
          4   -1    0    0  501    0  0.00000000000E+00 -0.00000000000E+00 -0.86158573125E+02  0.86167932683E+02  0.12700000000E+01 0. -1.
         25    2    1    2    0    0  0.00000000000E+00  0.00000000000E+00 -0.40840062881E+02  0.13150423459E+03  0.12500181190E+03 0.  0.
    9000005    1    3    3    0    0  0.16644240657E+02  0.23038070716E+02 -0.78971080552E+02  0.83935779098E+02  0.10000000000E+01 0.  0.
    9000005    1    3    3    0    0 -0.16644240657E+02 -0.23038070716E+02  0.38131017671E+02  0.47568455493E+02  0.10000000000E+01 0.  0.
<mgrwt>
<rscale>  0 0.12500181E+03</rscale>
<asrwt>0</asrwt>
<pdfrwt beam="2">  1        4 0.13257254E-01 0.12500181E+03</pdfrwt>
<pdfrwt beam="1">  1       -4 0.69741671E-02 0.12500181E+03</pdfrwt>
<totfact> 0.10311870E+04</totfact>
</mgrwt>
</event>
<event>
 5    1  0.3191162E-002  0.1249937E+03  0.7818608E-02  0.1235079E+00
          4   -1    0    0  501    0  0.00000000000E+00  0.00000000000E+00  0.12108079167E+03  0.12108745191E+03  0.12700000000E+01 0.  1.
         -4   -1    0    0    0  501 -0.00000000000E+00 -0.00000000000E+00 -0.32238232048E+02  0.32263237679E+02  0.12700000000E+01 0.  1.
         25    2    1    2    0    0  0.00000000000E+00  0.00000000000E+00  0.88842559622E+02  0.15335068959E+03  0.12499373424E+03 0.  0.
    9000005    1    3    3    0    0  0.60873488462E+02 -0.11928287394E+02  0.53683334531E+02  0.82041245993E+02  0.10000000000E+01 0.  0.
    9000005    1    3    3    0    0 -0.60873488462E+02  0.11928287394E+02  0.35159225091E+02  0.71309443601E+02  0.10000000000E+01 0.  0.
<mgrwt>
<rscale>  0 0.12499373E+03</rscale>
<asrwt>0</asrwt>
<pdfrwt beam="1">  1        4 0.18630250E-01 0.12499373E+03</pdfrwt>
<pdfrwt beam="2">  1       -4 0.49621639E-02 0.12499373E+03</pdfrwt>
<totfact> 0.98653839E+03</totfact>
</mgrwt>
</event>
<event>
 5    1  0.3191162E-002  0.1250071E+03  0.7818608E-02  0.1235058E+00
         -4   -1    0    0    0  501 -0.00000000000E+00  0.00000000000E+00  0.19607498061E+03  0.19607909354E+03  0.12700000000E+01 0.  1.
          4   -1    0    0  501    0  0.00000000000E+00 -0.00000000000E+00 -0.19899937884E+02  0.19940421956E+02  0.12700000000E+01 0.  1.
         25    2    1    2    0    0  0.00000000000E+00  0.00000000000E+00  0.17617504273E+03  0.21601951549E+03  0.12500714137E+03 0.  0.
    9000005    1    3    3    0    0  0.59530627651E+02  0.11141638319E+02  0.11472790209E+03  0.12973636056E+03  0.10000000000E+01 0.  0.
    9000005    1    3    3    0    0 -0.59530627651E+02 -0.11141638319E+02  0.61447140643E+02  0.86283154939E+02  0.10000000000E+01 0.  0.
<mgrwt>
<rscale>  0 0.12500714E+03</rscale>
<asrwt>0</asrwt>
<pdfrwt beam="2">  1        4 0.30649594E-02 0.12500714E+03</pdfrwt>
<pdfrwt beam="1">  1       -4 0.30168812E-01 0.12500714E+03</pdfrwt>
<totfact> 0.87488192E+03</totfact>
</mgrwt>
</event>
<event>
 5    1  0.3191162E-002  0.1249990E+03  0.7818608E-02  0.1235071E+00
          4   -1    0    0  501    0  0.00000000000E+00  0.00000000000E+00  0.86939819969E+02  0.86949095431E+02  0.12700000000E+01 0. -1.
         -4   -1    0    0    0  501 -0.00000000000E+00 -0.00000000000E+00 -0.44909118039E+02  0.44927071828E+02  0.12700000000E+01 0. -1.
         25    2    1    2    0    0  0.00000000000E+00  0.00000000000E+00  0.42030701930E+02  0.13187616726E+03  0.12499897434E+03 0.  0.
    9000005    1    3    3    0    0 -0.14629151590E+02 -0.33553805806E+02 -0.32420200620E+02  0.48907457187E+02  0.10000000000E+01 0.  0.
    9000005    1    3    3    0    0  0.14629151590E+02  0.33553805806E+02  0.74450902550E+02  0.82968710071E+02  0.10000000000E+01 0.  0.
<mgrwt>
<rscale>  0 0.12499897E+03</rscale>
<asrwt>0</asrwt>
<pdfrwt beam="1">  1        4 0.13377451E-01 0.12499897E+03</pdfrwt>
<pdfrwt beam="2">  1       -4 0.69111897E-02 0.12499897E+03</pdfrwt>
<totfact> 0.10304581E+04</totfact>
</mgrwt>
</event>
<event>
 5    1  0.3191162E-002  0.1249970E+03  0.7818608E-02  0.1235074E+00
          4   -1    0    0  501    0  0.00000000000E+00  0.00000000000E+00  0.17840857870E+02  0.17886003174E+02  0.12700000000E+01 0.  1.
         -4   -1    0    0    0  501 -0.00000000000E+00 -0.00000000000E+00 -0.21861561672E+03  0.21861930558E+03  0.12700000000E+01 0.  1.
         25    2    1    2    0    0  0.00000000000E+00  0.00000000000E+00 -0.20077475885E+03  0.23650530876E+03  0.12499702908E+03 0.  0.
    9000005    1    3    3    0    0 -0.58587564126E+02  0.21307218696E+02 -0.10853963769E+03  0.12517329263E+03  0.10000000000E+01 0.  0.
    9000005    1    3    3    0    0  0.58587564126E+02 -0.21307218696E+02 -0.92235121158E+02  0.11133201612E+03  0.10000000000E+01 0.  0.
<mgrwt>
<rscale>  0 0.12499703E+03</rscale>
<asrwt>0</asrwt>
<pdfrwt beam="1">  1        4 0.27485040E-02 0.12499703E+03</pdfrwt>
<pdfrwt beam="2">  1       -4 0.33636926E-01 0.12499703E+03</pdfrwt>
<totfact> 0.84326195E+03</totfact>
</mgrwt>
</event>
<event>
 5    1  0.3191162E-002  0.1250020E+03  0.7818608E-02  0.1235066E+00
         -4   -1    0    0    0  501 -0.00000000000E+00  0.00000000000E+00  0.22352458499E+02  0.22388508234E+02  0.12700000000E+01 0. -1.
          4   -1    0    0  501    0  0.00000000000E+00 -0.00000000000E+00 -0.17458341756E+03  0.17458803678E+03  0.12700000000E+01 0. -1.
         25    2    1    2    0    0  0.00000000000E+00  0.00000000000E+00 -0.15223095906E+03  0.19697654502E+03  0.12500197754E+03 0.  0.
    9000005    1    3    3    0    0  0.31555977947E+02 -0.52746222456E+02 -0.58327228420E+02  0.84740836099E+02  0.10000000000E+01 0.  0.
    9000005    1    3    3    0    0 -0.31555977947E+02  0.52746222456E+02 -0.93903730643E+02  0.11223570892E+03  0.10000000000E+01 0.  0.
<mgrwt>
<rscale>  0 0.12500198E+03</rscale>
<asrwt>0</asrwt>
<pdfrwt beam="2">  1        4 0.26862115E-01 0.12500198E+03</pdfrwt>
<pdfrwt beam="1">  1       -4 0.34419683E-02 0.12500198E+03</pdfrwt>
<totfact> 0.90643376E+03</totfact>
</mgrwt>
</event>
<event>
 5    1  0.3191162E-002  0.1250022E+03  0.7818608E-02  0.1235066E+00
          4   -1    0    0  501    0  0.00000000000E+00  0.00000000000E+00  0.88467396587E+03  0.88467487745E+03  0.12700000000E+01 0. -1.
         -4   -1    0    0    0  501 -0.00000000000E+00 -0.00000000000E+00 -0.43233733130E+01  0.45060466935E+01  0.12700000000E+01 0. -1.
         25    2    1    2    0    0  0.00000000000E+00  0.00000000000E+00  0.88035059256E+03  0.88918092415E+03  0.12500220015E+03 0.  0.
    9000005    1    3    3    0    0 -0.50958411775E+02  0.25307981800E+02  0.62404247551E+03  0.62663168202E+03  0.10000000000E+01 0.  0.
    9000005    1    3    3    0    0  0.50958411775E+02 -0.25307981800E+02  0.25630811705E+03  0.26254924212E+03  0.10000000000E+01 0.  0.
<mgrwt>
<rscale>  0 0.12500220E+03</rscale>
<asrwt>0</asrwt>
<pdfrwt beam="1">  1        4 0.13611763E+00 0.12500220E+03</pdfrwt>
<pdfrwt beam="2">  1       -4 0.67925717E-03 0.12500220E+03</pdfrwt>
<totfact> 0.34573741E+03</totfact>
</mgrwt>
</event>
<event>
 5    1  0.3191162E-002  0.1249987E+03  0.7818608E-02  0.1235071E+00
          4   -1    0    0  501    0  0.00000000000E+00  0.00000000000E+00  0.14784048309E+04  0.14784053764E+04  0.12700000000E+01 0.  1.
         -4   -1    0    0    0  501 -0.00000000000E+00 -0.00000000000E+00 -0.24889590992E+01  0.27942471969E+01  0.12700000000E+01 0.  1.
         25    2    1    2    0    0  0.00000000000E+00  0.00000000000E+00  0.14759158718E+04  0.14811996236E+04  0.12499865707E+03 0.  0.
    9000005    1    3    3    0    0 -0.41482732306E+02  0.45957307090E+02  0.63721791556E+03  0.64021915237E+03  0.10000000000E+01 0.  0.
    9000005    1    3    3    0    0  0.41482732306E+02 -0.45957307090E+02  0.83869795624E+03  0.84098047121E+03  0.10000000000E+01 0.  0.
<mgrwt>
<rscale>  0 0.12499866E+03</rscale>
<asrwt>0</asrwt>
<pdfrwt beam="1">  1        4 0.22747098E+00 0.12499866E+03</pdfrwt>
<pdfrwt beam="2">  1       -4 0.40644144E-03 0.12499866E+03</pdfrwt>
<totfact> 0.18303087E+03</totfact>
</mgrwt>
</event>
<event>
 5    1  0.3191162E-002  0.1250024E+03  0.7818608E-02  0.1235066E+00
         -4   -1    0    0    0  501 -0.00000000000E+00  0.00000000000E+00  0.49023255876E+02  0.49039703472E+02  0.12700000000E+01 0. -1.
          4   -1    0    0  501    0  0.00000000000E+00 -0.00000000000E+00 -0.79649711743E+02  0.79659836057E+02  0.12700000000E+01 0. -1.
         25    2    1    2    0    0  0.00000000000E+00  0.00000000000E+00 -0.30626455867E+02  0.12869953953E+03  0.12500236668E+03 0.  0.
    9000005    1    3    3    0    0 -0.20206753008E+01 -0.51354087609E+02  0.21292137349E+02  0.55638840352E+02  0.10000000000E+01 0.  0.
    9000005    1    3    3    0    0  0.20206753008E+01  0.51354087609E+02 -0.51918593216E+02  0.73060699178E+02  0.10000000000E+01 0.  0.
<mgrwt>
<rscale>  0 0.12500237E+03</rscale>
<asrwt>0</asrwt>
<pdfrwt beam="2">  1        4 0.12255846E-01 0.12500237E+03</pdfrwt>
<pdfrwt beam="1">  1       -4 0.75440833E-02 0.12500237E+03</pdfrwt>
<totfact> 0.10371854E+04</totfact>
</mgrwt>
</event>
<event>
 4    1  0.3191162E-002  0.1251081E+03  0.7818608E-02  0.1234900E+00
          4   -1    0    0  501    0  0.00000000000E+00  0.00000000000E+00  0.29309223916E+02  0.29336726241E+02  0.12700000000E+01 0. -1.
         -4   -1    0    0    0  501 -0.00000000000E+00 -0.00000000000E+00 -0.13341472041E+03  0.13342076496E+03  0.12700000000E+01 0. -1.
    9000005    1    1    2    0    0 -0.59728035627E+02 -0.11346075501E+02 -0.32940078584E+02  0.69153600385E+02  0.10000000000E+01 0.  0.
    9000005    1    1    2    0    0  0.59728035627E+02  0.11346075501E+02 -0.71165417908E+02  0.93603890812E+02  0.10000000000E+01 0.  0.
<mgrwt>
<rscale>  0 0.12510814E+03</rscale>
<asrwt>0</asrwt>
<pdfrwt beam="1">  1        4 0.45116920E-02 0.12510814E+03</pdfrwt>
<pdfrwt beam="2">  1       -4 0.20527922E-01 0.12510814E+03</pdfrwt>
<totfact> 0.96578905E+03</totfact>
</mgrwt>
</event>
<event>
 5    1  0.3191162E-002  0.1250209E+03  0.7818608E-02  0.1235037E+00
          4   -1    0    0  501    0  0.00000000000E+00  0.00000000000E+00  0.19936017369E+02  0.19976428323E+02  0.12700000000E+01 0.  1.
         -4   -1    0    0    0  501 -0.00000000000E+00 -0.00000000000E+00 -0.19576381194E+03  0.19576793141E+03  0.12700000000E+01 0.  1.
         25    2    1    2    0    0  0.00000000000E+00  0.00000000000E+00 -0.17582779457E+03  0.21574435973E+03  0.12502085990E+03 0.  0.
    9000005    1    3    3    0    0 -0.99576256606E+01  0.41473903477E+02 -0.90731099100E+01  0.43618348225E+02  0.10000000000E+01 0.  0.
    9000005    1    3    3    0    0  0.99576256606E+01 -0.41473903477E+02 -0.16675468466E+03  0.17212601150E+03  0.10000000000E+01 0.  0.
<mgrwt>
<rscale>  0 0.12502086E+03</rscale>
<asrwt>0</asrwt>
<pdfrwt beam="1">  1        4 0.30705052E-02 0.12502086E+03</pdfrwt>
<pdfrwt beam="2">  1       -4 0.30120934E-01 0.12502086E+03</pdfrwt>
<totfact> 0.87505467E+03</totfact>
</mgrwt>
</event>
<event>
 5    1  0.3191162E-002  0.1250011E+03  0.7818608E-02  0.1235068E+00
          4   -1    0    0  501    0  0.00000000000E+00  0.00000000000E+00  0.11578312639E+04  0.11578319605E+04  0.12700000000E+01 0. -1.
         -4   -1    0    0    0  501 -0.00000000000E+00 -0.00000000000E+00 -0.32535852734E+01  0.34926661924E+01  0.12700000000E+01 0. -1.
         25    2    1    2    0    0  0.00000000000E+00  0.00000000000E+00  0.11545776787E+04  0.11613246266E+04  0.12500108955E+03 0.  0.
    9000005    1    3    3    0    0 -0.11459431746E+02 -0.59631074100E+02  0.71450398128E+03  0.71708027643E+03  0.10000000000E+01 0.  0.
    9000005    1    3    3    0    0  0.11459431746E+02  0.59631074100E+02  0.44007369738E+03  0.44424435022E+03  0.10000000000E+01 0.  0.
<mgrwt>
<rscale>  0 0.12500109E+03</rscale>
<asrwt>0</asrwt>
<pdfrwt beam="1">  1        4 0.17814664E+00 0.12500109E+03</pdfrwt>
<pdfrwt beam="2">  1       -4 0.51899510E-03 0.12500109E+03</pdfrwt>
<totfact> 0.25747431E+03</totfact>
</mgrwt>
</event>
<event>
 4    1  0.3191162E-002  0.1249324E+03  0.7818608E-02  0.1235175E+00
          4   -1    0    0  501    0  0.00000000000E+00  0.00000000000E+00  0.17864967181E+01  0.21919102454E+01  0.12700000000E+01 0. -1.
         -4   -1    0    0    0  501 -0.00000000000E+00 -0.00000000000E+00 -0.19611978828E+04  0.19611982940E+04  0.12700000000E+01 0. -1.
    9000005    1    1    2    0    0  0.37766812995E+02  0.49222708420E+02 -0.86657359388E+03  0.86879226561E+03  0.10000000000E+01 0.  0.
    9000005    1    1    2    0    0 -0.37766812995E+02 -0.49222708420E+02 -0.10928377922E+04  0.10945979387E+04  0.10000000000E+01 0.  0.
<mgrwt>
<rscale>  0 0.12493244E+03</rscale>
<asrwt>0</asrwt>
<pdfrwt beam="1">  1        4 0.30606451E-03 0.12493244E+03</pdfrwt>
<pdfrwt beam="2">  1       -4 0.30175242E+00 0.12493244E+03</pdfrwt>
<totfact> 0.10362282E+03</totfact>
</mgrwt>
</event>
<event>
 4    1  0.3191162E-002  0.1248913E+03  0.7818608E-02  0.1235239E+00
         -4   -1    0    0    0  501 -0.00000000000E+00  0.00000000000E+00  0.43710381268E+02  0.43728827227E+02  0.12700000000E+01 0. -1.
          4   -1    0    0  501    0  0.00000000000E+00 -0.00000000000E+00 -0.89169501549E+02  0.89178545102E+02  0.12700000000E+01 0. -1.
    9000005    1    1    2    0    0  0.11272473931E+02  0.30898874828E+02  0.33748964001E+02  0.47135991613E+02  0.10000000000E+01 0.  0.
    9000005    1    1    2    0    0 -0.11272473931E+02 -0.30898874828E+02 -0.79208084282E+02  0.85771380715E+02  0.10000000000E+01 0.  0.
<mgrwt>
<rscale>  0 0.12489130E+03</rscale>
<asrwt>0</asrwt>
<pdfrwt beam="2">  1        4 0.13720499E-01 0.12489130E+03</pdfrwt>
<pdfrwt beam="1">  1       -4 0.67267887E-02 0.12489130E+03</pdfrwt>
<totfact> 0.10307621E+04</totfact>
</mgrwt>
</event>
<event>
 4    1  0.3191162E-002  0.1247312E+03  0.7818608E-02  0.1235490E+00
         -4   -1    0    0    0  501 -0.00000000000E+00  0.00000000000E+00  0.14131687995E+02  0.14188640019E+02  0.12700000000E+01 0.  1.
          4   -1    0    0  501    0  0.00000000000E+00 -0.00000000000E+00 -0.27461819397E+03  0.27462113058E+03  0.12700000000E+01 0.  1.
    9000005    1    1    2    0    0  0.42448761003E+02 -0.41475816208E+02 -0.17456025375E+03  0.18437576530E+03  0.10000000000E+01 0.  0.
    9000005    1    1    2    0    0 -0.42448761003E+02  0.41475816208E+02 -0.85926252229E+02  0.10443400530E+03  0.10000000000E+01 0.  0.
<mgrwt>
<rscale>  0 0.12473117E+03</rscale>
<asrwt>0</asrwt>
<pdfrwt beam="2">  1        4 0.42253556E-01 0.12473117E+03</pdfrwt>
<pdfrwt beam="1">  1       -4 0.21787129E-02 0.12473117E+03</pdfrwt>
<totfact> 0.77486133E+03</totfact>
</mgrwt>
</event>
<event>
 5    1  0.3191162E-002  0.1250036E+03  0.7818608E-02  0.1235064E+00
          4   -1    0    0  501    0  0.00000000000E+00  0.00000000000E+00  0.31795732417E+02  0.31821085776E+02  0.12700000000E+01 0.  1.
         -4   -1    0    0    0  501 -0.00000000000E+00 -0.00000000000E+00 -0.12278407127E+03  0.12279063913E+03  0.12700000000E+01 0.  1.
         25    2    1    2    0    0  0.00000000000E+00  0.00000000000E+00 -0.90988338851E+02  0.15461172490E+03  0.12500363063E+03 0.  0.
    9000005    1    3    3    0    0 -0.57345648585E+02 -0.24655372952E+02 -0.49218342235E+02  0.79497522222E+02  0.10000000000E+01 0.  0.
    9000005    1    3    3    0    0  0.57345648585E+02  0.24655372952E+02 -0.41769996616E+02  0.75114202681E+02  0.10000000000E+01 0.  0.
<mgrwt>
<rscale>  0 0.12500363E+03</rscale>
<asrwt>0</asrwt>
<pdfrwt beam="1">  1        4 0.48941067E-02 0.12500363E+03</pdfrwt>
<pdfrwt beam="2">  1       -4 0.18892312E-01 0.12500363E+03</pdfrwt>
<totfact> 0.98383742E+03</totfact>
</mgrwt>
</event>
<event>
 5    1  0.3191162E-002  0.1250002E+03  0.7818608E-02  0.1235069E+00
          4   -1    0    0  501    0  0.00000000000E+00  0.00000000000E+00  0.87281018044E+02  0.87290257250E+02  0.12700000000E+01 0. -1.
         -4   -1    0    0    0  501 -0.00000000000E+00 -0.00000000000E+00 -0.44734387740E+02  0.44752411627E+02  0.12700000000E+01 0. -1.
         25    2    1    2    0    0  0.00000000000E+00  0.00000000000E+00  0.42546630304E+02  0.13204266888E+03  0.12500020262E+03 0.  0.
    9000005    1    3    3    0    0 -0.30024305887E+01  0.23474444246E+02 -0.39822930842E+02  0.46334975375E+02  0.10000000000E+01 0.  0.
    9000005    1    3    3    0    0  0.30024305887E+01 -0.23474444246E+02  0.82369561146E+02  0.85707693503E+02  0.10000000000E+01 0.  0.
<mgrwt>
<rscale>  0 0.12500020E+03</rscale>
<asrwt>0</asrwt>
<pdfrwt beam="1">  1        4 0.13429946E-01 0.12500020E+03</pdfrwt>
<pdfrwt beam="2">  1       -4 0.68843107E-02 0.12500020E+03</pdfrwt>
<totfact> 0.10300741E+04</totfact>
</mgrwt>
</event>
<event>
 5    1  0.3191162E-002  0.1250006E+03  0.7818608E-02  0.1235068E+00
          4   -1    0    0  501    0  0.00000000000E+00  0.00000000000E+00  0.29712486384E+02  0.29739615787E+02  0.12700000000E+01 0. -1.
         -4   -1    0    0    0  501 -0.00000000000E+00 -0.00000000000E+00 -0.13137933720E+03  0.13138547539E+03  0.12700000000E+01 0. -1.
         25    2    1    2    0    0  0.00000000000E+00  0.00000000000E+00 -0.10166685081E+03  0.16112509117E+03  0.12500058580E+03 0.  0.
    9000005    1    3    3    0    0  0.18669506580E+02 -0.59574402890E+02 -0.54393165071E+02  0.82808673230E+02  0.10000000000E+01 0.  0.
    9000005    1    3    3    0    0 -0.18669506580E+02  0.59574402890E+02 -0.47273685741E+02  0.78316417942E+02  0.10000000000E+01 0.  0.
<mgrwt>
<rscale>  0 0.12500059E+03</rscale>
<asrwt>0</asrwt>
<pdfrwt beam="1">  1        4 0.45737109E-02 0.12500059E+03</pdfrwt>
<pdfrwt beam="2">  1       -4 0.20214764E-01 0.12500059E+03</pdfrwt>
<totfact> 0.97125035E+03</totfact>
</mgrwt>
</event>
<event>
 5    1  0.3191162E-002  0.1249996E+03  0.7818608E-02  0.1235070E+00
          4   -1    0    0  501    0  0.00000000000E+00  0.00000000000E+00  0.78863595046E+01  0.79879638354E+01  0.12700000000E+01 0.  1.
         -4   -1    0    0    0  501 -0.00000000000E+00 -0.00000000000E+00 -0.49204132360E+03  0.49204296259E+03  0.12700000000E+01 0.  1.
         25    2    1    2    0    0  0.00000000000E+00  0.00000000000E+00 -0.48415496410E+03  0.50003092642E+03  0.12499959248E+03 0.  0.
    9000005    1    3    3    0    0  0.62433772778E+02  0.14635962583E+01 -0.25111703740E+03  0.25876801303E+03  0.10000000000E+01 0.  0.
    9000005    1    3    3    0    0 -0.62433772778E+02 -0.14635962583E+01 -0.23303792670E+03  0.24126291339E+03  0.10000000000E+01 0.  0.
<mgrwt>
<rscale>  0 0.12499959E+03</rscale>
<asrwt>0</asrwt>
<pdfrwt beam="1">  1        4 0.12212283E-02 0.12499959E+03</pdfrwt>
<pdfrwt beam="2">  1       -4 0.75706583E-01 0.12499959E+03</pdfrwt>
<totfact> 0.55862478E+03</totfact>
</mgrwt>
</event>
<event>
 5    1  0.3191162E-002  0.1250005E+03  0.7818608E-02  0.1235068E+00
         -4   -1    0    0    0  501 -0.00000000000E+00  0.00000000000E+00  0.91371262858E+02  0.91380088511E+02  0.12700000000E+01 0.  1.
          4   -1    0    0  501    0  0.00000000000E+00 -0.00000000000E+00 -0.42731447056E+02  0.42750315408E+02  0.12700000000E+01 0.  1.
         25    2    1    2    0    0  0.00000000000E+00  0.00000000000E+00  0.48639815802E+02  0.13413040392E+03  0.12500053430E+03 0.  0.
    9000005    1    3    3    0    0  0.10585552492E+02  0.14528083283E+02  0.88542541646E+02  0.90354307072E+02  0.10000000000E+01 0.  0.
    9000005    1    3    3    0    0 -0.10585552492E+02 -0.14528083283E+02 -0.39902725844E+02  0.43776096847E+02  0.10000000000E+01 0.  0.
<mgrwt>
<rscale>  0 0.12500053E+03</rscale>
<asrwt>0</asrwt>
<pdfrwt beam="2">  1        4 0.65761992E-02 0.12500053E+03</pdfrwt>
<pdfrwt beam="1">  1       -4 0.14059248E-01 0.12500053E+03</pdfrwt>
<totfact> 0.10256309E+04</totfact>
</mgrwt>
</event>
<event>
 5    1  0.3191162E-002  0.1249971E+03  0.7818608E-02  0.1235074E+00
         -4   -1    0    0    0  501 -0.00000000000E+00  0.00000000000E+00  0.14977565546E+04  0.14977570931E+04  0.12700000000E+01 0.  1.
          4   -1    0    0  501    0  0.00000000000E+00 -0.00000000000E+00 -0.24527624090E+01  0.27620542057E+01  0.12700000000E+01 0.  1.
         25    2    1    2    0    0  0.00000000000E+00  0.00000000000E+00  0.14953037922E+04  0.15005191473E+04  0.12499712119E+03 0.  0.
    9000005    1    3    3    0    0 -0.84596209076E+01  0.90448871424E+01  0.12367605127E+02  0.17530910584E+02  0.10000000000E+01 0.  0.
    9000005    1    3    3    0    0  0.84596209076E+01 -0.90448871424E+01  0.14829361871E+04  0.14829882367E+04  0.10000000000E+01 0.  0.
<mgrwt>
<rscale>  0 0.12499712E+03</rscale>
<asrwt>0</asrwt>
<pdfrwt beam="2">  1        4 0.40117916E-03 0.12499712E+03</pdfrwt>
<pdfrwt beam="1">  1       -4 0.23044907E+00 0.12499712E+03</pdfrwt>
<totfact> 0.17921217E+03</totfact>
</mgrwt>
</event>
<event>
 5    1  0.3191162E-002  0.1250074E+03  0.7818608E-02  0.1235058E+00
         -4   -1    0    0    0  501 -0.00000000000E+00  0.00000000000E+00  0.68427286367E+03  0.68427404222E+03  0.12700000000E+01 0. -1.
          4   -1    0    0  501    0  0.00000000000E+00 -0.00000000000E+00 -0.56374636872E+01  0.57787452638E+01  0.12700000000E+01 0. -1.
         25    2    1    2    0    0  0.00000000000E+00  0.00000000000E+00  0.67863539998E+03  0.69005278748E+03  0.12500737340E+03 0.  0.
    9000005    1    3    3    0    0 -0.32525189867E+02 -0.35732286161E+02  0.55811323437E+03  0.56020180885E+03  0.10000000000E+01 0.  0.
    9000005    1    3    3    0    0  0.32525189867E+02  0.35732286161E+02  0.12052216561E+03  0.12985097864E+03  0.10000000000E+01 0.  0.
<mgrwt>
<rscale>  0 0.12500737E+03</rscale>
<asrwt>0</asrwt>
<pdfrwt beam="2">  1        4 0.87826015E-03 0.12500737E+03</pdfrwt>
<pdfrwt beam="1">  1       -4 0.10528376E+00 0.12500737E+03</pdfrwt>
<totfact> 0.43609962E+03</totfact>
</mgrwt>
</event>
<event>
 5    1  0.3191162E-002  0.1249968E+03  0.7818608E-02  0.1235074E+00
         -4   -1    0    0    0  501 -0.00000000000E+00  0.00000000000E+00  0.11403151690E+02  0.11473655410E+02  0.12700000000E+01 0. -1.
          4   -1    0    0  501    0  0.00000000000E+00 -0.00000000000E+00 -0.34141391648E+03  0.34141627856E+03  0.12700000000E+01 0. -1.
         25    2    1    2    0    0  0.00000000000E+00  0.00000000000E+00 -0.33001076479E+03  0.35288993397E+03  0.12499680244E+03 0.  0.
    9000005    1    3    3    0    0  0.38403269979E+01 -0.60377129211E+02 -0.20918669177E+03  0.21776183747E+03  0.10000000000E+01 0.  0.
    9000005    1    3    3    0    0 -0.38403269979E+01  0.60377129211E+02 -0.12082407301E+03  0.13512809650E+03  0.10000000000E+01 0.  0.
<mgrwt>
<rscale>  0 0.12499680E+03</rscale>
<asrwt>0</asrwt>
<pdfrwt beam="2">  1        4 0.52530815E-01 0.12499680E+03</pdfrwt>
<pdfrwt beam="1">  1       -4 0.17599363E-02 0.12499680E+03</pdfrwt>
<totfact> 0.69412708E+03</totfact>
</mgrwt>
</event>
<event>
 5    1  0.3191162E-002  0.1250133E+03  0.7818608E-02  0.1235048E+00
          4   -1    0    0  501    0  0.00000000000E+00  0.00000000000E+00  0.20841574549E+03  0.20841961489E+03  0.12700000000E+01 0. -1.
         -4   -1    0    0    0  501 -0.00000000000E+00 -0.00000000000E+00 -0.18721019515E+02  0.18764047316E+02  0.12700000000E+01 0. -1.
         25    2    1    2    0    0  0.00000000000E+00  0.00000000000E+00  0.18969472598E+03  0.22718366220E+03  0.12501330852E+03 0.  0.
    9000005    1    3    3    0    0  0.40994762102E+02  0.43009898294E+02  0.59625015397E+02  0.84181733958E+02  0.10000000000E+01 0.  0.
    9000005    1    3    3    0    0 -0.40994762102E+02 -0.43009898294E+02  0.13006971058E+03  0.14300192825E+03  0.10000000000E+01 0.  0.
<mgrwt>
<rscale>  0 0.12501331E+03</rscale>
<asrwt>0</asrwt>
<pdfrwt beam="1">  1        4 0.32067568E-01 0.12501331E+03</pdfrwt>
<pdfrwt beam="2">  1       -4 0.28837644E-02 0.12501331E+03</pdfrwt>
<totfact> 0.85718471E+03</totfact>
</mgrwt>
</event>
<event>
 5    1  0.3191162E-002  0.1250011E+03  0.7818608E-02  0.1235068E+00
         -4   -1    0    0    0  501 -0.00000000000E+00  0.00000000000E+00  0.15597000854E+03  0.15597517900E+03  0.12700000000E+01 0.  1.
          4   -1    0    0  501    0  0.00000000000E+00 -0.00000000000E+00 -0.25023627822E+02  0.25055834637E+02  0.12700000000E+01 0.  1.
         25    2    1    2    0    0  0.00000000000E+00  0.00000000000E+00  0.13094638072E+03  0.18103101364E+03  0.12500109310E+03 0.  0.
    9000005    1    3    3    0    0  0.33698362834E+02 -0.52543339290E+02  0.69802459406E+02  0.93647026117E+02  0.10000000000E+01 0.  0.
    9000005    1    3    3    0    0 -0.33698362834E+02  0.52543339290E+02  0.61143921312E+02  0.87383987520E+02  0.10000000000E+01 0.  0.
<mgrwt>
<rscale>  0 0.12500109E+03</rscale>
<asrwt>0</asrwt>
<pdfrwt beam="2">  1        4 0.38526640E-02 0.12500109E+03</pdfrwt>
<pdfrwt beam="1">  1       -4 0.23998262E-01 0.12500109E+03</pdfrwt>
<totfact> 0.93429455E+03</totfact>
</mgrwt>
</event>
<event>
 5    1  0.3191162E-002  0.1250095E+03  0.7818608E-02  0.1235054E+00
         -4   -1    0    0    0  501 -0.00000000000E+00  0.00000000000E+00  0.19035718816E+02  0.19078036871E+02  0.12700000000E+01 0.  1.
          4   -1    0    0  501    0  0.00000000000E+00 -0.00000000000E+00 -0.20496542447E+03  0.20496935900E+03  0.12700000000E+01 0.  1.
         25    2    1    2    0    0  0.00000000000E+00  0.00000000000E+00 -0.18592970565E+03  0.22404739587E+03  0.12500952024E+03 0.  0.
    9000005    1    3    3    0    0 -0.44651392793E+02 -0.26333161544E+02 -0.30398825145E+02  0.60102170056E+02  0.10000000000E+01 0.  0.
    9000005    1    3    3    0    0  0.44651392793E+02  0.26333161544E+02 -0.15553088051E+03  0.16394522581E+03  0.10000000000E+01 0.  0.
<mgrwt>
<rscale>  0 0.12500952E+03</rscale>
<asrwt>0</asrwt>
<pdfrwt beam="2">  1        4 0.31536699E-01 0.12500952E+03</pdfrwt>
<pdfrwt beam="1">  1       -4 0.29321302E-02 0.12500952E+03</pdfrwt>
<totfact> 0.86213599E+03</totfact>
</mgrwt>
</event>
<event>
 5    1  0.3191162E-002  0.1250021E+03  0.7818608E-02  0.1235066E+00
         -4   -1    0    0    0  501 -0.00000000000E+00  0.00000000000E+00  0.96229469219E+02  0.96237849343E+02  0.12700000000E+01 0. -1.
          4   -1    0    0  501    0  0.00000000000E+00 -0.00000000000E+00 -0.40574339147E+02  0.40594210144E+02  0.12700000000E+01 0. -1.
         25    2    1    2    0    0  0.00000000000E+00  0.00000000000E+00  0.55655130072E+02  0.13683205949E+03  0.12500207598E+03 0.  0.
    9000005    1    3    3    0    0 -0.26125132799E+01  0.55112434724E+02 -0.42954357732E+01  0.55350306732E+02  0.10000000000E+01 0.  0.
    9000005    1    3    3    0    0  0.26125132799E+01 -0.55112434724E+02  0.59950565845E+02  0.81481752755E+02  0.10000000000E+01 0.  0.
<mgrwt>
<rscale>  0 0.12500208E+03</rscale>
<asrwt>0</asrwt>
<pdfrwt beam="2">  1        4 0.62443792E-02 0.12500208E+03</pdfrwt>
<pdfrwt beam="1">  1       -4 0.14806707E-01 0.12500208E+03</pdfrwt>
<totfact> 0.10199121E+04</totfact>
</mgrwt>
</event>
<event>
 5    1  0.3191162E-002  0.1250023E+03  0.7818608E-02  0.1235066E+00
          4   -1    0    0  501    0  0.00000000000E+00  0.00000000000E+00  0.12005520779E+03  0.12006192492E+03  0.12700000000E+01 0.  1.
         -4   -1    0    0    0  501 -0.00000000000E+00 -0.00000000000E+00 -0.32518268875E+02  0.32543059331E+02  0.12700000000E+01 0.  1.
         25    2    1    2    0    0  0.00000000000E+00  0.00000000000E+00  0.87536938911E+02  0.15260498425E+03  0.12500226216E+03 0.  0.
    9000005    1    3    3    0    0 -0.51494450074E+02  0.29045518805E+02  0.19046658145E+02  0.62121620532E+02  0.10000000000E+01 0.  0.
    9000005    1    3    3    0    0  0.51494450074E+02 -0.29045518805E+02  0.68490280766E+02  0.90483363722E+02  0.10000000000E+01 0.  0.
<mgrwt>
<rscale>  0 0.12500226E+03</rscale>
<asrwt>0</asrwt>
<pdfrwt beam="1">  1        4 0.18472455E-01 0.12500226E+03</pdfrwt>
<pdfrwt beam="2">  1       -4 0.50052343E-02 0.12500226E+03</pdfrwt>
<totfact> 0.98781918E+03</totfact>
</mgrwt>
</event>
<event>
 5    1  0.3191162E-002  0.1249982E+03  0.7818608E-02  0.1235072E+00
          4   -1    0    0  501    0  0.00000000000E+00  0.00000000000E+00  0.47962580572E+01  0.49615513049E+01  0.12700000000E+01 0. -1.
         -4   -1    0    0    0  501 -0.00000000000E+00 -0.00000000000E+00 -0.80045154100E+03  0.80045254850E+03  0.12700000000E+01 0. -1.
         25    2    1    2    0    0  0.00000000000E+00  0.00000000000E+00 -0.79565528294E+03  0.80541409980E+03  0.12499817150E+03 0.  0.
    9000005    1    3    3    0    0  0.16075531783E+02  0.35449429397E+02 -0.82821407940E+02  0.91517596011E+02  0.10000000000E+01 0.  0.
    9000005    1    3    3    0    0 -0.16075531783E+02 -0.35449429397E+02 -0.71283387501E+03  0.71389650379E+03  0.10000000000E+01 0.  0.
<mgrwt>
<rscale>  0 0.12499817E+03</rscale>
<asrwt>0</asrwt>
<pdfrwt beam="1">  1        4 0.75067886E-03 0.12499817E+03</pdfrwt>
<pdfrwt beam="2">  1       -4 0.12315908E+00 0.12499817E+03</pdfrwt>
<totfact> 0.38025713E+03</totfact>
</mgrwt>
</event>
<event>
 5    1  0.3191162E-002  0.1250100E+03  0.7818608E-02  0.1235054E+00
          4   -1    0    0  501    0  0.00000000000E+00  0.00000000000E+00  0.18497980072E+02  0.18541525470E+02  0.12700000000E+01 0. -1.
         -4   -1    0    0    0  501 -0.00000000000E+00 -0.00000000000E+00 -0.21091167608E+03  0.21091549968E+03  0.12700000000E+01 0. -1.
         25    2    1    2    0    0  0.00000000000E+00  0.00000000000E+00 -0.19241369601E+03  0.22945702515E+03  0.12500998353E+03 0.  0.
    9000005    1    3    3    0    0 -0.38990473394E+02 -0.83785720567E+01 -0.18452932162E+03  0.18879228804E+03  0.10000000000E+01 0.  0.
    9000005    1    3    3    0    0  0.38990473394E+02  0.83785720567E+01 -0.78843743884E+01  0.40664737116E+02  0.10000000000E+01 0.  0.
<mgrwt>
<rscale>  0 0.12500998E+03</rscale>
<asrwt>0</asrwt>
<pdfrwt beam="1">  1        4 0.28494870E-02 0.12500998E+03</pdfrwt>
<pdfrwt beam="2">  1       -4 0.32451592E-01 0.12500998E+03</pdfrwt>
<totfact> 0.85374022E+03</totfact>
</mgrwt>
</event>
<event>
 5    1  0.3191162E-002  0.1250031E+03  0.7818608E-02  0.1235064E+00
         -4   -1    0    0    0  501 -0.00000000000E+00  0.00000000000E+00  0.36955000038E+03  0.36955218262E+03  0.12700000000E+01 0.  1.
          4   -1    0    0  501    0  0.00000000000E+00 -0.00000000000E+00 -0.10530447091E+02  0.10606753318E+02  0.12700000000E+01 0.  1.
         25    2    1    2    0    0  0.00000000000E+00  0.00000000000E+00  0.35901955329E+03  0.38015893594E+03  0.12500310769E+03 0.  0.
    9000005    1    3    3    0    0  0.32537568916E+02 -0.51968072553E+02  0.14275402404E+03  0.15536758136E+03  0.10000000000E+01 0.  0.
    9000005    1    3    3    0    0 -0.32537568916E+02  0.51968072553E+02  0.21626552924E+03  0.22479135458E+03  0.10000000000E+01 0.  0.
<mgrwt>
<rscale>  0 0.12500311E+03</rscale>
<asrwt>0</asrwt>
<pdfrwt beam="2">  1        4 0.16261068E-02 0.12500311E+03</pdfrwt>
<pdfrwt beam="1">  1       -4 0.56859868E-01 0.12500311E+03</pdfrwt>
<totfact> 0.66524786E+03</totfact>
</mgrwt>
</event>
<event>
 5    1  0.3191162E-002  0.1249997E+03  0.7818608E-02  0.1235070E+00
         -4   -1    0    0    0  501 -0.00000000000E+00  0.00000000000E+00  0.24847453473E+02  0.24879888346E+02  0.12700000000E+01 0. -1.
          4   -1    0    0  501    0  0.00000000000E+00 -0.00000000000E+00 -0.15707099590E+03  0.15707613012E+03  0.12700000000E+01 0. -1.
         25    2    1    2    0    0  0.00000000000E+00  0.00000000000E+00 -0.13222354243E+03  0.18195601847E+03  0.12499970994E+03 0.  0.
    9000005    1    3    3    0    0  0.28419067167E+02 -0.24587446394E+02 -0.13879305059E+03  0.14379393865E+03  0.10000000000E+01 0.  0.
    9000005    1    3    3    0    0 -0.28419067167E+02  0.24587446394E+02  0.65695081620E+01  0.38162079822E+02  0.10000000000E+01 0.  0.
<mgrwt>
<rscale>  0 0.12499971E+03</rscale>
<asrwt>0</asrwt>
<pdfrwt beam="2">  1        4 0.24167658E-01 0.12499971E+03</pdfrwt>
<pdfrwt beam="1">  1       -4 0.38255752E-02 0.12499971E+03</pdfrwt>
<totfact> 0.93266701E+03</totfact>
</mgrwt>
</event>
<event>
 5    1  0.3191162E-002  0.1249997E+03  0.7818608E-02  0.1235070E+00
         -4   -1    0    0    0  501 -0.00000000000E+00  0.00000000000E+00  0.46562873140E+02  0.46580189513E+02  0.12700000000E+01 0. -1.
          4   -1    0    0  501    0  0.00000000000E+00 -0.00000000000E+00 -0.83853801878E+02  0.83863418660E+02  0.12700000000E+01 0. -1.
         25    2    1    2    0    0  0.00000000000E+00  0.00000000000E+00 -0.37290928738E+02  0.13044360817E+03  0.12499968619E+03 0.  0.
    9000005    1    3    3    0    0  0.20417763659E+00  0.24915520717E+00  0.46567124343E+02  0.46578974188E+02  0.10000000000E+01 0.  0.
    9000005    1    3    3    0    0 -0.20417763659E+00 -0.24915520717E+00 -0.83858053081E+02  0.83864633985E+02  0.10000000000E+01 0.  0.
<mgrwt>
<rscale>  0 0.12499969E+03</rscale>
<asrwt>0</asrwt>
<pdfrwt beam="2">  1        4 0.12902657E-01 0.12499969E+03</pdfrwt>
<pdfrwt beam="1">  1       -4 0.71655907E-02 0.12499969E+03</pdfrwt>
<totfact> 0.10335100E+04</totfact>
</mgrwt>
</event>
<event>
 5    1  0.3191162E-002  0.1250001E+03  0.7818608E-02  0.1235069E+00
         -4   -1    0    0    0  501 -0.00000000000E+00  0.00000000000E+00  0.94293235112E+02  0.94301787299E+02  0.12700000000E+01 0.  1.
          4   -1    0    0  501    0  0.00000000000E+00 -0.00000000000E+00 -0.41406531128E+02  0.41426002945E+02  0.12700000000E+01 0.  1.
         25    2    1    2    0    0  0.00000000000E+00  0.00000000000E+00  0.52886703984E+02  0.13572779024E+03  0.12500011835E+03 0.  0.
    9000005    1    3    3    0    0  0.77378580873E+01 -0.59888364955E+02  0.89765844194E+01  0.61057921456E+02  0.10000000000E+01 0.  0.
    9000005    1    3    3    0    0 -0.77378580873E+01  0.59888364955E+02  0.43910119564E+02  0.74669868788E+02  0.10000000000E+01 0.  0.
<mgrwt>
<rscale>  0 0.12500012E+03</rscale>
<asrwt>0</asrwt>
<pdfrwt beam="2">  1        4 0.63723913E-02 0.12500012E+03</pdfrwt>
<pdfrwt beam="1">  1       -4 0.14508807E-01 0.12500012E+03</pdfrwt>
<totfact> 0.10222726E+04</totfact>
</mgrwt>
</event>
<event>
 5    1  0.3191162E-002  0.1250078E+03  0.7818608E-02  0.1235057E+00
          4   -1    0    0  501    0  0.00000000000E+00  0.00000000000E+00  0.19218627739E+02  0.19260543922E+02  0.12700000000E+01 0.  1.
         -4   -1    0    0    0  501 -0.00000000000E+00 -0.00000000000E+00 -0.20301349319E+03  0.20301746554E+03  0.12700000000E+01 0.  1.
         25    2    1    2    0    0  0.00000000000E+00  0.00000000000E+00 -0.18379486545E+03  0.22227800946E+03  0.12500784346E+03 0.  0.
    9000005    1    3    3    0    0  0.16948964163E+02  0.19039013734E+02  0.95639290842E+01  0.27243717986E+02  0.10000000000E+01 0.  0.
    9000005    1    3    3    0    0 -0.16948964163E+02 -0.19039013734E+02 -0.19335879453E+03  0.19503429148E+03  0.10000000000E+01 0.  0.
<mgrwt>
<rscale>  0 0.12500784E+03</rscale>
<asrwt>0</asrwt>
<pdfrwt beam="1">  1        4 0.29602420E-02 0.12500784E+03</pdfrwt>
<pdfrwt beam="2">  1       -4 0.31236373E-01 0.12500784E+03</pdfrwt>
<totfact> 0.86494013E+03</totfact>
</mgrwt>
</event>
<event>
 5    1  0.3191162E-002  0.1249994E+03  0.7818608E-02  0.1235070E+00
         -4   -1    0    0    0  501 -0.00000000000E+00  0.00000000000E+00  0.60819540421E+03  0.60819673018E+03  0.12700000000E+01 0.  1.
          4   -1    0    0  501    0  0.00000000000E+00 -0.00000000000E+00 -0.63584979586E+01  0.64840879304E+01  0.12700000000E+01 0.  1.
         25    2    1    2    0    0  0.00000000000E+00  0.00000000000E+00  0.60183690625E+03  0.61468081811E+03  0.12499938571E+03 0.  0.
    9000005    1    3    3    0    0 -0.48827279896E+02 -0.34931017619E+02  0.21561311236E+03  0.22381754506E+03  0.10000000000E+01 0.  0.
    9000005    1    3    3    0    0  0.48827279896E+02  0.34931017619E+02  0.38622379389E+03  0.39086327305E+03  0.10000000000E+01 0.  0.
<mgrwt>
<rscale>  0 0.12499939E+03</rscale>
<asrwt>0</asrwt>
<pdfrwt beam="2">  1        4 0.98799291E-03 0.12499939E+03</pdfrwt>
<pdfrwt beam="1">  1       -4 0.93578316E-01 0.12499939E+03</pdfrwt>
<totfact> 0.47954470E+03</totfact>
</mgrwt>
</event>
<event>
 5    1  0.3191162E-002  0.1250014E+03  0.7818608E-02  0.1235067E+00
         -4   -1    0    0    0  501 -0.00000000000E+00  0.00000000000E+00  0.98597099169E+02  0.98605278077E+02  0.12700000000E+01 0.  1.
          4   -1    0    0  501    0  0.00000000000E+00 -0.00000000000E+00 -0.39599180153E+02  0.39619540239E+02  0.12700000000E+01 0.  1.
         25    2    1    2    0    0  0.00000000000E+00  0.00000000000E+00  0.58997919016E+02  0.13822481832E+03  0.12500138379E+03 0.  0.
    9000005    1    3    3    0    0 -0.10592222724E+02 -0.15233814560E+02  0.95486447572E+02  0.97277571712E+02  0.10000000000E+01 0.  0.
    9000005    1    3    3    0    0  0.10592222724E+02  0.15233814560E+02 -0.36488528555E+02  0.40947246604E+02  0.10000000000E+01 0.  0.
<mgrwt>
<rscale>  0 0.12500138E+03</rscale>
<asrwt>0</asrwt>
<pdfrwt beam="2">  1        4 0.60943769E-02 0.12500138E+03</pdfrwt>
<pdfrwt beam="1">  1       -4 0.15170980E-01 0.12500138E+03</pdfrwt>
<totfact> 0.10170193E+04</totfact>
</mgrwt>
</event>
<event>
 5    1  0.3191162E-002  0.1250020E+03  0.7818608E-02  0.1235066E+00
         -4   -1    0    0    0  501 -0.00000000000E+00  0.00000000000E+00  0.33418255833E+03  0.33418497152E+03  0.12700000000E+01 0. -1.
          4   -1    0    0  501    0  0.00000000000E+00 -0.00000000000E+00 -0.11652382794E+02  0.11721387494E+02  0.12700000000E+01 0. -1.
         25    2    1    2    0    0  0.00000000000E+00  0.00000000000E+00  0.32253017553E+03  0.34590635901E+03  0.12500198029E+03 0.  0.
    9000005    1    3    3    0    0 -0.18045038970E+02  0.59789410419E+02  0.16743834130E+03  0.17870924757E+03  0.10000000000E+01 0.  0.
    9000005    1    3    3    0    0  0.18045038970E+02 -0.59789410419E+02  0.15509183423E+03  0.16719711145E+03  0.10000000000E+01 0.  0.
<mgrwt>
<rscale>  0 0.12500198E+03</rscale>
<asrwt>0</asrwt>
<pdfrwt beam="2">  1        4 0.17981678E-02 0.12500198E+03</pdfrwt>
<pdfrwt beam="1">  1       -4 0.51418199E-01 0.12500198E+03</pdfrwt>
<totfact> 0.70174186E+03</totfact>
</mgrwt>
</event>
<event>
 5    1  0.3191162E-002  0.1249954E+03  0.7818608E-02  0.1235077E+00
         -4   -1    0    0    0  501 -0.00000000000E+00  0.00000000000E+00  0.23637698936E+03  0.23638040104E+03  0.12700000000E+01 0. -1.
          4   -1    0    0  501    0  0.00000000000E+00 -0.00000000000E+00 -0.16496344274E+02  0.16545158639E+02  0.12700000000E+01 0. -1.
         25    2    1    2    0    0  0.00000000000E+00  0.00000000000E+00  0.21988064508E+03  0.25292555968E+03  0.12499536255E+03 0.  0.
    9000005    1    3    3    0    0  0.22028388809E+02  0.34798537921E+02  0.14841691727E+02  0.43788856668E+02  0.10000000000E+01 0.  0.
    9000005    1    3    3    0    0 -0.22028388809E+02 -0.34798537921E+02  0.20503895336E+03  0.20913670301E+03  0.10000000000E+01 0.  0.
<mgrwt>
<rscale>  0 0.12499536E+03</rscale>
<asrwt>0</asrwt>
<pdfrwt beam="2">  1        4 0.25419166E-02 0.12499536E+03</pdfrwt>
<pdfrwt beam="1">  1       -4 0.36369706E-01 0.12499536E+03</pdfrwt>
<totfact> 0.81917685E+03</totfact>
</mgrwt>
</event>
<event>
 5    1  0.3191162E-002  0.1249977E+03  0.7818608E-02  0.1235073E+00
          4   -1    0    0  501    0  0.00000000000E+00  0.00000000000E+00  0.80778877944E+01  0.81771126456E+01  0.12700000000E+01 0. -1.
         -4   -1    0    0    0  501 -0.00000000000E+00 -0.00000000000E+00 -0.48050384251E+03  0.48050552085E+03  0.12700000000E+01 0. -1.
         25    2    1    2    0    0  0.00000000000E+00  0.00000000000E+00 -0.47242595471E+03  0.48868263349E+03  0.12499773434E+03 0.  0.
    9000005    1    3    3    0    0 -0.89550165628E+01 -0.44681246746E+02 -0.69037521649E+02  0.82727175268E+02  0.10000000000E+01 0.  0.
    9000005    1    3    3    0    0  0.89550165628E+01  0.44681246746E+02 -0.40338843306E+03  0.40595545822E+03  0.10000000000E+01 0.  0.
<mgrwt>
<rscale>  0 0.12499773E+03</rscale>
<asrwt>0</asrwt>
<pdfrwt beam="1">  1        4 0.12505141E-02 0.12499773E+03</pdfrwt>
<pdfrwt beam="2">  1       -4 0.73931408E-01 0.12499773E+03</pdfrwt>
<totfact> 0.56756110E+03</totfact>
</mgrwt>
</event>
<event>
 5    1  0.3191162E-002  0.1249924E+03  0.7818608E-02  0.1235081E+00
         -4   -1    0    0    0  501 -0.00000000000E+00  0.00000000000E+00  0.21574634489E+02  0.21611981708E+02  0.12700000000E+01 0. -1.
          4   -1    0    0  501    0  0.00000000000E+00 -0.00000000000E+00 -0.18083946587E+03  0.18084392529E+03  0.12700000000E+01 0. -1.
         25    2    1    2    0    0  0.00000000000E+00  0.00000000000E+00 -0.15926483138E+03  0.20245590700E+03  0.12499243083E+03 0.  0.
    9000005    1    3    3    0    0  0.17921528403E+02 -0.43279374960E+02 -0.12642845092E+02  0.48529650826E+02  0.10000000000E+01 0.  0.
    9000005    1    3    3    0    0 -0.17921528403E+02  0.43279374960E+02 -0.14662198629E+03  0.15392625617E+03  0.10000000000E+01 0.  0.
<mgrwt>
<rscale>  0 0.12499243E+03</rscale>
<asrwt>0</asrwt>
<pdfrwt beam="2">  1        4 0.27824671E-01 0.12499243E+03</pdfrwt>
<pdfrwt beam="1">  1       -4 0.33223905E-02 0.12499243E+03</pdfrwt>
<totfact> 0.89738140E+03</totfact>
</mgrwt>
</event>
<event>
 5    1  0.3191162E-002  0.1249989E+03  0.7818608E-02  0.1235071E+00
         -4   -1    0    0    0  501 -0.00000000000E+00  0.00000000000E+00  0.16682734373E+03  0.16683217770E+03  0.12700000000E+01 0.  1.
          4   -1    0    0  501    0  0.00000000000E+00 -0.00000000000E+00 -0.23392128736E+02  0.23426578640E+02  0.12700000000E+01 0.  1.
         25    2    1    2    0    0  0.00000000000E+00  0.00000000000E+00  0.14343521499E+03  0.19025875634E+03  0.12499893385E+03 0.  0.
    9000005    1    3    3    0    0  0.32084128886E+02 -0.55026737532E+01  0.15291061019E+03  0.15634041529E+03  0.10000000000E+01 0.  0.
    9000005    1    3    3    0    0 -0.32084128886E+02  0.55026737532E+01 -0.94753952027E+01  0.33918341042E+02  0.10000000000E+01 0.  0.
<mgrwt>
<rscale>  0 0.12499893E+03</rscale>
<asrwt>0</asrwt>
<pdfrwt beam="2">  1        4 0.36018109E-02 0.12499893E+03</pdfrwt>
<pdfrwt beam="1">  1       -4 0.25668767E-01 0.12499893E+03</pdfrwt>
<totfact> 0.91804503E+03</totfact>
</mgrwt>
</event>
<event>
 5    1  0.3191162E-002  0.1250044E+03  0.7818608E-02  0.1235062E+00
          4   -1    0    0  501    0  0.00000000000E+00  0.00000000000E+00  0.69740081431E+02  0.69751644124E+02  0.12700000000E+01 0. -1.
         -4   -1    0    0    0  501 -0.00000000000E+00 -0.00000000000E+00 -0.55992059502E+02  0.56006460585E+02  0.12700000000E+01 0. -1.
         25    2    1    2    0    0  0.00000000000E+00  0.00000000000E+00  0.13748021930E+02  0.12575810471E+03  0.12500437110E+03 0.  0.
    9000005    1    3    3    0    0 -0.39368330559E+02  0.32546378818E+02  0.43096541166E+02  0.66838941387E+02  0.10000000000E+01 0.  0.
    9000005    1    3    3    0    0  0.39368330559E+02 -0.32546378818E+02 -0.29348519237E+02  0.58919163322E+02  0.10000000000E+01 0.  0.
<mgrwt>
<rscale>  0 0.12500437E+03</rscale>
<asrwt>0</asrwt>
<pdfrwt beam="1">  1        4 0.10731240E-01 0.12500437E+03</pdfrwt>
<pdfrwt beam="2">  1       -4 0.86161603E-02 0.12500437E+03</pdfrwt>
<totfact> 0.10435237E+04</totfact>
</mgrwt>
</event>
<event>
 5    1  0.3191162E-002  0.1250031E+03  0.7818608E-02  0.1235064E+00
         -4   -1    0    0    0  501 -0.00000000000E+00  0.00000000000E+00  0.38264553597E+02  0.38285623437E+02  0.12700000000E+01 0.  1.
          4   -1    0    0  501    0  0.00000000000E+00 -0.00000000000E+00 -0.10203726190E+03  0.10204516508E+03  0.12700000000E+01 0.  1.
         25    2    1    2    0    0  0.00000000000E+00  0.00000000000E+00 -0.63772708300E+02  0.14033078851E+03  0.12500308748E+03 0.  0.
    9000005    1    3    3    0    0  0.18861209983E+02  0.11679838705E+02 -0.97473408473E+02  0.99971142004E+02  0.10000000000E+01 0.  0.
    9000005    1    3    3    0    0 -0.18861209983E+02 -0.11679838705E+02  0.33700700173E+02  0.40359646509E+02  0.10000000000E+01 0.  0.
<mgrwt>
<rscale>  0 0.12500309E+03</rscale>
<asrwt>0</asrwt>
<pdfrwt beam="2">  1        4 0.15700269E-01 0.12500309E+03</pdfrwt>
<pdfrwt beam="1">  1       -4 0.58890831E-02 0.12500309E+03</pdfrwt>
<totfact> 0.10126030E+04</totfact>
</mgrwt>
</event>
<event>
 5    1  0.3191162E-002  0.1250005E+03  0.7818608E-02  0.1235068E+00
          4   -1    0    0  501    0  0.00000000000E+00  0.00000000000E+00  0.71845228660E+03  0.71845340908E+03  0.12700000000E+01 0. -1.
         -4   -1    0    0    0  501 -0.00000000000E+00 -0.00000000000E+00 -0.53617756002E+01  0.55101304510E+01  0.12700000000E+01 0. -1.
         25    2    1    2    0    0  0.00000000000E+00  0.00000000000E+00  0.71309051100E+03  0.72396353953E+03  0.12500051878E+03 0.  0.
    9000005    1    3    3    0    0 -0.25010067419E+02  0.42991861236E+02  0.13741752419E+03  0.14614506341E+03  0.10000000000E+01 0.  0.
    9000005    1    3    3    0    0  0.25010067419E+02 -0.42991861236E+02  0.57567298682E+03  0.57781847613E+03  0.10000000000E+01 0.  0.
<mgrwt>
<rscale>  0 0.12500052E+03</rscale>
<asrwt>0</asrwt>
<pdfrwt beam="1">  1        4 0.11054255E+00 0.12500052E+03</pdfrwt>
<pdfrwt beam="2">  1       -4 0.83638735E-03 0.12500052E+03</pdfrwt>
<totfact> 0.41851015E+03</totfact>
</mgrwt>
</event>
<event>
 5    1  0.3191162E-002  0.1250012E+03  0.7818608E-02  0.1235067E+00
         -4   -1    0    0    0  501 -0.00000000000E+00  0.00000000000E+00  0.13864758678E+02  0.13922802635E+02  0.12700000000E+01 0.  1.
          4   -1    0    0  501    0  0.00000000000E+00 -0.00000000000E+00 -0.28109702433E+03  0.28109989325E+03  0.12700000000E+01 0.  1.
         25    2    1    2    0    0  0.00000000000E+00  0.00000000000E+00 -0.26723226565E+03  0.29502269588E+03  0.12500122913E+03 0.  0.
    9000005    1    3    3    0    0  0.31307079085E+02 -0.14333881882E+02 -0.10531363752E+02  0.36020868855E+02  0.10000000000E+01 0.  0.
    9000005    1    3    3    0    0 -0.31307079085E+02  0.14333881882E+02 -0.25670090190E+03  0.25900182703E+03  0.10000000000E+01 0.  0.
<mgrwt>
<rscale>  0 0.12500123E+03</rscale>
<asrwt>0</asrwt>
<pdfrwt beam="2">  1        4 0.43250377E-01 0.12500123E+03</pdfrwt>
<pdfrwt beam="1">  1       -4 0.21377256E-02 0.12500123E+03</pdfrwt>
<totfact> 0.76225376E+03</totfact>
</mgrwt>
</event>
<event>
 5    1  0.3191162E-002  0.1250112E+03  0.7818608E-02  0.1235052E+00
         -4   -1    0    0    0  501 -0.00000000000E+00  0.00000000000E+00  0.13997108888E+02  0.14054606263E+02  0.12700000000E+01 0.  1.
          4   -1    0    0  501    0  0.00000000000E+00 -0.00000000000E+00 -0.27849421657E+03  0.27849711230E+03  0.12700000000E+01 0.  1.
         25    2    1    2    0    0  0.00000000000E+00  0.00000000000E+00 -0.26449710768E+03  0.29255171857E+03  0.12501115176E+03 0.  0.
    9000005    1    3    3    0    0  0.56836966157E+02 -0.13504552592E+02 -0.18421656374E+03  0.19326033225E+03  0.10000000000E+01 0.  0.
    9000005    1    3    3    0    0 -0.56836966157E+02  0.13504552592E+02 -0.80280543937E+02  0.99291386321E+02  0.10000000000E+01 0.  0.
<mgrwt>
<rscale>  0 0.12501115E+03</rscale>
<asrwt>0</asrwt>
<pdfrwt beam="2">  1        4 0.42849906E-01 0.12501115E+03</pdfrwt>
<pdfrwt beam="1">  1       -4 0.21580472E-02 0.12501115E+03</pdfrwt>
<totfact> 0.76523785E+03</totfact>
</mgrwt>
</event>
<event>
 5    1  0.3191162E-002  0.1250010E+03  0.7818608E-02  0.1235068E+00
          4   -1    0    0  501    0  0.00000000000E+00  0.00000000000E+00  0.25662267230E+02  0.25693673528E+02  0.12700000000E+01 0. -1.
         -4   -1    0    0    0  501 -0.00000000000E+00 -0.00000000000E+00 -0.15209294931E+03  0.15209825156E+03  0.12700000000E+01 0. -1.
         25    2    1    2    0    0  0.00000000000E+00  0.00000000000E+00 -0.12643068208E+03  0.17779192509E+03  0.12500100503E+03 0.  0.
    9000005    1    3    3    0    0 -0.25012493429E+02  0.47090313210E+02 -0.16860007396E+02  0.55931943245E+02  0.10000000000E+01 0.  0.
    9000005    1    3    3    0    0  0.25012493429E+02 -0.47090313210E+02 -0.10957067468E+03  0.12185998185E+03  0.10000000000E+01 0.  0.
<mgrwt>
<rscale>  0 0.12500101E+03</rscale>
<asrwt>0</asrwt>
<pdfrwt beam="1">  1        4 0.39508650E-02 0.12500101E+03</pdfrwt>
<pdfrwt beam="2">  1       -4 0.23401738E-01 0.12500101E+03</pdfrwt>
<totfact> 0.94013862E+03</totfact>
</mgrwt>
</event>
<event>
 5    1  0.3191162E-002  0.1249961E+03  0.7818608E-02  0.1235075E+00
          4   -1    0    0  501    0  0.00000000000E+00  0.00000000000E+00  0.12859703509E+02  0.12922262741E+02  0.12700000000E+01 0. -1.
         -4   -1    0    0    0  501 -0.00000000000E+00 -0.00000000000E+00 -0.30293914976E+03  0.30294181183E+03  0.12700000000E+01 0. -1.
         25    2    1    2    0    0  0.00000000000E+00  0.00000000000E+00 -0.29007944625E+03  0.31586407457E+03  0.12499611382E+03 0.  0.
    9000005    1    3    3    0    0  0.38583773323E+02  0.48700124202E+02 -0.16191530540E+03  0.17343003138E+03  0.10000000000E+01 0.  0.
    9000005    1    3    3    0    0 -0.38583773323E+02 -0.48700124202E+02 -0.12816414085E+03  0.14243404319E+03  0.10000000000E+01 0.  0.
<mgrwt>
<rscale>  0 0.12499611E+03</rscale>
<asrwt>0</asrwt>
<pdfrwt beam="1">  1        4 0.19834332E-02 0.12499611E+03</pdfrwt>
<pdfrwt beam="2">  1       -4 0.46611034E-01 0.12499611E+03</pdfrwt>
<totfact> 0.73657103E+03</totfact>
</mgrwt>
</event>
<event>
 5    1  0.3191162E-002  0.1250009E+03  0.7818608E-02  0.1235068E+00
          4   -1    0    0  501    0  0.00000000000E+00  0.00000000000E+00  0.50599407327E+01  0.52168860653E+01  0.12700000000E+01 0. -1.
         -4   -1    0    0    0  501 -0.00000000000E+00 -0.00000000000E+00 -0.76005953330E+03  0.76006059433E+03  0.12700000000E+01 0. -1.
         25    2    1    2    0    0  0.00000000000E+00  0.00000000000E+00 -0.75499959257E+03  0.76527748040E+03  0.12500094892E+03 0.  0.
    9000005    1    3    3    0    0 -0.60925945469E+02 -0.73894649680E+01 -0.44961013276E+03  0.45378061495E+03  0.10000000000E+01 0.  0.
    9000005    1    3    3    0    0  0.60925945469E+02  0.73894649680E+01 -0.30538945981E+03  0.31149686545E+03  0.10000000000E+01 0.  0.
<mgrwt>
<rscale>  0 0.12500095E+03</rscale>
<asrwt>0</asrwt>
<pdfrwt beam="1">  1        4 0.79060736E-03 0.12500095E+03</pdfrwt>
<pdfrwt beam="2">  1       -4 0.11694430E+00 0.12500095E+03</pdfrwt>
<totfact> 0.39853057E+03</totfact>
</mgrwt>
</event>
<event>
 5    1  0.3191162E-002  0.1250022E+03  0.7818608E-02  0.1235066E+00
         -4   -1    0    0    0  501 -0.00000000000E+00  0.00000000000E+00  0.48257716389E+03  0.48257883502E+03  0.12700000000E+01 0. -1.
          4   -1    0    0  501    0  0.00000000000E+00 -0.00000000000E+00 -0.80433406985E+01  0.81429865278E+01  0.12700000000E+01 0. -1.
         25    2    1    2    0    0  0.00000000000E+00  0.00000000000E+00  0.47453382320E+03  0.49072182155E+03  0.12500222714E+03 0.  0.
    9000005    1    3    3    0    0  0.40674687227E+02 -0.27926900907E+02  0.38783430327E+03  0.39096136480E+03  0.10000000000E+01 0.  0.
    9000005    1    3    3    0    0 -0.40674687227E+02  0.27926900907E+02  0.86699519926E+02  0.99760456749E+02  0.10000000000E+01 0.  0.
<mgrwt>
<rscale>  0 0.12500223E+03</rscale>
<asrwt>0</asrwt>
<pdfrwt beam="2">  1        4 0.12452303E-02 0.12500223E+03</pdfrwt>
<pdfrwt beam="1">  1       -4 0.74250456E-01 0.12500223E+03</pdfrwt>
<totfact> 0.56588709E+03</totfact>
</mgrwt>
</event>
<event>
 5    1  0.3191162E-002  0.1249937E+03  0.7818608E-02  0.1235079E+00
         -4   -1    0    0    0  501 -0.00000000000E+00  0.00000000000E+00  0.10112484034E+03  0.10113281482E+03  0.12700000000E+01 0. -1.
          4   -1    0    0  501    0  0.00000000000E+00 -0.00000000000E+00 -0.38604171353E+02  0.38625055934E+02  0.12700000000E+01 0. -1.
         25    2    1    2    0    0  0.00000000000E+00  0.00000000000E+00  0.62520668988E+02  0.13975787076E+03  0.12499371339E+03 0.  0.
    9000005    1    3    3    0    0 -0.21631408895E+02  0.62066831478E+01  0.96442141478E+02  0.99038009972E+02  0.10000000000E+01 0.  0.
    9000005    1    3    3    0    0  0.21631408895E+02 -0.62066831478E+01 -0.33921472490E+02  0.40719860785E+02  0.10000000000E+01 0.  0.
<mgrwt>
<rscale>  0 0.12499371E+03</rscale>
<asrwt>0</asrwt>
<pdfrwt beam="2">  1        4 0.59413234E-02 0.12499371E+03</pdfrwt>
<pdfrwt beam="1">  1       -4 0.15559887E-01 0.12499371E+03</pdfrwt>
<totfact> 0.10140043E+04</totfact>
</mgrwt>
</event>
<event>
 5    1  0.3191162E-002  0.1250015E+03  0.7818608E-02  0.1235067E+00
          4   -1    0    0  501    0  0.00000000000E+00  0.00000000000E+00  0.41980415602E+03  0.41980607703E+03  0.12700000000E+01 0.  1.
         -4   -1    0    0    0  501 -0.00000000000E+00 -0.00000000000E+00 -0.92598724197E+01  0.93465575069E+01  0.12700000000E+01 0.  1.
         25    2    1    2    0    0  0.00000000000E+00  0.00000000000E+00  0.41054428360E+03  0.42915263454E+03  0.12500149973E+03 0.  0.
    9000005    1    3    3    0    0 -0.46488212667E+02 -0.16601176000E+00  0.34865261241E+03  0.35173971288E+03  0.10000000000E+01 0.  0.
    9000005    1    3    3    0    0  0.46488212667E+02  0.16601176000E+00  0.61891671194E+02  0.77412921661E+02  0.10000000000E+01 0.  0.
<mgrwt>
<rscale>  0 0.12500150E+03</rscale>
<asrwt>0</asrwt>
<pdfrwt beam="1">  1        4 0.64592066E-01 0.12500150E+03</pdfrwt>
<pdfrwt beam="2">  1       -4 0.14314117E-02 0.12500150E+03</pdfrwt>
<totfact> 0.61810832E+03</totfact>
</mgrwt>
</event>
<event>
 5    1  0.3191162E-002  0.1249903E+03  0.7818608E-02  0.1235084E+00
         -4   -1    0    0    0  501 -0.00000000000E+00  0.00000000000E+00  0.22883590871E+02  0.22918805186E+02  0.12700000000E+01 0. -1.
          4   -1    0    0  501    0  0.00000000000E+00 -0.00000000000E+00 -0.17050564155E+03  0.17051037124E+03  0.12700000000E+01 0. -1.
         25    2    1    2    0    0  0.00000000000E+00  0.00000000000E+00 -0.14762205068E+03  0.19342917642E+03  0.12499030541E+03 0.  0.
    9000005    1    3    3    0    0  0.21449142828E+01  0.11911063804E+02 -0.16868210979E+03  0.16911868099E+03  0.10000000000E+01 0.  0.
    9000005    1    3    3    0    0 -0.21449142828E+01 -0.11911063804E+02  0.21060059113E+02  0.24310495430E+02  0.10000000000E+01 0.  0.
<mgrwt>
<rscale>  0 0.12499031E+03</rscale>
<asrwt>0</asrwt>
<pdfrwt beam="2">  1        4 0.26234709E-01 0.12499031E+03</pdfrwt>
<pdfrwt beam="1">  1       -4 0.35236252E-02 0.12499031E+03</pdfrwt>
<totfact> 0.91273862E+03</totfact>
</mgrwt>
</event>
<event>
 5    1  0.3191162E-002  0.1249987E+03  0.7818608E-02  0.1235071E+00
          4   -1    0    0  501    0  0.00000000000E+00  0.00000000000E+00  0.15399429684E+03  0.15399953363E+03  0.12700000000E+01 0.  1.
         -4   -1    0    0    0  501 -0.00000000000E+00 -0.00000000000E+00 -0.25344112529E+02  0.25375912593E+02  0.12700000000E+01 0.  1.
         25    2    1    2    0    0  0.00000000000E+00  0.00000000000E+00  0.12865018431E+03  0.17937544622E+03  0.12499872313E+03 0.  0.
    9000005    1    3    3    0    0  0.21232439179E+02 -0.58454216201E+02  0.73107864596E+02  0.95986831028E+02  0.10000000000E+01 0.  0.
    9000005    1    3    3    0    0 -0.21232439179E+02  0.58454216201E+02  0.55542319712E+02  0.83388615195E+02  0.10000000000E+01 0.  0.
<mgrwt>
<rscale>  0 0.12499872E+03</rscale>
<asrwt>0</asrwt>
<pdfrwt beam="1">  1        4 0.23694279E-01 0.12499872E+03</pdfrwt>
<pdfrwt beam="2">  1       -4 0.39019433E-02 0.12499872E+03</pdfrwt>
<totfact> 0.93732229E+03</totfact>
</mgrwt>
</event>
<event>
 5    1  0.3191162E-002  0.1249984E+03  0.7818608E-02  0.1235072E+00
         -4   -1    0    0    0  501 -0.00000000000E+00  0.00000000000E+00  0.81691486565E+02  0.81701357866E+02  0.12700000000E+01 0. -1.
          4   -1    0    0  501    0  0.00000000000E+00 -0.00000000000E+00 -0.47794707910E+02  0.47811578140E+02  0.12700000000E+01 0. -1.
         25    2    1    2    0    0  0.00000000000E+00  0.00000000000E+00  0.33896778654E+02  0.12951293601E+03  0.12499843595E+03 0.  0.
    9000005    1    3    3    0    0  0.13590690633E+02  0.76586790247E+01 -0.45749841686E+02  0.48346770839E+02  0.10000000000E+01 0.  0.
    9000005    1    3    3    0    0 -0.13590690633E+02 -0.76586790247E+01  0.79646620340E+02  0.81166165167E+02  0.10000000000E+01 0.  0.
<mgrwt>
<rscale>  0 0.12499844E+03</rscale>
<asrwt>0</asrwt>
<pdfrwt beam="2">  1        4 0.73550891E-02 0.12499844E+03</pdfrwt>
<pdfrwt beam="1">  1       -4 0.12569978E-01 0.12499844E+03</pdfrwt>
<totfact> 0.10355303E+04</totfact>
</mgrwt>
</event>
<event>
 5    1  0.3191162E-002  0.1250030E+03  0.7818608E-02  0.1235065E+00
         -4   -1    0    0    0  501 -0.00000000000E+00  0.00000000000E+00  0.13959739445E+02  0.14017390106E+02  0.12700000000E+01 0.  1.
          4   -1    0    0  501    0  0.00000000000E+00 -0.00000000000E+00 -0.27920002997E+03  0.27920291839E+03  0.12700000000E+01 0.  1.
         25    2    1    2    0    0  0.00000000000E+00  0.00000000000E+00 -0.26524029053E+03  0.29322030849E+03  0.12500295034E+03 0.  0.
    9000005    1    3    3    0    0  0.41098303413E+01  0.51824687616E+02 -0.21397072339E+03  0.22019800049E+03  0.10000000000E+01 0.  0.
    9000005    1    3    3    0    0 -0.41098303413E+01 -0.51824687616E+02 -0.51269567139E+02  0.73022308006E+02  0.10000000000E+01 0.  0.
<mgrwt>
<rscale>  0 0.12500295E+03</rscale>
<asrwt>0</asrwt>
<pdfrwt beam="2">  1        4 0.42958503E-01 0.12500295E+03</pdfrwt>
<pdfrwt beam="1">  1       -4 0.21523093E-02 0.12500295E+03</pdfrwt>
<totfact> 0.76452210E+03</totfact>
</mgrwt>
</event>
<event>
 5    1  0.3191162E-002  0.1250028E+03  0.7818608E-02  0.1235065E+00
          4   -1    0    0  501    0  0.00000000000E+00  0.00000000000E+00  0.22122365711E+04  0.22122369357E+04  0.12700000000E+01 0. -1.
         -4   -1    0    0    0  501 -0.00000000000E+00 -0.00000000000E+00 -0.15370638749E+01  0.19938569045E+01  0.12700000000E+01 0. -1.
         25    2    1    2    0    0  0.00000000000E+00  0.00000000000E+00  0.22106995072E+04  0.22142307926E+04  0.12500276561E+03 0.  0.
    9000005    1    3    3    0    0 -0.94048129618E+01  0.51077652441E+02  0.48968405429E+03  0.49243156897E+03  0.10000000000E+01 0.  0.
    9000005    1    3    3    0    0  0.94048129618E+01 -0.51077652441E+02  0.17210154530E+04  0.17217992236E+04  0.10000000000E+01 0.  0.
<mgrwt>
<rscale>  0 0.12500277E+03</rscale>
<asrwt>0</asrwt>
<pdfrwt beam="1">  1        4 0.34038039E+00 0.12500277E+03</pdfrwt>
<pdfrwt beam="2">  1       -4 0.27163642E-03 0.12500277E+03</pdfrwt>
<totfact> 0.73173081E+02</totfact>
</mgrwt>
</event>
<event>
 5    1  0.3191162E-002  0.1249998E+03  0.7818608E-02  0.1235070E+00
          4   -1    0    0  501    0  0.00000000000E+00  0.00000000000E+00  0.56118939787E+02  0.56133308319E+02  0.12700000000E+01 0.  1.
         -4   -1    0    0    0  501 -0.00000000000E+00 -0.00000000000E+00 -0.69577304297E+02  0.69588894036E+02  0.12700000000E+01 0.  1.
         25    2    1    2    0    0  0.00000000000E+00  0.00000000000E+00 -0.13458364510E+02  0.12572220236E+03  0.12499977836E+03 0.  0.
    9000005    1    3    3    0    0  0.61454326868E+02 -0.10938106814E+02 -0.37186111541E+01  0.62538824265E+02  0.10000000000E+01 0.  0.
    9000005    1    3    3    0    0 -0.61454326868E+02  0.10938106814E+02 -0.97397533556E+01  0.63183378091E+02  0.10000000000E+01 0.  0.
<mgrwt>
<rscale>  0 0.12499978E+03</rscale>
<asrwt>0</asrwt>
<pdfrwt beam="1">  1        4 0.86356799E-02 0.12499978E+03</pdfrwt>
<pdfrwt beam="2">  1       -4 0.10706197E-01 0.12499978E+03</pdfrwt>
<totfact> 0.10437108E+04</totfact>
</mgrwt>
</event>
<event>
 5    1  0.3191162E-002  0.1249995E+03  0.7818608E-02  0.1235070E+00
         -4   -1    0    0    0  501 -0.00000000000E+00  0.00000000000E+00  0.59207076552E+02  0.59220695824E+02  0.12700000000E+01 0. -1.
          4   -1    0    0  501    0  0.00000000000E+00 -0.00000000000E+00 -0.65948248887E+02  0.65960476281E+02  0.12700000000E+01 0. -1.
         25    2    1    2    0    0  0.00000000000E+00  0.00000000000E+00 -0.67411723346E+01  0.12518117211E+03  0.12499952978E+03 0.  0.
    9000005    1    3    3    0    0  0.47589632744E+02  0.48981079887E+00 -0.43928913688E+02  0.64774705843E+02  0.10000000000E+01 0.  0.
    9000005    1    3    3    0    0 -0.47589632744E+02 -0.48981079887E+00  0.37187741353E+02  0.60406466262E+02  0.10000000000E+01 0.  0.
<mgrwt>
<rscale>  0 0.12499953E+03</rscale>
<asrwt>0</asrwt>
<pdfrwt beam="2">  1        4 0.10147873E-01 0.12499953E+03</pdfrwt>
<pdfrwt beam="1">  1       -4 0.91107693E-02 0.12499953E+03</pdfrwt>
<totfact> 0.10449040E+04</totfact>
</mgrwt>
</event>
<event>
 5    1  0.3191162E-002  0.1250009E+03  0.7818608E-02  0.1235068E+00
          4   -1    0    0  501    0  0.00000000000E+00  0.00000000000E+00  0.41775096496E+02  0.41794396601E+02  0.12700000000E+01 0.  1.
         -4   -1    0    0    0  501 -0.00000000000E+00 -0.00000000000E+00 -0.93462752053E+02  0.93471380226E+02  0.12700000000E+01 0.  1.
         25    2    1    2    0    0  0.00000000000E+00  0.00000000000E+00 -0.51687655557E+02  0.13526577683E+03  0.12500086657E+03 0.  0.
    9000005    1    3    3    0    0  0.51718275641E+02  0.22894183750E+02  0.29165277764E+01  0.56643003267E+02  0.10000000000E+01 0.  0.
    9000005    1    3    3    0    0 -0.51718275641E+02 -0.22894183750E+02 -0.54604183333E+02  0.78622773560E+02  0.10000000000E+01 0.  0.
<mgrwt>
<rscale>  0 0.12500087E+03</rscale>
<asrwt>0</asrwt>
<pdfrwt beam="1">  1        4 0.64290863E-02 0.12500087E+03</pdfrwt>
<pdfrwt beam="2">  1       -4 0.14381033E-01 0.12500087E+03</pdfrwt>
<totfact> 0.10232272E+04</totfact>
</mgrwt>
</event>
<event>
 5    1  0.3191162E-002  0.1250004E+03  0.7818608E-02  0.1235069E+00
          4   -1    0    0  501    0  0.00000000000E+00  0.00000000000E+00  0.16012507641E+02  0.16062792439E+02  0.12700000000E+01 0.  1.
         -4   -1    0    0    0  501 -0.00000000000E+00 -0.00000000000E+00 -0.24351724198E+03  0.24352055363E+03  0.12700000000E+01 0.  1.
         25    2    1    2    0    0  0.00000000000E+00  0.00000000000E+00 -0.22750473434E+03  0.25958334607E+03  0.12500043764E+03 0.  0.
    9000005    1    3    3    0    0 -0.18382764960E+02  0.25356030772E+02 -0.14509106937E+01  0.31368128506E+02  0.10000000000E+01 0.  0.
    9000005    1    3    3    0    0  0.18382764960E+02 -0.25356030772E+02 -0.22605382364E+03  0.22821521756E+03  0.10000000000E+01 0.  0.
<mgrwt>
<rscale>  0 0.12500044E+03</rscale>
<asrwt>0</asrwt>
<pdfrwt beam="1">  1        4 0.24675857E-02 0.12500044E+03</pdfrwt>
<pdfrwt beam="2">  1       -4 0.37468311E-01 0.12500044E+03</pdfrwt>
<totfact> 0.80963780E+03</totfact>
</mgrwt>
</event>
<event>
 5    1  0.3191162E-002  0.1250052E+03  0.7818608E-02  0.1235061E+00
          4   -1    0    0  501    0  0.00000000000E+00  0.00000000000E+00  0.76011182062E+00  0.14800912066E+01  0.12700000000E+01 0.  1.
         -4   -1    0    0    0  501 -0.00000000000E+00 -0.00000000000E+00 -0.34869759167E+04  0.34869761480E+04  0.12700000000E+01 0.  1.
         25    2    1    2    0    0  0.00000000000E+00  0.00000000000E+00 -0.34862158049E+04  0.34884562392E+04  0.12500517787E+03 0.  0.
    9000005    1    3    3    0    0 -0.41283196015E+02 -0.35259853651E+02 -0.87935161671E+03  0.88102657472E+03  0.10000000000E+01 0.  0.
    9000005    1    3    3    0    0  0.41283196015E+02  0.35259853651E+02 -0.26068641882E+04  0.26074296645E+04  0.10000000000E+01 0.  0.
<mgrwt>
<rscale>  0 0.12500518E+03</rscale>
<asrwt>0</asrwt>
<pdfrwt beam="1">  1        4 0.17234389E-03 0.12500518E+03</pdfrwt>
<pdfrwt beam="2">  1       -4 0.53650454E+00 0.12500518E+03</pdfrwt>
<totfact> 0.59443313E+01</totfact>
</mgrwt>
</event>
<event>
 5    1  0.3191162E-002  0.1249978E+03  0.7818608E-02  0.1235073E+00
          4   -1    0    0  501    0  0.00000000000E+00  0.00000000000E+00  0.18904747403E+02  0.18947357979E+02  0.12700000000E+01 0. -1.
         -4   -1    0    0    0  501 -0.00000000000E+00 -0.00000000000E+00 -0.20634360829E+03  0.20634751654E+03  0.12700000000E+01 0. -1.
         25    2    1    2    0    0  0.00000000000E+00  0.00000000000E+00 -0.18743886089E+03  0.22529487452E+03  0.12499781564E+03 0.  0.
    9000005    1    3    3    0    0  0.41582773902E+02  0.44532070833E+02 -0.68687538210E+02  0.91821622309E+02  0.10000000000E+01 0.  0.
    9000005    1    3    3    0    0 -0.41582773902E+02 -0.44532070833E+02 -0.11875132268E+03  0.13347325221E+03  0.10000000000E+01 0.  0.
<mgrwt>
<rscale>  0 0.12499782E+03</rscale>
<asrwt>0</asrwt>
<pdfrwt beam="1">  1        4 0.29120012E-02 0.12499782E+03</pdfrwt>
<pdfrwt beam="2">  1       -4 0.31748747E-01 0.12499782E+03</pdfrwt>
<totfact> 0.86041545E+03</totfact>
</mgrwt>
</event>
<event>
 5    1  0.3191162E-002  0.1249994E+03  0.7818608E-02  0.1235070E+00
         -4   -1    0    0    0  501 -0.00000000000E+00  0.00000000000E+00  0.15917735512E+03  0.15918242140E+03  0.12700000000E+01 0. -1.
          4   -1    0    0  501    0  0.00000000000E+00 -0.00000000000E+00 -0.24518127317E+02  0.24550997273E+02  0.12700000000E+01 0. -1.
         25    2    1    2    0    0  0.00000000000E+00  0.00000000000E+00  0.13465922780E+03  0.18373341867E+03  0.12499944602E+03 0.  0.
    9000005    1    3    3    0    0 -0.75961130633E+01  0.61910937489E+02  0.61722808660E+02  0.87757451099E+02  0.10000000000E+01 0.  0.
    9000005    1    3    3    0    0  0.75961130633E+01 -0.61910937489E+02  0.72936419140E+02  0.95975967572E+02  0.10000000000E+01 0.  0.
<mgrwt>
<rscale>  0 0.12499945E+03</rscale>
<asrwt>0</asrwt>
<pdfrwt beam="2">  1        4 0.37749379E-02 0.12499945E+03</pdfrwt>
<pdfrwt beam="1">  1       -4 0.24491741E-01 0.12499945E+03</pdfrwt>
<totfact> 0.92950414E+03</totfact>
</mgrwt>
</event>
<event>
 5    1  0.3191162E-002  0.1249962E+03  0.7818608E-02  0.1235075E+00
          4   -1    0    0  501    0  0.00000000000E+00  0.00000000000E+00  0.55572242055E+03  0.55572387172E+03  0.12700000000E+01 0. -1.
         -4   -1    0    0    0  501 -0.00000000000E+00 -0.00000000000E+00 -0.69698671524E+01  0.70846275923E+01  0.12700000000E+01 0. -1.
         25    2    1    2    0    0  0.00000000000E+00  0.00000000000E+00  0.54875255339E+03  0.56280849931E+03  0.12499616810E+03 0.  0.
    9000005    1    3    3    0    0  0.84679243165E+01 -0.49328578068E+02  0.44284813611E+03  0.44566858316E+03  0.10000000000E+01 0.  0.
    9000005    1    3    3    0    0 -0.84679243165E+01  0.49328578068E+02  0.10590441728E+03  0.11713991615E+03  0.10000000000E+01 0.  0.
<mgrwt>
<rscale>  0 0.12499617E+03</rscale>
<asrwt>0</asrwt>
<pdfrwt beam="1">  1        4 0.85504703E-01 0.12499617E+03</pdfrwt>
<pdfrwt beam="2">  1       -4 0.10812265E-02 0.12499617E+03</pdfrwt>
<totfact> 0.51306987E+03</totfact>
</mgrwt>
</event>
<event>
 5    1  0.3191162E-002  0.1249996E+03  0.7818608E-02  0.1235070E+00
          4   -1    0    0  501    0  0.00000000000E+00  0.00000000000E+00  0.43025358981E+03  0.43025546416E+03  0.12700000000E+01 0. -1.
         -4   -1    0    0    0  501 -0.00000000000E+00 -0.00000000000E+00 -0.90325751780E+01  0.91214206320E+01  0.12700000000E+01 0. -1.
         25    2    1    2    0    0  0.00000000000E+00  0.00000000000E+00  0.42122101463E+03  0.43937688479E+03  0.12499961491E+03 0.  0.
    9000005    1    3    3    0    0 -0.47744803899E+02 -0.37376628703E+02  0.15745949626E+03  0.16873372999E+03  0.10000000000E+01 0.  0.
    9000005    1    3    3    0    0  0.47744803899E+02  0.37376628703E+02  0.26376151836E+03  0.27064315480E+03  0.10000000000E+01 0.  0.
<mgrwt>
<rscale>  0 0.12499961E+03</rscale>
<asrwt>0</asrwt>
<pdfrwt beam="1">  1        4 0.66199827E-01 0.12499961E+03</pdfrwt>
<pdfrwt beam="2">  1       -4 0.13966056E-02 0.12499961E+03</pdfrwt>
<totfact> 0.60895656E+03</totfact>
</mgrwt>
</event>
<event>
 5    1  0.3191162E-002  0.1250001E+03  0.7818608E-02  0.1235069E+00
         -4   -1    0    0    0  501 -0.00000000000E+00  0.00000000000E+00  0.82810959999E+01  0.83779144756E+01  0.12700000000E+01 0.  1.
          4   -1    0    0  501    0  0.00000000000E+00 -0.00000000000E+00 -0.46886885106E+03  0.46887057105E+03  0.12700000000E+01 0.  1.
         25    2    1    2    0    0  0.00000000000E+00  0.00000000000E+00 -0.46058775506E+03  0.47724848552E+03  0.12500014729E+03 0.  0.
    9000005    1    3    3    0    0 -0.53174956032E+02  0.20762964286E+02 -0.13321024205E+03  0.14492979411E+03  0.10000000000E+01 0.  0.
    9000005    1    3    3    0    0  0.53174956032E+02 -0.20762964286E+02 -0.32737751301E+03  0.33231869141E+03  0.10000000000E+01 0.  0.
<mgrwt>
<rscale>  0 0.12500015E+03</rscale>
<asrwt>0</asrwt>
<pdfrwt beam="2">  1        4 0.72141229E-01 0.12500015E+03</pdfrwt>
<pdfrwt beam="1">  1       -4 0.12815950E-02 0.12500015E+03</pdfrwt>
<totfact> 0.57673671E+03</totfact>
</mgrwt>
</event>
<event>
 5    1  0.3191162E-002  0.1250011E+03  0.7818608E-02  0.1235068E+00
          4   -1    0    0  501    0  0.00000000000E+00  0.00000000000E+00  0.15349629219E+03  0.15350154598E+03  0.12700000000E+01 0.  1.
         -4   -1    0    0    0  501 -0.00000000000E+00 -0.00000000000E+00 -0.25427421951E+02  0.25459117955E+02  0.12700000000E+01 0.  1.
         25    2    1    2    0    0  0.00000000000E+00  0.00000000000E+00  0.12806887024E+03  0.17896066393E+03  0.12500113483E+03 0.  0.
    9000005    1    3    3    0    0 -0.12139766258E+02 -0.15601595878E+02 -0.20840156817E+02  0.28741883287E+02  0.10000000000E+01 0.  0.
    9000005    1    3    3    0    0  0.12139766258E+02  0.15601595878E+02  0.14890902706E+03  0.15021878064E+03  0.10000000000E+01 0.  0.
<mgrwt>
<rscale>  0 0.12500113E+03</rscale>
<asrwt>0</asrwt>
<pdfrwt beam="1">  1        4 0.23617656E-01 0.12500113E+03</pdfrwt>
<pdfrwt beam="2">  1       -4 0.39147534E-02 0.12500113E+03</pdfrwt>
<totfact> 0.93802035E+03</totfact>
</mgrwt>
</event>
<event>
 5    1  0.3191162E-002  0.1249994E+03  0.7818608E-02  0.1235070E+00
          4   -1    0    0  501    0  0.00000000000E+00  0.00000000000E+00  0.53332928215E+03  0.53333079425E+03  0.12700000000E+01 0.  1.
         -4   -1    0    0    0  501 -0.00000000000E+00 -0.00000000000E+00 -0.72676211218E+01  0.73777514711E+01  0.12700000000E+01 0.  1.
         25    2    1    2    0    0  0.00000000000E+00  0.00000000000E+00  0.52606166102E+03  0.54070854572E+03  0.12499944086E+03 0.  0.
    9000005    1    3    3    0    0 -0.52903628059E+02 -0.11245135094E+02  0.39844407345E+03  0.40209939890E+03  0.10000000000E+01 0.  0.
    9000005    1    3    3    0    0  0.52903628059E+02  0.11245135094E+02  0.12761758757E+03  0.13860914682E+03  0.10000000000E+01 0.  0.
<mgrwt>
<rscale>  0 0.12499944E+03</rscale>
<asrwt>0</asrwt>
<pdfrwt beam="1">  1        4 0.82059243E-01 0.12499944E+03</pdfrwt>
<pdfrwt beam="2">  1       -4 0.11266835E-02 0.12499944E+03</pdfrwt>
<totfact> 0.52839317E+03</totfact>
</mgrwt>
</event>
<event>
 5    1  0.3191162E-002  0.1250105E+03  0.7818608E-02  0.1235053E+00
          4   -1    0    0  501    0  0.00000000000E+00  0.00000000000E+00  0.17307423038E+02  0.17353956097E+02  0.12700000000E+01 0. -1.
         -4   -1    0    0    0  501 -0.00000000000E+00 -0.00000000000E+00 -0.22538458560E+03  0.22538816367E+03  0.12700000000E+01 0. -1.
         25    2    1    2    0    0  0.00000000000E+00  0.00000000000E+00 -0.20807716256E+03  0.24274211977E+03  0.12501052409E+03 0.  0.
    9000005    1    3    3    0    0 -0.46966566880E+02 -0.41231526500E+02 -0.10383865164E+03  0.12119968134E+03  0.10000000000E+01 0.  0.
    9000005    1    3    3    0    0  0.46966566880E+02  0.41231526500E+02 -0.10423851092E+03  0.12154243844E+03  0.10000000000E+01 0.  0.
<mgrwt>
<rscale>  0 0.12501052E+03</rscale>
<asrwt>0</asrwt>
<pdfrwt beam="1">  1        4 0.26665353E-02 0.12501052E+03</pdfrwt>
<pdfrwt beam="2">  1       -4 0.34678404E-01 0.12501052E+03</pdfrwt>
<totfact> 0.83371108E+03</totfact>
</mgrwt>
</event>
<event>
 5    1  0.3191162E-002  0.1249973E+03  0.7818608E-02  0.1235073E+00
          4   -1    0    0  501    0  0.00000000000E+00  0.00000000000E+00  0.63711618378E+02  0.63724274937E+02  0.12700000000E+01 0.  1.
         -4   -1    0    0    0  501 -0.00000000000E+00 -0.00000000000E+00 -0.61283454821E+02  0.61296612752E+02  0.12700000000E+01 0.  1.
         25    2    1    2    0    0  0.00000000000E+00  0.00000000000E+00  0.24281635563E+01  0.12502088769E+03  0.12499730549E+03 0.  0.
    9000005    1    3    3    0    0 -0.11910821638E+02  0.36692173067E+02  0.50385317239E+02  0.63465450677E+02  0.10000000000E+01 0.  0.
    9000005    1    3    3    0    0  0.11910821638E+02 -0.36692173067E+02 -0.47957153682E+02  0.61555437012E+02  0.10000000000E+01 0.  0.
<mgrwt>
<rscale>  0 0.12499731E+03</rscale>
<asrwt>0</asrwt>
<pdfrwt beam="1">  1        4 0.98037731E-02 0.12499731E+03</pdfrwt>
<pdfrwt beam="2">  1       -4 0.94302096E-02 0.12499731E+03</pdfrwt>
<totfact> 0.10453045E+04</totfact>
</mgrwt>
</event>
<event>
 5    1  0.3191162E-002  0.1249920E+03  0.7818608E-02  0.1235082E+00
         -4   -1    0    0    0  501 -0.00000000000E+00  0.00000000000E+00  0.25536382301E+02  0.25567943230E+02  0.12700000000E+01 0. -1.
          4   -1    0    0  501    0  0.00000000000E+00 -0.00000000000E+00 -0.15281975058E+03  0.15282502762E+03  0.12700000000E+01 0. -1.
         25    2    1    2    0    0  0.00000000000E+00  0.00000000000E+00 -0.12728336828E+03  0.17839297085E+03  0.12499198458E+03 0.  0.
    9000005    1    3    3    0    0 -0.57588530382E+01 -0.83332306150E+01 -0.15164716834E+03  0.15198839030E+03  0.10000000000E+01 0.  0.
    9000005    1    3    3    0    0  0.57588530382E+01  0.83332306150E+01  0.24363800059E+02  0.26404580552E+02  0.10000000000E+01 0.  0.
<mgrwt>
<rscale>  0 0.12499198E+03</rscale>
<asrwt>0</asrwt>
<pdfrwt beam="2">  1        4 0.23513564E-01 0.12499198E+03</pdfrwt>
<pdfrwt beam="1">  1       -4 0.39315080E-02 0.12499198E+03</pdfrwt>
<totfact> 0.93923958E+03</totfact>
</mgrwt>
</event>
<event>
 5    1  0.3191162E-002  0.1249978E+03  0.7818608E-02  0.1235073E+00
          4   -1    0    0  501    0  0.00000000000E+00  0.00000000000E+00  0.16929797385E+02  0.16977365505E+02  0.12700000000E+01 0.  1.
         -4   -1    0    0    0  501 -0.00000000000E+00 -0.00000000000E+00 -0.23035097894E+03  0.23035447988E+03  0.12700000000E+01 0.  1.
         25    2    1    2    0    0  0.00000000000E+00  0.00000000000E+00 -0.21342118156E+03  0.24733184538E+03  0.12499776399E+03 0.  0.
    9000005    1    3    3    0    0 -0.29934445682E+02  0.49418344015E+02 -0.59600039652E+02  0.83014507708E+02  0.10000000000E+01 0.  0.
    9000005    1    3    3    0    0  0.29934445682E+02 -0.49418344015E+02 -0.15382114191E+03  0.16431733768E+03  0.10000000000E+01 0.  0.
<mgrwt>
<rscale>  0 0.12499776E+03</rscale>
<asrwt>0</asrwt>
<pdfrwt beam="1">  1        4 0.26085128E-02 0.12499776E+03</pdfrwt>
<pdfrwt beam="2">  1       -4 0.35442538E-01 0.12499776E+03</pdfrwt>
<totfact> 0.82721517E+03</totfact>
</mgrwt>
</event>
<event>
 5    1  0.3191162E-002  0.1250020E+03  0.7818608E-02  0.1235066E+00
         -4   -1    0    0    0  501 -0.00000000000E+00  0.00000000000E+00  0.10345254627E+02  0.10422916737E+02  0.12700000000E+01 0.  1.
          4   -1    0    0  501    0  0.00000000000E+00 -0.00000000000E+00 -0.37611017144E+03  0.37611231562E+03  0.12700000000E+01 0.  1.
         25    2    1    2    0    0  0.00000000000E+00  0.00000000000E+00 -0.36576491681E+03  0.38653523235E+03  0.12500204591E+03 0.  0.
    9000005    1    3    3    0    0 -0.30484996275E+02  0.65007374709E+01 -0.15393578042E+02  0.34778683565E+02  0.10000000000E+01 0.  0.
    9000005    1    3    3    0    0  0.30484996275E+02 -0.65007374709E+01 -0.35037133877E+03  0.35175654879E+03  0.10000000000E+01 0.  0.
<mgrwt>
<rscale>  0 0.12500205E+03</rscale>
<asrwt>0</asrwt>
<pdfrwt beam="2">  1        4 0.57869232E-01 0.12500205E+03</pdfrwt>
<pdfrwt beam="1">  1       -4 0.15977169E-02 0.12500205E+03</pdfrwt>
<totfact> 0.65880795E+03</totfact>
</mgrwt>
</event>
<event>
 5    1  0.3191162E-002  0.1250199E+03  0.7818608E-02  0.1235038E+00
          4   -1    0    0  501    0  0.00000000000E+00  0.00000000000E+00  0.67174009080E+03  0.67174129133E+03  0.12700000000E+01 0.  1.
         -4   -1    0    0    0  501 -0.00000000000E+00 -0.00000000000E+00 -0.57464367831E+01  0.58851028625E+01  0.12700000000E+01 0.  1.
         25    2    1    2    0    0  0.00000000000E+00  0.00000000000E+00  0.66599365401E+03  0.67762639420E+03  0.12501993011E+03 0.  0.
    9000005    1    3    3    0    0  0.10730550926E+01  0.62474239074E+02  0.32475225727E+03  0.33071016101E+03  0.10000000000E+01 0.  0.
    9000005    1    3    3    0    0 -0.10730550926E+01 -0.62474239074E+02  0.34124139675E+03  0.34691623319E+03  0.10000000000E+01 0.  0.
<mgrwt>
<rscale>  0 0.12501993E+03</rscale>
<asrwt>0</asrwt>
<pdfrwt beam="1">  1        4 0.10335539E+00 0.12501993E+03</pdfrwt>
<pdfrwt beam="2">  1       -4 0.89482618E-03 0.12501993E+03</pdfrwt>
<totfact> 0.44275063E+03</totfact>
</mgrwt>
</event>
<event>
 5    1  0.3191162E-002  0.1249998E+03  0.7818608E-02  0.1235070E+00
         -4   -1    0    0    0  501 -0.00000000000E+00  0.00000000000E+00  0.16191620524E+03  0.16192118583E+03  0.12700000000E+01 0.  1.
          4   -1    0    0  501    0  0.00000000000E+00 -0.00000000000E+00 -0.24102995042E+02  0.24136430349E+02  0.12700000000E+01 0.  1.
         25    2    1    2    0    0  0.00000000000E+00  0.00000000000E+00  0.13781321020E+03  0.18605761618E+03  0.12499982253E+03 0.  0.
    9000005    1    3    3    0    0 -0.56131993592E+02  0.20285681939E+02  0.41342724514E+02  0.72612192272E+02  0.10000000000E+01 0.  0.
    9000005    1    3    3    0    0  0.56131993592E+02 -0.20285681939E+02  0.96470485688E+02  0.11344542391E+03  0.10000000000E+01 0.  0.
<mgrwt>
<rscale>  0 0.12499982E+03</rscale>
<asrwt>0</asrwt>
<pdfrwt beam="2">  1        4 0.37111080E-02 0.12499982E+03</pdfrwt>
<pdfrwt beam="1">  1       -4 0.24913142E-01 0.12499982E+03</pdfrwt>
<totfact> 0.92538204E+03</totfact>
</mgrwt>
</event>
<event>
 5    1  0.3191162E-002  0.1249962E+03  0.7818608E-02  0.1235075E+00
         -4   -1    0    0    0  501 -0.00000000000E+00  0.00000000000E+00  0.78536700457E+02  0.78546968234E+02  0.12700000000E+01 0. -1.
          4   -1    0    0  501    0  0.00000000000E+00 -0.00000000000E+00 -0.49713236920E+02  0.49729456312E+02  0.12700000000E+01 0. -1.
         25    2    1    2    0    0  0.00000000000E+00  0.00000000000E+00  0.28823463538E+02  0.12827642455E+03  0.12499619612E+03 0.  0.
    9000005    1    3    3    0    0 -0.12123319963E+02  0.51181941091E+01 -0.48280198576E+02  0.50051457245E+02  0.10000000000E+01 0.  0.
    9000005    1    3    3    0    0  0.12123319963E+02 -0.51181941091E+01  0.77103662113E+02  0.78224967300E+02  0.10000000000E+01 0.  0.
<mgrwt>
<rscale>  0 0.12499620E+03</rscale>
<asrwt>0</asrwt>
<pdfrwt beam="2">  1        4 0.76502278E-02 0.12499620E+03</pdfrwt>
<pdfrwt beam="1">  1       -4 0.12084607E-01 0.12499620E+03</pdfrwt>
<totfact> 0.10382414E+04</totfact>
</mgrwt>
</event>
<event>
 5    1  0.3191162E-002  0.1250018E+03  0.7818608E-02  0.1235067E+00
          4   -1    0    0  501    0  0.00000000000E+00  0.00000000000E+00  0.75107580232E+02  0.75118316729E+02  0.12700000000E+01 0. -1.
         -4   -1    0    0    0  501 -0.00000000000E+00 -0.00000000000E+00 -0.51987985545E+02  0.52003495469E+02  0.12700000000E+01 0. -1.
         25    2    1    2    0    0  0.00000000000E+00  0.00000000000E+00  0.23119594686E+02  0.12712181220E+03  0.12500175790E+03 0.  0.
    9000005    1    3    3    0    0 -0.36586674591E+02  0.44016433212E+02  0.37071693024E+02  0.68200744673E+02  0.10000000000E+01 0.  0.
    9000005    1    3    3    0    0  0.36586674591E+02 -0.44016433212E+02 -0.13952098337E+02  0.58921067525E+02  0.10000000000E+01 0.  0.
<mgrwt>
<rscale>  0 0.12500176E+03</rscale>
<asrwt>0</asrwt>
<pdfrwt beam="1">  1        4 0.11557031E-01 0.12500176E+03</pdfrwt>
<pdfrwt beam="2">  1       -4 0.80001706E-02 0.12500176E+03</pdfrwt>
<totfact> 0.10406087E+04</totfact>
</mgrwt>
</event>
<event>
 5    1  0.3191162E-002  0.1249953E+03  0.7818608E-02  0.1235077E+00
         -4   -1    0    0    0  501 -0.00000000000E+00  0.00000000000E+00  0.90091883191E+02  0.90100834163E+02  0.12700000000E+01 0. -1.
          4   -1    0    0  501    0  0.00000000000E+00 -0.00000000000E+00 -0.43334822558E+02  0.43353428309E+02  0.12700000000E+01 0. -1.
         25    2    1    2    0    0  0.00000000000E+00  0.00000000000E+00  0.46757060633E+02  0.13345426247E+03  0.12499526972E+03 0.  0.
    9000005    1    3    3    0    0  0.18454066508E+02 -0.73263838030E+01 -0.39882656122E+02  0.44562929994E+02  0.10000000000E+01 0.  0.
    9000005    1    3    3    0    0 -0.18454066508E+02  0.73263838030E+01  0.86639716755E+02  0.88891332478E+02  0.10000000000E+01 0.  0.
<mgrwt>
<rscale>  0 0.12499527E+03</rscale>
<asrwt>0</asrwt>
<pdfrwt beam="2">  1        4 0.66690156E-02 0.12499527E+03</pdfrwt>
<pdfrwt beam="1">  1       -4 0.13862409E-01 0.12499527E+03</pdfrwt>
<totfact> 0.10271851E+04</totfact>
</mgrwt>
</event>
<event>
 5    1  0.3191162E-002  0.1249941E+03  0.7818608E-02  0.1235079E+00
         -4   -1    0    0    0  501 -0.00000000000E+00  0.00000000000E+00  0.20118297253E+03  0.20118698103E+03  0.12700000000E+01 0. -1.
          4   -1    0    0  501    0  0.00000000000E+00 -0.00000000000E+00 -0.19389596348E+02  0.19431143727E+02  0.12700000000E+01 0. -1.
         25    2    1    2    0    0  0.00000000000E+00  0.00000000000E+00  0.18179337618E+03  0.22061812475E+03  0.12499410125E+03 0.  0.
    9000005    1    3    3    0    0 -0.51188127818E+02  0.98945652820E+01  0.30092693528E+02  0.60205457023E+02  0.10000000000E+01 0.  0.
    9000005    1    3    3    0    0  0.51188127818E+02 -0.98945652820E+01  0.15170068265E+03  0.16041266773E+03  0.10000000000E+01 0.  0.
<mgrwt>
<rscale>  0 0.12499410E+03</rscale>
<asrwt>0</asrwt>
<pdfrwt beam="2">  1        4 0.29865189E-02 0.12499410E+03</pdfrwt>
<pdfrwt beam="1">  1       -4 0.30954733E-01 0.12499410E+03</pdfrwt>
<totfact> 0.86782064E+03</totfact>
</mgrwt>
</event>
<event>
 5    1  0.3191162E-002  0.1249939E+03  0.7818608E-02  0.1235079E+00
          4   -1    0    0  501    0  0.00000000000E+00  0.00000000000E+00  0.63558781249E+02  0.63571468237E+02  0.12700000000E+01 0. -1.
         -4   -1    0    0    0  501 -0.00000000000E+00 -0.00000000000E+00 -0.61427495998E+02  0.61440623081E+02  0.12700000000E+01 0. -1.
         25    2    1    2    0    0  0.00000000000E+00  0.00000000000E+00  0.21312852506E+01  0.12501209132E+03  0.12499392225E+03 0.  0.
    9000005    1    3    3    0    0 -0.39623590224E+02 -0.45296417489E+02  0.17892945196E+02  0.62792928163E+02  0.10000000000E+01 0.  0.
    9000005    1    3    3    0    0  0.39623590224E+02  0.45296417489E+02 -0.15761659945E+02  0.62219163155E+02  0.10000000000E+01 0.  0.
<mgrwt>
<rscale>  0 0.12499392E+03</rscale>
<asrwt>0</asrwt>
<pdfrwt beam="1">  1        4 0.97802597E-02 0.12499392E+03</pdfrwt>
<pdfrwt beam="2">  1       -4 0.94523698E-02 0.12499392E+03</pdfrwt>
<totfact> 0.10454036E+04</totfact>
</mgrwt>
</event>
<event>
 5    1  0.3191162E-002  0.1250037E+03  0.7818608E-02  0.1235064E+00
          4   -1    0    0  501    0  0.00000000000E+00  0.00000000000E+00  0.25204212411E+02  0.25236188763E+02  0.12700000000E+01 0.  1.
         -4   -1    0    0    0  501 -0.00000000000E+00 -0.00000000000E+00 -0.15486030480E+03  0.15486551231E+03  0.12700000000E+01 0.  1.
         25    2    1    2    0    0  0.00000000000E+00  0.00000000000E+00 -0.12965609239E+03  0.18010170107E+03  0.12500368169E+03 0.  0.
    9000005    1    3    3    0    0 -0.90327982945E+01 -0.61836682437E+02 -0.64342934096E+02  0.89701615972E+02  0.10000000000E+01 0.  0.
    9000005    1    3    3    0    0  0.90327982945E+01  0.61836682437E+02 -0.65313158290E+02  0.90400085098E+02  0.10000000000E+01 0.  0.
<mgrwt>
<rscale>  0 0.12500368E+03</rscale>
<asrwt>0</asrwt>
<pdfrwt beam="1">  1        4 0.38804315E-02 0.12500368E+03</pdfrwt>
<pdfrwt beam="2">  1       -4 0.23827522E-01 0.12500368E+03</pdfrwt>
<totfact> 0.93590974E+03</totfact>
</mgrwt>
</event>
<event>
 5    1  0.3191162E-002  0.1250006E+03  0.7818608E-02  0.1235068E+00
          4   -1    0    0  501    0  0.00000000000E+00  0.00000000000E+00  0.33630605722E+02  0.33654576824E+02  0.12700000000E+01 0. -1.
         -4   -1    0    0    0  501 -0.00000000000E+00 -0.00000000000E+00 -0.11608393901E+03  0.11609088593E+03  0.12700000000E+01 0. -1.
         25    2    1    2    0    0  0.00000000000E+00  0.00000000000E+00 -0.82453333284E+02  0.14974546275E+03  0.12500060578E+03 0.  0.
    9000005    1    3    3    0    0 -0.36254439935E+02 -0.37966036928E+02 -0.81842271268E+02  0.97236627571E+02  0.10000000000E+01 0.  0.
    9000005    1    3    3    0    0  0.36254439935E+02  0.37966036928E+02 -0.61106201576E+00  0.52508835179E+02  0.10000000000E+01 0.  0.
<mgrwt>
<rscale>  0 0.12500061E+03</rscale>
<asrwt>0</asrwt>
<pdfrwt beam="1">  1        4 0.51763177E-02 0.12500061E+03</pdfrwt>
<pdfrwt beam="2">  1       -4 0.17861446E-01 0.12500061E+03</pdfrwt>
<totfact> 0.99353106E+03</totfact>
</mgrwt>
</event>
<event>
 5    1  0.3191162E-002  0.1249989E+03  0.7818608E-02  0.1235071E+00
         -4   -1    0    0    0  501 -0.00000000000E+00  0.00000000000E+00  0.46776447998E+01  0.48469847197E+01  0.12700000000E+01 0.  1.
          4   -1    0    0  501    0  0.00000000000E+00 -0.00000000000E+00 -0.82005820488E+03  0.82005918829E+03  0.12700000000E+01 0.  1.
         25    2    1    2    0    0  0.00000000000E+00  0.00000000000E+00 -0.81538056008E+03  0.82490617301E+03  0.12499894602E+03 0.  0.
    9000005    1    3    3    0    0 -0.40583799845E+02 -0.47143399604E+02 -0.36829337409E+03  0.37351111675E+03  0.10000000000E+01 0.  0.
    9000005    1    3    3    0    0  0.40583799845E+02  0.47143399604E+02 -0.44708718599E+03  0.45139505626E+03  0.10000000000E+01 0.  0.
<mgrwt>
<rscale>  0 0.12499895E+03</rscale>
<asrwt>0</asrwt>
<pdfrwt beam="2">  1        4 0.12617579E+00 0.12499895E+03</pdfrwt>
<pdfrwt beam="1">  1       -4 0.73274011E-03 0.12499895E+03</pdfrwt>
<totfact> 0.37177624E+03</totfact>
</mgrwt>
</event>
<event>
 5    1  0.3191162E-002  0.1250013E+03  0.7818608E-02  0.1235067E+00
          4   -1    0    0  501    0  0.00000000000E+00  0.00000000000E+00  0.68941719799E+02  0.68953416368E+02  0.12700000000E+01 0. -1.
         -4   -1    0    0    0  501 -0.00000000000E+00 -0.00000000000E+00 -0.56637712761E+02  0.56651949717E+02  0.12700000000E+01 0. -1.
         25    2    1    2    0    0  0.00000000000E+00  0.00000000000E+00  0.12304007038E+02  0.12560536608E+03  0.12500127759E+03 0.  0.
    9000005    1    3    3    0    0  0.15953698256E+02 -0.33916774802E+02  0.56398276037E+02  0.67724690039E+02  0.10000000000E+01 0.  0.
    9000005    1    3    3    0    0 -0.15953698256E+02  0.33916774802E+02 -0.44094268999E+02  0.57880676046E+02  0.10000000000E+01 0.  0.
<mgrwt>
<rscale>  0 0.12500128E+03</rscale>
<asrwt>0</asrwt>
<pdfrwt beam="1">  1        4 0.10608413E-01 0.12500128E+03</pdfrwt>
<pdfrwt beam="2">  1       -4 0.87154892E-02 0.12500128E+03</pdfrwt>
<totfact> 0.10439328E+04</totfact>
</mgrwt>
</event>
<event>
 5    1  0.3191162E-002  0.1249990E+03  0.7818608E-02  0.1235071E+00
         -4   -1    0    0    0  501 -0.00000000000E+00  0.00000000000E+00  0.11525123962E+03  0.11525823672E+03  0.12700000000E+01 0. -1.
          4   -1    0    0  501    0  0.00000000000E+00 -0.00000000000E+00 -0.33872902264E+02  0.33896702020E+02  0.12700000000E+01 0. -1.
         25    2    1    2    0    0  0.00000000000E+00  0.00000000000E+00  0.81378337351E+02  0.14915493874E+03  0.12499904784E+03 0.  0.
    9000005    1    3    3    0    0  0.49342439094E+02 -0.22199922802E+02  0.33788661338E+01  0.54221117699E+02  0.10000000000E+01 0.  0.
    9000005    1    3    3    0    0 -0.49342439094E+02  0.22199922802E+02  0.77999471217E+02  0.94933821045E+02  0.10000000000E+01 0.  0.
<mgrwt>
<rscale>  0 0.12499905E+03</rscale>
<asrwt>0</asrwt>
<pdfrwt beam="2">  1        4 0.52135848E-02 0.12499905E+03</pdfrwt>
<pdfrwt beam="1">  1       -4 0.17733329E-01 0.12499905E+03</pdfrwt>
<totfact> 0.99474547E+03</totfact>
</mgrwt>
</event>
<event>
 5    1  0.3191162E-002  0.1249979E+03  0.7818608E-02  0.1235073E+00
          4   -1    0    0  501    0  0.00000000000E+00  0.00000000000E+00  0.38496498009E+02  0.38517440971E+02  0.12700000000E+01 0. -1.
         -4   -1    0    0    0  501 -0.00000000000E+00 -0.00000000000E+00 -0.10141435929E+03  0.10142231100E+03  0.12700000000E+01 0. -1.
         25    2    1    2    0    0  0.00000000000E+00  0.00000000000E+00 -0.62917861277E+02  0.13993975198E+03  0.12499790764E+03 0.  0.
    9000005    1    3    3    0    0 -0.21343512424E+02 -0.17785495929E+02  0.31207631426E+02  0.41794564805E+02  0.10000000000E+01 0.  0.
    9000005    1    3    3    0    0  0.21343512424E+02  0.17785495929E+02 -0.94125492704E+02  0.98145187171E+02  0.10000000000E+01 0.  0.
<mgrwt>
<rscale>  0 0.12499791E+03</rscale>
<asrwt>0</asrwt>
<pdfrwt beam="1">  1        4 0.59247609E-02 0.12499791E+03</pdfrwt>
<pdfrwt beam="2">  1       -4 0.15604432E-01 0.12499791E+03</pdfrwt>
<totfact> 0.10135312E+04</totfact>
</mgrwt>
</event>
<event>
 5    1  0.3191162E-002  0.1249995E+03  0.7818608E-02  0.1235070E+00
          4   -1    0    0  501    0  0.00000000000E+00  0.00000000000E+00  0.37914900662E+03  0.37915113362E+03  0.12700000000E+01 0. -1.
         -4   -1    0    0    0  501 -0.00000000000E+00 -0.00000000000E+00 -0.10261299853E+02  0.10339592578E+02  0.12700000000E+01 0. -1.
         25    2    1    2    0    0  0.00000000000E+00  0.00000000000E+00  0.36888770677E+03  0.38949072619E+03  0.12499954234E+03 0.  0.
    9000005    1    3    3    0    0 -0.41785652571E+02  0.44826201659E+02  0.14630800476E+03  0.15862679904E+03  0.10000000000E+01 0.  0.
    9000005    1    3    3    0    0  0.41785652571E+02 -0.44826201659E+02  0.22257970201E+03  0.23086392715E+03  0.10000000000E+01 0.  0.
<mgrwt>
<rscale>  0 0.12499954E+03</rscale>
<asrwt>0</asrwt>
<pdfrwt beam="1">  1        4 0.58336799E-01 0.12499954E+03</pdfrwt>
<pdfrwt beam="2">  1       -4 0.15848477E-02 0.12499954E+03</pdfrwt>
<totfact> 0.65588569E+03</totfact>
</mgrwt>
</event>
<event>
 5    1  0.3191162E-002  0.1250033E+03  0.7818608E-02  0.1235064E+00
         -4   -1    0    0    0  501 -0.00000000000E+00  0.00000000000E+00  0.27447144333E+02  0.27476510551E+02  0.12700000000E+01 0.  1.
          4   -1    0    0  501    0  0.00000000000E+00 -0.00000000000E+00 -0.14221817950E+03  0.14222384990E+03  0.12700000000E+01 0.  1.
         25    2    1    2    0    0  0.00000000000E+00  0.00000000000E+00 -0.11477103516E+03  0.16970036045E+03  0.12500328725E+03 0.  0.
    9000005    1    3    3    0    0 -0.12344582676E+01 -0.42806420426E+02 -0.11917409493E+03  0.12663877139E+03  0.10000000000E+01 0.  0.
    9000005    1    3    3    0    0  0.12344582676E+01  0.42806420426E+02  0.44030597659E+01  0.43061589058E+02  0.10000000000E+01 0.  0.
<mgrwt>
<rscale>  0 0.12500329E+03</rscale>
<asrwt>0</asrwt>
<pdfrwt beam="2">  1        4 0.21882415E-01 0.12500329E+03</pdfrwt>
<pdfrwt beam="1">  1       -4 0.42253328E-02 0.12500329E+03</pdfrwt>
<totfact> 0.95497468E+03</totfact>
</mgrwt>
</event>
<event>
 5    1  0.3191162E-002  0.1250010E+03  0.7818608E-02  0.1235068E+00
         -4   -1    0    0    0  501 -0.00000000000E+00  0.00000000000E+00  0.88391153671E+03  0.88391244908E+03  0.12700000000E+01 0.  1.
          4   -1    0    0  501    0  0.00000000000E+00 -0.00000000000E+00 -0.43271730249E+01  0.45096924936E+01  0.12700000000E+01 0.  1.
         25    2    1    2    0    0  0.00000000000E+00  0.00000000000E+00  0.87958436369E+03  0.88842214157E+03  0.12500099515E+03 0.  0.
    9000005    1    3    3    0    0 -0.41765840825E+02  0.46458394368E+02  0.45112903831E+03  0.45543515133E+03  0.10000000000E+01 0.  0.
    9000005    1    3    3    0    0  0.41765840825E+02 -0.46458394368E+02  0.42845532538E+03  0.43298699024E+03  0.10000000000E+01 0.  0.
<mgrwt>
<rscale>  0 0.12500100E+03</rscale>
<asrwt>0</asrwt>
<pdfrwt beam="2">  1        4 0.67982955E-03 0.12500100E+03</pdfrwt>
<pdfrwt beam="1">  1       -4 0.13600040E+00 0.12500100E+03</pdfrwt>
<totfact> 0.34603756E+03</totfact>
</mgrwt>
</event>
<event>
 5    1  0.3191162E-002  0.1249968E+03  0.7818608E-02  0.1235074E+00
         -4   -1    0    0    0  501 -0.00000000000E+00  0.00000000000E+00  0.63450948620E+02  0.63463657165E+02  0.12700000000E+01 0. -1.
          4   -1    0    0  501    0  0.00000000000E+00 -0.00000000000E+00 -0.61534686759E+02  0.61547790980E+02  0.12700000000E+01 0. -1.
         25    2    1    2    0    0  0.00000000000E+00  0.00000000000E+00  0.19162618608E+01  0.12501144814E+03  0.12499676039E+03 0.  0.
    9000005    1    3    3    0    0 -0.30495966330E+02 -0.38319839436E+01  0.55373709757E+02  0.63339843666E+02  0.10000000000E+01 0.  0.
    9000005    1    3    3    0    0  0.30495966330E+02  0.38319839436E+01 -0.53457447897E+02  0.61671604479E+02  0.10000000000E+01 0.  0.
<mgrwt>
<rscale>  0 0.12499676E+03</rscale>
<asrwt>0</asrwt>
<pdfrwt beam="2">  1        4 0.94688604E-02 0.12499676E+03</pdfrwt>
<pdfrwt beam="1">  1       -4 0.97636701E-02 0.12499676E+03</pdfrwt>
<totfact> 0.10453379E+04</totfact>
</mgrwt>
</event>
<event>
 5    1  0.3191162E-002  0.1249988E+03  0.7818608E-02  0.1235071E+00
          4   -1    0    0  501    0  0.00000000000E+00  0.00000000000E+00  0.34053107285E+03  0.34053344106E+03  0.12700000000E+01 0.  1.
         -4   -1    0    0    0  501 -0.00000000000E+00 -0.00000000000E+00 -0.11433268609E+02  0.11503587749E+02  0.12700000000E+01 0.  1.
         25    2    1    2    0    0  0.00000000000E+00  0.00000000000E+00  0.32909780424E+03  0.35203702881E+03  0.12499881956E+03 0.  0.
    9000005    1    3    3    0    0  0.12135412338E+02  0.38898443975E+02  0.29798492970E+03  0.30075966403E+03  0.10000000000E+01 0.  0.
    9000005    1    3    3    0    0 -0.12135412338E+02 -0.38898443975E+02  0.31112874539E+02  0.51277364776E+02  0.10000000000E+01 0.  0.
<mgrwt>
<rscale>  0 0.12499882E+03</rscale>
<asrwt>0</asrwt>
<pdfrwt beam="1">  1        4 0.52394990E-01 0.12499882E+03</pdfrwt>
<pdfrwt beam="2">  1       -4 0.17645556E-02 0.12499882E+03</pdfrwt>
<totfact> 0.69502849E+03</totfact>
</mgrwt>
</event>
<event>
 5    1  0.3191162E-002  0.1249938E+03  0.7818608E-02  0.1235079E+00
          4   -1    0    0  501    0  0.00000000000E+00  0.00000000000E+00  0.75749325980E+02  0.75759971531E+02  0.12700000000E+01 0.  1.
         -4   -1    0    0    0  501 -0.00000000000E+00 -0.00000000000E+00 -0.51540920532E+02  0.51556564949E+02  0.12700000000E+01 0.  1.
         25    2    1    2    0    0  0.00000000000E+00  0.00000000000E+00  0.24208405448E+02  0.12731653648E+03  0.12499381411E+03 0.  0.
    9000005    1    3    3    0    0 -0.17303223900E+02  0.34522402576E+02 -0.37937818343E+02  0.54143105725E+02  0.10000000000E+01 0.  0.
    9000005    1    3    3    0    0  0.17303223900E+02 -0.34522402576E+02  0.62146223790E+02  0.73173430754E+02  0.10000000000E+01 0.  0.
<mgrwt>
<rscale>  0 0.12499381E+03</rscale>
<asrwt>0</asrwt>
<pdfrwt beam="1">  1        4 0.11655765E-01 0.12499381E+03</pdfrwt>
<pdfrwt beam="2">  1       -4 0.79313947E-02 0.12499381E+03</pdfrwt>
<totfact> 0.10403729E+04</totfact>
</mgrwt>
</event>
<event>
 5    1  0.3191162E-002  0.1249990E+03  0.7818608E-02  0.1235071E+00
          4   -1    0    0  501    0  0.00000000000E+00  0.00000000000E+00  0.69407970620E+03  0.69408086810E+03  0.12700000000E+01 0.  1.
         -4   -1    0    0    0  501 -0.00000000000E+00 -0.00000000000E+00 -0.55550325725E+01  0.56983582619E+01  0.12700000000E+01 0.  1.
         25    2    1    2    0    0  0.00000000000E+00  0.00000000000E+00  0.68852467363E+03  0.69977922636E+03  0.12499895780E+03 0.  0.
    9000005    1    3    3    0    0 -0.59167882103E+01 -0.47788274957E+02  0.56724384143E+03  0.56928490516E+03  0.10000000000E+01 0.  0.
    9000005    1    3    3    0    0  0.59167882103E+01  0.47788274957E+02  0.12128083221E+03  0.13049432120E+03  0.10000000000E+01 0.  0.
<mgrwt>
<rscale>  0 0.12499896E+03</rscale>
<asrwt>0</asrwt>
<pdfrwt beam="1">  1        4 0.10679263E+00 0.12499896E+03</pdfrwt>
<pdfrwt beam="2">  1       -4 0.86573462E-03 0.12499896E+03</pdfrwt>
<totfact> 0.43099320E+03</totfact>
</mgrwt>
</event>
<event>
 5    1  0.3191162E-002  0.1249899E+03  0.7818608E-02  0.1235085E+00
          4   -1    0    0  501    0  0.00000000000E+00  0.00000000000E+00  0.80415075372E+01  0.81411758039E+01  0.12700000000E+01 0. -1.
         -4   -1    0    0    0  501 -0.00000000000E+00 -0.00000000000E+00 -0.48259072560E+03  0.48259239668E+03  0.12700000000E+01 0. -1.
         25    2    1    2    0    0  0.00000000000E+00  0.00000000000E+00 -0.47454921806E+03  0.49073357249E+03  0.12498991480E+03 0.  0.
    9000005    1    3    3    0    0  0.59606103193E+02  0.15790217935E+02 -0.27700504023E+03  0.28378691097E+03  0.10000000000E+01 0.  0.
    9000005    1    3    3    0    0 -0.59606103193E+02 -0.15790217935E+02 -0.19754417783E+03  0.20694666152E+03  0.10000000000E+01 0.  0.
<mgrwt>
<rscale>  0 0.12498991E+03</rscale>
<asrwt>0</asrwt>
<pdfrwt beam="1">  1        4 0.12449507E-02 0.12498991E+03</pdfrwt>
<pdfrwt beam="2">  1       -4 0.74252500E-01 0.12498991E+03</pdfrwt>
<totfact> 0.56603128E+03</totfact>
</mgrwt>
</event>
<event>
 5    1  0.3191162E-002  0.1249999E+03  0.7818608E-02  0.1235069E+00
          4   -1    0    0  501    0  0.00000000000E+00  0.00000000000E+00  0.32064160923E+01  0.34487684986E+01  0.12700000000E+01 0. -1.
         -4   -1    0    0    0  501 -0.00000000000E+00 -0.00000000000E+00 -0.11736523118E+04  0.11736529990E+04  0.12700000000E+01 0. -1.
         25    2    1    2    0    0  0.00000000000E+00  0.00000000000E+00 -0.11704458957E+04  0.11771017674E+04  0.12499990440E+03 0.  0.
    9000005    1    3    3    0    0 -0.32285470889E+02 -0.52154361712E+02 -0.69775886784E+03  0.70045047414E+03  0.10000000000E+01 0.  0.
    9000005    1    3    3    0    0  0.32285470889E+02  0.52154361712E+02 -0.47268702789E+03  0.47665129330E+03  0.10000000000E+01 0.  0.
<mgrwt>
<rscale>  0 0.12499990E+03</rscale>
<asrwt>0</asrwt>
<pdfrwt beam="1">  1        4 0.51199107E-03 0.12499990E+03</pdfrwt>
<pdfrwt beam="2">  1       -4 0.18058026E+00 0.12499990E+03</pdfrwt>
<totfact> 0.25320210E+03</totfact>
</mgrwt>
</event>
<event>
 5    1  0.3191162E-002  0.1250012E+03  0.7818608E-02  0.1235067E+00
         -4   -1    0    0    0  501 -0.00000000000E+00  0.00000000000E+00  0.11888865948E+03  0.11889544253E+03  0.12700000000E+01 0.  1.
          4   -1    0    0  501    0  0.00000000000E+00 -0.00000000000E+00 -0.32836984249E+02  0.32861534270E+02  0.12700000000E+01 0.  1.
         25    2    1    2    0    0  0.00000000000E+00  0.00000000000E+00  0.86051675235E+02  0.15175697680E+03  0.12500115678E+03 0.  0.
    9000005    1    3    3    0    0 -0.12142160638E+02  0.60287439568E+02  0.56507465913E+02  0.83523057526E+02  0.10000000000E+01 0.  0.
    9000005    1    3    3    0    0  0.12142160638E+02 -0.60287439568E+02  0.29544209322E+02  0.68233919271E+02  0.10000000000E+01 0.  0.
<mgrwt>
<rscale>  0 0.12500116E+03</rscale>
<asrwt>0</asrwt>
<pdfrwt beam="2">  1        4 0.50542540E-02 0.12500116E+03</pdfrwt>
<pdfrwt beam="1">  1       -4 0.18292973E-01 0.12500116E+03</pdfrwt>
<totfact> 0.98952042E+03</totfact>
</mgrwt>
</event>
<event>
 5    1  0.3191162E-002  0.1249972E+03  0.7818608E-02  0.1235074E+00
          4   -1    0    0  501    0  0.00000000000E+00  0.00000000000E+00  0.11824767639E+02  0.11892772163E+02  0.12700000000E+01 0. -1.
         -4   -1    0    0    0  501 -0.00000000000E+00 -0.00000000000E+00 -0.32931341380E+03  0.32931586268E+03  0.12700000000E+01 0. -1.
         25    2    1    2    0    0  0.00000000000E+00  0.00000000000E+00 -0.31748864616E+03  0.34120863484E+03  0.12499716815E+03 0.  0.
    9000005    1    3    3    0    0  0.32709857424E+02 -0.48066774921E+02 -0.22127383662E+03  0.22878693231E+03  0.10000000000E+01 0.  0.
    9000005    1    3    3    0    0 -0.32709857424E+02  0.48066774921E+02 -0.96214809547E+02  0.11242170253E+03  0.10000000000E+01 0.  0.
<mgrwt>
<rscale>  0 0.12499717E+03</rscale>
<asrwt>0</asrwt>
<pdfrwt beam="1">  1        4 0.18246148E-02 0.12499717E+03</pdfrwt>
<pdfrwt beam="2">  1       -4 0.50669015E-01 0.12499717E+03</pdfrwt>
<totfact> 0.70707102E+03</totfact>
</mgrwt>
</event>
<event>
 5    1  0.3191162E-002  0.1249961E+03  0.7818608E-02  0.1235075E+00
          4   -1    0    0  501    0  0.00000000000E+00  0.00000000000E+00  0.13348986352E+02  0.13409263090E+02  0.12700000000E+01 0. -1.
         -4   -1    0    0    0  501 -0.00000000000E+00 -0.00000000000E+00 -0.29188606015E+03  0.29188882303E+03  0.12700000000E+01 0. -1.
         25    2    1    2    0    0  0.00000000000E+00  0.00000000000E+00 -0.27853707380E+03  0.30529808612E+03  0.12499607957E+03 0.  0.
    9000005    1    3    3    0    0  0.33057194889E+02  0.44635922066E+02 -0.20920406916E+03  0.21645435137E+03  0.10000000000E+01 0.  0.
    9000005    1    3    3    0    0 -0.33057194889E+02 -0.44635922066E+02 -0.69333004636E+02  0.88843734751E+02  0.10000000000E+01 0.  0.
<mgrwt>
<rscale>  0 0.12499608E+03</rscale>
<asrwt>0</asrwt>
<pdfrwt beam="1">  1        4 0.20585396E-02 0.12499608E+03</pdfrwt>
<pdfrwt beam="2">  1       -4 0.44910392E-01 0.12499608E+03</pdfrwt>
<totfact> 0.74945549E+03</totfact>
</mgrwt>
</event>
<event>
 4    1  0.3191162E-002  0.1248992E+03  0.7818608E-02  0.1235227E+00
          4   -1    0    0  501    0  0.00000000000E+00  0.00000000000E+00  0.19367042228E+01  0.23159713398E+01  0.12700000000E+01 0. -1.
         -4   -1    0    0    0  501 -0.00000000000E+00 -0.00000000000E+00 -0.18337388198E+04  0.18337392596E+04  0.12700000000E+01 0. -1.
    9000005    1    1    2    0    0 -0.47386095653E+02  0.32581590153E+02 -0.55824172606E+03  0.56119678081E+03  0.10000000000E+01 0.  0.
    9000005    1    1    2    0    0  0.47386095653E+02 -0.32581590153E+02 -0.12735603895E+04  0.12748584501E+04  0.10000000000E+01 0.  0.
<mgrwt>
<rscale>  0 0.12489924E+03</rscale>
<asrwt>0</asrwt>
<pdfrwt beam="1">  1        4 0.32716419E-03 0.12489924E+03</pdfrwt>
<pdfrwt beam="2">  1       -4 0.28214161E+00 0.12489924E+03</pdfrwt>
<totfact> 0.12183209E+03</totfact>
</mgrwt>
</event>
<event>
 5    1  0.3191162E-002  0.1249980E+03  0.7818608E-02  0.1235072E+00
         -4   -1    0    0    0  501 -0.00000000000E+00  0.00000000000E+00  0.96322477831E+02  0.96330849864E+02  0.12700000000E+01 0. -1.
          4   -1    0    0  501    0  0.00000000000E+00 -0.00000000000E+00 -0.40532514180E+02  0.40552405672E+02  0.12700000000E+01 0. -1.
         25    2    1    2    0    0  0.00000000000E+00  0.00000000000E+00  0.55789963651E+02  0.13688325554E+03  0.12499802239E+03 0.  0.
    9000005    1    3    3    0    0  0.14750439337E+02 -0.20478199001E+00 -0.38603805918E+02  0.41338495711E+02  0.10000000000E+01 0.  0.
    9000005    1    3    3    0    0 -0.14750439337E+02  0.20478199001E+00  0.94393769570E+02  0.95544759824E+02  0.10000000000E+01 0.  0.
<mgrwt>
<rscale>  0 0.12499802E+03</rscale>
<asrwt>0</asrwt>
<pdfrwt beam="2">  1        4 0.62379455E-02 0.12499802E+03</pdfrwt>
<pdfrwt beam="1">  1       -4 0.14821017E-01 0.12499802E+03</pdfrwt>
<totfact> 0.10198982E+04</totfact>
</mgrwt>
</event>
<event>
 5    1  0.3191162E-002  0.1250015E+03  0.7818608E-02  0.1235067E+00
         -4   -1    0    0    0  501 -0.00000000000E+00  0.00000000000E+00  0.85238635802E+02  0.85248096363E+02  0.12700000000E+01 0.  1.
          4   -1    0    0  501    0  0.00000000000E+00 -0.00000000000E+00 -0.45807545433E+02  0.45825147229E+02  0.12700000000E+01 0.  1.
         25    2    1    2    0    0  0.00000000000E+00  0.00000000000E+00  0.39431090370E+02  0.13107324359E+03  0.12500153718E+03 0.  0.
    9000005    1    3    3    0    0 -0.59159407325E+02 -0.18924013911E+02  0.12496951920E+02  0.63365034403E+02  0.10000000000E+01 0.  0.
    9000005    1    3    3    0    0  0.59159407325E+02  0.18924013911E+02  0.26934138450E+02  0.67708209189E+02  0.10000000000E+01 0.  0.
<mgrwt>
<rscale>  0 0.12500154E+03</rscale>
<asrwt>0</asrwt>
<pdfrwt beam="2">  1        4 0.70493964E-02 0.12500154E+03</pdfrwt>
<pdfrwt beam="1">  1       -4 0.13115718E-01 0.12500154E+03</pdfrwt>
<totfact> 0.10321161E+04</totfact>
</mgrwt>
</event>
<event>
 4    1  0.3191162E-002  0.1252114E+03  0.7818608E-02  0.1234739E+00
         -4   -1    0    0    0  501 -0.00000000000E+00  0.00000000000E+00  0.34983367351E+02  0.35006412144E+02  0.12700000000E+01 0. -1.
          4   -1    0    0  501    0  0.00000000000E+00 -0.00000000000E+00 -0.11197463421E+03  0.11198183606E+03  0.12700000000E+01 0. -1.
    9000005    1    1    2    0    0  0.56242347651E+02 -0.62586968427E+01 -0.69909797118E+02  0.89948611377E+02  0.10000000000E+01 0.  0.
    9000005    1    1    2    0    0 -0.56242347651E+02  0.62586968427E+01 -0.70814697437E+01  0.57039636826E+02  0.10000000000E+01 0.  0.
<mgrwt>
<rscale>  0 0.12521138E+03</rscale>
<asrwt>0</asrwt>
<pdfrwt beam="2">  1        4 0.17229193E-01 0.12521138E+03</pdfrwt>
<pdfrwt beam="1">  1       -4 0.53843832E-02 0.12521138E+03</pdfrwt>
<totfact> 0.99433510E+03</totfact>
</mgrwt>
</event>
<event>
 5    1  0.3191162E-002  0.1250006E+03  0.7818608E-02  0.1235068E+00
          4   -1    0    0  501    0  0.00000000000E+00  0.00000000000E+00  0.12092086729E+03  0.12092753634E+03  0.12700000000E+01 0. -1.
         -4   -1    0    0    0  501 -0.00000000000E+00 -0.00000000000E+00 -0.32284454719E+02  0.32309424577E+02  0.12700000000E+01 0. -1.
         25    2    1    2    0    0  0.00000000000E+00  0.00000000000E+00  0.88636412567E+02  0.15323696092E+03  0.12500061023E+03 0.  0.
    9000005    1    3    3    0    0  0.15500653873E+02  0.53028746903E+02  0.80121109342E+02  0.97327850232E+02  0.10000000000E+01 0.  0.
    9000005    1    3    3    0    0 -0.15500653873E+02 -0.53028746903E+02  0.85153032255E+01  0.55909110686E+02  0.10000000000E+01 0.  0.
<mgrwt>
<rscale>  0 0.12500061E+03</rscale>
<asrwt>0</asrwt>
<pdfrwt beam="1">  1        4 0.18605644E-01 0.12500061E+03</pdfrwt>
<pdfrwt beam="2">  1       -4 0.49692730E-02 0.12500061E+03</pdfrwt>
<totfact> 0.98660974E+03</totfact>
</mgrwt>
</event>
<event>
 5    1  0.3191162E-002  0.1249981E+03  0.7818608E-02  0.1235072E+00
         -4   -1    0    0    0  501 -0.00000000000E+00  0.00000000000E+00  0.19989275577E+02  0.20029579080E+02  0.12700000000E+01 0. -1.
          4   -1    0    0  501    0  0.00000000000E+00 -0.00000000000E+00 -0.19517212463E+03  0.19517625658E+03  0.12700000000E+01 0. -1.
         25    2    1    2    0    0  0.00000000000E+00  0.00000000000E+00 -0.17518284905E+03  0.21520583566E+03  0.12499808438E+03 0.  0.
    9000005    1    3    3    0    0 -0.43142805622E+02  0.43571869975E+02 -0.66836818492E+02  0.90708157495E+02  0.10000000000E+01 0.  0.
    9000005    1    3    3    0    0  0.43142805622E+02 -0.43571869975E+02 -0.10834603056E+03  0.12449767816E+03  0.10000000000E+01 0.  0.
<mgrwt>
<rscale>  0 0.12499808E+03</rscale>
<asrwt>0</asrwt>
<pdfrwt beam="2">  1        4 0.30029897E-01 0.12499808E+03</pdfrwt>
<pdfrwt beam="1">  1       -4 0.30786914E-02 0.12499808E+03</pdfrwt>
<totfact> 0.87636447E+03</totfact>
</mgrwt>
</event>
<event>
 5    1  0.3191162E-002  0.1249969E+03  0.7818608E-02  0.1235074E+00
         -4   -1    0    0    0  501 -0.00000000000E+00  0.00000000000E+00  0.13944660015E+03  0.13945238325E+03  0.12700000000E+01 0.  1.
          4   -1    0    0  501    0  0.00000000000E+00 -0.00000000000E+00 -0.27990341801E+02  0.28019138712E+02  0.12700000000E+01 0.  1.
         25    2    1    2    0    0  0.00000000000E+00  0.00000000000E+00  0.11145625835E+03  0.16747152196E+03  0.12499685253E+03 0.  0.
    9000005    1    3    3    0    0 -0.11571328308E+02 -0.22439360484E+02 -0.20859479510E+02  0.32764896202E+02  0.10000000000E+01 0.  0.
    9000005    1    3    3    0    0  0.11571328308E+02  0.22439360484E+02  0.13231573786E+03  0.13470662576E+03  0.10000000000E+01 0.  0.
<mgrwt>
<rscale>  0 0.12499685E+03</rscale>
<asrwt>0</asrwt>
<pdfrwt beam="2">  1        4 0.43088664E-02 0.12499685E+03</pdfrwt>
<pdfrwt beam="1">  1       -4 0.21455983E-01 0.12499685E+03</pdfrwt>
<totfact> 0.95928143E+03</totfact>
</mgrwt>
</event>
<event>
 5    1  0.3191162E-002  0.1250139E+03  0.7818608E-02  0.1235048E+00
         -4   -1    0    0    0  501 -0.00000000000E+00  0.00000000000E+00  0.45105596810E+03  0.45105775601E+03  0.12700000000E+01 0. -1.
          4   -1    0    0  501    0  0.00000000000E+00 -0.00000000000E+00 -0.86137974034E+01  0.87069171184E+01  0.12700000000E+01 0. -1.
         25    2    1    2    0    0  0.00000000000E+00  0.00000000000E+00  0.44244217069E+03  0.45976467313E+03  0.12501392022E+03 0.  0.
    9000005    1    3    3    0    0 -0.49084988658E+02 -0.45550495179E+01  0.79926466600E+02  0.93911259446E+02  0.10000000000E+01 0.  0.
    9000005    1    3    3    0    0  0.49084988658E+02  0.45550495179E+01  0.36251570409E+03  0.36585341368E+03  0.10000000000E+01 0.  0.
<mgrwt>
<rscale>  0 0.12501392E+03</rscale>
<asrwt>0</asrwt>
<pdfrwt beam="2">  1        4 0.13325002E-02 0.12501392E+03</pdfrwt>
<pdfrwt beam="1">  1       -4 0.69400526E-01 0.12501392E+03</pdfrwt>
<totfact> 0.59108998E+03</totfact>
</mgrwt>
</event>
<event>
 5    1  0.3191162E-002  0.1249879E+03  0.7818608E-02  0.1235088E+00
         -4   -1    0    0    0  501 -0.00000000000E+00  0.00000000000E+00  0.83787737152E+02  0.83797361516E+02  0.12700000000E+01 0.  1.
          4   -1    0    0  501    0  0.00000000000E+00 -0.00000000000E+00 -0.46590814812E+02  0.46608120804E+02  0.12700000000E+01 0.  1.
         25    2    1    2    0    0  0.00000000000E+00  0.00000000000E+00  0.37196922340E+02  0.13040548232E+03  0.12498791457E+03 0.  0.
    9000005    1    3    3    0    0 -0.49884422430E+02 -0.37298417527E+02  0.13395617254E+02  0.63718679465E+02  0.10000000000E+01 0.  0.
    9000005    1    3    3    0    0  0.49884422430E+02  0.37298417527E+02  0.23801305086E+02  0.66686802854E+02  0.10000000000E+01 0.  0.
<mgrwt>
<rscale>  0 0.12498791E+03</rscale>
<asrwt>0</asrwt>
<pdfrwt beam="2">  1        4 0.71698894E-02 0.12498791E+03</pdfrwt>
<pdfrwt beam="1">  1       -4 0.12892492E-01 0.12498791E+03</pdfrwt>
<totfact> 0.10338661E+04</totfact>
</mgrwt>
</event>
<event>
 5    1  0.3191162E-002  0.1249993E+03  0.7818608E-02  0.1235070E+00
         -4   -1    0    0    0  501 -0.00000000000E+00  0.00000000000E+00  0.20940201383E+03  0.20940586500E+03  0.12700000000E+01 0.  1.
          4   -1    0    0  501    0  0.00000000000E+00 -0.00000000000E+00 -0.18628446266E+02  0.18671687397E+02  0.12700000000E+01 0.  1.
         25    2    1    2    0    0  0.00000000000E+00  0.00000000000E+00  0.19077356756E+03  0.22807755240E+03  0.12499926330E+03 0.  0.
    9000005    1    3    3    0    0 -0.13991246951E+02 -0.60783627356E+02  0.88367379821E+02  0.10816745427E+03  0.10000000000E+01 0.  0.
    9000005    1    3    3    0    0  0.13991246951E+02  0.60783627356E+02  0.10240618774E+03  0.11991009813E+03  0.10000000000E+01 0.  0.
<mgrwt>
<rscale>  0 0.12499926E+03</rscale>
<asrwt>0</asrwt>
<pdfrwt beam="2">  1        4 0.28695375E-02 0.12499926E+03</pdfrwt>
<pdfrwt beam="1">  1       -4 0.32219315E-01 0.12499926E+03</pdfrwt>
<totfact> 0.85607076E+03</totfact>
</mgrwt>
</event>
<event>
 5    1  0.3191162E-002  0.1250011E+03  0.7818608E-02  0.1235068E+00
         -4   -1    0    0    0  501 -0.00000000000E+00  0.00000000000E+00  0.17111356024E+03  0.17111827313E+03  0.12700000000E+01 0.  1.
          4   -1    0    0  501    0  0.00000000000E+00 -0.00000000000E+00 -0.22806117794E+02  0.22841451548E+02  0.12700000000E+01 0.  1.
         25    2    1    2    0    0  0.00000000000E+00  0.00000000000E+00  0.14830744245E+03  0.19395972468E+03  0.12500110924E+03 0.  0.
    9000005    1    3    3    0    0  0.43865686619E+02 -0.15739956325E+02  0.13875541596E+03  0.14637626224E+03  0.10000000000E+01 0.  0.
    9000005    1    3    3    0    0 -0.43865686619E+02  0.15739956325E+02  0.95520264841E+01  0.47583462438E+02  0.10000000000E+01 0.  0.
<mgrwt>
<rscale>  0 0.12500111E+03</rscale>
<asrwt>0</asrwt>
<pdfrwt beam="2">  1        4 0.35117140E-02 0.12500111E+03</pdfrwt>
<pdfrwt beam="1">  1       -4 0.26328244E-01 0.12500111E+03</pdfrwt>
<totfact> 0.91160599E+03</totfact>
</mgrwt>
</event>
<event>
 5    1  0.3191162E-002  0.1249668E+03  0.7818608E-02  0.1235121E+00
          4   -1    0    0  501    0  0.00000000000E+00  0.00000000000E+00  0.94777859553E+02  0.94786368014E+02  0.12700000000E+01 0. -1.
         -4   -1    0    0    0  501 -0.00000000000E+00 -0.00000000000E+00 -0.41172781056E+02  0.41192363369E+02  0.12700000000E+01 0. -1.
         25    2    1    2    0    0  0.00000000000E+00  0.00000000000E+00  0.53605078497E+02  0.13597873138E+03  0.12496683939E+03 0.  0.
    9000005    1    3    3    0    0  0.42130924678E+02 -0.39691734673E+02  0.12206642517E+01  0.57904564904E+02  0.10000000000E+01 0.  0.
    9000005    1    3    3    0    0 -0.42130924678E+02  0.39691734673E+02  0.52384414245E+02  0.78074166479E+02  0.10000000000E+01 0.  0.
<mgrwt>
<rscale>  0 0.12496684E+03</rscale>
<asrwt>0</asrwt>
<pdfrwt beam="1">  1        4 0.14583370E-01 0.12496684E+03</pdfrwt>
<pdfrwt beam="2">  1       -4 0.63364349E-02 0.12496684E+03</pdfrwt>
<totfact> 0.10225127E+04</totfact>
</mgrwt>
</event>
<event>
 5    1  0.3191162E-002  0.1250013E+03  0.7818608E-02  0.1235067E+00
         -4   -1    0    0    0  501 -0.00000000000E+00  0.00000000000E+00  0.31568542924E+03  0.31568798383E+03  0.12700000000E+01 0.  1.
          4   -1    0    0  501    0  0.00000000000E+00 -0.00000000000E+00 -0.12338932265E+02  0.12404118246E+02  0.12700000000E+01 0.  1.
         25    2    1    2    0    0  0.00000000000E+00  0.00000000000E+00  0.30334649697E+03  0.32809210207E+03  0.12500132086E+03 0.  0.
    9000005    1    3    3    0    0 -0.27756911427E+02 -0.69377633706E+01  0.29749831191E+03  0.29887258871E+03  0.10000000000E+01 0.  0.
    9000005    1    3    3    0    0  0.27756911427E+02  0.69377633706E+01  0.58481850601E+01  0.29219513361E+02  0.10000000000E+01 0.  0.
<mgrwt>
<rscale>  0 0.12500132E+03</rscale>
<asrwt>0</asrwt>
<pdfrwt beam="2">  1        4 0.19035081E-02 0.12500132E+03</pdfrwt>
<pdfrwt beam="1">  1       -4 0.48572199E-01 0.12500132E+03</pdfrwt>
<totfact> 0.72201788E+03</totfact>
</mgrwt>
</event>
<event>
 5    1  0.3191162E-002  0.1249988E+03  0.7818608E-02  0.1235071E+00
          4   -1    0    0  501    0  0.00000000000E+00  0.00000000000E+00  0.10786340121E+02  0.10860848641E+02  0.12700000000E+01 0. -1.
         -4   -1    0    0    0  501 -0.00000000000E+00 -0.00000000000E+00 -0.36081869572E+03  0.36082093077E+03  0.12700000000E+01 0. -1.
         25    2    1    2    0    0  0.00000000000E+00  0.00000000000E+00 -0.35003235560E+03  0.37168177941E+03  0.12499878071E+03 0.  0.
    9000005    1    3    3    0    0 -0.56251566671E+02 -0.24988356062E+02 -0.20711287418E+03  0.21606804332E+03  0.10000000000E+01 0.  0.
    9000005    1    3    3    0    0  0.56251566671E+02  0.24988356062E+02 -0.14291948142E+03  0.15561373609E+03  0.10000000000E+01 0.  0.
<mgrwt>
<rscale>  0 0.12499878E+03</rscale>
<asrwt>0</asrwt>
<pdfrwt beam="1">  1        4 0.16653406E-02 0.12499878E+03</pdfrwt>
<pdfrwt beam="2">  1       -4 0.55516463E-01 0.12499878E+03</pdfrwt>
<totfact> 0.67405179E+03</totfact>
</mgrwt>
</event>
<event>
 5    1  0.3191162E-002  0.1249992E+03  0.7818608E-02  0.1235071E+00
         -4   -1    0    0    0  501 -0.00000000000E+00  0.00000000000E+00  0.29687707539E+03  0.29687979182E+03  0.12700000000E+01 0. -1.
          4   -1    0    0  501    0  0.00000000000E+00 -0.00000000000E+00 -0.13124204206E+02  0.13185508562E+02  0.12700000000E+01 0. -1.
         25    2    1    2    0    0  0.00000000000E+00  0.00000000000E+00  0.28375287118E+03  0.31006530038E+03  0.12499919438E+03 0.  0.
    9000005    1    3    3    0    0 -0.38090817419E+01 -0.41545308046E+02  0.25728621127E+03  0.26064864518E+03  0.10000000000E+01 0.  0.
    9000005    1    3    3    0    0  0.38090817419E+01  0.41545308046E+02  0.26466659909E+02  0.49416655199E+02  0.10000000000E+01 0.  0.
<mgrwt>
<rscale>  0 0.12499919E+03</rscale>
<asrwt>0</asrwt>
<pdfrwt beam="2">  1        4 0.20240329E-02 0.12499919E+03</pdfrwt>
<pdfrwt beam="1">  1       -4 0.45678325E-01 0.12499919E+03</pdfrwt>
<totfact> 0.74354691E+03</totfact>
</mgrwt>
</event>
<event>
 5    1  0.3191162E-002  0.1250002E+03  0.7818608E-02  0.1235069E+00
         -4   -1    0    0    0  501 -0.00000000000E+00  0.00000000000E+00  0.62330637797E+02  0.62343574715E+02  0.12700000000E+01 0.  1.
          4   -1    0    0  501    0  0.00000000000E+00 -0.00000000000E+00 -0.62644177134E+02  0.62657049315E+02  0.12700000000E+01 0.  1.
         25    2    1    2    0    0  0.00000000000E+00  0.00000000000E+00 -0.31353933719E+00  0.12500062403E+03  0.12500023080E+03 0.  0.
    9000005    1    3    3    0    0  0.61339824998E+02 -0.10964469134E+02 -0.48971127407E+01  0.62512202228E+02  0.10000000000E+01 0.  0.
    9000005    1    3    3    0    0 -0.61339824998E+02  0.10964469134E+02  0.45835734035E+01  0.62488421802E+02  0.10000000000E+01 0.  0.
<mgrwt>
<rscale>  0 0.12500023E+03</rscale>
<asrwt>0</asrwt>
<pdfrwt beam="2">  1        4 0.96395511E-02 0.12500023E+03</pdfrwt>
<pdfrwt beam="1">  1       -4 0.95913142E-02 0.12500023E+03</pdfrwt>
<totfact> 0.10452794E+04</totfact>
</mgrwt>
</event>
<event>
 5    1  0.3191162E-002  0.1250008E+03  0.7818608E-02  0.1235068E+00
          4   -1    0    0  501    0  0.00000000000E+00  0.00000000000E+00  0.60775860406E+01  0.62088607715E+01  0.12700000000E+01 0. -1.
         -4   -1    0    0    0  501 -0.00000000000E+00 -0.00000000000E+00 -0.63573903749E+03  0.63574030602E+03  0.12700000000E+01 0. -1.
         25    2    1    2    0    0  0.00000000000E+00  0.00000000000E+00 -0.62966145145E+03  0.64194916679E+03  0.12500075717E+03 0.  0.
    9000005    1    3    3    0    0 -0.33327172981E+02 -0.52862982761E+02 -0.31319121772E+03  0.31936645764E+03  0.10000000000E+01 0.  0.
    9000005    1    3    3    0    0  0.33327172981E+02  0.52862982761E+02 -0.31647023373E+03  0.32258270915E+03  0.10000000000E+01 0.  0.
<mgrwt>
<rscale>  0 0.12500076E+03</rscale>
<asrwt>0</asrwt>
<pdfrwt beam="1">  1        4 0.94520938E-03 0.12500076E+03</pdfrwt>
<pdfrwt beam="2">  1       -4 0.97816149E-01 0.12500076E+03</pdfrwt>
<totfact> 0.46321554E+03</totfact>
</mgrwt>
</event>
<event>
 5    1  0.3191162E-002  0.1250022E+03  0.7818608E-02  0.1235066E+00
          4   -1    0    0  501    0  0.00000000000E+00  0.00000000000E+00  0.27199880054E+02  0.27229512940E+02  0.12700000000E+01 0. -1.
         -4   -1    0    0    0  501 -0.00000000000E+00 -0.00000000000E+00 -0.14350723663E+03  0.14351285610E+03  0.12700000000E+01 0. -1.
         25    2    1    2    0    0  0.00000000000E+00  0.00000000000E+00 -0.11630735657E+03  0.17074236904E+03  0.12500222154E+03 0.  0.
    9000005    1    3    3    0    0  0.34278369320E+02  0.52190082824E+02 -0.54650566656E+02  0.82984912992E+02  0.10000000000E+01 0.  0.
    9000005    1    3    3    0    0 -0.34278369320E+02 -0.52190082824E+02 -0.61656789919E+02  0.87757456045E+02  0.10000000000E+01 0.  0.
<mgrwt>
<rscale>  0 0.12500222E+03</rscale>
<asrwt>0</asrwt>
<pdfrwt beam="1">  1        4 0.41873087E-02 0.12500222E+03</pdfrwt>
<pdfrwt beam="2">  1       -4 0.22080748E-01 0.12500222E+03</pdfrwt>
<totfact> 0.95305698E+03</totfact>
</mgrwt>
</event>
<event>
 5    1  0.3191162E-002  0.1249948E+03  0.7818608E-02  0.1235077E+00
         -4   -1    0    0    0  501 -0.00000000000E+00  0.00000000000E+00  0.83798771225E+03  0.83798867461E+03  0.12700000000E+01 0. -1.
          4   -1    0    0  501    0  0.00000000000E+00 -0.00000000000E+00 -0.45735865572E+01  0.47466402851E+01  0.12700000000E+01 0. -1.
         25    2    1    2    0    0  0.00000000000E+00  0.00000000000E+00  0.83341412569E+03  0.84273531490E+03  0.12499482419E+03 0.  0.
    9000005    1    3    3    0    0 -0.20908982015E+02 -0.53688999327E+02  0.25360354713E+03  0.26006817047E+03  0.10000000000E+01 0.  0.
    9000005    1    3    3    0    0  0.20908982015E+02  0.53688999327E+02  0.57981057856E+03  0.58266714442E+03  0.10000000000E+01 0.  0.
<mgrwt>
<rscale>  0 0.12499482E+03</rscale>
<asrwt>0</asrwt>
<pdfrwt beam="2">  1        4 0.71701390E-03 0.12499482E+03</pdfrwt>
<pdfrwt beam="1">  1       -4 0.12893469E+00 0.12499482E+03</pdfrwt>
<totfact> 0.36430545E+03</totfact>
</mgrwt>
</event>
<event>
 5    1  0.3191162E-002  0.1250000E+03  0.7818608E-02  0.1235069E+00
         -4   -1    0    0    0  501 -0.00000000000E+00  0.00000000000E+00  0.27334936140E+02  0.27364422774E+02  0.12700000000E+01 0.  1.
          4   -1    0    0  501    0  0.00000000000E+00 -0.00000000000E+00 -0.14279389113E+03  0.14279953867E+03  0.12700000000E+01 0.  1.
         25    2    1    2    0    0  0.00000000000E+00  0.00000000000E+00 -0.11545895499E+03  0.17016396144E+03  0.12500001394E+03 0.  0.
    9000005    1    3    3    0    0 -0.25931633634E+02  0.21248026924E+02 -0.12952266047E+03  0.13379479753E+03  0.10000000000E+01 0.  0.
    9000005    1    3    3    0    0  0.25931633634E+02 -0.21248026924E+02  0.14063705488E+02  0.36369163904E+02  0.10000000000E+01 0.  0.
<mgrwt>
<rscale>  0 0.12500001E+03</rscale>
<asrwt>0</asrwt>
<pdfrwt beam="2">  1        4 0.21970993E-01 0.12500001E+03</pdfrwt>
<pdfrwt beam="1">  1       -4 0.42080775E-02 0.12500001E+03</pdfrwt>
<totfact> 0.95418055E+03</totfact>
</mgrwt>
</event>
<event>
 5    1  0.3191162E-002  0.1250021E+03  0.7818608E-02  0.1235066E+00
          4   -1    0    0  501    0  0.00000000000E+00  0.00000000000E+00  0.68214456698E+02  0.68226277948E+02  0.12700000000E+01 0.  1.
         -4   -1    0    0    0  501 -0.00000000000E+00 -0.00000000000E+00 -0.57242388548E+02  0.57256475150E+02  0.12700000000E+01 0.  1.
         25    2    1    2    0    0  0.00000000000E+00  0.00000000000E+00  0.10972068151E+02  0.12548275310E+03  0.12500214016E+03 0.  0.
    9000005    1    3    3    0    0  0.49782360203E+02  0.76432627726E+00  0.43400499831E+02  0.66056573992E+02  0.10000000000E+01 0.  0.
    9000005    1    3    3    0    0 -0.49782360203E+02 -0.76432627726E+00 -0.32428431680E+02  0.59426179107E+02  0.10000000000E+01 0.  0.
<mgrwt>
<rscale>  0 0.12500214E+03</rscale>
<asrwt>0</asrwt>
<pdfrwt beam="1">  1        4 0.10496525E-01 0.12500214E+03</pdfrwt>
<pdfrwt beam="2">  1       -4 0.88085142E-02 0.12500214E+03</pdfrwt>
<totfact> 0.10441831E+04</totfact>
</mgrwt>
</event>
<event>
 5    1  0.3191162E-002  0.1249997E+03  0.7818608E-02  0.1235070E+00
         -4   -1    0    0    0  501 -0.00000000000E+00  0.00000000000E+00  0.36953989489E+02  0.36975806133E+02  0.12700000000E+01 0.  1.
          4   -1    0    0  501    0  0.00000000000E+00 -0.00000000000E+00 -0.10564848386E+03  0.10565611692E+03  0.12700000000E+01 0.  1.
         25    2    1    2    0    0  0.00000000000E+00  0.00000000000E+00 -0.68694494372E+02  0.14263192305E+03  0.12499972766E+03 0.  0.
    9000005    1    3    3    0    0 -0.12422904943E+02  0.22141178879E+02 -0.99504275464E+02  0.10269693863E+03  0.10000000000E+01 0.  0.
    9000005    1    3    3    0    0  0.12422904943E+02 -0.22141178879E+02  0.30809781092E+02  0.39934984416E+02  0.10000000000E+01 0.  0.
<mgrwt>
<rscale>  0 0.12499973E+03</rscale>
<asrwt>0</asrwt>
<pdfrwt beam="2">  1        4 0.16255878E-01 0.12499973E+03</pdfrwt>
<pdfrwt beam="1">  1       -4 0.56874946E-02 0.12499973E+03</pdfrwt>
<totfact> 0.10079388E+04</totfact>
</mgrwt>
</event>
<event>
 5    1  0.3191162E-002  0.1249990E+03  0.7818608E-02  0.1235071E+00
         -4   -1    0    0    0  501 -0.00000000000E+00  0.00000000000E+00  0.41231661786E+02  0.41251216147E+02  0.12700000000E+01 0.  1.
          4   -1    0    0  501    0  0.00000000000E+00 -0.00000000000E+00 -0.94691330882E+02  0.94699847118E+02  0.12700000000E+01 0.  1.
         25    2    1    2    0    0  0.00000000000E+00  0.00000000000E+00 -0.53459669096E+02  0.13595106327E+03  0.12499902153E+03 0.  0.
    9000005    1    3    3    0    0 -0.27897167579E+02  0.35281454586E+02 -0.73914815704E+02  0.86529954219E+02  0.10000000000E+01 0.  0.
    9000005    1    3    3    0    0  0.27897167579E+02 -0.35281454586E+02  0.20455146608E+02  0.49421109046E+02  0.10000000000E+01 0.  0.
<mgrwt>
<rscale>  0 0.12499902E+03</rscale>
<asrwt>0</asrwt>
<pdfrwt beam="2">  1        4 0.14570056E-01 0.12499902E+03</pdfrwt>
<pdfrwt beam="1">  1       -4 0.63454919E-02 0.12499902E+03</pdfrwt>
<totfact> 0.10218289E+04</totfact>
</mgrwt>
</event>
<event>
 5    1  0.3191162E-002  0.1250004E+03  0.7818608E-02  0.1235069E+00
         -4   -1    0    0    0  501 -0.00000000000E+00  0.00000000000E+00  0.28660334728E+03  0.28660616109E+03  0.12700000000E+01 0. -1.
          4   -1    0    0  501    0  0.00000000000E+00 -0.00000000000E+00 -0.13597073603E+02  0.13656255364E+02  0.12700000000E+01 0. -1.
         25    2    1    2    0    0  0.00000000000E+00  0.00000000000E+00  0.27300627368E+03  0.30026241645E+03  0.12500037306E+03 0.  0.
    9000005    1    3    3    0    0 -0.50557439877E+02 -0.25029296729E+02  0.20108113616E+03  0.20884717795E+03  0.10000000000E+01 0.  0.
    9000005    1    3    3    0    0  0.50557439877E+02  0.25029296729E+02  0.71925137524E+02  0.91415238497E+02  0.10000000000E+01 0.  0.
<mgrwt>
<rscale>  0 0.12500037E+03</rscale>
<asrwt>0</asrwt>
<pdfrwt beam="2">  1        4 0.20966263E-02 0.12500037E+03</pdfrwt>
<pdfrwt beam="1">  1       -4 0.44097593E-01 0.12500037E+03</pdfrwt>
<totfact> 0.75565305E+03</totfact>
</mgrwt>
</event>
<event>
 5    1  0.3191162E-002  0.1249995E+03  0.7818608E-02  0.1235070E+00
         -4   -1    0    0    0  501 -0.00000000000E+00  0.00000000000E+00  0.19236156847E+03  0.19236576079E+03  0.12700000000E+01 0. -1.
          4   -1    0    0  501    0  0.00000000000E+00 -0.00000000000E+00 -0.20282377559E+02  0.20322099779E+02  0.12700000000E+01 0. -1.
         25    2    1    2    0    0  0.00000000000E+00  0.00000000000E+00  0.17207919091E+03  0.21268786057E+03  0.12499951235E+03 0.  0.
    9000005    1    3    3    0    0  0.10133758475E+02  0.45028234996E+02  0.14354037777E+02  0.48345355601E+02  0.10000000000E+01 0.  0.
    9000005    1    3    3    0    0 -0.10133758475E+02 -0.45028234996E+02  0.15772515314E+03  0.16434250497E+03  0.10000000000E+01 0.  0.
<mgrwt>
<rscale>  0 0.12499951E+03</rscale>
<asrwt>0</asrwt>
<pdfrwt beam="2">  1        4 0.31237440E-02 0.12499951E+03</pdfrwt>
<pdfrwt beam="1">  1       -4 0.29597464E-01 0.12499951E+03</pdfrwt>
<totfact> 0.88039751E+03</totfact>
</mgrwt>
</event>
<event>
 5    1  0.3191162E-002  0.1250002E+03  0.7818608E-02  0.1235069E+00
         -4   -1    0    0    0  501 -0.00000000000E+00  0.00000000000E+00  0.59481561875E+01  0.60822250888E+01  0.12700000000E+01 0. -1.
          4   -1    0    0  501    0  0.00000000000E+00 -0.00000000000E+00 -0.64926461908E+03  0.64926586118E+03  0.12700000000E+01 0. -1.
         25    2    1    2    0    0  0.00000000000E+00  0.00000000000E+00 -0.64331646289E+03  0.65534808626E+03  0.12500017097E+03 0.  0.
    9000005    1    3    3    0    0  0.22551188808E+02 -0.55924877768E+02 -0.40766417351E+03  0.41210099058E+03  0.10000000000E+01 0.  0.
    9000005    1    3    3    0    0 -0.22551188808E+02  0.55924877768E+02 -0.23565228938E+03  0.24324709568E+03  0.10000000000E+01 0.  0.
<mgrwt>
<rscale>  0 0.12500017E+03</rscale>
<asrwt>0</asrwt>
<pdfrwt beam="2">  1        4 0.99897218E-01 0.12500017E+03</pdfrwt>
<pdfrwt beam="1">  1       -4 0.92551000E-03 0.12500017E+03</pdfrwt>
<totfact> 0.45550032E+03</totfact>
</mgrwt>
</event>
<event>
 5    1  0.3191162E-002  0.1250021E+03  0.7818608E-02  0.1235066E+00
          4   -1    0    0  501    0  0.00000000000E+00  0.00000000000E+00  0.19724851021E+02  0.19765693709E+02  0.12700000000E+01 0.  1.
         -4   -1    0    0    0  501 -0.00000000000E+00 -0.00000000000E+00 -0.19779602316E+03  0.19780010030E+03  0.12700000000E+01 0.  1.
         25    2    1    2    0    0  0.00000000000E+00  0.00000000000E+00 -0.17807117214E+03  0.21756579401E+03  0.12500212948E+03 0.  0.
    9000005    1    3    3    0    0 -0.52507765627E+02  0.13022862590E+02 -0.34584940460E+02  0.64216652885E+02  0.10000000000E+01 0.  0.
    9000005    1    3    3    0    0  0.52507765627E+02 -0.13022862590E+02 -0.14348623168E+03  0.15334914112E+03  0.10000000000E+01 0.  0.
<mgrwt>
<rscale>  0 0.12500213E+03</rscale>
<asrwt>0</asrwt>
<pdfrwt beam="1">  1        4 0.30380480E-02 0.12500213E+03</pdfrwt>
<pdfrwt beam="2">  1       -4 0.30433611E-01 0.12500213E+03</pdfrwt>
<totfact> 0.87250852E+03</totfact>
</mgrwt>
</event>
<event>
 4    1  0.3191162E-002  0.1250960E+03  0.7818608E-02  0.1234919E+00
         -4   -1    0    0    0  501 -0.00000000000E+00  0.00000000000E+00  0.50935034577E+03  0.50935192906E+03  0.12700000000E+01 0.  1.
          4   -1    0    0  501    0  0.00000000000E+00 -0.00000000000E+00 -0.76267590108E+01  0.77317755405E+01  0.12700000000E+01 0.  1.
    9000005    1    1    2    0    0  0.18012570988E+02  0.58138906156E+02  0.19143929513E+03  0.20088451618E+03  0.10000000000E+01 0.  0.
    9000005    1    1    2    0    0 -0.18012570988E+02 -0.58138906156E+02  0.31028429163E+03  0.31619918842E+03  0.10000000000E+01 0.  0.
<mgrwt>
<rscale>  0 0.12509596E+03</rscale>
<asrwt>0</asrwt>
<pdfrwt beam="2">  1        4 0.11815476E-02 0.12509596E+03</pdfrwt>
<pdfrwt beam="1">  1       -4 0.78369789E-01 0.12509596E+03</pdfrwt>
<totfact> 0.54447914E+03</totfact>
</mgrwt>
</event>
<event>
 5    1  0.3191162E-002  0.1250005E+03  0.7818608E-02  0.1235069E+00
          4   -1    0    0  501    0  0.00000000000E+00  0.00000000000E+00  0.33517576870E+02  0.33541628751E+02  0.12700000000E+01 0. -1.
         -4   -1    0    0    0  501 -0.00000000000E+00 -0.00000000000E+00 -0.11647490350E+03  0.11648182710E+03  0.12700000000E+01 0. -1.
         25    2    1    2    0    0  0.00000000000E+00  0.00000000000E+00 -0.82957326629E+02  0.15002345585E+03  0.12500047706E+03 0.  0.
    9000005    1    3    3    0    0  0.49958540476E+01  0.33705565934E+02 -0.10435103059E+03  0.10977778153E+03  0.10000000000E+01 0.  0.
    9000005    1    3    3    0    0 -0.49958540476E+01 -0.33705565934E+02  0.21393703961E+02  0.40245674323E+02  0.10000000000E+01 0.  0.
<mgrwt>
<rscale>  0 0.12500048E+03</rscale>
<asrwt>0</asrwt>
<pdfrwt beam="1">  1        4 0.51589331E-02 0.12500048E+03</pdfrwt>
<pdfrwt beam="2">  1       -4 0.17921598E-01 0.12500048E+03</pdfrwt>
<totfact> 0.99297957E+03</totfact>
</mgrwt>
</event>
<event>
 5    1  0.3191162E-002  0.1250001E+03  0.7818608E-02  0.1235069E+00
          4   -1    0    0  501    0  0.00000000000E+00  0.00000000000E+00  0.55859460627E+01  0.57284983561E+01  0.12700000000E+01 0.  1.
         -4   -1    0    0    0  501 -0.00000000000E+00 -0.00000000000E+00 -0.69034651048E+03  0.69034767866E+03  0.12700000000E+01 0.  1.
         25    2    1    2    0    0  0.00000000000E+00  0.00000000000E+00 -0.68476056442E+03  0.69607617702E+03  0.12500005452E+03 0.  0.
    9000005    1    3    3    0    0  0.13788963584E+02  0.45384315806E+02 -0.11581380501E+03  0.12515474050E+03  0.10000000000E+01 0.  0.
    9000005    1    3    3    0    0 -0.13788963584E+02 -0.45384315806E+02 -0.56894675941E+03  0.57092143652E+03  0.10000000000E+01 0.  0.
<mgrwt>
<rscale>  0 0.12500005E+03</rscale>
<asrwt>0</asrwt>
<pdfrwt beam="1">  1        4 0.87043229E-03 0.12500005E+03</pdfrwt>
<pdfrwt beam="2">  1       -4 0.10621814E+00 0.12500005E+03</pdfrwt>
<totfact> 0.43294603E+03</totfact>
</mgrwt>
</event>
<event>
 5    1  0.3191162E-002  0.1250003E+03  0.7818608E-02  0.1235069E+00
          4   -1    0    0  501    0  0.00000000000E+00  0.00000000000E+00  0.29715220713E+02  0.29742347621E+02  0.12700000000E+01 0. -1.
         -4   -1    0    0    0  501 -0.00000000000E+00 -0.00000000000E+00 -0.13136674679E+03  0.13137288557E+03  0.12700000000E+01 0. -1.
         25    2    1    2    0    0  0.00000000000E+00  0.00000000000E+00 -0.10165152608E+03  0.16111523319E+03  0.12500034245E+03 0.  0.
    9000005    1    3    3    0    0 -0.26267019835E+02  0.48542247091E+02 -0.13050002546E+02  0.56723968921E+02  0.10000000000E+01 0.  0.
    9000005    1    3    3    0    0  0.26267019835E+02 -0.48542247091E+02 -0.88601523535E+02  0.10439126427E+03  0.10000000000E+01 0.  0.
<mgrwt>
<rscale>  0 0.12500034E+03</rscale>
<asrwt>0</asrwt>
<pdfrwt beam="1">  1        4 0.45741314E-02 0.12500034E+03</pdfrwt>
<pdfrwt beam="2">  1       -4 0.20212827E-01 0.12500034E+03</pdfrwt>
<totfact> 0.97127459E+03</totfact>
</mgrwt>
</event>
<event>
 5    1  0.3191162E-002  0.1250017E+03  0.7818608E-02  0.1235067E+00
         -4   -1    0    0    0  501 -0.00000000000E+00  0.00000000000E+00  0.97860460916E+02  0.97868701385E+02  0.12700000000E+01 0.  1.
          4   -1    0    0  501    0  0.00000000000E+00 -0.00000000000E+00 -0.39897579709E+02  0.39917787597E+02  0.12700000000E+01 0.  1.
         25    2    1    2    0    0  0.00000000000E+00  0.00000000000E+00  0.57962881207E+02  0.13778648898E+03  0.12500168378E+03 0.  0.
    9000005    1    3    3    0    0  0.60618475598E+02 -0.55093529333E+01  0.13377203632E+02  0.62328983070E+02  0.10000000000E+01 0.  0.
    9000005    1    3    3    0    0 -0.60618475598E+02  0.55093529333E+01  0.44585677575E+02  0.75457505911E+02  0.10000000000E+01 0.  0.
<mgrwt>
<rscale>  0 0.12500168E+03</rscale>
<asrwt>0</asrwt>
<pdfrwt beam="2">  1        4 0.61402776E-02 0.12500168E+03</pdfrwt>
<pdfrwt beam="1">  1       -4 0.15057644E-01 0.12500168E+03</pdfrwt>
<totfact> 0.10179280E+04</totfact>
</mgrwt>
</event>
<event>
 5    1  0.3191162E-002  0.1249805E+03  0.7818608E-02  0.1235100E+00
          4   -1    0    0  501    0  0.00000000000E+00  0.00000000000E+00  0.49705268167E+02  0.49721490159E+02  0.12700000000E+01 0.  1.
         -4   -1    0    0    0  501 -0.00000000000E+00 -0.00000000000E+00 -0.78529578395E+02  0.78539847102E+02  0.12700000000E+01 0.  1.
         25    2    1    2    0    0  0.00000000000E+00  0.00000000000E+00 -0.28824310227E+02  0.12826133726E+03  0.12498051759E+03 0.  0.
    9000005    1    3    3    0    0  0.40298252435E+02  0.33655119518E+02  0.20350579909E+02  0.56318401271E+02  0.10000000000E+01 0.  0.
    9000005    1    3    3    0    0 -0.40298252435E+02 -0.33655119518E+02 -0.49174890136E+02  0.71942935991E+02  0.10000000000E+01 0.  0.
<mgrwt>
<rscale>  0 0.12498052E+03</rscale>
<asrwt>0</asrwt>
<pdfrwt beam="1">  1        4 0.76490021E-02 0.12498052E+03</pdfrwt>
<pdfrwt beam="2">  1       -4 0.12083511E-01 0.12498052E+03</pdfrwt>
<totfact> 0.10386415E+04</totfact>
</mgrwt>
</event>
<event>
 5    1  0.3191162E-002  0.1250080E+03  0.7818608E-02  0.1235057E+00
         -4   -1    0    0    0  501 -0.00000000000E+00  0.00000000000E+00  0.37754491547E+03  0.37754705150E+03  0.12700000000E+01 0.  1.
          4   -1    0    0  501    0  0.00000000000E+00 -0.00000000000E+00 -0.10306629985E+02  0.10384580956E+02  0.12700000000E+01 0.  1.
         25    2    1    2    0    0  0.00000000000E+00  0.00000000000E+00  0.36723828548E+03  0.38793163246E+03  0.12500797229E+03 0.  0.
    9000005    1    3    3    0    0 -0.50038519081E+02  0.31764307115E+02  0.24513280556E+03  0.25219817001E+03  0.10000000000E+01 0.  0.
    9000005    1    3    3    0    0  0.50038519081E+02 -0.31764307115E+02  0.12210547993E+03  0.13573346244E+03  0.10000000000E+01 0.  0.
<mgrwt>
<rscale>  0 0.12500797E+03</rscale>
<asrwt>0</asrwt>
<pdfrwt beam="2">  1        4 0.15917961E-02 0.12500797E+03</pdfrwt>
<pdfrwt beam="1">  1       -4 0.58089988E-01 0.12500797E+03</pdfrwt>
<totfact> 0.65732141E+03</totfact>
</mgrwt>
</event>
<event>
 5    1  0.3191162E-002  0.1250046E+03  0.7818608E-02  0.1235062E+00
          4   -1    0    0  501    0  0.00000000000E+00  0.00000000000E+00  0.21016754562E+02  0.21055091364E+02  0.12700000000E+01 0.  1.
         -4   -1    0    0    0  501 -0.00000000000E+00 -0.00000000000E+00 -0.18566736987E+03  0.18567171334E+03  0.12700000000E+01 0.  1.
         25    2    1    2    0    0  0.00000000000E+00  0.00000000000E+00 -0.16465061531E+03  0.20672680470E+03  0.12500458656E+03 0.  0.
    9000005    1    3    3    0    0 -0.58605113948E+02 -0.54214921340E+01 -0.11707715184E+03  0.13104202166E+03  0.10000000000E+01 0.  0.
    9000005    1    3    3    0    0  0.58605113948E+02  0.54214921340E+01 -0.47573463465E+02  0.75684783041E+02  0.10000000000E+01 0.  0.
<mgrwt>
<rscale>  0 0.12500459E+03</rscale>
<asrwt>0</asrwt>
<pdfrwt beam="1">  1        4 0.32366301E-02 0.12500459E+03</pdfrwt>
<pdfrwt beam="2">  1       -4 0.28567493E-01 0.12500459E+03</pdfrwt>
<totfact> 0.89004113E+03</totfact>
</mgrwt>
</event>
<event>
 5    1  0.3191162E-002  0.1249976E+03  0.7818608E-02  0.1235073E+00
          4   -1    0    0  501    0  0.00000000000E+00  0.00000000000E+00  0.24199292392E+02  0.24232594832E+02  0.12700000000E+01 0.  1.
         -4   -1    0    0    0  501 -0.00000000000E+00 -0.00000000000E+00 -0.16126697470E+03  0.16127197533E+03  0.12700000000E+01 0.  1.
         25    2    1    2    0    0  0.00000000000E+00  0.00000000000E+00 -0.13706768230E+03  0.18550457016E+03  0.12499758406E+03 0.  0.
    9000005    1    3    3    0    0 -0.14542186765E+02 -0.27043159625E+02 -0.14930696475E+03  0.15243483002E+03  0.10000000000E+01 0.  0.
    9000005    1    3    3    0    0  0.14542186765E+02  0.27043159625E+02  0.12239282451E+02  0.33069740146E+02  0.10000000000E+01 0.  0.
<mgrwt>
<rscale>  0 0.12499758E+03</rscale>
<asrwt>0</asrwt>
<pdfrwt beam="1">  1        4 0.37259146E-02 0.12499758E+03</pdfrwt>
<pdfrwt beam="2">  1       -4 0.24813250E-01 0.12499758E+03</pdfrwt>
<totfact> 0.92640458E+03</totfact>
</mgrwt>
</event>
<event>
 5    1  0.3191162E-002  0.1249983E+03  0.7818608E-02  0.1235072E+00
         -4   -1    0    0    0  501 -0.00000000000E+00  0.00000000000E+00  0.57159093231E+03  0.57159234319E+03  0.12700000000E+01 0. -1.
          4   -1    0    0  501    0  0.00000000000E+00 -0.00000000000E+00 -0.67733696599E+01  0.68914030900E+01  0.12700000000E+01 0. -1.
         25    2    1    2    0    0  0.00000000000E+00  0.00000000000E+00  0.56481756265E+03  0.57848374628E+03  0.12499826254E+03 0.  0.
    9000005    1    3    3    0    0  0.18063348180E+01 -0.21614827284E+02  0.11183488656E+02  0.24424045990E+02  0.10000000000E+01 0.  0.
    9000005    1    3    3    0    0 -0.18063348180E+01  0.21614827284E+02  0.55363407399E+03  0.55405970029E+03  0.10000000000E+01 0.  0.
<mgrwt>
<rscale>  0 0.12499826E+03</rscale>
<asrwt>0</asrwt>
<pdfrwt beam="2">  1        4 0.10512443E-02 0.12499826E+03</pdfrwt>
<pdfrwt beam="1">  1       -4 0.87946302E-01 0.12499826E+03</pdfrwt>
<totfact> 0.50256463E+03</totfact>
</mgrwt>
</event>
<event>
 5    1  0.3191162E-002  0.1250000E+03  0.7818608E-02  0.1235069E+00
          4   -1    0    0  501    0  0.00000000000E+00  0.00000000000E+00  0.12736219909E+03  0.12736853087E+03  0.12700000000E+01 0. -1.
         -4   -1    0    0    0  501 -0.00000000000E+00 -0.00000000000E+00 -0.30650152972E+02  0.30676453139E+02  0.12700000000E+01 0. -1.
         25    2    1    2    0    0  0.00000000000E+00  0.00000000000E+00  0.96712046115E+02  0.15804498401E+03  0.12499998843E+03 0.  0.
    9000005    1    3    3    0    0  0.47235726736E+02 -0.73256816300E+01 -0.25392925989E+01  0.47878257054E+02  0.10000000000E+01 0.  0.
    9000005    1    3    3    0    0 -0.47235726736E+02  0.73256816300E+01  0.99251338714E+02  0.11016672696E+03  0.10000000000E+01 0.  0.
<mgrwt>
<rscale>  0 0.12499999E+03</rscale>
<asrwt>0</asrwt>
<pdfrwt beam="1">  1        4 0.19596694E-01 0.12499999E+03</pdfrwt>
<pdfrwt beam="2">  1       -4 0.47179183E-02 0.12499999E+03</pdfrwt>
<totfact> 0.97721051E+03</totfact>
</mgrwt>
</event>
<event>
 5    1  0.3191162E-002  0.1250020E+03  0.7818608E-02  0.1235066E+00
          4   -1    0    0  501    0  0.00000000000E+00  0.00000000000E+00  0.60477390380E+02  0.60490723646E+02  0.12700000000E+01 0.  1.
         -4   -1    0    0    0  501 -0.00000000000E+00 -0.00000000000E+00 -0.64565596744E+02  0.64578085935E+02  0.12700000000E+01 0.  1.
         25    2    1    2    0    0  0.00000000000E+00  0.00000000000E+00 -0.40882063641E+01  0.12506880958E+03  0.12500197478E+03 0.  0.
    9000005    1    3    3    0    0  0.29575331753E+02  0.45138886665E+02  0.29487093914E+02  0.61503723831E+02  0.10000000000E+01 0.  0.
    9000005    1    3    3    0    0 -0.29575331753E+02 -0.45138886665E+02 -0.33575300278E+02  0.63565085750E+02  0.10000000000E+01 0.  0.
<mgrwt>
<rscale>  0 0.12500197E+03</rscale>
<asrwt>0</asrwt>
<pdfrwt beam="1">  1        4 0.93062003E-02 0.12500197E+03</pdfrwt>
<pdfrwt beam="2">  1       -4 0.99351550E-02 0.12500197E+03</pdfrwt>
<totfact> 0.10450902E+04</totfact>
</mgrwt>
</event>
<event>
 5    1  0.3191162E-002  0.1250012E+03  0.7818608E-02  0.1235067E+00
          4   -1    0    0  501    0  0.00000000000E+00  0.00000000000E+00  0.47610925437E+02  0.47627860764E+02  0.12700000000E+01 0.  1.
         -4   -1    0    0    0  501 -0.00000000000E+00 -0.00000000000E+00 -0.82010344460E+02  0.82020177386E+02  0.12700000000E+01 0.  1.
         25    2    1    2    0    0  0.00000000000E+00  0.00000000000E+00 -0.34399419023E+02  0.12964803815E+03  0.12500117506E+03 0.  0.
    9000005    1    3    3    0    0  0.15067579681E+02 -0.29135768042E+02 -0.72369192446E+02  0.79462097582E+02  0.10000000000E+01 0.  0.
    9000005    1    3    3    0    0 -0.15067579681E+02  0.29135768042E+02  0.37969773423E+02  0.50185940567E+02  0.10000000000E+01 0.  0.
<mgrwt>
<rscale>  0 0.12500118E+03</rscale>
<asrwt>0</asrwt>
<pdfrwt beam="1">  1        4 0.73268168E-02 0.12500118E+03</pdfrwt>
<pdfrwt beam="2">  1       -4 0.12619035E-01 0.12500118E+03</pdfrwt>
<totfact> 0.10351768E+04</totfact>
</mgrwt>
</event>
<event>
 5    1  0.3191162E-002  0.1250000E+03  0.7818608E-02  0.1235069E+00
          4   -1    0    0  501    0  0.00000000000E+00  0.00000000000E+00  0.90042737443E+01  0.90933957168E+01  0.12700000000E+01 0. -1.
         -4   -1    0    0    0  501 -0.00000000000E+00 -0.00000000000E+00 -0.43159533257E+03  0.43159720110E+03  0.12700000000E+01 0. -1.
         25    2    1    2    0    0  0.00000000000E+00  0.00000000000E+00 -0.42259105883E+03  0.44069059682E+03  0.12499999649E+03 0.  0.
    9000005    1    3    3    0    0  0.60587286366E+02  0.25343275630E+01 -0.26453068594E+03  0.27139404174E+03  0.10000000000E+01 0.  0.
    9000005    1    3    3    0    0 -0.60587286366E+02 -0.25343275630E+01 -0.15806037288E+03  0.16929655508E+03  0.10000000000E+01 0.  0.
<mgrwt>
<rscale>  0 0.12500000E+03</rscale>
<asrwt>0</asrwt>
<pdfrwt beam="1">  1        4 0.13922725E-02 0.12500000E+03</pdfrwt>
<pdfrwt beam="2">  1       -4 0.66406265E-01 0.12500000E+03</pdfrwt>
<totfact> 0.60778777E+03</totfact>
</mgrwt>
</event>
<event>
 5    1  0.3191162E-002  0.1249708E+03  0.7818608E-02  0.1235115E+00
         -4   -1    0    0    0  501 -0.00000000000E+00  0.00000000000E+00  0.80291374535E+02  0.80301417950E+02  0.12700000000E+01 0. -1.
          4   -1    0    0  501    0  0.00000000000E+00 -0.00000000000E+00 -0.48606826405E+02  0.48623414866E+02  0.12700000000E+01 0. -1.
         25    2    1    2    0    0  0.00000000000E+00  0.00000000000E+00  0.31684548130E+02  0.12892483282E+03  0.12497080430E+03 0.  0.
    9000005    1    3    3    0    0 -0.56561088829E+02 -0.24707112220E+02  0.58493482622E+01  0.62006556418E+02  0.10000000000E+01 0.  0.
    9000005    1    3    3    0    0  0.56561088829E+02  0.24707112220E+02  0.25835199868E+02  0.66918276397E+02  0.10000000000E+01 0.  0.
<mgrwt>
<rscale>  0 0.12497080E+03</rscale>
<asrwt>0</asrwt>
<pdfrwt beam="2">  1        4 0.74800220E-02 0.12497080E+03</pdfrwt>
<pdfrwt beam="1">  1       -4 0.12354568E-01 0.12497080E+03</pdfrwt>
<totfact> 0.10374398E+04</totfact>
</mgrwt>
</event>
<event>
 5    1  0.3191162E-002  0.1249967E+03  0.7818608E-02  0.1235074E+00
         -4   -1    0    0    0  501 -0.00000000000E+00  0.00000000000E+00  0.44945597886E+03  0.44945777314E+03  0.12700000000E+01 0.  1.
          4   -1    0    0  501    0  0.00000000000E+00 -0.00000000000E+00 -0.86423852686E+01  0.87352002341E+01  0.12700000000E+01 0.  1.
         25    2    1    2    0    0  0.00000000000E+00  0.00000000000E+00  0.44081359359E+03  0.45819297337E+03  0.12499670616E+03 0.  0.
    9000005    1    3    3    0    0 -0.58957145836E+02 -0.15609936342E+02  0.17049092499E+03  0.18107393700E+03  0.10000000000E+01 0.  0.
    9000005    1    3    3    0    0  0.58957145836E+02  0.15609936342E+02  0.27032266860E+03  0.27711903637E+03  0.10000000000E+01 0.  0.
<mgrwt>
<rscale>  0 0.12499671E+03</rscale>
<asrwt>0</asrwt>
<pdfrwt beam="2">  1        4 0.13368757E-02 0.12499671E+03</pdfrwt>
<pdfrwt beam="1">  1       -4 0.69154332E-01 0.12499671E+03</pdfrwt>
<totfact> 0.59264859E+03</totfact>
</mgrwt>
</event>
<event>
 5    1  0.3191162E-002  0.1249999E+03  0.7818608E-02  0.1235069E+00
          4   -1    0    0  501    0  0.00000000000E+00  0.00000000000E+00  0.21550428848E+03  0.21550803060E+03  0.12700000000E+01 0. -1.
         -4   -1    0    0    0  501 -0.00000000000E+00 -0.00000000000E+00 -0.18099906063E+02  0.18144406838E+02  0.12700000000E+01 0. -1.
         25    2    1    2    0    0  0.00000000000E+00  0.00000000000E+00  0.19740438242E+03  0.23365243744E+03  0.12499988529E+03 0.  0.
    9000005    1    3    3    0    0 -0.47543662291E+02 -0.40367254682E+02  0.91384063324E+02  0.11064340064E+03  0.10000000000E+01 0.  0.
    9000005    1    3    3    0    0  0.47543662291E+02  0.40367254682E+02  0.10602031910E+03  0.12300903681E+03  0.10000000000E+01 0.  0.
<mgrwt>
<rscale>  0 0.12499989E+03</rscale>
<asrwt>0</asrwt>
<pdfrwt beam="1">  1        4 0.33158218E-01 0.12499989E+03</pdfrwt>
<pdfrwt beam="2">  1       -4 0.27883118E-02 0.12499989E+03</pdfrwt>
<totfact> 0.84752114E+03</totfact>
</mgrwt>
</event>
<event>
 5    1  0.3191162E-002  0.1250009E+03  0.7818608E-02  0.1235068E+00
          4   -1    0    0  501    0  0.00000000000E+00  0.00000000000E+00  0.21961471806E+03  0.21961839014E+03  0.12700000000E+01 0.  1.
         -4   -1    0    0    0  501 -0.00000000000E+00 -0.00000000000E+00 -0.17760592263E+02  0.17805941074E+02  0.12700000000E+01 0.  1.
         25    2    1    2    0    0  0.00000000000E+00  0.00000000000E+00  0.20185412579E+03  0.23742433121E+03  0.12500089980E+03 0.  0.
    9000005    1    3    3    0    0  0.19397556264E+02 -0.15354290108E+02  0.20992715437E+03  0.21138218836E+03  0.10000000000E+01 0.  0.
    9000005    1    3    3    0    0 -0.19397556264E+02  0.15354290108E+02 -0.80730285799E+01  0.26042142850E+02  0.10000000000E+01 0.  0.
<mgrwt>
<rscale>  0 0.12500090E+03</rscale>
<asrwt>0</asrwt>
<pdfrwt beam="1">  1        4 0.33790652E-01 0.12500090E+03</pdfrwt>
<pdfrwt beam="2">  1       -4 0.27361696E-02 0.12500090E+03</pdfrwt>
<totfact> 0.84180778E+03</totfact>
</mgrwt>
</event>
<event>
 5    1  0.3191162E-002  0.1249974E+03  0.7818608E-02  0.1235073E+00
         -4   -1    0    0    0  501 -0.00000000000E+00  0.00000000000E+00  0.10359156452E+03  0.10359934912E+03  0.12700000000E+01 0. -1.
          4   -1    0    0  501    0  0.00000000000E+00 -0.00000000000E+00 -0.37686709351E+02  0.37708102070E+02  0.12700000000E+01 0. -1.
         25    2    1    2    0    0  0.00000000000E+00  0.00000000000E+00  0.65904855166E+02  0.14130745119E+03  0.12499738329E+03 0.  0.
    9000005    1    3    3    0    0 -0.31886544835E+02  0.84839473903E+01  0.92946455529E+02  0.98634541111E+02  0.10000000000E+01 0.  0.
    9000005    1    3    3    0    0  0.31886544835E+02 -0.84839473903E+01 -0.27041600363E+02  0.42672910084E+02  0.10000000000E+01 0.  0.
<mgrwt>
<rscale>  0 0.12499738E+03</rscale>
<asrwt>0</asrwt>
<pdfrwt beam="2">  1        4 0.58001997E-02 0.12499738E+03</pdfrwt>
<pdfrwt beam="1">  1       -4 0.15939408E-01 0.12499738E+03</pdfrwt>
<totfact> 0.10107156E+04</totfact>
</mgrwt>
</event>
<event>
 5    1  0.3191162E-002  0.1250013E+03  0.7818608E-02  0.1235067E+00
          4   -1    0    0  501    0  0.00000000000E+00  0.00000000000E+00  0.17970202782E+03  0.17970651548E+03  0.12700000000E+01 0.  1.
         -4   -1    0    0    0  501 -0.00000000000E+00 -0.00000000000E+00 -0.21714527274E+02  0.21751634300E+02  0.12700000000E+01 0.  1.
         25    2    1    2    0    0  0.00000000000E+00  0.00000000000E+00  0.15798750055E+03  0.20145814978E+03  0.12500134312E+03 0.  0.
    9000005    1    3    3    0    0 -0.58009161797E+02 -0.22469897430E+02  0.69408197294E+02  0.93211892989E+02  0.10000000000E+01 0.  0.
    9000005    1    3    3    0    0  0.58009161797E+02  0.22469897430E+02  0.88579303257E+02  0.10824625679E+03  0.10000000000E+01 0.  0.
<mgrwt>
<rscale>  0 0.12500134E+03</rscale>
<asrwt>0</asrwt>
<pdfrwt beam="1">  1        4 0.27649664E-01 0.12500134E+03</pdfrwt>
<pdfrwt beam="2">  1       -4 0.33438962E-02 0.12500134E+03</pdfrwt>
<totfact> 0.89887458E+03</totfact>
</mgrwt>
</event>
<event>
 5    1  0.3191162E-002  0.1249997E+03  0.7818608E-02  0.1235070E+00
         -4   -1    0    0    0  501 -0.00000000000E+00  0.00000000000E+00  0.22228022755E+02  0.22264273974E+02  0.12700000000E+01 0. -1.
          4   -1    0    0  501    0  0.00000000000E+00 -0.00000000000E+00 -0.17555275904E+03  0.17555735276E+03  0.12700000000E+01 0. -1.
         25    2    1    2    0    0  0.00000000000E+00  0.00000000000E+00 -0.15332473629E+03  0.19782162673E+03  0.12499968498E+03 0.  0.
    9000005    1    3    3    0    0 -0.50397359731E+02 -0.14670193049E+02 -0.13033300924E+03  0.14050908060E+03  0.10000000000E+01 0.  0.
    9000005    1    3    3    0    0  0.50397359731E+02  0.14670193049E+02 -0.22991727046E+02  0.57312546136E+02  0.10000000000E+01 0.  0.
<mgrwt>
<rscale>  0 0.12499968E+03</rscale>
<asrwt>0</asrwt>
<pdfrwt beam="2">  1        4 0.27011258E-01 0.12499968E+03</pdfrwt>
<pdfrwt beam="1">  1       -4 0.34228378E-02 0.12499968E+03</pdfrwt>
<totfact> 0.90504545E+03</totfact>
</mgrwt>
</event>
<event>
 5    1  0.3191162E-002  0.1249994E+03  0.7818608E-02  0.1235070E+00
          4   -1    0    0  501    0  0.00000000000E+00  0.00000000000E+00  0.85320593533E+01  0.86260614888E+01  0.12700000000E+01 0. -1.
         -4   -1    0    0    0  501 -0.00000000000E+00 -0.00000000000E+00 -0.45522469131E+03  0.45522646285E+03  0.12700000000E+01 0. -1.
         25    2    1    2    0    0  0.00000000000E+00  0.00000000000E+00 -0.44669263196E+03  0.46385252434E+03  0.12499942756E+03 0.  0.
    9000005    1    3    3    0    0  0.51168781721E+02  0.18116800805E+02 -0.10844501795E+03  0.12127565548E+03  0.10000000000E+01 0.  0.
    9000005    1    3    3    0    0 -0.51168781721E+02 -0.18116800805E+02 -0.33824761401E+03  0.34257686886E+03  0.10000000000E+01 0.  0.
<mgrwt>
<rscale>  0 0.12499943E+03</rscale>
<asrwt>0</asrwt>
<pdfrwt beam="1">  1        4 0.13199921E-02 0.12499943E+03</pdfrwt>
<pdfrwt beam="2">  1       -4 0.70041916E-01 0.12499943E+03</pdfrwt>
<totfact> 0.58783008E+03</totfact>
</mgrwt>
</event>
<event>
 5    1  0.3191162E-002  0.1249998E+03  0.7818608E-02  0.1235070E+00
         -4   -1    0    0    0  501 -0.00000000000E+00  0.00000000000E+00  0.69856655483E+02  0.69868198884E+02  0.12700000000E+01 0.  1.
          4   -1    0    0  501    0  0.00000000000E+00 -0.00000000000E+00 -0.55894563551E+02  0.55908989747E+02  0.12700000000E+01 0.  1.
         25    2    1    2    0    0  0.00000000000E+00  0.00000000000E+00  0.13962091932E+02  0.12577718863E+03  0.12499984468E+03 0.  0.
    9000005    1    3    3    0    0  0.31456752478E+01  0.18410347463E+02  0.66987499831E+02  0.69549703810E+02  0.10000000000E+01 0.  0.
    9000005    1    3    3    0    0 -0.31456752478E+01 -0.18410347463E+02 -0.53025407899E+02  0.56227484821E+02  0.10000000000E+01 0.  0.
<mgrwt>
<rscale>  0 0.12499984E+03</rscale>
<asrwt>0</asrwt>
<pdfrwt beam="2">  1        4 0.86011613E-02 0.12499984E+03</pdfrwt>
<pdfrwt beam="1">  1       -4 0.10749175E-01 0.12499984E+03</pdfrwt>
<totfact> 0.10435883E+04</totfact>
</mgrwt>
</event>
<event>
 5    1  0.3191162E-002  0.1249992E+03  0.7818608E-02  0.1235071E+00
         -4   -1    0    0    0  501 -0.00000000000E+00  0.00000000000E+00  0.17420540383E+02  0.17466772090E+02  0.12700000000E+01 0.  1.
          4   -1    0    0  501    0  0.00000000000E+00 -0.00000000000E+00 -0.22388440891E+03  0.22388801096E+03  0.12700000000E+01 0.  1.
         25    2    1    2    0    0  0.00000000000E+00  0.00000000000E+00 -0.20646386853E+03  0.24135478305E+03  0.12499920918E+03 0.  0.
    9000005    1    3    3    0    0  0.35608446069E+01  0.15355409693E+02 -0.21999224216E+03  0.22055850660E+03  0.10000000000E+01 0.  0.
    9000005    1    3    3    0    0 -0.35608446069E+01 -0.15355409693E+02  0.13528373636E+02  0.20796276455E+02  0.10000000000E+01 0.  0.
<mgrwt>
<rscale>  0 0.12499921E+03</rscale>
<asrwt>0</asrwt>
<pdfrwt beam="2">  1        4 0.34447586E-01 0.12499921E+03</pdfrwt>
<pdfrwt beam="1">  1       -4 0.26839167E-02 0.12499921E+03</pdfrwt>
<totfact> 0.83597484E+03</totfact>
</mgrwt>
</event>
<event>
 5    1  0.3191162E-002  0.1250005E+03  0.7818608E-02  0.1235069E+00
         -4   -1    0    0    0  501 -0.00000000000E+00  0.00000000000E+00  0.96715095171E+01  0.97545372181E+01  0.12700000000E+01 0.  1.
          4   -1    0    0  501    0  0.00000000000E+00 -0.00000000000E+00 -0.40208523257E+03  0.40208723824E+03  0.12700000000E+01 0.  1.
         25    2    1    2    0    0  0.00000000000E+00  0.00000000000E+00 -0.39241372306E+03  0.41184177546E+03  0.12500047187E+03 0.  0.
    9000005    1    3    3    0    0 -0.31926753655E+01 -0.26693994884E+02 -0.38207463988E+03  0.38302061691E+03  0.10000000000E+01 0.  0.
    9000005    1    3    3    0    0  0.31926753655E+01  0.26693994884E+02 -0.10339083173E+02  0.28821158542E+02  0.10000000000E+01 0.  0.
<mgrwt>
<rscale>  0 0.12500047E+03</rscale>
<asrwt>0</asrwt>
<pdfrwt beam="2">  1        4 0.61865795E-01 0.12500047E+03</pdfrwt>
<pdfrwt beam="1">  1       -4 0.14944659E-02 0.12500047E+03</pdfrwt>
<totfact> 0.63416486E+03</totfact>
</mgrwt>
</event>
<event>
 5    1  0.3191162E-002  0.1249998E+03  0.7818608E-02  0.1235070E+00
          4   -1    0    0  501    0  0.00000000000E+00  0.00000000000E+00  0.48680658537E+03  0.48680824198E+03  0.12700000000E+01 0. -1.
         -4   -1    0    0    0  501 -0.00000000000E+00 -0.00000000000E+00 -0.79722829986E+01  0.80728059688E+01  0.12700000000E+01 0. -1.
         25    2    1    2    0    0  0.00000000000E+00  0.00000000000E+00  0.47883430238E+03  0.49488104795E+03  0.12499984997E+03 0.  0.
    9000005    1    3    3    0    0  0.23377718460E+02 -0.28354333102E+01  0.10247018616E+02  0.25701338349E+02  0.10000000000E+01 0.  0.
    9000005    1    3    3    0    0 -0.23377718460E+02  0.28354333102E+01  0.46858728376E+03  0.46917970960E+03  0.10000000000E+01 0.  0.
<mgrwt>
<rscale>  0 0.12499985E+03</rscale>
<asrwt>0</asrwt>
<pdfrwt beam="1">  1        4 0.74901215E-01 0.12499985E+03</pdfrwt>
<pdfrwt beam="2">  1       -4 0.12343645E-02 0.12499985E+03</pdfrwt>
<totfact> 0.56263900E+03</totfact>
</mgrwt>
</event>
<event>
 5    1  0.3191162E-002  0.1250010E+03  0.7818608E-02  0.1235068E+00
          4   -1    0    0  501    0  0.00000000000E+00  0.00000000000E+00  0.15245541104E+02  0.15298347085E+02  0.12700000000E+01 0. -1.
         -4   -1    0    0    0  501 -0.00000000000E+00 -0.00000000000E+00 -0.25572912759E+03  0.25573228110E+03  0.12700000000E+01 0. -1.
         25    2    1    2    0    0  0.00000000000E+00  0.00000000000E+00 -0.24048358649E+03  0.27103062819E+03  0.12500098418E+03 0.  0.
    9000005    1    3    3    0    0 -0.17136851899E+02 -0.37109287884E+02 -0.17747647175E+02  0.44572972983E+02  0.10000000000E+01 0.  0.
    9000005    1    3    3    0    0  0.17136851899E+02  0.37109287884E+02 -0.22273593931E+03  0.22645765521E+03  0.10000000000E+01 0.  0.
<mgrwt>
<rscale>  0 0.12500098E+03</rscale>
<asrwt>0</asrwt>
<pdfrwt beam="1">  1        4 0.23497726E-02 0.12500098E+03</pdfrwt>
<pdfrwt beam="2">  1       -4 0.39347244E-01 0.12500098E+03</pdfrwt>
<totfact> 0.79380828E+03</totfact>
</mgrwt>
</event>
<event>
 5    1  0.3191162E-002  0.1250446E+03  0.7818608E-02  0.1235000E+00
         -4   -1    0    0    0  501 -0.00000000000E+00  0.00000000000E+00  0.18901991936E+03  0.18902418580E+03  0.12700000000E+01 0.  1.
          4   -1    0    0  501    0  0.00000000000E+00 -0.00000000000E+00 -0.20656547103E+02  0.20695551170E+02  0.12700000000E+01 0.  1.
         25    2    1    2    0    0  0.00000000000E+00  0.00000000000E+00  0.16836337226E+03  0.20971973697E+03  0.12504456387E+03 0.  0.
    9000005    1    3    3    0    0  0.54234667811E+02 -0.71128212066E+01  0.13494298561E+03  0.14561112864E+03  0.10000000000E+01 0.  0.
    9000005    1    3    3    0    0 -0.54234667811E+02  0.71128212066E+01  0.33420386652E+02  0.64108608330E+02  0.10000000000E+01 0.  0.
<mgrwt>
<rscale>  0 0.12504456E+03</rscale>
<asrwt>0</asrwt>
<pdfrwt beam="2">  1        4 0.31812588E-02 0.12504456E+03</pdfrwt>
<pdfrwt beam="1">  1       -4 0.29083316E-01 0.12504456E+03</pdfrwt>
<totfact> 0.88433533E+03</totfact>
</mgrwt>
</event>
<event>
 5    1  0.3191162E-002  0.1250055E+03  0.7818608E-02  0.1235061E+00
         -4   -1    0    0    0  501 -0.00000000000E+00  0.00000000000E+00  0.51009214760E+02  0.51025022199E+02  0.12700000000E+01 0. -1.
          4   -1    0    0  501    0  0.00000000000E+00 -0.00000000000E+00 -0.76553088489E+02  0.76563622283E+02  0.12700000000E+01 0. -1.
         25    2    1    2    0    0  0.00000000000E+00  0.00000000000E+00 -0.25543873729E+02  0.12758864448E+03  0.12500549074E+03 0.  0.
    9000005    1    3    3    0    0  0.16614218152E+02  0.57686668949E+02 -0.30503586531E+02  0.67344285656E+02  0.10000000000E+01 0.  0.
    9000005    1    3    3    0    0 -0.16614218152E+02 -0.57686668949E+02  0.49597128026E+01  0.60244358826E+02  0.10000000000E+01 0.  0.
<mgrwt>
<rscale>  0 0.12500549E+03</rscale>
<asrwt>0</asrwt>
<pdfrwt beam="2">  1        4 0.11779425E-01 0.12500549E+03</pdfrwt>
<pdfrwt beam="1">  1       -4 0.78495977E-02 0.12500549E+03</pdfrwt>
<totfact> 0.10395093E+04</totfact>
</mgrwt>
</event>
<event>
 5    1  0.3191162E-002  0.1249987E+03  0.7818608E-02  0.1235071E+00
          4   -1    0    0  501    0  0.00000000000E+00  0.00000000000E+00  0.43126517896E+02  0.43145213475E+02  0.12700000000E+01 0. -1.
         -4   -1    0    0    0  501 -0.00000000000E+00 -0.00000000000E+00 -0.90531872191E+02  0.90540779665E+02  0.12700000000E+01 0. -1.
         25    2    1    2    0    0  0.00000000000E+00  0.00000000000E+00 -0.47405354295E+02  0.13368599314E+03  0.12499870858E+03 0.  0.
    9000005    1    3    3    0    0 -0.51914462327E+02 -0.21971889136E+02  0.51399871842E+01  0.56615322830E+02  0.10000000000E+01 0.  0.
    9000005    1    3    3    0    0  0.51914462327E+02  0.21971889136E+02 -0.52545341479E+02  0.77070670310E+02  0.10000000000E+01 0.  0.
<mgrwt>
<rscale>  0 0.12499871E+03</rscale>
<asrwt>0</asrwt>
<pdfrwt beam="1">  1        4 0.66369723E-02 0.12499871E+03</pdfrwt>
<pdfrwt beam="2">  1       -4 0.13930104E-01 0.12499871E+03</pdfrwt>
<totfact> 0.10266141E+04</totfact>
</mgrwt>
</event>
<event>
 5    1  0.3191162E-002  0.1249976E+03  0.7818608E-02  0.1235073E+00
         -4   -1    0    0    0  501 -0.00000000000E+00  0.00000000000E+00  0.38393166623E+03  0.38393376673E+03  0.12700000000E+01 0.  1.
          4   -1    0    0  501    0  0.00000000000E+00 -0.00000000000E+00 -0.10132182274E+02  0.10211465009E+02  0.12700000000E+01 0.  1.
         25    2    1    2    0    0  0.00000000000E+00  0.00000000000E+00  0.37379948396E+03  0.39414523174E+03  0.12499763796E+03 0.  0.
    9000005    1    3    3    0    0  0.29802076171E+02  0.43852764727E+01  0.14256678967E+02  0.33341375032E+02  0.10000000000E+01 0.  0.
    9000005    1    3    3    0    0 -0.29802076171E+02 -0.43852764727E+01  0.35954280499E+03  0.36080385671E+03  0.10000000000E+01 0.  0.
<mgrwt>
<rscale>  0 0.12499764E+03</rscale>
<asrwt>0</asrwt>
<pdfrwt beam="2">  1        4 0.15650577E-02 0.12499764E+03</pdfrwt>
<pdfrwt beam="1">  1       -4 0.59072664E-01 0.12499764E+03</pdfrwt>
<totfact> 0.65129627E+03</totfact>
</mgrwt>
</event>
<event>
 5    1  0.3191162E-002  0.1249982E+03  0.7818608E-02  0.1235072E+00
          4   -1    0    0  501    0  0.00000000000E+00  0.00000000000E+00  0.52950067305E+02  0.52965295502E+02  0.12700000000E+01 0. -1.
         -4   -1    0    0    0  501 -0.00000000000E+00 -0.00000000000E+00 -0.73738961901E+02  0.73749897642E+02  0.12700000000E+01 0. -1.
         25    2    1    2    0    0  0.00000000000E+00  0.00000000000E+00 -0.20788894596E+02  0.12671519314E+03  0.12499824813E+03 0.  0.
    9000005    1    3    3    0    0  0.41515910005E+02 -0.40974138840E+02  0.12334260461E+02  0.59628724775E+02  0.10000000000E+01 0.  0.
    9000005    1    3    3    0    0 -0.41515910005E+02  0.40974138840E+02 -0.33123155057E+02  0.67086468368E+02  0.10000000000E+01 0.  0.
<mgrwt>
<rscale>  0 0.12499825E+03</rscale>
<asrwt>0</asrwt>
<pdfrwt beam="1">  1        4 0.81481768E-02 0.12499825E+03</pdfrwt>
<pdfrwt beam="2">  1       -4 0.11346468E-01 0.12499825E+03</pdfrwt>
<totfact> 0.10415751E+04</totfact>
</mgrwt>
</event>
<event>
 5    1  0.3191162E-002  0.1249998E+03  0.7818608E-02  0.1235070E+00
          4   -1    0    0  501    0  0.00000000000E+00  0.00000000000E+00  0.23834016870E+02  0.23867828978E+02  0.12700000000E+01 0.  1.
         -4   -1    0    0    0  501 -0.00000000000E+00 -0.00000000000E+00 -0.16374093427E+03  0.16374585935E+03  0.12700000000E+01 0.  1.
         25    2    1    2    0    0  0.00000000000E+00  0.00000000000E+00 -0.13990691740E+03  0.18761368833E+03  0.12499980205E+03 0.  0.
    9000005    1    3    3    0    0  0.12891274249E+02  0.51135677217E+02 -0.12027756348E+03  0.13133443841E+03  0.10000000000E+01 0.  0.
    9000005    1    3    3    0    0 -0.12891274249E+02 -0.51135677217E+02 -0.19629353920E+02  0.56279249920E+02  0.10000000000E+01 0.  0.
<mgrwt>
<rscale>  0 0.12499980E+03</rscale>
<asrwt>0</asrwt>
<pdfrwt beam="1">  1        4 0.36697517E-02 0.12499980E+03</pdfrwt>
<pdfrwt beam="2">  1       -4 0.25193892E-01 0.12499980E+03</pdfrwt>
<totfact> 0.92264600E+03</totfact>
</mgrwt>
</event>
<event>
 5    1  0.3191162E-002  0.1250008E+03  0.7818608E-02  0.1235068E+00
          4   -1    0    0  501    0  0.00000000000E+00  0.00000000000E+00  0.52651931582E+02  0.52667245982E+02  0.12700000000E+01 0.  1.
         -4   -1    0    0    0  501 -0.00000000000E+00 -0.00000000000E+00 -0.74159495106E+02  0.74170368843E+02  0.12700000000E+01 0.  1.
         25    2    1    2    0    0  0.00000000000E+00  0.00000000000E+00 -0.21507563523E+02  0.12683761483E+03  0.12500082098E+03 0.  0.
    9000005    1    3    3    0    0  0.59303019910E+02  0.18832758409E+02 -0.48562907848E+01  0.62418783390E+02  0.10000000000E+01 0.  0.
    9000005    1    3    3    0    0 -0.59303019910E+02 -0.18832758409E+02 -0.16651272739E+02  0.64418831435E+02  0.10000000000E+01 0.  0.
<mgrwt>
<rscale>  0 0.12500082E+03</rscale>
<asrwt>0</asrwt>
<pdfrwt beam="1">  1        4 0.81023116E-02 0.12500082E+03</pdfrwt>
<pdfrwt beam="2">  1       -4 0.11411168E-01 0.12500082E+03</pdfrwt>
<totfact> 0.10412483E+04</totfact>
</mgrwt>
</event>
<event>
 5    1  0.3191162E-002  0.1250078E+03  0.7818608E-02  0.1235057E+00
          4   -1    0    0  501    0  0.00000000000E+00  0.00000000000E+00  0.16750313815E+02  0.16798390188E+02  0.12700000000E+01 0.  1.
         -4   -1    0    0    0  501 -0.00000000000E+00 -0.00000000000E+00 -0.23284968334E+03  0.23285314671E+03  0.12700000000E+01 0.  1.
         25    2    1    2    0    0  0.00000000000E+00  0.00000000000E+00 -0.21609936952E+03  0.24965153689E+03  0.12500780922E+03 0.  0.
    9000005    1    3    3    0    0 -0.11365007285E+01  0.52057399982E+02 -0.39028029357E+02  0.65080347281E+02  0.10000000000E+01 0.  0.
    9000005    1    3    3    0    0  0.11365007285E+01 -0.52057399982E+02 -0.17707134017E+03  0.18457118961E+03  0.10000000000E+01 0.  0.
<mgrwt>
<rscale>  0 0.12500781E+03</rscale>
<asrwt>0</asrwt>
<pdfrwt beam="1">  1        4 0.25809361E-02 0.12500781E+03</pdfrwt>
<pdfrwt beam="2">  1       -4 0.35826990E-01 0.12500781E+03</pdfrwt>
<totfact> 0.82366289E+03</totfact>
</mgrwt>
</event>
<event>
 5    1  0.3191162E-002  0.1250057E+03  0.7818608E-02  0.1235060E+00
         -4   -1    0    0    0  501 -0.00000000000E+00  0.00000000000E+00  0.81214941319E+01  0.82201926337E+01  0.12700000000E+01 0. -1.
          4   -1    0    0  501    0  0.00000000000E+00 -0.00000000000E+00 -0.47801580944E+03  0.47801749652E+03  0.12700000000E+01 0. -1.
         25    2    1    2    0    0  0.00000000000E+00  0.00000000000E+00 -0.46989431531E+03  0.48623768915E+03  0.12500569103E+03 0.  0.
    9000005    1    3    3    0    0 -0.13767705913E+02 -0.20028005614E+02 -0.45889987668E+03  0.45954408663E+03  0.10000000000E+01 0.  0.
    9000005    1    3    3    0    0  0.13767705913E+02  0.20028005614E+02 -0.10994438629E+02  0.26693602525E+02  0.10000000000E+01 0.  0.
<mgrwt>
<rscale>  0 0.12500569E+03</rscale>
<asrwt>0</asrwt>
<pdfrwt beam="2">  1        4 0.73548594E-01 0.12500569E+03</pdfrwt>
<pdfrwt beam="1">  1       -4 0.12571830E-02 0.12500569E+03</pdfrwt>
<totfact> 0.56941070E+03</totfact>
</mgrwt>
</event>
<event>
 5    1  0.3191162E-002  0.1249957E+03  0.7818608E-02  0.1235076E+00
          4   -1    0    0  501    0  0.00000000000E+00  0.00000000000E+00  0.17633388742E+03  0.17633846079E+03  0.12700000000E+01 0.  1.
         -4   -1    0    0    0  501 -0.00000000000E+00 -0.00000000000E+00 -0.22127992483E+02  0.22164407309E+02  0.12700000000E+01 0.  1.
         25    2    1    2    0    0  0.00000000000E+00  0.00000000000E+00  0.15420589494E+03  0.19850286810E+03  0.12499572236E+03 0.  0.
    9000005    1    3    3    0    0  0.13890684718E+02  0.55331916198E+02  0.36601976601E+02  0.67788470725E+02  0.10000000000E+01 0.  0.
    9000005    1    3    3    0    0 -0.13890684718E+02 -0.55331916198E+02  0.11760391834E+03  0.13071439737E+03  0.10000000000E+01 0.  0.
<mgrwt>
<rscale>  0 0.12499572E+03</rscale>
<asrwt>0</asrwt>
<pdfrwt beam="1">  1        4 0.27131443E-01 0.12499572E+03</pdfrwt>
<pdfrwt beam="2">  1       -4 0.34074595E-02 0.12499572E+03</pdfrwt>
<totfact> 0.90397183E+03</totfact>
</mgrwt>
</event>
<event>
 5    1  0.3191162E-002  0.1250006E+03  0.7818608E-02  0.1235068E+00
         -4   -1    0    0    0  501 -0.00000000000E+00  0.00000000000E+00  0.36973633786E+03  0.36973851900E+03  0.12700000000E+01 0.  1.
          4   -1    0    0  501    0  0.00000000000E+00 -0.00000000000E+00 -0.10524670025E+02  0.10601017835E+02  0.12700000000E+01 0.  1.
         25    2    1    2    0    0  0.00000000000E+00  0.00000000000E+00  0.35921166783E+03  0.38033953683E+03  0.12500056389E+03 0.  0.
    9000005    1    3    3    0    0 -0.18635456569E+02  0.58640669746E+02  0.21283638840E+03  0.22155436492E+03  0.10000000000E+01 0.  0.
    9000005    1    3    3    0    0  0.18635456569E+02 -0.58640669746E+02  0.14637527944E+03  0.15878517191E+03  0.10000000000E+01 0.  0.
<mgrwt>
<rscale>  0 0.12500056E+03</rscale>
<asrwt>0</asrwt>
<pdfrwt beam="2">  1        4 0.16252209E-02 0.12500056E+03</pdfrwt>
<pdfrwt beam="1">  1       -4 0.56888547E-01 0.12500056E+03</pdfrwt>
<totfact> 0.66510097E+03</totfact>
</mgrwt>
</event>
<event>
 5    1  0.3191162E-002  0.1249993E+03  0.7818608E-02  0.1235070E+00
         -4   -1    0    0    0  501 -0.00000000000E+00  0.00000000000E+00  0.34376646379E+01  0.36647562215E+01  0.12700000000E+01 0. -1.
          4   -1    0    0  501    0  0.00000000000E+00 -0.00000000000E+00 -0.10997374787E+04  0.10997382120E+04  0.12700000000E+01 0. -1.
         25    2    1    2    0    0  0.00000000000E+00  0.00000000000E+00 -0.10962998140E+04  0.11034029682E+04  0.12499931197E+03 0.  0.
    9000005    1    3    3    0    0  0.14044219055E+02 -0.50336016802E+02 -0.85063727228E+03  0.85224158762E+03  0.10000000000E+01 0.  0.
    9000005    1    3    3    0    0 -0.14044219055E+02  0.50336016802E+02 -0.24566254176E+03  0.25116138059E+03  0.10000000000E+01 0.  0.
<mgrwt>
<rscale>  0 0.12499931E+03</rscale>
<asrwt>0</asrwt>
<pdfrwt beam="2">  1        4 0.16920764E+00 0.12499931E+03</pdfrwt>
<pdfrwt beam="1">  1       -4 0.54639735E-03 0.12499931E+03</pdfrwt>
<totfact> 0.27384470E+03</totfact>
</mgrwt>
</event>
<event>
 5    1  0.3191162E-002  0.1250072E+03  0.7818608E-02  0.1235058E+00
          4   -1    0    0  501    0  0.00000000000E+00  0.00000000000E+00  0.78204017714E+02  0.78214329164E+02  0.12700000000E+01 0. -1.
         -4   -1    0    0    0  501 -0.00000000000E+00 -0.00000000000E+00 -0.49933553570E+02  0.49949701422E+02  0.12700000000E+01 0. -1.
         25    2    1    2    0    0  0.00000000000E+00  0.00000000000E+00  0.28270464144E+02  0.12816403059E+03  0.12500719817E+03 0.  0.
    9000005    1    3    3    0    0 -0.20574523327E+02  0.58276944164E+02  0.46171120051E+01  0.61982505229E+02  0.10000000000E+01 0.  0.
    9000005    1    3    3    0    0  0.20574523327E+02 -0.58276944164E+02  0.23653352139E+02  0.66181525357E+02  0.10000000000E+01 0.  0.
<mgrwt>
<rscale>  0 0.12500720E+03</rscale>
<asrwt>0</asrwt>
<pdfrwt beam="1">  1        4 0.12033423E-01 0.12500720E+03</pdfrwt>
<pdfrwt beam="2">  1       -4 0.76841205E-02 0.12500720E+03</pdfrwt>
<totfact> 0.10382260E+04</totfact>
</mgrwt>
</event>
<event>
 5    1  0.3191162E-002  0.1249988E+03  0.7818608E-02  0.1235071E+00
          4   -1    0    0  501    0  0.00000000000E+00  0.00000000000E+00  0.13425937615E+02  0.13485870415E+02  0.12700000000E+01 0. -1.
         -4   -1    0    0    0  501 -0.00000000000E+00 -0.00000000000E+00 -0.29023296046E+03  0.29023573908E+03  0.12700000000E+01 0. -1.
         25    2    1    2    0    0  0.00000000000E+00  0.00000000000E+00 -0.27680702285E+03  0.30372160950E+03  0.12499875270E+03 0.  0.
    9000005    1    3    3    0    0  0.20579722598E+02  0.38616803971E+02 -0.30001073197E+02  0.53064554310E+02  0.10000000000E+01 0.  0.
    9000005    1    3    3    0    0 -0.20579722598E+02 -0.38616803971E+02 -0.24680594965E+03  0.25065705519E+03  0.10000000000E+01 0.  0.
<mgrwt>
<rscale>  0 0.12499875E+03</rscale>
<asrwt>0</asrwt>
<pdfrwt beam="1">  1        4 0.20703530E-02 0.12499875E+03</pdfrwt>
<pdfrwt beam="2">  1       -4 0.44656044E-01 0.12499875E+03</pdfrwt>
<totfact> 0.75136448E+03</totfact>
</mgrwt>
</event>
<event>
 5    1  0.3191162E-002  0.1249986E+03  0.7818608E-02  0.1235071E+00
         -4   -1    0    0    0  501 -0.00000000000E+00  0.00000000000E+00  0.15474758524E+03  0.15475279654E+03  0.12700000000E+01 0. -1.
          4   -1    0    0  501    0  0.00000000000E+00 -0.00000000000E+00 -0.25220558391E+02  0.25252514044E+02  0.12700000000E+01 0. -1.
         25    2    1    2    0    0  0.00000000000E+00  0.00000000000E+00  0.12952702685E+03  0.18000531058E+03  0.12499864461E+03 0.  0.
    9000005    1    3    3    0    0 -0.19692267547E+02  0.11584544351E+02 -0.18997602031E+02  0.29730387685E+02  0.10000000000E+01 0.  0.
    9000005    1    3    3    0    0  0.19692267547E+02 -0.11584544351E+02  0.14852462888E+03  0.15027492290E+03  0.10000000000E+01 0.  0.
<mgrwt>
<rscale>  0 0.12499864E+03</rscale>
<asrwt>0</asrwt>
<pdfrwt beam="2">  1        4 0.38829450E-02 0.12499864E+03</pdfrwt>
<pdfrwt beam="1">  1       -4 0.23810179E-01 0.12499864E+03</pdfrwt>
<totfact> 0.93618893E+03</totfact>
</mgrwt>
</event>
<event>
 5    1  0.3191162E-002  0.1250020E+03  0.7818608E-02  0.1235066E+00
         -4   -1    0    0    0  501 -0.00000000000E+00  0.00000000000E+00  0.16431167699E+02  0.16480175119E+02  0.12700000000E+01 0. -1.
          4   -1    0    0  501    0  0.00000000000E+00 -0.00000000000E+00 -0.23733708565E+03  0.23734048354E+03  0.12700000000E+01 0. -1.
         25    2    1    2    0    0  0.00000000000E+00  0.00000000000E+00 -0.22090591796E+03  0.25382065866E+03  0.12500200868E+03 0.  0.
    9000005    1    3    3    0    0 -0.54855530879E+02  0.21061684855E+02 -0.15365378551E+03  0.16450899562E+03  0.10000000000E+01 0.  0.
    9000005    1    3    3    0    0  0.54855530879E+02 -0.21061684855E+02 -0.67252132443E+02  0.89311663041E+02  0.10000000000E+01 0.  0.
<mgrwt>
<rscale>  0 0.12500201E+03</rscale>
<asrwt>0</asrwt>
<pdfrwt beam="2">  1        4 0.36517427E-01 0.12500201E+03</pdfrwt>
<pdfrwt beam="1">  1       -4 0.25319033E-02 0.12500201E+03</pdfrwt>
<totfact> 0.81777484E+03</totfact>
</mgrwt>
</event>
<event>
 5    1  0.3191162E-002  0.1249981E+03  0.7818608E-02  0.1235072E+00
          4   -1    0    0  501    0  0.00000000000E+00  0.00000000000E+00  0.26640073476E+02  0.26670328360E+02  0.12700000000E+01 0. -1.
         -4   -1    0    0    0  501 -0.00000000000E+00 -0.00000000000E+00 -0.14650995271E+03  0.14651545701E+03  0.12700000000E+01 0. -1.
         25    2    1    2    0    0  0.00000000000E+00  0.00000000000E+00 -0.11986987923E+03  0.17318578537E+03  0.12499811321E+03 0.  0.
    9000005    1    3    3    0    0 -0.62269943774E+01  0.37716683630E+02 -0.12842733607E+03  0.13399964304E+03  0.10000000000E+01 0.  0.
    9000005    1    3    3    0    0  0.62269943774E+01 -0.37716683630E+02  0.85574568442E+01  0.39186142330E+02  0.10000000000E+01 0.  0.
<mgrwt>
<rscale>  0 0.12499811E+03</rscale>
<asrwt>0</asrwt>
<pdfrwt beam="1">  1        4 0.41012237E-02 0.12499811E+03</pdfrwt>
<pdfrwt beam="2">  1       -4 0.22542743E-01 0.12499811E+03</pdfrwt>
<totfact> 0.94862180E+03</totfact>
</mgrwt>
</event>
<event>
 5    1  0.3191162E-002  0.1249996E+03  0.7818608E-02  0.1235070E+00
          4   -1    0    0  501    0  0.00000000000E+00  0.00000000000E+00  0.18574062200E+02  0.18617429646E+02  0.12700000000E+01 0.  1.
         -4   -1    0    0    0  501 -0.00000000000E+00 -0.00000000000E+00 -0.21001478258E+03  0.21001862251E+03  0.12700000000E+01 0.  1.
         25    2    1    2    0    0  0.00000000000E+00  0.00000000000E+00 -0.19144072038E+03  0.22863605216E+03  0.12499957971E+03 0.  0.
    9000005    1    3    3    0    0 -0.51235870898E+02 -0.34448369422E+02 -0.11339921060E+03  0.12912081779E+03  0.10000000000E+01 0.  0.
    9000005    1    3    3    0    0  0.51235870898E+02  0.34448369422E+02 -0.78041509781E+02  0.99515234368E+02  0.10000000000E+01 0.  0.
<mgrwt>
<rscale>  0 0.12499958E+03</rscale>
<asrwt>0</asrwt>
<pdfrwt beam="1">  1        4 0.28611795E-02 0.12499958E+03</pdfrwt>
<pdfrwt beam="2">  1       -4 0.32313596E-01 0.12499958E+03</pdfrwt>
<totfact> 0.85520276E+03</totfact>
</mgrwt>
</event>
<event>
 5    1  0.3191162E-002  0.1250018E+03  0.7818608E-02  0.1235066E+00
         -4   -1    0    0    0  501 -0.00000000000E+00  0.00000000000E+00  0.33305366292E+02  0.33329571312E+02  0.12700000000E+01 0.  1.
          4   -1    0    0  501    0  0.00000000000E+00 -0.00000000000E+00 -0.11721904546E+03  0.11722592511E+03  0.12700000000E+01 0.  1.
         25    2    1    2    0    0  0.00000000000E+00  0.00000000000E+00 -0.83913679168E+02  0.15055549642E+03  0.12500180780E+03 0.  0.
    9000005    1    3    3    0    0 -0.33593581547E+02  0.17123912211E+01 -0.10539139155E+03  0.11063365861E+03  0.10000000000E+01 0.  0.
    9000005    1    3    3    0    0  0.33593581547E+02 -0.17123912211E+01  0.21477712385E+02  0.39921837810E+02  0.10000000000E+01 0.  0.
<mgrwt>
<rscale>  0 0.12500181E+03</rscale>
<asrwt>0</asrwt>
<pdfrwt beam="2">  1        4 0.18036090E-01 0.12500181E+03</pdfrwt>
<pdfrwt beam="1">  1       -4 0.51262937E-02 0.12500181E+03</pdfrwt>
<totfact> 0.99189048E+03</totfact>
</mgrwt>
</event>
<event>
 5    1  0.3191162E-002  0.1250007E+03  0.7818608E-02  0.1235068E+00
         -4   -1    0    0    0  501 -0.00000000000E+00  0.00000000000E+00  0.59125923156E+02  0.59139561116E+02  0.12700000000E+01 0. -1.
          4   -1    0    0  501    0  0.00000000000E+00 -0.00000000000E+00 -0.66039952273E+02  0.66052162691E+02  0.12700000000E+01 0. -1.
         25    2    1    2    0    0  0.00000000000E+00  0.00000000000E+00 -0.69140291170E+01  0.12519172381E+03  0.12500065564E+03 0.  0.
    9000005    1    3    3    0    0  0.47231867798E+02 -0.37386519452E+02  0.13202406598E+02  0.61675803297E+02  0.10000000000E+01 0.  0.
    9000005    1    3    3    0    0 -0.47231867798E+02  0.37386519452E+02 -0.20116435715E+02  0.63515920510E+02  0.10000000000E+01 0.  0.
<mgrwt>
<rscale>  0 0.12500066E+03</rscale>
<asrwt>0</asrwt>
<pdfrwt beam="2">  1        4 0.10161981E-01 0.12500066E+03</pdfrwt>
<pdfrwt beam="1">  1       -4 0.90982842E-02 0.12500066E+03</pdfrwt>
<totfact> 0.10448545E+04</totfact>
</mgrwt>
</event>
<event>
 5    1  0.3191162E-002  0.1250007E+03  0.7818608E-02  0.1235068E+00
          4   -1    0    0  501    0  0.00000000000E+00  0.00000000000E+00  0.52254795028E+03  0.52254949358E+03  0.12700000000E+01 0.  1.
         -4   -1    0    0    0  501 -0.00000000000E+00 -0.00000000000E+00 -0.74199629716E+01  0.75278649363E+01  0.12700000000E+01 0.  1.
         25    2    1    2    0    0  0.00000000000E+00  0.00000000000E+00  0.51512798730E+03  0.53007735851E+03  0.12500065082E+03 0.  0.
    9000005    1    3    3    0    0 -0.15318295529E+02  0.53466558723E+02  0.13672799680E+03  0.14761052872E+03  0.10000000000E+01 0.  0.
    9000005    1    3    3    0    0  0.15318295529E+02 -0.53466558723E+02  0.37839999050E+03  0.38246682979E+03  0.10000000000E+01 0.  0.
<mgrwt>
<rscale>  0 0.12500065E+03</rscale>
<asrwt>0</asrwt>
<pdfrwt beam="1">  1        4 0.80400412E-01 0.12500065E+03</pdfrwt>
<pdfrwt beam="2">  1       -4 0.11499516E-02 0.12500065E+03</pdfrwt>
<totfact> 0.53603217E+03</totfact>
</mgrwt>
</event>
<event>
 5    1  0.3191162E-002  0.1249966E+03  0.7818608E-02  0.1235075E+00
          4   -1    0    0  501    0  0.00000000000E+00  0.00000000000E+00  0.29864818896E+02  0.29891810044E+02  0.12700000000E+01 0. -1.
         -4   -1    0    0    0  501 -0.00000000000E+00 -0.00000000000E+00 -0.13070142103E+03  0.13070759106E+03  0.12700000000E+01 0. -1.
         25    2    1    2    0    0  0.00000000000E+00  0.00000000000E+00 -0.10083660214E+03  0.16059940110E+03  0.12499658917E+03 0.  0.
    9000005    1    3    3    0    0 -0.14400724238E+02 -0.10011803858E+01 -0.12853612509E+03  0.12934805245E+03  0.10000000000E+01 0.  0.
    9000005    1    3    3    0    0  0.14400724238E+02  0.10011803858E+01  0.27699522950E+02  0.31251348650E+02  0.10000000000E+01 0.  0.
<mgrwt>
<rscale>  0 0.12499659E+03</rscale>
<asrwt>0</asrwt>
<pdfrwt beam="1">  1        4 0.45971384E-02 0.12499659E+03</pdfrwt>
<pdfrwt beam="2">  1       -4 0.20110462E-01 0.12499659E+03</pdfrwt>
<totfact> 0.97234804E+03</totfact>
</mgrwt>
</event>
<event>
 5    1  0.3191162E-002  0.1250018E+03  0.7818608E-02  0.1235066E+00
         -4   -1    0    0    0  501 -0.00000000000E+00  0.00000000000E+00  0.42336703566E+02  0.42355747766E+02  0.12700000000E+01 0. -1.
          4   -1    0    0  501    0  0.00000000000E+00 -0.00000000000E+00 -0.92224825048E+02  0.92233569025E+02  0.12700000000E+01 0. -1.
         25    2    1    2    0    0  0.00000000000E+00  0.00000000000E+00 -0.49888121482E+02  0.13458931679E+03  0.12500183810E+03 0.  0.
    9000005    1    3    3    0    0 -0.55635488965E+01 -0.37269891369E+02  0.28733089832E+02  0.47398189103E+02  0.10000000000E+01 0.  0.
    9000005    1    3    3    0    0  0.55635488965E+01  0.37269891369E+02 -0.78621211314E+02  0.87191127688E+02  0.10000000000E+01 0.  0.
<mgrwt>
<rscale>  0 0.12500184E+03</rscale>
<asrwt>0</asrwt>
<pdfrwt beam="2">  1        4 0.14190572E-01 0.12500184E+03</pdfrwt>
<pdfrwt beam="1">  1       -4 0.65154766E-02 0.12500184E+03</pdfrwt>
<totfact> 0.10246310E+04</totfact>
</mgrwt>
</event>
<event>
 5    1  0.3191162E-002  0.1250000E+03  0.7818608E-02  0.1235069E+00
         -4   -1    0    0    0  501 -0.00000000000E+00  0.00000000000E+00  0.15339613751E+04  0.15339619009E+04  0.12700000000E+01 0. -1.
          4   -1    0    0  501    0  0.00000000000E+00 -0.00000000000E+00 -0.23876103595E+01  0.27043637383E+01  0.12700000000E+01 0. -1.
         25    2    1    2    0    0  0.00000000000E+00  0.00000000000E+00  0.15315737648E+04  0.15366662646E+04  0.12500004729E+03 0.  0.
    9000005    1    3    3    0    0  0.29998414771E+02  0.38807000603E+02  0.12418045050E+04  0.12427732362E+04  0.10000000000E+01 0.  0.
    9000005    1    3    3    0    0 -0.29998414771E+02 -0.38807000603E+02  0.28976925982E+03  0.29389302837E+03  0.10000000000E+01 0.  0.
<mgrwt>
<rscale>  0 0.12500005E+03</rscale>
<asrwt>0</asrwt>
<pdfrwt beam="2">  1        4 0.39172975E-03 0.12500005E+03</pdfrwt>
<pdfrwt beam="1">  1       -4 0.23601907E+00 0.12500005E+03</pdfrwt>
<totfact> 0.17220708E+03</totfact>
</mgrwt>
</event>
<event>
 5    1  0.3191162E-002  0.1250069E+03  0.7818608E-02  0.1235059E+00
          4   -1    0    0  501    0  0.00000000000E+00  0.00000000000E+00  0.10098662462E+03  0.10099461002E+03  0.12700000000E+01 0.  1.
         -4   -1    0    0    0  501 -0.00000000000E+00 -0.00000000000E+00 -0.38665189917E+02  0.38686041556E+02  0.12700000000E+01 0.  1.
         25    2    1    2    0    0  0.00000000000E+00  0.00000000000E+00  0.62321434707E+02  0.13968065157E+03  0.12500689261E+03 0.  0.
    9000005    1    3    3    0    0 -0.95859453122E+00  0.51537498001E+02  0.70644826122E+02  0.87456984063E+02  0.10000000000E+01 0.  0.
    9000005    1    3    3    0    0  0.95859453122E+00 -0.51537498001E+02 -0.83233914153E+01  0.52223667511E+02  0.10000000000E+01 0.  0.
<mgrwt>
<rscale>  0 0.12500689E+03</rscale>
<asrwt>0</asrwt>
<pdfrwt beam="1">  1        4 0.15538622E-01 0.12500689E+03</pdfrwt>
<pdfrwt beam="2">  1       -4 0.59507090E-02 0.12500689E+03</pdfrwt>
<totfact> 0.10138634E+04</totfact>
</mgrwt>
</event>
<event>
 5    1  0.3191162E-002  0.1250081E+03  0.7818608E-02  0.1235057E+00
          4   -1    0    0  501    0  0.00000000000E+00  0.00000000000E+00  0.37036472370E+03  0.37036690114E+03  0.12700000000E+01 0.  1.
         -4   -1    0    0    0  501 -0.00000000000E+00 -0.00000000000E+00 -0.10507955110E+02  0.10584423489E+02  0.12700000000E+01 0.  1.
         25    2    1    2    0    0  0.00000000000E+00  0.00000000000E+00  0.35985676859E+03  0.38095132463E+03  0.12500807109E+03 0.  0.
    9000005    1    3    3    0    0  0.17066642897E+02 -0.56291394948E+02  0.11558802972E+03  0.12969804956E+03  0.10000000000E+01 0.  0.
    9000005    1    3    3    0    0 -0.17066642897E+02  0.56291394948E+02  0.24426873887E+03  0.25125327507E+03  0.10000000000E+01 0.  0.
<mgrwt>
<rscale>  0 0.12500807E+03</rscale>
<asrwt>0</asrwt>
<pdfrwt beam="1">  1        4 0.56985232E-01 0.12500807E+03</pdfrwt>
<pdfrwt beam="2">  1       -4 0.16226583E-02 0.12500807E+03</pdfrwt>
<totfact> 0.66436729E+03</totfact>
</mgrwt>
</event>
<event>
 5    1  0.3191162E-002  0.1249981E+03  0.7818608E-02  0.1235072E+00
         -4   -1    0    0    0  501 -0.00000000000E+00  0.00000000000E+00  0.11852084216E+02  0.11919932896E+02  0.12700000000E+01 0. -1.
          4   -1    0    0  501    0  0.00000000000E+00 -0.00000000000E+00 -0.32856376998E+03  0.32856622444E+03  0.12700000000E+01 0. -1.
         25    2    1    2    0    0  0.00000000000E+00  0.00000000000E+00 -0.31671168576E+03  0.34048615733E+03  0.12499812574E+03 0.  0.
    9000005    1    3    3    0    0 -0.46509469028E+02 -0.15246281301E+01 -0.44742234788E+02  0.64562549315E+02  0.10000000000E+01 0.  0.
    9000005    1    3    3    0    0  0.46509469028E+02  0.15246281301E+01 -0.27196945097E+03  0.27592360802E+03  0.10000000000E+01 0.  0.
<mgrwt>
<rscale>  0 0.12499813E+03</rscale>
<asrwt>0</asrwt>
<pdfrwt beam="2">  1        4 0.50553673E-01 0.12499813E+03</pdfrwt>
<pdfrwt beam="1">  1       -4 0.18288058E-02 0.12499813E+03</pdfrwt>
<totfact> 0.70786974E+03</totfact>
</mgrwt>
</event>
<event>
 5    1  0.3191162E-002  0.1250058E+03  0.7818608E-02  0.1235060E+00
         -4   -1    0    0    0  501 -0.00000000000E+00  0.00000000000E+00  0.41405481368E+02  0.41424953679E+02  0.12700000000E+01 0.  1.
          4   -1    0    0  501    0  0.00000000000E+00 -0.00000000000E+00 -0.94304237901E+02  0.94312789091E+02  0.12700000000E+01 0.  1.
         25    2    1    2    0    0  0.00000000000E+00  0.00000000000E+00 -0.52898756534E+02  0.13573774277E+03  0.12500582534E+03 0.  0.
    9000005    1    3    3    0    0  0.98252192036E+01  0.39422354412E+02 -0.78012537236E+02  0.87963702320E+02  0.10000000000E+01 0.  0.
    9000005    1    3    3    0    0 -0.98252192036E+01 -0.39422354412E+02  0.25113780702E+02  0.47774040450E+02  0.10000000000E+01 0.  0.
<mgrwt>
<rscale>  0 0.12500583E+03</rscale>
<asrwt>0</asrwt>
<pdfrwt beam="2">  1        4 0.14510500E-01 0.12500583E+03</pdfrwt>
<pdfrwt beam="1">  1       -4 0.63722297E-02 0.12500583E+03</pdfrwt>
<totfact> 0.10221202E+04</totfact>
</mgrwt>
</event>
<event>
 5    1  0.3191162E-002  0.1249953E+03  0.7818608E-02  0.1235077E+00
          4   -1    0    0  501    0  0.00000000000E+00  0.00000000000E+00  0.70838270102E+01  0.71967704639E+01  0.12700000000E+01 0. -1.
         -4   -1    0    0    0  501 -0.00000000000E+00 -0.00000000000E+00 -0.54691647243E+03  0.54691794697E+03  0.12700000000E+01 0. -1.
         25    2    1    2    0    0  0.00000000000E+00  0.00000000000E+00 -0.53983264542E+03  0.55411471743E+03  0.12499533997E+03 0.  0.
    9000005    1    3    3    0    0 -0.13372071591E+02  0.51565232764E+02 -0.12509806330E+03  0.13597172857E+03  0.10000000000E+01 0.  0.
    9000005    1    3    3    0    0  0.13372071591E+02 -0.51565232764E+02 -0.41473458212E+03  0.41814298887E+03  0.10000000000E+01 0.  0.
<mgrwt>
<rscale>  0 0.12499534E+03</rscale>
<asrwt>0</asrwt>
<pdfrwt beam="1">  1        4 0.10986214E-02 0.12499534E+03</pdfrwt>
<pdfrwt beam="2">  1       -4 0.84149764E-01 0.12499534E+03</pdfrwt>
<totfact> 0.51903654E+03</totfact>
</mgrwt>
</event>
<event>
 5    1  0.3191162E-002  0.1250042E+03  0.7818608E-02  0.1235063E+00
         -4   -1    0    0    0  501 -0.00000000000E+00  0.00000000000E+00  0.17233736347E+02  0.17280467832E+02  0.12700000000E+01 0. -1.
          4   -1    0    0  501    0  0.00000000000E+00 -0.00000000000E+00 -0.22632269341E+03  0.22632625665E+03  0.12700000000E+01 0. -1.
         25    2    1    2    0    0  0.00000000000E+00  0.00000000000E+00 -0.20908895706E+03  0.24360672449E+03  0.12500417693E+03 0.  0.
    9000005    1    3    3    0    0  0.31994789634E+02  0.42193659995E+02 -0.16922370180E+03  0.17731788617E+03  0.10000000000E+01 0.  0.
    9000005    1    3    3    0    0 -0.31994789634E+02 -0.42193659995E+02 -0.39865255265E+02  0.66288838313E+02  0.10000000000E+01 0.  0.
<mgrwt>
<rscale>  0 0.12500418E+03</rscale>
<asrwt>0</asrwt>
<pdfrwt beam="2">  1        4 0.34822743E-01 0.12500418E+03</pdfrwt>
<pdfrwt beam="1">  1       -4 0.26552130E-02 0.12500418E+03</pdfrwt>
<totfact> 0.83255375E+03</totfact>
</mgrwt>
</event>
<event>
 5    1  0.3191162E-002  0.1250098E+03  0.7818608E-02  0.1235054E+00
          4   -1    0    0  501    0  0.00000000000E+00  0.00000000000E+00  0.46092820383E+02  0.46110313281E+02  0.12700000000E+01 0. -1.
         -4   -1    0    0    0  501 -0.00000000000E+00 -0.00000000000E+00 -0.84722437564E+02  0.84731955760E+02  0.12700000000E+01 0. -1.
         25    2    1    2    0    0  0.00000000000E+00  0.00000000000E+00 -0.38629617182E+02  0.13084226904E+03  0.12500980779E+03 0.  0.
    9000005    1    3    3    0    0 -0.82021848400E+01 -0.39624997591E+02 -0.69165165628E+02  0.80138857033E+02  0.10000000000E+01 0.  0.
    9000005    1    3    3    0    0  0.82021848400E+01  0.39624997591E+02  0.30535548447E+02  0.50703412007E+02  0.10000000000E+01 0.  0.
<mgrwt>
<rscale>  0 0.12500981E+03</rscale>
<asrwt>0</asrwt>
<pdfrwt beam="1">  1        4 0.70932809E-02 0.12500981E+03</pdfrwt>
<pdfrwt beam="2">  1       -4 0.13036299E-01 0.12500981E+03</pdfrwt>
<totfact> 0.10324187E+04</totfact>
</mgrwt>
</event>
<event>
 5    1  0.3191162E-002  0.1249989E+03  0.7818608E-02  0.1235071E+00
         -4   -1    0    0    0  501 -0.00000000000E+00  0.00000000000E+00  0.13788332162E+03  0.13788917028E+03  0.12700000000E+01 0.  1.
          4   -1    0    0  501    0  0.00000000000E+00 -0.00000000000E+00 -0.28308922738E+02  0.28337395904E+02  0.12700000000E+01 0.  1.
         25    2    1    2    0    0  0.00000000000E+00  0.00000000000E+00  0.10957439888E+03  0.16622656619E+03  0.12499888966E+03 0.  0.
    9000005    1    3    3    0    0 -0.55838855014E+02  0.11225898509E+02  0.88981585816E+02  0.10565377959E+03  0.10000000000E+01 0.  0.
    9000005    1    3    3    0    0  0.55838855014E+02 -0.11225898509E+02  0.20592813069E+02  0.60572786602E+02  0.10000000000E+01 0.  0.
<mgrwt>
<rscale>  0 0.12499889E+03</rscale>
<asrwt>0</asrwt>
<pdfrwt beam="2">  1        4 0.43578590E-02 0.12499889E+03</pdfrwt>
<pdfrwt beam="1">  1       -4 0.21215459E-01 0.12499889E+03</pdfrwt>
<totfact> 0.96158001E+03</totfact>
</mgrwt>
</event>
<event>
 5    1  0.3191162E-002  0.1250030E+03  0.7818608E-02  0.1235065E+00
          4   -1    0    0  501    0  0.00000000000E+00  0.00000000000E+00  0.15553214549E+02  0.15604979423E+02  0.12700000000E+01 0. -1.
         -4   -1    0    0    0  501 -0.00000000000E+00 -0.00000000000E+00 -0.25069528908E+03  0.25069850591E+03  0.12700000000E+01 0. -1.
         25    2    1    2    0    0  0.00000000000E+00  0.00000000000E+00 -0.23514207453E+03  0.26630348533E+03  0.12500300431E+03 0.  0.
    9000005    1    3    3    0    0 -0.26270904353E+02 -0.55111004945E+02 -0.89143917148E+02  0.10805101224E+03  0.10000000000E+01 0.  0.
    9000005    1    3    3    0    0  0.26270904353E+02  0.55111004945E+02 -0.14599815738E+03  0.15825247309E+03  0.10000000000E+01 0.  0.
<mgrwt>
<rscale>  0 0.12500300E+03</rscale>
<asrwt>0</asrwt>
<pdfrwt beam="1">  1        4 0.23970318E-02 0.12500300E+03</pdfrwt>
<pdfrwt beam="2">  1       -4 0.38572732E-01 0.12500300E+03</pdfrwt>
<totfact> 0.80024167E+03</totfact>
</mgrwt>
</event>
<event>
 5    1  0.3191162E-002  0.1250007E+03  0.7818608E-02  0.1235068E+00
          4   -1    0    0  501    0  0.00000000000E+00  0.00000000000E+00  0.90451967322E+02  0.90460882665E+02  0.12700000000E+01 0. -1.
         -4   -1    0    0    0  501 -0.00000000000E+00 -0.00000000000E+00 -0.43165996679E+02  0.43184675167E+02  0.12700000000E+01 0. -1.
         25    2    1    2    0    0  0.00000000000E+00  0.00000000000E+00  0.47285970643E+02  0.13364555783E+03  0.12500068843E+03 0.  0.
    9000005    1    3    3    0    0  0.44202072372E+02  0.15531540675E+02  0.67858103369E+02  0.82466806356E+02  0.10000000000E+01 0.  0.
    9000005    1    3    3    0    0 -0.44202072372E+02 -0.15531540675E+02 -0.20572132726E+02  0.51178751476E+02  0.10000000000E+01 0.  0.
<mgrwt>
<rscale>  0 0.12500069E+03</rscale>
<asrwt>0</asrwt>
<pdfrwt beam="1">  1        4 0.13917810E-01 0.12500069E+03</pdfrwt>
<pdfrwt beam="2">  1       -4 0.66430452E-02 0.12500069E+03</pdfrwt>
<totfact> 0.10266539E+04</totfact>
</mgrwt>
</event>
<event>
 5    1  0.3191162E-002  0.1249961E+03  0.7818608E-02  0.1235075E+00
          4   -1    0    0  501    0  0.00000000000E+00  0.00000000000E+00  0.37468489123E+02  0.37490006364E+02  0.12700000000E+01 0.  1.
         -4   -1    0    0    0  501 -0.00000000000E+00 -0.00000000000E+00 -0.10419239824E+03  0.10420013796E+03  0.12700000000E+01 0.  1.
         25    2    1    2    0    0  0.00000000000E+00  0.00000000000E+00 -0.66723909118E+02  0.14169014433E+03  0.12499606774E+03 0.  0.
    9000005    1    3    3    0    0  0.27472203437E+02  0.56126071699E+02 -0.32928301573E+02  0.70640858789E+02  0.10000000000E+01 0.  0.
    9000005    1    3    3    0    0 -0.27472203437E+02 -0.56126071699E+02 -0.33795607545E+02  0.71049285537E+02  0.10000000000E+01 0.  0.
<mgrwt>
<rscale>  0 0.12499607E+03</rscale>
<asrwt>0</asrwt>
<pdfrwt beam="1">  1        4 0.57666335E-02 0.12499607E+03</pdfrwt>
<pdfrwt beam="2">  1       -4 0.16031850E-01 0.12499607E+03</pdfrwt>
<totfact> 0.10099571E+04</totfact>
</mgrwt>
</event>
<event>
 5    1  0.3191162E-002  0.1250023E+03  0.7818608E-02  0.1235066E+00
         -4   -1    0    0    0  501 -0.00000000000E+00  0.00000000000E+00  0.52351881832E+03  0.52352035876E+03  0.12700000000E+01 0. -1.
          4   -1    0    0  501    0  0.00000000000E+00 -0.00000000000E+00 -0.74062048955E+01  0.75143044225E+01  0.12700000000E+01 0. -1.
         25    2    1    2    0    0  0.00000000000E+00  0.00000000000E+00  0.51611261343E+03  0.53103466318E+03  0.12500233504E+03 0.  0.
    9000005    1    3    3    0    0 -0.25756025476E+02 -0.17460241783E+02  0.48828994304E+03  0.48928141326E+03  0.10000000000E+01 0.  0.
    9000005    1    3    3    0    0  0.25756025476E+02  0.17460241783E+02  0.27822670387E+02  0.41753249920E+02  0.10000000000E+01 0.  0.
<mgrwt>
<rscale>  0 0.12500234E+03</rscale>
<asrwt>0</asrwt>
<pdfrwt beam="2">  1        4 0.11478499E-02 0.12500234E+03</pdfrwt>
<pdfrwt beam="1">  1       -4 0.80549798E-01 0.12500234E+03</pdfrwt>
<totfact> 0.53531623E+03</totfact>
</mgrwt>
</event>
<event>
 5    1  0.3191162E-002  0.1250007E+03  0.7818608E-02  0.1235068E+00
         -4   -1    0    0    0  501 -0.00000000000E+00  0.00000000000E+00  0.68447029553E+02  0.68458810643E+02  0.12700000000E+01 0. -1.
          4   -1    0    0  501    0  0.00000000000E+00 -0.00000000000E+00 -0.57046556669E+02  0.57060691617E+02  0.12700000000E+01 0. -1.
         25    2    1    2    0    0  0.00000000000E+00  0.00000000000E+00  0.11400472884E+02  0.12551950226E+03  0.12500069866E+03 0.  0.
    9000005    1    3    3    0    0  0.41940110296E+02  0.18503798846E+02  0.48349215347E+02  0.66633400394E+02  0.10000000000E+01 0.  0.
    9000005    1    3    3    0    0 -0.41940110296E+02 -0.18503798846E+02 -0.36948742463E+02  0.58886101866E+02  0.10000000000E+01 0.  0.
<mgrwt>
<rscale>  0 0.12500070E+03</rscale>
<asrwt>0</asrwt>
<pdfrwt beam="2">  1        4 0.87783869E-02 0.12500070E+03</pdfrwt>
<pdfrwt beam="1">  1       -4 0.10532306E-01 0.12500070E+03</pdfrwt>
<totfact> 0.10441359E+04</totfact>
</mgrwt>
</event>
<event>
 5    1  0.3191162E-002  0.1249907E+03  0.7818608E-02  0.1235084E+00
         -4   -1    0    0    0  501 -0.00000000000E+00  0.00000000000E+00  0.18153348994E+02  0.18197719079E+02  0.12700000000E+01 0.  1.
          4   -1    0    0  501    0  0.00000000000E+00 -0.00000000000E+00 -0.21483989225E+03  0.21484364594E+03  0.12700000000E+01 0.  1.
         25    2    1    2    0    0  0.00000000000E+00  0.00000000000E+00 -0.19668654325E+03  0.23304136502E+03  0.12499072571E+03 0.  0.
    9000005    1    3    3    0    0  0.20159823140E+02 -0.54450114663E+02 -0.55281017245E+02  0.80176207964E+02  0.10000000000E+01 0.  0.
    9000005    1    3    3    0    0 -0.20159823140E+02  0.54450114663E+02 -0.14140552601E+03  0.15286515706E+03  0.10000000000E+01 0.  0.
<mgrwt>
<rscale>  0 0.12499073E+03</rscale>
<asrwt>0</asrwt>
<pdfrwt beam="2">  1        4 0.33055991E-01 0.12499073E+03</pdfrwt>
<pdfrwt beam="1">  1       -4 0.27965249E-02 0.12499073E+03</pdfrwt>
<totfact> 0.84862325E+03</totfact>
</mgrwt>
</event>
<event>
 5    1  0.3191162E-002  0.1249717E+03  0.7818608E-02  0.1235114E+00
          4   -1    0    0  501    0  0.00000000000E+00  0.00000000000E+00  0.13262390173E+02  0.13323058700E+02  0.12700000000E+01 0.  1.
         -4   -1    0    0    0  501 -0.00000000000E+00 -0.00000000000E+00 -0.29366861621E+03  0.29367136232E+03  0.12700000000E+01 0.  1.
         25    2    1    2    0    0  0.00000000000E+00  0.00000000000E+00 -0.28040622604E+03  0.30699442102E+03  0.12497168854E+03 0.  0.
    9000005    1    3    3    0    0 -0.51436691878E+02 -0.30219706676E+02 -0.94607396777E+02  0.11185045135E+03  0.10000000000E+01 0.  0.
    9000005    1    3    3    0    0  0.51436691878E+02  0.30219706676E+02 -0.18579882926E+03  0.19514396967E+03  0.10000000000E+01 0.  0.
<mgrwt>
<rscale>  0 0.12497169E+03</rscale>
<asrwt>0</asrwt>
<pdfrwt beam="1">  1        4 0.20452460E-02 0.12497169E+03</pdfrwt>
<pdfrwt beam="2">  1       -4 0.45184660E-01 0.12497169E+03</pdfrwt>
<totfact> 0.74776733E+03</totfact>
</mgrwt>
</event>
<event>
 5    1  0.3191162E-002  0.1250070E+03  0.7818608E-02  0.1235058E+00
         -4   -1    0    0    0  501 -0.00000000000E+00  0.00000000000E+00  0.12865989060E+03  0.12866615852E+03  0.12700000000E+01 0. -1.
          4   -1    0    0  501    0  0.00000000000E+00 -0.00000000000E+00 -0.30344152731E+02  0.30370717887E+02  0.12700000000E+01 0. -1.
         25    2    1    2    0    0  0.00000000000E+00  0.00000000000E+00  0.98315737867E+02  0.15903687641E+03  0.12500697479E+03 0.  0.
    9000005    1    3    3    0    0  0.30403008573E+02  0.45402841016E+02  0.87744761935E+02  0.10337264701E+03  0.10000000000E+01 0.  0.
    9000005    1    3    3    0    0 -0.30403008573E+02 -0.45402841016E+02  0.10570975932E+02  0.55664229400E+02  0.10000000000E+01 0.  0.
<mgrwt>
<rscale>  0 0.12500697E+03</rscale>
<asrwt>0</asrwt>
<pdfrwt beam="2">  1        4 0.46708568E-02 0.12500697E+03</pdfrwt>
<pdfrwt beam="1">  1       -4 0.19796355E-01 0.12500697E+03</pdfrwt>
<totfact> 0.97513499E+03</totfact>
</mgrwt>
</event>
<event>
 5    1  0.3191162E-002  0.1249984E+03  0.7818608E-02  0.1235072E+00
         -4   -1    0    0    0  501 -0.00000000000E+00  0.00000000000E+00  0.97612126124E+02  0.97620387555E+02  0.12700000000E+01 0.  1.
          4   -1    0    0  501    0  0.00000000000E+00 -0.00000000000E+00 -0.39996995161E+02  0.40017152847E+02  0.12700000000E+01 0.  1.
         25    2    1    2    0    0  0.00000000000E+00  0.00000000000E+00  0.57615130962E+02  0.13763754040E+03  0.12499835684E+03 0.  0.
    9000005    1    3    3    0    0 -0.28216114070E+02  0.46763502403E+02 -0.46303205171E+01  0.54821657384E+02  0.10000000000E+01 0.  0.
    9000005    1    3    3    0    0  0.28216114070E+02 -0.46763502403E+02  0.62245451479E+02  0.82815883018E+02  0.10000000000E+01 0.  0.
<mgrwt>
<rscale>  0 0.12499836E+03</rscale>
<asrwt>0</asrwt>
<pdfrwt beam="2">  1        4 0.61555701E-02 0.12499836E+03</pdfrwt>
<pdfrwt beam="1">  1       -4 0.15019436E-01 0.12499836E+03</pdfrwt>
<totfact> 0.10183150E+04</totfact>
</mgrwt>
</event>
<event>
 5    1  0.3191162E-002  0.1250021E+03  0.7818608E-02  0.1235066E+00
          4   -1    0    0  501    0  0.00000000000E+00  0.00000000000E+00  0.14808019417E+02  0.14862379993E+02  0.12700000000E+01 0. -1.
         -4   -1    0    0    0  501 -0.00000000000E+00 -0.00000000000E+00 -0.26326241166E+03  0.26326547493E+03  0.12700000000E+01 0. -1.
         25    2    1    2    0    0  0.00000000000E+00  0.00000000000E+00 -0.24845439224E+03  0.27812785493E+03  0.12500207463E+03 0.  0.
    9000005    1    3    3    0    0 -0.34978348777E+02 -0.46827601843E+02 -0.17343262187E+03  0.18301962601E+03  0.10000000000E+01 0.  0.
    9000005    1    3    3    0    0  0.34978348777E+02  0.46827601843E+02 -0.75021770373E+02  0.95108228915E+02  0.10000000000E+01 0.  0.
<mgrwt>
<rscale>  0 0.12500207E+03</rscale>
<asrwt>0</asrwt>
<pdfrwt beam="1">  1        4 0.22825742E-02 0.12500207E+03</pdfrwt>
<pdfrwt beam="2">  1       -4 0.40506323E-01 0.12500207E+03</pdfrwt>
<totfact> 0.78423379E+03</totfact>
</mgrwt>
</event>
<event>
 5    1  0.3191162E-002  0.1250008E+03  0.7818608E-02  0.1235068E+00
          4   -1    0    0  501    0  0.00000000000E+00  0.00000000000E+00  0.10193124776E+02  0.10271937145E+02  0.12700000000E+01 0.  1.
         -4   -1    0    0    0  501 -0.00000000000E+00 -0.00000000000E+00 -0.38167339080E+03  0.38167550372E+03  0.12700000000E+01 0.  1.
         25    2    1    2    0    0  0.00000000000E+00  0.00000000000E+00 -0.37148026602E+03  0.39194744087E+03  0.12500083344E+03 0.  0.
    9000005    1    3    3    0    0 -0.45790603304E+02  0.40792053062E+02 -0.14804410011E+03  0.16024614355E+03  0.10000000000E+01 0.  0.
    9000005    1    3    3    0    0  0.45790603304E+02 -0.40792053062E+02 -0.22343616590E+03  0.23170129732E+03  0.10000000000E+01 0.  0.
<mgrwt>
<rscale>  0 0.12500083E+03</rscale>
<asrwt>0</asrwt>
<pdfrwt beam="1">  1        4 0.15743984E-02 0.12500083E+03</pdfrwt>
<pdfrwt beam="2">  1       -4 0.58725197E-01 0.12500083E+03</pdfrwt>
<totfact> 0.65342381E+03</totfact>
</mgrwt>
</event>
<event>
 5    1  0.3191162E-002  0.1250017E+03  0.7818608E-02  0.1235067E+00
          4   -1    0    0  501    0  0.00000000000E+00  0.00000000000E+00  0.10857594979E+04  0.10857602406E+04  0.12700000000E+01 0.  1.
         -4   -1    0    0    0  501 -0.00000000000E+00 -0.00000000000E+00 -0.34849651064E+01  0.37091618720E+01  0.12700000000E+01 0.  1.
         25    2    1    2    0    0  0.00000000000E+00  0.00000000000E+00  0.10822745328E+04  0.10894694025E+04  0.12500165879E+03 0.  0.
    9000005    1    3    3    0    0  0.14431665468E+02  0.54642358902E+01  0.13339058221E+02  0.20422079137E+02  0.10000000000E+01 0.  0.
    9000005    1    3    3    0    0 -0.14431665468E+02 -0.54642358902E+01  0.10689354745E+04  0.10690473234E+04  0.10000000000E+01 0.  0.
<mgrwt>
<rscale>  0 0.12500166E+03</rscale>
<asrwt>0</asrwt>
<pdfrwt beam="1">  1        4 0.16705729E+00 0.12500166E+03</pdfrwt>
<pdfrwt beam="2">  1       -4 0.55345130E-03 0.12500166E+03</pdfrwt>
<totfact> 0.27792629E+03</totfact>
</mgrwt>
</event>
<event>
 5    1  0.3191162E-002  0.1250141E+03  0.7818608E-02  0.1235047E+00
          4   -1    0    0  501    0  0.00000000000E+00  0.00000000000E+00  0.10492164297E+03  0.10492932890E+03  0.12700000000E+01 0. -1.
         -4   -1    0    0    0  501 -0.00000000000E+00 -0.00000000000E+00 -0.37218669792E+02  0.37240331377E+02  0.12700000000E+01 0. -1.
         25    2    1    2    0    0  0.00000000000E+00  0.00000000000E+00  0.67702973178E+02  0.14216966028E+03  0.12501407811E+03 0.  0.
    9000005    1    3    3    0    0 -0.47781275352E+02  0.40100733116E+02  0.29445422576E+02  0.68986607261E+02  0.10000000000E+01 0.  0.
    9000005    1    3    3    0    0  0.47781275352E+02 -0.40100733116E+02  0.38257550602E+02  0.73183053016E+02  0.10000000000E+01 0.  0.
<mgrwt>
<rscale>  0 0.12501408E+03</rscale>
<asrwt>0</asrwt>
<pdfrwt beam="1">  1        4 0.16144048E-01 0.12501408E+03</pdfrwt>
<pdfrwt beam="2">  1       -4 0.57282068E-02 0.12501408E+03</pdfrwt>
<totfact> 0.10085616E+04</totfact>
</mgrwt>
</event>
<event>
 5    1  0.3191162E-002  0.1250239E+03  0.7818608E-02  0.1235032E+00
          4   -1    0    0  501    0  0.00000000000E+00  0.00000000000E+00  0.11719197251E+02  0.11787810832E+02  0.12700000000E+01 0. -1.
         -4   -1    0    0    0  501 -0.00000000000E+00 -0.00000000000E+00 -0.33240513703E+03  0.33240756313E+03  0.12700000000E+01 0. -1.
         25    2    1    2    0    0  0.00000000000E+00  0.00000000000E+00 -0.32068593978E+03  0.34419537396E+03  0.12502393164E+03 0.  0.
    9000005    1    3    3    0    0 -0.35258008685E+02  0.46840212692E+02 -0.22000279976E+03  0.22768259618E+03  0.10000000000E+01 0.  0.
    9000005    1    3    3    0    0  0.35258008685E+02 -0.46840212692E+02 -0.10068314002E+03  0.11651277778E+03  0.10000000000E+01 0.  0.
<mgrwt>
<rscale>  0 0.12502393E+03</rscale>
<asrwt>0</asrwt>
<pdfrwt beam="1">  1        4 0.18084183E-02 0.12502393E+03</pdfrwt>
<pdfrwt beam="2">  1       -4 0.51144709E-01 0.12502393E+03</pdfrwt>
<totfact> 0.70330628E+03</totfact>
</mgrwt>
</event>
<event>
 5    1  0.3191162E-002  0.1250005E+03  0.7818608E-02  0.1235068E+00
         -4   -1    0    0    0  501 -0.00000000000E+00  0.00000000000E+00  0.30707222422E+02  0.30733473752E+02  0.12700000000E+01 0.  1.
          4   -1    0    0  501    0  0.00000000000E+00 -0.00000000000E+00 -0.12712677560E+03  0.12713311911E+03  0.12700000000E+01 0.  1.
         25    2    1    2    0    0  0.00000000000E+00  0.00000000000E+00 -0.96419553176E+02  0.15786659286E+03  0.12500052362E+03 0.  0.
    9000005    1    3    3    0    0 -0.20666633345E+02 -0.32636960773E+02  0.13828142954E+02  0.41042642214E+02  0.10000000000E+01 0.  0.
    9000005    1    3    3    0    0  0.20666633345E+02  0.32636960773E+02 -0.11024769613E+03  0.11682395065E+03  0.10000000000E+01 0.  0.
<mgrwt>
<rscale>  0 0.12500052E+03</rscale>
<asrwt>0</asrwt>
<pdfrwt beam="2">  1        4 0.19560472E-01 0.12500052E+03</pdfrwt>
<pdfrwt beam="1">  1       -4 0.47266954E-02 0.12500052E+03</pdfrwt>
<totfact> 0.97754522E+03</totfact>
</mgrwt>
</event>
<event>
 5    1  0.3191162E-002  0.1249974E+03  0.7818608E-02  0.1235073E+00
         -4   -1    0    0    0  501 -0.00000000000E+00  0.00000000000E+00  0.14441646457E+03  0.14442204866E+03  0.12700000000E+01 0. -1.
          4   -1    0    0  501    0  0.00000000000E+00 -0.00000000000E+00 -0.27026383670E+02  0.27056206576E+02  0.12700000000E+01 0. -1.
         25    2    1    2    0    0  0.00000000000E+00  0.00000000000E+00  0.11739008090E+03  0.17147825523E+03  0.12499744367E+03 0.  0.
    9000005    1    3    3    0    0 -0.31669307691E+02  0.49270410712E+01 -0.14899139263E+02  0.35358239975E+02  0.10000000000E+01 0.  0.
    9000005    1    3    3    0    0  0.31669307691E+02 -0.49270410712E+01  0.13228922016E+03  0.13612001526E+03  0.10000000000E+01 0.  0.
<mgrwt>
<rscale>  0 0.12499744E+03</rscale>
<asrwt>0</asrwt>
<pdfrwt beam="2">  1        4 0.41606288E-02 0.12499744E+03</pdfrwt>
<pdfrwt beam="1">  1       -4 0.22220641E-01 0.12499744E+03</pdfrwt>
<totfact> 0.95179286E+03</totfact>
</mgrwt>
</event>
<event>
 5    1  0.3191162E-002  0.1250018E+03  0.7818608E-02  0.1235066E+00
          4   -1    0    0  501    0  0.00000000000E+00  0.00000000000E+00  0.12666816842E+03  0.12667453489E+03  0.12700000000E+01 0.  1.
         -4   -1    0    0    0  501 -0.00000000000E+00 -0.00000000000E+00 -0.30819121315E+02  0.30845277412E+02  0.12700000000E+01 0.  1.
         25    2    1    2    0    0  0.00000000000E+00  0.00000000000E+00  0.95849047100E+02  0.15751981230E+03  0.12500180574E+03 0.  0.
    9000005    1    3    3    0    0 -0.54273156360E+02  0.26965847402E+02  0.67144469526E+02  0.90455028689E+02  0.10000000000E+01 0.  0.
    9000005    1    3    3    0    0  0.54273156360E+02 -0.26965847402E+02  0.28704577575E+02  0.67064783613E+02  0.10000000000E+01 0.  0.
<mgrwt>
<rscale>  0 0.12500181E+03</rscale>
<asrwt>0</asrwt>
<pdfrwt beam="1">  1        4 0.19489913E-01 0.12500181E+03</pdfrwt>
<pdfrwt beam="2">  1       -4 0.47439050E-02 0.12500181E+03</pdfrwt>
<totfact> 0.97819116E+03</totfact>
</mgrwt>
</event>
<event>
 5    1  0.3191162E-002  0.1250005E+03  0.7818608E-02  0.1235069E+00
          4   -1    0    0  501    0  0.00000000000E+00  0.00000000000E+00  0.11108498760E+02  0.11180860642E+02  0.12700000000E+01 0.  1.
         -4   -1    0    0    0  501 -0.00000000000E+00 -0.00000000000E+00 -0.35043265242E+03  0.35043495372E+03  0.12700000000E+01 0.  1.
         25    2    1    2    0    0  0.00000000000E+00  0.00000000000E+00 -0.33932415366E+03  0.36161581436E+03  0.12500046373E+03 0.  0.
    9000005    1    3    3    0    0  0.17963306151E+02 -0.36412410983E+02 -0.30709034304E+03  0.30976446347E+03  0.10000000000E+01 0.  0.
    9000005    1    3    3    0    0 -0.17963306151E+02  0.36412410983E+02 -0.32233810629E+02  0.51851350890E+02  0.10000000000E+01 0.  0.
<mgrwt>
<rscale>  0 0.12500046E+03</rscale>
<asrwt>0</asrwt>
<pdfrwt beam="1">  1        4 0.17147434E-02 0.12500046E+03</pdfrwt>
<pdfrwt beam="2">  1       -4 0.53918451E-01 0.12500046E+03</pdfrwt>
<totfact> 0.68464599E+03</totfact>
</mgrwt>
</event>
<event>
 5    1  0.3191162E-002  0.1250013E+03  0.7818608E-02  0.1235067E+00
         -4   -1    0    0    0  501 -0.00000000000E+00  0.00000000000E+00  0.61892986588E+03  0.61893116885E+03  0.12700000000E+01 0.  1.
          4   -1    0    0  501    0  0.00000000000E+00 -0.00000000000E+00 -0.62462215246E+01  0.63740241084E+01  0.12700000000E+01 0.  1.
         25    2    1    2    0    0  0.00000000000E+00  0.00000000000E+00  0.61268364436E+03  0.62530519296E+03  0.12500134513E+03 0.  0.
    9000005    1    3    3    0    0  0.12663708886E+02 -0.83255534643E+01  0.30613783472E+01  0.15493753600E+02  0.10000000000E+01 0.  0.
    9000005    1    3    3    0    0 -0.12663708886E+02  0.83255534643E+01  0.60962226601E+03  0.60981143936E+03  0.10000000000E+01 0.  0.
<mgrwt>
<rscale>  0 0.12500135E+03</rscale>
<asrwt>0</asrwt>
<pdfrwt beam="2">  1        4 0.97088836E-03 0.12500135E+03</pdfrwt>
<pdfrwt beam="1">  1       -4 0.95229910E-01 0.12500135E+03</pdfrwt>
<totfact> 0.47306871E+03</totfact>
</mgrwt>
</event>
<event>
 5    1  0.3191162E-002  0.1249970E+03  0.7818608E-02  0.1235074E+00
         -4   -1    0    0    0  501 -0.00000000000E+00  0.00000000000E+00  0.80677702503E+02  0.80687697830E+02  0.12700000000E+01 0. -1.
          4   -1    0    0  501    0  0.00000000000E+00 -0.00000000000E+00 -0.48394298686E+02  0.48410959971E+02  0.12700000000E+01 0. -1.
         25    2    1    2    0    0  0.00000000000E+00  0.00000000000E+00  0.32283403817E+02  0.12909865780E+03  0.12499698110E+03 0.  0.
    9000005    1    3    3    0    0  0.46233357438E+02 -0.21133070791E+02 -0.21395536481E+02  0.55162478210E+02  0.10000000000E+01 0.  0.
    9000005    1    3    3    0    0 -0.46233357438E+02  0.21133070791E+02  0.53678940297E+02  0.73936179591E+02  0.10000000000E+01 0.  0.
<mgrwt>
<rscale>  0 0.12499698E+03</rscale>
<asrwt>0</asrwt>
<pdfrwt beam="2">  1        4 0.74473273E-02 0.12499698E+03</pdfrwt>
<pdfrwt beam="1">  1       -4 0.12414005E-01 0.12499698E+03</pdfrwt>
<totfact> 0.10364534E+04</totfact>
</mgrwt>
</event>
<event>
 5    1  0.3191162E-002  0.1250088E+03  0.7818608E-02  0.1235056E+00
          4   -1    0    0  501    0  0.00000000000E+00  0.00000000000E+00  0.27912120634E+03  0.27912409557E+03  0.12700000000E+01 0. -1.
         -4   -1    0    0    0  501 -0.00000000000E+00 -0.00000000000E+00 -0.13965007979E+02  0.14022636979E+02  0.12700000000E+01 0. -1.
         25    2    1    2    0    0  0.00000000000E+00  0.00000000000E+00  0.26515619836E+03  0.29314673255E+03  0.12500878879E+03 0.  0.
    9000005    1    3    3    0    0  0.45757514436E+02  0.28838520183E+01  0.23217150551E+03  0.23665729378E+03  0.10000000000E+01 0.  0.
    9000005    1    3    3    0    0 -0.45757514436E+02 -0.28838520183E+01  0.32984692852E+02  0.56489438768E+02  0.10000000000E+01 0.  0.
<mgrwt>
<rscale>  0 0.12500879E+03</rscale>
<asrwt>0</asrwt>
<pdfrwt beam="1">  1        4 0.42946374E-01 0.12500879E+03</pdfrwt>
<pdfrwt beam="2">  1       -4 0.21531183E-02 0.12500879E+03</pdfrwt>
<totfact> 0.76451700E+03</totfact>
</mgrwt>
</event>
<event>
 5    1  0.3191162E-002  0.1250025E+03  0.7818608E-02  0.1235065E+00
          4   -1    0    0  501    0  0.00000000000E+00  0.00000000000E+00  0.37067611795E+03  0.37067829356E+03  0.12700000000E+01 0. -1.
         -4   -1    0    0    0  501 -0.00000000000E+00 -0.00000000000E+00 -0.10498114045E+02  0.10574653588E+02  0.12700000000E+01 0. -1.
         25    2    1    2    0    0  0.00000000000E+00  0.00000000000E+00  0.36017800391E+03  0.38125294715E+03  0.12500246083E+03 0.  0.
    9000005    1    3    3    0    0  0.15953063279E+02 -0.34293828072E+02  0.28360230633E+02  0.47284982324E+02  0.10000000000E+01 0.  0.
    9000005    1    3    3    0    0 -0.15953063279E+02  0.34293828072E+02  0.33181777327E+03  0.33396796483E+03  0.10000000000E+01 0.  0.
<mgrwt>
<rscale>  0 0.12500246E+03</rscale>
<asrwt>0</asrwt>
<pdfrwt beam="1">  1        4 0.57033149E-01 0.12500246E+03</pdfrwt>
<pdfrwt beam="2">  1       -4 0.16211495E-02 0.12500246E+03</pdfrwt>
<totfact> 0.66414259E+03</totfact>
</mgrwt>
</event>
<event>
 5    1  0.3191162E-002  0.1250006E+03  0.7818608E-02  0.1235068E+00
         -4   -1    0    0    0  501 -0.00000000000E+00  0.00000000000E+00  0.47456141959E+03  0.47456311894E+03  0.12700000000E+01 0.  1.
          4   -1    0    0  501    0  0.00000000000E+00 -0.00000000000E+00 -0.81806582514E+01  0.82786514255E+01  0.12700000000E+01 0.  1.
         25    2    1    2    0    0  0.00000000000E+00  0.00000000000E+00  0.46638076133E+03  0.48284177037E+03  0.12500064267E+03 0.  0.
    9000005    1    3    3    0    0 -0.50704817675E+02 -0.11816811049E+02  0.36670148998E+03  0.37038034277E+03  0.10000000000E+01 0.  0.
    9000005    1    3    3    0    0  0.50704817675E+02  0.11816811049E+02  0.99679271358E+02  0.11246142760E+03  0.10000000000E+01 0.  0.
<mgrwt>
<rscale>  0 0.12500064E+03</rscale>
<asrwt>0</asrwt>
<pdfrwt beam="2">  1        4 0.12662311E-02 0.12500064E+03</pdfrwt>
<pdfrwt beam="1">  1       -4 0.73017137E-01 0.12500064E+03</pdfrwt>
<totfact> 0.57219830E+03</totfact>
</mgrwt>
</event>
<event>
 5    1  0.3191162E-002  0.1250009E+03  0.7818608E-02  0.1235068E+00
         -4   -1    0    0    0  501 -0.00000000000E+00  0.00000000000E+00  0.40090232648E+02  0.40110343476E+02  0.12700000000E+01 0.  1.
          4   -1    0    0  501    0  0.00000000000E+00 -0.00000000000E+00 -0.97389114476E+02  0.97397394824E+02  0.12700000000E+01 0.  1.
         25    2    1    2    0    0  0.00000000000E+00  0.00000000000E+00 -0.57298881828E+02  0.13750773830E+03  0.12500086493E+03 0.  0.
    9000005    1    3    3    0    0 -0.34452526918E+02  0.49621108087E+02 -0.46252821682E+02  0.76089122037E+02  0.10000000000E+01 0.  0.
    9000005    1    3    3    0    0  0.34452526918E+02 -0.49621108087E+02 -0.11046060147E+02  0.61418616263E+02  0.10000000000E+01 0.  0.
<mgrwt>
<rscale>  0 0.12500086E+03</rscale>
<asrwt>0</asrwt>
<pdfrwt beam="2">  1        4 0.14985125E-01 0.12500086E+03</pdfrwt>
<pdfrwt beam="1">  1       -4 0.61699120E-02 0.12500086E+03</pdfrwt>
<totfact> 0.10185282E+04</totfact>
</mgrwt>
</event>
<event>
 5    1  0.3191162E-002  0.1250010E+03  0.7818608E-02  0.1235068E+00
          4   -1    0    0  501    0  0.00000000000E+00  0.00000000000E+00  0.85256215505E+01  0.86196938938E+01  0.12700000000E+01 0.  1.
         -4   -1    0    0    0  501 -0.00000000000E+00 -0.00000000000E+00 -0.45557616534E+03  0.45557793551E+03  0.12700000000E+01 0.  1.
         25    2    1    2    0    0  0.00000000000E+00  0.00000000000E+00 -0.44705054379E+03  0.46419762940E+03  0.12500100177E+03 0.  0.
    9000005    1    3    3    0    0  0.32699644410E+02 -0.17199322131E+02 -0.36359738875E+02  0.51847025347E+02  0.10000000000E+01 0.  0.
    9000005    1    3    3    0    0 -0.32699644410E+02  0.17199322131E+02 -0.41069080491E+03  0.41235060406E+03  0.10000000000E+01 0.  0.
<mgrwt>
<rscale>  0 0.12500100E+03</rscale>
<asrwt>0</asrwt>
<pdfrwt beam="1">  1        4 0.13190069E-02 0.12500100E+03</pdfrwt>
<pdfrwt beam="2">  1       -4 0.70095995E-01 0.12500100E+03</pdfrwt>
<totfact> 0.58752002E+03</totfact>
</mgrwt>
</event>
<event>
 5    1  0.3191162E-002  0.1250011E+03  0.7818608E-02  0.1235068E+00
          4   -1    0    0  501    0  0.00000000000E+00  0.00000000000E+00  0.18862746146E+02  0.18905451387E+02  0.12700000000E+01 0. -1.
         -4   -1    0    0    0  501 -0.00000000000E+00 -0.00000000000E+00 -0.20681288037E+03  0.20681677976E+03  0.12700000000E+01 0. -1.
         25    2    1    2    0    0  0.00000000000E+00  0.00000000000E+00 -0.18795013423E+03  0.22572223114E+03  0.12500109070E+03 0.  0.
    9000005    1    3    3    0    0  0.21096382105E+02 -0.58779482650E+02 -0.89844151805E+02  0.10942146285E+03  0.10000000000E+01 0.  0.
    9000005    1    3    3    0    0 -0.21096382105E+02  0.58779482650E+02 -0.98105982423E+02  0.11630076829E+03  0.10000000000E+01 0.  0.
<mgrwt>
<rscale>  0 0.12500109E+03</rscale>
<asrwt>0</asrwt>
<pdfrwt beam="1">  1        4 0.29055461E-02 0.12500109E+03</pdfrwt>
<pdfrwt beam="2">  1       -4 0.31820950E-01 0.12500109E+03</pdfrwt>
<totfact> 0.85968718E+03</totfact>
</mgrwt>
</event>
<event>
 5    1  0.3191162E-002  0.1250053E+03  0.7818608E-02  0.1235061E+00
         -4   -1    0    0    0  501 -0.00000000000E+00  0.00000000000E+00  0.14985672040E+02  0.15039390496E+02  0.12700000000E+01 0.  1.
          4   -1    0    0  501    0  0.00000000000E+00 -0.00000000000E+00 -0.26016623766E+03  0.26016933739E+03  0.12700000000E+01 0.  1.
         25    2    1    2    0    0  0.00000000000E+00  0.00000000000E+00 -0.24518056562E+03  0.27520872789E+03  0.12500533647E+03 0.  0.
    9000005    1    3    3    0    0  0.79131227706E+01 -0.11650076609E+02  0.11457335646E+02  0.18182748337E+02  0.10000000000E+01 0.  0.
    9000005    1    3    3    0    0 -0.79131227706E+01  0.11650076609E+02 -0.25663790127E+03  0.25702597955E+03  0.10000000000E+01 0.  0.
<mgrwt>
<rscale>  0 0.12500534E+03</rscale>
<asrwt>0</asrwt>
<pdfrwt beam="2">  1        4 0.40029942E-01 0.12500534E+03</pdfrwt>
<pdfrwt beam="1">  1       -4 0.23098588E-02 0.12500534E+03</pdfrwt>
<totfact> 0.78808362E+03</totfact>
</mgrwt>
</event>
<event>
 5    1  0.3191162E-002  0.1249996E+03  0.7818608E-02  0.1235070E+00
          4   -1    0    0  501    0  0.00000000000E+00  0.00000000000E+00  0.19140189426E+03  0.19140610760E+03  0.12700000000E+01 0.  1.
         -4   -1    0    0    0  501 -0.00000000000E+00 -0.00000000000E+00 -0.20384283894E+02  0.20423807918E+02  0.12700000000E+01 0.  1.
         25    2    1    2    0    0  0.00000000000E+00  0.00000000000E+00  0.17101761036E+03  0.21182991551E+03  0.12499956021E+03 0.  0.
    9000005    1    3    3    0    0 -0.53672636689E+02 -0.26090797003E+02  0.54089656738E+02  0.80549193561E+02  0.10000000000E+01 0.  0.
    9000005    1    3    3    0    0  0.53672636689E+02  0.26090797003E+02  0.11692795362E+03  0.13128072195E+03  0.10000000000E+01 0.  0.
<mgrwt>
<rscale>  0 0.12499956E+03</rscale>
<asrwt>0</asrwt>
<pdfrwt beam="1">  1        4 0.29449809E-01 0.12499956E+03</pdfrwt>
<pdfrwt beam="2">  1       -4 0.31394082E-02 0.12499956E+03</pdfrwt>
<totfact> 0.88178768E+03</totfact>
</mgrwt>
</event>
<event>
 5    1  0.3191162E-002  0.1249936E+03  0.7818608E-02  0.1235079E+00
          4   -1    0    0  501    0  0.00000000000E+00  0.00000000000E+00  0.75296259182E+01  0.76359784224E+01  0.12700000000E+01 0.  1.
         -4   -1    0    0    0  501 -0.00000000000E+00 -0.00000000000E+00 -0.51498573843E+03  0.51498730439E+03  0.12700000000E+01 0.  1.
         25    2    1    2    0    0  0.00000000000E+00  0.00000000000E+00 -0.50745611251E+03  0.52262328282E+03  0.12499355830E+03 0.  0.
    9000005    1    3    3    0    0 -0.49802607252E+02  0.32002429605E+02 -0.33739307908E+03  0.34254860239E+03  0.10000000000E+01 0.  0.
    9000005    1    3    3    0    0  0.49802607252E+02 -0.32002429605E+02 -0.17006303343E+03  0.18007468043E+03  0.10000000000E+01 0.  0.
<mgrwt>
<rscale>  0 0.12499356E+03</rscale>
<asrwt>0</asrwt>
<pdfrwt beam="1">  1        4 0.11667058E-02 0.12499356E+03</pdfrwt>
<pdfrwt beam="2">  1       -4 0.79236849E-01 0.12499356E+03</pdfrwt>
<totfact> 0.54158508E+03</totfact>
</mgrwt>
</event>
<event>
 5    1  0.3191162E-002  0.1250025E+03  0.7818608E-02  0.1235065E+00
          4   -1    0    0  501    0  0.00000000000E+00  0.00000000000E+00  0.80734541419E+02  0.80744529710E+02  0.12700000000E+01 0. -1.
         -4   -1    0    0    0  501 -0.00000000000E+00 -0.00000000000E+00 -0.48364489164E+02  0.48381160715E+02  0.12700000000E+01 0. -1.
         25    2    1    2    0    0  0.00000000000E+00  0.00000000000E+00  0.32370052255E+02  0.12912569042E+03  0.12500249455E+03 0.  0.
    9000005    1    3    3    0    0  0.50025004305E+02 -0.20879615262E+02 -0.15936428531E+02  0.56510433935E+02  0.10000000000E+01 0.  0.
    9000005    1    3    3    0    0 -0.50025004305E+02  0.20879615262E+02  0.48306480786E+02  0.72615256490E+02  0.10000000000E+01 0.  0.
<mgrwt>
<rscale>  0 0.12500249E+03</rscale>
<asrwt>0</asrwt>
<pdfrwt beam="1">  1        4 0.12422749E-01 0.12500249E+03</pdfrwt>
<pdfrwt beam="2">  1       -4 0.74427415E-02 0.12500249E+03</pdfrwt>
<totfact> 0.10362663E+04</totfact>
</mgrwt>
</event>
<event>
 5    1  0.3191162E-002  0.1249905E+03  0.7818608E-02  0.1235084E+00
         -4   -1    0    0    0  501 -0.00000000000E+00  0.00000000000E+00  0.84021458058E+01  0.84975851947E+01  0.12700000000E+01 0.  1.
          4   -1    0    0  501    0  0.00000000000E+00 -0.00000000000E+00 -0.46211920011E+03  0.46212094522E+03  0.12700000000E+01 0.  1.
         25    2    1    2    0    0  0.00000000000E+00  0.00000000000E+00 -0.45371705430E+03  0.47061853041E+03  0.12499054285E+03 0.  0.
    9000005    1    3    3    0    0 -0.45910976310E+02 -0.10358444352E+02 -0.38162489881E+03  0.38451746190E+03  0.10000000000E+01 0.  0.
    9000005    1    3    3    0    0  0.45910976310E+02  0.10358444352E+02 -0.72092155491E+02  0.86101068509E+02  0.10000000000E+01 0.  0.
<mgrwt>
<rscale>  0 0.12499054E+03</rscale>
<asrwt>0</asrwt>
<pdfrwt beam="2">  1        4 0.71102717E-01 0.12499054E+03</pdfrwt>
<pdfrwt beam="1">  1       -4 0.13001139E-02 0.12499054E+03</pdfrwt>
<totfact> 0.58230446E+03</totfact>
</mgrwt>
</event>
<event>
 5    1  0.3191162E-002  0.1250028E+03  0.7818608E-02  0.1235065E+00
         -4   -1    0    0    0  501 -0.00000000000E+00  0.00000000000E+00  0.93478730911E+02  0.93487357609E+02  0.12700000000E+01 0.  1.
          4   -1    0    0  501    0  0.00000000000E+00 -0.00000000000E+00 -0.41769279324E+02  0.41788582115E+02  0.12700000000E+01 0.  1.
         25    2    1    2    0    0  0.00000000000E+00  0.00000000000E+00  0.51709451587E+02  0.13527593972E+03  0.12500284991E+03 0.  0.
    9000005    1    3    3    0    0 -0.26558001368E+02 -0.53097034645E+02  0.46972702487E+02  0.75710351364E+02  0.10000000000E+01 0.  0.
    9000005    1    3    3    0    0  0.26558001368E+02  0.53097034645E+02  0.47367491008E+01  0.59565588361E+02  0.10000000000E+01 0.  0.
<mgrwt>
<rscale>  0 0.12500285E+03</rscale>
<asrwt>0</asrwt>
<pdfrwt beam="2">  1        4 0.64281915E-02 0.12500285E+03</pdfrwt>
<pdfrwt beam="1">  1       -4 0.14383491E-01 0.12500285E+03</pdfrwt>
<totfact> 0.10231600E+04</totfact>
</mgrwt>
</event>
<event>
 5    1  0.3191162E-002  0.1250001E+03  0.7818608E-02  0.1235069E+00
          4   -1    0    0  501    0  0.00000000000E+00  0.00000000000E+00  0.50304864343E+01  0.51883228279E+01  0.12700000000E+01 0.  1.
         -4   -1    0    0    0  501 -0.00000000000E+00 -0.00000000000E+00 -0.76436451451E+03  0.76436556957E+03  0.12700000000E+01 0.  1.
         25    2    1    2    0    0  0.00000000000E+00  0.00000000000E+00 -0.75933402808E+03  0.76955389240E+03  0.12500010844E+03 0.  0.
    9000005    1    3    3    0    0  0.21635844497E+02  0.27606470596E+02 -0.69808160531E+03  0.69896291365E+03  0.10000000000E+01 0.  0.
    9000005    1    3    3    0    0 -0.21635844497E+02 -0.27606470596E+02 -0.61252422772E+02  0.70590978753E+02  0.10000000000E+01 0.  0.
<mgrwt>
<rscale>  0 0.12500011E+03</rscale>
<asrwt>0</asrwt>
<pdfrwt beam="1">  1        4 0.78614401E-03 0.12500011E+03</pdfrwt>
<pdfrwt beam="2">  1       -4 0.11760667E+00 0.12500011E+03</pdfrwt>
<totfact> 0.39655805E+03</totfact>
</mgrwt>
</event>
<event>
 5    1  0.3191162E-002  0.1250009E+03  0.7818608E-02  0.1235068E+00
         -4   -1    0    0    0  501 -0.00000000000E+00  0.00000000000E+00  0.14551166477E+02  0.14606483007E+02  0.12700000000E+01 0. -1.
          4   -1    0    0  501    0  0.00000000000E+00 -0.00000000000E+00 -0.26788711898E+03  0.26789012937E+03  0.12700000000E+01 0. -1.
         25    2    1    2    0    0  0.00000000000E+00  0.00000000000E+00 -0.25333595250E+03  0.28249661238E+03  0.12500092470E+03 0.  0.
    9000005    1    3    3    0    0  0.13504318252E+02  0.43241613955E+02 -0.29382072912E+02  0.54004721992E+02  0.10000000000E+01 0.  0.
    9000005    1    3    3    0    0 -0.13504318252E+02 -0.43241613955E+02 -0.22395387959E+03  0.22849189039E+03  0.10000000000E+01 0.  0.
<mgrwt>
<rscale>  0 0.12500092E+03</rscale>
<asrwt>0</asrwt>
<pdfrwt beam="2">  1        4 0.41217886E-01 0.12500092E+03</pdfrwt>
<pdfrwt beam="1">  1       -4 0.22431279E-02 0.12500092E+03</pdfrwt>
<totfact> 0.77846635E+03</totfact>
</mgrwt>
</event>
<event>
 5    1  0.3191162E-002  0.1250042E+03  0.7818608E-02  0.1235063E+00
         -4   -1    0    0    0  501 -0.00000000000E+00  0.00000000000E+00  0.50317502974E+03  0.50317663246E+03  0.12700000000E+01 0. -1.
          4   -1    0    0  501    0  0.00000000000E+00 -0.00000000000E+00 -0.77101661740E+01  0.78140618394E+01  0.12700000000E+01 0. -1.
         25    2    1    2    0    0  0.00000000000E+00  0.00000000000E+00  0.49546486356E+03  0.51099069430E+03  0.12500423446E+03 0.  0.
    9000005    1    3    3    0    0  0.16821256365E+02  0.33107952895E+02  0.45319908084E+03  0.45471914198E+03  0.10000000000E+01 0.  0.
    9000005    1    3    3    0    0 -0.16821256365E+02 -0.33107952895E+02  0.42265782720E+02  0.56271552312E+02  0.10000000000E+01 0.  0.
<mgrwt>
<rscale>  0 0.12500423E+03</rscale>
<asrwt>0</asrwt>
<pdfrwt beam="2">  1        4 0.11942944E-02 0.12500423E+03</pdfrwt>
<pdfrwt beam="1">  1       -4 0.77419677E-01 0.12500423E+03</pdfrwt>
<totfact> 0.55016464E+03</totfact>
</mgrwt>
</event>
<event>
 5    1  0.3191162E-002  0.1250032E+03  0.7818608E-02  0.1235064E+00
          4   -1    0    0  501    0  0.00000000000E+00  0.00000000000E+00  0.12087924247E+04  0.12087930919E+04  0.12700000000E+01 0. -1.
         -4   -1    0    0    0  501 -0.00000000000E+00 -0.00000000000E+00 -0.31062331388E+01  0.33558284093E+01  0.12700000000E+01 0. -1.
         25    2    1    2    0    0  0.00000000000E+00  0.00000000000E+00  0.12056861916E+04  0.12121489203E+04  0.12500324945E+03 0.  0.
    9000005    1    3    3    0    0 -0.19190232506E+02  0.59456395127E+02  0.61697918479E+03  0.62013518075E+03  0.10000000000E+01 0.  0.
    9000005    1    3    3    0    0  0.19190232506E+02 -0.59456395127E+02  0.58870700682E+03  0.59201373956E+03  0.10000000000E+01 0.  0.
<mgrwt>
<rscale>  0 0.12500325E+03</rscale>
<asrwt>0</asrwt>
<pdfrwt beam="1">  1        4 0.18598730E+00 0.12500325E+03</pdfrwt>
<pdfrwt beam="2">  1       -4 0.49713303E-03 0.12500325E+03</pdfrwt>
<totfact> 0.24395225E+03</totfact>
</mgrwt>
</event>
<event>
 5    1  0.3191162E-002  0.1249986E+03  0.7818608E-02  0.1235071E+00
          4   -1    0    0  501    0  0.00000000000E+00  0.00000000000E+00  0.32530355800E+02  0.32555137052E+02  0.12700000000E+01 0.  1.
         -4   -1    0    0    0  501 -0.00000000000E+00 -0.00000000000E+00 -0.12000365345E+03  0.12001037347E+03  0.12700000000E+01 0.  1.
         25    2    1    2    0    0  0.00000000000E+00  0.00000000000E+00 -0.87473297648E+02  0.15256551052E+03  0.12499862879E+03 0.  0.
    9000005    1    3    3    0    0  0.38705315134E+02  0.48495229464E+02 -0.52811047357E+02  0.81485553464E+02  0.10000000000E+01 0.  0.
    9000005    1    3    3    0    0 -0.38705315134E+02 -0.48495229464E+02 -0.34662250291E+02  0.71079957060E+02  0.10000000000E+01 0.  0.
<mgrwt>
<rscale>  0 0.12499863E+03</rscale>
<asrwt>0</asrwt>
<pdfrwt beam="1">  1        4 0.50070934E-02 0.12499863E+03</pdfrwt>
<pdfrwt beam="2">  1       -4 0.18464523E-01 0.12499863E+03</pdfrwt>
<totfact> 0.98797787E+03</totfact>
</mgrwt>
</event>
<event>
 5    1  0.3191162E-002  0.1249976E+03  0.7818608E-02  0.1235073E+00
          4   -1    0    0  501    0  0.00000000000E+00  0.00000000000E+00  0.13759739591E+02  0.13818224691E+02  0.12700000000E+01 0.  1.
         -4   -1    0    0    0  501 -0.00000000000E+00 -0.00000000000E+00 -0.28321687094E+03  0.28321971839E+03  0.12700000000E+01 0.  1.
         25    2    1    2    0    0  0.00000000000E+00  0.00000000000E+00 -0.26945713135E+03  0.29703794308E+03  0.12499757596E+03 0.  0.
    9000005    1    3    3    0    0  0.60066825872E+02  0.81987343626E+01 -0.17075638375E+03  0.18120150498E+03  0.10000000000E+01 0.  0.
    9000005    1    3    3    0    0 -0.60066825872E+02 -0.81987343626E+01 -0.98700747597E+02  0.11583643810E+03  0.10000000000E+01 0.  0.
<mgrwt>
<rscale>  0 0.12499758E+03</rscale>
<asrwt>0</asrwt>
<pdfrwt beam="1">  1        4 0.21216011E-02 0.12499758E+03</pdfrwt>
<pdfrwt beam="2">  1       -4 0.43576540E-01 0.12499758E+03</pdfrwt>
<totfact> 0.75975993E+03</totfact>
</mgrwt>
</event>
<event>
 5    1  0.3191162E-002  0.1249957E+03  0.7818608E-02  0.1235076E+00
          4   -1    0    0  501    0  0.00000000000E+00  0.00000000000E+00  0.25819346437E+01  0.28773749328E+01  0.12700000000E+01 0. -1.
         -4   -1    0    0    0  501 -0.00000000000E+00 -0.00000000000E+00 -0.14306466862E+04  0.14306472499E+04  0.12700000000E+01 0. -1.
         25    2    1    2    0    0  0.00000000000E+00  0.00000000000E+00 -0.14280647516E+04  0.14335246248E+04  0.12499566134E+03 0.  0.
    9000005    1    3    3    0    0  0.20332248829E+02 -0.58657152794E+02 -0.79586779092E+03  0.79828604055E+03  0.10000000000E+01 0.  0.
    9000005    1    3    3    0    0 -0.20332248829E+02  0.58657152794E+02 -0.63219696065E+03  0.63523858429E+03  0.10000000000E+01 0.  0.
<mgrwt>
<rscale>  0 0.12499566E+03</rscale>
<asrwt>0</asrwt>
<pdfrwt beam="1">  1        4 0.41999140E-03 0.12499566E+03</pdfrwt>
<pdfrwt beam="2">  1       -4 0.22012166E+00 0.12499566E+03</pdfrwt>
<totfact> 0.19274649E+03</totfact>
</mgrwt>
</event>
<event>
 5    1  0.3191162E-002  0.1250030E+03  0.7818608E-02  0.1235065E+00
          4   -1    0    0  501    0  0.00000000000E+00  0.00000000000E+00  0.28080354019E+03  0.28080641211E+03  0.12700000000E+01 0.  1.
         -4   -1    0    0    0  501 -0.00000000000E+00 -0.00000000000E+00 -0.13879709694E+02  0.13937691387E+02  0.12700000000E+01 0.  1.
         25    2    1    2    0    0  0.00000000000E+00  0.00000000000E+00  0.26692383049E+03  0.29474410350E+03  0.12500302101E+03 0.  0.
    9000005    1    3    3    0    0  0.26474403731E+02 -0.55652521920E+02  0.15789107787E+03  0.16949539734E+03  0.10000000000E+01 0.  0.
    9000005    1    3    3    0    0 -0.26474403731E+02  0.55652521920E+02  0.10903275262E+03  0.12524870615E+03  0.10000000000E+01 0.  0.
<mgrwt>
<rscale>  0 0.12500302E+03</rscale>
<asrwt>0</asrwt>
<pdfrwt beam="1">  1        4 0.43205225E-01 0.12500302E+03</pdfrwt>
<pdfrwt beam="2">  1       -4 0.21400210E-02 0.12500302E+03</pdfrwt>
<totfact> 0.76257777E+03</totfact>
</mgrwt>
</event>
<event>
 5    1  0.3191162E-002  0.1250010E+03  0.7818608E-02  0.1235068E+00
         -4   -1    0    0    0  501 -0.00000000000E+00  0.00000000000E+00  0.53766519007E+02  0.53781516026E+02  0.12700000000E+01 0.  1.
          4   -1    0    0  501    0  0.00000000000E+00 -0.00000000000E+00 -0.72622541807E+02  0.72633645637E+02  0.12700000000E+01 0.  1.
         25    2    1    2    0    0  0.00000000000E+00  0.00000000000E+00 -0.18856022800E+02  0.12641516166E+03  0.12500097401E+03 0.  0.
    9000005    1    3    3    0    0  0.50258642569E+02 -0.11729546075E+02  0.26209810488E+02  0.57891860998E+02  0.10000000000E+01 0.  0.
    9000005    1    3    3    0    0 -0.50258642569E+02  0.11729546075E+02 -0.45065833289E+02  0.68523300665E+02  0.10000000000E+01 0.  0.
<mgrwt>
<rscale>  0 0.12500097E+03</rscale>
<asrwt>0</asrwt>
<pdfrwt beam="2">  1        4 0.11174707E-01 0.12500097E+03</pdfrwt>
<pdfrwt beam="1">  1       -4 0.82737799E-02 0.12500097E+03</pdfrwt>
<totfact> 0.10421650E+04</totfact>
</mgrwt>
</event>
<event>
 5    1  0.3191162E-002  0.1249998E+03  0.7818608E-02  0.1235070E+00
         -4   -1    0    0    0  501 -0.00000000000E+00  0.00000000000E+00  0.42196667847E+01  0.44066413258E+01  0.12700000000E+01 0.  1.
          4   -1    0    0  501    0  0.00000000000E+00 -0.00000000000E+00 -0.90546952633E+03  0.90547041697E+03  0.12700000000E+01 0.  1.
         25    2    1    2    0    0  0.00000000000E+00  0.00000000000E+00 -0.90124985954E+03  0.90987705830E+03  0.12499980755E+03 0.  0.
    9000005    1    3    3    0    0  0.55394827236E+02  0.25186429425E+02 -0.34709502974E+03  0.35239027056E+03  0.10000000000E+01 0.  0.
    9000005    1    3    3    0    0 -0.55394827236E+02 -0.25186429425E+02 -0.55415482980E+03  0.55748678774E+03  0.10000000000E+01 0.  0.
<mgrwt>
<rscale>  0 0.12499981E+03</rscale>
<asrwt>0</asrwt>
<pdfrwt beam="2">  1        4 0.13931730E+00 0.12499981E+03</pdfrwt>
<pdfrwt beam="1">  1       -4 0.66363139E-03 0.12499981E+03</pdfrwt>
<totfact> 0.33784707E+03</totfact>
</mgrwt>
</event>
<event>
 5    1  0.3191162E-002  0.1250015E+03  0.7818608E-02  0.1235067E+00
         -4   -1    0    0    0  501 -0.00000000000E+00  0.00000000000E+00  0.69542449718E+03  0.69542565683E+03  0.12700000000E+01 0. -1.
          4   -1    0    0  501    0  0.00000000000E+00 -0.00000000000E+00 -0.55442476237E+01  0.56878450852E+01  0.12700000000E+01 0. -1.
         25    2    1    2    0    0  0.00000000000E+00  0.00000000000E+00  0.68988024956E+03  0.70111350191E+03  0.12500153535E+03 0.  0.
    9000005    1    3    3    0    0 -0.54245432295E+02 -0.21802678935E+02  0.46877006064E+03  0.47240268150E+03  0.10000000000E+01 0.  0.
    9000005    1    3    3    0    0  0.54245432295E+02  0.21802678935E+02  0.22111018892E+03  0.22871082042E+03  0.10000000000E+01 0.  0.
<mgrwt>
<rscale>  0 0.12500154E+03</rscale>
<asrwt>0</asrwt>
<pdfrwt beam="2">  1        4 0.86409629E-03 0.12500154E+03</pdfrwt>
<pdfrwt beam="1">  1       -4 0.10699952E+00 0.12500154E+03</pdfrwt>
<totfact> 0.43026528E+03</totfact>
</mgrwt>
</event>
<event>
 5    1  0.3191162E-002  0.1250066E+03  0.7818608E-02  0.1235059E+00
         -4   -1    0    0    0  501 -0.00000000000E+00  0.00000000000E+00  0.63776765359E+02  0.63789408993E+02  0.12700000000E+01 0. -1.
          4   -1    0    0  501    0  0.00000000000E+00 -0.00000000000E+00 -0.61230010262E+02  0.61243179675E+02  0.12700000000E+01 0. -1.
         25    2    1    2    0    0  0.00000000000E+00  0.00000000000E+00  0.25467550974E+01  0.12503258867E+03  0.12500664889E+03 0.  0.
    9000005    1    3    3    0    0  0.58317524119E+02  0.15132710414E+02 -0.15335278870E+02  0.62177997088E+02  0.10000000000E+01 0.  0.
    9000005    1    3    3    0    0 -0.58317524119E+02 -0.15132710414E+02  0.17882033967E+02  0.62854591580E+02  0.10000000000E+01 0.  0.
<mgrwt>
<rscale>  0 0.12500665E+03</rscale>
<asrwt>0</asrwt>
<pdfrwt beam="2">  1        4 0.94219872E-02 0.12500665E+03</pdfrwt>
<pdfrwt beam="1">  1       -4 0.98137957E-02 0.12500665E+03</pdfrwt>
<totfact> 0.10450584E+04</totfact>
</mgrwt>
</event>
<event>
 5    1  0.3191162E-002  0.1249916E+03  0.7818608E-02  0.1235082E+00
         -4   -1    0    0    0  501 -0.00000000000E+00  0.00000000000E+00  0.48665517979E+01  0.50295354062E+01  0.12700000000E+01 0. -1.
          4   -1    0    0  501    0  0.00000000000E+00 -0.00000000000E+00 -0.78918332283E+03  0.78918434471E+03  0.12700000000E+01 0. -1.
         25    2    1    2    0    0  0.00000000000E+00  0.00000000000E+00 -0.78431677103E+03  0.79421388012E+03  0.12499155989E+03 0.  0.
    9000005    1    3    3    0    0 -0.93913031787E+01  0.51126627982E+02 -0.17180675250E+03  0.17950122247E+03  0.10000000000E+01 0.  0.
    9000005    1    3    3    0    0  0.93913031787E+01 -0.51126627982E+02 -0.61251001853E+03  0.61471265765E+03  0.10000000000E+01 0.  0.
<mgrwt>
<rscale>  0 0.12499156E+03</rscale>
<asrwt>0</asrwt>
<pdfrwt beam="2">  1        4 0.12142533E+00 0.12499156E+03</pdfrwt>
<pdfrwt beam="1">  1       -4 0.76131671E-03 0.12499156E+03</pdfrwt>
<totfact> 0.38531475E+03</totfact>
</mgrwt>
</event>
<event>
 5    1  0.3191162E-002  0.1250361E+03  0.7818608E-02  0.1235013E+00
          4   -1    0    0  501    0  0.00000000000E+00  0.00000000000E+00  0.57218079494E+02  0.57232172080E+02  0.12700000000E+01 0.  1.
         -4   -1    0    0    0  501 -0.00000000000E+00 -0.00000000000E+00 -0.68280480481E+02  0.68292290302E+02  0.12700000000E+01 0.  1.
         25    2    1    2    0    0  0.00000000000E+00  0.00000000000E+00 -0.11062400987E+02  0.12552446238E+03  0.12503605056E+03 0.  0.
    9000005    1    3    3    0    0  0.59283266120E+02 -0.12091730554E+02 -0.21302048630E+02  0.64152107257E+02  0.10000000000E+01 0.  0.
    9000005    1    3    3    0    0 -0.59283266120E+02  0.12091730554E+02  0.10239647643E+02  0.61372355125E+02  0.10000000000E+01 0.  0.
<mgrwt>
<rscale>  0 0.12503605E+03</rscale>
<asrwt>0</asrwt>
<pdfrwt beam="1">  1        4 0.88047739E-02 0.12503605E+03</pdfrwt>
<pdfrwt beam="2">  1       -4 0.10506682E-01 0.12503605E+03</pdfrwt>
<totfact> 0.10432928E+04</totfact>
</mgrwt>
</event>
<event>
 5    1  0.3191162E-002  0.1250045E+03  0.7818608E-02  0.1235062E+00
          4   -1    0    0  501    0  0.00000000000E+00  0.00000000000E+00  0.28757416770E+03  0.28757697200E+03  0.12700000000E+01 0.  1.
         -4   -1    0    0    0  501 -0.00000000000E+00 -0.00000000000E+00 -0.13551876492E+02  0.13611254772E+02  0.12700000000E+01 0.  1.
         25    2    1    2    0    0  0.00000000000E+00  0.00000000000E+00  0.27402229121E+03  0.30118822678E+03  0.12500452740E+03 0.  0.
    9000005    1    3    3    0    0 -0.85038329971E+01 -0.23236218658E+02 -0.12587478228E+01  0.24795593948E+02  0.10000000000E+01 0.  0.
    9000005    1    3    3    0    0  0.85038329971E+01  0.23236218658E+02  0.27528103903E+03  0.27639263283E+03  0.10000000000E+01 0.  0.
<mgrwt>
<rscale>  0 0.12500453E+03</rscale>
<asrwt>0</asrwt>
<pdfrwt beam="1">  1        4 0.44246960E-01 0.12500453E+03</pdfrwt>
<pdfrwt beam="2">  1       -4 0.20896875E-02 0.12500453E+03</pdfrwt>
<totfact> 0.75442450E+03</totfact>
</mgrwt>
</event>
<event>
 5    1  0.3191162E-002  0.1250036E+03  0.7818608E-02  0.1235064E+00
          4   -1    0    0  501    0  0.00000000000E+00  0.00000000000E+00  0.74293800630E+01  0.75371472136E+01  0.12700000000E+01 0. -1.
         -4   -1    0    0    0  501 -0.00000000000E+00 -0.00000000000E+00 -0.52191963802E+03  0.52192118318E+03  0.12700000000E+01 0. -1.
         25    2    1    2    0    0  0.00000000000E+00  0.00000000000E+00 -0.51449025796E+03  0.52945833039E+03  0.12500359231E+03 0.  0.
    9000005    1    3    3    0    0 -0.58667331449E+02  0.14020825223E+02 -0.32645906560E+03  0.33198638652E+03  0.10000000000E+01 0.  0.
    9000005    1    3    3    0    0  0.58667331449E+02 -0.14020825223E+02 -0.18803119236E+03  0.19747194388E+03  0.10000000000E+01 0.  0.
<mgrwt>
<rscale>  0 0.12500359E+03</rscale>
<asrwt>0</asrwt>
<pdfrwt beam="1">  1        4 0.11513906E-02 0.12500359E+03</pdfrwt>
<pdfrwt beam="2">  1       -4 0.80303709E-01 0.12500359E+03</pdfrwt>
<totfact> 0.53644852E+03</totfact>
</mgrwt>
</event>
<event>
 5    1  0.3191162E-002  0.1249972E+03  0.7818608E-02  0.1235074E+00
         -4   -1    0    0    0  501 -0.00000000000E+00  0.00000000000E+00  0.23292992848E+03  0.23293339065E+03  0.12700000000E+01 0. -1.
          4   -1    0    0  501    0  0.00000000000E+00 -0.00000000000E+00 -0.16741681554E+02  0.16789782644E+02  0.12700000000E+01 0. -1.
         25    2    1    2    0    0  0.00000000000E+00  0.00000000000E+00  0.21618824693E+03  0.24972317330E+03  0.12499722066E+03 0.  0.
    9000005    1    3    3    0    0  0.57413932427E+01  0.35683885123E+02  0.20993981580E+03  0.21303058351E+03  0.10000000000E+01 0.  0.
    9000005    1    3    3    0    0 -0.57413932427E+01 -0.35683885123E+02  0.62484311301E+01  0.36692589789E+02  0.10000000000E+01 0.  0.
<mgrwt>
<rscale>  0 0.12499722E+03</rscale>
<asrwt>0</asrwt>
<pdfrwt beam="2">  1        4 0.25796099E-02 0.12499722E+03</pdfrwt>
<pdfrwt beam="1">  1       -4 0.35839337E-01 0.12499722E+03</pdfrwt>
<totfact> 0.82375356E+03</totfact>
</mgrwt>
</event>
<event>
 5    1  0.3191162E-002  0.1249973E+03  0.7818608E-02  0.1235073E+00
         -4   -1    0    0    0  501 -0.00000000000E+00  0.00000000000E+00  0.42103038397E+02  0.42122188242E+02  0.12700000000E+01 0.  1.
          4   -1    0    0  501    0  0.00000000000E+00 -0.00000000000E+00 -0.92729764238E+02  0.92738460607E+02  0.12700000000E+01 0.  1.
         25    2    1    2    0    0  0.00000000000E+00  0.00000000000E+00 -0.50626725841E+02  0.13486064885E+03  0.12499731692E+03 0.  0.
    9000005    1    3    3    0    0  0.21552731186E+02  0.58768582891E+01  0.37652976431E+02  0.43792742767E+02  0.10000000000E+01 0.  0.
    9000005    1    3    3    0    0 -0.21552731186E+02 -0.58768582891E+01 -0.88279702272E+02  0.91067906082E+02  0.10000000000E+01 0.  0.
<mgrwt>
<rscale>  0 0.12499732E+03</rscale>
<asrwt>0</asrwt>
<pdfrwt beam="2">  1        4 0.14268260E-01 0.12499732E+03</pdfrwt>
<pdfrwt beam="1">  1       -4 0.64795325E-02 0.12499732E+03</pdfrwt>
<totfact> 0.10241629E+04</totfact>
</mgrwt>
</event>
<event>
 5    1  0.3191162E-002  0.1249993E+03  0.7818608E-02  0.1235070E+00
         -4   -1    0    0    0  501 -0.00000000000E+00  0.00000000000E+00  0.18422637057E+02  0.18466360121E+02  0.12700000000E+01 0. -1.
          4   -1    0    0  501    0  0.00000000000E+00 -0.00000000000E+00 -0.21173602637E+03  0.21173983509E+03  0.12700000000E+01 0. -1.
         25    2    1    2    0    0  0.00000000000E+00  0.00000000000E+00 -0.19331338931E+03  0.23020619521E+03  0.12499930330E+03 0.  0.
    9000005    1    3    3    0    0 -0.78738281350E+01  0.50832397539E+02 -0.16201036594E+03  0.16998320058E+03  0.10000000000E+01 0.  0.
    9000005    1    3    3    0    0  0.78738281350E+01 -0.50832397539E+02 -0.31303023372E+02  0.60222994623E+02  0.10000000000E+01 0.  0.
<mgrwt>
<rscale>  0 0.12499930E+03</rscale>
<asrwt>0</asrwt>
<pdfrwt beam="2">  1        4 0.32578428E-01 0.12499930E+03</pdfrwt>
<pdfrwt beam="1">  1       -4 0.28379083E-02 0.12499930E+03</pdfrwt>
<totfact> 0.85279272E+03</totfact>
</mgrwt>
</event>
<event>
 5    1  0.3191162E-002  0.1249980E+03  0.7818608E-02  0.1235072E+00
          4   -1    0    0  501    0  0.00000000000E+00  0.00000000000E+00  0.53004380386E+01  0.54504626777E+01  0.12700000000E+01 0.  1.
         -4   -1    0    0    0  501 -0.00000000000E+00 -0.00000000000E+00 -0.72650892540E+03  0.72651003543E+03  0.12700000000E+01 0.  1.
         25    2    1    2    0    0  0.00000000000E+00  0.00000000000E+00 -0.72120848736E+03  0.73196049811E+03  0.12499795420E+03 0.  0.
    9000005    1    3    3    0    0 -0.54679722402E+02  0.25308219919E+02 -0.26354231270E+03  0.27034409300E+03  0.10000000000E+01 0.  0.
    9000005    1    3    3    0    0  0.54679722402E+02 -0.25308219919E+02 -0.45766617467E+03  0.46161640512E+03  0.10000000000E+01 0.  0.
<mgrwt>
<rscale>  0 0.12499795E+03</rscale>
<asrwt>0</asrwt>
<pdfrwt beam="1">  1        4 0.82707833E-03 0.12499795E+03</pdfrwt>
<pdfrwt beam="2">  1       -4 0.11178215E+00 0.12499795E+03</pdfrwt>
<totfact> 0.41454064E+03</totfact>
</mgrwt>
</event>
<event>
 5    1  0.3191162E-002  0.1250259E+03  0.7818608E-02  0.1235029E+00
          4   -1    0    0  501    0  0.00000000000E+00  0.00000000000E+00  0.16176888915E+03  0.16177387427E+03  0.12700000000E+01 0.  1.
         -4   -1    0    0    0  501 -0.00000000000E+00 -0.00000000000E+00 -0.24135044607E+02  0.24168435576E+02  0.12700000000E+01 0.  1.
         25    2    1    2    0    0  0.00000000000E+00  0.00000000000E+00  0.13763384454E+03  0.18594230985E+03  0.12502586704E+03 0.  0.
    9000005    1    3    3    0    0  0.47717413555E+02  0.29445778045E+02  0.10989415541E+03  0.12337637859E+03  0.10000000000E+01 0.  0.
    9000005    1    3    3    0    0 -0.47717413555E+02 -0.29445778045E+02  0.27739689139E+02  0.62565931261E+02  0.10000000000E+01 0.  0.
<mgrwt>
<rscale>  0 0.12502587E+03</rscale>
<asrwt>0</asrwt>
<pdfrwt beam="1">  1        4 0.24890474E-01 0.12502587E+03</pdfrwt>
<pdfrwt beam="2">  1       -4 0.37160358E-02 0.12502587E+03</pdfrwt>
<totfact> 0.92504541E+03</totfact>
</mgrwt>
</event>
<event>
 5    1  0.3191162E-002  0.1250048E+03  0.7818608E-02  0.1235062E+00
          4   -1    0    0  501    0  0.00000000000E+00  0.00000000000E+00  0.17550912975E+02  0.17596802160E+02  0.12700000000E+01 0.  1.
         -4   -1    0    0    0  501 -0.00000000000E+00 -0.00000000000E+00 -0.22224553629E+03  0.22224916490E+03  0.12700000000E+01 0.  1.
         25    2    1    2    0    0  0.00000000000E+00  0.00000000000E+00 -0.20469462331E+03  0.23984596706E+03  0.12500479632E+03 0.  0.
    9000005    1    3    3    0    0 -0.46033718244E+02 -0.24657422848E+02 -0.36481081278E+02  0.63709975735E+02  0.10000000000E+01 0.  0.
    9000005    1    3    3    0    0  0.46033718244E+02  0.24657422848E+02 -0.16821354203E+03  0.17613599132E+03  0.10000000000E+01 0.  0.
<mgrwt>
<rscale>  0 0.12500480E+03</rscale>
<asrwt>0</asrwt>
<pdfrwt beam="1">  1        4 0.27039497E-02 0.12500480E+03</pdfrwt>
<pdfrwt beam="2">  1       -4 0.34195428E-01 0.12500480E+03</pdfrwt>
<totfact> 0.83811352E+03</totfact>
</mgrwt>
</event>
<event>
 5    1  0.3191162E-002  0.1250001E+03  0.7818608E-02  0.1235069E+00
         -4   -1    0    0    0  501 -0.00000000000E+00  0.00000000000E+00  0.48873770912E+03  0.48873935918E+03  0.12700000000E+01 0.  1.
          4   -1    0    0  501    0  0.00000000000E+00 -0.00000000000E+00 -0.79404218368E+01  0.80413431059E+01  0.12700000000E+01 0.  1.
         25    2    1    2    0    0  0.00000000000E+00  0.00000000000E+00  0.48079728728E+03  0.49678070229E+03  0.12500013884E+03 0.  0.
    9000005    1    3    3    0    0  0.18267817723E+02  0.23792649686E+02  0.45827462723E+03  0.45925639604E+03  0.10000000000E+01 0.  0.
    9000005    1    3    3    0    0 -0.18267817723E+02 -0.23792649686E+02  0.22522660052E+02  0.37524306246E+02  0.10000000000E+01 0.  0.
<mgrwt>
<rscale>  0 0.12500014E+03</rscale>
<asrwt>0</asrwt>
<pdfrwt beam="2">  1        4 0.12294935E-02 0.12500014E+03</pdfrwt>
<pdfrwt beam="1">  1       -4 0.75198307E-01 0.12500014E+03</pdfrwt>
<totfact> 0.56114839E+03</totfact>
</mgrwt>
</event>
<event>
 5    1  0.3191162E-002  0.1249798E+03  0.7818608E-02  0.1235101E+00
          4   -1    0    0  501    0  0.00000000000E+00  0.00000000000E+00  0.20596811738E+04  0.20596815653E+04  0.12700000000E+01 0.  1.
         -4   -1    0    0    0  501 -0.00000000000E+00 -0.00000000000E+00 -0.16828010870E+01  0.21082503405E+01  0.12700000000E+01 0.  1.
         25    2    1    2    0    0  0.00000000000E+00  0.00000000000E+00  0.20579983727E+04  0.20617898156E+04  0.12497976620E+03 0.  0.
    9000005    1    3    3    0    0 -0.29420375553E+02  0.46146884119E+02  0.15263477193E+04  0.15273288623E+04  0.10000000000E+01 0.  0.
    9000005    1    3    3    0    0  0.29420375553E+02 -0.46146884119E+02  0.53165065335E+03  0.53446095332E+03  0.10000000000E+01 0.  0.
<mgrwt>
<rscale>  0 0.12497977E+03</rscale>
<asrwt>0</asrwt>
<pdfrwt beam="1">  1        4 0.31690784E+00 0.12497977E+03</pdfrwt>
<pdfrwt beam="2">  1       -4 0.29164848E-03 0.12497977E+03</pdfrwt>
<totfact> 0.90801392E+02</totfact>
</mgrwt>
</event>
<event>
 5    1  0.3191162E-002  0.1250013E+03  0.7818608E-02  0.1235067E+00
          4   -1    0    0  501    0  0.00000000000E+00  0.00000000000E+00  0.57554081864E+03  0.57554221985E+03  0.12700000000E+01 0.  1.
         -4   -1    0    0    0  501 -0.00000000000E+00 -0.00000000000E+00 -0.67264027453E+01  0.68452460798E+01  0.12700000000E+01 0.  1.
         25    2    1    2    0    0  0.00000000000E+00  0.00000000000E+00  0.56881441590E+03  0.58238746593E+03  0.12500128293E+03 0.  0.
    9000005    1    3    3    0    0 -0.30294636147E+02  0.43703154963E+02  0.13146539644E+03  0.14181636434E+03  0.10000000000E+01 0.  0.
    9000005    1    3    3    0    0  0.30294636147E+02 -0.43703154963E+02  0.43734901946E+03  0.44057110159E+03  0.10000000000E+01 0.  0.
<mgrwt>
<rscale>  0 0.12500128E+03</rscale>
<asrwt>0</asrwt>
<pdfrwt beam="1">  1        4 0.88553989E-01 0.12500128E+03</pdfrwt>
<pdfrwt beam="2">  1       -4 0.10440808E-02 0.12500128E+03</pdfrwt>
<totfact> 0.49997171E+03</totfact>
</mgrwt>
</event>
<event>
 5    1  0.3191162E-002  0.1250051E+03  0.7818608E-02  0.1235061E+00
         -4   -1    0    0    0  501 -0.00000000000E+00  0.00000000000E+00  0.52391215508E+03  0.52391369436E+03  0.12700000000E+01 0. -1.
          4   -1    0    0  501    0  0.00000000000E+00 -0.00000000000E+00 -0.74008896684E+01  0.75090657131E+01  0.12700000000E+01 0. -1.
         25    2    1    2    0    0  0.00000000000E+00  0.00000000000E+00  0.51651126541E+03  0.53142276007E+03  0.12500505041E+03 0.  0.
    9000005    1    3    3    0    0 -0.24804481436E+02  0.51946511761E+02  0.15483116673E+03  0.16518896021E+03  0.10000000000E+01 0.  0.
    9000005    1    3    3    0    0  0.24804481436E+02 -0.51946511761E+02  0.36168009868E+03  0.36623379986E+03  0.10000000000E+01 0.  0.
<mgrwt>
<rscale>  0 0.12500505E+03</rscale>
<asrwt>0</asrwt>
<pdfrwt beam="2">  1        4 0.11470375E-02 0.12500505E+03</pdfrwt>
<pdfrwt beam="1">  1       -4 0.80610348E-01 0.12500505E+03</pdfrwt>
<totfact> 0.53500237E+03</totfact>
</mgrwt>
</event>
<event>
 5    1  0.3191162E-002  0.1250022E+03  0.7818608E-02  0.1235066E+00
         -4   -1    0    0    0  501 -0.00000000000E+00  0.00000000000E+00  0.92334689917E+02  0.92343423491E+02  0.12700000000E+01 0. -1.
          4   -1    0    0  501    0  0.00000000000E+00 -0.00000000000E+00 -0.42286579958E+02  0.42305646722E+02  0.12700000000E+01 0. -1.
         25    2    1    2    0    0  0.00000000000E+00  0.00000000000E+00  0.50048109959E+02  0.13464907021E+03  0.12500223518E+03 0.  0.
    9000005    1    3    3    0    0 -0.25268043953E+01 -0.37540214694E+02  0.78772058599E+02  0.87302289063E+02  0.10000000000E+01 0.  0.
    9000005    1    3    3    0    0  0.25268043953E+01  0.37540214694E+02 -0.28723948640E+02  0.47346781150E+02  0.10000000000E+01 0.  0.
<mgrwt>
<rscale>  0 0.12500224E+03</rscale>
<asrwt>0</asrwt>
<pdfrwt beam="2">  1        4 0.65077662E-02 0.12500224E+03</pdfrwt>
<pdfrwt beam="1">  1       -4 0.14207475E-01 0.12500224E+03</pdfrwt>
<totfact> 0.10244956E+04</totfact>
</mgrwt>
</event>
<event>
 5    1  0.3191162E-002  0.1249949E+03  0.7818608E-02  0.1235077E+00
         -4   -1    0    0    0  501 -0.00000000000E+00  0.00000000000E+00  0.40245479954E+03  0.40245680336E+03  0.12700000000E+01 0.  1.
          4   -1    0    0  501    0  0.00000000000E+00 -0.00000000000E+00 -0.96616830983E+01  0.97447945228E+01  0.12700000000E+01 0.  1.
         25    2    1    2    0    0  0.00000000000E+00  0.00000000000E+00  0.39279311644E+03  0.41220159789E+03  0.12499489980E+03 0.  0.
    9000005    1    3    3    0    0  0.20047162325E+02  0.38871825335E+02  0.34358192389E+03  0.34635595267E+03  0.10000000000E+01 0.  0.
    9000005    1    3    3    0    0 -0.20047162325E+02 -0.38871825335E+02  0.49211192551E+02  0.65845645221E+02  0.10000000000E+01 0.  0.
<mgrwt>
<rscale>  0 0.12499490E+03</rscale>
<asrwt>0</asrwt>
<pdfrwt beam="2">  1        4 0.14929601E-02 0.12499490E+03</pdfrwt>
<pdfrwt beam="1">  1       -4 0.61922671E-01 0.12499490E+03</pdfrwt>
<totfact> 0.63390259E+03</totfact>
</mgrwt>
</event>
<event>
 5    1  0.3191162E-002  0.1249937E+03  0.7818608E-02  0.1235079E+00
         -4   -1    0    0    0  501 -0.00000000000E+00  0.00000000000E+00  0.10872724079E+04  0.10872731496E+04  0.12700000000E+01 0.  1.
          4   -1    0    0  501    0  0.00000000000E+00 -0.00000000000E+00 -0.34793296103E+01  0.37038675107E+01  0.12700000000E+01 0.  1.
         25    2    1    2    0    0  0.00000000000E+00  0.00000000000E+00  0.10837930783E+04  0.10909770171E+04  0.12499366126E+03 0.  0.
    9000005    1    3    3    0    0  0.35021375762E+02  0.50800660396E+02  0.62814745109E+03  0.63117146971E+03  0.10000000000E+01 0.  0.
    9000005    1    3    3    0    0 -0.35021375762E+02 -0.50800660396E+02  0.45564562720E+03  0.45980554742E+03  0.10000000000E+01 0.  0.
<mgrwt>
<rscale>  0 0.12499366E+03</rscale>
<asrwt>0</asrwt>
<pdfrwt beam="2">  1        4 0.55261011E-03 0.12499366E+03</pdfrwt>
<pdfrwt beam="1">  1       -4 0.16729018E+00 0.12499366E+03</pdfrwt>
<totfact> 0.27752777E+03</totfact>
</mgrwt>
</event>
<event>
 5    1  0.3191162E-002  0.1249985E+03  0.7818608E-02  0.1235072E+00
         -4   -1    0    0    0  501 -0.00000000000E+00  0.00000000000E+00  0.22358026001E+02  0.22394066774E+02  0.12700000000E+01 0. -1.
          4   -1    0    0  501    0  0.00000000000E+00 -0.00000000000E+00 -0.17453040307E+03  0.17453502370E+03  0.12700000000E+01 0. -1.
         25    2    1    2    0    0  0.00000000000E+00  0.00000000000E+00 -0.15217237707E+03  0.19692909047E+03  0.12499853731E+03 0.  0.
    9000005    1    3    3    0    0 -0.39968174721E+02  0.46992321465E+02 -0.60377011567E+02  0.86325643890E+02  0.10000000000E+01 0.  0.
    9000005    1    3    3    0    0  0.39968174721E+02 -0.46992321465E+02 -0.91795365503E+02  0.11060344658E+03  0.10000000000E+01 0.  0.
<mgrwt>
<rscale>  0 0.12499854E+03</rscale>
<asrwt>0</asrwt>
<pdfrwt beam="2">  1        4 0.26853958E-01 0.12499854E+03</pdfrwt>
<pdfrwt beam="1">  1       -4 0.34428242E-02 0.12499854E+03</pdfrwt>
<totfact> 0.90658426E+03</totfact>
</mgrwt>
</event>
<event>
 5    1  0.3191162E-002  0.1250008E+03  0.7818608E-02  0.1235068E+00
         -4   -1    0    0    0  501 -0.00000000000E+00  0.00000000000E+00  0.87659752664E+02  0.87668951956E+02  0.12700000000E+01 0. -1.
          4   -1    0    0  501    0  0.00000000000E+00 -0.00000000000E+00 -0.44541446706E+02  0.44559548636E+02  0.12700000000E+01 0. -1.
         25    2    1    2    0    0  0.00000000000E+00  0.00000000000E+00  0.43118305958E+02  0.13222850059E+03  0.12500075224E+03 0.  0.
    9000005    1    3    3    0    0 -0.61958649205E+02 -0.71068121906E+01  0.17338984955E+02  0.64738098443E+02  0.10000000000E+01 0.  0.
    9000005    1    3    3    0    0  0.61958649205E+02  0.71068121906E+01  0.25779321003E+02  0.67490402149E+02  0.10000000000E+01 0.  0.
<mgrwt>
<rscale>  0 0.12500075E+03</rscale>
<asrwt>0</asrwt>
<pdfrwt beam="2">  1        4 0.68546304E-02 0.12500075E+03</pdfrwt>
<pdfrwt beam="1">  1       -4 0.13488216E-01 0.12500075E+03</pdfrwt>
<totfact> 0.10296649E+04</totfact>
</mgrwt>
</event>
<event>
 5    1  0.3191162E-002  0.1250035E+03  0.7818608E-02  0.1235064E+00
         -4   -1    0    0    0  501 -0.00000000000E+00  0.00000000000E+00  0.22976911813E+03  0.22977262793E+03  0.12700000000E+01 0. -1.
          4   -1    0    0  501    0  0.00000000000E+00 -0.00000000000E+00 -0.16974355138E+02  0.17021798740E+02  0.12700000000E+01 0. -1.
         25    2    1    2    0    0  0.00000000000E+00  0.00000000000E+00  0.21279476300E+03  0.24679442667E+03  0.12500351147E+03 0.  0.
    9000005    1    3    3    0    0 -0.38038860564E+02 -0.49189485811E+02  0.94082268343E+02  0.11277869322E+03  0.10000000000E+01 0.  0.
    9000005    1    3    3    0    0  0.38038860564E+02  0.49189485811E+02  0.11871249465E+03  0.13401573346E+03  0.10000000000E+01 0.  0.
<mgrwt>
<rscale>  0 0.12500351E+03</rscale>
<asrwt>0</asrwt>
<pdfrwt beam="2">  1        4 0.26153588E-02 0.12500351E+03</pdfrwt>
<pdfrwt beam="1">  1       -4 0.35353014E-01 0.12500351E+03</pdfrwt>
<totfact> 0.82789273E+03</totfact>
</mgrwt>
</event>
<event>
 5    1  0.3191162E-002  0.1249938E+03  0.7818608E-02  0.1235079E+00
          4   -1    0    0  501    0  0.00000000000E+00  0.00000000000E+00  0.32550871113E+03  0.32551118862E+03  0.12700000000E+01 0. -1.
         -4   -1    0    0    0  501 -0.00000000000E+00 -0.00000000000E+00 -0.11963112972E+02  0.12030335489E+02  0.12700000000E+01 0. -1.
         25    2    1    2    0    0  0.00000000000E+00  0.00000000000E+00  0.31354559816E+03  0.33754152411E+03  0.12499375336E+03 0.  0.
    9000005    1    3    3    0    0 -0.67037226155E+01  0.20597054356E+02 -0.15142261888E+01  0.21736407845E+02  0.10000000000E+01 0.  0.
    9000005    1    3    3    0    0  0.67037226155E+01 -0.20597054356E+02  0.31505982434E+03  0.31580511627E+03  0.10000000000E+01 0.  0.
<mgrwt>
<rscale>  0 0.12499375E+03</rscale>
<asrwt>0</asrwt>
<pdfrwt beam="1">  1        4 0.50083617E-01 0.12499375E+03</pdfrwt>
<pdfrwt beam="2">  1       -4 0.18458407E-02 0.12499375E+03</pdfrwt>
<totfact> 0.71127085E+03</totfact>
</mgrwt>
</event>
<event>
 5    1  0.3191162E-002  0.1250073E+03  0.7818608E-02  0.1235058E+00
          4   -1    0    0  501    0  0.00000000000E+00  0.00000000000E+00  0.10562413670E+03  0.10563177152E+03  0.12700000000E+01 0. -1.
         -4   -1    0    0    0  501 -0.00000000000E+00 -0.00000000000E+00 -0.36967019030E+02  0.36988827989E+02  0.12700000000E+01 0. -1.
         25    2    1    2    0    0  0.00000000000E+00  0.00000000000E+00  0.68657117674E+02  0.14262059951E+03  0.12500734217E+03 0.  0.
    9000005    1    3    3    0    0 -0.39422240021E+02  0.42651420489E+02  0.60654691025E+02  0.83983618768E+02  0.10000000000E+01 0.  0.
    9000005    1    3    3    0    0  0.39422240021E+02 -0.42651420489E+02  0.80024266483E+01  0.58636980740E+02  0.10000000000E+01 0.  0.
<mgrwt>
<rscale>  0 0.12500734E+03</rscale>
<asrwt>0</asrwt>
<pdfrwt beam="1">  1        4 0.16252132E-01 0.12500734E+03</pdfrwt>
<pdfrwt beam="2">  1       -4 0.56894986E-02 0.12500734E+03</pdfrwt>
<totfact> 0.10077892E+04</totfact>
</mgrwt>
</event>
<event>
 5    1  0.3191162E-002  0.1249982E+03  0.7818608E-02  0.1235072E+00
          4   -1    0    0  501    0  0.00000000000E+00  0.00000000000E+00  0.12546231252E+03  0.12546874018E+03  0.12700000000E+01 0.  1.
         -4   -1    0    0    0  501 -0.00000000000E+00 -0.00000000000E+00 -0.31113785764E+02  0.31139694355E+02  0.12700000000E+01 0.  1.
         25    2    1    2    0    0  0.00000000000E+00  0.00000000000E+00  0.94348526756E+02  0.15660843454E+03  0.12499822906E+03 0.  0.
    9000005    1    3    3    0    0 -0.55910329686E+02 -0.16291501378E+01  0.12261222813E+02  0.57270906058E+02  0.10000000000E+01 0.  0.
    9000005    1    3    3    0    0  0.55910329686E+02  0.16291501378E+01  0.82087303943E+02  0.99337528479E+02  0.10000000000E+01 0.  0.
<mgrwt>
<rscale>  0 0.12499823E+03</rscale>
<asrwt>0</asrwt>
<pdfrwt beam="1">  1        4 0.19304382E-01 0.12499823E+03</pdfrwt>
<pdfrwt beam="2">  1       -4 0.47892237E-02 0.12499823E+03</pdfrwt>
<totfact> 0.98004568E+03</totfact>
</mgrwt>
</event>
<event>
 5    1  0.3191162E-002  0.1249942E+03  0.7818608E-02  0.1235078E+00
         -4   -1    0    0    0  501 -0.00000000000E+00  0.00000000000E+00  0.10034215740E+02  0.10114266435E+02  0.12700000000E+01 0. -1.
          4   -1    0    0  501    0  0.00000000000E+00 -0.00000000000E+00 -0.38762932914E+03  0.38763140961E+03  0.12700000000E+01 0. -1.
         25    2    1    2    0    0  0.00000000000E+00  0.00000000000E+00 -0.37759511340E+03  0.39774567604E+03  0.12499421244E+03 0.  0.
    9000005    1    3    3    0    0 -0.26971909195E+02 -0.41034612183E+02 -0.31177561365E+03  0.31562058956E+03  0.10000000000E+01 0.  0.
    9000005    1    3    3    0    0  0.26971909195E+02  0.41034612183E+02 -0.65819499750E+02  0.82125086484E+02  0.10000000000E+01 0.  0.
<mgrwt>
<rscale>  0 0.12499421E+03</rscale>
<asrwt>0</asrwt>
<pdfrwt beam="2">  1        4 0.59641588E-01 0.12499421E+03</pdfrwt>
<pdfrwt beam="1">  1       -4 0.15500436E-02 0.12499421E+03</pdfrwt>
<totfact> 0.64780917E+03</totfact>
</mgrwt>
</event>
<event>
 5    1  0.3191162E-002  0.1250023E+03  0.7818608E-02  0.1235066E+00
          4   -1    0    0  501    0  0.00000000000E+00  0.00000000000E+00  0.55622392404E+02  0.55636889173E+02  0.12700000000E+01 0. -1.
         -4   -1    0    0    0  501 -0.00000000000E+00 -0.00000000000E+00 -0.70201160508E+02  0.70212647270E+02  0.12700000000E+01 0. -1.
         25    2    1    2    0    0  0.00000000000E+00  0.00000000000E+00 -0.14578768104E+02  0.12584953644E+03  0.12500226135E+03 0.  0.
    9000005    1    3    3    0    0  0.33481501021E+02 -0.51741576273E+02  0.31340374126E+01  0.61717289444E+02  0.10000000000E+01 0.  0.
    9000005    1    3    3    0    0 -0.33481501021E+02  0.51741576273E+02 -0.17712805516E+02  0.64132246999E+02  0.10000000000E+01 0.  0.
<mgrwt>
<rscale>  0 0.12500226E+03</rscale>
<asrwt>0</asrwt>
<pdfrwt beam="1">  1        4 0.85592899E-02 0.12500226E+03</pdfrwt>
<pdfrwt beam="2">  1       -4 0.10802177E-01 0.12500226E+03</pdfrwt>
<totfact> 0.10433725E+04</totfact>
</mgrwt>
</event>
<event>
 5    1  0.3191162E-002  0.1249981E+03  0.7818608E-02  0.1235072E+00
          4   -1    0    0  501    0  0.00000000000E+00  0.00000000000E+00  0.10379451436E+02  0.10456859572E+02  0.12700000000E+01 0.  1.
         -4   -1    0    0    0  501 -0.00000000000E+00 -0.00000000000E+00 -0.37485629997E+03  0.37485845132E+03  0.12700000000E+01 0.  1.
         25    2    1    2    0    0  0.00000000000E+00  0.00000000000E+00 -0.36447684853E+03  0.38531531089E+03  0.12499806275E+03 0.  0.
    9000005    1    3    3    0    0 -0.34472691193E+02  0.96617190211E+01 -0.34012542428E+03  0.34200587641E+03  0.10000000000E+01 0.  0.
    9000005    1    3    3    0    0  0.34472691193E+02 -0.96617190211E+01 -0.24351424249E+02  0.43309434486E+02  0.10000000000E+01 0.  0.
<mgrwt>
<rscale>  0 0.12499806E+03</rscale>
<asrwt>0</asrwt>
<pdfrwt beam="1">  1        4 0.16029589E-02 0.12499806E+03</pdfrwt>
<pdfrwt beam="2">  1       -4 0.57676309E-01 0.12499806E+03</pdfrwt>
<totfact> 0.66009339E+03</totfact>
</mgrwt>
</event>
<event>
 5    1  0.3191162E-002  0.1250013E+03  0.7818608E-02  0.1235067E+00
          4   -1    0    0  501    0  0.00000000000E+00  0.00000000000E+00  0.60133250988E+03  0.60133385098E+03  0.12700000000E+01 0. -1.
         -4   -1    0    0    0  501 -0.00000000000E+00 -0.00000000000E+00 -0.64326931354E+01  0.65568621287E+01  0.12700000000E+01 0. -1.
         25    2    1    2    0    0  0.00000000000E+00  0.00000000000E+00  0.59489981674E+03  0.60789071311E+03  0.12500130849E+03 0.  0.
    9000005    1    3    3    0    0 -0.56405768760E+02  0.67871132980E+01  0.42404464030E+03  0.42783470245E+03  0.10000000000E+01 0.  0.
    9000005    1    3    3    0    0  0.56405768760E+02 -0.67871132980E+01  0.17085517644E+03  0.18005601066E+03  0.10000000000E+01 0.  0.
<mgrwt>
<rscale>  0 0.12500131E+03</rscale>
<asrwt>0</asrwt>
<pdfrwt beam="1">  1        4 0.92522378E-01 0.12500131E+03</pdfrwt>
<pdfrwt beam="2">  1       -4 0.99929941E-03 0.12500131E+03</pdfrwt>
<totfact> 0.48371884E+03</totfact>
</mgrwt>
</event>
<event>
 5    1  0.3191162E-002  0.1249976E+03  0.7818608E-02  0.1235073E+00
          4   -1    0    0  501    0  0.00000000000E+00  0.00000000000E+00  0.70401788917E+03  0.70401903467E+03  0.12700000000E+01 0.  1.
         -4   -1    0    0    0  501 -0.00000000000E+00 -0.00000000000E+00 -0.54744560906E+01  0.56198371407E+01  0.12700000000E+01 0.  1.
         25    2    1    2    0    0  0.00000000000E+00  0.00000000000E+00  0.69854343308E+03  0.70963887181E+03  0.12499760190E+03 0.  0.
    9000005    1    3    3    0    0 -0.22301544570E+02 -0.50837496092E+02  0.18637505114E+03  0.19446971380E+03  0.10000000000E+01 0.  0.
    9000005    1    3    3    0    0  0.22301544570E+02  0.50837496092E+02  0.51216838195E+03  0.51516915801E+03  0.10000000000E+01 0.  0.
<mgrwt>
<rscale>  0 0.12499760E+03</rscale>
<asrwt>0</asrwt>
<pdfrwt beam="1">  1        4 0.10832173E+00 0.12499760E+03</pdfrwt>
<pdfrwt beam="2">  1       -4 0.85349520E-03 0.12499760E+03</pdfrwt>
<totfact> 0.42584966E+03</totfact>
</mgrwt>
</event>
<event>
 5    1  0.3191162E-002  0.1250008E+03  0.7818608E-02  0.1235068E+00
          4   -1    0    0  501    0  0.00000000000E+00  0.00000000000E+00  0.48671758444E+02  0.48688324782E+02  0.12700000000E+01 0. -1.
         -4   -1    0    0    0  501 -0.00000000000E+00 -0.00000000000E+00 -0.80222778970E+02  0.80232830972E+02  0.12700000000E+01 0. -1.
         25    2    1    2    0    0  0.00000000000E+00  0.00000000000E+00 -0.31551020526E+02  0.12892115575E+03  0.12500079002E+03 0.  0.
    9000005    1    3    3    0    0 -0.13615705093E+02  0.45529616438E+02  0.26080106550E+02  0.54217205348E+02  0.10000000000E+01 0.  0.
    9000005    1    3    3    0    0  0.13615705093E+02 -0.45529616438E+02 -0.57631127076E+02  0.74703950405E+02  0.10000000000E+01 0.  0.
<mgrwt>
<rscale>  0 0.12500079E+03</rscale>
<asrwt>0</asrwt>
<pdfrwt beam="1">  1        4 0.74900104E-02 0.12500079E+03</pdfrwt>
<pdfrwt beam="2">  1       -4 0.12344014E-01 0.12500079E+03</pdfrwt>
<totfact> 0.10367456E+04</totfact>
</mgrwt>
</event>
<event>
 5    1  0.3191162E-002  0.1250068E+03  0.7818608E-02  0.1235059E+00
         -4   -1    0    0    0  501 -0.00000000000E+00  0.00000000000E+00  0.21131687341E+02  0.21169816010E+02  0.12700000000E+01 0.  1.
          4   -1    0    0  501    0  0.00000000000E+00 -0.00000000000E+00 -0.18466601253E+03  0.18467037955E+03  0.12700000000E+01 0.  1.
         25    2    1    2    0    0  0.00000000000E+00  0.00000000000E+00 -0.16353432519E+03  0.20584019556E+03  0.12500684219E+03 0.  0.
    9000005    1    3    3    0    0  0.18288694920E+02 -0.48024949825E+02 -0.23206191384E+02  0.56395030686E+02  0.10000000000E+01 0.  0.
    9000005    1    3    3    0    0 -0.18288694920E+02  0.48024949825E+02 -0.14032813380E+03  0.14944516488E+03  0.10000000000E+01 0.  0.
<mgrwt>
<rscale>  0 0.12500684E+03</rscale>
<asrwt>0</asrwt>
<pdfrwt beam="2">  1        4 0.28413424E-01 0.12500684E+03</pdfrwt>
<pdfrwt beam="1">  1       -4 0.32542978E-02 0.12500684E+03</pdfrwt>
<totfact> 0.89146128E+03</totfact>
</mgrwt>
</event>
<event>
 5    1  0.3191162E-002  0.1249929E+03  0.7818608E-02  0.1235080E+00
         -4   -1    0    0    0  501 -0.00000000000E+00  0.00000000000E+00  0.16123084272E+03  0.16123584448E+03  0.12700000000E+01 0.  1.
          4   -1    0    0  501    0  0.00000000000E+00 -0.00000000000E+00 -0.24202892111E+02  0.24236189605E+02  0.12700000000E+01 0.  1.
         25    2    1    2    0    0  0.00000000000E+00  0.00000000000E+00  0.13702795061E+03  0.18547203408E+03  0.12499286451E+03 0.  0.
    9000005    1    3    3    0    0  0.29705223282E+02 -0.20110714290E+02 -0.74093043120E+01  0.36643401996E+02  0.10000000000E+01 0.  0.
    9000005    1    3    3    0    0 -0.29705223282E+02  0.20110714290E+02  0.14443725492E+03  0.14882863209E+03  0.10000000000E+01 0.  0.
<mgrwt>
<rscale>  0 0.12499286E+03</rscale>
<asrwt>0</asrwt>
<pdfrwt beam="2">  1        4 0.37264680E-02 0.12499286E+03</pdfrwt>
<pdfrwt beam="1">  1       -4 0.24807691E-01 0.12499286E+03</pdfrwt>
<totfact> 0.92656005E+03</totfact>
</mgrwt>
</event>
<event>
 5    1  0.3191162E-002  0.1249962E+03  0.7818608E-02  0.1235075E+00
          4   -1    0    0  501    0  0.00000000000E+00  0.00000000000E+00  0.11861834566E+03  0.11862514416E+03  0.12700000000E+01 0.  1.
         -4   -1    0    0    0  501 -0.00000000000E+00 -0.00000000000E+00 -0.32909228895E+02  0.32933725062E+02  0.12700000000E+01 0.  1.
         25    2    1    2    0    0  0.00000000000E+00  0.00000000000E+00  0.85709116766E+02  0.15155886922E+03  0.12499615252E+03 0.  0.
    9000005    1    3    3    0    0 -0.42770315755E+02 -0.45555493150E+02  0.43627783163E+02  0.76216706368E+02  0.10000000000E+01 0.  0.
    9000005    1    3    3    0    0  0.42770315755E+02  0.45555493150E+02  0.42081333603E+02  0.75342162856E+02  0.10000000000E+01 0.  0.
<mgrwt>
<rscale>  0 0.12499615E+03</rscale>
<asrwt>0</asrwt>
<pdfrwt beam="1">  1        4 0.18251384E-01 0.12499615E+03</pdfrwt>
<pdfrwt beam="2">  1       -4 0.50653654E-02 0.12499615E+03</pdfrwt>
<totfact> 0.99002434E+03</totfact>
</mgrwt>
</event>
<event>
 5    1  0.3191162E-002  0.1250028E+03  0.7818608E-02  0.1235065E+00
         -4   -1    0    0    0  501 -0.00000000000E+00  0.00000000000E+00  0.53480781456E+01  0.54968026935E+01  0.12700000000E+01 0.  1.
          4   -1    0    0  501    0  0.00000000000E+00 -0.00000000000E+00 -0.72026855096E+03  0.72026967061E+03  0.12700000000E+01 0.  1.
         25    2    1    2    0    0  0.00000000000E+00  0.00000000000E+00 -0.71492047281E+03  0.72576647330E+03  0.12500276526E+03 0.  0.
    9000005    1    3    3    0    0  0.30454813245E+02 -0.21452802159E+02 -0.64878651179E+03  0.64985587344E+03  0.10000000000E+01 0.  0.
    9000005    1    3    3    0    0 -0.30454813245E+02  0.21452802159E+02 -0.66133961024E+02  0.75910599859E+02  0.10000000000E+01 0.  0.
<mgrwt>
<rscale>  0 0.12500277E+03</rscale>
<asrwt>0</asrwt>
<pdfrwt beam="2">  1        4 0.11082200E+00 0.12500277E+03</pdfrwt>
<pdfrwt beam="1">  1       -4 0.83430830E-03 0.12500277E+03</pdfrwt>
<totfact> 0.41758394E+03</totfact>
</mgrwt>
</event>
<event>
 5    1  0.3191162E-002  0.1249986E+03  0.7818608E-02  0.1235071E+00
         -4   -1    0    0    0  501 -0.00000000000E+00  0.00000000000E+00  0.16854958045E+03  0.16855436502E+03  0.12700000000E+01 0. -1.
          4   -1    0    0  501    0  0.00000000000E+00 -0.00000000000E+00 -0.23152634498E+02  0.23187440225E+02  0.12700000000E+01 0. -1.
         25    2    1    2    0    0  0.00000000000E+00  0.00000000000E+00  0.14539694595E+03  0.19174180525E+03  0.12499859195E+03 0.  0.
    9000005    1    3    3    0    0  0.46603104237E+02 -0.40171125062E+02  0.89473578795E+02  0.10859138969E+03  0.10000000000E+01 0.  0.
    9000005    1    3    3    0    0 -0.46603104237E+02  0.40171125062E+02  0.55923367153E+02  0.83150415555E+02  0.10000000000E+01 0.  0.
<mgrwt>
<rscale>  0 0.12499859E+03</rscale>
<asrwt>0</asrwt>
<pdfrwt beam="2">  1        4 0.35649891E-02 0.12499859E+03</pdfrwt>
<pdfrwt beam="1">  1       -4 0.25933751E-01 0.12499859E+03</pdfrwt>
<totfact> 0.91548012E+03</totfact>
</mgrwt>
</event>
<event>
 5    1  0.3191162E-002  0.1249978E+03  0.7818608E-02  0.1235073E+00
          4   -1    0    0  501    0  0.00000000000E+00  0.00000000000E+00  0.10326626418E+03  0.10327407331E+03  0.12700000000E+01 0. -1.
         -4   -1    0    0    0  501 -0.00000000000E+00 -0.00000000000E+00 -0.37805741479E+02  0.37827066880E+02  0.12700000000E+01 0. -1.
         25    2    1    2    0    0  0.00000000000E+00  0.00000000000E+00  0.65460522699E+02  0.14110114019E+03  0.12499780690E+03 0.  0.
    9000005    1    3    3    0    0 -0.16830869035E+02  0.14098571295E+02 -0.33314094247E+02  0.39910859932E+02  0.10000000000E+01 0.  0.
    9000005    1    3    3    0    0  0.16830869035E+02 -0.14098571295E+02  0.98774616946E+02  0.10119028025E+03  0.10000000000E+01 0.  0.
<mgrwt>
<rscale>  0 0.12499781E+03</rscale>
<asrwt>0</asrwt>
<pdfrwt beam="1">  1        4 0.15889359E-01 0.12499781E+03</pdfrwt>
<pdfrwt beam="2">  1       -4 0.58185090E-02 0.12499781E+03</pdfrwt>
<totfact> 0.10111314E+04</totfact>
</mgrwt>
</event>
<event>
 5    1  0.3191162E-002  0.1250103E+03  0.7818608E-02  0.1235053E+00
         -4   -1    0    0    0  501 -0.00000000000E+00  0.00000000000E+00  0.19077870016E+02  0.19120094779E+02  0.12700000000E+01 0.  1.
          4   -1    0    0  501    0  0.00000000000E+00 -0.00000000000E+00 -0.20451605028E+03  0.20451999345E+03  0.12700000000E+01 0.  1.
         25    2    1    2    0    0  0.00000000000E+00  0.00000000000E+00 -0.18543818026E+03  0.22364008823E+03  0.12501028104E+03 0.  0.
    9000005    1    3    3    0    0 -0.25745945110E+02  0.16608637261E+02  0.47297676949E+01  0.31017272989E+02  0.10000000000E+01 0.  0.
    9000005    1    3    3    0    0  0.25745945110E+02 -0.16608637261E+02 -0.19016794796E+03  0.19262281524E+03  0.10000000000E+01 0.  0.
<mgrwt>
<rscale>  0 0.12501028E+03</rscale>
<asrwt>0</asrwt>
<pdfrwt beam="2">  1        4 0.31467558E-01 0.12501028E+03</pdfrwt>
<pdfrwt beam="1">  1       -4 0.29386084E-02 0.12501028E+03</pdfrwt>
<totfact> 0.86275803E+03</totfact>
</mgrwt>
</event>
<event>
 4    1  0.3191162E-002  0.1251441E+03  0.7818608E-02  0.1234844E+00
          4   -1    0    0  501    0  0.00000000000E+00  0.00000000000E+00  0.16309335089E+02  0.16358707499E+02  0.12700000000E+01 0. -1.
         -4   -1    0    0    0  501 -0.00000000000E+00 -0.00000000000E+00 -0.23964882378E+03  0.23965218889E+03  0.12700000000E+01 0. -1.
    9000005    1    1    2    0    0 -0.60515612732E+01  0.60940579293E+02 -0.13785885345E+03  0.15085237510E+03  0.10000000000E+01 0.  0.
    9000005    1    1    2    0    0  0.60515612732E+01 -0.60940579293E+02 -0.85480635238E+02  0.10515852129E+03  0.10000000000E+01 0.  0.
<mgrwt>
<rscale>  0 0.12514412E+03</rscale>
<asrwt>0</asrwt>
<pdfrwt beam="1">  1        4 0.25131854E-02 0.12514412E+03</pdfrwt>
<pdfrwt beam="2">  1       -4 0.36873104E-01 0.12514412E+03</pdfrwt>
<totfact> 0.81208262E+03</totfact>
</mgrwt>
</event>
<event>
 5    1  0.3191162E-002  0.1249814E+03  0.7818608E-02  0.1235098E+00
         -4   -1    0    0    0  501 -0.00000000000E+00  0.00000000000E+00  0.11499751242E+04  0.11499758255E+04  0.12700000000E+01 0.  1.
          4   -1    0    0  501    0  0.00000000000E+00 -0.00000000000E+00 -0.32763335508E+01  0.35138670345E+01  0.12700000000E+01 0.  1.
         25    2    1    2    0    0  0.00000000000E+00  0.00000000000E+00  0.11466987906E+04  0.11534896925E+04  0.12498141562E+03 0.  0.
    9000005    1    3    3    0    0 -0.18930295197E+02  0.35574135198E+02  0.13263622974E+03  0.13862627677E+03  0.10000000000E+01 0.  0.
    9000005    1    3    3    0    0  0.18930295197E+02 -0.35574135198E+02  0.10140625609E+04  0.10148634157E+04  0.10000000000E+01 0.  0.
<mgrwt>
<rscale>  0 0.12498142E+03</rscale>
<asrwt>0</asrwt>
<pdfrwt beam="2">  1        4 0.52237665E-03 0.12498142E+03</pdfrwt>
<pdfrwt beam="1">  1       -4 0.17693772E+00 0.12498142E+03</pdfrwt>
<totfact> 0.25974106E+03</totfact>
</mgrwt>
</event>
<event>
 4    1  0.3191162E-002  0.1253303E+03  0.7818608E-02  0.1234554E+00
         -4   -1    0    0    0  501 -0.00000000000E+00  0.00000000000E+00  0.20941617833E+03  0.20942002924E+03  0.12700000000E+01 0.  1.
          4   -1    0    0  501    0  0.00000000000E+00 -0.00000000000E+00 -0.18726224439E+02  0.18769240308E+02  0.12700000000E+01 0.  1.
    9000005    1    1    2    0    0  0.54689339291E+02  0.23653057194E+02  0.13062765311E+03  0.14357915832E+03  0.10000000000E+01 0.  0.
    9000005    1    1    2    0    0 -0.54689339291E+02 -0.23653057194E+02  0.60062300778E+02  0.84610111224E+02  0.10000000000E+01 0.  0.
<mgrwt>
<rscale>  0 0.12533030E+03</rscale>
<asrwt>0</asrwt>
<pdfrwt beam="2">  1        4 0.28845627E-02 0.12533030E+03</pdfrwt>
<pdfrwt beam="1">  1       -4 0.32221479E-01 0.12533030E+03</pdfrwt>
<totfact> 0.84960617E+03</totfact>
</mgrwt>
</event>
<event>
 4    1  0.3191162E-002  0.1249387E+03  0.7818608E-02  0.1235165E+00
          4   -1    0    0  501    0  0.00000000000E+00  0.00000000000E+00  0.74872815547E+01  0.75942270890E+01  0.12700000000E+01 0.  1.
         -4   -1    0    0    0  501 -0.00000000000E+00 -0.00000000000E+00 -0.51740298591E+03  0.51740454455E+03  0.12700000000E+01 0.  1.
    9000005    1    1    2    0    0 -0.48956052245E+02  0.33289138531E+02 -0.33863663084E+03  0.34377409667E+03  0.10000000000E+01 0.  0.
    9000005    1    1    2    0    0  0.48956052245E+02 -0.33289138531E+02 -0.17127907351E+03  0.18122467497E+03  0.10000000000E+01 0.  0.
<mgrwt>
<rscale>  0 0.12493872E+03</rscale>
<asrwt>0</asrwt>
<pdfrwt beam="1">  1        4 0.11602364E-02 0.12493872E+03</pdfrwt>
<pdfrwt beam="2">  1       -4 0.79608778E-01 0.12493872E+03</pdfrwt>
<totfact> 0.54048374E+03</totfact>
</mgrwt>
</event>
<event>
 5    1  0.3191162E-002  0.1249995E+03  0.7818608E-02  0.1235070E+00
          4   -1    0    0  501    0  0.00000000000E+00  0.00000000000E+00  0.10245805653E+02  0.10324215877E+02  0.12700000000E+01 0. -1.
         -4   -1    0    0    0  501 -0.00000000000E+00 -0.00000000000E+00 -0.37971773413E+03  0.37971985794E+03  0.12700000000E+01 0. -1.
         25    2    1    2    0    0  0.00000000000E+00  0.00000000000E+00 -0.36947192848E+03  0.39004407381E+03  0.12499949434E+03 0.  0.
    9000005    1    3    3    0    0 -0.37412642093E+02 -0.48507541431E+02 -0.22327355253E+03  0.23152703216E+03  0.10000000000E+01 0.  0.
    9000005    1    3    3    0    0  0.37412642093E+02  0.48507541431E+02 -0.14619837595E+03  0.15851704165E+03  0.10000000000E+01 0.  0.
<mgrwt>
<rscale>  0 0.12499949E+03</rscale>
<asrwt>0</asrwt>
<pdfrwt beam="1">  1        4 0.15824730E-02 0.12499949E+03</pdfrwt>
<pdfrwt beam="2">  1       -4 0.58424297E-01 0.12499949E+03</pdfrwt>
<totfact> 0.65533484E+03</totfact>
</mgrwt>
</event>
<event>
 5    1  0.3191162E-002  0.1250005E+03  0.7818608E-02  0.1235068E+00
          4   -1    0    0  501    0  0.00000000000E+00  0.00000000000E+00  0.12855297822E+02  0.12917878390E+02  0.12700000000E+01 0.  1.
         -4   -1    0    0    0  501 -0.00000000000E+00 -0.00000000000E+00 -0.30306384738E+03  0.30306650836E+03  0.12700000000E+01 0.  1.
         25    2    1    2    0    0  0.00000000000E+00  0.00000000000E+00 -0.29020854956E+03  0.31598438675E+03  0.12500052173E+03 0.  0.
    9000005    1    3    3    0    0  0.22411891908E+02 -0.45103189914E+02 -0.51583809723E+02  0.72100485885E+02  0.10000000000E+01 0.  0.
    9000005    1    3    3    0    0 -0.22411891908E+02  0.45103189914E+02 -0.23862473983E+03  0.24388390086E+03  0.10000000000E+01 0.  0.
<mgrwt>
<rscale>  0 0.12500052E+03</rscale>
<asrwt>0</asrwt>
<pdfrwt beam="1">  1        4 0.19827569E-02 0.12500052E+03</pdfrwt>
<pdfrwt beam="2">  1       -4 0.46630221E-01 0.12500052E+03</pdfrwt>
<totfact> 0.73635438E+03</totfact>
</mgrwt>
</event>
<event>
 5    1  0.3191162E-002  0.1250076E+03  0.7818608E-02  0.1235057E+00
          4   -1    0    0  501    0  0.00000000000E+00  0.00000000000E+00  0.10085582812E+04  0.10085590808E+04  0.12700000000E+01 0.  1.
         -4   -1    0    0    0  501 -0.00000000000E+00 -0.00000000000E+00 -0.37686550816E+01  0.39768908866E+01  0.12700000000E+01 0.  1.
         25    2    1    2    0    0  0.00000000000E+00  0.00000000000E+00  0.10047896261E+04  0.10125359717E+04  0.12500760464E+03 0.  0.
    9000005    1    3    3    0    0  0.53681423225E+02 -0.30619712575E+02  0.57771128147E+03  0.58100825015E+03  0.10000000000E+01 0.  0.
    9000005    1    3    3    0    0 -0.53681423225E+02  0.30619712575E+02  0.42707834462E+03  0.43152772152E+03  0.10000000000E+01 0.  0.
<mgrwt>
<rscale>  0 0.12500760E+03</rscale>
<asrwt>0</asrwt>
<pdfrwt beam="1">  1        4 0.15517899E+00 0.12500760E+03</pdfrwt>
<pdfrwt beam="2">  1       -4 0.59587237E-03 0.12500760E+03</pdfrwt>
<totfact> 0.30188902E+03</totfact>
</mgrwt>
</event>
<event>
 5    1  0.3191162E-002  0.1249934E+03  0.7818608E-02  0.1235080E+00
         -4   -1    0    0    0  501 -0.00000000000E+00  0.00000000000E+00  0.10794399738E+03  0.10795146813E+03  0.12700000000E+01 0.  1.
          4   -1    0    0  501    0  0.00000000000E+00 -0.00000000000E+00 -0.36164058850E+02  0.36186351743E+02  0.12700000000E+01 0.  1.
         25    2    1    2    0    0  0.00000000000E+00  0.00000000000E+00  0.71779938532E+02  0.14413781987E+03  0.12499340599E+03 0.  0.
    9000005    1    3    3    0    0  0.51955539423E+02  0.38022904305E+01  0.75686678687E+02  0.91887479125E+02  0.10000000000E+01 0.  0.
    9000005    1    3    3    0    0 -0.51955539423E+02 -0.38022904305E+01 -0.39067401556E+01  0.52250340744E+02  0.10000000000E+01 0.  0.
<mgrwt>
<rscale>  0 0.12499341E+03</rscale>
<asrwt>0</asrwt>
<pdfrwt beam="2">  1        4 0.55659909E-02 0.12499341E+03</pdfrwt>
<pdfrwt beam="1">  1       -4 0.16609058E-01 0.12499341E+03</pdfrwt>
<totfact> 0.10050028E+04</totfact>
</mgrwt>
</event>
<event>
 5    1  0.3191162E-002  0.1249941E+03  0.7818608E-02  0.1235078E+00
         -4   -1    0    0    0  501 -0.00000000000E+00  0.00000000000E+00  0.99809550109E+02  0.99817629670E+02  0.12700000000E+01 0.  1.
          4   -1    0    0  501    0  0.00000000000E+00 -0.00000000000E+00 -0.39113392332E+02  0.39134005158E+02  0.12700000000E+01 0.  1.
         25    2    1    2    0    0  0.00000000000E+00  0.00000000000E+00  0.60696157777E+02  0.13895163483E+03  0.12499413287E+03 0.  0.
    9000005    1    3    3    0    0  0.31467785262E+02 -0.50691618533E+02  0.50996991402E+02  0.78495572046E+02  0.10000000000E+01 0.  0.
    9000005    1    3    3    0    0 -0.31467785262E+02  0.50691618533E+02  0.96991663752E+01  0.60456062782E+02  0.10000000000E+01 0.  0.
<mgrwt>
<rscale>  0 0.12499413E+03</rscale>
<asrwt>0</asrwt>
<pdfrwt beam="2">  1        4 0.60196520E-02 0.12499413E+03</pdfrwt>
<pdfrwt beam="1">  1       -4 0.15357523E-01 0.12499413E+03</pdfrwt>
<totfact> 0.10156703E+04</totfact>
</mgrwt>
</event>
<event>
 5    1  0.3191162E-002  0.1249961E+03  0.7818608E-02  0.1235075E+00
          4   -1    0    0  501    0  0.00000000000E+00  0.00000000000E+00  0.57052202679E+02  0.57066336228E+02  0.12700000000E+01 0. -1.
         -4   -1    0    0    0  501 -0.00000000000E+00 -0.00000000000E+00 -0.68435204977E+02  0.68446988102E+02  0.12700000000E+01 0. -1.
         25    2    1    2    0    0  0.00000000000E+00  0.00000000000E+00 -0.11383002298E+02  0.12551332433E+03  0.12499608731E+03 0.  0.
    9000005    1    3    3    0    0  0.14173504437E+02 -0.23133476629E+02 -0.62217957134E+02  0.67883136042E+02  0.10000000000E+01 0.  0.
    9000005    1    3    3    0    0 -0.14173504437E+02  0.23133476629E+02  0.50834954836E+02  0.57630188288E+02  0.10000000000E+01 0.  0.
<mgrwt>
<rscale>  0 0.12499609E+03</rscale>
<asrwt>0</asrwt>
<pdfrwt beam="1">  1        4 0.87792556E-02 0.12499609E+03</pdfrwt>
<pdfrwt beam="2">  1       -4 0.10530487E-01 0.12499609E+03</pdfrwt>
<totfact> 0.10442581E+04</totfact>
</mgrwt>
</event>
<event>
 5    1  0.3191162E-002  0.1250006E+03  0.7818608E-02  0.1235068E+00
         -4   -1    0    0    0  501 -0.00000000000E+00  0.00000000000E+00  0.13330820920E+04  0.13330826970E+04  0.12700000000E+01 0.  1.
          4   -1    0    0  501    0  0.00000000000E+00 -0.00000000000E+00 -0.27920273816E+01  0.30672979803E+01  0.12700000000E+01 0.  1.
         25    2    1    2    0    0  0.00000000000E+00  0.00000000000E+00  0.13302900647E+04  0.13361499950E+04  0.12500061173E+03 0.  0.
    9000005    1    3    3    0    0  0.10888991105E+02 -0.22899267512E+02  0.54613925130E+02  0.60221486182E+02  0.10000000000E+01 0.  0.
    9000005    1    3    3    0    0 -0.10888991105E+02  0.22899267512E+02  0.12756761395E+04  0.12759285088E+04  0.10000000000E+01 0.  0.
<mgrwt>
<rscale>  0 0.12500061E+03</rscale>
<asrwt>0</asrwt>
<pdfrwt beam="2">  1        4 0.45076366E-03 0.12500061E+03</pdfrwt>
<pdfrwt beam="1">  1       -4 0.20511087E+00 0.12500061E+03</pdfrwt>
<totfact> 0.21390751E+03</totfact>
</mgrwt>
</event>
<event>
 5    1  0.3191162E-002  0.1250129E+03  0.7818608E-02  0.1235049E+00
          4   -1    0    0  501    0  0.00000000000E+00  0.00000000000E+00  0.55417381275E+03  0.55417526798E+03  0.12700000000E+01 0. -1.
         -4   -1    0    0    0  501 -0.00000000000E+00 -0.00000000000E+00 -0.69915645467E+01  0.71059745856E+01  0.12700000000E+01 0. -1.
         25    2    1    2    0    0  0.00000000000E+00  0.00000000000E+00  0.54718224821E+03  0.56128124257E+03  0.12501288135E+03 0.  0.
    9000005    1    3    3    0    0  0.43090005468E+02  0.41879946670E+02  0.19642728563E+03  0.20541508475E+03  0.10000000000E+01 0.  0.
    9000005    1    3    3    0    0 -0.43090005468E+02 -0.41879946670E+02  0.35075496258E+03  0.35586615781E+03  0.10000000000E+01 0.  0.
<mgrwt>
<rscale>  0 0.12501288E+03</rscale>
<asrwt>0</asrwt>
<pdfrwt beam="1">  1        4 0.85266419E-01 0.12501288E+03</pdfrwt>
<pdfrwt beam="2">  1       -4 0.10845381E-02 0.12501288E+03</pdfrwt>
<totfact> 0.51392030E+03</totfact>
</mgrwt>
</event>
<event>
 5    1  0.3191162E-002  0.1250011E+03  0.7818608E-02  0.1235068E+00
         -4   -1    0    0    0  501 -0.00000000000E+00  0.00000000000E+00  0.46386345471E+02  0.46403727718E+02  0.12700000000E+01 0.  1.
          4   -1    0    0  501    0  0.00000000000E+00 -0.00000000000E+00 -0.84174783922E+02  0.84184364037E+02  0.12700000000E+01 0.  1.
         25    2    1    2    0    0  0.00000000000E+00  0.00000000000E+00 -0.37788438452E+02  0.13058809176E+03  0.12500113451E+03 0.  0.
    9000005    1    3    3    0    0 -0.29518489515E+02  0.50617442907E+02 -0.41587302870E+02  0.71860771703E+02  0.10000000000E+01 0.  0.
    9000005    1    3    3    0    0  0.29518489515E+02 -0.50617442907E+02  0.37988644185E+01  0.58727320053E+02  0.10000000000E+01 0.  0.
<mgrwt>
<rscale>  0 0.12500113E+03</rscale>
<asrwt>0</asrwt>
<pdfrwt beam="2">  1        4 0.12952041E-01 0.12500113E+03</pdfrwt>
<pdfrwt beam="1">  1       -4 0.71384349E-02 0.12500113E+03</pdfrwt>
<totfact> 0.10331664E+04</totfact>
</mgrwt>
</event>
<event>
 5    1  0.3191162E-002  0.1250069E+03  0.7818608E-02  0.1235058E+00
         -4   -1    0    0    0  501 -0.00000000000E+00  0.00000000000E+00  0.44449959440E+01  0.46228658797E+01  0.12700000000E+01 0. -1.
          4   -1    0    0  501    0  0.00000000000E+00 -0.00000000000E+00 -0.86147644264E+03  0.86147737877E+03  0.12700000000E+01 0. -1.
         25    2    1    2    0    0  0.00000000000E+00  0.00000000000E+00 -0.85703144670E+03  0.86610024465E+03  0.12500693240E+03 0.  0.
    9000005    1    3    3    0    0 -0.36254841110E+02  0.37250952652E+02 -0.66888652038E+03  0.67090403496E+03  0.10000000000E+01 0.  0.
    9000005    1    3    3    0    0  0.36254841110E+02 -0.37250952652E+02 -0.18814492631E+03  0.19519620968E+03  0.10000000000E+01 0.  0.
<mgrwt>
<rscale>  0 0.12500693E+03</rscale>
<asrwt>0</asrwt>
<pdfrwt beam="2">  1        4 0.13254846E+00 0.12500693E+03</pdfrwt>
<pdfrwt beam="1">  1       -4 0.69760053E-03 0.12500693E+03</pdfrwt>
<totfact> 0.35472059E+03</totfact>
</mgrwt>
</event>
<event>
 5    1  0.3191162E-002  0.1250107E+03  0.7818608E-02  0.1235053E+00
         -4   -1    0    0    0  501 -0.00000000000E+00  0.00000000000E+00  0.13572864486E+03  0.13573458637E+03  0.12700000000E+01 0.  1.
          4   -1    0    0  501    0  0.00000000000E+00 -0.00000000000E+00 -0.28764173788E+02  0.28792196750E+02  0.12700000000E+01 0.  1.
         25    2    1    2    0    0  0.00000000000E+00  0.00000000000E+00  0.10696447108E+03  0.16452678312E+03  0.12501065671E+03 0.  0.
    9000005    1    3    3    0    0 -0.85343471288E+01 -0.58750165918E+02  0.79188340089E+02  0.98975806551E+02  0.10000000000E+01 0.  0.
    9000005    1    3    3    0    0  0.85343471288E+01  0.58750165918E+02  0.27776130988E+02  0.65550976568E+02  0.10000000000E+01 0.  0.
<mgrwt>
<rscale>  0 0.12501066E+03</rscale>
<asrwt>0</asrwt>
<pdfrwt beam="2">  1        4 0.44278701E-02 0.12501066E+03</pdfrwt>
<pdfrwt beam="1">  1       -4 0.20883943E-01 0.12501066E+03</pdfrwt>
<totfact> 0.96453992E+03</totfact>
</mgrwt>
</event>
<event>
 5    1  0.3191162E-002  0.1250132E+03  0.7818608E-02  0.1235049E+00
         -4   -1    0    0    0  501 -0.00000000000E+00  0.00000000000E+00  0.21201225257E+01  0.24714003165E+01  0.12700000000E+01 0.  1.
          4   -1    0    0  501    0  0.00000000000E+00 -0.00000000000E+00 -0.17015139991E+04  0.17015144731E+04  0.12700000000E+01 0.  1.
         25    2    1    2    0    0  0.00000000000E+00  0.00000000000E+00 -0.16993938766E+04  0.17039858734E+04  0.12501323502E+03 0.  0.
    9000005    1    3    3    0    0  0.15417950964E+02 -0.49022495349E+02 -0.36487468489E+03  0.36847720952E+03  0.10000000000E+01 0.  0.
    9000005    1    3    3    0    0 -0.15417950964E+02  0.49022495349E+02 -0.13345191917E+04  0.13355086639E+04  0.10000000000E+01 0.  0.
<mgrwt>
<rscale>  0 0.12501324E+03</rscale>
<asrwt>0</asrwt>
<pdfrwt beam="2">  1        4 0.26179744E+00 0.12501324E+03</pdfrwt>
<pdfrwt beam="1">  1       -4 0.35323188E-03 0.12501324E+03</pdfrwt>
<totfact> 0.14237503E+03</totfact>
</mgrwt>
</event>
<event>
 5    1  0.3191162E-002  0.1250000E+03  0.7818608E-02  0.1235069E+00
         -4   -1    0    0    0  501 -0.00000000000E+00  0.00000000000E+00  0.14891067467E+03  0.14891609024E+03  0.12700000000E+01 0.  1.
          4   -1    0    0  501    0  0.00000000000E+00 -0.00000000000E+00 -0.26210886530E+02  0.26241636243E+02  0.12700000000E+01 0.  1.
         25    2    1    2    0    0  0.00000000000E+00  0.00000000000E+00  0.12269978814E+03  0.17515772648E+03  0.12499996454E+03 0.  0.
    9000005    1    3    3    0    0 -0.62100240646E+01  0.47140227186E+01 -0.25533576518E+02  0.26716098870E+02  0.10000000000E+01 0.  0.
    9000005    1    3    3    0    0  0.62100240646E+01 -0.47140227186E+01  0.14823336466E+03  0.14844162761E+03  0.10000000000E+01 0.  0.
<mgrwt>
<rscale>  0 0.12499996E+03</rscale>
<asrwt>0</asrwt>
<pdfrwt beam="2">  1        4 0.40352260E-02 0.12499996E+03</pdfrwt>
<pdfrwt beam="1">  1       -4 0.22912117E-01 0.12499996E+03</pdfrwt>
<totfact> 0.94496036E+03</totfact>
</mgrwt>
</event>
<event>
 5    1  0.3191162E-002  0.1249984E+03  0.7818608E-02  0.1235072E+00
          4   -1    0    0  501    0  0.00000000000E+00  0.00000000000E+00  0.14943028486E+03  0.14943568160E+03  0.12700000000E+01 0.  1.
         -4   -1    0    0    0  501 -0.00000000000E+00 -0.00000000000E+00 -0.26118978913E+02  0.26149836701E+02  0.12700000000E+01 0.  1.
         25    2    1    2    0    0  0.00000000000E+00  0.00000000000E+00  0.12331130595E+03  0.17558551830E+03  0.12499838423E+03 0.  0.
    9000005    1    3    3    0    0 -0.54903484443E+02 -0.14657770849E+02  0.25135927979E+02  0.62145456194E+02  0.10000000000E+01 0.  0.
    9000005    1    3    3    0    0  0.54903484443E+02  0.14657770849E+02  0.98175377970E+02  0.11344006210E+03  0.10000000000E+01 0.  0.
<mgrwt>
<rscale>  0 0.12499838E+03</rscale>
<asrwt>0</asrwt>
<pdfrwt beam="1">  1        4 0.22992064E-01 0.12499838E+03</pdfrwt>
<pdfrwt beam="2">  1       -4 0.40210932E-02 0.12499838E+03</pdfrwt>
<totfact> 0.94421135E+03</totfact>
</mgrwt>
</event>
<event>
 5    1  0.3191162E-002  0.1249985E+03  0.7818608E-02  0.1235072E+00
          4   -1    0    0  501    0  0.00000000000E+00  0.00000000000E+00  0.75277681961E+01  0.76341465806E+01  0.12700000000E+01 0. -1.
         -4   -1    0    0    0  501 -0.00000000000E+00 -0.00000000000E+00 -0.51515142283E+03  0.51515298829E+03  0.12700000000E+01 0. -1.
         25    2    1    2    0    0  0.00000000000E+00  0.00000000000E+00 -0.50762365464E+03  0.52278713487E+03  0.12499845456E+03 0.  0.
    9000005    1    3    3    0    0  0.14510113531E+02  0.48530956363E+02 -0.40687415336E+03  0.41001630918E+03  0.10000000000E+01 0.  0.
    9000005    1    3    3    0    0 -0.14510113531E+02 -0.48530956363E+02 -0.10074950127E+03  0.11277082569E+03  0.10000000000E+01 0.  0.
<mgrwt>
<rscale>  0 0.12499845E+03</rscale>
<asrwt>0</asrwt>
<pdfrwt beam="1">  1        4 0.11664220E-02 0.12499845E+03</pdfrwt>
<pdfrwt beam="2">  1       -4 0.79262341E-01 0.12499845E+03</pdfrwt>
<totfact> 0.54140569E+03</totfact>
</mgrwt>
</event>
<event>
 5    1  0.3191162E-002  0.1249987E+03  0.7818608E-02  0.1235071E+00
         -4   -1    0    0    0  501 -0.00000000000E+00  0.00000000000E+00  0.12999219791E+03  0.12999840160E+03  0.12700000000E+01 0.  1.
          4   -1    0    0  501    0  0.00000000000E+00 -0.00000000000E+00 -0.30028926293E+02  0.30055770067E+02  0.12700000000E+01 0.  1.
         25    2    1    2    0    0  0.00000000000E+00  0.00000000000E+00  0.99963271618E+02  0.16005417166E+03  0.12499872877E+03 0.  0.
    9000005    1    3    3    0    0  0.88439196498E+01 -0.38055809604E+02 -0.12468335229E+02  0.41023395066E+02  0.10000000000E+01 0.  0.
    9000005    1    3    3    0    0 -0.88439196498E+01  0.38055809604E+02  0.11243160685E+03  0.11903077660E+03  0.10000000000E+01 0.  0.
<mgrwt>
<rscale>  0 0.12499873E+03</rscale>
<asrwt>0</asrwt>
<pdfrwt beam="2">  1        4 0.46223769E-02 0.12499873E+03</pdfrwt>
<pdfrwt beam="1">  1       -4 0.20001342E-01 0.12499873E+03</pdfrwt>
<totfact> 0.97335123E+03</totfact>
</mgrwt>
</event>
<event>
 5    1  0.3191162E-002  0.1250004E+03  0.7818608E-02  0.1235069E+00
          4   -1    0    0  501    0  0.00000000000E+00  0.00000000000E+00  0.24705130105E+02  0.24737751586E+02  0.12700000000E+01 0.  1.
         -4   -1    0    0    0  501 -0.00000000000E+00 -0.00000000000E+00 -0.15797636041E+03  0.15798146521E+03  0.12700000000E+01 0.  1.
         25    2    1    2    0    0  0.00000000000E+00  0.00000000000E+00 -0.13327123031E+03  0.18271921680E+03  0.12500036543E+03 0.  0.
    9000005    1    3    3    0    0 -0.60162045860E+02 -0.14730491157E+02 -0.54509814575E+02  0.82515325951E+02  0.10000000000E+01 0.  0.
    9000005    1    3    3    0    0  0.60162045860E+02  0.14730491157E+02 -0.78761415734E+02  0.10020389084E+03  0.10000000000E+01 0.  0.
<mgrwt>
<rscale>  0 0.12500037E+03</rscale>
<asrwt>0</asrwt>
<pdfrwt beam="1">  1        4 0.38036914E-02 0.12500037E+03</pdfrwt>
<pdfrwt beam="2">  1       -4 0.24306957E-01 0.12500037E+03</pdfrwt>
<totfact> 0.93129050E+03</totfact>
</mgrwt>
</event>
<event>
 5    1  0.3191162E-002  0.1249965E+03  0.7818608E-02  0.1235075E+00
          4   -1    0    0  501    0  0.00000000000E+00  0.00000000000E+00  0.12509623776E+03  0.12510268423E+03  0.12700000000E+01 0.  1.
         -4   -1    0    0    0  501 -0.00000000000E+00 -0.00000000000E+00 -0.31204041275E+02  0.31229874990E+02  0.12700000000E+01 0.  1.
         25    2    1    2    0    0  0.00000000000E+00  0.00000000000E+00  0.93892196486E+02  0.15633255922E+03  0.12499649800E+03 0.  0.
    9000005    1    3    3    0    0  0.35570700053E+02 -0.74028692905E+01 -0.16642316385E+02  0.39975540905E+02  0.10000000000E+01 0.  0.
    9000005    1    3    3    0    0 -0.35570700053E+02  0.74028692905E+01  0.11053451287E+03  0.11635701832E+03  0.10000000000E+01 0.  0.
<mgrwt>
<rscale>  0 0.12499650E+03</rscale>
<asrwt>0</asrwt>
<pdfrwt beam="1">  1        4 0.19248058E-01 0.12499650E+03</pdfrwt>
<pdfrwt beam="2">  1       -4 0.48031048E-02 0.12499650E+03</pdfrwt>
<totfact> 0.98062256E+03</totfact>
</mgrwt>
</event>
<event>
 5    1  0.3191162E-002  0.1250422E+03  0.7818608E-02  0.1235003E+00
         -4   -1    0    0    0  501 -0.00000000000E+00  0.00000000000E+00  0.26977933843E+02  0.27007810249E+02  0.12700000000E+01 0.  1.
          4   -1    0    0  501    0  0.00000000000E+00 -0.00000000000E+00 -0.14477927021E+03  0.14478484031E+03  0.12700000000E+01 0.  1.
         25    2    1    2    0    0  0.00000000000E+00  0.00000000000E+00 -0.11780133637E+03  0.17179265056E+03  0.12504223261E+03 0.  0.
    9000005    1    3    3    0    0  0.33724735438E+02  0.28730187946E+02  0.16919581972E+01  0.44346862373E+02  0.10000000000E+01 0.  0.
    9000005    1    3    3    0    0 -0.33724735438E+02 -0.28730187946E+02 -0.11949329457E+03  0.12744578818E+03  0.10000000000E+01 0.  0.
<mgrwt>
<rscale>  0 0.12504223E+03</rscale>
<asrwt>0</asrwt>
<pdfrwt beam="2">  1        4 0.22276460E-01 0.12504223E+03</pdfrwt>
<pdfrwt beam="1">  1       -4 0.41531781E-02 0.12504223E+03</pdfrwt>
<totfact> 0.95025475E+03</totfact>
</mgrwt>
</event>
<event>
 5    1  0.3191162E-002  0.1249998E+03  0.7818608E-02  0.1235070E+00
          4   -1    0    0  501    0  0.00000000000E+00  0.00000000000E+00  0.28678980365E+03  0.28679261562E+03  0.12700000000E+01 0. -1.
         -4   -1    0    0    0  501 -0.00000000000E+00 -0.00000000000E+00 -0.13588070881E+02  0.13647291683E+02  0.12700000000E+01 0. -1.
         25    2    1    2    0    0  0.00000000000E+00  0.00000000000E+00  0.27320173277E+03  0.30043990731E+03  0.12499980446E+03 0.  0.
    9000005    1    3    3    0    0  0.44848253148E+02 -0.32867702485E+02  0.68044144011E+02  0.87878650486E+02  0.10000000000E+01 0.  0.
    9000005    1    3    3    0    0 -0.44848253148E+02  0.32867702485E+02  0.20515758876E+03  0.21256125682E+03  0.10000000000E+01 0.  0.
<mgrwt>
<rscale>  0 0.12499980E+03</rscale>
<asrwt>0</asrwt>
<pdfrwt beam="1">  1        4 0.44126278E-01 0.12499980E+03</pdfrwt>
<pdfrwt beam="2">  1       -4 0.20952443E-02 0.12499980E+03</pdfrwt>
<totfact> 0.75544019E+03</totfact>
</mgrwt>
</event>
<event>
 5    1  0.3191162E-002  0.1250020E+03  0.7818608E-02  0.1235066E+00
          4   -1    0    0  501    0  0.00000000000E+00  0.00000000000E+00  0.85883381136E+01  0.86817309077E+01  0.12700000000E+01 0.  1.
         -4   -1    0    0    0  501 -0.00000000000E+00 -0.00000000000E+00 -0.45229237268E+03  0.45229415570E+03  0.12700000000E+01 0.  1.
         25    2    1    2    0    0  0.00000000000E+00  0.00000000000E+00 -0.44370403457E+03  0.46097588661E+03  0.12500199097E+03 0.  0.
    9000005    1    3    3    0    0 -0.13306110240E+02 -0.54421314148E+02 -0.32395953181E+03  0.32876969182E+03  0.10000000000E+01 0.  0.
    9000005    1    3    3    0    0  0.13306110240E+02  0.54421314148E+02 -0.11974450275E+03  0.13220619480E+03  0.10000000000E+01 0.  0.
<mgrwt>
<rscale>  0 0.12500199E+03</rscale>
<asrwt>0</asrwt>
<pdfrwt beam="1">  1        4 0.13286044E-02 0.12500199E+03</pdfrwt>
<pdfrwt beam="2">  1       -4 0.69590745E-01 0.12500199E+03</pdfrwt>
<totfact> 0.59022031E+03</totfact>
</mgrwt>
</event>
<event>
 5    1  0.3191162E-002  0.1250016E+03  0.7818608E-02  0.1235067E+00
         -4   -1    0    0    0  501 -0.00000000000E+00  0.00000000000E+00  0.10495163381E+02  0.10571724287E+02  0.12700000000E+01 0.  1.
          4   -1    0    0  501    0  0.00000000000E+00 -0.00000000000E+00 -0.37077441477E+03  0.37077658980E+03  0.12700000000E+01 0.  1.
         25    2    1    2    0    0  0.00000000000E+00  0.00000000000E+00 -0.36027925139E+03  0.38134831409E+03  0.12500159071E+03 0.  0.
    9000005    1    3    3    0    0 -0.35229855205E+02  0.51077943912E+02 -0.15746323775E+03  0.16925061387E+03  0.10000000000E+01 0.  0.
    9000005    1    3    3    0    0  0.35229855205E+02 -0.51077943912E+02 -0.20281601364E+03  0.21209770022E+03  0.10000000000E+01 0.  0.
<mgrwt>
<rscale>  0 0.12500159E+03</rscale>
<asrwt>0</asrwt>
<pdfrwt beam="2">  1        4 0.57048264E-01 0.12500159E+03</pdfrwt>
<pdfrwt beam="1">  1       -4 0.16206974E-02 0.12500159E+03</pdfrwt>
<totfact> 0.66405839E+03</totfact>
</mgrwt>
</event>
<event>
 5    1  0.3191162E-002  0.1249978E+03  0.7818608E-02  0.1235073E+00
         -4   -1    0    0    0  501 -0.00000000000E+00  0.00000000000E+00  0.18528213125E+02  0.18571687635E+02  0.12700000000E+01 0. -1.
          4   -1    0    0  501    0  0.00000000000E+00 -0.00000000000E+00 -0.21052743576E+03  0.21053126634E+03  0.12700000000E+01 0. -1.
         25    2    1    2    0    0  0.00000000000E+00  0.00000000000E+00 -0.19199922264E+03  0.22910295398E+03  0.12499784810E+03 0.  0.
    9000005    1    3    3    0    0  0.30589328879E+02  0.50649094809E+02 -0.59156137339E+02  0.83674885307E+02  0.10000000000E+01 0.  0.
    9000005    1    3    3    0    0 -0.30589328879E+02 -0.50649094809E+02 -0.13284308530E+03  0.14542806867E+03  0.10000000000E+01 0.  0.
<mgrwt>
<rscale>  0 0.12499785E+03</rscale>
<asrwt>0</asrwt>
<pdfrwt beam="2">  1        4 0.32392473E-01 0.12499785E+03</pdfrwt>
<pdfrwt beam="1">  1       -4 0.28541333E-02 0.12499785E+03</pdfrwt>
<totfact> 0.85451633E+03</totfact>
</mgrwt>
</event>
<event>
 5    1  0.3191162E-002  0.1250004E+03  0.7818608E-02  0.1235069E+00
          4   -1    0    0  501    0  0.00000000000E+00  0.00000000000E+00  0.62512846234E+01  0.63789857691E+01  0.12700000000E+01 0.  1.
         -4   -1    0    0    0  501 -0.00000000000E+00 -0.00000000000E+00 -0.61842961224E+03  0.61843091627E+03  0.12700000000E+01 0.  1.
         25    2    1    2    0    0  0.00000000000E+00  0.00000000000E+00 -0.61217832762E+03  0.62480990204E+03  0.12500043552E+03 0.  0.
    9000005    1    3    3    0    0 -0.15483701013E+02  0.44019138102E+02 -0.51386216239E+03  0.51597747185E+03  0.10000000000E+01 0.  0.
    9000005    1    3    3    0    0  0.15483701013E+02 -0.44019138102E+02 -0.98316165223E+02  0.10883243019E+03  0.10000000000E+01 0.  0.
<mgrwt>
<rscale>  0 0.12500044E+03</rscale>
<asrwt>0</asrwt>
<pdfrwt beam="1">  1        4 0.97166006E-03 0.12500044E+03</pdfrwt>
<pdfrwt beam="2">  1       -4 0.95152893E-01 0.12500044E+03</pdfrwt>
<totfact> 0.47337641E+03</totfact>
</mgrwt>
</event>
<event>
 5    1  0.3191162E-002  0.1249980E+03  0.7818608E-02  0.1235072E+00
          4   -1    0    0  501    0  0.00000000000E+00  0.00000000000E+00  0.69188813962E+03  0.69188930519E+03  0.12700000000E+01 0.  1.
         -4   -1    0    0    0  501 -0.00000000000E+00 -0.00000000000E+00 -0.55729947876E+01  0.57158700915E+01  0.12700000000E+01 0.  1.
         25    2    1    2    0    0  0.00000000000E+00  0.00000000000E+00  0.68631514483E+03  0.69760517529E+03  0.12499801024E+03 0.  0.
    9000005    1    3    3    0    0  0.24586288760E+02  0.46210569744E+02  0.53366467515E+03  0.53622652663E+03  0.10000000000E+01 0.  0.
    9000005    1    3    3    0    0 -0.24586288760E+02 -0.46210569744E+02  0.15265046968E+03  0.16137864866E+03  0.10000000000E+01 0.  0.
<mgrwt>
<rscale>  0 0.12499801E+03</rscale>
<asrwt>0</asrwt>
<pdfrwt beam="1">  1        4 0.10645538E+00 0.12499801E+03</pdfrwt>
<pdfrwt beam="2">  1       -4 0.86846415E-03 0.12499801E+03</pdfrwt>
<totfact> 0.43215301E+03</totfact>
</mgrwt>
</event>
<event>
 5    1  0.3191162E-002  0.1249949E+03  0.7818608E-02  0.1235077E+00
          4   -1    0    0  501    0  0.00000000000E+00  0.00000000000E+00  0.84000909121E+01  0.84955533858E+01  0.12700000000E+01 0. -1.
         -4   -1    0    0    0  501 -0.00000000000E+00 -0.00000000000E+00 -0.46226316209E+03  0.46226490666E+03  0.12700000000E+01 0. -1.
         25    2    1    2    0    0  0.00000000000E+00  0.00000000000E+00 -0.45386307118E+03  0.47076046004E+03  0.12499489333E+03 0.  0.
    9000005    1    3    3    0    0 -0.45914052779E+02  0.42190921531E+02 -0.24234862687E+03  0.25024394308E+03  0.10000000000E+01 0.  0.
    9000005    1    3    3    0    0  0.45914052779E+02 -0.42190921531E+02 -0.21151444431E+03  0.22051651697E+03  0.10000000000E+01 0.  0.
<mgrwt>
<rscale>  0 0.12499489E+03</rscale>
<asrwt>0</asrwt>
<pdfrwt beam="1">  1        4 0.12997995E-02 0.12499489E+03</pdfrwt>
<pdfrwt beam="2">  1       -4 0.71124867E-01 0.12499489E+03</pdfrwt>
<totfact> 0.58213130E+03</totfact>
</mgrwt>
</event>
<event>
 5    1  0.3191162E-002  0.1249969E+03  0.7818608E-02  0.1235074E+00
         -4   -1    0    0    0  501 -0.00000000000E+00  0.00000000000E+00  0.40755959960E+03  0.40756157833E+03  0.12700000000E+01 0. -1.
          4   -1    0    0  501    0  0.00000000000E+00 -0.00000000000E+00 -0.95399317863E+01  0.96240946840E+01  0.12700000000E+01 0. -1.
         25    2    1    2    0    0  0.00000000000E+00  0.00000000000E+00  0.39801966782E+03  0.41718567301E+03  0.12499691915E+03 0.  0.
    9000005    1    3    3    0    0  0.83088918377E+01  0.59692175016E+02  0.25414176482E+03  0.26119194105E+03  0.10000000000E+01 0.  0.
    9000005    1    3    3    0    0 -0.83088918377E+01 -0.59692175016E+02  0.14387790300E+03  0.15599373197E+03  0.10000000000E+01 0.  0.
<mgrwt>
<rscale>  0 0.12499692E+03</rscale>
<asrwt>0</asrwt>
<pdfrwt beam="2">  1        4 0.14743082E-02 0.12499692E+03</pdfrwt>
<pdfrwt beam="1">  1       -4 0.62708101E-01 0.12499692E+03</pdfrwt>
<totfact> 0.62919237E+03</totfact>
</mgrwt>
</event>
<event>
 5    1  0.3191162E-002  0.1250120E+03  0.7818608E-02  0.1235051E+00
         -4   -1    0    0    0  501 -0.00000000000E+00  0.00000000000E+00  0.12451687582E+04  0.12451694058E+04  0.12700000000E+01 0.  1.
          4   -1    0    0  501    0  0.00000000000E+00 -0.00000000000E+00 -0.30085412012E+01  0.32656117588E+01  0.12700000000E+01 0.  1.
         25    2    1    2    0    0  0.00000000000E+00  0.00000000000E+00  0.12421602170E+04  0.12484350176E+04  0.12501195355E+03 0.  0.
    9000005    1    3    3    0    0  0.28691450669E+02  0.52060417237E+02  0.81382541160E+03  0.81599404836E+03  0.10000000000E+01 0.  0.
    9000005    1    3    3    0    0 -0.28691450669E+02 -0.52060417237E+02  0.42833480537E+03  0.43244096923E+03  0.10000000000E+01 0.  0.
<mgrwt>
<rscale>  0 0.12501195E+03</rscale>
<asrwt>0</asrwt>
<pdfrwt beam="2">  1        4 0.48267731E-03 0.12501195E+03</pdfrwt>
<pdfrwt beam="1">  1       -4 0.19158411E+00 0.12501195E+03</pdfrwt>
<totfact> 0.23472863E+03</totfact>
</mgrwt>
</event>
<event>
 5    1  0.3191162E-002  0.1249980E+03  0.7818608E-02  0.1235072E+00
         -4   -1    0    0    0  501 -0.00000000000E+00  0.00000000000E+00  0.11847162724E+04  0.11847169531E+04  0.12700000000E+01 0.  1.
          4   -1    0    0  501    0  0.00000000000E+00 -0.00000000000E+00 -0.31740921067E+01  0.34187367114E+01  0.12700000000E+01 0.  1.
         25    2    1    2    0    0  0.00000000000E+00  0.00000000000E+00  0.11815421803E+04  0.11881356898E+04  0.12499797446E+03 0.  0.
    9000005    1    3    3    0    0  0.31225468260E+02 -0.12842924032E+02  0.90940724606E+02  0.97011267168E+02  0.10000000000E+01 0.  0.
    9000005    1    3    3    0    0 -0.31225468260E+02  0.12842924032E+02  0.10906014557E+04  0.10911244226E+04  0.10000000000E+01 0.  0.
<mgrwt>
<rscale>  0 0.12499797E+03</rscale>
<asrwt>0</asrwt>
<pdfrwt beam="2">  1        4 0.50719209E-03 0.12499797E+03</pdfrwt>
<pdfrwt beam="1">  1       -4 0.18228326E+00 0.12499797E+03</pdfrwt>
<totfact> 0.25026471E+03</totfact>
</mgrwt>
</event>
<event>
 5    1  0.3191162E-002  0.1249954E+03  0.7818608E-02  0.1235076E+00
          4   -1    0    0  501    0  0.00000000000E+00  0.00000000000E+00  0.43681883576E+02  0.43700341563E+02  0.12700000000E+01 0.  1.
         -4   -1    0    0    0  501 -0.00000000000E+00 -0.00000000000E+00 -0.89376572371E+02  0.89385594973E+02  0.12700000000E+01 0.  1.
         25    2    1    2    0    0  0.00000000000E+00  0.00000000000E+00 -0.45694688794E+02  0.13308593654E+03  0.12499544760E+03 0.  0.
    9000005    1    3    3    0    0 -0.24394971490E+02  0.52322609467E+02  0.26215530227E+01  0.57798292671E+02  0.10000000000E+01 0.  0.
    9000005    1    3    3    0    0  0.24394971490E+02 -0.52322609467E+02 -0.48316241817E+02  0.75287643865E+02  0.10000000000E+01 0.  0.
<mgrwt>
<rscale>  0 0.12499545E+03</rscale>
<asrwt>0</asrwt>
<pdfrwt beam="1">  1        4 0.67224037E-02 0.12499545E+03</pdfrwt>
<pdfrwt beam="2">  1       -4 0.13752356E-01 0.12499545E+03</pdfrwt>
<totfact> 0.10279629E+04</totfact>
</mgrwt>
</event>
<event>
 5    1  0.3191162E-002  0.1249962E+03  0.7818608E-02  0.1235075E+00
         -4   -1    0    0    0  501 -0.00000000000E+00  0.00000000000E+00  0.11412795805E+03  0.11413502402E+03  0.12700000000E+01 0.  1.
          4   -1    0    0  501    0  0.00000000000E+00 -0.00000000000E+00 -0.34204966607E+02  0.34228535472E+02  0.12700000000E+01 0.  1.
         25    2    1    2    0    0  0.00000000000E+00  0.00000000000E+00  0.79922991442E+02  0.14836355949E+03  0.12499624484E+03 0.  0.
    9000005    1    3    3    0    0 -0.11370128881E+02 -0.26989256755E+01  0.11282528121E+03  0.11343327603E+03  0.10000000000E+01 0.  0.
    9000005    1    3    3    0    0  0.11370128881E+02  0.26989256755E+01 -0.32902289771E+02  0.34930283462E+02  0.10000000000E+01 0.  0.
<mgrwt>
<rscale>  0 0.12499624E+03</rscale>
<asrwt>0</asrwt>
<pdfrwt beam="2">  1        4 0.52646590E-02 0.12499624E+03</pdfrwt>
<pdfrwt beam="1">  1       -4 0.17560504E-01 0.12499624E+03</pdfrwt>
<totfact> 0.99639325E+03</totfact>
</mgrwt>
</event>
<event>
 5    1  0.3191162E-002  0.1249822E+03  0.7818608E-02  0.1235097E+00
          4   -1    0    0  501    0  0.00000000000E+00  0.00000000000E+00  0.23942730326E+02  0.23976389125E+02  0.12700000000E+01 0.  1.
         -4   -1    0    0    0  501 -0.00000000000E+00 -0.00000000000E+00 -0.16295255342E+03  0.16295750234E+03  0.12700000000E+01 0.  1.
         25    2    1    2    0    0  0.00000000000E+00  0.00000000000E+00 -0.13900982310E+03  0.18693389146E+03  0.12498219417E+03 0.  0.
    9000005    1    3    3    0    0  0.35106281391E+02  0.45363274379E+02 -0.10656226618E+03  0.12102394073E+03  0.10000000000E+01 0.  0.
    9000005    1    3    3    0    0 -0.35106281391E+02 -0.45363274379E+02 -0.32447556915E+02  0.65909950730E+02  0.10000000000E+01 0.  0.
<mgrwt>
<rscale>  0 0.12498219E+03</rscale>
<asrwt>0</asrwt>
<pdfrwt beam="1">  1        4 0.36864669E-02 0.12498219E+03</pdfrwt>
<pdfrwt beam="2">  1       -4 0.25072593E-01 0.12498219E+03</pdfrwt>
<totfact> 0.92420429E+03</totfact>
</mgrwt>
</event>
<event>
 5    1  0.3191162E-002  0.1250026E+03  0.7818608E-02  0.1235065E+00
         -4   -1    0    0    0  501 -0.00000000000E+00  0.00000000000E+00  0.90450872916E+02  0.90459788366E+02  0.12700000000E+01 0.  1.
          4   -1    0    0  501    0  0.00000000000E+00 -0.00000000000E+00 -0.43167851278E+02  0.43186528964E+02  0.12700000000E+01 0.  1.
         25    2    1    2    0    0  0.00000000000E+00  0.00000000000E+00  0.47283021638E+02  0.13364631733E+03  0.12500261598E+03 0.  0.
    9000005    1    3    3    0    0  0.38435212147E+02  0.29776219258E+02 -0.18335657922E+02  0.51971964727E+02  0.10000000000E+01 0.  0.
    9000005    1    3    3    0    0 -0.38435212147E+02 -0.29776219258E+02  0.65618679560E+02  0.81674352604E+02  0.10000000000E+01 0.  0.
<mgrwt>
<rscale>  0 0.12500262E+03</rscale>
<asrwt>0</asrwt>
<pdfrwt beam="2">  1        4 0.66433305E-02 0.12500262E+03</pdfrwt>
<pdfrwt beam="1">  1       -4 0.13917641E-01 0.12500262E+03</pdfrwt>
<totfact> 0.10266077E+04</totfact>
</mgrwt>
</event>
<event>
 5    1  0.3191162E-002  0.1249980E+03  0.7818608E-02  0.1235072E+00
          4   -1    0    0  501    0  0.00000000000E+00  0.00000000000E+00  0.12042507908E+02  0.12109289686E+02  0.12700000000E+01 0. -1.
         -4   -1    0    0    0  501 -0.00000000000E+00 -0.00000000000E+00 -0.32339624548E+03  0.32339873916E+03  0.12700000000E+01 0. -1.
         25    2    1    2    0    0  0.00000000000E+00  0.00000000000E+00 -0.31135373757E+03  0.33550802885E+03  0.12499795006E+03 0.  0.
    9000005    1    3    3    0    0  0.31137073836E+02 -0.53927275426E+02 -0.16974054029E+03  0.18080519743E+03  0.10000000000E+01 0.  0.
    9000005    1    3    3    0    0 -0.31137073836E+02  0.53927275426E+02 -0.14161319729E+03  0.15470283141E+03  0.10000000000E+01 0.  0.
<mgrwt>
<rscale>  0 0.12499795E+03</rscale>
<asrwt>0</asrwt>
<pdfrwt beam="1">  1        4 0.18580227E-02 0.12499795E+03</pdfrwt>
<pdfrwt beam="2">  1       -4 0.49758591E-01 0.12499795E+03</pdfrwt>
<totfact> 0.71352079E+03</totfact>
</mgrwt>
</event>
<event>
 5    1  0.3191162E-002  0.1249997E+03  0.7818608E-02  0.1235070E+00
          4   -1    0    0  501    0  0.00000000000E+00  0.00000000000E+00  0.21411575256E+02  0.21449206394E+02  0.12700000000E+01 0. -1.
         -4   -1    0    0    0  501 -0.00000000000E+00 -0.00000000000E+00 -0.18223554844E+03  0.18223997370E+03  0.12700000000E+01 0. -1.
         25    2    1    2    0    0  0.00000000000E+00  0.00000000000E+00 -0.16082397318E+03  0.20368918009E+03  0.12499972695E+03 0.  0.
    9000005    1    3    3    0    0 -0.24713922864E+02 -0.26753616324E+02  0.23363397683E+01  0.36510169176E+02  0.10000000000E+01 0.  0.
    9000005    1    3    3    0    0  0.24713922864E+02  0.26753616324E+02 -0.16316031295E+03  0.16717901092E+03  0.10000000000E+01 0.  0.
<mgrwt>
<rscale>  0 0.12499973E+03</rscale>
<asrwt>0</asrwt>
<pdfrwt beam="1">  1        4 0.32973237E-02 0.12499973E+03</pdfrwt>
<pdfrwt beam="2">  1       -4 0.28039472E-01 0.12499973E+03</pdfrwt>
<totfact> 0.89517552E+03</totfact>
</mgrwt>
</event>
<event>
 5    1  0.3191162E-002  0.1250015E+03  0.7818608E-02  0.1235067E+00
          4   -1    0    0  501    0  0.00000000000E+00  0.00000000000E+00  0.30259776645E+02  0.30286415810E+02  0.12700000000E+01 0. -1.
         -4   -1    0    0    0  501 -0.00000000000E+00 -0.00000000000E+00 -0.12900700362E+03  0.12901325468E+03  0.12700000000E+01 0. -1.
         25    2    1    2    0    0  0.00000000000E+00  0.00000000000E+00 -0.98747226975E+02  0.15929967049E+03  0.12500148072E+03 0.  0.
    9000005    1    3    3    0    0 -0.53686764580E+02 -0.31190897904E+01 -0.89941129199E+02  0.10479696624E+03  0.10000000000E+01 0.  0.
    9000005    1    3    3    0    0  0.53686764580E+02  0.31190897904E+01 -0.88060977762E+01  0.54502704247E+02  0.10000000000E+01 0.  0.
<mgrwt>
<rscale>  0 0.12500148E+03</rscale>
<asrwt>0</asrwt>
<pdfrwt beam="1">  1        4 0.46578803E-02 0.12500148E+03</pdfrwt>
<pdfrwt beam="2">  1       -4 0.19849761E-01 0.12500148E+03</pdfrwt>
<totfact> 0.97474729E+03</totfact>
</mgrwt>
</event>
<event>
 5    1  0.3191162E-002  0.1249983E+03  0.7818608E-02  0.1235072E+00
         -4   -1    0    0    0  501 -0.00000000000E+00  0.00000000000E+00  0.67970364555E+03  0.67970483202E+03  0.12700000000E+01 0. -1.
          4   -1    0    0  501    0  0.00000000000E+00 -0.00000000000E+00 -0.56754672981E+01  0.58158257412E+01  0.12700000000E+01 0. -1.
         25    2    1    2    0    0  0.00000000000E+00  0.00000000000E+00  0.67402817825E+03  0.68552065776E+03  0.12499834856E+03 0.  0.
    9000005    1    3    3    0    0 -0.49651821097E+02 -0.66949823110E+01  0.13217794553E+03  0.14135818127E+03  0.10000000000E+01 0.  0.
    9000005    1    3    3    0    0  0.49651821097E+02  0.66949823110E+01  0.54185023272E+03  0.54416247650E+03  0.10000000000E+01 0.  0.
<mgrwt>
<rscale>  0 0.12499835E+03</rscale>
<asrwt>0</asrwt>
<pdfrwt beam="2">  1        4 0.88403654E-03 0.12499835E+03</pdfrwt>
<pdfrwt beam="1">  1       -4 0.10458072E+00 0.12499835E+03</pdfrwt>
<totfact> 0.43863710E+03</totfact>
</mgrwt>
</event>
<event>
 5    1  0.3191162E-002  0.1249965E+03  0.7818608E-02  0.1235075E+00
         -4   -1    0    0    0  501 -0.00000000000E+00  0.00000000000E+00  0.86792140786E+02  0.86801432029E+02  0.12700000000E+01 0. -1.
          4   -1    0    0  501    0  0.00000000000E+00 -0.00000000000E+00 -0.44983761423E+02  0.45001685432E+02  0.12700000000E+01 0. -1.
         25    2    1    2    0    0  0.00000000000E+00  0.00000000000E+00  0.41808379364E+02  0.13180311746E+03  0.12499648470E+03 0.  0.
    9000005    1    3    3    0    0  0.54939581958E+02  0.16807028025E+02 -0.50147340719E+01  0.57679991458E+02  0.10000000000E+01 0.  0.
    9000005    1    3    3    0    0 -0.54939581958E+02 -0.16807028025E+02  0.46823113436E+02  0.74123126003E+02  0.10000000000E+01 0.  0.
<mgrwt>
<rscale>  0 0.12499648E+03</rscale>
<asrwt>0</asrwt>
<pdfrwt beam="2">  1        4 0.69226722E-02 0.12499648E+03</pdfrwt>
<pdfrwt beam="1">  1       -4 0.13354731E-01 0.12499648E+03</pdfrwt>
<totfact> 0.10306720E+04</totfact>
</mgrwt>
</event>
<event>
 5    1  0.3191162E-002  0.1249971E+03  0.7818608E-02  0.1235074E+00
         -4   -1    0    0    0  501 -0.00000000000E+00  0.00000000000E+00  0.35688367805E+02  0.35710957654E+02  0.12700000000E+01 0. -1.
          4   -1    0    0  501    0  0.00000000000E+00 -0.00000000000E+00 -0.10938842033E+03  0.10939579244E+03  0.12700000000E+01 0. -1.
         25    2    1    2    0    0  0.00000000000E+00  0.00000000000E+00 -0.73700052527E+02  0.14510675009E+03  0.12499708468E+03 0.  0.
    9000005    1    3    3    0    0  0.31749823106E+02 -0.14879592284E+02  0.23198103069E+02  0.42054791876E+02  0.10000000000E+01 0.  0.
    9000005    1    3    3    0    0 -0.31749823106E+02  0.14879592284E+02 -0.96898155596E+02  0.10305195821E+03  0.10000000000E+01 0.  0.
<mgrwt>
<rscale>  0 0.12499708E+03</rscale>
<asrwt>0</asrwt>
<pdfrwt beam="2">  1        4 0.16831292E-01 0.12499708E+03</pdfrwt>
<pdfrwt beam="1">  1       -4 0.54928229E-02 0.12499708E+03</pdfrwt>
<totfact> 0.10029478E+04</totfact>
</mgrwt>
</event>
<event>
 5    1  0.3191162E-002  0.1250021E+03  0.7818608E-02  0.1235066E+00
         -4   -1    0    0    0  501 -0.00000000000E+00  0.00000000000E+00  0.97800083912E+01  0.98621226990E+01  0.12700000000E+01 0.  1.
          4   -1    0    0  501    0  0.00000000000E+00 -0.00000000000E+00 -0.39767210133E+03  0.39767412925E+03  0.12700000000E+01 0.  1.
         25    2    1    2    0    0  0.00000000000E+00  0.00000000000E+00 -0.38789209294E+03  0.40753625195E+03  0.12500208354E+03 0.  0.
    9000005    1    3    3    0    0 -0.51055322279E+02  0.75550110680E+01 -0.30882743016E+03  0.31311196998E+03  0.10000000000E+01 0.  0.
    9000005    1    3    3    0    0  0.51055322279E+02 -0.75550110680E+01 -0.79064662771E+02  0.94424281964E+02  0.10000000000E+01 0.  0.
<mgrwt>
<rscale>  0 0.12500208E+03</rscale>
<asrwt>0</asrwt>
<pdfrwt beam="2">  1        4 0.61186783E-01 0.12500208E+03</pdfrwt>
<pdfrwt beam="1">  1       -4 0.15110895E-02 0.12500208E+03</pdfrwt>
<totfact> 0.63823434E+03</totfact>
</mgrwt>
</event>
<event>
 5    1  0.3191162E-002  0.1250113E+03  0.7818608E-02  0.1235052E+00
         -4   -1    0    0    0  501 -0.00000000000E+00  0.00000000000E+00  0.82299424883E+02  0.82309223275E+02  0.12700000000E+01 0. -1.
          4   -1    0    0  501    0  0.00000000000E+00 -0.00000000000E+00 -0.47451311306E+02  0.47468303579E+02  0.12700000000E+01 0. -1.
         25    2    1    2    0    0  0.00000000000E+00  0.00000000000E+00  0.34848113577E+02  0.12977752685E+03  0.12501126132E+03 0.  0.
    9000005    1    3    3    0    0 -0.12318540590E+02  0.41360436936E+02 -0.29504800697E+02  0.52287335465E+02  0.10000000000E+01 0.  0.
    9000005    1    3    3    0    0  0.12318540590E+02 -0.41360436936E+02  0.64352914274E+02  0.77490191389E+02  0.10000000000E+01 0.  0.
<mgrwt>
<rscale>  0 0.12501126E+03</rscale>
<asrwt>0</asrwt>
<pdfrwt beam="2">  1        4 0.73022626E-02 0.12501126E+03</pdfrwt>
<pdfrwt beam="1">  1       -4 0.12663511E-01 0.12501126E+03</pdfrwt>
<totfact> 0.10346639E+04</totfact>
</mgrwt>
</event>
<event>
 5    1  0.3191162E-002  0.1250015E+03  0.7818608E-02  0.1235067E+00
         -4   -1    0    0    0  501 -0.00000000000E+00  0.00000000000E+00  0.33552928845E+03  0.33553169196E+03  0.12700000000E+01 0.  1.
          4   -1    0    0  501    0  0.00000000000E+00 -0.00000000000E+00 -0.11605246953E+02  0.11674530263E+02  0.12700000000E+01 0.  1.
         25    2    1    2    0    0  0.00000000000E+00  0.00000000000E+00  0.32392404150E+03  0.34720622222E+03  0.12500150435E+03 0.  0.
    9000005    1    3    3    0    0  0.41112513977E+02 -0.45967246884E+02  0.19003071432E+03  0.19978963681E+03  0.10000000000E+01 0.  0.
    9000005    1    3    3    0    0 -0.41112513977E+02  0.45967246884E+02  0.13389332718E+03  0.14741658541E+03  0.10000000000E+01 0.  0.
<mgrwt>
<rscale>  0 0.12500150E+03</rscale>
<asrwt>0</asrwt>
<pdfrwt beam="2">  1        4 0.17909370E-02 0.12500150E+03</pdfrwt>
<pdfrwt beam="1">  1       -4 0.51625403E-01 0.12500150E+03</pdfrwt>
<totfact> 0.70030670E+03</totfact>
</mgrwt>
</event>
<event>
 5    1  0.3191162E-002  0.1250025E+03  0.7818608E-02  0.1235065E+00
          4   -1    0    0  501    0  0.00000000000E+00  0.00000000000E+00  0.48615388792E+01  0.50246850921E+01  0.12700000000E+01 0. -1.
         -4   -1    0    0    0  501 -0.00000000000E+00 -0.00000000000E+00 -0.79010881663E+03  0.79010983731E+03  0.12700000000E+01 0. -1.
         25    2    1    2    0    0  0.00000000000E+00  0.00000000000E+00 -0.78524727775E+03  0.79513452240E+03  0.12500248599E+03 0.  0.
    9000005    1    3    3    0    0 -0.11746969175E+02  0.60756103619E+02 -0.44811721566E+03  0.45237079302E+03  0.10000000000E+01 0.  0.
    9000005    1    3    3    0    0  0.11746969175E+02 -0.60756103619E+02 -0.33713006209E+03  0.34276372938E+03  0.10000000000E+01 0.  0.
<mgrwt>
<rscale>  0 0.12500249E+03</rscale>
<asrwt>0</asrwt>
<pdfrwt beam="1">  1        4 0.76055791E-03 0.12500249E+03</pdfrwt>
<pdfrwt beam="2">  1       -4 0.12156773E+00 0.12500249E+03</pdfrwt>
<totfact> 0.38480796E+03</totfact>
</mgrwt>
</event>
<event>
 5    1  0.3191162E-002  0.1249996E+03  0.7818608E-02  0.1235070E+00
         -4   -1    0    0    0  501 -0.00000000000E+00  0.00000000000E+00  0.11939420492E+02  0.12006775657E+02  0.12700000000E+01 0. -1.
          4   -1    0    0  501    0  0.00000000000E+00 -0.00000000000E+00 -0.32618170866E+03  0.32618418104E+03  0.12700000000E+01 0. -1.
         25    2    1    2    0    0  0.00000000000E+00  0.00000000000E+00 -0.31424228817E+03  0.33819095670E+03  0.12499963009E+03 0.  0.
    9000005    1    3    3    0    0  0.55217197289E+02  0.26175711523E+02 -0.19251303883E+03  0.20198112998E+03  0.10000000000E+01 0.  0.
    9000005    1    3    3    0    0 -0.55217197289E+02 -0.26175711523E+02 -0.12172924934E+03  0.13620982672E+03  0.10000000000E+01 0.  0.
<mgrwt>
<rscale>  0 0.12499963E+03</rscale>
<asrwt>0</asrwt>
<pdfrwt beam="2">  1        4 0.50187166E-01 0.12499963E+03</pdfrwt>
<pdfrwt beam="1">  1       -4 0.18422055E-02 0.12499963E+03</pdfrwt>
<totfact> 0.71044121E+03</totfact>
</mgrwt>
</event>
<event>
 5    1  0.3191162E-002  0.1249979E+03  0.7818608E-02  0.1235073E+00
         -4   -1    0    0    0  501 -0.00000000000E+00  0.00000000000E+00  0.40859964357E+02  0.40879696516E+02  0.12700000000E+01 0.  1.
          4   -1    0    0  501    0  0.00000000000E+00 -0.00000000000E+00 -0.95550666132E+02  0.95559105784E+02  0.12700000000E+01 0.  1.
         25    2    1    2    0    0  0.00000000000E+00  0.00000000000E+00 -0.54690701775E+02  0.13643880230E+03  0.12499789563E+03 0.  0.
    9000005    1    3    3    0    0  0.39648955614E+02 -0.47233996876E+02 -0.38370782468E+02  0.72638881388E+02  0.10000000000E+01 0.  0.
    9000005    1    3    3    0    0 -0.39648955614E+02  0.47233996876E+02 -0.16319919307E+02  0.63799920911E+02  0.10000000000E+01 0.  0.
<mgrwt>
<rscale>  0 0.12499790E+03</rscale>
<asrwt>0</asrwt>
<pdfrwt beam="2">  1        4 0.14702269E-01 0.12499790E+03</pdfrwt>
<pdfrwt beam="1">  1       -4 0.62883155E-02 0.12499790E+03</pdfrwt>
<totfact> 0.10208317E+04</totfact>
</mgrwt>
</event>
<event>
 5    1  0.3191162E-002  0.1250074E+03  0.7818608E-02  0.1235058E+00
         -4   -1    0    0    0  501 -0.00000000000E+00  0.00000000000E+00  0.34501233785E+03  0.34501467529E+03  0.12700000000E+01 0.  1.
          4   -1    0    0  501    0  0.00000000000E+00 -0.00000000000E+00 -0.11285413369E+02  0.11356648049E+02  0.12700000000E+01 0.  1.
         25    2    1    2    0    0  0.00000000000E+00  0.00000000000E+00  0.33372692448E+03  0.35637132334E+03  0.12500743969E+03 0.  0.
    9000005    1    3    3    0    0 -0.46989738936E+02 -0.13523168859E+02  0.55908938030E+02  0.74281363834E+02  0.10000000000E+01 0.  0.
    9000005    1    3    3    0    0  0.46989738936E+02  0.13523168859E+02  0.27781798645E+03  0.28208995951E+03  0.10000000000E+01 0.  0.
<mgrwt>
<rscale>  0 0.12500744E+03</rscale>
<asrwt>0</asrwt>
<pdfrwt beam="2">  1        4 0.17418771E-02 0.12500744E+03</pdfrwt>
<pdfrwt beam="1">  1       -4 0.53084472E-01 0.12500744E+03</pdfrwt>
<totfact> 0.69017917E+03</totfact>
</mgrwt>
</event>
<event>
 5    1  0.3191162E-002  0.1250030E+03  0.7818608E-02  0.1235065E+00
         -4   -1    0    0    0  501 -0.00000000000E+00  0.00000000000E+00  0.18999047572E+03  0.18999472036E+03  0.12700000000E+01 0. -1.
          4   -1    0    0  501    0  0.00000000000E+00 -0.00000000000E+00 -0.20537133544E+02  0.20576363970E+02  0.12700000000E+01 0. -1.
         25    2    1    2    0    0  0.00000000000E+00  0.00000000000E+00  0.16945334218E+03  0.21057108433E+03  0.12500298549E+03 0.  0.
    9000005    1    3    3    0    0  0.36582309515E+02  0.13536316601E+02  0.24785567417E+01  0.39097832166E+02  0.10000000000E+01 0.  0.
    9000005    1    3    3    0    0 -0.36582309515E+02 -0.13536316601E+02  0.16697478544E+03  0.17147325216E+03  0.10000000000E+01 0.  0.
<mgrwt>
<rscale>  0 0.12500299E+03</rscale>
<asrwt>0</asrwt>
<pdfrwt beam="2">  1        4 0.31629032E-02 0.12500299E+03</pdfrwt>
<pdfrwt beam="1">  1       -4 0.29232648E-01 0.12500299E+03</pdfrwt>
<totfact> 0.88376801E+03</totfact>
</mgrwt>
</event>
<event>
 5    1  0.3191162E-002  0.1249954E+03  0.7818608E-02  0.1235076E+00
         -4   -1    0    0    0  501 -0.00000000000E+00  0.00000000000E+00  0.23391827518E+03  0.23392172273E+03  0.12700000000E+01 0.  1.
          4   -1    0    0  501    0  0.00000000000E+00 -0.00000000000E+00 -0.16670265368E+02  0.16718571932E+02  0.12700000000E+01 0.  1.
         25    2    1    2    0    0  0.00000000000E+00  0.00000000000E+00  0.21724800981E+03  0.25064029466E+03  0.12499543807E+03 0.  0.
    9000005    1    3    3    0    0 -0.94785171083E+01 -0.21895873882E+02 -0.71869882878E+01  0.24938411743E+02  0.10000000000E+01 0.  0.
    9000005    1    3    3    0    0  0.94785171083E+01  0.21895873882E+02  0.22443499810E+03  0.22570188291E+03  0.10000000000E+01 0.  0.
<mgrwt>
<rscale>  0 0.12499544E+03</rscale>
<asrwt>0</asrwt>
<pdfrwt beam="2">  1        4 0.25686373E-02 0.12499544E+03</pdfrwt>
<pdfrwt beam="1">  1       -4 0.35991408E-01 0.12499544E+03</pdfrwt>
<totfact> 0.82246130E+03</totfact>
</mgrwt>
</event>
<event>
 5    1  0.3191162E-002  0.1249975E+03  0.7818608E-02  0.1235073E+00
          4   -1    0    0  501    0  0.00000000000E+00  0.00000000000E+00  0.72684081805E+02  0.72695176235E+02  0.12700000000E+01 0. -1.
         -4   -1    0    0    0  501 -0.00000000000E+00 -0.00000000000E+00 -0.53717999404E+02  0.53733009966E+02  0.12700000000E+01 0. -1.
         25    2    1    2    0    0  0.00000000000E+00  0.00000000000E+00  0.18966082400E+02  0.12642818620E+03  0.12499749591E+03 0.  0.
    9000005    1    3    3    0    0 -0.28393397191E+02  0.37631642333E+02 -0.32008036486E+02  0.56989822849E+02  0.10000000000E+01 0.  0.
    9000005    1    3    3    0    0  0.28393397191E+02 -0.37631642333E+02  0.50974118886E+02  0.69438363351E+02  0.10000000000E+01 0.  0.
<mgrwt>
<rscale>  0 0.12499750E+03</rscale>
<asrwt>0</asrwt>
<pdfrwt beam="1">  1        4 0.11184175E-01 0.12499750E+03</pdfrwt>
<pdfrwt beam="2">  1       -4 0.82663156E-02 0.12499750E+03</pdfrwt>
<totfact> 0.10422184E+04</totfact>
</mgrwt>
</event>
<event>
 5    1  0.3191162E-002  0.1250011E+03  0.7818608E-02  0.1235068E+00
         -4   -1    0    0    0  501 -0.00000000000E+00  0.00000000000E+00  0.12818715666E+02  0.12881473958E+02  0.12700000000E+01 0. -1.
          4   -1    0    0  501    0  0.00000000000E+00 -0.00000000000E+00 -0.30392737401E+03  0.30393002743E+03  0.12700000000E+01 0. -1.
         25    2    1    2    0    0  0.00000000000E+00  0.00000000000E+00 -0.29110865834E+03  0.31681150138E+03  0.12500110578E+03 0.  0.
    9000005    1    3    3    0    0  0.31042713941E+02  0.62146271894E+01 -0.28211138682E+03  0.28388396618E+03  0.10000000000E+01 0.  0.
    9000005    1    3    3    0    0 -0.31042713941E+02 -0.62146271894E+01 -0.89972715243E+01  0.32927535207E+02  0.10000000000E+01 0.  0.
<mgrwt>
<rscale>  0 0.12500111E+03</rscale>
<asrwt>0</asrwt>
<pdfrwt beam="2">  1        4 0.46763084E-01 0.12500111E+03</pdfrwt>
<pdfrwt beam="1">  1       -4 0.19771420E-02 0.12500111E+03</pdfrwt>
<totfact> 0.73535165E+03</totfact>
</mgrwt>
</event>
<event>
 5    1  0.3191162E-002  0.1249970E+03  0.7818608E-02  0.1235074E+00
         -4   -1    0    0    0  501 -0.00000000000E+00  0.00000000000E+00  0.50343030086E+03  0.50343190277E+03  0.12700000000E+01 0.  1.
          4   -1    0    0  501    0  0.00000000000E+00 -0.00000000000E+00 -0.77052992293E+01  0.78092596456E+01  0.12700000000E+01 0.  1.
         25    2    1    2    0    0  0.00000000000E+00  0.00000000000E+00  0.49572500163E+03  0.51124116242E+03  0.12499699558E+03 0.  0.
    9000005    1    3    3    0    0  0.60659074758E+02 -0.13489343752E+02  0.27486178905E+03  0.28180044149E+03  0.10000000000E+01 0.  0.
    9000005    1    3    3    0    0 -0.60659074758E+02  0.13489343752E+02  0.22086321259E+03  0.22944072093E+03  0.10000000000E+01 0.  0.
<mgrwt>
<rscale>  0 0.12499700E+03</rscale>
<asrwt>0</asrwt>
<pdfrwt beam="2">  1        4 0.11935507E-02 0.12499700E+03</pdfrwt>
<pdfrwt beam="1">  1       -4 0.77458946E-01 0.12499700E+03</pdfrwt>
<totfact> 0.55006245E+03</totfact>
</mgrwt>
</event>
<event>
 5    1  0.3191162E-002  0.1250298E+03  0.7818608E-02  0.1235023E+00
         -4   -1    0    0    0  501 -0.00000000000E+00  0.00000000000E+00  0.12575691651E+03  0.12576332911E+03  0.12700000000E+01 0.  1.
          4   -1    0    0  501    0  0.00000000000E+00 -0.00000000000E+00 -0.31056543164E+02  0.31082499470E+02  0.12700000000E+01 0.  1.
         25    2    1    2    0    0  0.00000000000E+00  0.00000000000E+00  0.94700373345E+02  0.15684582858E+03  0.12502980937E+03 0.  0.
    9000005    1    3    3    0    0 -0.19533199832E+02  0.48249983220E+02  0.39393307049E+01  0.52212307963E+02  0.10000000000E+01 0.  0.
    9000005    1    3    3    0    0  0.19533199832E+02 -0.48249983220E+02  0.90761042640E+02  0.10463352062E+03  0.10000000000E+01 0.  0.
<mgrwt>
<rscale>  0 0.12502981E+03</rscale>
<asrwt>0</asrwt>
<pdfrwt beam="2">  1        4 0.47804197E-02 0.12502981E+03</pdfrwt>
<pdfrwt beam="1">  1       -4 0.19349708E-01 0.12502981E+03</pdfrwt>
<totfact> 0.97888727E+03</totfact>
</mgrwt>
</event>
<event>
 5    1  0.3191162E-002  0.1249995E+03  0.7818608E-02  0.1235070E+00
         -4   -1    0    0    0  501 -0.00000000000E+00  0.00000000000E+00  0.14535432792E+03  0.14535987598E+03  0.12700000000E+01 0. -1.
          4   -1    0    0  501    0  0.00000000000E+00 -0.00000000000E+00 -0.26852702783E+02  0.26882718367E+02  0.12700000000E+01 0. -1.
         25    2    1    2    0    0  0.00000000000E+00  0.00000000000E+00  0.11850162514E+03  0.17224259435E+03  0.12499950459E+03 0.  0.
    9000005    1    3    3    0    0 -0.56321914954E+02  0.27039098040E+02  0.61174077006E+02  0.87444488817E+02  0.10000000000E+01 0.  0.
    9000005    1    3    3    0    0  0.56321914954E+02 -0.27039098040E+02  0.57327548130E+02  0.84798105530E+02  0.10000000000E+01 0.  0.
<mgrwt>
<rscale>  0 0.12499950E+03</rscale>
<asrwt>0</asrwt>
<pdfrwt beam="2">  1        4 0.41339208E-02 0.12499950E+03</pdfrwt>
<pdfrwt beam="1">  1       -4 0.22364939E-01 0.12499950E+03</pdfrwt>
<totfact> 0.95033349E+03</totfact>
</mgrwt>
</event>
<event>
 5    1  0.3191162E-002  0.1250014E+03  0.7818608E-02  0.1235067E+00
          4   -1    0    0  501    0  0.00000000000E+00  0.00000000000E+00  0.93190973275E+02  0.93199626609E+02  0.12700000000E+01 0.  1.
         -4   -1    0    0    0  501 -0.00000000000E+00 -0.00000000000E+00 -0.41897353585E+02  0.41916597398E+02  0.12700000000E+01 0.  1.
         25    2    1    2    0    0  0.00000000000E+00  0.00000000000E+00  0.51293619691E+02  0.13511622401E+03  0.12500143427E+03 0.  0.
    9000005    1    3    3    0    0  0.50900878850E+02 -0.33338862821E+02  0.10247609862E+02  0.61712176674E+02  0.10000000000E+01 0.  0.
    9000005    1    3    3    0    0 -0.50900878850E+02  0.33338862821E+02  0.41046009829E+02  0.73404047333E+02  0.10000000000E+01 0.  0.
<mgrwt>
<rscale>  0 0.12500143E+03</rscale>
<asrwt>0</asrwt>
<pdfrwt beam="1">  1        4 0.14339219E-01 0.12500143E+03</pdfrwt>
<pdfrwt beam="2">  1       -4 0.64478927E-02 0.12500143E+03</pdfrwt>
<totfact> 0.10235291E+04</totfact>
</mgrwt>
</event>
<event>
 5    1  0.3191162E-002  0.1249987E+03  0.7818608E-02  0.1235071E+00
         -4   -1    0    0    0  501 -0.00000000000E+00  0.00000000000E+00  0.25132277885E+03  0.25132598765E+03  0.12700000000E+01 0. -1.
          4   -1    0    0  501    0  0.00000000000E+00 -0.00000000000E+00 -0.15513176432E+02  0.15565074462E+02  0.12700000000E+01 0. -1.
         25    2    1    2    0    0  0.00000000000E+00  0.00000000000E+00  0.23580960241E+03  0.26689106211E+03  0.12499868176E+03 0.  0.
    9000005    1    3    3    0    0  0.18219587975E+02  0.29884677986E+02  0.22844130826E+03  0.23110923539E+03  0.10000000000E+01 0.  0.
    9000005    1    3    3    0    0 -0.18219587975E+02 -0.29884677986E+02  0.73682941519E+01  0.35781826714E+02  0.10000000000E+01 0.  0.
<mgrwt>
<rscale>  0 0.12499868E+03</rscale>
<asrwt>0</asrwt>
<pdfrwt beam="2">  1        4 0.23908818E-02 0.12499868E+03</pdfrwt>
<pdfrwt beam="1">  1       -4 0.38669278E-01 0.12499868E+03</pdfrwt>
<totfact> 0.79950967E+03</totfact>
</mgrwt>
</event>
<event>
 5    1  0.3191162E-002  0.1249997E+03  0.7818608E-02  0.1235070E+00
         -4   -1    0    0    0  501 -0.00000000000E+00  0.00000000000E+00  0.98890971657E+03  0.98891053206E+03  0.12700000000E+01 0.  1.
          4   -1    0    0  501    0  0.00000000000E+00 -0.00000000000E+00 -0.38471168142E+01  0.40513217327E+01  0.12700000000E+01 0.  1.
         25    2    1    2    0    0  0.00000000000E+00  0.00000000000E+00  0.98506259976E+03  0.99296185380E+03  0.12499967063E+03 0.  0.
    9000005    1    3    3    0    0  0.13947129406E+02 -0.46401586010E+01  0.97502136902E+03  0.97513266971E+03  0.10000000000E+01 0.  0.
    9000005    1    3    3    0    0 -0.13947129406E+02  0.46401586010E+01  0.10041230737E+02  0.17829184088E+02  0.10000000000E+01 0.  0.
<mgrwt>
<rscale>  0 0.12499967E+03</rscale>
<asrwt>0</asrwt>
<pdfrwt beam="2">  1        4 0.60763402E-03 0.12499967E+03</pdfrwt>
<pdfrwt beam="1">  1       -4 0.15215595E+00 0.12499967E+03</pdfrwt>
<totfact> 0.30838183E+03</totfact>
</mgrwt>
</event>
<event>
 5    1  0.3191162E-002  0.1249956E+03  0.7818608E-02  0.1235076E+00
         -4   -1    0    0    0  501 -0.00000000000E+00  0.00000000000E+00  0.69921115767E+02  0.69932648528E+02  0.12700000000E+01 0. -1.
          4   -1    0    0  501    0  0.00000000000E+00 -0.00000000000E+00 -0.55839275847E+02  0.55853716323E+02  0.12700000000E+01 0. -1.
         25    2    1    2    0    0  0.00000000000E+00  0.00000000000E+00  0.14081839920E+02  0.12578636485E+03  0.12499564539E+03 0.  0.
    9000005    1    3    3    0    0  0.40834383770E+02 -0.21115098033E+02  0.49636971106E+02  0.67661829442E+02  0.10000000000E+01 0.  0.
    9000005    1    3    3    0    0 -0.40834383770E+02  0.21115098033E+02 -0.35555131186E+02  0.58124535409E+02  0.10000000000E+01 0.  0.
<mgrwt>
<rscale>  0 0.12499565E+03</rscale>
<asrwt>0</asrwt>
<pdfrwt beam="2">  1        4 0.85926558E-02 0.12499565E+03</pdfrwt>
<pdfrwt beam="1">  1       -4 0.10759093E-01 0.12499565E+03</pdfrwt>
<totfact> 0.10436670E+04</totfact>
</mgrwt>
</event>
<event>
 5    1  0.3191162E-002  0.1249851E+03  0.7818608E-02  0.1235093E+00
         -4   -1    0    0    0  501 -0.00000000000E+00  0.00000000000E+00  0.31768493334E+02  0.31793868413E+02  0.12700000000E+01 0.  1.
          4   -1    0    0  501    0  0.00000000000E+00 -0.00000000000E+00 -0.12285283516E+03  0.12285939934E+03  0.12700000000E+01 0.  1.
         25    2    1    2    0    0  0.00000000000E+00  0.00000000000E+00 -0.91084341828E+02  0.15465326776E+03  0.12498510272E+03 0.  0.
    9000005    1    3    3    0    0 -0.14930376856E+02  0.29276770054E+01 -0.12053182554E+03  0.12149242122E+03  0.10000000000E+01 0.  0.
    9000005    1    3    3    0    0  0.14930376856E+02 -0.29276770054E+01  0.29447483716E+02  0.33160846535E+02  0.10000000000E+01 0.  0.
<mgrwt>
<rscale>  0 0.12498510E+03</rscale>
<asrwt>0</asrwt>
<pdfrwt beam="2">  1        4 0.18902893E-01 0.12498510E+03</pdfrwt>
<pdfrwt beam="1">  1       -4 0.48899175E-02 0.12498510E+03</pdfrwt>
<totfact> 0.98416581E+03</totfact>
</mgrwt>
</event>
<event>
 5    1  0.3191162E-002  0.1249778E+03  0.7818608E-02  0.1235104E+00
          4   -1    0    0  501    0  0.00000000000E+00  0.00000000000E+00  0.96590493295E+02  0.96598842099E+02  0.12700000000E+01 0.  1.
         -4   -1    0    0    0  501 -0.00000000000E+00 -0.00000000000E+00 -0.40406908412E+02  0.40426861706E+02  0.12700000000E+01 0.  1.
         25    2    1    2    0    0  0.00000000000E+00  0.00000000000E+00  0.56183584883E+02  0.13702570381E+03  0.12497779120E+03 0.  0.
    9000005    1    3    3    0    0 -0.51103801775E+02 -0.29486902918E+02  0.50635717563E+02  0.77756362394E+02  0.10000000000E+01 0.  0.
    9000005    1    3    3    0    0  0.51103801775E+02  0.29486902918E+02  0.55478673201E+01  0.59269341412E+02  0.10000000000E+01 0.  0.
<mgrwt>
<rscale>  0 0.12497779E+03</rscale>
<asrwt>0</asrwt>
<pdfrwt beam="1">  1        4 0.14862253E-01 0.12497779E+03</pdfrwt>
<pdfrwt beam="2">  1       -4 0.62186245E-02 0.12497779E+03</pdfrwt>
<totfact> 0.10200655E+04</totfact>
</mgrwt>
</event>
<event>
 5    1  0.3191162E-002  0.1250015E+03  0.7818608E-02  0.1235067E+00
          4   -1    0    0  501    0  0.00000000000E+00  0.00000000000E+00  0.29101606663E+02  0.29129305011E+02  0.12700000000E+01 0.  1.
         -4   -1    0    0    0  501 -0.00000000000E+00 -0.00000000000E+00 -0.13413673570E+03  0.13414274772E+03  0.12700000000E+01 0.  1.
         25    2    1    2    0    0  0.00000000000E+00  0.00000000000E+00 -0.10503512904E+03  0.16327205273E+03  0.12500153947E+03 0.  0.
    9000005    1    3    3    0    0  0.69766456312E+01 -0.56114860353E+02 -0.17767928401E+02  0.59281113488E+02  0.10000000000E+01 0.  0.
    9000005    1    3    3    0    0 -0.69766456312E+01  0.56114860353E+02 -0.87267200638E+02  0.10399093924E+03  0.10000000000E+01 0.  0.
<mgrwt>
<rscale>  0 0.12500154E+03</rscale>
<asrwt>0</asrwt>
<pdfrwt beam="1">  1        4 0.44797635E-02 0.12500154E+03</pdfrwt>
<pdfrwt beam="2">  1       -4 0.20639014E-01 0.12500154E+03</pdfrwt>
<totfact> 0.96712297E+03</totfact>
</mgrwt>
</event>
<event>
 5    1  0.3191162E-002  0.1249995E+03  0.7818608E-02  0.1235070E+00
         -4   -1    0    0    0  501 -0.00000000000E+00  0.00000000000E+00  0.10436318308E+02  0.10513307749E+02  0.12700000000E+01 0.  1.
          4   -1    0    0  501    0  0.00000000000E+00 -0.00000000000E+00 -0.37283738922E+03  0.37283955222E+03  0.12700000000E+01 0.  1.
         25    2    1    2    0    0  0.00000000000E+00  0.00000000000E+00 -0.36240107091E+03  0.38335285997E+03  0.12499951619E+03 0.  0.
    9000005    1    3    3    0    0  0.19251737310E+02  0.19775806092E+02 -0.35314874234E+03  0.35422696977E+03  0.10000000000E+01 0.  0.
    9000005    1    3    3    0    0 -0.19251737310E+02 -0.19775806092E+02 -0.92523285751E+01  0.29125890203E+02  0.10000000000E+01 0.  0.
<mgrwt>
<rscale>  0 0.12499952E+03</rscale>
<asrwt>0</asrwt>
<pdfrwt beam="2">  1        4 0.57365677E-01 0.12499952E+03</pdfrwt>
<pdfrwt beam="1">  1       -4 0.16116764E-02 0.12499952E+03</pdfrwt>
<totfact> 0.66205439E+03</totfact>
</mgrwt>
</event>
<event>
 5    1  0.3191162E-002  0.1250010E+03  0.7818608E-02  0.1235068E+00
         -4   -1    0    0    0  501 -0.00000000000E+00  0.00000000000E+00  0.11105307009E+03  0.11106033170E+03  0.12700000000E+01 0. -1.
          4   -1    0    0  501    0  0.00000000000E+00 -0.00000000000E+00 -0.35155309186E+02  0.35178241343E+02  0.12700000000E+01 0. -1.
         25    2    1    2    0    0  0.00000000000E+00  0.00000000000E+00  0.75897760907E+02  0.14623857304E+03  0.12500100054E+03 0.  0.
    9000005    1    3    3    0    0 -0.59128263062E+01 -0.13662353893E+02  0.10895406396E+03  0.10997094836E+03  0.10000000000E+01 0.  0.
    9000005    1    3    3    0    0  0.59128263062E+01  0.13662353893E+02 -0.33056303053E+02  0.36267624686E+02  0.10000000000E+01 0.  0.
<mgrwt>
<rscale>  0 0.12500100E+03</rscale>
<asrwt>0</asrwt>
<pdfrwt beam="2">  1        4 0.54108318E-02 0.12500100E+03</pdfrwt>
<pdfrwt beam="1">  1       -4 0.17087410E-01 0.12500100E+03</pdfrwt>
<totfact> 0.10005658E+04</totfact>
</mgrwt>
</event>
<event>
 5    1  0.3191162E-002  0.1249981E+03  0.7818608E-02  0.1235072E+00
          4   -1    0    0  501    0  0.00000000000E+00  0.00000000000E+00  0.36111983461E+02  0.36134308482E+02  0.12700000000E+01 0. -1.
         -4   -1    0    0    0  501 -0.00000000000E+00 -0.00000000000E+00 -0.10810775734E+03  0.10811521677E+03  0.12700000000E+01 0. -1.
         25    2    1    2    0    0  0.00000000000E+00  0.00000000000E+00 -0.71995773878E+02  0.14424952525E+03  0.12499813630E+03 0.  0.
    9000005    1    3    3    0    0 -0.13976286847E+02 -0.32147598533E+02 -0.95698747488E+02  0.10192180805E+03  0.10000000000E+01 0.  0.
    9000005    1    3    3    0    0  0.13976286847E+02  0.32147598533E+02  0.23702973609E+02  0.42327717200E+02  0.10000000000E+01 0.  0.
<mgrwt>
<rscale>  0 0.12499814E+03</rscale>
<asrwt>0</asrwt>
<pdfrwt beam="1">  1        4 0.55579809E-02 0.12499814E+03</pdfrwt>
<pdfrwt beam="2">  1       -4 0.16634254E-01 0.12499814E+03</pdfrwt>
<totfact> 0.10046680E+04</totfact>
</mgrwt>
</event>
<event>
 5    1  0.3191162E-002  0.1250007E+03  0.7818608E-02  0.1235068E+00
          4   -1    0    0  501    0  0.00000000000E+00  0.00000000000E+00  0.39574910577E+03  0.39575114354E+03  0.12700000000E+01 0.  1.
         -4   -1    0    0    0  501 -0.00000000000E+00 -0.00000000000E+00 -0.98277073507E+01  0.99094264098E+01  0.12700000000E+01 0.  1.
         25    2    1    2    0    0  0.00000000000E+00  0.00000000000E+00  0.38592139842E+03  0.40566056995E+03  0.12500068903E+03 0.  0.
    9000005    1    3    3    0    0  0.13671834307E+02  0.27398240392E+02  0.36975210590E+03  0.37101914027E+03  0.10000000000E+01 0.  0.
    9000005    1    3    3    0    0 -0.13671834307E+02 -0.27398240392E+02  0.16169292517E+02  0.34641429682E+02  0.10000000000E+01 0.  0.
<mgrwt>
<rscale>  0 0.12500069E+03</rscale>
<asrwt>0</asrwt>
<pdfrwt beam="1">  1        4 0.60890920E-01 0.12500069E+03</pdfrwt>
<pdfrwt beam="2">  1       -4 0.15183978E-02 0.12500069E+03</pdfrwt>
<totfact> 0.64004973E+03</totfact>
</mgrwt>
</event>
<event>
 5    1  0.3191162E-002  0.1249610E+03  0.7818608E-02  0.1235130E+00
          4   -1    0    0  501    0  0.00000000000E+00  0.00000000000E+00  0.69458919959E+02  0.69470529448E+02  0.12700000000E+01 0. -1.
         -4   -1    0    0    0  501 -0.00000000000E+00 -0.00000000000E+00 -0.56179738949E+02  0.56194091935E+02  0.12700000000E+01 0. -1.
         25    2    1    2    0    0  0.00000000000E+00  0.00000000000E+00  0.13279181010E+02  0.12566462138E+03  0.12496103560E+03 0.  0.
    9000005    1    3    3    0    0 -0.30748255559E+01 -0.17146453642E+02  0.66972050703E+02  0.69207738007E+02  0.10000000000E+01 0.  0.
    9000005    1    3    3    0    0  0.30748255559E+01  0.17146453642E+02 -0.53692869693E+02  0.56456883376E+02  0.10000000000E+01 0.  0.
<mgrwt>
<rscale>  0 0.12496104E+03</rscale>
<asrwt>0</asrwt>
<pdfrwt beam="1">  1        4 0.10687985E-01 0.12496104E+03</pdfrwt>
<pdfrwt beam="2">  1       -4 0.86450339E-02 0.12496104E+03</pdfrwt>
<totfact> 0.10447504E+04</totfact>
</mgrwt>
</event>
<event>
 5    1  0.3191162E-002  0.1250025E+03  0.7818608E-02  0.1235065E+00
          4   -1    0    0  501    0  0.00000000000E+00  0.00000000000E+00  0.84501465339E+01  0.85450498211E+01  0.12700000000E+01 0.  1.
         -4   -1    0    0    0  501 -0.00000000000E+00 -0.00000000000E+00 -0.45961132660E+03  0.45961308123E+03  0.12700000000E+01 0.  1.
         25    2    1    2    0    0  0.00000000000E+00  0.00000000000E+00 -0.45116118007E+03  0.46815813106E+03  0.12500250106E+03 0.  0.
    9000005    1    3    3    0    0 -0.12830682222E+02  0.59878080877E+02 -0.27226725665E+03  0.27907072584E+03  0.10000000000E+01 0.  0.
    9000005    1    3    3    0    0  0.12830682222E+02 -0.59878080877E+02 -0.17889392342E+03  0.18908740521E+03  0.10000000000E+01 0.  0.
<mgrwt>
<rscale>  0 0.12500250E+03</rscale>
<asrwt>0</asrwt>
<pdfrwt beam="1">  1        4 0.13074581E-02 0.12500250E+03</pdfrwt>
<pdfrwt beam="2">  1       -4 0.70716851E-01 0.12500250E+03</pdfrwt>
<totfact> 0.58419202E+03</totfact>
</mgrwt>
</event>
<event>
 5    1  0.3191162E-002  0.1250104E+03  0.7818608E-02  0.1235053E+00
         -4   -1    0    0    0  501 -0.00000000000E+00  0.00000000000E+00  0.12153032046E+04  0.12153038682E+04  0.12700000000E+01 0.  1.
          4   -1    0    0  501    0  0.00000000000E+00 -0.00000000000E+00 -0.30886337946E+01  0.33395446871E+01  0.12700000000E+01 0.  1.
         25    2    1    2    0    0  0.00000000000E+00  0.00000000000E+00  0.12122145708E+04  0.12186434129E+04  0.12501040776E+03 0.  0.
    9000005    1    3    3    0    0 -0.16710009480E+02 -0.51473234000E+02  0.30137514339E+03  0.30619715102E+03  0.10000000000E+01 0.  0.
    9000005    1    3    3    0    0  0.16710009480E+02  0.51473234000E+02  0.91083942743E+03  0.91244626187E+03  0.10000000000E+01 0.  0.
<mgrwt>
<rscale>  0 0.12501041E+03</rscale>
<asrwt>0</asrwt>
<pdfrwt beam="2">  1        4 0.49452568E-03 0.12501041E+03</pdfrwt>
<pdfrwt beam="1">  1       -4 0.18698932E+00 0.12501041E+03</pdfrwt>
<totfact> 0.24224373E+03</totfact>
</mgrwt>
</event>
<event>
 5    1  0.3191162E-002  0.1250019E+03  0.7818608E-02  0.1235066E+00
         -4   -1    0    0    0  501 -0.00000000000E+00  0.00000000000E+00  0.11633897975E+03  0.11634591144E+03  0.12700000000E+01 0. -1.
          4   -1    0    0  501    0  0.00000000000E+00 -0.00000000000E+00 -0.33557540372E+02  0.33581563630E+02  0.12700000000E+01 0. -1.
         25    2    1    2    0    0  0.00000000000E+00  0.00000000000E+00  0.82781439377E+02  0.14992747507E+03  0.12500192429E+03 0.  0.
    9000005    1    3    3    0    0  0.26881579847E+02 -0.55657700830E+02  0.30334654547E+02  0.68859206089E+02  0.10000000000E+01 0.  0.
    9000005    1    3    3    0    0 -0.26881579847E+02  0.55657700830E+02  0.52446784829E+02  0.81068268982E+02  0.10000000000E+01 0.  0.
<mgrwt>
<rscale>  0 0.12500192E+03</rscale>
<asrwt>0</asrwt>
<pdfrwt beam="2">  1        4 0.51650797E-02 0.12500192E+03</pdfrwt>
<pdfrwt beam="1">  1       -4 0.17900686E-01 0.12500192E+03</pdfrwt>
<totfact> 0.99313856E+03</totfact>
</mgrwt>
</event>
<event>
 5    1  0.3191162E-002  0.1250021E+03  0.7818608E-02  0.1235066E+00
         -4   -1    0    0    0  501 -0.00000000000E+00  0.00000000000E+00  0.13265177148E+03  0.13265785079E+03  0.12700000000E+01 0.  1.
          4   -1    0    0  501    0  0.00000000000E+00 -0.00000000000E+00 -0.29427962391E+02  0.29455353851E+02  0.12700000000E+01 0.  1.
         25    2    1    2    0    0  0.00000000000E+00  0.00000000000E+00  0.10322380908E+03  0.16211320464E+03  0.12500214541E+03 0.  0.
    9000005    1    3    3    0    0 -0.59284439237E+02  0.15363000701E+02  0.35480553879E+02  0.70785141306E+02  0.10000000000E+01 0.  0.
    9000005    1    3    3    0    0  0.59284439237E+02 -0.15363000701E+02  0.67743255205E+02  0.91328063332E+02  0.10000000000E+01 0.  0.
<mgrwt>
<rscale>  0 0.12500215E+03</rscale>
<asrwt>0</asrwt>
<pdfrwt beam="2">  1        4 0.45299535E-02 0.12500215E+03</pdfrwt>
<pdfrwt beam="1">  1       -4 0.20410540E-01 0.12500215E+03</pdfrwt>
<totfact> 0.96932242E+03</totfact>
</mgrwt>
</event>
<event>
 5    1  0.3191162E-002  0.1249865E+03  0.7818608E-02  0.1235090E+00
          4   -1    0    0  501    0  0.00000000000E+00  0.00000000000E+00  0.20067103893E+02  0.20107251395E+02  0.12700000000E+01 0. -1.
         -4   -1    0    0    0  501 -0.00000000000E+00 -0.00000000000E+00 -0.19438063563E+03  0.19438478440E+03  0.12700000000E+01 0. -1.
         25    2    1    2    0    0  0.00000000000E+00  0.00000000000E+00 -0.17431353174E+03  0.21449203580E+03  0.12498650357E+03 0.  0.
    9000005    1    3    3    0    0  0.51186822514E+02 -0.32468465648E+02 -0.11318951332E+03  0.12840232858E+03  0.10000000000E+01 0.  0.
    9000005    1    3    3    0    0 -0.51186822514E+02  0.32468465648E+02 -0.61124018418E+02  0.86089707214E+02  0.10000000000E+01 0.  0.
<mgrwt>
<rscale>  0 0.12498650E+03</rscale>
<asrwt>0</asrwt>
<pdfrwt beam="1">  1        4 0.30906543E-02 0.12498650E+03</pdfrwt>
<pdfrwt beam="2">  1       -4 0.29908119E-01 0.12498650E+03</pdfrwt>
<totfact> 0.87773959E+03</totfact>
</mgrwt>
</event>
<event>
 5    1  0.3191162E-002  0.1250007E+03  0.7818608E-02  0.1235068E+00
         -4   -1    0    0    0  501 -0.00000000000E+00  0.00000000000E+00  0.40712768720E+03  0.40712966802E+03  0.12700000000E+01 0.  1.
          4   -1    0    0  501    0  0.00000000000E+00 -0.00000000000E+00 -0.95507223364E+01  0.96347909758E+01  0.12700000000E+01 0.  1.
         25    2    1    2    0    0  0.00000000000E+00  0.00000000000E+00  0.39757696486E+03  0.41676445900E+03  0.12500068518E+03 0.  0.
    9000005    1    3    3    0    0 -0.55908346161E+02 -0.21116717608E+02  0.13788903355E+03  0.15028654134E+03  0.10000000000E+01 0.  0.
    9000005    1    3    3    0    0  0.55908346161E+02  0.21116717608E+02  0.25968793131E+03  0.26647791766E+03  0.10000000000E+01 0.  0.
<mgrwt>
<rscale>  0 0.12500069E+03</rscale>
<asrwt>0</asrwt>
<pdfrwt beam="2">  1        4 0.14759614E-02 0.12500069E+03</pdfrwt>
<pdfrwt beam="1">  1       -4 0.62641634E-01 0.12500069E+03</pdfrwt>
<totfact> 0.62953370E+03</totfact>
</mgrwt>
</event>
<event>
 5    1  0.3191162E-002  0.1250022E+03  0.7818608E-02  0.1235066E+00
         -4   -1    0    0    0  501 -0.00000000000E+00  0.00000000000E+00  0.33816262597E+02  0.33840102187E+02  0.12700000000E+01 0. -1.
          4   -1    0    0  501    0  0.00000000000E+00 -0.00000000000E+00 -0.11545000789E+03  0.11545699296E+03  0.12700000000E+01 0. -1.
         25    2    1    2    0    0  0.00000000000E+00  0.00000000000E+00 -0.81633745295E+02  0.14929709514E+03  0.12500221697E+03 0.  0.
    9000005    1    3    3    0    0 -0.17933956186E+02 -0.34247659301E+02  0.17826589623E+02  0.42583051202E+02  0.10000000000E+01 0.  0.
    9000005    1    3    3    0    0  0.17933956186E+02  0.34247659301E+02 -0.99460334918E+02  0.10671404394E+03  0.10000000000E+01 0.  0.
<mgrwt>
<rscale>  0 0.12500222E+03</rscale>
<asrwt>0</asrwt>
<pdfrwt beam="2">  1        4 0.17763911E-01 0.12500222E+03</pdfrwt>
<pdfrwt beam="1">  1       -4 0.52048731E-02 0.12500222E+03</pdfrwt>
<totfact> 0.99439034E+03</totfact>
</mgrwt>
</event>
<event>
 5    1  0.3191162E-002  0.1250001E+03  0.7818608E-02  0.1235069E+00
         -4   -1    0    0    0  501 -0.00000000000E+00  0.00000000000E+00  0.88239842769E+01  0.89149087780E+01  0.12700000000E+01 0. -1.
          4   -1    0    0  501    0  0.00000000000E+00 -0.00000000000E+00 -0.44032538803E+03  0.44032721951E+03  0.12700000000E+01 0. -1.
         25    2    1    2    0    0  0.00000000000E+00  0.00000000000E+00 -0.43150140375E+03  0.44924212829E+03  0.12500011356E+03 0.  0.
    9000005    1    3    3    0    0 -0.26680325314E+02 -0.29290207054E+02 -0.38943481984E+03  0.39144633718E+03  0.10000000000E+01 0.  0.
    9000005    1    3    3    0    0  0.26680325314E+02  0.29290207054E+02 -0.42066583919E+02  0.57795791116E+02  0.10000000000E+01 0.  0.
<mgrwt>
<rscale>  0 0.12500011E+03</rscale>
<asrwt>0</asrwt>
<pdfrwt beam="2">  1        4 0.67749485E-01 0.12500011E+03</pdfrwt>
<pdfrwt beam="1">  1       -4 0.13646715E-02 0.12500011E+03</pdfrwt>
<totfact> 0.60029363E+03</totfact>
</mgrwt>
</event>
<event>
 5    1  0.3191162E-002  0.1250057E+03  0.7818608E-02  0.1235060E+00
         -4   -1    0    0    0  501 -0.00000000000E+00  0.00000000000E+00  0.30632792049E+03  0.30633055312E+03  0.12700000000E+01 0. -1.
          4   -1    0    0  501    0  0.00000000000E+00 -0.00000000000E+00 -0.12718712382E+02  0.12781961691E+02  0.12700000000E+01 0. -1.
         25    2    1    2    0    0  0.00000000000E+00  0.00000000000E+00  0.29360920811E+03  0.31911251481E+03  0.12500571995E+03 0.  0.
    9000005    1    3    3    0    0  0.19646587930E+02  0.58486810405E+02  0.17219319826E+03  0.18291580833E+03  0.10000000000E+01 0.  0.
    9000005    1    3    3    0    0 -0.19646587930E+02 -0.58486810405E+02  0.12141600985E+03  0.13619670648E+03  0.10000000000E+01 0.  0.
<mgrwt>
<rscale>  0 0.12500572E+03</rscale>
<asrwt>0</asrwt>
<pdfrwt beam="2">  1        4 0.19617929E-02 0.12500572E+03</pdfrwt>
<pdfrwt beam="1">  1       -4 0.47132439E-01 0.12500572E+03</pdfrwt>
<totfact> 0.73252515E+03</totfact>
</mgrwt>
</event>
<event>
 5    1  0.3191162E-002  0.1250064E+03  0.7818608E-02  0.1235059E+00
         -4   -1    0    0    0  501 -0.00000000000E+00  0.00000000000E+00  0.81149129937E+02  0.81159067205E+02  0.12700000000E+01 0.  1.
          4   -1    0    0  501    0  0.00000000000E+00 -0.00000000000E+00 -0.48120319619E+02  0.48137075734E+02  0.12700000000E+01 0.  1.
         25    2    1    2    0    0  0.00000000000E+00  0.00000000000E+00  0.33028810318E+02  0.12929614294E+03  0.12500636091E+03 0.  0.
    9000005    1    3    3    0    0 -0.21546925681E+02 -0.58646091582E+02  0.17982079091E+02  0.65022990031E+02  0.10000000000E+01 0.  0.
    9000005    1    3    3    0    0  0.21546925681E+02  0.58646091582E+02  0.15046731227E+02  0.64273152908E+02  0.10000000000E+01 0.  0.
<mgrwt>
<rscale>  0 0.12500636E+03</rscale>
<asrwt>0</asrwt>
<pdfrwt beam="2">  1        4 0.74051795E-02 0.12500636E+03</pdfrwt>
<pdfrwt beam="1">  1       -4 0.12486535E-01 0.12500636E+03</pdfrwt>
<totfact> 0.10358100E+04</totfact>
</mgrwt>
</event>
<event>
 5    1  0.3191162E-002  0.1249988E+03  0.7818608E-02  0.1235071E+00
          4   -1    0    0  501    0  0.00000000000E+00  0.00000000000E+00  0.73716273820E+02  0.73727212926E+02  0.12700000000E+01 0. -1.
         -4   -1    0    0    0  501 -0.00000000000E+00 -0.00000000000E+00 -0.52966814596E+02  0.52982037980E+02  0.12700000000E+01 0. -1.
         25    2    1    2    0    0  0.00000000000E+00  0.00000000000E+00  0.20749459223E+02  0.12670925091E+03  0.12499877682E+03 0.  0.
    9000005    1    3    3    0    0  0.39675418554E+02  0.48252379684E+02  0.86959976793E+01  0.63079722243E+02  0.10000000000E+01 0.  0.
    9000005    1    3    3    0    0 -0.39675418554E+02 -0.48252379684E+02  0.12053461544E+02  0.63629528663E+02  0.10000000000E+01 0.  0.
<mgrwt>
<rscale>  0 0.12499878E+03</rscale>
<asrwt>0</asrwt>
<pdfrwt beam="1">  1        4 0.11342978E-01 0.12499878E+03</pdfrwt>
<pdfrwt beam="2">  1       -4 0.81507532E-02 0.12499878E+03</pdfrwt>
<totfact> 0.10415756E+04</totfact>
</mgrwt>
</event>
<event>
 5    1  0.3191162E-002  0.1249992E+03  0.7818608E-02  0.1235071E+00
         -4   -1    0    0    0  501 -0.00000000000E+00  0.00000000000E+00  0.11391702080E+02  0.11462276226E+02  0.12700000000E+01 0.  1.
          4   -1    0    0  501    0  0.00000000000E+00 -0.00000000000E+00 -0.34176782430E+03  0.34177018393E+03  0.12700000000E+01 0.  1.
         25    2    1    2    0    0  0.00000000000E+00  0.00000000000E+00 -0.33037612222E+03  0.35323246016E+03  0.12499915511E+03 0.  0.
    9000005    1    3    3    0    0 -0.87808043863E+01 -0.30154943666E+02 -0.31785808237E+03  0.31940755107E+03  0.10000000000E+01 0.  0.
    9000005    1    3    3    0    0  0.87808043863E+01  0.30154943666E+02 -0.12518039849E+02  0.33824909088E+02  0.10000000000E+01 0.  0.
<mgrwt>
<rscale>  0 0.12499916E+03</rscale>
<asrwt>0</asrwt>
<pdfrwt beam="2">  1        4 0.52585268E-01 0.12499916E+03</pdfrwt>
<pdfrwt beam="1">  1       -4 0.17581801E-02 0.12499916E+03</pdfrwt>
<totfact> 0.69371704E+03</totfact>
</mgrwt>
</event>
<event>
 5    1  0.3191162E-002  0.1249546E+03  0.7818608E-02  0.1235140E+00
         -4   -1    0    0    0  501 -0.00000000000E+00  0.00000000000E+00  0.30276059224E+03  0.30276325589E+03  0.12700000000E+01 0. -1.
          4   -1    0    0  501    0  0.00000000000E+00 -0.00000000000E+00 -0.12858743988E+02  0.12921307865E+02  0.12700000000E+01 0. -1.
         25    2    1    2    0    0  0.00000000000E+00  0.00000000000E+00  0.28990184825E+03  0.31568456375E+03  0.12495464045E+03 0.  0.
    9000005    1    3    3    0    0 -0.50320310013E+02  0.32019783898E+02  0.98024205623E+02  0.11474818103E+03  0.10000000000E+01 0.  0.
    9000005    1    3    3    0    0  0.50320310013E+02 -0.32019783898E+02  0.19187764263E+03  0.20093638272E+03  0.10000000000E+01 0.  0.
<mgrwt>
<rscale>  0 0.12495464E+03</rscale>
<asrwt>0</asrwt>
<pdfrwt beam="2">  1        4 0.19832860E-02 0.12495464E+03</pdfrwt>
<pdfrwt beam="1">  1       -4 0.46583567E-01 0.12495464E+03</pdfrwt>
<totfact> 0.73746492E+03</totfact>
</mgrwt>
</event>
<event>
 5    1  0.3191162E-002  0.1249722E+03  0.7818608E-02  0.1235113E+00
          4   -1    0    0  501    0  0.00000000000E+00  0.00000000000E+00  0.44957835089E+03  0.44958014467E+03  0.12700000000E+01 0. -1.
         -4   -1    0    0    0  501 -0.00000000000E+00 -0.00000000000E+00 -0.86365771953E+01  0.87294539147E+01  0.12700000000E+01 0. -1.
         25    2    1    2    0    0  0.00000000000E+00  0.00000000000E+00  0.44094177369E+03  0.45830959859E+03  0.12497215839E+03 0.  0.
    9000005    1    3    3    0    0 -0.47656932261E+02  0.11448370336E+02  0.36256428073E+03  0.36586350738E+03  0.10000000000E+01 0.  0.
    9000005    1    3    3    0    0  0.47656932261E+02 -0.11448370336E+02  0.78377492963E+02  0.92446091205E+02  0.10000000000E+01 0.  0.
<mgrwt>
<rscale>  0 0.12497216E+03</rscale>
<asrwt>0</asrwt>
<pdfrwt beam="1">  1        4 0.69173186E-01 0.12497216E+03</pdfrwt>
<pdfrwt beam="2">  1       -4 0.13359865E-02 0.12497216E+03</pdfrwt>
<totfact> 0.59286971E+03</totfact>
</mgrwt>
</event>
<event>
 5    1  0.3191162E-002  0.1249953E+03  0.7818608E-02  0.1235077E+00
         -4   -1    0    0    0  501 -0.00000000000E+00  0.00000000000E+00  0.84868754699E+02  0.84878256486E+02  0.12700000000E+01 0. -1.
          4   -1    0    0  501    0  0.00000000000E+00 -0.00000000000E+00 -0.46002621568E+02  0.46020148752E+02  0.12700000000E+01 0. -1.
         25    2    1    2    0    0  0.00000000000E+00  0.00000000000E+00  0.38866133131E+02  0.13089840524E+03  0.12499526467E+03 0.  0.
    9000005    1    3    3    0    0 -0.77560478957E+01 -0.27823009714E+02 -0.38597649108E+02  0.48218820653E+02  0.10000000000E+01 0.  0.
    9000005    1    3    3    0    0  0.77560478957E+01  0.27823009714E+02  0.77463782239E+02  0.82679584585E+02  0.10000000000E+01 0.  0.
<mgrwt>
<rscale>  0 0.12499526E+03</rscale>
<asrwt>0</asrwt>
<pdfrwt beam="2">  1        4 0.70794056E-02 0.12499526E+03</pdfrwt>
<pdfrwt beam="1">  1       -4 0.13058810E-01 0.12499526E+03</pdfrwt>
<totfact> 0.10326371E+04</totfact>
</mgrwt>
</event>
<event>
 5    1  0.3191162E-002  0.1249960E+03  0.7818608E-02  0.1235075E+00
         -4   -1    0    0    0  501 -0.00000000000E+00  0.00000000000E+00  0.29936371164E+02  0.29963297857E+02  0.12700000000E+01 0.  1.
          4   -1    0    0  501    0  0.00000000000E+00 -0.00000000000E+00 -0.13038816468E+03  0.13039434953E+03  0.12700000000E+01 0.  1.
         25    2    1    2    0    0  0.00000000000E+00  0.00000000000E+00 -0.10045179352E+03  0.16035764738E+03  0.12499604895E+03 0.  0.
    9000005    1    3    3    0    0 -0.78093735049E+01  0.16162375836E+02  0.26564043786E+02  0.32075802866E+02  0.10000000000E+01 0.  0.
    9000005    1    3    3    0    0  0.78093735049E+01 -0.16162375836E+02 -0.12701583730E+03  0.12828184452E+03  0.10000000000E+01 0.  0.
<mgrwt>
<rscale>  0 0.12499605E+03</rscale>
<asrwt>0</asrwt>
<pdfrwt beam="2">  1        4 0.20062264E-01 0.12499605E+03</pdfrwt>
<pdfrwt beam="1">  1       -4 0.46081427E-02 0.12499605E+03</pdfrwt>
<totfact> 0.97282517E+03</totfact>
</mgrwt>
</event>
<event>
 5    1  0.3191162E-002  0.1250373E+03  0.7818608E-02  0.1235011E+00
         -4   -1    0    0    0  501 -0.00000000000E+00  0.00000000000E+00  0.43917718486E+02  0.43936077397E+02  0.12700000000E+01 0.  1.
          4   -1    0    0  501    0  0.00000000000E+00 -0.00000000000E+00 -0.88956329048E+02  0.88965394271E+02  0.12700000000E+01 0.  1.
         25    2    1    2    0    0  0.00000000000E+00  0.00000000000E+00 -0.45038610562E+02  0.13290147167E+03  0.12503729336E+03 0.  0.
    9000005    1    3    3    0    0 -0.15709484603E+02  0.34349044000E+02  0.30422414636E+02  0.48509463432E+02  0.10000000000E+01 0.  0.
    9000005    1    3    3    0    0  0.15709484603E+02 -0.34349044000E+02 -0.75461025198E+02  0.84392008236E+02  0.10000000000E+01 0.  0.
<mgrwt>
<rscale>  0 0.12503729E+03</rscale>
<asrwt>0</asrwt>
<pdfrwt beam="2">  1        4 0.13687699E-01 0.12503729E+03</pdfrwt>
<pdfrwt beam="1">  1       -4 0.67586816E-02 0.12503729E+03</pdfrwt>
<totfact> 0.10273849E+04</totfact>
</mgrwt>
</event>
<event>
 5    1  0.3191162E-002  0.1250577E+03  0.7818608E-02  0.1234979E+00
         -4   -1    0    0    0  501 -0.00000000000E+00  0.00000000000E+00  0.40661476801E+03  0.40661675134E+03  0.12700000000E+01 0. -1.
          4   -1    0    0  501    0  0.00000000000E+00 -0.00000000000E+00 -0.95716771886E+01  0.96555633809E+01  0.12700000000E+01 0. -1.
         25    2    1    2    0    0  0.00000000000E+00  0.00000000000E+00  0.39704309083E+03  0.41627231472E+03  0.12505768280E+03 0.  0.
    9000005    1    3    3    0    0 -0.57086496926E+02  0.25467434339E+02  0.19458633004E+03  0.20438272476E+03  0.10000000000E+01 0.  0.
    9000005    1    3    3    0    0  0.57086496926E+02 -0.25467434339E+02  0.20245676079E+03  0.21188958995E+03  0.10000000000E+01 0.  0.
<mgrwt>
<rscale>  0 0.12505768E+03</rscale>
<asrwt>0</asrwt>
<pdfrwt beam="2">  1        4 0.14791713E-02 0.12505768E+03</pdfrwt>
<pdfrwt beam="1">  1       -4 0.62562712E-01 0.12505768E+03</pdfrwt>
<totfact> 0.62920247E+03</totfact>
</mgrwt>
</event>
<event>
 5    1  0.3191162E-002  0.1250020E+03  0.7818608E-02  0.1235066E+00
          4   -1    0    0  501    0  0.00000000000E+00  0.00000000000E+00  0.38666233977E+01  0.40698496900E+01  0.12700000000E+01 0. -1.
         -4   -1    0    0    0  501 -0.00000000000E+00 -0.00000000000E+00 -0.98420724379E+03  0.98420806318E+03  0.12700000000E+01 0. -1.
         25    2    1    2    0    0  0.00000000000E+00  0.00000000000E+00 -0.98034062039E+03  0.98827791287E+03  0.12500200429E+03 0.  0.
    9000005    1    3    3    0    0  0.52568721622E+02  0.22575737638E+02 -0.68896436306E+03  0.69133640725E+03  0.10000000000E+01 0.  0.
    9000005    1    3    3    0    0 -0.52568721622E+02 -0.22575737638E+02 -0.29137625734E+03  0.29694150562E+03  0.10000000000E+01 0.  0.
<mgrwt>
<rscale>  0 0.12500200E+03</rscale>
<asrwt>0</asrwt>
<pdfrwt beam="1">  1        4 0.61056174E-03 0.12500200E+03</pdfrwt>
<pdfrwt beam="2">  1       -4 0.15143200E+00 0.12500200E+03</pdfrwt>
<totfact> 0.30993398E+03</totfact>
</mgrwt>
</event>
<event>
 5    1  0.3191162E-002  0.1249982E+03  0.7818608E-02  0.1235072E+00
         -4   -1    0    0    0  501 -0.00000000000E+00  0.00000000000E+00  0.79660979101E+02  0.79671101984E+02  0.12700000000E+01 0.  1.
          4   -1    0    0  501    0  0.00000000000E+00 -0.00000000000E+00 -0.49013055610E+02  0.49029506628E+02  0.12700000000E+01 0.  1.
         25    2    1    2    0    0  0.00000000000E+00  0.00000000000E+00  0.30647923491E+02  0.12870060861E+03  0.12499820576E+03 0.  0.
    9000005    1    3    3    0    0 -0.24719257384E+02  0.46413300309E+02  0.50086423800E+02  0.72628410283E+02  0.10000000000E+01 0.  0.
    9000005    1    3    3    0    0  0.24719257384E+02 -0.46413300309E+02 -0.19438500309E+02  0.56072198329E+02  0.10000000000E+01 0.  0.
<mgrwt>
<rscale>  0 0.12499821E+03</rscale>
<asrwt>0</asrwt>
<pdfrwt beam="2">  1        4 0.75425144E-02 0.12499821E+03</pdfrwt>
<pdfrwt beam="1">  1       -4 0.12257579E-01 0.12499821E+03</pdfrwt>
<totfact> 0.10372805E+04</totfact>
</mgrwt>
</event>
<event>
 5    1  0.3191162E-002  0.1250010E+03  0.7818608E-02  0.1235068E+00
         -4   -1    0    0    0  501 -0.00000000000E+00  0.00000000000E+00  0.82839448692E+02  0.82849183216E+02  0.12700000000E+01 0. -1.
          4   -1    0    0  501    0  0.00000000000E+00 -0.00000000000E+00 -0.47134179295E+02  0.47151285856E+02  0.12700000000E+01 0. -1.
         25    2    1    2    0    0  0.00000000000E+00  0.00000000000E+00  0.35705269397E+02  0.13000046907E+03  0.12500102278E+03 0.  0.
    9000005    1    3    3    0    0  0.26359277594E+02  0.53092149917E+02 -0.27310237170E+01  0.59346831328E+02  0.10000000000E+01 0.  0.
    9000005    1    3    3    0    0 -0.26359277594E+02 -0.53092149917E+02  0.38436293114E+02  0.70653637744E+02  0.10000000000E+01 0.  0.
<mgrwt>
<rscale>  0 0.12500102E+03</rscale>
<asrwt>0</asrwt>
<pdfrwt beam="2">  1        4 0.72534770E-02 0.12500102E+03</pdfrwt>
<pdfrwt beam="1">  1       -4 0.12746595E-01 0.12500102E+03</pdfrwt>
<totfact> 0.10344259E+04</totfact>
</mgrwt>
</event>
<event>
 5    1  0.3191162E-002  0.1249982E+03  0.7818608E-02  0.1235072E+00
         -4   -1    0    0    0  501 -0.00000000000E+00  0.00000000000E+00  0.75500880167E+02  0.75511560744E+02  0.12700000000E+01 0. -1.
          4   -1    0    0  501    0  0.00000000000E+00 -0.00000000000E+00 -0.51714196609E+02  0.51729788622E+02  0.12700000000E+01 0. -1.
         25    2    1    2    0    0  0.00000000000E+00  0.00000000000E+00  0.23786683558E+02  0.12724134937E+03  0.12499821868E+03 0.  0.
    9000005    1    3    3    0    0 -0.28644611816E+01  0.27393851492E+02  0.68993725916E+02  0.74295103831E+02  0.10000000000E+01 0.  0.
    9000005    1    3    3    0    0  0.28644611816E+01 -0.27393851492E+02 -0.45207042358E+02  0.52946245535E+02  0.10000000000E+01 0.  0.
<mgrwt>
<rscale>  0 0.12499822E+03</rscale>
<asrwt>0</asrwt>
<pdfrwt beam="2">  1        4 0.79580513E-02 0.12499822E+03</pdfrwt>
<pdfrwt beam="1">  1       -4 0.11617541E-01 0.12499822E+03</pdfrwt>
<totfact> 0.10404325E+04</totfact>
</mgrwt>
</event>
<event>
 5    1  0.3191162E-002  0.1250000E+03  0.7818608E-02  0.1235069E+00
          4   -1    0    0  501    0  0.00000000000E+00  0.00000000000E+00  0.26787223830E+02  0.26817312701E+02  0.12700000000E+01 0.  1.
         -4   -1    0    0    0  501 -0.00000000000E+00 -0.00000000000E+00 -0.14571033869E+03  0.14571587320E+03  0.12700000000E+01 0.  1.
         25    2    1    2    0    0  0.00000000000E+00  0.00000000000E+00 -0.11892311486E+03  0.17253318590E+03  0.12499997195E+03 0.  0.
    9000005    1    3    3    0    0 -0.27610479857E+02  0.33668005021E+02  0.24103112500E+01  0.43619751952E+02  0.10000000000E+01 0.  0.
    9000005    1    3    3    0    0  0.27610479857E+02 -0.33668005021E+02 -0.12133342611E+03  0.12891343395E+03  0.10000000000E+01 0.  0.
<mgrwt>
<rscale>  0 0.12499997E+03</rscale>
<asrwt>0</asrwt>
<pdfrwt beam="1">  1        4 0.41238517E-02 0.12499997E+03</pdfrwt>
<pdfrwt beam="2">  1       -4 0.22419715E-01 0.12499997E+03</pdfrwt>
<totfact> 0.94978643E+03</totfact>
</mgrwt>
</event>
<event>
 5    1  0.3191162E-002  0.1249989E+03  0.7818608E-02  0.1235071E+00
          4   -1    0    0  501    0  0.00000000000E+00  0.00000000000E+00  0.48693005267E+02  0.48709564378E+02  0.12700000000E+01 0.  1.
         -4   -1    0    0    0  501 -0.00000000000E+00 -0.00000000000E+00 -0.80185331655E+02  0.80195388350E+02  0.12700000000E+01 0.  1.
         25    2    1    2    0    0  0.00000000000E+00  0.00000000000E+00 -0.31492326389E+02  0.12890495273E+03  0.12499888086E+03 0.  0.
    9000005    1    3    3    0    0 -0.57397610395E+02 -0.16590730066E+02 -0.34633565526E+02  0.69066792775E+02  0.10000000000E+01 0.  0.
    9000005    1    3    3    0    0  0.57397610395E+02  0.16590730066E+02  0.31412391377E+01  0.59838159953E+02  0.10000000000E+01 0.  0.
<mgrwt>
<rscale>  0 0.12499888E+03</rscale>
<asrwt>0</asrwt>
<pdfrwt beam="1">  1        4 0.74932789E-02 0.12499888E+03</pdfrwt>
<pdfrwt beam="2">  1       -4 0.12338252E-01 0.12499888E+03</pdfrwt>
<totfact> 0.10368252E+04</totfact>
</mgrwt>
</event>
<event>
 4    1  0.3191162E-002  0.1249385E+03  0.7818608E-02  0.1235165E+00
         -4   -1    0    0    0  501 -0.00000000000E+00  0.00000000000E+00  0.29220762871E+02  0.29248348376E+02  0.12700000000E+01 0. -1.
          4   -1    0    0  501    0  0.00000000000E+00 -0.00000000000E+00 -0.13345550289E+03  0.13346154559E+03  0.12700000000E+01 0. -1.
    9000005    1    1    2    0    0 -0.48974219531E+02 -0.33521861575E+02 -0.77478115270E+02  0.97601474006E+02  0.10000000000E+01 0.  0.
    9000005    1    1    2    0    0  0.48974219531E+02  0.33521861575E+02 -0.26756624752E+02  0.65108419965E+02  0.10000000000E+01 0.  0.
<mgrwt>
<rscale>  0 0.12493850E+03</rscale>
<asrwt>0</asrwt>
<pdfrwt beam="2">  1        4 0.20534202E-01 0.12493850E+03</pdfrwt>
<pdfrwt beam="1">  1       -4 0.44980888E-02 0.12493850E+03</pdfrwt>
<totfact> 0.96956795E+03</totfact>
</mgrwt>
</event>
<event>
 5    1  0.3191162E-002  0.1250017E+03  0.7818608E-02  0.1235067E+00
          4   -1    0    0  501    0  0.00000000000E+00  0.00000000000E+00  0.14147434064E+02  0.14204322955E+02  0.12700000000E+01 0.  1.
         -4   -1    0    0    0  501 -0.00000000000E+00 -0.00000000000E+00 -0.27550516347E+03  0.27550809063E+03  0.12700000000E+01 0.  1.
         25    2    1    2    0    0  0.00000000000E+00  0.00000000000E+00 -0.26135772941E+03  0.28971241358E+03  0.12500167943E+03 0.  0.
    9000005    1    3    3    0    0 -0.45644084542E+02 -0.25619333588E+02 -0.51550867730E+02  0.73472611706E+02  0.10000000000E+01 0.  0.
    9000005    1    3    3    0    0  0.45644084542E+02  0.25619333588E+02 -0.20980686168E+03  0.21623980188E+03  0.10000000000E+01 0.  0.
<mgrwt>
<rscale>  0 0.12500168E+03</rscale>
<asrwt>0</asrwt>
<pdfrwt beam="1">  1        4 0.21811298E-02 0.12500168E+03</pdfrwt>
<pdfrwt beam="2">  1       -4 0.42390007E-01 0.12500168E+03</pdfrwt>
<totfact> 0.76904818E+03</totfact>
</mgrwt>
</event>
<event>
 5    1  0.3191162E-002  0.1249991E+03  0.7818608E-02  0.1235071E+00
          4   -1    0    0  501    0  0.00000000000E+00  0.00000000000E+00  0.48692441403E+03  0.48692607024E+03  0.12700000000E+01 0. -1.
         -4   -1    0    0    0  501 -0.00000000000E+00 -0.00000000000E+00 -0.79702271573E+01  0.80707757334E+01  0.12700000000E+01 0. -1.
         25    2    1    2    0    0  0.00000000000E+00  0.00000000000E+00  0.47895418687E+03  0.49499684597E+03  0.12499905760E+03 0.  0.
    9000005    1    3    3    0    0 -0.25331433300E+02  0.27061130686E+02  0.40244983166E+02  0.54723349468E+02  0.10000000000E+01 0.  0.
    9000005    1    3    3    0    0  0.25331433300E+02 -0.27061130686E+02  0.43870920371E+03  0.44027349650E+03  0.10000000000E+01 0.  0.
<mgrwt>
<rscale>  0 0.12499906E+03</rscale>
<asrwt>0</asrwt>
<pdfrwt beam="1">  1        4 0.74919289E-01 0.12499906E+03</pdfrwt>
<pdfrwt beam="2">  1       -4 0.12340511E-02 0.12499906E+03</pdfrwt>
<totfact> 0.56255825E+03</totfact>
</mgrwt>
</event>
<event>
 5    1  0.3191162E-002  0.1250013E+03  0.7818608E-02  0.1235067E+00
         -4   -1    0    0    0  501 -0.00000000000E+00  0.00000000000E+00  0.75984024277E+01  0.77038055176E+01  0.12700000000E+01 0.  1.
          4   -1    0    0  501    0  0.00000000000E+00 -0.00000000000E+00 -0.51045163008E+03  0.51045320995E+03  0.12700000000E+01 0.  1.
         25    2    1    2    0    0  0.00000000000E+00  0.00000000000E+00 -0.50285322765E+03  0.51815701547E+03  0.12500129648E+03 0.  0.
    9000005    1    3    3    0    0  0.50138495117E+02 -0.30196365530E+02 -0.16064343238E+03  0.17097661112E+03  0.10000000000E+01 0.  0.
    9000005    1    3    3    0    0 -0.50138495117E+02  0.30196365530E+02 -0.34220979527E+03  0.34718040435E+03  0.10000000000E+01 0.  0.
<mgrwt>
<rscale>  0 0.12500130E+03</rscale>
<asrwt>0</asrwt>
<pdfrwt beam="2">  1        4 0.78539223E-01 0.12500130E+03</pdfrwt>
<pdfrwt beam="1">  1       -4 0.11772148E-02 0.12500130E+03</pdfrwt>
<totfact> 0.54481081E+03</totfact>
</mgrwt>
</event>
<event>
 5    1  0.3191162E-002  0.1250007E+03  0.7818608E-02  0.1235068E+00
          4   -1    0    0  501    0  0.00000000000E+00  0.00000000000E+00  0.21870324792E+02  0.21907167925E+02  0.12700000000E+01 0. -1.
         -4   -1    0    0    0  501 -0.00000000000E+00 -0.00000000000E+00 -0.17842227013E+03  0.17842678997E+03  0.12700000000E+01 0. -1.
         25    2    1    2    0    0  0.00000000000E+00  0.00000000000E+00 -0.15655194534E+03  0.20033395789E+03  0.12500073238E+03 0.  0.
    9000005    1    3    3    0    0  0.88534817896E+01 -0.26233694425E+02  0.11511812162E+02  0.30001877979E+02  0.10000000000E+01 0.  0.
    9000005    1    3    3    0    0 -0.88534817896E+01  0.26233694425E+02 -0.16806375750E+03  0.17033207991E+03  0.10000000000E+01 0.  0.
<mgrwt>
<rscale>  0 0.12500073E+03</rscale>
<asrwt>0</asrwt>
<pdfrwt beam="1">  1        4 0.33678472E-02 0.12500073E+03</pdfrwt>
<pdfrwt beam="2">  1       -4 0.27452761E-01 0.12500073E+03</pdfrwt>
<totfact> 0.90077736E+03</totfact>
</mgrwt>
</event>
<event>
 5    1  0.3191162E-002  0.1250023E+03  0.7818608E-02  0.1235066E+00
          4   -1    0    0  501    0  0.00000000000E+00  0.00000000000E+00  0.64234323743E+03  0.64234449291E+03  0.12700000000E+01 0. -1.
         -4   -1    0    0    0  501 -0.00000000000E+00 -0.00000000000E+00 -0.60138907753E+01  0.61465260316E+01  0.12700000000E+01 0. -1.
         25    2    1    2    0    0  0.00000000000E+00  0.00000000000E+00  0.63632934666E+03  0.64849101894E+03  0.12500225692E+03 0.  0.
    9000005    1    3    3    0    0  0.38327578012E+02  0.48592904805E+02  0.27320155146E+03  0.28012561709E+03  0.10000000000E+01 0.  0.
    9000005    1    3    3    0    0 -0.38327578012E+02 -0.48592904805E+02  0.36312779520E+03  0.36836540185E+03  0.10000000000E+01 0.  0.
<mgrwt>
<rscale>  0 0.12500226E+03</rscale>
<asrwt>0</asrwt>
<pdfrwt beam="1">  1        4 0.98832335E-01 0.12500226E+03</pdfrwt>
<pdfrwt beam="2">  1       -4 0.93551326E-03 0.12500226E+03</pdfrwt>
<totfact> 0.45940686E+03</totfact>
</mgrwt>
</event>
<event>
 5    1  0.3191162E-002  0.1249936E+03  0.7818608E-02  0.1235079E+00
         -4   -1    0    0    0  501 -0.00000000000E+00  0.00000000000E+00  0.16053664814E+02  0.16103821098E+02  0.12700000000E+01 0.  1.
          4   -1    0    0  501    0  0.00000000000E+00 -0.00000000000E+00 -0.24286819986E+03  0.24287152037E+03  0.12700000000E+01 0.  1.
         25    2    1    2    0    0  0.00000000000E+00  0.00000000000E+00 -0.22681453505E+03  0.25897534146E+03  0.12499357654E+03 0.  0.
    9000005    1    3    3    0    0  0.23309778232E+02  0.57682315549E+02 -0.12553338158E+03  0.14010790548E+03  0.10000000000E+01 0.  0.
    9000005    1    3    3    0    0 -0.23309778232E+02 -0.57682315549E+02 -0.10128115347E+03  0.11886743598E+03  0.10000000000E+01 0.  0.
<mgrwt>
<rscale>  0 0.12499358E+03</rscale>
<asrwt>0</asrwt>
<pdfrwt beam="2">  1        4 0.37368449E-01 0.12499358E+03</pdfrwt>
<pdfrwt beam="1">  1       -4 0.24739084E-02 0.12499358E+03</pdfrwt>
<totfact> 0.81061664E+03</totfact>
</mgrwt>
</event>
<event>
 5    1  0.3191162E-002  0.1250001E+03  0.7818608E-02  0.1235069E+00
         -4   -1    0    0    0  501 -0.00000000000E+00  0.00000000000E+00  0.15152506272E+03  0.15153038485E+03  0.12700000000E+01 0.  1.
          4   -1    0    0  501    0  0.00000000000E+00 -0.00000000000E+00 -0.25758197572E+02  0.25789487048E+02  0.12700000000E+01 0.  1.
         25    2    1    2    0    0  0.00000000000E+00  0.00000000000E+00  0.12576686515E+03  0.17731987190E+03  0.12500013040E+03 0.  0.
    9000005    1    3    3    0    0  0.11516846630E+02 -0.46450393939E+02  0.58761038184E+01  0.48226605203E+02  0.10000000000E+01 0.  0.
    9000005    1    3    3    0    0 -0.11516846630E+02  0.46450393939E+02  0.11989076133E+03  0.12909326669E+03  0.10000000000E+01 0.  0.
<mgrwt>
<rscale>  0 0.12500013E+03</rscale>
<asrwt>0</asrwt>
<pdfrwt beam="2">  1        4 0.39656159E-02 0.12500013E+03</pdfrwt>
<pdfrwt beam="1">  1       -4 0.23314365E-01 0.12500013E+03</pdfrwt>
<totfact> 0.94101396E+03</totfact>
</mgrwt>
</event>
<event>
 5    1  0.3191162E-002  0.1250013E+03  0.7818608E-02  0.1235067E+00
         -4   -1    0    0    0  501 -0.00000000000E+00  0.00000000000E+00  0.47002751759E+02  0.47019906135E+02  0.12700000000E+01 0. -1.
          4   -1    0    0  501    0  0.00000000000E+00 -0.00000000000E+00 -0.83071428553E+02  0.83081135897E+02  0.12700000000E+01 0. -1.
         25    2    1    2    0    0  0.00000000000E+00  0.00000000000E+00 -0.36068676795E+02  0.13010104203E+03  0.12500132676E+03 0.  0.
    9000005    1    3    3    0    0 -0.34317085327E+01 -0.52692143091E+02  0.16752189336E+02  0.55406447409E+02  0.10000000000E+01 0.  0.
    9000005    1    3    3    0    0  0.34317085327E+01  0.52692143091E+02 -0.52820866131E+02  0.74694594622E+02  0.10000000000E+01 0.  0.
<mgrwt>
<rscale>  0 0.12500133E+03</rscale>
<asrwt>0</asrwt>
<pdfrwt beam="2">  1        4 0.12782286E-01 0.12500133E+03</pdfrwt>
<pdfrwt beam="1">  1       -4 0.72332589E-02 0.12500133E+03</pdfrwt>
<totfact> 0.10342037E+04</totfact>
</mgrwt>
</event>
<event>
 5    1  0.3191162E-002  0.1250140E+03  0.7818608E-02  0.1235047E+00
         -4   -1    0    0    0  501 -0.00000000000E+00  0.00000000000E+00  0.14135294147E+03  0.14135864658E+03  0.12700000000E+01 0. -1.
          4   -1    0    0  501    0  0.00000000000E+00 -0.00000000000E+00 -0.27620049039E+02  0.27649231615E+02  0.12700000000E+01 0. -1.
         25    2    1    2    0    0  0.00000000000E+00  0.00000000000E+00  0.11373289243E+03  0.16900787820E+03  0.12501396750E+03 0.  0.
    9000005    1    3    3    0    0 -0.35546929644E+01  0.50650998805E+02  0.10613178567E+03  0.11765676968E+03  0.10000000000E+01 0.  0.
    9000005    1    3    3    0    0  0.35546929644E+01 -0.50650998805E+02  0.76011067674E+01  0.51351108518E+02  0.10000000000E+01 0.  0.
<mgrwt>
<rscale>  0 0.12501397E+03</rscale>
<asrwt>0</asrwt>
<pdfrwt beam="2">  1        4 0.42519220E-02 0.12501397E+03</pdfrwt>
<pdfrwt beam="1">  1       -4 0.21749290E-01 0.12501397E+03</pdfrwt>
<totfact> 0.95603713E+03</totfact>
</mgrwt>
</event>
<event>
 5    1  0.3191162E-002  0.1250040E+03  0.7818608E-02  0.1235063E+00
         -4   -1    0    0    0  501 -0.00000000000E+00  0.00000000000E+00  0.36618320983E+02  0.36640337493E+02  0.12700000000E+01 0. -1.
          4   -1    0    0  501    0  0.00000000000E+00 -0.00000000000E+00 -0.10662378100E+03  0.10663134424E+03  0.12700000000E+01 0. -1.
         25    2    1    2    0    0  0.00000000000E+00  0.00000000000E+00 -0.70005460021E+02  0.14327168174E+03  0.12500404136E+03 0.  0.
    9000005    1    3    3    0    0  0.31785804474E+02 -0.38387622612E+02  0.82106501421E+01  0.50520903710E+02  0.10000000000E+01 0.  0.
    9000005    1    3    3    0    0 -0.31785804474E+02  0.38387622612E+02 -0.78216110163E+02  0.92750778028E+02  0.10000000000E+01 0.  0.
<mgrwt>
<rscale>  0 0.12500404E+03</rscale>
<asrwt>0</asrwt>
<pdfrwt beam="2">  1        4 0.16405934E-01 0.12500404E+03</pdfrwt>
<pdfrwt beam="1">  1       -4 0.56358632E-02 0.12500404E+03</pdfrwt>
<totfact> 0.10065307E+04</totfact>
</mgrwt>
</event>
<event>
 5    1  0.3191162E-002  0.1249905E+03  0.7818608E-02  0.1235084E+00
          4   -1    0    0  501    0  0.00000000000E+00  0.00000000000E+00  0.26397067615E+02  0.26427600699E+02  0.12700000000E+01 0. -1.
         -4   -1    0    0    0  501 -0.00000000000E+00 -0.00000000000E+00 -0.14783919914E+03  0.14784465395E+03  0.12700000000E+01 0. -1.
         25    2    1    2    0    0  0.00000000000E+00  0.00000000000E+00 -0.12144213152E+03  0.17427225465E+03  0.12499050937E+03 0.  0.
    9000005    1    3    3    0    0  0.15553303386E+02 -0.59458333780E+02 -0.44979967599E+02  0.76166896926E+02  0.10000000000E+01 0.  0.
    9000005    1    3    3    0    0 -0.15553303386E+02  0.59458333780E+02 -0.76462163921E+02  0.98105357722E+02  0.10000000000E+01 0.  0.
<mgrwt>
<rscale>  0 0.12499051E+03</rscale>
<asrwt>0</asrwt>
<pdfrwt beam="1">  1        4 0.40638557E-02 0.12499051E+03</pdfrwt>
<pdfrwt beam="2">  1       -4 0.22747260E-01 0.12499051E+03</pdfrwt>
<totfact> 0.94678452E+03</totfact>
</mgrwt>
</event>
<event>
 5    1  0.3191162E-002  0.1250008E+03  0.7818608E-02  0.1235068E+00
          4   -1    0    0  501    0  0.00000000000E+00  0.00000000000E+00  0.61899999688E+03  0.61900129970E+03  0.12700000000E+01 0. -1.
         -4   -1    0    0    0  501 -0.00000000000E+00 -0.00000000000E+00 -0.62454460268E+01  0.63732641616E+01  0.12700000000E+01 0. -1.
         25    2    1    2    0    0  0.00000000000E+00  0.00000000000E+00  0.61275455085E+03  0.62537456386E+03  0.12500082216E+03 0.  0.
    9000005    1    3    3    0    0 -0.26775256460E+01 -0.61708233429E+02  0.35389915416E+03  0.35925017263E+03  0.10000000000E+01 0.  0.
    9000005    1    3    3    0    0  0.26775256460E+01  0.61708233429E+02  0.25885539669E+03  0.26612439124E+03  0.10000000000E+01 0.  0.
<mgrwt>
<rscale>  0 0.12500082E+03</rscale>
<asrwt>0</asrwt>
<pdfrwt beam="1">  1        4 0.95240706E-01 0.12500082E+03</pdfrwt>
<pdfrwt beam="2">  1       -4 0.97077018E-03 0.12500082E+03</pdfrwt>
<totfact> 0.47303238E+03</totfact>
</mgrwt>
</event>
<event>
 5    1  0.3191162E-002  0.1250022E+03  0.7818608E-02  0.1235066E+00
          4   -1    0    0  501    0  0.00000000000E+00  0.00000000000E+00  0.25571858629E+02  0.25603375827E+02  0.12700000000E+01 0. -1.
         -4   -1    0    0    0  501 -0.00000000000E+00 -0.00000000000E+00 -0.15263285684E+03  0.15263814034E+03  0.12700000000E+01 0. -1.
         25    2    1    2    0    0  0.00000000000E+00  0.00000000000E+00 -0.12706099821E+03  0.17824151617E+03  0.12500216326E+03 0.  0.
    9000005    1    3    3    0    0 -0.54884317068E+02  0.27457947051E+02 -0.80351257251E+02  0.10111158024E+03  0.10000000000E+01 0.  0.
    9000005    1    3    3    0    0  0.54884317068E+02 -0.27457947051E+02 -0.46709740958E+02  0.77129935930E+02  0.10000000000E+01 0.  0.
<mgrwt>
<rscale>  0 0.12500216E+03</rscale>
<asrwt>0</asrwt>
<pdfrwt beam="1">  1        4 0.39369630E-02 0.12500216E+03</pdfrwt>
<pdfrwt beam="2">  1       -4 0.23484808E-01 0.12500216E+03</pdfrwt>
<totfact> 0.93929940E+03</totfact>
</mgrwt>
</event>
<event>
 5    1  0.3191162E-002  0.1250000E+03  0.7818608E-02  0.1235069E+00
         -4   -1    0    0    0  501 -0.00000000000E+00  0.00000000000E+00  0.20788377563E+02  0.20827134745E+02  0.12700000000E+01 0. -1.
          4   -1    0    0  501    0  0.00000000000E+00 -0.00000000000E+00 -0.18768968947E+03  0.18769398614E+03  0.12700000000E+01 0. -1.
         25    2    1    2    0    0  0.00000000000E+00  0.00000000000E+00 -0.16690131191E+03  0.20852112089E+03  0.12500003976E+03 0.  0.
    9000005    1    3    3    0    0  0.47519980497E+02 -0.40583985496E+02 -0.83800810934E+02  0.10454082618E+03  0.10000000000E+01 0.  0.
    9000005    1    3    3    0    0 -0.47519980497E+02  0.40583985496E+02 -0.83100500977E+02  0.10398029471E+03  0.10000000000E+01 0.  0.
<mgrwt>
<rscale>  0 0.12500004E+03</rscale>
<asrwt>0</asrwt>
<pdfrwt beam="2">  1        4 0.28878648E-01 0.12500004E+03</pdfrwt>
<pdfrwt beam="1">  1       -4 0.32015239E-02 0.12500004E+03</pdfrwt>
<totfact> 0.88717894E+03</totfact>
</mgrwt>
</event>
<event>
 5    1  0.3191162E-002  0.1250017E+03  0.7818608E-02  0.1235067E+00
          4   -1    0    0  501    0  0.00000000000E+00  0.00000000000E+00  0.12926322893E+03  0.12926946760E+03  0.12700000000E+01 0.  1.
         -4   -1    0    0    0  501 -0.00000000000E+00 -0.00000000000E+00 -0.30199867324E+02  0.30226559288E+02  0.12700000000E+01 0.  1.
         25    2    1    2    0    0  0.00000000000E+00  0.00000000000E+00  0.99063361602E+02  0.15949602688E+03  0.12500173191E+03 0.  0.
    9000005    1    3    3    0    0 -0.53078608324E+02  0.32207695343E+02  0.58615511684E+02  0.85390002406E+02  0.10000000000E+01 0.  0.
    9000005    1    3    3    0    0  0.53078608324E+02 -0.32207695343E+02  0.40447849918E+02  0.74106024477E+02  0.10000000000E+01 0.  0.
<mgrwt>
<rscale>  0 0.12500173E+03</rscale>
<asrwt>0</asrwt>
<pdfrwt beam="1">  1        4 0.19889183E-01 0.12500173E+03</pdfrwt>
<pdfrwt beam="2">  1       -4 0.46486667E-02 0.12500173E+03</pdfrwt>
<totfact> 0.97436242E+03</totfact>
</mgrwt>
</event>
<event>
 5    1  0.3191162E-002  0.1249956E+03  0.7818608E-02  0.1235076E+00
         -4   -1    0    0    0  501 -0.00000000000E+00  0.00000000000E+00  0.27445015835E+02  0.27474384327E+02  0.12700000000E+01 0. -1.
          4   -1    0    0  501    0  0.00000000000E+00 -0.00000000000E+00 -0.14221170253E+03  0.14221737319E+03  0.12700000000E+01 0. -1.
         25    2    1    2    0    0  0.00000000000E+00  0.00000000000E+00 -0.11476668670E+03  0.16969175752E+03  0.12499560070E+03 0.  0.
    9000005    1    3    3    0    0  0.43586188540E+02  0.13327918261E+02  0.65365043451E+00  0.45594040132E+02  0.10000000000E+01 0.  0.
    9000005    1    3    3    0    0 -0.43586188540E+02 -0.13327918261E+02 -0.11542033713E+03  0.12409771738E+03  0.10000000000E+01 0.  0.
<mgrwt>
<rscale>  0 0.12499560E+03</rscale>
<asrwt>0</asrwt>
<pdfrwt beam="2">  1        4 0.21881418E-01 0.12499560E+03</pdfrwt>
<pdfrwt beam="1">  1       -4 0.42250055E-02 0.12499560E+03</pdfrwt>
<totfact> 0.95515551E+03</totfact>
</mgrwt>
</event>
<event>
 5    1  0.3191162E-002  0.1250034E+03  0.7818608E-02  0.1235064E+00
         -4   -1    0    0    0  501 -0.00000000000E+00  0.00000000000E+00  0.34802015562E+02  0.34825180361E+02  0.12700000000E+01 0. -1.
          4   -1    0    0  501    0  0.00000000000E+00 -0.00000000000E+00 -0.11218409556E+03  0.11219128396E+03  0.12700000000E+01 0. -1.
         25    2    1    2    0    0  0.00000000000E+00  0.00000000000E+00 -0.77382079997E+02  0.14701646432E+03  0.12500341786E+03 0.  0.
    9000005    1    3    3    0    0 -0.16571201896E+02 -0.29562581873E+02 -0.10044368847E+03  0.10601172356E+03  0.10000000000E+01 0.  0.
    9000005    1    3    3    0    0  0.16571201896E+02  0.29562581873E+02  0.23061608473E+02  0.41004740758E+02  0.10000000000E+01 0.  0.
<mgrwt>
<rscale>  0 0.12500342E+03</rscale>
<asrwt>0</asrwt>
<pdfrwt beam="2">  1        4 0.17261426E-01 0.12500342E+03</pdfrwt>
<pdfrwt beam="1">  1       -4 0.53564911E-02 0.12500342E+03</pdfrwt>
<totfact> 0.99894094E+03</totfact>
</mgrwt>
</event>
<event>
 5    1  0.3191162E-002  0.1249968E+03  0.7818608E-02  0.1235074E+00
         -4   -1    0    0    0  501 -0.00000000000E+00  0.00000000000E+00  0.13265552434E+03  0.13266160348E+03  0.12700000000E+01 0.  1.
          4   -1    0    0  501    0  0.00000000000E+00 -0.00000000000E+00 -0.29424631438E+02  0.29452025995E+02  0.12700000000E+01 0.  1.
         25    2    1    2    0    0  0.00000000000E+00  0.00000000000E+00  0.10323089291E+03  0.16211362948E+03  0.12499684641E+03 0.  0.
    9000005    1    3    3    0    0 -0.30016648946E-01  0.14803678638E+02  0.13035490605E+03  0.13119661327E+03  0.10000000000E+01 0.  0.
    9000005    1    3    3    0    0  0.30016648946E-01 -0.14803678638E+02 -0.27124013144E+02  0.30917016209E+02  0.10000000000E+01 0.  0.
<mgrwt>
<rscale>  0 0.12499685E+03</rscale>
<asrwt>0</asrwt>
<pdfrwt beam="2">  1        4 0.45294413E-02 0.12499685E+03</pdfrwt>
<pdfrwt beam="1">  1       -4 0.20411117E-01 0.12499685E+03</pdfrwt>
<totfact> 0.96943705E+03</totfact>
</mgrwt>
</event>
<event>
 5    1  0.3191162E-002  0.1249977E+03  0.7818608E-02  0.1235073E+00
          4   -1    0    0  501    0  0.00000000000E+00  0.00000000000E+00  0.88916726550E+02  0.88925795809E+02  0.12700000000E+01 0.  1.
         -4   -1    0    0    0  501 -0.00000000000E+00 -0.00000000000E+00 -0.43909444549E+02  0.43927806918E+02  0.12700000000E+01 0.  1.
         25    2    1    2    0    0  0.00000000000E+00  0.00000000000E+00  0.45007282001E+02  0.13285360273E+03  0.12499769728E+03 0.  0.
    9000005    1    3    3    0    0 -0.59913788877E+02  0.17739087728E+01  0.37210548043E+01  0.60063758614E+02  0.10000000000E+01 0.  0.
    9000005    1    3    3    0    0  0.59913788877E+02 -0.17739087728E+01  0.41286227196E+02  0.72789844113E+02  0.10000000000E+01 0.  0.
<mgrwt>
<rscale>  0 0.12499770E+03</rscale>
<asrwt>0</asrwt>
<pdfrwt beam="1">  1        4 0.13681606E-01 0.12499770E+03</pdfrwt>
<pdfrwt beam="2">  1       -4 0.67574094E-02 0.12499770E+03</pdfrwt>
<totfact> 0.10284047E+04</totfact>
</mgrwt>
</event>
<event>
 5    1  0.3191162E-002  0.1250434E+03  0.7818608E-02  0.1235001E+00
          4   -1    0    0  501    0  0.00000000000E+00  0.00000000000E+00  0.20271724303E+02  0.20311467358E+02  0.12700000000E+01 0. -1.
         -4   -1    0    0    0  501 -0.00000000000E+00 -0.00000000000E+00 -0.19259776798E+03  0.19260195516E+03  0.12700000000E+01 0. -1.
         25    2    1    2    0    0  0.00000000000E+00  0.00000000000E+00 -0.17232604368E+03  0.21291342252E+03  0.12504343309E+03 0.  0.
    9000005    1    3    3    0    0  0.48681162541E+02  0.38639665387E+02 -0.97596059104E+02  0.11571028511E+03  0.10000000000E+01 0.  0.
    9000005    1    3    3    0    0 -0.48681162541E+02 -0.38639665387E+02 -0.74729984576E+02  0.97203137409E+02  0.10000000000E+01 0.  0.
<mgrwt>
<rscale>  0 0.12504343E+03</rscale>
<asrwt>0</asrwt>
<pdfrwt beam="1">  1        4 0.31221062E-02 0.12504343E+03</pdfrwt>
<pdfrwt beam="2">  1       -4 0.29633804E-01 0.12504343E+03</pdfrwt>
<totfact> 0.87916906E+03</totfact>
</mgrwt>
</event>
<event>
 5    1  0.3191162E-002  0.1249987E+03  0.7818608E-02  0.1235071E+00
         -4   -1    0    0    0  501 -0.00000000000E+00  0.00000000000E+00  0.37514241131E+02  0.37535732145E+02  0.12700000000E+01 0.  1.
          4   -1    0    0  501    0  0.00000000000E+00 -0.00000000000E+00 -0.10406985572E+03  0.10407760455E+03  0.12700000000E+01 0.  1.
         25    2    1    2    0    0  0.00000000000E+00  0.00000000000E+00 -0.66555614587E+02  0.14161333670E+03  0.12499874918E+03 0.  0.
    9000005    1    3    3    0    0  0.43323006670E+02 -0.14189985191E+01  0.17719555748E+02  0.46838863347E+02  0.10000000000E+01 0.  0.
    9000005    1    3    3    0    0 -0.43323006670E+02  0.14189985191E+01 -0.84275170335E+02  0.94774473350E+02  0.10000000000E+01 0.  0.
<mgrwt>
<rscale>  0 0.12499875E+03</rscale>
<asrwt>0</asrwt>
<pdfrwt beam="2">  1        4 0.16012996E-01 0.12499875E+03</pdfrwt>
<pdfrwt beam="1">  1       -4 0.57736710E-02 0.12499875E+03</pdfrwt>
<totfact> 0.10100542E+04</totfact>
</mgrwt>
</event>
<event>
 5    1  0.3191162E-002  0.1250005E+03  0.7818608E-02  0.1235068E+00
         -4   -1    0    0    0  501 -0.00000000000E+00  0.00000000000E+00  0.12590359096E+03  0.12590999610E+03  0.12700000000E+01 0. -1.
          4   -1    0    0  501    0  0.00000000000E+00 -0.00000000000E+00 -0.31005785872E+02  0.31031784634E+02  0.12700000000E+01 0. -1.
         25    2    1    2    0    0  0.00000000000E+00  0.00000000000E+00  0.94897805088E+02  0.15694178073E+03  0.12500051651E+03 0.  0.
    9000005    1    3    3    0    0 -0.19697564011E+02 -0.58814574799E+02  0.37876035211E+02  0.72682475743E+02  0.10000000000E+01 0.  0.
    9000005    1    3    3    0    0  0.19697564011E+02  0.58814574799E+02  0.57021769877E+02  0.84259304986E+02  0.10000000000E+01 0.  0.
<mgrwt>
<rscale>  0 0.12500052E+03</rscale>
<asrwt>0</asrwt>
<pdfrwt beam="2">  1        4 0.47726135E-02 0.12500052E+03</pdfrwt>
<pdfrwt beam="1">  1       -4 0.19372276E-01 0.12500052E+03</pdfrwt>
<totfact> 0.97934509E+03</totfact>
</mgrwt>
</event>
<event>
 5    1  0.3191162E-002  0.1250003E+03  0.7818608E-02  0.1235069E+00
          4   -1    0    0  501    0  0.00000000000E+00  0.00000000000E+00  0.45994611037E+02  0.46012141272E+02  0.12700000000E+01 0.  1.
         -4   -1    0    0    0  501 -0.00000000000E+00 -0.00000000000E+00 -0.84890370457E+02  0.84899869825E+02  0.12700000000E+01 0.  1.
         25    2    1    2    0    0  0.00000000000E+00  0.00000000000E+00 -0.38895759420E+02  0.13091201110E+03  0.12500029819E+03 0.  0.
    9000005    1    3    3    0    0  0.60658490053E+01  0.59608953838E+01  0.45390859331E+02  0.46191524209E+02  0.10000000000E+01 0.  0.
    9000005    1    3    3    0    0 -0.60658490053E+01 -0.59608953838E+01 -0.84286618752E+02  0.84720486888E+02  0.10000000000E+01 0.  0.
<mgrwt>
<rscale>  0 0.12500030E+03</rscale>
<asrwt>0</asrwt>
<pdfrwt beam="1">  1        4 0.70781732E-02 0.12500030E+03</pdfrwt>
<pdfrwt beam="2">  1       -4 0.13062136E-01 0.12500030E+03</pdfrwt>
<totfact> 0.10324907E+04</totfact>
</mgrwt>
</event>
<event>
 5    1  0.3191162E-002  0.1249961E+03  0.7818608E-02  0.1235075E+00
          4   -1    0    0  501    0  0.00000000000E+00  0.00000000000E+00  0.14104800819E+02  0.14161860970E+02  0.12700000000E+01 0. -1.
         -4   -1    0    0    0  501 -0.00000000000E+00 -0.00000000000E+00 -0.27630978715E+03  0.27631270578E+03  0.12700000000E+01 0. -1.
         25    2    1    2    0    0  0.00000000000E+00  0.00000000000E+00 -0.26220498633E+03  0.29047456675E+03  0.12499607622E+03 0.  0.
    9000005    1    3    3    0    0 -0.28906263688E+02  0.45215540124E+02 -0.56702817533E+02  0.78078336722E+02  0.10000000000E+01 0.  0.
    9000005    1    3    3    0    0  0.28906263688E+02 -0.45215540124E+02 -0.20550216880E+03  0.21239623003E+03  0.10000000000E+01 0.  0.
<mgrwt>
<rscale>  0 0.12499608E+03</rscale>
<asrwt>0</asrwt>
<pdfrwt beam="1">  1        4 0.21745833E-02 0.12499608E+03</pdfrwt>
<pdfrwt beam="2">  1       -4 0.42513808E-01 0.12499608E+03</pdfrwt>
<totfact> 0.76816137E+03</totfact>
</mgrwt>
</event>
<event>
 5    1  0.3191162E-002  0.1250063E+03  0.7818608E-02  0.1235059E+00
          4   -1    0    0  501    0  0.00000000000E+00  0.00000000000E+00  0.26571568538E+02  0.26601901334E+02  0.12700000000E+01 0. -1.
         -4   -1    0    0    0  501 -0.00000000000E+00 -0.00000000000E+00 -0.14690654459E+03  0.14691203403E+03  0.12700000000E+01 0. -1.
         25    2    1    2    0    0  0.00000000000E+00  0.00000000000E+00 -0.12033497605E+03  0.17351393537E+03  0.12500631706E+03 0.  0.
    9000005    1    3    3    0    0  0.26330252487E+02  0.48169060593E+02 -0.18709311210E+02  0.58004990478E+02  0.10000000000E+01 0.  0.
    9000005    1    3    3    0    0 -0.26330252487E+02 -0.48169060593E+02 -0.10162566485E+03  0.11550894489E+03  0.10000000000E+01 0.  0.
<mgrwt>
<rscale>  0 0.12500632E+03</rscale>
<asrwt>0</asrwt>
<pdfrwt beam="1">  1        4 0.40906893E-02 0.12500632E+03</pdfrwt>
<pdfrwt beam="2">  1       -4 0.22603762E-01 0.12500632E+03</pdfrwt>
<totfact> 0.94784282E+03</totfact>
</mgrwt>
</event>
<event>
 5    1  0.3191162E-002  0.1249972E+03  0.7818608E-02  0.1235074E+00
          4   -1    0    0  501    0  0.00000000000E+00  0.00000000000E+00  0.50043941187E+02  0.50060053431E+02  0.12700000000E+01 0. -1.
         -4   -1    0    0    0  501 -0.00000000000E+00 -0.00000000000E+00 -0.78019038532E+02  0.78029374427E+02  0.12700000000E+01 0. -1.
         25    2    1    2    0    0  0.00000000000E+00  0.00000000000E+00 -0.27975097345E+02  0.12808942786E+03  0.12499718180E+03 0.  0.
    9000005    1    3    3    0    0 -0.53676163028E+02  0.28882450141E+02 -0.28103204177E+02  0.67127613458E+02  0.10000000000E+01 0.  0.
    9000005    1    3    3    0    0  0.53676163028E+02 -0.28882450141E+02  0.12810683169E+00  0.60961814400E+02  0.10000000000E+01 0.  0.
<mgrwt>
<rscale>  0 0.12499718E+03</rscale>
<asrwt>0</asrwt>
<pdfrwt beam="1">  1        4 0.77011023E-02 0.12499718E+03</pdfrwt>
<pdfrwt beam="2">  1       -4 0.12004964E-01 0.12499718E+03</pdfrwt>
<totfact> 0.10386217E+04</totfact>
</mgrwt>
</event>
<event>
 5    1  0.3191162E-002  0.1250003E+03  0.7818608E-02  0.1235069E+00
         -4   -1    0    0    0  501 -0.00000000000E+00  0.00000000000E+00  0.48855442300E+02  0.48871946373E+02  0.12700000000E+01 0. -1.
          4   -1    0    0  501    0  0.00000000000E+00 -0.00000000000E+00 -0.79920568468E+02  0.79930658475E+02  0.12700000000E+01 0. -1.
         25    2    1    2    0    0  0.00000000000E+00  0.00000000000E+00 -0.31065126168E+02  0.12880260485E+03  0.12500027581E+03 0.  0.
    9000005    1    3    3    0    0 -0.16051740669E+02  0.59653136424E+02 -0.25259636525E+02  0.66747316808E+02  0.10000000000E+01 0.  0.
    9000005    1    3    3    0    0  0.16051740669E+02 -0.59653136424E+02 -0.58054896432E+01  0.62055288040E+02  0.10000000000E+01 0.  0.
<mgrwt>
<rscale>  0 0.12500028E+03</rscale>
<asrwt>0</asrwt>
<pdfrwt beam="2">  1        4 0.12297518E-01 0.12500028E+03</pdfrwt>
<pdfrwt beam="1">  1       -4 0.75182676E-02 0.12500028E+03</pdfrwt>
<totfact> 0.10370126E+04</totfact>
</mgrwt>
</event>
<event>
 5    1  0.3191162E-002  0.1249992E+03  0.7818608E-02  0.1235070E+00
         -4   -1    0    0    0  501 -0.00000000000E+00  0.00000000000E+00  0.38709727582E+02  0.38730555243E+02  0.12700000000E+01 0. -1.
          4   -1    0    0  501    0  0.00000000000E+00 -0.00000000000E+00 -0.10085811148E+03  0.10086610705E+03  0.12700000000E+01 0. -1.
         25    2    1    2    0    0  0.00000000000E+00  0.00000000000E+00 -0.62148383897E+02  0.13959666229E+03  0.12499922601E+03 0.  0.
    9000005    1    3    3    0    0 -0.19472482974E+02  0.65048936041E+01  0.34841487443E+02  0.40452694363E+02  0.10000000000E+01 0.  0.
    9000005    1    3    3    0    0  0.19472482974E+02 -0.65048936041E+01 -0.96989871341E+02  0.99143967929E+02  0.10000000000E+01 0.  0.
<mgrwt>
<rscale>  0 0.12499923E+03</rscale>
<asrwt>0</asrwt>
<pdfrwt beam="2">  1        4 0.15518850E-01 0.12499923E+03</pdfrwt>
<pdfrwt beam="1">  1       -4 0.59575599E-02 0.12499923E+03</pdfrwt>
<totfact> 0.10142129E+04</totfact>
</mgrwt>
</event>
<event>
 5    1  0.3191162E-002  0.1250067E+03  0.7818608E-02  0.1235059E+00
          4   -1    0    0  501    0  0.00000000000E+00  0.00000000000E+00  0.11917121866E+02  0.11984602353E+02  0.12700000000E+01 0. -1.
         -4   -1    0    0    0  501 -0.00000000000E+00 -0.00000000000E+00 -0.32682540227E+03  0.32682786978E+03  0.12700000000E+01 0. -1.
         25    2    1    2    0    0  0.00000000000E+00  0.00000000000E+00 -0.31490828040E+03  0.33881247213E+03  0.12500666466E+03 0.  0.
    9000005    1    3    3    0    0  0.51335024749E+02 -0.10547667794E+02 -0.24973083097E+03  0.25517254162E+03  0.10000000000E+01 0.  0.
    9000005    1    3    3    0    0 -0.51335024749E+02  0.10547667794E+02 -0.65177449433E+02  0.83639930514E+02  0.10000000000E+01 0.  0.
<mgrwt>
<rscale>  0 0.12500666E+03</rscale>
<asrwt>0</asrwt>
<pdfrwt beam="1">  1        4 0.18387842E-02 0.12500666E+03</pdfrwt>
<pdfrwt beam="2">  1       -4 0.50286205E-01 0.12500666E+03</pdfrwt>
<totfact> 0.70962643E+03</totfact>
</mgrwt>
</event>
<event>
 5    1  0.3191162E-002  0.1250072E+03  0.7818608E-02  0.1235058E+00
         -4   -1    0    0    0  501 -0.00000000000E+00  0.00000000000E+00  0.10931897192E+02  0.11005420311E+02  0.12700000000E+01 0. -1.
          4   -1    0    0  501    0  0.00000000000E+00 -0.00000000000E+00 -0.35609488973E+03  0.35609715443E+03  0.12700000000E+01 0. -1.
         25    2    1    2    0    0  0.00000000000E+00  0.00000000000E+00 -0.34516299254E+03  0.36710257474E+03  0.12500723564E+03 0.  0.
    9000005    1    3    3    0    0 -0.20724752878E+02 -0.10616700847E+02 -0.34289387749E+03  0.34368508978E+03  0.10000000000E+01 0.  0.
    9000005    1    3    3    0    0  0.20724752878E+02  0.10616700847E+02 -0.22691150518E+01  0.23417484960E+02  0.10000000000E+01 0.  0.
<mgrwt>
<rscale>  0 0.12500724E+03</rscale>
<asrwt>0</asrwt>
<pdfrwt beam="2">  1        4 0.54789650E-01 0.12500724E+03</pdfrwt>
<pdfrwt beam="1">  1       -4 0.16876604E-02 0.12500724E+03</pdfrwt>
<totfact> 0.67872300E+03</totfact>
</mgrwt>
</event>
<event>
 5    1  0.3191162E-002  0.1249964E+03  0.7818608E-02  0.1235075E+00
          4   -1    0    0  501    0  0.00000000000E+00  0.00000000000E+00  0.52346176247E+01  0.53864758123E+01  0.12700000000E+01 0.  1.
         -4   -1    0    0    0  501 -0.00000000000E+00 -0.00000000000E+00 -0.73537035209E+03  0.73537144875E+03  0.12700000000E+01 0.  1.
         25    2    1    2    0    0  0.00000000000E+00  0.00000000000E+00 -0.73013573447E+03  0.74075792456E+03  0.12499644817E+03 0.  0.
    9000005    1    3    3    0    0 -0.37884650501E+02  0.25268733121E+02 -0.61867128859E+03  0.62034580594E+03  0.10000000000E+01 0.  0.
    9000005    1    3    3    0    0  0.37884650501E+02 -0.25268733121E+02 -0.11146444588E+03  0.12041211862E+03  0.10000000000E+01 0.  0.
<mgrwt>
<rscale>  0 0.12499645E+03</rscale>
<asrwt>0</asrwt>
<pdfrwt beam="1">  1        4 0.81709213E-03 0.12499645E+03</pdfrwt>
<pdfrwt beam="2">  1       -4 0.11314558E+00 0.12499645E+03</pdfrwt>
<totfact> 0.41023345E+03</totfact>
</mgrwt>
</event>
<event>
 5    1  0.3191162E-002  0.1250079E+03  0.7818608E-02  0.1235057E+00
         -4   -1    0    0    0  501 -0.00000000000E+00  0.00000000000E+00  0.26141069218E+02  0.26171900960E+02  0.12700000000E+01 0. -1.
          4   -1    0    0  501    0  0.00000000000E+00 -0.00000000000E+00 -0.14932678732E+03  0.14933218779E+03  0.12700000000E+01 0. -1.
         25    2    1    2    0    0  0.00000000000E+00  0.00000000000E+00 -0.12318571810E+03  0.17550408875E+03  0.12500785585E+03 0.  0.
    9000005    1    3    3    0    0  0.11155925508E+02  0.48732093719E+02 -0.89408348204E+01  0.50795769110E+02  0.10000000000E+01 0.  0.
    9000005    1    3    3    0    0 -0.11155925508E+02 -0.48732093719E+02 -0.11424488328E+03  0.12470831964E+03  0.10000000000E+01 0.  0.
<mgrwt>
<rscale>  0 0.12500786E+03</rscale>
<asrwt>0</asrwt>
<pdfrwt beam="2">  1        4 0.22976138E-01 0.12500786E+03</pdfrwt>
<pdfrwt beam="1">  1       -4 0.40244901E-02 0.12500786E+03</pdfrwt>
<totfact> 0.94415960E+03</totfact>
</mgrwt>
</event>
<event>
 5    1  0.3191162E-002  0.1250093E+03  0.7818608E-02  0.1235055E+00
          4   -1    0    0  501    0  0.00000000000E+00  0.00000000000E+00  0.46696195405E+03  0.46696368106E+03  0.12700000000E+01 0. -1.
         -4   -1    0    0    0  501 -0.00000000000E+00 -0.00000000000E+00 -0.83165389206E+01  0.84129495195E+01  0.12700000000E+01 0. -1.
         25    2    1    2    0    0  0.00000000000E+00  0.00000000000E+00  0.45864541513E+03  0.47537663058E+03  0.12500929599E+03 0.  0.
    9000005    1    3    3    0    0  0.53930041060E+02  0.31332745966E+02  0.24436187936E+03  0.25219817284E+03  0.10000000000E+01 0.  0.
    9000005    1    3    3    0    0 -0.53930041060E+02 -0.31332745966E+02  0.21428353577E+03  0.22317845775E+03  0.10000000000E+01 0.  0.
<mgrwt>
<rscale>  0 0.12500930E+03</rscale>
<asrwt>0</asrwt>
<pdfrwt beam="1">  1        4 0.71847870E-01 0.12500930E+03</pdfrwt>
<pdfrwt beam="2">  1       -4 0.12870162E-02 0.12500930E+03</pdfrwt>
<totfact> 0.57814924E+03</totfact>
</mgrwt>
</event>
<event>
 5    1  0.3191162E-002  0.1250046E+03  0.7818608E-02  0.1235062E+00
          4   -1    0    0  501    0  0.00000000000E+00  0.00000000000E+00  0.39237948952E+03  0.39238154479E+03  0.12700000000E+01 0. -1.
         -4   -1    0    0    0  501 -0.00000000000E+00 -0.00000000000E+00 -0.99134349298E+01  0.99944530669E+01  0.12700000000E+01 0. -1.
         25    2    1    2    0    0  0.00000000000E+00  0.00000000000E+00  0.38246605459E+03  0.40237599786E+03  0.12500464288E+03 0.  0.
    9000005    1    3    3    0    0 -0.20976251458E+02  0.57745063975E+02  0.15438488776E+03  0.16616314004E+03  0.10000000000E+01 0.  0.
    9000005    1    3    3    0    0  0.20976251458E+02 -0.57745063975E+02  0.22808116683E+03  0.23621285782E+03  0.10000000000E+01 0.  0.
<mgrwt>
<rscale>  0 0.12500464E+03</rscale>
<asrwt>0</asrwt>
<pdfrwt beam="1">  1        4 0.60372463E-01 0.12500464E+03</pdfrwt>
<pdfrwt beam="2">  1       -4 0.15315342E-02 0.12500464E+03</pdfrwt>
<totfact> 0.64315764E+03</totfact>
</mgrwt>
</event>
<event>
 5    1  0.3191162E-002  0.1249974E+03  0.7818608E-02  0.1235073E+00
          4   -1    0    0  501    0  0.00000000000E+00  0.00000000000E+00  0.52975125420E+01  0.54476177484E+01  0.12700000000E+01 0.  1.
         -4   -1    0    0    0  501 -0.00000000000E+00 -0.00000000000E+00 -0.72689261301E+03  0.72689372246E+03  0.12700000000E+01 0.  1.
         25    2    1    2    0    0  0.00000000000E+00  0.00000000000E+00 -0.72159510047E+03  0.73234134021E+03  0.12499739820E+03 0.  0.
    9000005    1    3    3    0    0  0.80640004434E+01  0.61891524779E+02 -0.34274083029E+03  0.34837891109E+03  0.10000000000E+01 0.  0.
    9000005    1    3    3    0    0 -0.80640004434E+01 -0.61891524779E+02 -0.37885427018E+03  0.38396242912E+03  0.10000000000E+01 0.  0.
<mgrwt>
<rscale>  0 0.12499740E+03</rscale>
<asrwt>0</asrwt>
<pdfrwt beam="1">  1        4 0.82663440E-03 0.12499740E+03</pdfrwt>
<pdfrwt beam="2">  1       -4 0.11184119E+00 0.12499740E+03</pdfrwt>
<totfact> 0.41435709E+03</totfact>
</mgrwt>
</event>
<event>
 5    1  0.3191162E-002  0.1249990E+03  0.7818608E-02  0.1235071E+00
         -4   -1    0    0    0  501 -0.00000000000E+00  0.00000000000E+00  0.23274262481E+02  0.23308886590E+02  0.12700000000E+01 0. -1.
          4   -1    0    0  501    0  0.00000000000E+00 -0.00000000000E+00 -0.16767104505E+03  0.16767585470E+03  0.12700000000E+01 0. -1.
         25    2    1    2    0    0  0.00000000000E+00  0.00000000000E+00 -0.14439678257E+03  0.19098474129E+03  0.12499896235E+03 0.  0.
    9000005    1    3    3    0    0 -0.17350013321E+02 -0.12980250355E+02 -0.16175513996E+03  0.16320304888E+03  0.10000000000E+01 0.  0.
    9000005    1    3    3    0    0  0.17350013321E+02  0.12980250355E+02  0.17358357390E+02  0.27781692403E+02  0.10000000000E+01 0.  0.
<mgrwt>
<rscale>  0 0.12499896E+03</rscale>
<asrwt>0</asrwt>
<pdfrwt beam="2">  1        4 0.25798578E-01 0.12499896E+03</pdfrwt>
<pdfrwt beam="1">  1       -4 0.35836892E-02 0.12499896E+03</pdfrwt>
<totfact> 0.91678386E+03</totfact>
</mgrwt>
</event>
<event>
 5    1  0.3191162E-002  0.1249918E+03  0.7818608E-02  0.1235082E+00
         -4   -1    0    0    0  501 -0.00000000000E+00  0.00000000000E+00  0.55894113265E+02  0.55908539578E+02  0.12700000000E+01 0.  1.
          4   -1    0    0  501    0  0.00000000000E+00 -0.00000000000E+00 -0.69848222551E+02  0.69859767345E+02  0.12700000000E+01 0.  1.
         25    2    1    2    0    0  0.00000000000E+00  0.00000000000E+00 -0.13954109285E+02  0.12576830692E+03  0.12499179917E+03 0.  0.
    9000005    1    3    3    0    0 -0.33290804040E+02 -0.37112567501E+02  0.30928147901E+02  0.58678536389E+02  0.10000000000E+01 0.  0.
    9000005    1    3    3    0    0  0.33290804040E+02  0.37112567501E+02 -0.44882257186E+02  0.67089770534E+02  0.10000000000E+01 0.  0.
<mgrwt>
<rscale>  0 0.12499180E+03</rscale>
<asrwt>0</asrwt>
<pdfrwt beam="2">  1        4 0.10747878E-01 0.12499180E+03</pdfrwt>
<pdfrwt beam="1">  1       -4 0.86010921E-02 0.12499180E+03</pdfrwt>
<totfact> 0.10437973E+04</totfact>
</mgrwt>
</event>
<event>
 5    1  0.3191162E-002  0.1249960E+03  0.7818608E-02  0.1235076E+00
          4   -1    0    0  501    0  0.00000000000E+00  0.00000000000E+00  0.77427365680E+00  0.14874137607E+01  0.12700000000E+01 0.  1.
         -4   -1    0    0    0  501 -0.00000000000E+00 -0.00000000000E+00 -0.34533448893E+04  0.34533451228E+04  0.12700000000E+01 0.  1.
         25    2    1    2    0    0  0.00000000000E+00  0.00000000000E+00 -0.34525706156E+04  0.34548325366E+04  0.12499599939E+03 0.  0.
    9000005    1    3    3    0    0  0.50091229333E+02 -0.37178565758E+02 -0.16242697059E+04  0.16254674573E+04  0.10000000000E+01 0.  0.
    9000005    1    3    3    0    0 -0.50091229333E+02  0.37178565758E+02 -0.18283009097E+04  0.18293650793E+04  0.10000000000E+01 0.  0.
<mgrwt>
<rscale>  0 0.12499600E+03</rscale>
<asrwt>0</asrwt>
<pdfrwt beam="1">  1        4 0.17399668E-03 0.12499600E+03</pdfrwt>
<pdfrwt beam="2">  1       -4 0.53133026E+00 0.12499600E+03</pdfrwt>
<totfact> 0.64584601E+01</totfact>
</mgrwt>
</event>
<event>
 5    1  0.3191162E-002  0.1250003E+03  0.7818608E-02  0.1235069E+00
         -4   -1    0    0    0  501 -0.00000000000E+00  0.00000000000E+00  0.16893633499E+03  0.16894110862E+03  0.12700000000E+01 0.  1.
          4   -1    0    0  501    0  0.00000000000E+00 -0.00000000000E+00 -0.23100183860E+02  0.23135068497E+02  0.12700000000E+01 0.  1.
         25    2    1    2    0    0  0.00000000000E+00  0.00000000000E+00  0.14583615113E+03  0.19207617712E+03  0.12500029935E+03 0.  0.
    9000005    1    3    3    0    0  0.48035860786E+02 -0.37397734051E+02  0.51228828384E+02  0.79570266376E+02  0.10000000000E+01 0.  0.
    9000005    1    3    3    0    0 -0.48035860786E+02  0.37397734051E+02  0.94607322751E+02  0.11250591074E+03  0.10000000000E+01 0.  0.
<mgrwt>
<rscale>  0 0.12500030E+03</rscale>
<asrwt>0</asrwt>
<pdfrwt beam="2">  1        4 0.35569253E-02 0.12500030E+03</pdfrwt>
<pdfrwt beam="1">  1       -4 0.25993255E-01 0.12500030E+03</pdfrwt>
<totfact> 0.91486704E+03</totfact>
</mgrwt>
</event>
<event>
 5    1  0.3191162E-002  0.1249997E+03  0.7818608E-02  0.1235070E+00
         -4   -1    0    0    0  501 -0.00000000000E+00  0.00000000000E+00  0.12866034026E+04  0.12866040294E+04  0.12700000000E+01 0.  1.
          4   -1    0    0  501    0  0.00000000000E+00 -0.00000000000E+00 -0.29026122117E+01  0.31682893889E+01  0.12700000000E+01 0.  1.
         25    2    1    2    0    0  0.00000000000E+00  0.00000000000E+00  0.12837007904E+04  0.12897723188E+04  0.12499966034E+03 0.  0.
    9000005    1    3    3    0    0 -0.24730987319E+01  0.94571339317E+01  0.12787165838E+04  0.12787543374E+04  0.10000000000E+01 0.  0.
    9000005    1    3    3    0    0  0.24730987319E+01 -0.94571339317E+01  0.49842065628E+01  0.11017981421E+02  0.10000000000E+01 0.  0.
<mgrwt>
<rscale>  0 0.12499966E+03</rscale>
<asrwt>0</asrwt>
<pdfrwt beam="2">  1        4 0.46704115E-03 0.12499966E+03</pdfrwt>
<pdfrwt beam="1">  1       -4 0.19795926E+00 0.12499966E+03</pdfrwt>
<totfact> 0.22471399E+03</totfact>
</mgrwt>
</event>
<event>
 5    1  0.3191162E-002  0.1250027E+03  0.7818608E-02  0.1235065E+00
          4   -1    0    0  501    0  0.00000000000E+00  0.00000000000E+00  0.19047839127E+02  0.19090130314E+02  0.12700000000E+01 0.  1.
         -4   -1    0    0    0  501 -0.00000000000E+00 -0.00000000000E+00 -0.20481299657E+03  0.20481693403E+03  0.12700000000E+01 0.  1.
         25    2    1    2    0    0  0.00000000000E+00  0.00000000000E+00 -0.18576515744E+03  0.22390706434E+03  0.12500271894E+03 0.  0.
    9000005    1    3    3    0    0  0.41486446220E+02  0.69390528955E+00 -0.17658848078E+03  0.18140038111E+03  0.10000000000E+01 0.  0.
    9000005    1    3    3    0    0 -0.41486446220E+02 -0.69390528955E+00 -0.91766766658E+01  0.42506683229E+02  0.10000000000E+01 0.  0.
<mgrwt>
<rscale>  0 0.12500272E+03</rscale>
<asrwt>0</asrwt>
<pdfrwt beam="1">  1        4 0.29339930E-02 0.12500272E+03</pdfrwt>
<pdfrwt beam="2">  1       -4 0.31513246E-01 0.12500272E+03</pdfrwt>
<totfact> 0.86248623E+03</totfact>
</mgrwt>
</event>
<event>
 5    1  0.3191162E-002  0.1249994E+03  0.7818608E-02  0.1235070E+00
          4   -1    0    0  501    0  0.00000000000E+00  0.00000000000E+00  0.20523590725E+03  0.20523983659E+03  0.12700000000E+01 0.  1.
         -4   -1    0    0    0  501 -0.00000000000E+00 -0.00000000000E+00 -0.19007487674E+02  0.19049868442E+02  0.12700000000E+01 0.  1.
         25    2    1    2    0    0  0.00000000000E+00  0.00000000000E+00  0.18622841957E+03  0.22428970503E+03  0.12499939011E+03 0.  0.
    9000005    1    3    3    0    0  0.31259511418E+02 -0.50938218409E+02  0.12587493113E+03  0.13934617841E+03  0.10000000000E+01 0.  0.
    9000005    1    3    3    0    0 -0.31259511418E+02  0.50938218409E+02  0.60353488440E+02  0.84943526626E+02  0.10000000000E+01 0.  0.
<mgrwt>
<rscale>  0 0.12499939E+03</rscale>
<asrwt>0</asrwt>
<pdfrwt beam="1">  1        4 0.31578318E-01 0.12499939E+03</pdfrwt>
<pdfrwt beam="2">  1       -4 0.29277911E-02 0.12499939E+03</pdfrwt>
<totfact> 0.86195251E+03</totfact>
</mgrwt>
</event>
<event>
 5    1  0.3191162E-002  0.1250022E+03  0.7818608E-02  0.1235066E+00
          4   -1    0    0  501    0  0.00000000000E+00  0.00000000000E+00  0.13427195794E+01  0.18481871845E+01  0.12700000000E+01 0. -1.
         -4   -1    0    0    0  501 -0.00000000000E+00 -0.00000000000E+00 -0.24479459690E+04  0.24479462985E+04  0.12700000000E+01 0. -1.
         25    2    1    2    0    0  0.00000000000E+00  0.00000000000E+00 -0.24466032494E+04  0.24497944856E+04  0.12500224685E+03 0.  0.
    9000005    1    3    3    0    0 -0.14875618346E+02  0.59822639148E+02 -0.10221395458E+04  0.10239972086E+04  0.10000000000E+01 0.  0.
    9000005    1    3    3    0    0  0.14875618346E+02 -0.59822639148E+02 -0.14244637036E+04  0.14257972770E+04  0.10000000000E+01 0.  0.
<mgrwt>
<rscale>  0 0.12500225E+03</rscale>
<asrwt>0</asrwt>
<pdfrwt beam="1">  1        4 0.24548167E-03 0.12500225E+03</pdfrwt>
<pdfrwt beam="2">  1       -4 0.37664297E+00 0.12500225E+03</pdfrwt>
<totfact> 0.50758099E+02</totfact>
</mgrwt>
</event>
<event>
 5    1  0.3191162E-002  0.1250085E+03  0.7818608E-02  0.1235056E+00
         -4   -1    0    0    0  501 -0.00000000000E+00  0.00000000000E+00  0.21202766250E+02  0.21240767327E+02  0.12700000000E+01 0. -1.
          4   -1    0    0  501    0  0.00000000000E+00 -0.00000000000E+00 -0.18405299415E+03  0.18405737572E+03  0.12700000000E+01 0. -1.
         25    2    1    2    0    0  0.00000000000E+00  0.00000000000E+00 -0.16285022790E+03  0.20529814305E+03  0.12500852295E+03 0.  0.
    9000005    1    3    3    0    0  0.53898532153E+02  0.31403238241E+02 -0.75156971749E+02  0.97676944786E+02  0.10000000000E+01 0.  0.
    9000005    1    3    3    0    0 -0.53898532153E+02 -0.31403238241E+02 -0.87693256153E+02  0.10762119826E+03  0.10000000000E+01 0.  0.
<mgrwt>
<rscale>  0 0.12500852E+03</rscale>
<asrwt>0</asrwt>
<pdfrwt beam="2">  1        4 0.28319104E-01 0.12500852E+03</pdfrwt>
<pdfrwt beam="1">  1       -4 0.32652244E-02 0.12500852E+03</pdfrwt>
<totfact> 0.89232548E+03</totfact>
</mgrwt>
</event>
<event>
 5    1  0.3191162E-002  0.1249884E+03  0.7818608E-02  0.1235087E+00
         -4   -1    0    0    0  501 -0.00000000000E+00  0.00000000000E+00  0.30221427053E+01  0.32781468135E+01  0.12700000000E+01 0. -1.
          4   -1    0    0  501    0  0.00000000000E+00 -0.00000000000E+00 -0.12395362261E+04  0.12395368767E+04  0.12700000000E+01 0. -1.
         25    2    1    2    0    0  0.00000000000E+00  0.00000000000E+00 -0.12365140834E+04  0.12428150235E+04  0.12498841647E+03 0.  0.
    9000005    1    3    3    0    0 -0.26451456516E+02 -0.49467908318E+02 -0.89197681109E+03  0.89373955100E+03  0.10000000000E+01 0.  0.
    9000005    1    3    3    0    0  0.26451456516E+02  0.49467908318E+02 -0.34453727229E+03  0.34907547250E+03  0.10000000000E+01 0.  0.
<mgrwt>
<rscale>  0 0.12498842E+03</rscale>
<asrwt>0</asrwt>
<pdfrwt beam="2">  1        4 0.19071723E+00 0.12498842E+03</pdfrwt>
<pdfrwt beam="1">  1       -4 0.48468869E-03 0.12498842E+03</pdfrwt>
<totfact> 0.23624789E+03</totfact>
</mgrwt>
</event>
<event>
 5    1  0.3191162E-002  0.1249951E+03  0.7818608E-02  0.1235077E+00
          4   -1    0    0  501    0  0.00000000000E+00  0.00000000000E+00  0.89609333316E+01  0.90504820962E+01  0.12700000000E+01 0. -1.
         -4   -1    0    0    0  501 -0.00000000000E+00 -0.00000000000E+00 -0.43362830304E+03  0.43363016281E+03  0.12700000000E+01 0. -1.
         25    2    1    2    0    0  0.00000000000E+00  0.00000000000E+00 -0.42466736971E+03  0.44268064491E+03  0.12499511382E+03 0.  0.
    9000005    1    3    3    0    0 -0.21815717331E+02 -0.45280365320E+02 -0.34383605624E+03  0.34749168418E+03  0.10000000000E+01 0.  0.
    9000005    1    3    3    0    0  0.21815717331E+02  0.45280365320E+02 -0.80831313471E+02  0.95188960723E+02  0.10000000000E+01 0.  0.
<mgrwt>
<rscale>  0 0.12499511E+03</rscale>
<asrwt>0</asrwt>
<pdfrwt beam="1">  1        4 0.13856369E-02 0.12499511E+03</pdfrwt>
<pdfrwt beam="2">  1       -4 0.66719062E-01 0.12499511E+03</pdfrwt>
<totfact> 0.60609682E+03</totfact>
</mgrwt>
</event>
<event>
 5    1  0.3191162E-002  0.1250001E+03  0.7818608E-02  0.1235069E+00
          4   -1    0    0  501    0  0.00000000000E+00  0.00000000000E+00  0.68686820982E+01  0.69851051363E+01  0.12700000000E+01 0. -1.
         -4   -1    0    0    0  501 -0.00000000000E+00 -0.00000000000E+00 -0.56380921732E+03  0.56381064768E+03  0.12700000000E+01 0. -1.
         25    2    1    2    0    0  0.00000000000E+00  0.00000000000E+00 -0.55694053522E+03  0.57079575281E+03  0.12500012663E+03 0.  0.
    9000005    1    3    3    0    0 -0.52628097753E+02 -0.17588499243E+02 -0.14721728572E+03  0.15733086535E+03  0.10000000000E+01 0.  0.
    9000005    1    3    3    0    0  0.52628097753E+02  0.17588499243E+02 -0.40972324951E+03  0.41346488746E+03  0.10000000000E+01 0.  0.
<mgrwt>
<rscale>  0 0.12500013E+03</rscale>
<asrwt>0</asrwt>
<pdfrwt beam="1">  1        4 0.10657864E-02 0.12500013E+03</pdfrwt>
<pdfrwt beam="2">  1       -4 0.86748909E-01 0.12500013E+03</pdfrwt>
<totfact> 0.50764403E+03</totfact>
</mgrwt>
</event>
<event>
 5    1  0.3191162E-002  0.1250012E+03  0.7818608E-02  0.1235067E+00
          4   -1    0    0  501    0  0.00000000000E+00  0.00000000000E+00  0.74554047908E+03  0.74554156078E+03  0.12700000000E+01 0.  1.
         -4   -1    0    0    0  501 -0.00000000000E+00 -0.00000000000E+00 -0.51615284817E+01  0.53154751686E+01  0.12700000000E+01 0.  1.
         25    2    1    2    0    0  0.00000000000E+00  0.00000000000E+00  0.74037895060E+03  0.75085703595E+03  0.12500119176E+03 0.  0.
    9000005    1    3    3    0    0  0.62473214120E+02 -0.13087132345E+01  0.37524830040E+03  0.38041674800E+03  0.10000000000E+01 0.  0.
    9000005    1    3    3    0    0 -0.62473214120E+02  0.13087132345E+01  0.36513065020E+03  0.37044028794E+03  0.10000000000E+01 0.  0.
<mgrwt>
<rscale>  0 0.12500119E+03</rscale>
<asrwt>0</asrwt>
<pdfrwt beam="1">  1        4 0.11471044E+00 0.12500119E+03</pdfrwt>
<pdfrwt beam="2">  1       -4 0.80600673E-03 0.12500119E+03</pdfrwt>
<totfact> 0.40532127E+03</totfact>
</mgrwt>
</event>
<event>
 5    1  0.3191162E-002  0.1249985E+03  0.7818608E-02  0.1235072E+00
         -4   -1    0    0    0  501 -0.00000000000E+00  0.00000000000E+00  0.13450191115E+03  0.13450790684E+03  0.12700000000E+01 0. -1.
          4   -1    0    0  501    0  0.00000000000E+00 -0.00000000000E+00 -0.29021108839E+02  0.29048883941E+02  0.12700000000E+01 0. -1.
         25    2    1    2    0    0  0.00000000000E+00  0.00000000000E+00  0.10548080231E+03  0.16355679078E+03  0.12499849661E+03 0.  0.
    9000005    1    3    3    0    0  0.51840234226E+02  0.31786279740E+02  0.71583213934E+02  0.93930474189E+02  0.10000000000E+01 0.  0.
    9000005    1    3    3    0    0 -0.51840234226E+02 -0.31786279740E+02  0.33897588374E+02  0.69626316590E+02  0.10000000000E+01 0.  0.
<mgrwt>
<rscale>  0 0.12499850E+03</rscale>
<asrwt>0</asrwt>
<pdfrwt beam="2">  1        4 0.44673838E-02 0.12499850E+03</pdfrwt>
<pdfrwt beam="1">  1       -4 0.20695199E-01 0.12499850E+03</pdfrwt>
<totfact> 0.96664678E+03</totfact>
</mgrwt>
</event>
<event>
 5    1  0.3191162E-002  0.1249969E+03  0.7818608E-02  0.1235074E+00
         -4   -1    0    0    0  501 -0.00000000000E+00  0.00000000000E+00  0.64351815505E+02  0.64364346177E+02  0.12700000000E+01 0.  1.
          4   -1    0    0  501    0  0.00000000000E+00 -0.00000000000E+00 -0.60673350432E+02  0.60686640644E+02  0.12700000000E+01 0.  1.
         25    2    1    2    0    0  0.00000000000E+00  0.00000000000E+00  0.36784650722E+01  0.12505098682E+03  0.12499687276E+03 0.  0.
    9000005    1    3    3    0    0  0.34027659290E+02 -0.30968020170E+02 -0.40465652321E+02  0.61281064675E+02  0.10000000000E+01 0.  0.
    9000005    1    3    3    0    0 -0.34027659290E+02  0.30968020170E+02  0.44144117394E+02  0.63769922145E+02  0.10000000000E+01 0.  0.
<mgrwt>
<rscale>  0 0.12499687E+03</rscale>
<asrwt>0</asrwt>
<pdfrwt beam="2">  1        4 0.93363478E-02 0.12499687E+03</pdfrwt>
<pdfrwt beam="1">  1       -4 0.99022655E-02 0.12499687E+03</pdfrwt>
<totfact> 0.10452494E+04</totfact>
</mgrwt>
</event>
<event>
 4    1  0.3191162E-002  0.1251376E+03  0.7818608E-02  0.1234854E+00
          4   -1    0    0  501    0  0.00000000000E+00  0.00000000000E+00  0.83534078313E+02  0.83543731899E+02  0.12700000000E+01 0.  1.
         -4   -1    0    0    0  501 -0.00000000000E+00 -0.00000000000E+00 -0.46844426067E+02  0.46861638400E+02  0.12700000000E+01 0.  1.
    9000005    1    1    2    0    0 -0.16154729638E+02 -0.97804645981E+01 -0.43808325122E+02  0.47715847760E+02  0.10000000000E+01 0.  0.
    9000005    1    1    2    0    0  0.16154729638E+02  0.97804645981E+01  0.80497977368E+02  0.82689522539E+02  0.10000000000E+01 0.  0.
<mgrwt>
<rscale>  0 0.12513764E+03</rscale>
<asrwt>0</asrwt>
<pdfrwt beam="1">  1        4 0.12853463E-01 0.12513764E+03</pdfrwt>
<pdfrwt beam="2">  1       -4 0.72089014E-02 0.12513764E+03</pdfrwt>
<totfact> 0.10303797E+04</totfact>
</mgrwt>
</event>
<event>
 5    1  0.3191162E-002  0.1250199E+03  0.7818608E-02  0.1235038E+00
         -4   -1    0    0    0  501 -0.00000000000E+00  0.00000000000E+00  0.11527837139E+02  0.11597582899E+02  0.12700000000E+01 0. -1.
          4   -1    0    0  501    0  0.00000000000E+00 -0.00000000000E+00 -0.33786819125E+03  0.33787057812E+03  0.12700000000E+01 0. -1.
         25    2    1    2    0    0  0.00000000000E+00  0.00000000000E+00 -0.32634035411E+03  0.34946816102E+03  0.12501987380E+03 0.  0.
    9000005    1    3    3    0    0  0.12011035666E+02  0.28499884620E+02 -0.11346895308E+02  0.32958465290E+02  0.10000000000E+01 0.  0.
    9000005    1    3    3    0    0 -0.12011035666E+02 -0.28499884620E+02 -0.31499345880E+03  0.31650969573E+03  0.10000000000E+01 0.  0.
<mgrwt>
<rscale>  0 0.12501987E+03</rscale>
<asrwt>0</asrwt>
<pdfrwt beam="2">  1        4 0.51985263E-01 0.12501987E+03</pdfrwt>
<pdfrwt beam="1">  1       -4 0.17790623E-02 0.12501987E+03</pdfrwt>
<totfact> 0.69752424E+03</totfact>
</mgrwt>
</event>
<event>
 5    1  0.3191162E-002  0.1249978E+03  0.7818608E-02  0.1235073E+00
         -4   -1    0    0    0  501 -0.00000000000E+00  0.00000000000E+00  0.18207003264E+02  0.18251242913E+02  0.12700000000E+01 0. -1.
          4   -1    0    0  501    0  0.00000000000E+00 -0.00000000000E+00 -0.21423272988E+03  0.21423649421E+03  0.12700000000E+01 0. -1.
         25    2    1    2    0    0  0.00000000000E+00  0.00000000000E+00 -0.19602572662E+03  0.23248773712E+03  0.12499784965E+03 0.  0.
    9000005    1    3    3    0    0  0.77123468442E+01  0.43929197989E+02 -0.16602537516E+02  0.47601459870E+02  0.10000000000E+01 0.  0.
    9000005    1    3    3    0    0 -0.77123468442E+01 -0.43929197989E+02 -0.17942318910E+03  0.18488627725E+03  0.10000000000E+01 0.  0.
<mgrwt>
<rscale>  0 0.12499785E+03</rscale>
<asrwt>0</asrwt>
<pdfrwt beam="2">  1        4 0.32962572E-01 0.12499785E+03</pdfrwt>
<pdfrwt beam="1">  1       -4 0.28047702E-02 0.12499785E+03</pdfrwt>
<totfact> 0.84933136E+03</totfact>
</mgrwt>
</event>
<event>
 5    1  0.3191162E-002  0.1250067E+03  0.7818608E-02  0.1235059E+00
          4   -1    0    0  501    0  0.00000000000E+00  0.00000000000E+00  0.55028311548E+03  0.55028458100E+03  0.12700000000E+01 0.  1.
         -4   -1    0    0    0  501 -0.00000000000E+00 -0.00000000000E+00 -0.70410992657E+01  0.71547172459E+01  0.12700000000E+01 0.  1.
         25    2    1    2    0    0  0.00000000000E+00  0.00000000000E+00  0.54324201622E+03  0.55743929825E+03  0.12500673200E+03 0.  0.
    9000005    1    3    3    0    0 -0.25292097868E+02  0.35944639206E+02  0.73498537517E+02  0.85643110168E+02  0.10000000000E+01 0.  0.
    9000005    1    3    3    0    0  0.25292097868E+02 -0.35944639206E+02  0.46974347870E+03  0.47179618808E+03  0.10000000000E+01 0.  0.
<mgrwt>
<rscale>  0 0.12500673E+03</rscale>
<asrwt>0</asrwt>
<pdfrwt beam="1">  1        4 0.84667784E-01 0.12500673E+03</pdfrwt>
<pdfrwt beam="2">  1       -4 0.10920987E-02 0.12500673E+03</pdfrwt>
<totfact> 0.51661679E+03</totfact>
</mgrwt>
</event>
<event>
 5    1  0.3191162E-002  0.1250020E+03  0.7818608E-02  0.1235066E+00
         -4   -1    0    0    0  501 -0.00000000000E+00  0.00000000000E+00  0.16079841595E+03  0.16080343116E+03  0.12700000000E+01 0. -1.
          4   -1    0    0  501    0  0.00000000000E+00 -0.00000000000E+00 -0.24271628452E+02  0.24304831777E+02  0.12700000000E+01 0. -1.
         25    2    1    2    0    0  0.00000000000E+00  0.00000000000E+00  0.13652678750E+03  0.18510826294E+03  0.12500202119E+03 0.  0.
    9000005    1    3    3    0    0 -0.12585901405E+02  0.60337323824E+02  0.52989975581E+02  0.81289206372E+02  0.10000000000E+01 0.  0.
    9000005    1    3    3    0    0  0.12585901405E+02 -0.60337323824E+02  0.83536811921E+02  0.10381905657E+03  0.10000000000E+01 0.  0.
<mgrwt>
<rscale>  0 0.12500202E+03</rscale>
<asrwt>0</asrwt>
<pdfrwt beam="2">  1        4 0.37370365E-02 0.12500202E+03</pdfrwt>
<pdfrwt beam="1">  1       -4 0.24741158E-01 0.12500202E+03</pdfrwt>
<totfact> 0.92701297E+03</totfact>
</mgrwt>
</event>
<event>
 5    1  0.3191162E-002  0.1250006E+03  0.7818608E-02  0.1235068E+00
         -4   -1    0    0    0  501 -0.00000000000E+00  0.00000000000E+00  0.10759747664E+04  0.10759755159E+04  0.12700000000E+01 0.  1.
          4   -1    0    0  501    0  0.00000000000E+00 -0.00000000000E+00 -0.35186201495E+01  0.37408004165E+01  0.12700000000E+01 0.  1.
         25    2    1    2    0    0  0.00000000000E+00  0.00000000000E+00  0.10724561463E+04  0.10797163164E+04  0.12500055241E+03 0.  0.
    9000005    1    3    3    0    0 -0.61379110439E+01 -0.24791795181E+02  0.10288778149E+04  0.10291952512E+04  0.10000000000E+01 0.  0.
    9000005    1    3    3    0    0  0.61379110439E+01  0.24791795181E+02  0.43578331389E+02  0.50521065180E+02  0.10000000000E+01 0.  0.
<mgrwt>
<rscale>  0 0.12500055E+03</rscale>
<asrwt>0</asrwt>
<pdfrwt beam="2">  1        4 0.55847365E-03 0.12500055E+03</pdfrwt>
<pdfrwt beam="1">  1       -4 0.16555201E+00 0.12500055E+03</pdfrwt>
<totfact> 0.28084353E+03</totfact>
</mgrwt>
</event>
<event>
 5    1  0.3191162E-002  0.1249532E+03  0.7818608E-02  0.1235142E+00
         -4   -1    0    0    0  501 -0.00000000000E+00  0.00000000000E+00  0.12762765586E+02  0.12825797651E+02  0.12700000000E+01 0. -1.
          4   -1    0    0  501    0  0.00000000000E+00 -0.00000000000E+00 -0.30501927492E+03  0.30502191884E+03  0.12700000000E+01 0. -1.
         25    2    1    2    0    0  0.00000000000E+00  0.00000000000E+00 -0.29225650934E+03  0.31784771649E+03  0.12495320576E+03 0.  0.
    9000005    1    3    3    0    0  0.12480274722E+02  0.43348939330E+02 -0.25605283130E+03  0.25999796194E+03  0.10000000000E+01 0.  0.
    9000005    1    3    3    0    0 -0.12480274722E+02 -0.43348939330E+02 -0.36203678040E+02  0.57849754553E+02  0.10000000000E+01 0.  0.
<mgrwt>
<rscale>  0 0.12495321E+03</rscale>
<asrwt>0</asrwt>
<pdfrwt beam="2">  1        4 0.46931089E-01 0.12495321E+03</pdfrwt>
<pdfrwt beam="1">  1       -4 0.19685546E-02 0.12495321E+03</pdfrwt>
<totfact> 0.73489059E+03</totfact>
</mgrwt>
</event>
<event>
 5    1  0.3191162E-002  0.1249961E+03  0.7818608E-02  0.1235075E+00
         -4   -1    0    0    0  501 -0.00000000000E+00  0.00000000000E+00  0.33205883361E+03  0.33206126224E+03  0.12700000000E+01 0. -1.
          4   -1    0    0  501    0  0.00000000000E+00 -0.00000000000E+00 -0.11726228396E+02  0.11794801074E+02  0.12700000000E+01 0. -1.
         25    2    1    2    0    0  0.00000000000E+00  0.00000000000E+00  0.32033260522E+03  0.34385606331E+03  0.12499605719E+03 0.  0.
    9000005    1    3    3    0    0 -0.34739360661E+01  0.56197649803E+01 -0.10776239781E+02  0.12679800236E+02  0.10000000000E+01 0.  0.
    9000005    1    3    3    0    0  0.34739360661E+01 -0.56197649803E+01  0.33110884500E+03  0.33117626308E+03  0.10000000000E+01 0.  0.
<mgrwt>
<rscale>  0 0.12499606E+03</rscale>
<asrwt>0</asrwt>
<pdfrwt beam="2">  1        4 0.18094967E-02 0.12499606E+03</pdfrwt>
<pdfrwt beam="1">  1       -4 0.51091438E-01 0.12499606E+03</pdfrwt>
<totfact> 0.70411937E+03</totfact>
</mgrwt>
</event>
<event>
 5    1  0.3191162E-002  0.1249987E+03  0.7818608E-02  0.1235071E+00
         -4   -1    0    0    0  501 -0.00000000000E+00  0.00000000000E+00  0.61050188947E+01  0.62357161341E+01  0.12700000000E+01 0. -1.
          4   -1    0    0  501    0  0.00000000000E+00 -0.00000000000E+00 -0.63292200989E+03  0.63292328406E+03  0.12700000000E+01 0. -1.
         25    2    1    2    0    0  0.00000000000E+00  0.00000000000E+00 -0.62681699099E+03  0.63915900019E+03  0.12499874930E+03 0.  0.
    9000005    1    3    3    0    0 -0.25743550477E+02 -0.49560066887E+02 -0.17003094950E+03  0.17897054062E+03  0.10000000000E+01 0.  0.
    9000005    1    3    3    0    0  0.25743550477E+02  0.49560066887E+02 -0.45678604149E+03  0.46018845957E+03  0.10000000000E+01 0.  0.
<mgrwt>
<rscale>  0 0.12499875E+03</rscale>
<asrwt>0</asrwt>
<pdfrwt beam="2">  1        4 0.97382717E-01 0.12499875E+03</pdfrwt>
<pdfrwt beam="1">  1       -4 0.94938582E-03 0.12499875E+03</pdfrwt>
<totfact> 0.46486787E+03</totfact>
</mgrwt>
</event>
<event>
 5    1  0.3191162E-002  0.1249993E+03  0.7818608E-02  0.1235070E+00
          4   -1    0    0  501    0  0.00000000000E+00  0.00000000000E+00  0.17727288429E+04  0.17727292978E+04  0.12700000000E+01 0. -1.
         -4   -1    0    0    0  501 -0.00000000000E+00 -0.00000000000E+00 -0.20200131780E+01  0.23860748604E+01  0.12700000000E+01 0. -1.
         25    2    1    2    0    0  0.00000000000E+00  0.00000000000E+00  0.17707088297E+04  0.17751153727E+04  0.12499930668E+03 0.  0.
    9000005    1    3    3    0    0 -0.13250154496E+02  0.56898757100E+02  0.57030605875E+03  0.57329140566E+03  0.10000000000E+01 0.  0.
    9000005    1    3    3    0    0  0.13250154496E+02 -0.56898757100E+02  0.12004027710E+04  0.12018239670E+04  0.10000000000E+01 0.  0.
<mgrwt>
<rscale>  0 0.12499931E+03</rscale>
<asrwt>0</asrwt>
<pdfrwt beam="1">  1        4 0.27275651E+00 0.12499931E+03</pdfrwt>
<pdfrwt beam="2">  1       -4 0.33896384E-03 0.12499931E+03</pdfrwt>
<totfact> 0.13090917E+03</totfact>
</mgrwt>
</event>
<event>
 5    1  0.3191162E-002  0.1249983E+03  0.7818608E-02  0.1235072E+00
         -4   -1    0    0    0  501 -0.00000000000E+00  0.00000000000E+00  0.73663749655E+02  0.73674696561E+02  0.12700000000E+01 0.  1.
          4   -1    0    0  501    0  0.00000000000E+00 -0.00000000000E+00 -0.53004141169E+02  0.53019353835E+02  0.12700000000E+01 0.  1.
         25    2    1    2    0    0  0.00000000000E+00  0.00000000000E+00  0.20659608486E+02  0.12669405040E+03  0.12499825192E+03 0.  0.
    9000005    1    3    3    0    0  0.37969778313E+02  0.30139345592E+02  0.50298996492E+02  0.69864678243E+02  0.10000000000E+01 0.  0.
    9000005    1    3    3    0    0 -0.37969778313E+02 -0.30139345592E+02 -0.29639388006E+02  0.56829372153E+02  0.10000000000E+01 0.  0.
<mgrwt>
<rscale>  0 0.12499825E+03</rscale>
<asrwt>0</asrwt>
<pdfrwt beam="2">  1        4 0.81564955E-02 0.12499825E+03</pdfrwt>
<pdfrwt beam="1">  1       -4 0.11334897E-01 0.12499825E+03</pdfrwt>
<totfact> 0.10416211E+04</totfact>
</mgrwt>
</event>
<event>
 5    1  0.3191162E-002  0.1249783E+03  0.7818608E-02  0.1235103E+00
         -4   -1    0    0    0  501 -0.00000000000E+00  0.00000000000E+00  0.21938284032E+04  0.21938287708E+04  0.12700000000E+01 0.  1.
          4   -1    0    0  501    0  0.00000000000E+00 -0.00000000000E+00 -0.15529923599E+01  0.20061618254E+01  0.12700000000E+01 0.  1.
         25    2    1    2    0    0  0.00000000000E+00  0.00000000000E+00  0.21922754108E+04  0.21958349326E+04  0.12497829556E+03 0.  0.
    9000005    1    3    3    0    0 -0.50222839993E+02  0.28936140119E+02  0.15060285261E+04  0.15071438402E+04  0.10000000000E+01 0.  0.
    9000005    1    3    3    0    0  0.50222839993E+02 -0.28936140119E+02  0.68624688479E+03  0.68869109240E+03  0.10000000000E+01 0.  0.
<mgrwt>
<rscale>  0 0.12497830E+03</rscale>
<asrwt>0</asrwt>
<pdfrwt beam="2">  1        4 0.27381151E-03 0.12497830E+03</pdfrwt>
<pdfrwt beam="1">  1       -4 0.33754431E+00 0.12497830E+03</pdfrwt>
<totfact> 0.75206637E+02</totfact>
</mgrwt>
</event>
<event>
 5    1  0.3191162E-002  0.1249971E+03  0.7818608E-02  0.1235074E+00
         -4   -1    0    0    0  501 -0.00000000000E+00  0.00000000000E+00  0.11548398340E+03  0.11549096641E+03  0.12700000000E+01 0. -1.
          4   -1    0    0  501    0  0.00000000000E+00 -0.00000000000E+00 -0.33803543452E+02  0.33827392006E+02  0.12700000000E+01 0. -1.
         25    2    1    2    0    0  0.00000000000E+00  0.00000000000E+00  0.81680439946E+02  0.14931835841E+03  0.12499711152E+03 0.  0.
    9000005    1    3    3    0    0  0.49560691774E+01 -0.61666719469E+02  0.51371636244E+02  0.80420096507E+02  0.10000000000E+01 0.  0.
    9000005    1    3    3    0    0 -0.49560691774E+01  0.61666719469E+02  0.30308803702E+02  0.68898261906E+02  0.10000000000E+01 0.  0.
<mgrwt>
<rscale>  0 0.12499711E+03</rscale>
<asrwt>0</asrwt>
<pdfrwt beam="2">  1        4 0.52029169E-02 0.12499711E+03</pdfrwt>
<pdfrwt beam="1">  1       -4 0.17769138E-01 0.12499711E+03</pdfrwt>
<totfact> 0.99446212E+03</totfact>
</mgrwt>
</event>
<event>
 5    1  0.3191162E-002  0.1250000E+03  0.7818608E-02  0.1235069E+00
          4   -1    0    0  501    0  0.00000000000E+00  0.00000000000E+00  0.80842692792E+02  0.80852667723E+02  0.12700000000E+01 0.  1.
         -4   -1    0    0    0  501 -0.00000000000E+00 -0.00000000000E+00 -0.48297872620E+02  0.48314567158E+02  0.12700000000E+01 0.  1.
         25    2    1    2    0    0  0.00000000000E+00  0.00000000000E+00  0.32544820172E+02  0.12916723488E+03  0.12500003699E+03 0.  0.
    9000005    1    3    3    0    0  0.55078725360E+02 -0.11503789465E+02  0.44367966581E+02  0.71662539851E+02  0.10000000000E+01 0.  0.
    9000005    1    3    3    0    0 -0.55078725360E+02  0.11503789465E+02 -0.11823146409E+02  0.57504695029E+02  0.10000000000E+01 0.  0.
<mgrwt>
<rscale>  0 0.12500004E+03</rscale>
<asrwt>0</asrwt>
<pdfrwt beam="1">  1        4 0.12439389E-01 0.12500004E+03</pdfrwt>
<pdfrwt beam="2">  1       -4 0.74324935E-02 0.12500004E+03</pdfrwt>
<totfact> 0.10362346E+04</totfact>
</mgrwt>
</event>
<event>
 5    1  0.3191162E-002  0.1249932E+03  0.7818608E-02  0.1235080E+00
          4   -1    0    0  501    0  0.00000000000E+00  0.00000000000E+00  0.11583119715E+03  0.11583815922E+03  0.12700000000E+01 0. -1.
         -4   -1    0    0    0  501 -0.00000000000E+00 -0.00000000000E+00 -0.33700045757E+02  0.33723967501E+02  0.12700000000E+01 0. -1.
         25    2    1    2    0    0  0.00000000000E+00  0.00000000000E+00  0.82131151390E+02  0.14956212673E+03  0.12499321470E+03 0.  0.
    9000005    1    3    3    0    0 -0.61970668409E+02  0.73513728232E+01  0.37203162437E+02  0.72660042119E+02  0.10000000000E+01 0.  0.
    9000005    1    3    3    0    0  0.61970668409E+02 -0.73513728232E+01  0.44927988953E+02  0.76902084606E+02  0.10000000000E+01 0.  0.
<mgrwt>
<rscale>  0 0.12499321E+03</rscale>
<asrwt>0</asrwt>
<pdfrwt beam="1">  1        4 0.17822560E-01 0.12499321E+03</pdfrwt>
<pdfrwt beam="2">  1       -4 0.51869982E-02 0.12499321E+03</pdfrwt>
<totfact> 0.99406233E+03</totfact>
</mgrwt>
</event>
<event>
 5    1  0.3191162E-002  0.1249890E+03  0.7818608E-02  0.1235086E+00
         -4   -1    0    0    0  501 -0.00000000000E+00  0.00000000000E+00  0.47804231670E+02  0.47821098540E+02  0.12700000000E+01 0. -1.
          4   -1    0    0  501    0  0.00000000000E+00 -0.00000000000E+00 -0.81662917367E+02  0.81672792122E+02  0.12700000000E+01 0. -1.
         25    2    1    2    0    0  0.00000000000E+00  0.00000000000E+00 -0.33858685697E+02  0.12949389066E+03  0.12498902800E+03 0.  0.
    9000005    1    3    3    0    0 -0.36136805485E+02  0.20431388038E+02  0.31457858567E+02  0.52095174378E+02  0.10000000000E+01 0.  0.
    9000005    1    3    3    0    0  0.36136805485E+02 -0.20431388038E+02 -0.65316544264E+02  0.77398716284E+02  0.10000000000E+01 0.  0.
<mgrwt>
<rscale>  0 0.12498903E+03</rscale>
<asrwt>0</asrwt>
<pdfrwt beam="2">  1        4 0.12565583E-01 0.12498903E+03</pdfrwt>
<pdfrwt beam="1">  1       -4 0.73565542E-02 0.12498903E+03</pdfrwt>
<totfact> 0.10357911E+04</totfact>
</mgrwt>
</event>
<event>
 5    1  0.3191162E-002  0.1249885E+03  0.7818608E-02  0.1235087E+00
         -4   -1    0    0    0  501 -0.00000000000E+00  0.00000000000E+00  0.82465662347E+02  0.82475440989E+02  0.12700000000E+01 0. -1.
          4   -1    0    0  501    0  0.00000000000E+00 -0.00000000000E+00 -0.47338385696E+02  0.47355418489E+02  0.12700000000E+01 0. -1.
         25    2    1    2    0    0  0.00000000000E+00  0.00000000000E+00  0.35127276652E+02  0.12983085948E+03  0.12498850550E+03 0.  0.
    9000005    1    3    3    0    0  0.52298137454E+02 -0.15735919538E+02  0.49101357369E+02  0.73448333135E+02  0.10000000000E+01 0.  0.
    9000005    1    3    3    0    0 -0.52298137454E+02  0.15735919538E+02 -0.13974080717E+02  0.56382526343E+02  0.10000000000E+01 0.  0.
<mgrwt>
<rscale>  0 0.12498851E+03</rscale>
<asrwt>0</asrwt>
<pdfrwt beam="2">  1        4 0.72848910E-02 0.12498851E+03</pdfrwt>
<pdfrwt beam="1">  1       -4 0.12689087E-01 0.12498851E+03</pdfrwt>
<totfact> 0.10350812E+04</totfact>
</mgrwt>
</event>
<event>
 5    1  0.3191162E-002  0.1249992E+03  0.7818608E-02  0.1235071E+00
         -4   -1    0    0    0  501 -0.00000000000E+00  0.00000000000E+00  0.72519834653E+02  0.72530954206E+02  0.12700000000E+01 0. -1.
          4   -1    0    0  501    0  0.00000000000E+00 -0.00000000000E+00 -0.53841118869E+02  0.53856095116E+02  0.12700000000E+01 0. -1.
         25    2    1    2    0    0  0.00000000000E+00  0.00000000000E+00  0.18678715783E+02  0.12638704932E+03  0.12499916725E+03 0.  0.
    9000005    1    3    3    0    0 -0.44605045143E+02  0.36845817252E+02 -0.14544380245E+02  0.59663751960E+02  0.10000000000E+01 0.  0.
    9000005    1    3    3    0    0  0.44605045143E+02 -0.36845817252E+02  0.33223096028E+02  0.66723297362E+02  0.10000000000E+01 0.  0.
<mgrwt>
<rscale>  0 0.12499917E+03</rscale>
<asrwt>0</asrwt>
<pdfrwt beam="2">  1        4 0.82852565E-02 0.12499917E+03</pdfrwt>
<pdfrwt beam="1">  1       -4 0.11158905E-01 0.12499917E+03</pdfrwt>
<totfact> 0.10422688E+04</totfact>
</mgrwt>
</event>
<event>
 5    1  0.3191162E-002  0.1249994E+03  0.7818608E-02  0.1235070E+00
         -4   -1    0    0    0  501 -0.00000000000E+00  0.00000000000E+00  0.24884863342E+03  0.24885187413E+03  0.12700000000E+01 0. -1.
          4   -1    0    0  501    0  0.00000000000E+00 -0.00000000000E+00 -0.15668118729E+02  0.15719505225E+02  0.12700000000E+01 0. -1.
         25    2    1    2    0    0  0.00000000000E+00  0.00000000000E+00  0.23318051469E+03  0.26457137935E+03  0.12499944936E+03 0.  0.
    9000005    1    3    3    0    0  0.97038867616E+01  0.78013968089E+01  0.24620705971E+03  0.24652371785E+03  0.10000000000E+01 0.  0.
    9000005    1    3    3    0    0 -0.97038867616E+01 -0.78013968089E+01 -0.13026545020E+02  0.18047661500E+02  0.10000000000E+01 0.  0.
<mgrwt>
<rscale>  0 0.12499945E+03</rscale>
<asrwt>0</asrwt>
<pdfrwt beam="2">  1        4 0.24146818E-02 0.12499945E+03</pdfrwt>
<pdfrwt beam="1">  1       -4 0.38288608E-01 0.12499945E+03</pdfrwt>
<totfact> 0.80269764E+03</totfact>
</mgrwt>
</event>
<event>
 5    1  0.3191162E-002  0.1250028E+03  0.7818608E-02  0.1235065E+00
          4   -1    0    0  501    0  0.00000000000E+00  0.00000000000E+00  0.42008101048E+02  0.42027294151E+02  0.12700000000E+01 0. -1.
         -4   -1    0    0    0  501 -0.00000000000E+00 -0.00000000000E+00 -0.92947353158E+02  0.92956029170E+02  0.12700000000E+01 0. -1.
         25    2    1    2    0    0  0.00000000000E+00  0.00000000000E+00 -0.50939252110E+02  0.13498332332E+03  0.12500276065E+03 0.  0.
    9000005    1    3    3    0    0 -0.36601302927E+02  0.41642809431E+02 -0.56610380788E+02  0.79243385631E+02  0.10000000000E+01 0.  0.
    9000005    1    3    3    0    0  0.36601302927E+02 -0.41642809431E+02  0.56711286776E+01  0.55739937691E+02  0.10000000000E+01 0.  0.
<mgrwt>
<rscale>  0 0.12500276E+03</rscale>
<asrwt>0</asrwt>
<pdfrwt beam="1">  1        4 0.64649286E-02 0.12500276E+03</pdfrwt>
<pdfrwt beam="2">  1       -4 0.14301736E-01 0.12500276E+03</pdfrwt>
<totfact> 0.10237785E+04</totfact>
</mgrwt>
</event>
<event>
 5    1  0.3191162E-002  0.1250009E+03  0.7818608E-02  0.1235068E+00
          4   -1    0    0  501    0  0.00000000000E+00  0.00000000000E+00  0.28021738893E+02  0.28050503571E+02  0.12700000000E+01 0.  1.
         -4   -1    0    0    0  501 -0.00000000000E+00 -0.00000000000E+00 -0.13929957593E+03  0.13930536513E+03  0.12700000000E+01 0.  1.
         25    2    1    2    0    0  0.00000000000E+00  0.00000000000E+00 -0.11127783704E+03  0.16735586871E+03  0.12500091909E+03 0.  0.
    9000005    1    3    3    0    0 -0.18306432617E+02 -0.26605534006E+01  0.24278593396E+02  0.30539386321E+02  0.10000000000E+01 0.  0.
    9000005    1    3    3    0    0  0.18306432617E+02  0.26605534006E+01 -0.13555643044E+03  0.13681648239E+03  0.10000000000E+01 0.  0.
<mgrwt>
<rscale>  0 0.12500092E+03</rscale>
<asrwt>0</asrwt>
<pdfrwt beam="1">  1        4 0.43136948E-02 0.12500092E+03</pdfrwt>
<pdfrwt beam="2">  1       -4 0.21433362E-01 0.12500092E+03</pdfrwt>
<totfact> 0.95941099E+03</totfact>
</mgrwt>
</event>
<event>
 5    1  0.3191162E-002  0.1249996E+03  0.7818608E-02  0.1235070E+00
          4   -1    0    0  501    0  0.00000000000E+00  0.00000000000E+00  0.10074301960E+03  0.10075102430E+03  0.12700000000E+01 0.  1.
         -4   -1    0    0    0  501 -0.00000000000E+00 -0.00000000000E+00 -0.38754191706E+02  0.38774995484E+02  0.12700000000E+01 0.  1.
         25    2    1    2    0    0  0.00000000000E+00  0.00000000000E+00  0.61988827892E+02  0.13952601979E+03  0.12499958165E+03 0.  0.
    9000005    1    3    3    0    0  0.34751149274E+02 -0.42659146861E+02  0.64064791772E+02  0.84455566611E+02  0.10000000000E+01 0.  0.
    9000005    1    3    3    0    0 -0.34751149274E+02  0.42659146861E+02 -0.20759638795E+01  0.55070453175E+02  0.10000000000E+01 0.  0.
<mgrwt>
<rscale>  0 0.12499958E+03</rscale>
<asrwt>0</asrwt>
<pdfrwt beam="1">  1        4 0.15501142E-01 0.12499958E+03</pdfrwt>
<pdfrwt beam="2">  1       -4 0.59643994E-02 0.12499958E+03</pdfrwt>
<totfact> 0.10143514E+04</totfact>
</mgrwt>
</event>
<event>
 5    1  0.3191162E-002  0.1250061E+03  0.7818608E-02  0.1235060E+00
          4   -1    0    0  501    0  0.00000000000E+00  0.00000000000E+00  0.15772856051E+04  0.15772861164E+04  0.12700000000E+01 0.  1.
         -4   -1    0    0    0  501 -0.00000000000E+00 -0.00000000000E+00 -0.23134588332E+01  0.26391270854E+01  0.12700000000E+01 0.  1.
         25    2    1    2    0    0  0.00000000000E+00  0.00000000000E+00  0.15749721463E+04  0.15799252435E+04  0.12500605367E+03 0.  0.
    9000005    1    3    3    0    0  0.22138586837E+02 -0.30661043096E+02  0.15866191354E+03  0.16310983845E+03  0.10000000000E+01 0.  0.
    9000005    1    3    3    0    0 -0.22138586837E+02  0.30661043096E+02  0.14163102327E+04  0.14168154050E+04  0.10000000000E+01 0.  0.
<mgrwt>
<rscale>  0 0.12500605E+03</rscale>
<asrwt>0</asrwt>
<pdfrwt beam="1">  1        4 0.24268516E+00 0.12500605E+03</pdfrwt>
<pdfrwt beam="2">  1       -4 0.38100631E-03 0.12500605E+03</pdfrwt>
<totfact> 0.16409442E+03</totfact>
</mgrwt>
</event>
<event>
 5    1  0.3191162E-002  0.1250000E+03  0.7818608E-02  0.1235069E+00
         -4   -1    0    0    0  501 -0.00000000000E+00  0.00000000000E+00  0.11872627767E+01  0.17385318234E+01  0.12700000000E+01 0.  1.
          4   -1    0    0  501    0  0.00000000000E+00 -0.00000000000E+00 -0.26696628862E+04  0.26696631883E+04  0.12700000000E+01 0.  1.
         25    2    1    2    0    0  0.00000000000E+00  0.00000000000E+00 -0.26684756234E+04  0.26714017201E+04  0.12499998945E+03 0.  0.
    9000005    1    3    3    0    0  0.59001533242E+01  0.43368144186E+02 -0.22875094046E+04  0.22879282952E+04  0.10000000000E+01 0.  0.
    9000005    1    3    3    0    0 -0.59001533242E+01 -0.43368144186E+02 -0.38096621880E+03  0.38347342491E+03  0.10000000000E+01 0.  0.
<mgrwt>
<rscale>  0 0.12499999E+03</rscale>
<asrwt>0</asrwt>
<pdfrwt beam="2">  1        4 0.41075590E+00 0.12499999E+03</pdfrwt>
<pdfrwt beam="1">  1       -4 0.22508650E-03 0.12499999E+03</pdfrwt>
<totfact> 0.34586030E+02</totfact>
</mgrwt>
</event>
<event>
 5    1  0.3191162E-002  0.1249959E+03  0.7818608E-02  0.1235076E+00
         -4   -1    0    0    0  501 -0.00000000000E+00  0.00000000000E+00  0.44244877732E+03  0.44245060001E+03  0.12700000000E+01 0.  1.
          4   -1    0    0  501    0  0.00000000000E+00 -0.00000000000E+00 -0.87806073934E+01  0.88719764538E+01  0.12700000000E+01 0.  1.
         25    2    1    2    0    0  0.00000000000E+00  0.00000000000E+00  0.43366816992E+03  0.45132257646E+03  0.12499594562E+03 0.  0.
    9000005    1    3    3    0    0 -0.39453866507E+02  0.32614889385E+02  0.87419001298E+02  0.10130854051E+03  0.10000000000E+01 0.  0.
    9000005    1    3    3    0    0  0.39453866507E+02 -0.32614889385E+02  0.34624916862E+03  0.35001403595E+03  0.10000000000E+01 0.  0.
<mgrwt>
<rscale>  0 0.12499595E+03</rscale>
<asrwt>0</asrwt>
<pdfrwt beam="2">  1        4 0.13580314E-02 0.12499595E+03</pdfrwt>
<pdfrwt beam="1">  1       -4 0.68076204E-01 0.12499595E+03</pdfrwt>
<totfact> 0.59854738E+03</totfact>
</mgrwt>
</event>
<event>
 5    1  0.3191162E-002  0.1250003E+03  0.7818608E-02  0.1235069E+00
         -4   -1    0    0    0  501 -0.00000000000E+00  0.00000000000E+00  0.18026653192E+03  0.18027100552E+03  0.12700000000E+01 0.  1.
          4   -1    0    0  501    0  0.00000000000E+00 -0.00000000000E+00 -0.21646037295E+02  0.21683261530E+02  0.12700000000E+01 0.  1.
         25    2    1    2    0    0  0.00000000000E+00  0.00000000000E+00  0.15862049463E+03  0.20195426705E+03  0.12500025866E+03 0.  0.
    9000005    1    3    3    0    0 -0.52538435080E+02  0.33715499147E+02  0.74671354426E+02  0.97333618114E+02  0.10000000000E+01 0.  0.
    9000005    1    3    3    0    0  0.52538435080E+02 -0.33715499147E+02  0.83949140203E+02  0.10462064894E+03  0.10000000000E+01 0.  0.
<mgrwt>
<rscale>  0 0.12500026E+03</rscale>
<asrwt>0</asrwt>
<pdfrwt beam="2">  1        4 0.33333670E-02 0.12500026E+03</pdfrwt>
<pdfrwt beam="1">  1       -4 0.27736521E-01 0.12500026E+03</pdfrwt>
<totfact> 0.89806426E+03</totfact>
</mgrwt>
</event>
<event>
 5    1  0.3191162E-002  0.1250000E+03  0.7818608E-02  0.1235069E+00
          4   -1    0    0  501    0  0.00000000000E+00  0.00000000000E+00  0.35633476007E+03  0.35633702324E+03  0.12700000000E+01 0.  1.
         -4   -1    0    0    0  501 -0.00000000000E+00 -0.00000000000E+00 -0.10923208437E+02  0.10996789648E+02  0.12700000000E+01 0.  1.
         25    2    1    2    0    0  0.00000000000E+00  0.00000000000E+00  0.34541155163E+03  0.36733381289E+03  0.12499996037E+03 0.  0.
    9000005    1    3    3    0    0 -0.24467704783E+02 -0.56659496774E+02  0.20154077270E+03  0.21078104804E+03  0.10000000000E+01 0.  0.
    9000005    1    3    3    0    0  0.24467704783E+02  0.56659496774E+02  0.14387077893E+03  0.15655276485E+03  0.10000000000E+01 0.  0.
<mgrwt>
<rscale>  0 0.12499996E+03</rscale>
<asrwt>0</asrwt>
<pdfrwt beam="1">  1        4 0.54826573E-01 0.12499996E+03</pdfrwt>
<pdfrwt beam="2">  1       -4 0.16863276E-02 0.12499996E+03</pdfrwt>
<totfact> 0.67858849E+03</totfact>
</mgrwt>
</event>
<event>
 5    1  0.3191162E-002  0.1249988E+03  0.7818608E-02  0.1235071E+00
         -4   -1    0    0    0  501 -0.00000000000E+00  0.00000000000E+00  0.42171390427E+03  0.42171581658E+03  0.12700000000E+01 0. -1.
          4   -1    0    0  501    0  0.00000000000E+00 -0.00000000000E+00 -0.92171400946E+01  0.93042233166E+01  0.12700000000E+01 0. -1.
         25    2    1    2    0    0  0.00000000000E+00  0.00000000000E+00  0.41249676417E+03  0.43102003989E+03  0.12499877735E+03 0.  0.
    9000005    1    3    3    0    0  0.34229662738E+02 -0.35790295147E+02  0.33766749179E+03  0.34128133563E+03  0.10000000000E+01 0.  0.
    9000005    1    3    3    0    0 -0.34229662738E+02  0.35790295147E+02  0.74829272386E+02  0.89738704268E+02  0.10000000000E+01 0.  0.
<mgrwt>
<rscale>  0 0.12499878E+03</rscale>
<asrwt>0</asrwt>
<pdfrwt beam="2">  1        4 0.14248676E-02 0.12499878E+03</pdfrwt>
<pdfrwt beam="1">  1       -4 0.64885898E-01 0.12499878E+03</pdfrwt>
<totfact> 0.61645305E+03</totfact>
</mgrwt>
</event>
<event>
 5    1  0.3191162E-002  0.1249767E+03  0.7818608E-02  0.1235106E+00
         -4   -1    0    0    0  501 -0.00000000000E+00  0.00000000000E+00  0.45123512504E+02  0.45141381024E+02  0.12700000000E+01 0. -1.
          4   -1    0    0  501    0  0.00000000000E+00 -0.00000000000E+00 -0.86496017853E+02  0.86505340901E+02  0.12700000000E+01 0. -1.
         25    2    1    2    0    0  0.00000000000E+00  0.00000000000E+00 -0.41372505348E+02  0.13164672192E+03  0.12497669861E+03 0.  0.
    9000005    1    3    3    0    0 -0.23198126793E+01  0.62035642764E+00  0.45080052968E+02  0.45155039016E+02  0.10000000000E+01 0.  0.
    9000005    1    3    3    0    0  0.23198126793E+01 -0.62035642764E+00 -0.86452558316E+02  0.86491682908E+02  0.10000000000E+01 0.  0.
<mgrwt>
<rscale>  0 0.12497670E+03</rscale>
<asrwt>0</asrwt>
<pdfrwt beam="2">  1        4 0.13309171E-01 0.12497670E+03</pdfrwt>
<pdfrwt beam="1">  1       -4 0.69441705E-02 0.12497670E+03</pdfrwt>
<totfact> 0.10314666E+04</totfact>
</mgrwt>
</event>
<event>
 5    1  0.3191162E-002  0.1250016E+03  0.7818608E-02  0.1235067E+00
          4   -1    0    0  501    0  0.00000000000E+00  0.00000000000E+00  0.53155431593E+03  0.53155583308E+03  0.12700000000E+01 0.  1.
         -4   -1    0    0    0  501 -0.00000000000E+00 -0.00000000000E+00 -0.72925116416E+01  0.74022716813E+01  0.12700000000E+01 0.  1.
         25    2    1    2    0    0  0.00000000000E+00  0.00000000000E+00  0.52426180429E+03  0.53895810476E+03  0.12500159701E+03 0.  0.
    9000005    1    3    3    0    0  0.83624053848E+01  0.60870118232E+02  0.21292398714E+03  0.22161391070E+03  0.10000000000E+01 0.  0.
    9000005    1    3    3    0    0 -0.83624053848E+01 -0.60870118232E+02  0.31133781715E+03  0.31734419406E+03  0.10000000000E+01 0.  0.
<mgrwt>
<rscale>  0 0.12500160E+03</rscale>
<asrwt>0</asrwt>
<pdfrwt beam="1">  1        4 0.81786161E-01 0.12500160E+03</pdfrwt>
<pdfrwt beam="2">  1       -4 0.11304845E-02 0.12500160E+03</pdfrwt>
<totfact> 0.52961651E+03</totfact>
</mgrwt>
</event>
<event>
 5    1  0.3191162E-002  0.1249982E+03  0.7818608E-02  0.1235072E+00
         -4   -1    0    0    0  501 -0.00000000000E+00  0.00000000000E+00  0.17664420168E+02  0.17710015242E+02  0.12700000000E+01 0. -1.
          4   -1    0    0  501    0  0.00000000000E+00 -0.00000000000E+00 -0.22079793773E+03  0.22080159014E+03  0.12700000000E+01 0. -1.
         25    2    1    2    0    0  0.00000000000E+00  0.00000000000E+00 -0.20313351757E+03  0.23851160538E+03  0.12499823976E+03 0.  0.
    9000005    1    3    3    0    0 -0.80017830106E+01 -0.41995343358E+02 -0.18853814762E+03  0.19332684889E+03  0.10000000000E+01 0.  0.
    9000005    1    3    3    0    0  0.80017830106E+01  0.41995343358E+02 -0.14595369950E+02  0.45184756490E+02  0.10000000000E+01 0.  0.
<mgrwt>
<rscale>  0 0.12499824E+03</rscale>
<asrwt>0</asrwt>
<pdfrwt beam="2">  1        4 0.33972700E-01 0.12499824E+03</pdfrwt>
<pdfrwt beam="1">  1       -4 0.27213915E-02 0.12499824E+03</pdfrwt>
<totfact> 0.84022836E+03</totfact>
</mgrwt>
</event>
<event>
 5    1  0.3191162E-002  0.1250018E+03  0.7818608E-02  0.1235066E+00
         -4   -1    0    0    0  501 -0.00000000000E+00  0.00000000000E+00  0.83377959593E+03  0.83378056315E+03  0.12700000000E+01 0.  1.
          4   -1    0    0  501    0  0.00000000000E+00 -0.00000000000E+00 -0.45980761045E+01  0.47702414890E+01  0.12700000000E+01 0.  1.
         25    2    1    2    0    0  0.00000000000E+00  0.00000000000E+00  0.82918151982E+03  0.83855080464E+03  0.12500183656E+03 0.  0.
    9000005    1    3    3    0    0  0.14292194013E+02  0.92766056708E+01  0.11252246111E+02  0.20443465093E+02  0.10000000000E+01 0.  0.
    9000005    1    3    3    0    0 -0.14292194013E+02 -0.92766056708E+01  0.81792927371E+03  0.81810733954E+03  0.10000000000E+01 0.  0.
<mgrwt>
<rscale>  0 0.12500184E+03</rscale>
<asrwt>0</asrwt>
<pdfrwt beam="2">  1        4 0.72071474E-03 0.12500184E+03</pdfrwt>
<pdfrwt beam="1">  1       -4 0.12828701E+00 0.12500184E+03</pdfrwt>
<totfact> 0.36599028E+03</totfact>
</mgrwt>
</event>
<event>
 5    1  0.3191162E-002  0.1249973E+03  0.7818608E-02  0.1235073E+00
         -4   -1    0    0    0  501 -0.00000000000E+00  0.00000000000E+00  0.16974006817E+03  0.16974481919E+03  0.12700000000E+01 0. -1.
          4   -1    0    0  501    0  0.00000000000E+00 -0.00000000000E+00 -0.22989548162E+02  0.23024600424E+02  0.12700000000E+01 0. -1.
         25    2    1    2    0    0  0.00000000000E+00  0.00000000000E+00  0.14675052000E+03  0.19276941961E+03  0.12499733604E+03 0.  0.
    9000005    1    3    3    0    0  0.22630316541E+02 -0.30625043375E+02 -0.30379332350E+01  0.38213264017E+02  0.10000000000E+01 0.  0.
    9000005    1    3    3    0    0 -0.22630316541E+02  0.30625043375E+02  0.14978845324E+03  0.15455615560E+03  0.10000000000E+01 0.  0.
<mgrwt>
<rscale>  0 0.12499734E+03</rscale>
<asrwt>0</asrwt>
<pdfrwt beam="2">  1        4 0.35399154E-02 0.12499734E+03</pdfrwt>
<pdfrwt beam="1">  1       -4 0.26116918E-01 0.12499734E+03</pdfrwt>
<totfact> 0.91373116E+03</totfact>
</mgrwt>
</event>
<event>
 5    1  0.3191162E-002  0.1249993E+03  0.7818608E-02  0.1235070E+00
         -4   -1    0    0    0  501 -0.00000000000E+00  0.00000000000E+00  0.38081479645E+02  0.38102650721E+02  0.12700000000E+01 0.  1.
          4   -1    0    0  501    0  0.00000000000E+00 -0.00000000000E+00 -0.10252141695E+03  0.10252928281E+03  0.12700000000E+01 0.  1.
         25    2    1    2    0    0  0.00000000000E+00  0.00000000000E+00 -0.64439937308E+02  0.14063193353E+03  0.12499934083E+03 0.  0.
    9000005    1    3    3    0    0  0.13521826912E+02 -0.12648652262E+02  0.34930087978E+02  0.39546671835E+02  0.10000000000E+01 0.  0.
    9000005    1    3    3    0    0 -0.13521826912E+02  0.12648652262E+02 -0.99370025286E+02  0.10108526170E+03  0.10000000000E+01 0.  0.
<mgrwt>
<rscale>  0 0.12499934E+03</rscale>
<asrwt>0</asrwt>
<pdfrwt beam="2">  1        4 0.15774759E-01 0.12499934E+03</pdfrwt>
<pdfrwt beam="1">  1       -4 0.58609228E-02 0.12499934E+03</pdfrwt>
<totfact> 0.10120656E+04</totfact>
</mgrwt>
</event>
<event>
 5    1  0.3191162E-002  0.1249990E+03  0.7818608E-02  0.1235071E+00
          4   -1    0    0  501    0  0.00000000000E+00  0.00000000000E+00  0.84360563319E+02  0.84370122339E+02  0.12700000000E+01 0. -1.
         -4   -1    0    0    0  501 -0.00000000000E+00 -0.00000000000E+00 -0.46282609316E+02  0.46300030509E+02  0.12700000000E+01 0. -1.
         25    2    1    2    0    0  0.00000000000E+00  0.00000000000E+00  0.38077954003E+02  0.13067015285E+03  0.12499903305E+03 0.  0.
    9000005    1    3    3    0    0 -0.23953161127E+02 -0.40128454803E+02 -0.24329901528E+02  0.52697162365E+02  0.10000000000E+01 0.  0.
    9000005    1    3    3    0    0  0.23953161127E+02  0.40128454803E+02  0.62407855531E+02  0.77972990483E+02  0.10000000000E+01 0.  0.
<mgrwt>
<rscale>  0 0.12499903E+03</rscale>
<asrwt>0</asrwt>
<pdfrwt beam="1">  1        4 0.12980624E-01 0.12499903E+03</pdfrwt>
<pdfrwt beam="2">  1       -4 0.71224768E-02 0.12499903E+03</pdfrwt>
<totfact> 0.10330391E+04</totfact>
</mgrwt>
</event>
<event>
 5    1  0.3191162E-002  0.1249966E+03  0.7818608E-02  0.1235075E+00
          4   -1    0    0  501    0  0.00000000000E+00  0.00000000000E+00  0.14901450238E+03  0.14901991417E+03  0.12700000000E+01 0. -1.
         -4   -1    0    0    0  501 -0.00000000000E+00 -0.00000000000E+00 -0.26191206439E+02  0.26221979229E+02  0.12700000000E+01 0. -1.
         25    2    1    2    0    0  0.00000000000E+00  0.00000000000E+00  0.12282329594E+03  0.17524189340E+03  0.12499663666E+03 0.  0.
    9000005    1    3    3    0    0  0.56549169987E+02 -0.59299148945E+01  0.97756757721E+02  0.11309445697E+03  0.10000000000E+01 0.  0.
    9000005    1    3    3    0    0 -0.56549169987E+02  0.59299148945E+01  0.25066538223E+02  0.62147436435E+02  0.10000000000E+01 0.  0.
<mgrwt>
<rscale>  0 0.12499664E+03</rscale>
<asrwt>0</asrwt>
<pdfrwt beam="1">  1        4 0.22928091E-01 0.12499664E+03</pdfrwt>
<pdfrwt beam="2">  1       -4 0.40321998E-02 0.12499664E+03</pdfrwt>
<totfact> 0.94487686E+03</totfact>
</mgrwt>
</event>
<event>
 5    1  0.3191162E-002  0.1250142E+03  0.7818608E-02  0.1235047E+00
          4   -1    0    0  501    0  0.00000000000E+00  0.00000000000E+00  0.14206055260E+02  0.14262710333E+02  0.12700000000E+01 0.  1.
         -4   -1    0    0    0  501 -0.00000000000E+00 -0.00000000000E+00 -0.27442796700E+03  0.27443090564E+03  0.12700000000E+01 0.  1.
         25    2    1    2    0    0  0.00000000000E+00  0.00000000000E+00 -0.26022191174E+03  0.28869361597E+03  0.12501424141E+03 0.  0.
    9000005    1    3    3    0    0  0.19162793925E+02  0.45211580868E+02 -0.40826654021E+02  0.63867952794E+02  0.10000000000E+01 0.  0.
    9000005    1    3    3    0    0 -0.19162793925E+02 -0.45211580868E+02 -0.21939525772E+03  0.22482566318E+03  0.10000000000E+01 0.  0.
<mgrwt>
<rscale>  0 0.12501424E+03</rscale>
<asrwt>0</asrwt>
<pdfrwt beam="1">  1        4 0.21901313E-02 0.12501424E+03</pdfrwt>
<pdfrwt beam="2">  1       -4 0.42224267E-01 0.12501424E+03</pdfrwt>
<totfact> 0.77014970E+03</totfact>
</mgrwt>
</event>
<event>
 5    1  0.3191162E-002  0.1249998E+03  0.7818608E-02  0.1235070E+00
          4   -1    0    0  501    0  0.00000000000E+00  0.00000000000E+00  0.12837860910E+03  0.12838489076E+03  0.12700000000E+01 0.  1.
         -4   -1    0    0    0  501 -0.00000000000E+00 -0.00000000000E+00 -0.30407206077E+02  0.30433716195E+02  0.12700000000E+01 0.  1.
         25    2    1    2    0    0  0.00000000000E+00  0.00000000000E+00  0.97971403027E+02  0.15881860695E+03  0.12499981642E+03 0.  0.
    9000005    1    3    3    0    0 -0.59836821350E+02 -0.17699438806E+02  0.44672709951E+02  0.76748722059E+02  0.10000000000E+01 0.  0.
    9000005    1    3    3    0    0  0.59836821350E+02  0.17699438806E+02  0.53298693076E+02  0.82069884896E+02  0.10000000000E+01 0.  0.
<mgrwt>
<rscale>  0 0.12499982E+03</rscale>
<asrwt>0</asrwt>
<pdfrwt beam="1">  1        4 0.19753078E-01 0.12499982E+03</pdfrwt>
<pdfrwt beam="2">  1       -4 0.46805541E-02 0.12499982E+03</pdfrwt>
<totfact> 0.97571435E+03</totfact>
</mgrwt>
</event>
<event>
 5    1  0.3191162E-002  0.1249584E+03  0.7818608E-02  0.1235134E+00
          4   -1    0    0  501    0  0.00000000000E+00  0.00000000000E+00  0.42455802246E+03  0.42455992196E+03  0.12700000000E+01 0. -1.
         -4   -1    0    0    0  501 -0.00000000000E+00 -0.00000000000E+00 -0.91488373398E+01  0.92365645491E+01  0.12700000000E+01 0. -1.
         25    2    1    2    0    0  0.00000000000E+00  0.00000000000E+00  0.41540918512E+03  0.43379648651E+03  0.12495839558E+03 0.  0.
    9000005    1    3    3    0    0  0.51658920413E+01  0.59423680322E+02  0.27216571718E+03  0.27862705869E+03  0.10000000000E+01 0.  0.
    9000005    1    3    3    0    0 -0.51658920413E+01 -0.59423680322E+02  0.14324346793E+03  0.15516942782E+03  0.10000000000E+01 0.  0.
<mgrwt>
<rscale>  0 0.12495840E+03</rscale>
<asrwt>0</asrwt>
<pdfrwt beam="1">  1        4 0.65323525E-01 0.12495840E+03</pdfrwt>
<pdfrwt beam="2">  1       -4 0.14144075E-02 0.12495840E+03</pdfrwt>
<totfact> 0.61449698E+03</totfact>
</mgrwt>
</event>
<event>
 5    1  0.3191162E-002  0.1249999E+03  0.7818608E-02  0.1235069E+00
          4   -1    0    0  501    0  0.00000000000E+00  0.00000000000E+00  0.10308446227E+03  0.10309228516E+03  0.12700000000E+01 0. -1.
         -4   -1    0    0    0  501 -0.00000000000E+00 -0.00000000000E+00 -0.37873694170E+02  0.37894981331E+02  0.12700000000E+01 0. -1.
         25    2    1    2    0    0  0.00000000000E+00  0.00000000000E+00  0.65210768095E+02  0.14098726650E+03  0.12499986015E+03 0.  0.
    9000005    1    3    3    0    0  0.42812123427E+02 -0.24993337099E+02 -0.10309616031E+02  0.50644180262E+02  0.10000000000E+01 0.  0.
    9000005    1    3    3    0    0 -0.42812123427E+02  0.24993337099E+02  0.75520384126E+02  0.90343086234E+02  0.10000000000E+01 0.  0.
<mgrwt>
<rscale>  0 0.12499986E+03</rscale>
<asrwt>0</asrwt>
<pdfrwt beam="1">  1        4 0.15861387E-01 0.12499986E+03</pdfrwt>
<pdfrwt beam="2">  1       -4 0.58289614E-02 0.12499986E+03</pdfrwt>
<totfact> 0.10113197E+04</totfact>
</mgrwt>
</event>
<event>
 5    1  0.3191162E-002  0.1250048E+03  0.7818608E-02  0.1235062E+00
          4   -1    0    0  501    0  0.00000000000E+00  0.00000000000E+00  0.78648834761E+02  0.78659087900E+02  0.12700000000E+01 0. -1.
         -4   -1    0    0    0  501 -0.00000000000E+00 -0.00000000000E+00 -0.49649204656E+02  0.49665444959E+02  0.12700000000E+01 0. -1.
         25    2    1    2    0    0  0.00000000000E+00  0.00000000000E+00  0.28999630105E+02  0.12832453286E+03  0.12500482866E+03 0.  0.
    9000005    1    3    3    0    0 -0.21062507248E+01  0.56738607393E+01  0.78352319397E+02  0.78592079389E+02  0.10000000000E+01 0.  0.
    9000005    1    3    3    0    0  0.21062507248E+01 -0.56738607393E+01 -0.49352689292E+02  0.49732453470E+02  0.10000000000E+01 0.  0.
<mgrwt>
<rscale>  0 0.12500483E+03</rscale>
<asrwt>0</asrwt>
<pdfrwt beam="1">  1        4 0.12101859E-01 0.12500483E+03</pdfrwt>
<pdfrwt beam="2">  1       -4 0.76403772E-02 0.12500483E+03</pdfrwt>
<totfact> 0.10379354E+04</totfact>
</mgrwt>
</event>
<event>
 5    1  0.3191162E-002  0.1249982E+03  0.7818608E-02  0.1235072E+00
         -4   -1    0    0    0  501 -0.00000000000E+00  0.00000000000E+00  0.56752221600E+02  0.56766429838E+02  0.12700000000E+01 0. -1.
          4   -1    0    0  501    0  0.00000000000E+00 -0.00000000000E+00 -0.68799272649E+02  0.68810993431E+02  0.12700000000E+01 0. -1.
         25    2    1    2    0    0  0.00000000000E+00  0.00000000000E+00 -0.12047051048E+02  0.12557742327E+03  0.12499823117E+03 0.  0.
    9000005    1    3    3    0    0  0.38458132380E+01  0.54036736891E+01 -0.68449597343E+02  0.68777447941E+02  0.10000000000E+01 0.  0.
    9000005    1    3    3    0    0 -0.38458132380E+01 -0.54036736891E+01  0.56402546295E+02  0.56799975329E+02  0.10000000000E+01 0.  0.
<mgrwt>
<rscale>  0 0.12499823E+03</rscale>
<asrwt>0</asrwt>
<pdfrwt beam="2">  1        4 0.10586498E-01 0.12499823E+03</pdfrwt>
<pdfrwt beam="1">  1       -4 0.87331056E-02 0.12499823E+03</pdfrwt>
<totfact> 0.10440661E+04</totfact>
</mgrwt>
</event>
<event>
 5    1  0.3191162E-002  0.1249917E+03  0.7818608E-02  0.1235082E+00
          4   -1    0    0  501    0  0.00000000000E+00  0.00000000000E+00  0.55858994759E+02  0.55873430139E+02  0.12700000000E+01 0. -1.
         -4   -1    0    0    0  501 -0.00000000000E+00 -0.00000000000E+00 -0.69891977110E+02  0.69903514678E+02  0.12700000000E+01 0. -1.
         25    2    1    2    0    0  0.00000000000E+00  0.00000000000E+00 -0.14032982351E+02  0.12577694482E+03  0.12499166074E+03 0.  0.
    9000005    1    3    3    0    0 -0.95079355849E+01 -0.30543340626E+02  0.46999731912E+02  0.56861861519E+02  0.10000000000E+01 0.  0.
    9000005    1    3    3    0    0  0.95079355849E+01  0.30543340626E+02 -0.61032714263E+02  0.68915083298E+02  0.10000000000E+01 0.  0.
<mgrwt>
<rscale>  0 0.12499166E+03</rscale>
<asrwt>0</asrwt>
<pdfrwt beam="1">  1        4 0.85956895E-02 0.12499166E+03</pdfrwt>
<pdfrwt beam="2">  1       -4 0.10754610E-01 0.12499166E+03</pdfrwt>
<totfact> 0.10437816E+04</totfact>
</mgrwt>
</event>
<event>
 5    1  0.3191162E-002  0.1250256E+03  0.7818608E-02  0.1235029E+00
          4   -1    0    0  501    0  0.00000000000E+00  0.00000000000E+00  0.15702930954E+03  0.15703444512E+03  0.12700000000E+01 0. -1.
         -4   -1    0    0    0  501 -0.00000000000E+00 -0.00000000000E+00 -0.24864361890E+02  0.24896774735E+02  0.12700000000E+01 0. -1.
         25    2    1    2    0    0  0.00000000000E+00  0.00000000000E+00  0.13216494765E+03  0.18193121986E+03  0.12502557887E+03 0.  0.
    9000005    1    3    3    0    0  0.40569775834E+02 -0.36565744908E+02  0.21852353392E+02  0.58834392668E+02  0.10000000000E+01 0.  0.
    9000005    1    3    3    0    0 -0.40569775834E+02  0.36565744908E+02  0.11031259426E+03  0.12309682719E+03  0.10000000000E+01 0.  0.
<mgrwt>
<rscale>  0 0.12502558E+03</rscale>
<asrwt>0</asrwt>
<pdfrwt beam="1">  1        4 0.24161244E-01 0.12502558E+03</pdfrwt>
<pdfrwt beam="2">  1       -4 0.38281748E-02 0.12502558E+03</pdfrwt>
<totfact> 0.93217065E+03</totfact>
</mgrwt>
</event>
<event>
 5    1  0.3191162E-002  0.1250059E+03  0.7818608E-02  0.1235060E+00
          4   -1    0    0  501    0  0.00000000000E+00  0.00000000000E+00  0.78089823521E+01  0.79115804600E+01  0.12700000000E+01 0.  1.
         -4   -1    0    0    0  501 -0.00000000000E+00 -0.00000000000E+00 -0.49690402143E+03  0.49690564438E+03  0.12700000000E+01 0.  1.
         25    2    1    2    0    0  0.00000000000E+00  0.00000000000E+00 -0.48909503908E+03  0.50481722484E+03  0.12500589283E+03 0.  0.
    9000005    1    3    3    0    0 -0.19705566856E+02 -0.37344244896E+00 -0.48404465706E+03  0.48444677607E+03  0.10000000000E+01 0.  0.
    9000005    1    3    3    0    0  0.19705566856E+02  0.37344244896E+00 -0.50503820271E+01  0.20370448767E+02  0.10000000000E+01 0.  0.
<mgrwt>
<rscale>  0 0.12500589E+03</rscale>
<asrwt>0</asrwt>
<pdfrwt beam="1">  1        4 0.12093993E-02 0.12500589E+03</pdfrwt>
<pdfrwt beam="2">  1       -4 0.76454765E-01 0.12500589E+03</pdfrwt>
<totfact> 0.55485359E+03</totfact>
</mgrwt>
</event>
<event>
 5    1  0.3191162E-002  0.1250012E+03  0.7818608E-02  0.1235067E+00
          4   -1    0    0  501    0  0.00000000000E+00  0.00000000000E+00  0.64651718516E+03  0.64651843254E+03  0.12700000000E+01 0. -1.
         -4   -1    0    0    0  501 -0.00000000000E+00 -0.00000000000E+00 -0.59741039102E+01  0.61076032558E+01  0.12700000000E+01 0. -1.
         25    2    1    2    0    0  0.00000000000E+00  0.00000000000E+00  0.64054308125E+03  0.65262603579E+03  0.12500121461E+03 0.  0.
    9000005    1    3    3    0    0  0.57962425120E+02 -0.21735137449E+02  0.36496092083E+03  0.37017500275E+03  0.10000000000E+01 0.  0.
    9000005    1    3    3    0    0 -0.57962425120E+02  0.21735137449E+02  0.27558216042E+03  0.28245103305E+03  0.10000000000E+01 0.  0.
<mgrwt>
<rscale>  0 0.12500121E+03</rscale>
<asrwt>0</asrwt>
<pdfrwt beam="1">  1        4 0.99474529E-01 0.12500121E+03</pdfrwt>
<pdfrwt beam="2">  1       -4 0.92945821E-03 0.12500121E+03</pdfrwt>
<totfact> 0.45704304E+03</totfact>
</mgrwt>
</event>
<event>
 5    1  0.3191162E-002  0.1249994E+03  0.7818608E-02  0.1235070E+00
         -4   -1    0    0    0  501 -0.00000000000E+00  0.00000000000E+00  0.87192062489E+02  0.87201311120E+02  0.12700000000E+01 0.  1.
          4   -1    0    0  501    0  0.00000000000E+00 -0.00000000000E+00 -0.44779489226E+02  0.44797494967E+02  0.12700000000E+01 0.  1.
         25    2    1    2    0    0  0.00000000000E+00  0.00000000000E+00  0.42412573263E+02  0.13199880609E+03  0.12499943375E+03 0.  0.
    9000005    1    3    3    0    0  0.29800022429E+02 -0.21407589049E+02  0.74624287464E+02  0.83163155816E+02  0.10000000000E+01 0.  0.
    9000005    1    3    3    0    0 -0.29800022429E+02  0.21407589049E+02 -0.32211714201E+02  0.48835650272E+02  0.10000000000E+01 0.  0.
<mgrwt>
<rscale>  0 0.12499943E+03</rscale>
<asrwt>0</asrwt>
<pdfrwt beam="2">  1        4 0.68912488E-02 0.12499943E+03</pdfrwt>
<pdfrwt beam="1">  1       -4 0.13416260E-01 0.12499943E+03</pdfrwt>
<totfact> 0.10301855E+04</totfact>
</mgrwt>
</event>
<event>
 5    1  0.3191162E-002  0.1249985E+03  0.7818608E-02  0.1235072E+00
         -4   -1    0    0    0  501 -0.00000000000E+00  0.00000000000E+00  0.55781255827E+01  0.57208727495E+01  0.12700000000E+01 0. -1.
          4   -1    0    0  501    0  0.00000000000E+00 -0.00000000000E+00 -0.69127286481E+03  0.69127403143E+03  0.12700000000E+01 0. -1.
         25    2    1    2    0    0  0.00000000000E+00  0.00000000000E+00 -0.68569473923E+03  0.69699490418E+03  0.12499848416E+03 0.  0.
    9000005    1    3    3    0    0 -0.58757020443E+02 -0.18641224857E+02 -0.28563599044E+03  0.29221362348E+03  0.10000000000E+01 0.  0.
    9000005    1    3    3    0    0  0.58757020443E+02  0.18641224857E+02 -0.40005874879E+03  0.40478128070E+03  0.10000000000E+01 0.  0.
<mgrwt>
<rscale>  0 0.12499848E+03</rscale>
<asrwt>0</asrwt>
<pdfrwt beam="2">  1        4 0.10636068E+00 0.12499848E+03</pdfrwt>
<pdfrwt beam="1">  1       -4 0.86924400E-03 0.12499848E+03</pdfrwt>
<totfact> 0.43247255E+03</totfact>
</mgrwt>
</event>
<event>
 5    1  0.3191162E-002  0.1250014E+03  0.7818608E-02  0.1235067E+00
         -4   -1    0    0    0  501 -0.00000000000E+00  0.00000000000E+00  0.86117438953E+02  0.86126802982E+02  0.12700000000E+01 0.  1.
          4   -1    0    0  501    0  0.00000000000E+00 -0.00000000000E+00 -0.45339844529E+02  0.45357627825E+02  0.12700000000E+01 0.  1.
         25    2    1    2    0    0  0.00000000000E+00  0.00000000000E+00  0.40777594424E+02  0.13148443081E+03  0.12500137334E+03 0.  0.
    9000005    1    3    3    0    0 -0.14055811127E+02  0.19011794100E+02  0.81236388454E+02  0.84613030618E+02  0.10000000000E+01 0.  0.
    9000005    1    3    3    0    0  0.14055811127E+02 -0.19011794100E+02 -0.40458794029E+02  0.46871400189E+02  0.10000000000E+01 0.  0.
<mgrwt>
<rscale>  0 0.12500137E+03</rscale>
<asrwt>0</asrwt>
<pdfrwt beam="2">  1        4 0.69774490E-02 0.12500137E+03</pdfrwt>
<pdfrwt beam="1">  1       -4 0.13250925E-01 0.12500137E+03</pdfrwt>
<totfact> 0.10312396E+04</totfact>
</mgrwt>
</event>
<event>
 5    1  0.3191162E-002  0.1249944E+03  0.7818608E-02  0.1235078E+00
          4   -1    0    0  501    0  0.00000000000E+00  0.00000000000E+00  0.54267705172E+02  0.54282563726E+02  0.12700000000E+01 0.  1.
         -4   -1    0    0    0  501 -0.00000000000E+00 -0.00000000000E+00 -0.71944311421E+02  0.71955519913E+02  0.12700000000E+01 0.  1.
         25    2    1    2    0    0  0.00000000000E+00  0.00000000000E+00 -0.17676606249E+02  0.12623808364E+03  0.12499436528E+03 0.  0.
    9000005    1    3    3    0    0  0.25355983026E+02 -0.36413757921E+02 -0.53276228748E+02  0.69341504099E+02  0.10000000000E+01 0.  0.
    9000005    1    3    3    0    0 -0.25355983026E+02  0.36413757921E+02  0.35599622499E+02  0.56896579539E+02  0.10000000000E+01 0.  0.
<mgrwt>
<rscale>  0 0.12499437E+03</rscale>
<asrwt>0</asrwt>
<pdfrwt beam="1">  1        4 0.83508829E-02 0.12499437E+03</pdfrwt>
<pdfrwt beam="2">  1       -4 0.11070361E-01 0.12499437E+03</pdfrwt>
<totfact> 0.10427072E+04</totfact>
</mgrwt>
</event>
<event>
 5    1  0.3191162E-002  0.1249992E+03  0.7818608E-02  0.1235070E+00
         -4   -1    0    0    0  501 -0.00000000000E+00  0.00000000000E+00  0.19023971694E+03  0.19024395601E+03  0.12700000000E+01 0.  1.
          4   -1    0    0  501    0  0.00000000000E+00 -0.00000000000E+00 -0.20508941039E+02  0.20548225290E+02  0.12700000000E+01 0.  1.
         25    2    1    2    0    0  0.00000000000E+00  0.00000000000E+00  0.16973077590E+03  0.21079218130E+03  0.12499922965E+03 0.  0.
    9000005    1    3    3    0    0  0.61206944295E+02  0.77086652005E+01  0.10168566617E+03  0.11893985141E+03  0.10000000000E+01 0.  0.
    9000005    1    3    3    0    0 -0.61206944295E+02 -0.77086652005E+01  0.68045109728E+02  0.91852329895E+02  0.10000000000E+01 0.  0.
<mgrwt>
<rscale>  0 0.12499923E+03</rscale>
<asrwt>0</asrwt>
<pdfrwt beam="2">  1        4 0.31585697E-02 0.12499923E+03</pdfrwt>
<pdfrwt beam="1">  1       -4 0.29270997E-01 0.12499923E+03</pdfrwt>
<totfact> 0.88348192E+03</totfact>
</mgrwt>
</event>
<event>
 5    1  0.3191162E-002  0.1250008E+03  0.7818608E-02  0.1235068E+00
          4   -1    0    0  501    0  0.00000000000E+00  0.00000000000E+00  0.60678362291E+03  0.60678495197E+03  0.12700000000E+01 0. -1.
         -4   -1    0    0    0  501 -0.00000000000E+00 -0.00000000000E+00 -0.63737358459E+01  0.64990313612E+01  0.12700000000E+01 0. -1.
         25    2    1    2    0    0  0.00000000000E+00  0.00000000000E+00  0.60040988707E+03  0.61328398333E+03  0.12500084688E+03 0.  0.
    9000005    1    3    3    0    0  0.47975914024E+02 -0.25197202261E+02  0.14750220889E+03  0.15714480251E+03  0.10000000000E+01 0.  0.
    9000005    1    3    3    0    0 -0.47975914024E+02  0.25197202261E+02  0.45290767817E+03  0.45613918082E+03  0.10000000000E+01 0.  0.
<mgrwt>
<rscale>  0 0.12500085E+03</rscale>
<asrwt>0</asrwt>
<pdfrwt beam="1">  1        4 0.93361050E-01 0.12500085E+03</pdfrwt>
<pdfrwt beam="2">  1       -4 0.99031527E-03 0.12500085E+03</pdfrwt>
<totfact> 0.48038796E+03</totfact>
</mgrwt>
</event>
<event>
 4    1  0.3191162E-002  0.1249128E+03  0.7818608E-02  0.1235206E+00
          4   -1    0    0  501    0  0.00000000000E+00  0.00000000000E+00  0.25868220727E+02  0.25899377281E+02  0.12700000000E+01 0.  1.
         -4   -1    0    0    0  501 -0.00000000000E+00 -0.00000000000E+00 -0.15067047846E+03  0.15067583077E+03  0.12700000000E+01 0.  1.
    9000005    1    1    2    0    0 -0.86263772103E+01  0.61668099833E+02 -0.55706148137E+02  0.83555633329E+02  0.10000000000E+01 0.  0.
    9000005    1    1    2    0    0  0.86263772103E+01 -0.61668099833E+02 -0.69096109597E+02  0.93019574726E+02  0.10000000000E+01 0.  0.
<mgrwt>
<rscale>  0 0.12491277E+03</rscale>
<asrwt>0</asrwt>
<pdfrwt beam="1">  1        4 0.39825347E-02 0.12491277E+03</pdfrwt>
<pdfrwt beam="2">  1       -4 0.23182881E-01 0.12491277E+03</pdfrwt>
<totfact> 0.94421747E+03</totfact>
</mgrwt>
</event>
<event>
 5    1  0.3191162E-002  0.1250034E+03  0.7818608E-02  0.1235064E+00
         -4   -1    0    0    0  501 -0.00000000000E+00  0.00000000000E+00  0.42252564490E+02  0.42271646597E+02  0.12700000000E+01 0.  1.
          4   -1    0    0  501    0  0.00000000000E+00 -0.00000000000E+00 -0.92410793647E+02  0.92419520029E+02  0.12700000000E+01 0.  1.
         25    2    1    2    0    0  0.00000000000E+00  0.00000000000E+00 -0.50158229157E+02  0.13469116663E+03  0.12500344961E+03 0.  0.
    9000005    1    3    3    0    0  0.64851254571E+01  0.11513766045E+02 -0.90893456301E+02  0.91854472178E+02  0.10000000000E+01 0.  0.
    9000005    1    3    3    0    0 -0.64851254571E+01 -0.11513766045E+02  0.40735227144E+02  0.42836694448E+02  0.10000000000E+01 0.  0.
<mgrwt>
<rscale>  0 0.12500345E+03</rscale>
<asrwt>0</asrwt>
<pdfrwt beam="2">  1        4 0.14219184E-01 0.12500345E+03</pdfrwt>
<pdfrwt beam="1">  1       -4 0.65025337E-02 0.12500345E+03</pdfrwt>
<totfact> 0.10243787E+04</totfact>
</mgrwt>
</event>
<event>
 5    1  0.3191162E-002  0.1250425E+03  0.7818608E-02  0.1235003E+00
         -4   -1    0    0    0  501 -0.00000000000E+00  0.00000000000E+00  0.65447567000E+02  0.65459887918E+02  0.12700000000E+01 0.  1.
          4   -1    0    0  501    0  0.00000000000E+00 -0.00000000000E+00 -0.59701096640E+02  0.59714603239E+02  0.12700000000E+01 0.  1.
         25    2    1    2    0    0  0.00000000000E+00  0.00000000000E+00  0.57464703597E+01  0.12517449116E+03  0.12504251803E+03 0.  0.
    9000005    1    3    3    0    0 -0.23006784528E+02  0.21292056826E+02 -0.51269373054E+02  0.60101684099E+02  0.10000000000E+01 0.  0.
    9000005    1    3    3    0    0  0.23006784528E+02 -0.21292056826E+02  0.57015843414E+02  0.65072807058E+02  0.10000000000E+01 0.  0.
<mgrwt>
<rscale>  0 0.12504252E+03</rscale>
<asrwt>0</asrwt>
<pdfrwt beam="2">  1        4 0.91867708E-02 0.12504252E+03</pdfrwt>
<pdfrwt beam="1">  1       -4 0.10070843E-01 0.12504252E+03</pdfrwt>
<totfact> 0.10439040E+04</totfact>
</mgrwt>
</event>
<event>
 5    1  0.3191162E-002  0.1249982E+03  0.7818608E-02  0.1235072E+00
         -4   -1    0    0    0  501 -0.00000000000E+00  0.00000000000E+00  0.67230011263E+01  0.68419035468E+01  0.12700000000E+01 0.  1.
          4   -1    0    0  501    0  0.00000000000E+00 -0.00000000000E+00 -0.57579879691E+03  0.57580019748E+03  0.12700000000E+01 0.  1.
         25    2    1    2    0    0  0.00000000000E+00  0.00000000000E+00 -0.56907579578E+03  0.58264210103E+03  0.12499822618E+03 0.  0.
    9000005    1    3    3    0    0 -0.54327174095E+02  0.10191429170E+02 -0.42042072349E+03  0.42403996488E+03  0.10000000000E+01 0.  0.
    9000005    1    3    3    0    0  0.54327174095E+02 -0.10191429170E+02 -0.14865507229E+03  0.15860213615E+03  0.10000000000E+01 0.  0.
<mgrwt>
<rscale>  0 0.12499823E+03</rscale>
<asrwt>0</asrwt>
<pdfrwt beam="2">  1        4 0.88593646E-01 0.12499823E+03</pdfrwt>
<pdfrwt beam="1">  1       -4 0.10435624E-02 0.12499823E+03</pdfrwt>
<totfact> 0.49983908E+03</totfact>
</mgrwt>
</event>
<event>
 5    1  0.3191162E-002  0.1250012E+03  0.7818608E-02  0.1235067E+00
         -4   -1    0    0    0  501 -0.00000000000E+00  0.00000000000E+00  0.13942920221E+03  0.13943498603E+03  0.12700000000E+01 0. -1.
          4   -1    0    0  501    0  0.00000000000E+00 -0.00000000000E+00 -0.27995793179E+02  0.28024584488E+02  0.12700000000E+01 0. -1.
         25    2    1    2    0    0  0.00000000000E+00  0.00000000000E+00  0.11143340903E+03  0.16745957052E+03  0.12500121243E+03 0.  0.
    9000005    1    3    3    0    0 -0.27894222379E+02  0.30741237570E+02  0.11829798730E+03  0.12537354238E+03  0.10000000000E+01 0.  0.
    9000005    1    3    3    0    0  0.27894222379E+02 -0.30741237570E+02 -0.68645782712E+01  0.42086028136E+02  0.10000000000E+01 0.  0.
<mgrwt>
<rscale>  0 0.12500121E+03</rscale>
<asrwt>0</asrwt>
<pdfrwt beam="2">  1        4 0.43097047E-02 0.12500121E+03</pdfrwt>
<pdfrwt beam="1">  1       -4 0.21453306E-01 0.12500121E+03</pdfrwt>
<totfact> 0.95920994E+03</totfact>
</mgrwt>
</event>
<event>
 5    1  0.3191162E-002  0.1250008E+03  0.7818608E-02  0.1235068E+00
         -4   -1    0    0    0  501 -0.00000000000E+00  0.00000000000E+00  0.14669975853E+04  0.14669981350E+04  0.12700000000E+01 0. -1.
          4   -1    0    0  501    0  0.00000000000E+00 -0.00000000000E+00 -0.25107721146E+01  0.28136944773E+01  0.12700000000E+01 0. -1.
         25    2    1    2    0    0  0.00000000000E+00  0.00000000000E+00  0.14644868131E+04  0.14698118295E+04  0.12500075264E+03 0.  0.
    9000005    1    3    3    0    0 -0.20407382055E+02 -0.86215279779E+01  0.14193323980E+04  0.14195056351E+04  0.10000000000E+01 0.  0.
    9000005    1    3    3    0    0  0.20407382055E+02  0.86215279779E+01  0.45154415117E+02  0.50306194365E+02  0.10000000000E+01 0.  0.
<mgrwt>
<rscale>  0 0.12500075E+03</rscale>
<asrwt>0</asrwt>
<pdfrwt beam="2">  1        4 0.40961724E-03 0.12500075E+03</pdfrwt>
<pdfrwt beam="1">  1       -4 0.22571495E+00 0.12500075E+03</pdfrwt>
<totfact> 0.18530312E+03</totfact>
</mgrwt>
</event>
<event>
 5    1  0.3191162E-002  0.1249947E+03  0.7818608E-02  0.1235078E+00
          4   -1    0    0  501    0  0.00000000000E+00  0.00000000000E+00  0.50767720975E+02  0.50783603584E+02  0.12700000000E+01 0.  1.
         -4   -1    0    0    0  501 -0.00000000000E+00 -0.00000000000E+00 -0.76903893105E+02  0.76914378856E+02  0.12700000000E+01 0.  1.
         25    2    1    2    0    0  0.00000000000E+00  0.00000000000E+00 -0.26136172130E+02  0.12769798244E+03  0.12499470079E+03 0.  0.
    9000005    1    3    3    0    0  0.11749734215E+02 -0.59995450865E+02  0.15038099862E+00  0.61143544165E+02  0.10000000000E+01 0.  0.
    9000005    1    3    3    0    0 -0.11749734215E+02  0.59995450865E+02 -0.26286553129E+02  0.66554438275E+02  0.10000000000E+01 0.  0.
<mgrwt>
<rscale>  0 0.12499470E+03</rscale>
<asrwt>0</asrwt>
<pdfrwt beam="1">  1        4 0.78124469E-02 0.12499470E+03</pdfrwt>
<pdfrwt beam="2">  1       -4 0.11833397E-01 0.12499470E+03</pdfrwt>
<totfact> 0.10395259E+04</totfact>
</mgrwt>
</event>
<event>
 5    1  0.3191162E-002  0.1250009E+03  0.7818608E-02  0.1235068E+00
          4   -1    0    0  501    0  0.00000000000E+00  0.00000000000E+00  0.14673413411E+02  0.14728270813E+02  0.12700000000E+01 0.  1.
         -4   -1    0    0    0  501 -0.00000000000E+00 -0.00000000000E+00 -0.26566332845E+03  0.26566636404E+03  0.12700000000E+01 0.  1.
         25    2    1    2    0    0  0.00000000000E+00  0.00000000000E+00 -0.25098991504E+03  0.28039463485E+03  0.12500085521E+03 0.  0.
    9000005    1    3    3    0    0  0.96905401239E+00 -0.62174869686E+02 -0.13944036686E+03  0.15268028490E+03  0.10000000000E+01 0.  0.
    9000005    1    3    3    0    0 -0.96905401239E+00  0.62174869686E+02 -0.11154954817E+03  0.12771434995E+03  0.10000000000E+01 0.  0.
<mgrwt>
<rscale>  0 0.12500086E+03</rscale>
<asrwt>0</asrwt>
<pdfrwt beam="1">  1        4 0.22619017E-02 0.12500086E+03</pdfrwt>
<pdfrwt beam="2">  1       -4 0.40875731E-01 0.12500086E+03</pdfrwt>
<totfact> 0.78124325E+03</totfact>
</mgrwt>
</event>
<event>
 5    1  0.3191162E-002  0.1249905E+03  0.7818608E-02  0.1235084E+00
         -4   -1    0    0    0  501 -0.00000000000E+00  0.00000000000E+00  0.45614149999E+03  0.45614326797E+03  0.12700000000E+01 0.  1.
          4   -1    0    0  501    0  0.00000000000E+00 -0.00000000000E+00 -0.85134867770E+01  0.86076917407E+01  0.12700000000E+01 0.  1.
         25    2    1    2    0    0  0.00000000000E+00  0.00000000000E+00  0.44762801322E+03  0.46475095971E+03  0.12499046499E+03 0.  0.
    9000005    1    3    3    0    0  0.51628264346E+02 -0.32475776530E+02  0.17330811976E+03  0.18373039518E+03  0.10000000000E+01 0.  0.
    9000005    1    3    3    0    0 -0.51628264346E+02  0.32475776530E+02  0.27431989346E+03  0.28102056453E+03  0.10000000000E+01 0.  0.
<mgrwt>
<rscale>  0 0.12499046E+03</rscale>
<asrwt>0</asrwt>
<pdfrwt beam="2">  1        4 0.13171500E-02 0.12499046E+03</pdfrwt>
<pdfrwt beam="1">  1       -4 0.70182984E-01 0.12499046E+03</pdfrwt>
<totfact> 0.58719216E+03</totfact>
</mgrwt>
</event>
<event>
 5    1  0.3191162E-002  0.1249701E+03  0.7818608E-02  0.1235116E+00
          4   -1    0    0  501    0  0.00000000000E+00  0.00000000000E+00  0.37204333670E+01  0.39312242926E+01  0.12700000000E+01 0. -1.
         -4   -1    0    0    0  501 -0.00000000000E+00 -0.00000000000E+00 -0.10203216992E+04  0.10203224896E+04  0.12700000000E+01 0. -1.
         25    2    1    2    0    0  0.00000000000E+00  0.00000000000E+00 -0.10166012659E+04  0.10242537139E+04  0.12497014325E+03 0.  0.
    9000005    1    3    3    0    0 -0.16741409132E+02  0.14925161380E+02 -0.98622923680E+03  0.98648474025E+03  0.10000000000E+01 0.  0.
    9000005    1    3    3    0    0  0.16741409132E+02 -0.14925161380E+02 -0.30372029049E+02  0.37768973648E+02  0.10000000000E+01 0.  0.
<mgrwt>
<rscale>  0 0.12497014E+03</rscale>
<asrwt>0</asrwt>
<pdfrwt beam="1">  1        4 0.58865066E-03 0.12497014E+03</pdfrwt>
<pdfrwt beam="2">  1       -4 0.15698863E+00 0.12497014E+03</pdfrwt>
<totfact> 0.29831940E+03</totfact>
</mgrwt>
</event>
<event>
 5    1  0.3191162E-002  0.1250012E+03  0.7818608E-02  0.1235067E+00
          4   -1    0    0  501    0  0.00000000000E+00  0.00000000000E+00  0.38610552308E+03  0.38610761175E+03  0.12700000000E+01 0. -1.
         -4   -1    0    0    0  501 -0.00000000000E+00 -0.00000000000E+00 -0.10075263250E+02  0.10154990377E+02  0.12700000000E+01 0. -1.
         25    2    1    2    0    0  0.00000000000E+00  0.00000000000E+00  0.37603025983E+03  0.39626260213E+03  0.12500117414E+03 0.  0.
    9000005    1    3    3    0    0 -0.26106737279E+02  0.51289571137E+02  0.11080964288E+03  0.12486776523E+03  0.10000000000E+01 0.  0.
    9000005    1    3    3    0    0  0.26106737279E+02 -0.51289571137E+02  0.26522061695E+03  0.27139483689E+03  0.10000000000E+01 0.  0.
<mgrwt>
<rscale>  0 0.12500117E+03</rscale>
<asrwt>0</asrwt>
<pdfrwt beam="1">  1        4 0.59407136E-01 0.12500117E+03</pdfrwt>
<pdfrwt beam="2">  1       -4 0.15563342E-02 0.12500117E+03</pdfrwt>
<totfact> 0.64916234E+03</totfact>
</mgrwt>
</event>
<event>
 5    1  0.3191162E-002  0.1250015E+03  0.7818608E-02  0.1235067E+00
          4   -1    0    0  501    0  0.00000000000E+00  0.00000000000E+00  0.59196174609E+03  0.59196310842E+03  0.12700000000E+01 0. -1.
         -4   -1    0    0    0  501 -0.00000000000E+00 -0.00000000000E+00 -0.65364971500E+01  0.66587307343E+01  0.12700000000E+01 0. -1.
         25    2    1    2    0    0  0.00000000000E+00  0.00000000000E+00  0.58542524894E+03  0.59862183916E+03  0.12500153687E+03 0.  0.
    9000005    1    3    3    0    0 -0.52695032071E+02 -0.24167589051E+02  0.40446044286E+03  0.40859526259E+03  0.10000000000E+01 0.  0.
    9000005    1    3    3    0    0  0.52695032071E+02  0.24167589051E+02  0.18096480608E+03  0.19002657657E+03  0.10000000000E+01 0.  0.
<mgrwt>
<rscale>  0 0.12500154E+03</rscale>
<asrwt>0</asrwt>
<pdfrwt beam="1">  1        4 0.91080549E-01 0.12500154E+03</pdfrwt>
<pdfrwt beam="2">  1       -4 0.10151223E-02 0.12500154E+03</pdfrwt>
<totfact> 0.48953068E+03</totfact>
</mgrwt>
</event>
<event>
 5    1  0.3191162E-002  0.1249970E+03  0.7818608E-02  0.1235074E+00
         -4   -1    0    0    0  501 -0.00000000000E+00  0.00000000000E+00  0.51079608821E+03  0.51079766702E+03  0.12700000000E+01 0.  1.
          4   -1    0    0  501    0  0.00000000000E+00 -0.00000000000E+00 -0.75926815848E+01  0.76981630048E+01  0.12700000000E+01 0.  1.
         25    2    1    2    0    0  0.00000000000E+00  0.00000000000E+00  0.50320340662E+03  0.51849583002E+03  0.12499702921E+03 0.  0.
    9000005    1    3    3    0    0 -0.11099338988E+02  0.61308027738E+02  0.27157916476E+03  0.27863616478E+03  0.10000000000E+01 0.  0.
    9000005    1    3    3    0    0  0.11099338988E+02 -0.61308027738E+02  0.23162424187E+03  0.23985966524E+03  0.10000000000E+01 0.  0.
<mgrwt>
<rscale>  0 0.12499703E+03</rscale>
<asrwt>0</asrwt>
<pdfrwt beam="2">  1        4 0.11763398E-02 0.12499703E+03</pdfrwt>
<pdfrwt beam="1">  1       -4 0.78592277E-01 0.12499703E+03</pdfrwt>
<totfact> 0.54460882E+03</totfact>
</mgrwt>
</event>
<event>
 5    1  0.3191162E-002  0.1250039E+03  0.7818608E-02  0.1235063E+00
         -4   -1    0    0    0  501 -0.00000000000E+00  0.00000000000E+00  0.14403983260E+02  0.14459862854E+02  0.12700000000E+01 0. -1.
          4   -1    0    0  501    0  0.00000000000E+00 -0.00000000000E+00 -0.27062666603E+03  0.27062964594E+03  0.12700000000E+01 0. -1.
         25    2    1    2    0    0  0.00000000000E+00  0.00000000000E+00 -0.25622268277E+03  0.28508950880E+03  0.12500385940E+03 0.  0.
    9000005    1    3    3    0    0 -0.35424096697E+02  0.31183159838E+01 -0.24531302472E+03  0.24787914519E+03  0.10000000000E+01 0.  0.
    9000005    1    3    3    0    0  0.35424096697E+02 -0.31183159838E+01 -0.10909658044E+02  0.37210363611E+02  0.10000000000E+01 0.  0.
<mgrwt>
<rscale>  0 0.12500386E+03</rscale>
<asrwt>0</asrwt>
<pdfrwt beam="2">  1        4 0.41639396E-01 0.12500386E+03</pdfrwt>
<pdfrwt beam="1">  1       -4 0.22205253E-02 0.12500386E+03</pdfrwt>
<totfact> 0.77501432E+03</totfact>
</mgrwt>
</event>
<event>
 5    1  0.3191162E-002  0.1250126E+03  0.7818608E-02  0.1235050E+00
          4   -1    0    0  501    0  0.00000000000E+00  0.00000000000E+00  0.12582130499E+03  0.12582771431E+03  0.12700000000E+01 0. -1.
         -4   -1    0    0    0  501 -0.00000000000E+00 -0.00000000000E+00 -0.31032075368E+02  0.31058052123E+02  0.12700000000E+01 0. -1.
         25    2    1    2    0    0  0.00000000000E+00  0.00000000000E+00  0.94789229619E+02  0.15688576643E+03  0.12501258200E+03 0.  0.
    9000005    1    3    3    0    0 -0.29993956245E+02 -0.52801723637E+02  0.65939888652E+02  0.89647801678E+02  0.10000000000E+01 0.  0.
    9000005    1    3    3    0    0  0.29993956245E+02  0.52801723637E+02  0.28849340966E+02  0.67237964755E+02  0.10000000000E+01 0.  0.
<mgrwt>
<rscale>  0 0.12501258E+03</rscale>
<asrwt>0</asrwt>
<pdfrwt beam="1">  1        4 0.19359615E-01 0.12501258E+03</pdfrwt>
<pdfrwt beam="2">  1       -4 0.47766567E-02 0.12501258E+03</pdfrwt>
<totfact> 0.97918861E+03</totfact>
</mgrwt>
</event>
<event>
 5    1  0.3191162E-002  0.1250028E+03  0.7818608E-02  0.1235065E+00
          4   -1    0    0  501    0  0.00000000000E+00  0.00000000000E+00  0.33967745996E+02  0.33991479345E+02  0.12700000000E+01 0.  1.
         -4   -1    0    0    0  501 -0.00000000000E+00 -0.00000000000E+00 -0.11493649577E+03  0.11494351203E+03  0.12700000000E+01 0.  1.
         25    2    1    2    0    0  0.00000000000E+00  0.00000000000E+00 -0.80968749769E+02  0.14893499138E+03  0.12500277284E+03 0.  0.
    9000005    1    3    3    0    0  0.41410247557E+02 -0.16773434150E+02  0.11576371052E+02  0.46164586672E+02  0.10000000000E+01 0.  0.
    9000005    1    3    3    0    0 -0.41410247557E+02  0.16773434150E+02 -0.92545120821E+02  0.10277040471E+03  0.10000000000E+01 0.  0.
<mgrwt>
<rscale>  0 0.12500277E+03</rscale>
<asrwt>0</asrwt>
<pdfrwt beam="1">  1        4 0.52281725E-02 0.12500277E+03</pdfrwt>
<pdfrwt beam="2">  1       -4 0.17684903E-01 0.12500277E+03</pdfrwt>
<totfact> 0.99510205E+03</totfact>
</mgrwt>
</event>
<event>
 5    1  0.3191162E-002  0.1250075E+03  0.7818608E-02  0.1235058E+00
          4   -1    0    0  501    0  0.00000000000E+00  0.00000000000E+00  0.20247106295E+03  0.20247504595E+03  0.12700000000E+01 0.  1.
         -4   -1    0    0    0  501 -0.00000000000E+00 -0.00000000000E+00 -0.19270113632E+02  0.19311918066E+02  0.12700000000E+01 0.  1.
         25    2    1    2    0    0  0.00000000000E+00  0.00000000000E+00  0.18320094932E+03  0.22178696401E+03  0.12500747808E+03 0.  0.
    9000005    1    3    3    0    0  0.51198165931E+02  0.14166229674E+02  0.33192625109E+02  0.62647303370E+02  0.10000000000E+01 0.  0.
    9000005    1    3    3    0    0 -0.51198165931E+02 -0.14166229674E+02  0.15000832421E+03  0.15913966064E+03  0.10000000000E+01 0.  0.
<mgrwt>
<rscale>  0 0.12500748E+03</rscale>
<asrwt>0</asrwt>
<pdfrwt beam="1">  1        4 0.31152916E-01 0.12500748E+03</pdfrwt>
<pdfrwt beam="2">  1       -4 0.29681550E-02 0.12500748E+03</pdfrwt>
<totfact> 0.86571914E+03</totfact>
</mgrwt>
</event>
<event>
 5    1  0.3191162E-002  0.1249999E+03  0.7818608E-02  0.1235069E+00
         -4   -1    0    0    0  501 -0.00000000000E+00  0.00000000000E+00  0.35643015379E+03  0.35643241635E+03  0.12700000000E+01 0. -1.
          4   -1    0    0  501    0  0.00000000000E+00 -0.00000000000E+00 -0.10920263361E+02  0.10993864283E+02  0.12700000000E+01 0. -1.
         25    2    1    2    0    0  0.00000000000E+00  0.00000000000E+00  0.34550989042E+03  0.36742628064E+03  0.12499994928E+03 0.  0.
    9000005    1    3    3    0    0 -0.88345586218E+01  0.46048070072E+02  0.29419115865E+03  0.29790587777E+03  0.10000000000E+01 0.  0.
    9000005    1    3    3    0    0  0.88345586218E+01 -0.46048070072E+02  0.51318731774E+02  0.69520402863E+02  0.10000000000E+01 0.  0.
<mgrwt>
<rscale>  0 0.12499995E+03</rscale>
<asrwt>0</asrwt>
<pdfrwt beam="2">  1        4 0.16858763E-02 0.12499995E+03</pdfrwt>
<pdfrwt beam="1">  1       -4 0.54841241E-01 0.12499995E+03</pdfrwt>
<totfact> 0.67849134E+03</totfact>
</mgrwt>
</event>
<event>
 5    1  0.3191162E-002  0.1249998E+03  0.7818608E-02  0.1235070E+00
         -4   -1    0    0    0  501 -0.00000000000E+00  0.00000000000E+00  0.47241392005E+03  0.47241562713E+03  0.12700000000E+01 0. -1.
          4   -1    0    0  501    0  0.00000000000E+00 -0.00000000000E+00 -0.82181828371E+01  0.83157338307E+01  0.12700000000E+01 0. -1.
         25    2    1    2    0    0  0.00000000000E+00  0.00000000000E+00  0.46419573721E+03  0.48073136096E+03  0.12499983586E+03 0.  0.
    9000005    1    3    3    0    0 -0.51389010509E+02  0.11270910630E+02  0.36179937657E+03  0.36560587073E+03  0.10000000000E+01 0.  0.
    9000005    1    3    3    0    0  0.51389010509E+02 -0.11270910630E+02  0.10239636064E+03  0.11512549023E+03  0.10000000000E+01 0.  0.
<mgrwt>
<rscale>  0 0.12499984E+03</rscale>
<asrwt>0</asrwt>
<pdfrwt beam="2">  1        4 0.12719706E-02 0.12499984E+03</pdfrwt>
<pdfrwt beam="1">  1       -4 0.72686724E-01 0.12499984E+03</pdfrwt>
<totfact> 0.57391188E+03</totfact>
</mgrwt>
</event>
<event>
 5    1  0.3191162E-002  0.1249931E+03  0.7818608E-02  0.1235080E+00
          4   -1    0    0  501    0  0.00000000000E+00  0.00000000000E+00  0.18987534440E+02  0.19029959645E+02  0.12700000000E+01 0. -1.
         -4   -1    0    0    0  501 -0.00000000000E+00 -0.00000000000E+00 -0.20543035348E+03  0.20543427911E+03  0.12700000000E+01 0. -1.
         25    2    1    2    0    0  0.00000000000E+00  0.00000000000E+00 -0.18644281904E+03  0.22446423875E+03  0.12499307863E+03 0.  0.
    9000005    1    3    3    0    0  0.77585060441E+01 -0.10040638860E+02 -0.20310124804E+03  0.20349969484E+03  0.10000000000E+01 0.  0.
    9000005    1    3    3    0    0 -0.77585060441E+01  0.10040638860E+02  0.16658428997E+02  0.20964543911E+02  0.10000000000E+01 0.  0.
<mgrwt>
<rscale>  0 0.12499308E+03</rscale>
<asrwt>0</asrwt>
<pdfrwt beam="1">  1        4 0.29247247E-02 0.12499308E+03</pdfrwt>
<pdfrwt beam="2">  1       -4 0.31608234E-01 0.12499308E+03</pdfrwt>
<totfact> 0.86180153E+03</totfact>
</mgrwt>
</event>
<event>
 5    1  0.3191162E-002  0.1249919E+03  0.7818608E-02  0.1235082E+00
         -4   -1    0    0    0  501 -0.00000000000E+00  0.00000000000E+00  0.12639336202E+02  0.12702980738E+02  0.12700000000E+01 0. -1.
          4   -1    0    0  501    0  0.00000000000E+00 -0.00000000000E+00 -0.30817374704E+03  0.30817636390E+03  0.12700000000E+01 0. -1.
         25    2    1    2    0    0  0.00000000000E+00  0.00000000000E+00 -0.29553441084E+03  0.32087934463E+03  0.12499186303E+03 0.  0.
    9000005    1    3    3    0    0  0.33110123627E+02  0.49921984733E+02 -0.19342130965E+03  0.20248774747E+03  0.10000000000E+01 0.  0.
    9000005    1    3    3    0    0 -0.33110123627E+02 -0.49921984733E+02 -0.10211310119E+03  0.11839159717E+03  0.10000000000E+01 0.  0.
<mgrwt>
<rscale>  0 0.12499186E+03</rscale>
<asrwt>0</asrwt>
<pdfrwt beam="2">  1        4 0.47416437E-01 0.12499186E+03</pdfrwt>
<pdfrwt beam="1">  1       -4 0.19496105E-02 0.12499186E+03</pdfrwt>
<totfact> 0.73064841E+03</totfact>
</mgrwt>
</event>
<event>
 5    1  0.3191162E-002  0.1249908E+03  0.7818608E-02  0.1235084E+00
         -4   -1    0    0    0  501 -0.00000000000E+00  0.00000000000E+00  0.74463924962E+02  0.74474754251E+02  0.12700000000E+01 0. -1.
          4   -1    0    0  501    0  0.00000000000E+00 -0.00000000000E+00 -0.52428192787E+02  0.52443572522E+02  0.12700000000E+01 0. -1.
         25    2    1    2    0    0  0.00000000000E+00  0.00000000000E+00  0.22035732175E+02  0.12691832677E+03  0.12499075237E+03 0.  0.
    9000005    1    3    3    0    0 -0.21408863516E+01  0.25791173225E+02 -0.46735480688E+02  0.53431948924E+02  0.10000000000E+01 0.  0.
    9000005    1    3    3    0    0  0.21408863516E+01 -0.25791173225E+02  0.68771212863E+02  0.73486377849E+02  0.10000000000E+01 0.  0.
<mgrwt>
<rscale>  0 0.12499075E+03</rscale>
<asrwt>0</asrwt>
<pdfrwt beam="2">  1        4 0.80678919E-02 0.12499075E+03</pdfrwt>
<pdfrwt beam="1">  1       -4 0.11458005E-01 0.12499075E+03</pdfrwt>
<totfact> 0.10413094E+04</totfact>
</mgrwt>
</event>
<event>
 5    1  0.3191162E-002  0.1250053E+03  0.7818608E-02  0.1235061E+00
         -4   -1    0    0    0  501 -0.00000000000E+00  0.00000000000E+00  0.82496378637E+01  0.83468212442E+01  0.12700000000E+01 0. -1.
          4   -1    0    0  501    0  0.00000000000E+00 -0.00000000000E+00 -0.47067474937E+03  0.47067646276E+03  0.12700000000E+01 0. -1.
         25    2    1    2    0    0  0.00000000000E+00  0.00000000000E+00 -0.46242511151E+03  0.47902328400E+03  0.12500529135E+03 0.  0.
    9000005    1    3    3    0    0  0.43656403229E+02 -0.13140746523E+02 -0.39500726613E+03  0.39763086029E+03  0.10000000000E+01 0.  0.
    9000005    1    3    3    0    0 -0.43656403229E+02  0.13140746523E+02 -0.67417845376E+02  0.81392423709E+02  0.10000000000E+01 0.  0.
<mgrwt>
<rscale>  0 0.12500529E+03</rscale>
<asrwt>0</asrwt>
<pdfrwt beam="2">  1        4 0.72419086E-01 0.12500529E+03</pdfrwt>
<pdfrwt beam="1">  1       -4 0.12767829E-02 0.12500529E+03</pdfrwt>
<totfact> 0.57522754E+03</totfact>
</mgrwt>
</event>
<event>
 5    1  0.3191162E-002  0.1250063E+03  0.7818608E-02  0.1235060E+00
         -4   -1    0    0    0  501 -0.00000000000E+00  0.00000000000E+00  0.82761837790E+01  0.83730590554E+01  0.12700000000E+01 0. -1.
          4   -1    0    0  501    0  0.00000000000E+00 -0.00000000000E+00 -0.46918980590E+03  0.46919152471E+03  0.12700000000E+01 0. -1.
         25    2    1    2    0    0  0.00000000000E+00  0.00000000000E+00 -0.46091362212E+03  0.47756458377E+03  0.12500625829E+03 0.  0.
    9000005    1    3    3    0    0  0.31646184381E+02  0.22437253314E+02 -0.43271398719E+02  0.58123362509E+02  0.10000000000E+01 0.  0.
    9000005    1    3    3    0    0 -0.31646184381E+02 -0.22437253314E+02 -0.41764222340E+03  0.41944122126E+03  0.10000000000E+01 0.  0.
<mgrwt>
<rscale>  0 0.12500626E+03</rscale>
<asrwt>0</asrwt>
<pdfrwt beam="2">  1        4 0.72190611E-01 0.12500626E+03</pdfrwt>
<pdfrwt beam="1">  1       -4 0.12808436E-02 0.12500626E+03</pdfrwt>
<totfact> 0.57640159E+03</totfact>
</mgrwt>
</event>
<event>
 5    1  0.3191162E-002  0.1249983E+03  0.7818608E-02  0.1235072E+00
          4   -1    0    0  501    0  0.00000000000E+00  0.00000000000E+00  0.23697028265E+01  0.26885668089E+01  0.12700000000E+01 0.  1.
         -4   -1    0    0    0  501 -0.00000000000E+00 -0.00000000000E+00 -0.15441398895E+04  0.15441404118E+04  0.12700000000E+01 0.  1.
         25    2    1    2    0    0  0.00000000000E+00  0.00000000000E+00 -0.15417701867E+04  0.15468289786E+04  0.12499832175E+03 0.  0.
    9000005    1    3    3    0    0  0.47329146810E+02  0.40753628341E+02 -0.79636260351E+03  0.79880867711E+03  0.10000000000E+01 0.  0.
    9000005    1    3    3    0    0 -0.47329146810E+02 -0.40753628341E+02 -0.74540758317E+03  0.74802030147E+03  0.10000000000E+01 0.  0.
<mgrwt>
<rscale>  0 0.12499832E+03</rscale>
<asrwt>0</asrwt>
<pdfrwt beam="1">  1        4 0.38913907E-03 0.12499832E+03</pdfrwt>
<pdfrwt beam="2">  1       -4 0.23758380E+00 0.12499832E+03</pdfrwt>
<totfact> 0.17028754E+03</totfact>
</mgrwt>
</event>
<event>
 5    1  0.3191162E-002  0.1249987E+03  0.7818608E-02  0.1235071E+00
         -4   -1    0    0    0  501 -0.00000000000E+00  0.00000000000E+00  0.97118745120E+02  0.97127048517E+02  0.12700000000E+01 0. -1.
          4   -1    0    0  501    0  0.00000000000E+00 -0.00000000000E+00 -0.40200497950E+02  0.40220553644E+02  0.12700000000E+01 0. -1.
         25    2    1    2    0    0  0.00000000000E+00  0.00000000000E+00  0.56918247170E+02  0.13734760216E+03  0.12499870783E+03 0.  0.
    9000005    1    3    3    0    0  0.71826088154E+01 -0.35657107064E+02  0.84294095138E+02  0.91812382764E+02  0.10000000000E+01 0.  0.
    9000005    1    3    3    0    0 -0.71826088154E+01  0.35657107064E+02 -0.27375847968E+02  0.45535219397E+02  0.10000000000E+01 0.  0.
<mgrwt>
<rscale>  0 0.12499871E+03</rscale>
<asrwt>0</asrwt>
<pdfrwt beam="2">  1        4 0.61868735E-02 0.12499871E+03</pdfrwt>
<pdfrwt beam="1">  1       -4 0.14943527E-01 0.12499871E+03</pdfrwt>
<totfact> 0.10189120E+04</totfact>
</mgrwt>
</event>
<event>
 5    1  0.3191162E-002  0.1249987E+03  0.7818608E-02  0.1235071E+00
          4   -1    0    0  501    0  0.00000000000E+00  0.00000000000E+00  0.81538800332E+02  0.81548690115E+02  0.12700000000E+01 0.  1.
         -4   -1    0    0    0  501 -0.00000000000E+00 -0.00000000000E+00 -0.47884420601E+02  0.47901259235E+02  0.12700000000E+01 0.  1.
         25    2    1    2    0    0  0.00000000000E+00  0.00000000000E+00  0.33654379730E+02  0.12944994935E+03  0.12499868844E+03 0.  0.
    9000005    1    3    3    0    0  0.21313600831E+01 -0.11569352247E+02  0.80386809948E+02  0.81249195816E+02  0.10000000000E+01 0.  0.
    9000005    1    3    3    0    0 -0.21313600831E+01  0.11569352247E+02 -0.46732430218E+02  0.48200753534E+02  0.10000000000E+01 0.  0.
<mgrwt>
<rscale>  0 0.12499869E+03</rscale>
<asrwt>0</asrwt>
<pdfrwt beam="1">  1        4 0.12546487E-01 0.12499869E+03</pdfrwt>
<pdfrwt beam="2">  1       -4 0.73688900E-02 0.12499869E+03</pdfrwt>
<totfact> 0.10356595E+04</totfact>
</mgrwt>
</event>
<event>
 5    1  0.3191162E-002  0.1249985E+03  0.7818608E-02  0.1235072E+00
          4   -1    0    0  501    0  0.00000000000E+00  0.00000000000E+00  0.27006669712E+03  0.27006968322E+03  0.12700000000E+01 0.  1.
         -4   -1    0    0    0  501 -0.00000000000E+00 -0.00000000000E+00 -0.14432730587E+02  0.14488499308E+02  0.12700000000E+01 0.  1.
         25    2    1    2    0    0  0.00000000000E+00  0.00000000000E+00  0.25563396654E+03  0.28455818253E+03  0.12499853758E+03 0.  0.
    9000005    1    3    3    0    0  0.61471736098E+02  0.43693556852E+01  0.10423654769E+03  0.12109551389E+03  0.10000000000E+01 0.  0.
    9000005    1    3    3    0    0 -0.61471736098E+02 -0.43693556852E+01  0.15139741884E+03  0.16346266864E+03  0.10000000000E+01 0.  0.
<mgrwt>
<rscale>  0 0.12499854E+03</rscale>
<asrwt>0</asrwt>
<pdfrwt beam="1">  1        4 0.41553244E-01 0.12499854E+03</pdfrwt>
<pdfrwt beam="2">  1       -4 0.22249396E-02 0.12499854E+03</pdfrwt>
<totfact> 0.77580098E+03</totfact>
</mgrwt>
</event>
<event>
 5    1  0.3191162E-002  0.1249954E+03  0.7818608E-02  0.1235077E+00
          4   -1    0    0  501    0  0.00000000000E+00  0.00000000000E+00  0.49040793785E+03  0.49040958229E+03  0.12700000000E+01 0.  1.
         -4   -1    0    0    0  501 -0.00000000000E+00 -0.00000000000E+00 -0.79124228859E+01  0.80136967703E+01  0.12700000000E+01 0.  1.
         25    2    1    2    0    0  0.00000000000E+00  0.00000000000E+00  0.48249551496E+03  0.49842327906E+03  0.12499537253E+03 0.  0.
    9000005    1    3    3    0    0 -0.21069517790E+01 -0.12157665335E+02  0.48552164396E+03  0.48567943628E+03  0.10000000000E+01 0.  0.
    9000005    1    3    3    0    0  0.21069517790E+01  0.12157665335E+02 -0.30261289960E+01  0.12743842784E+02  0.10000000000E+01 0.  0.
<mgrwt>
<rscale>  0 0.12499537E+03</rscale>
<asrwt>0</asrwt>
<pdfrwt beam="1">  1        4 0.75455297E-01 0.12499537E+03</pdfrwt>
<pdfrwt beam="2">  1       -4 0.12252125E-02 0.12499537E+03</pdfrwt>
<totfact> 0.55992602E+03</totfact>
</mgrwt>
</event>
<event>
 5    1  0.3191162E-002  0.1250046E+03  0.7818608E-02  0.1235062E+00
          4   -1    0    0  501    0  0.00000000000E+00  0.00000000000E+00  0.51425102069E+01  0.52970096496E+01  0.12700000000E+01 0.  1.
         -4   -1    0    0    0  501 -0.00000000000E+00 -0.00000000000E+00 -0.74825840196E+03  0.74825947973E+03  0.12700000000E+01 0.  1.
         25    2    1    2    0    0  0.00000000000E+00  0.00000000000E+00 -0.74311589176E+03  0.75355648938E+03  0.12500461635E+03 0.  0.
    9000005    1    3    3    0    0 -0.17506762144E+02  0.47484642418E+02 -0.59257790178E+03  0.59473594785E+03  0.10000000000E+01 0.  0.
    9000005    1    3    3    0    0  0.17506762144E+02 -0.47484642418E+02 -0.15053798997E+03  0.15882054153E+03  0.10000000000E+01 0.  0.
<mgrwt>
<rscale>  0 0.12500462E+03</rscale>
<asrwt>0</asrwt>
<pdfrwt beam="1">  1        4 0.80312349E-03 0.12500462E+03</pdfrwt>
<pdfrwt beam="2">  1       -4 0.11512856E+00 0.12500462E+03</pdfrwt>
<totfact> 0.40400552E+03</totfact>
</mgrwt>
</event>
<event>
 5    1  0.3191162E-002  0.1250018E+03  0.7818608E-02  0.1235066E+00
          4   -1    0    0  501    0  0.00000000000E+00  0.00000000000E+00  0.11269133672E+03  0.11269849277E+03  0.12700000000E+01 0.  1.
         -4   -1    0    0    0  501 -0.00000000000E+00 -0.00000000000E+00 -0.34644384207E+02  0.34667654334E+02  0.12700000000E+01 0.  1.
         25    2    1    2    0    0  0.00000000000E+00  0.00000000000E+00  0.78046952513E+02  0.14736614710E+03  0.12500181805E+03 0.  0.
    9000005    1    3    3    0    0  0.34523992200E+02  0.51787229028E+02  0.45644355883E+02  0.77189574114E+02  0.10000000000E+01 0.  0.
    9000005    1    3    3    0    0 -0.34523992200E+02 -0.51787229028E+02  0.32402596630E+02  0.70176572987E+02  0.10000000000E+01 0.  0.
<mgrwt>
<rscale>  0 0.12500182E+03</rscale>
<asrwt>0</asrwt>
<pdfrwt beam="1">  1        4 0.17339469E-01 0.12500182E+03</pdfrwt>
<pdfrwt beam="2">  1       -4 0.53322456E-02 0.12500182E+03</pdfrwt>
<totfact> 0.99827246E+03</totfact>
</mgrwt>
</event>
<event>
 5    1  0.3191162E-002  0.1250011E+03  0.7818608E-02  0.1235068E+00
         -4   -1    0    0    0  501 -0.00000000000E+00  0.00000000000E+00  0.24272783056E+01  0.27394488447E+01  0.12700000000E+01 0.  1.
          4   -1    0    0  501    0  0.00000000000E+00 -0.00000000000E+00 -0.15117933786E+04  0.15117939121E+04  0.12700000000E+01 0.  1.
         25    2    1    2    0    0  0.00000000000E+00  0.00000000000E+00 -0.15093661003E+04  0.15145333609E+04  0.12500110605E+03 0.  0.
    9000005    1    3    3    0    0 -0.29444723146E+02  0.53696822640E+02 -0.90551763022E+03  0.90758664552E+03  0.10000000000E+01 0.  0.
    9000005    1    3    3    0    0  0.29444723146E+02 -0.53696822640E+02 -0.60384847010E+03  0.60694671539E+03  0.10000000000E+01 0.  0.
<mgrwt>
<rscale>  0 0.12500111E+03</rscale>
<asrwt>0</asrwt>
<pdfrwt beam="2">  1        4 0.23260694E+00 0.12500111E+03</pdfrwt>
<pdfrwt beam="1">  1       -4 0.39748279E-03 0.12500111E+03</pdfrwt>
<totfact> 0.17646139E+03</totfact>
</mgrwt>
</event>
<event>
 5    1  0.3191162E-002  0.1250005E+03  0.7818608E-02  0.1235069E+00
         -4   -1    0    0    0  501 -0.00000000000E+00  0.00000000000E+00  0.39720419345E+02  0.39740717318E+02  0.12700000000E+01 0. -1.
          4   -1    0    0  501    0  0.00000000000E+00 -0.00000000000E+00 -0.98294854922E+02  0.98303058977E+02  0.12700000000E+01 0. -1.
         25    2    1    2    0    0  0.00000000000E+00  0.00000000000E+00 -0.58574435577E+02  0.13804377629E+03  0.12500047868E+03 0.  0.
    9000005    1    3    3    0    0  0.21254966459E+02  0.47167037240E+02  0.94244317353E+01  0.52595845033E+02  0.10000000000E+01 0.  0.
    9000005    1    3    3    0    0 -0.21254966459E+02 -0.47167037240E+02 -0.67998867313E+02  0.85447931262E+02  0.10000000000E+01 0.  0.
<mgrwt>
<rscale>  0 0.12500048E+03</rscale>
<asrwt>0</asrwt>
<pdfrwt beam="2">  1        4 0.15124478E-01 0.12500048E+03</pdfrwt>
<pdfrwt beam="1">  1       -4 0.61130262E-02 0.12500048E+03</pdfrwt>
<totfact> 0.10174182E+04</totfact>
</mgrwt>
</event>
<event>
 4    1  0.3191162E-002  0.1252323E+03  0.7818608E-02  0.1234707E+00
         -4   -1    0    0    0  501 -0.00000000000E+00  0.00000000000E+00  0.15909437552E+02  0.15960047093E+02  0.12700000000E+01 0.  1.
          4   -1    0    0  501    0  0.00000000000E+00 -0.00000000000E+00 -0.24600004184E+03  0.24600332007E+03  0.12700000000E+01 0.  1.
    9000005    1    1    2    0    0  0.95315384583E+01 -0.16137446258E+02 -0.24000441927E+03  0.24073717757E+03  0.10000000000E+01 0.  0.
    9000005    1    1    2    0    0 -0.95315384583E+01  0.16137446258E+02  0.99138149793E+01  0.21226189591E+02  0.10000000000E+01 0.  0.
<mgrwt>
<rscale>  0 0.12523226E+03</rscale>
<asrwt>0</asrwt>
<pdfrwt beam="2">  1        4 0.37850303E-01 0.12523226E+03</pdfrwt>
<pdfrwt beam="1">  1       -4 0.24517512E-02 0.12523226E+03</pdfrwt>
<totfact> 0.80215919E+03</totfact>
</mgrwt>
</event>
<event>
 5    1  0.3191162E-002  0.1249999E+03  0.7818608E-02  0.1235070E+00
          4   -1    0    0  501    0  0.00000000000E+00  0.00000000000E+00  0.11430338480E+02  0.11500675535E+02  0.12700000000E+01 0.  1.
         -4   -1    0    0    0  501 -0.00000000000E+00 -0.00000000000E+00 -0.34062346302E+03  0.34062583058E+03  0.12700000000E+01 0.  1.
         25    2    1    2    0    0  0.00000000000E+00  0.00000000000E+00 -0.32919312454E+03  0.35212650612E+03  0.12499985226E+03 0.  0.
    9000005    1    3    3    0    0 -0.51953470436E+02 -0.28899786749E+02 -0.21884733471E+03  0.22678076786E+03  0.10000000000E+01 0.  0.
    9000005    1    3    3    0    0  0.51953470436E+02  0.28899786749E+02 -0.11034578983E+03  0.12534573825E+03  0.10000000000E+01 0.  0.
<mgrwt>
<rscale>  0 0.12499985E+03</rscale>
<asrwt>0</asrwt>
<pdfrwt beam="1">  1        4 0.17641065E-02 0.12499985E+03</pdfrwt>
<pdfrwt beam="2">  1       -4 0.52409195E-01 0.12499985E+03</pdfrwt>
<totfact> 0.69491477E+03</totfact>
</mgrwt>
</event>
<event>
 5    1  0.3191162E-002  0.1250011E+03  0.7818608E-02  0.1235068E+00
         -4   -1    0    0    0  501 -0.00000000000E+00  0.00000000000E+00  0.34486272101E+01  0.36750414466E+01  0.12700000000E+01 0. -1.
          4   -1    0    0  501    0  0.00000000000E+00 -0.00000000000E+00 -0.10964889634E+04  0.10964896988E+04  0.12700000000E+01 0. -1.
         25    2    1    2    0    0  0.00000000000E+00  0.00000000000E+00 -0.10930403362E+04  0.11001647403E+04  0.12500111731E+03 0.  0.
    9000005    1    3    3    0    0  0.22304811618E+02  0.55290153964E+02 -0.38167267840E+03  0.38630239345E+03  0.10000000000E+01 0.  0.
    9000005    1    3    3    0    0 -0.22304811618E+02 -0.55290153964E+02 -0.71136765775E+03  0.71386234685E+03  0.10000000000E+01 0.  0.
<mgrwt>
<rscale>  0 0.12500112E+03</rscale>
<asrwt>0</asrwt>
<pdfrwt beam="2">  1        4 0.16870781E+00 0.12500112E+03</pdfrwt>
<pdfrwt beam="1">  1       -4 0.54803196E-03 0.12500112E+03</pdfrwt>
<totfact> 0.27477949E+03</totfact>
</mgrwt>
</event>
<event>
 5    1  0.3191162E-002  0.1249896E+03  0.7818608E-02  0.1235086E+00
         -4   -1    0    0    0  501 -0.00000000000E+00  0.00000000000E+00  0.22184563168E+03  0.22184926684E+03  0.12700000000E+01 0. -1.
          4   -1    0    0  501    0  0.00000000000E+00 -0.00000000000E+00 -0.17578348511E+02  0.17624166260E+02  0.12700000000E+01 0. -1.
         25    2    1    2    0    0  0.00000000000E+00  0.00000000000E+00  0.20426728317E+03  0.23947343310E+03  0.12498960831E+03 0.  0.
    9000005    1    3    3    0    0 -0.42682814699E+02 -0.33169384248E+02  0.16219085042E+03  0.17096462407E+03  0.10000000000E+01 0.  0.
    9000005    1    3    3    0    0  0.42682814699E+02  0.33169384248E+02  0.42076432752E+02  0.68508809033E+02  0.10000000000E+01 0.  0.
<mgrwt>
<rscale>  0 0.12498961E+03</rscale>
<asrwt>0</asrwt>
<pdfrwt beam="2">  1        4 0.27081655E-02 0.12498961E+03</pdfrwt>
<pdfrwt beam="1">  1       -4 0.34133899E-01 0.12498961E+03</pdfrwt>
<totfact> 0.83895289E+03</totfact>
</mgrwt>
</event>
<event>
 5    1  0.3191162E-002  0.1249928E+03  0.7818608E-02  0.1235081E+00
         -4   -1    0    0    0  501 -0.00000000000E+00  0.00000000000E+00  0.35503325090E+02  0.35526032602E+02  0.12700000000E+01 0. -1.
          4   -1    0    0  501    0  0.00000000000E+00 -0.00000000000E+00 -0.10995069005E+03  0.10995802446E+03  0.12700000000E+01 0. -1.
         25    2    1    2    0    0  0.00000000000E+00  0.00000000000E+00 -0.74447364961E+02  0.14548405706E+03  0.12499280263E+03 0.  0.
    9000005    1    3    3    0    0 -0.59907492388E+02 -0.17751354402E+02 -0.38252930065E+02  0.73268716966E+02  0.10000000000E+01 0.  0.
    9000005    1    3    3    0    0  0.59907492388E+02  0.17751354402E+02 -0.36194434896E+02  0.72215340093E+02  0.10000000000E+01 0.  0.
<mgrwt>
<rscale>  0 0.12499280E+03</rscale>
<asrwt>0</asrwt>
<pdfrwt beam="2">  1        4 0.16917802E-01 0.12499280E+03</pdfrwt>
<pdfrwt beam="1">  1       -4 0.54643610E-02 0.12499280E+03</pdfrwt>
<totfact> 0.10022787E+04</totfact>
</mgrwt>
</event>
<event>
 4    1  0.3191162E-002  0.1250728E+03  0.7818608E-02  0.1234956E+00
          4   -1    0    0  501    0  0.00000000000E+00  0.00000000000E+00  0.66687978217E+01  0.67886496733E+01  0.12700000000E+01 0.  1.
         -4   -1    0    0    0  501 -0.00000000000E+00 -0.00000000000E+00 -0.58108916878E+03  0.58109055660E+03  0.12700000000E+01 0.  1.
    9000005    1    1    2    0    0  0.29780603488E+01 -0.51781944263E+02 -0.12306539901E+03  0.13355272752E+03  0.10000000000E+01 0.  0.
    9000005    1    1    2    0    0 -0.29780603488E+01  0.51781944263E+02 -0.45135497195E+03  0.45432647875E+03  0.10000000000E+01 0.  0.
<mgrwt>
<rscale>  0 0.12507277E+03</rscale>
<asrwt>0</asrwt>
<pdfrwt beam="1">  1        4 0.10352955E-02 0.12507277E+03</pdfrwt>
<pdfrwt beam="2">  1       -4 0.89407620E-01 0.12507277E+03</pdfrwt>
<totfact> 0.49562620E+03</totfact>
</mgrwt>
</event>
<event>
 5    1  0.3191162E-002  0.1249991E+03  0.7818608E-02  0.1235071E+00
         -4   -1    0    0    0  501 -0.00000000000E+00  0.00000000000E+00  0.46066365909E+02  0.46083868848E+02  0.12700000000E+01 0.  1.
          4   -1    0    0  501    0  0.00000000000E+00 -0.00000000000E+00 -0.84756601394E+02  0.84766115753E+02  0.12700000000E+01 0.  1.
         25    2    1    2    0    0  0.00000000000E+00  0.00000000000E+00 -0.38690235485E+02  0.13084998460E+03  0.12499913659E+03 0.  0.
    9000005    1    3    3    0    0 -0.45439207439E+02  0.36817048558E+02 -0.42398163300E+02  0.72241407021E+02  0.10000000000E+01 0.  0.
    9000005    1    3    3    0    0  0.45439207439E+02 -0.36817048558E+02  0.37079278149E+01  0.58608577580E+02  0.10000000000E+01 0.  0.
<mgrwt>
<rscale>  0 0.12499914E+03</rscale>
<asrwt>0</asrwt>
<pdfrwt beam="2">  1        4 0.13041555E-01 0.12499914E+03</pdfrwt>
<pdfrwt beam="1">  1       -4 0.70892115E-02 0.12499914E+03</pdfrwt>
<totfact> 0.10326508E+04</totfact>
</mgrwt>
</event>
<event>
 5    1  0.3191162E-002  0.1249999E+03  0.7818608E-02  0.1235069E+00
          4   -1    0    0  501    0  0.00000000000E+00  0.00000000000E+00  0.43204389351E+01  0.45032313501E+01  0.12700000000E+01 0. -1.
         -4   -1    0    0    0  501 -0.00000000000E+00 -0.00000000000E+00 -0.88521801310E+03  0.88521892412E+03  0.12700000000E+01 0. -1.
         25    2    1    2    0    0  0.00000000000E+00  0.00000000000E+00 -0.88089757417E+03  0.88972215547E+03  0.12499991105E+03 0.  0.
    9000005    1    3    3    0    0  0.85285172195E+01 -0.60192612494E+02 -0.54343752262E+03  0.54682833431E+03  0.10000000000E+01 0.  0.
    9000005    1    3    3    0    0 -0.85285172195E+01  0.60192612494E+02 -0.33746005155E+03  0.34289382117E+03  0.10000000000E+01 0.  0.
<mgrwt>
<rscale>  0 0.12499991E+03</rscale>
<asrwt>0</asrwt>
<pdfrwt beam="1">  1        4 0.67881465E-03 0.12499991E+03</pdfrwt>
<pdfrwt beam="2">  1       -4 0.13620138E+00 0.12499991E+03</pdfrwt>
<totfact> 0.34554704E+03</totfact>
</mgrwt>
</event>
<event>
 5    1  0.3191162E-002  0.1249980E+03  0.7818608E-02  0.1235072E+00
         -4   -1    0    0    0  501 -0.00000000000E+00  0.00000000000E+00  0.45710514878E+02  0.45728154024E+02  0.12700000000E+01 0.  1.
          4   -1    0    0  501    0  0.00000000000E+00 -0.00000000000E+00 -0.85414656775E+02  0.85424097842E+02  0.12700000000E+01 0.  1.
         25    2    1    2    0    0  0.00000000000E+00  0.00000000000E+00 -0.39704141897E+02  0.13115225187E+03  0.12499797713E+03 0.  0.
    9000005    1    3    3    0    0  0.17987504367E+02  0.31918488702E+02  0.33264338840E+02  0.49496024819E+02  0.10000000000E+01 0.  0.
    9000005    1    3    3    0    0 -0.17987504367E+02 -0.31918488702E+02 -0.72968480737E+02  0.81656227047E+02  0.10000000000E+01 0.  0.
<mgrwt>
<rscale>  0 0.12499798E+03</rscale>
<asrwt>0</asrwt>
<pdfrwt beam="2">  1        4 0.13142799E-01 0.12499798E+03</pdfrwt>
<pdfrwt beam="1">  1       -4 0.70344700E-02 0.12499798E+03</pdfrwt>
<totfact> 0.10320297E+04</totfact>
</mgrwt>
</event>
<event>
 5    1  0.3191162E-002  0.1249954E+03  0.7818608E-02  0.1235077E+00
          4   -1    0    0  501    0  0.00000000000E+00  0.00000000000E+00  0.37034769619E+03  0.37034987373E+03  0.12700000000E+01 0.  1.
         -4   -1    0    0    0  501 -0.00000000000E+00 -0.00000000000E+00 -0.10506291635E+02  0.10582772034E+02  0.12700000000E+01 0.  1.
         25    2    1    2    0    0  0.00000000000E+00  0.00000000000E+00  0.35984140456E+03  0.38093264577E+03  0.12499537663E+03 0.  0.
    9000005    1    3    3    0    0 -0.14556673458E+02 -0.51364824713E+02  0.27889504945E+03  0.28396072012E+03  0.10000000000E+01 0.  0.
    9000005    1    3    3    0    0  0.14556673458E+02  0.51364824713E+02  0.80946355105E+02  0.96971925653E+02  0.10000000000E+01 0.  0.
<mgrwt>
<rscale>  0 0.12499538E+03</rscale>
<asrwt>0</asrwt>
<pdfrwt beam="1">  1        4 0.56982624E-01 0.12499538E+03</pdfrwt>
<pdfrwt beam="2">  1       -4 0.16224030E-02 0.12499538E+03</pdfrwt>
<totfact> 0.66457262E+03</totfact>
</mgrwt>
</event>
<event>
 5    1  0.3191162E-002  0.1250003E+03  0.7818608E-02  0.1235069E+00
         -4   -1    0    0    0  501 -0.00000000000E+00  0.00000000000E+00  0.42355833331E+02  0.42374868934E+02  0.12700000000E+01 0. -1.
          4   -1    0    0  501    0  0.00000000000E+00 -0.00000000000E+00 -0.92180974166E+02  0.92189722302E+02  0.12700000000E+01 0. -1.
         25    2    1    2    0    0  0.00000000000E+00  0.00000000000E+00 -0.49825140835E+02  0.13456459124E+03  0.12500033822E+03 0.  0.
    9000005    1    3    3    0    0  0.14214897219E+02 -0.40703846438E+02 -0.73611046704E+02  0.85313847731E+02  0.10000000000E+01 0.  0.
    9000005    1    3    3    0    0 -0.14214897219E+02  0.40703846438E+02  0.23785905869E+02  0.49250743505E+02  0.10000000000E+01 0.  0.
<mgrwt>
<rscale>  0 0.12500034E+03</rscale>
<asrwt>0</asrwt>
<pdfrwt beam="2">  1        4 0.14183825E-01 0.12500034E+03</pdfrwt>
<pdfrwt beam="1">  1       -4 0.65184193E-02 0.12500034E+03</pdfrwt>
<totfact> 0.10247178E+04</totfact>
</mgrwt>
</event>
<event>
 5    1  0.3191162E-002  0.1250014E+03  0.7818608E-02  0.1235067E+00
         -4   -1    0    0    0  501 -0.00000000000E+00  0.00000000000E+00  0.10940452356E+03  0.10941189458E+03  0.12700000000E+01 0.  1.
          4   -1    0    0  501    0  0.00000000000E+00 -0.00000000000E+00 -0.35685573519E+02  0.35708165136E+02  0.12700000000E+01 0.  1.
         25    2    1    2    0    0  0.00000000000E+00  0.00000000000E+00  0.73718950041E+02  0.14512005972E+03  0.12500139254E+03 0.  0.
    9000005    1    3    3    0    0  0.37058182828E+02 -0.50298671527E+02  0.38530498516E+02  0.73408886300E+02  0.10000000000E+01 0.  0.
    9000005    1    3    3    0    0 -0.37058182828E+02  0.50298671527E+02  0.35188451525E+02  0.71711173416E+02  0.10000000000E+01 0.  0.
<mgrwt>
<rscale>  0 0.12500139E+03</rscale>
<asrwt>0</asrwt>
<pdfrwt beam="2">  1        4 0.54923932E-02 0.12500139E+03</pdfrwt>
<pdfrwt beam="1">  1       -4 0.16833769E-01 0.12500139E+03</pdfrwt>
<totfact> 0.10028235E+04</totfact>
</mgrwt>
</event>
<event>
 5    1  0.3191162E-002  0.1250035E+03  0.7818608E-02  0.1235064E+00
         -4   -1    0    0    0  501 -0.00000000000E+00  0.00000000000E+00  0.83630595760E+03  0.83630692190E+03  0.12700000000E+01 0.  1.
          4   -1    0    0  501    0  0.00000000000E+00 -0.00000000000E+00 -0.45837901252E+01  0.47564726333E+01  0.12700000000E+01 0.  1.
         25    2    1    2    0    0  0.00000000000E+00  0.00000000000E+00  0.83172216747E+03  0.84106339453E+03  0.12500347897E+03 0.  0.
    9000005    1    3    3    0    0 -0.17946558265E+02  0.59123096623E+02  0.47892376031E+03  0.48289397149E+03  0.10000000000E+01 0.  0.
    9000005    1    3    3    0    0  0.17946558265E+02 -0.59123096623E+02  0.35279840716E+03  0.35816942304E+03  0.10000000000E+01 0.  0.
<mgrwt>
<rscale>  0 0.12500348E+03</rscale>
<asrwt>0</asrwt>
<pdfrwt beam="2">  1        4 0.71855659E-03 0.12500348E+03</pdfrwt>
<pdfrwt beam="1">  1       -4 0.12867569E+00 0.12500348E+03</pdfrwt>
<totfact> 0.36493093E+03</totfact>
</mgrwt>
</event>
<event>
 5    1  0.3191162E-002  0.1249985E+03  0.7818608E-02  0.1235072E+00
         -4   -1    0    0    0  501 -0.00000000000E+00  0.00000000000E+00  0.14192150086E+03  0.14192718311E+03  0.12700000000E+01 0. -1.
          4   -1    0    0  501    0  0.00000000000E+00 -0.00000000000E+00 -0.27502485157E+02  0.27531792347E+02  0.12700000000E+01 0. -1.
         25    2    1    2    0    0  0.00000000000E+00  0.00000000000E+00  0.11441901570E+03  0.16945897546E+03  0.12499853283E+03 0.  0.
    9000005    1    3    3    0    0 -0.32001094390E+02  0.42599729155E+02  0.12939477516E+02  0.54838280832E+02  0.10000000000E+01 0.  0.
    9000005    1    3    3    0    0  0.32001094390E+02 -0.42599729155E+02  0.10147953819E+03  0.11462069463E+03  0.10000000000E+01 0.  0.
<mgrwt>
<rscale>  0 0.12499853E+03</rscale>
<asrwt>0</asrwt>
<pdfrwt beam="2">  1        4 0.42338432E-02 0.12499853E+03</pdfrwt>
<pdfrwt beam="1">  1       -4 0.21836768E-01 0.12499853E+03</pdfrwt>
<totfact> 0.95552681E+03</totfact>
</mgrwt>
</event>
<event>
 5    1  0.3191162E-002  0.1249996E+03  0.7818608E-02  0.1235070E+00
          4   -1    0    0  501    0  0.00000000000E+00  0.00000000000E+00  0.53287002293E+03  0.53287153634E+03  0.12700000000E+01 0.  1.
         -4   -1    0    0    0  501 -0.00000000000E+00 -0.00000000000E+00 -0.72740027636E+01  0.73840379336E+01  0.12700000000E+01 0.  1.
         25    2    1    2    0    0  0.00000000000E+00  0.00000000000E+00  0.52559602017E+03  0.54025557427E+03  0.12499963646E+03 0.  0.
    9000005    1    3    3    0    0 -0.52848606004E+02 -0.20843871828E+02  0.37531977220E+03  0.37959632975E+03  0.10000000000E+01 0.  0.
    9000005    1    3    3    0    0  0.52848606004E+02  0.20843871828E+02  0.15027624797E+03  0.16065924453E+03  0.10000000000E+01 0.  0.
<mgrwt>
<rscale>  0 0.12499964E+03</rscale>
<asrwt>0</asrwt>
<pdfrwt beam="1">  1        4 0.81988607E-01 0.12499964E+03</pdfrwt>
<pdfrwt beam="2">  1       -4 0.11276577E-02 0.12499964E+03</pdfrwt>
<totfact> 0.52871342E+03</totfact>
</mgrwt>
</event>
<event>
 5    1  0.3191162E-002  0.1250037E+03  0.7818608E-02  0.1235064E+00
         -4   -1    0    0    0  501 -0.00000000000E+00  0.00000000000E+00  0.19070441223E+02  0.19112682398E+02  0.12700000000E+01 0.  1.
          4   -1    0    0  501    0  0.00000000000E+00 -0.00000000000E+00 -0.20457386943E+03  0.20457781149E+03  0.12700000000E+01 0.  1.
         25    2    1    2    0    0  0.00000000000E+00  0.00000000000E+00 -0.18550342821E+03  0.22369049389E+03  0.12500366066E+03 0.  0.
    9000005    1    3    3    0    0  0.35763018604E+00  0.61109707427E+02 -0.69354446959E+02  0.92442217380E+02  0.10000000000E+01 0.  0.
    9000005    1    3    3    0    0 -0.35763018604E+00 -0.61109707427E+02 -0.11614898125E+03  0.13124827651E+03  0.10000000000E+01 0.  0.
<mgrwt>
<rscale>  0 0.12500366E+03</rscale>
<asrwt>0</asrwt>
<pdfrwt beam="2">  1        4 0.31476454E-01 0.12500366E+03</pdfrwt>
<pdfrwt beam="1">  1       -4 0.29374668E-02 0.12500366E+03</pdfrwt>
<totfact> 0.86280673E+03</totfact>
</mgrwt>
</event>
<event>
 5    1  0.3191162E-002  0.1250016E+03  0.7818608E-02  0.1235067E+00
          4   -1    0    0  501    0  0.00000000000E+00  0.00000000000E+00  0.10856190688E+03  0.10856933510E+03  0.12700000000E+01 0. -1.
         -4   -1    0    0    0  501 -0.00000000000E+00 -0.00000000000E+00 -0.35962800475E+02  0.35985218049E+02  0.12700000000E+01 0. -1.
         25    2    1    2    0    0  0.00000000000E+00  0.00000000000E+00  0.72599106403E+02  0.14455455315E+03  0.12500155434E+03 0.  0.
    9000005    1    3    3    0    0 -0.65118549932E+01 -0.58235772568E+02  0.11187942754E+02  0.59665563980E+02  0.10000000000E+01 0.  0.
    9000005    1    3    3    0    0  0.65118549932E+01  0.58235772568E+02  0.61411163649E+02  0.84888989173E+02  0.10000000000E+01 0.  0.
<mgrwt>
<rscale>  0 0.12500155E+03</rscale>
<asrwt>0</asrwt>
<pdfrwt beam="1">  1        4 0.16704128E-01 0.12500155E+03</pdfrwt>
<pdfrwt beam="2">  1       -4 0.55350344E-02 0.12500155E+03</pdfrwt>
<totfact> 0.10039695E+04</totfact>
</mgrwt>
</event>
<event>
 5    1  0.3191162E-002  0.1250005E+03  0.7818608E-02  0.1235068E+00
         -4   -1    0    0    0  501 -0.00000000000E+00  0.00000000000E+00  0.71593413532E+02  0.71604676950E+02  0.12700000000E+01 0. -1.
          4   -1    0    0  501    0  0.00000000000E+00 -0.00000000000E+00 -0.54539099010E+02  0.54553883646E+02  0.12700000000E+01 0. -1.
         25    2    1    2    0    0  0.00000000000E+00  0.00000000000E+00  0.17054314522E+02  0.12615856060E+03  0.12500053107E+03 0.  0.
    9000005    1    3    3    0    0 -0.56131608905E+01 -0.70666777006E+01  0.70937216028E+02  0.71515971130E+02  0.10000000000E+01 0.  0.
    9000005    1    3    3    0    0  0.56131608905E+01  0.70666777006E+01 -0.53882901506E+02  0.54642589466E+02  0.10000000000E+01 0.  0.
<mgrwt>
<rscale>  0 0.12500053E+03</rscale>
<asrwt>0</asrwt>
<pdfrwt beam="2">  1        4 0.83926343E-02 0.12500053E+03</pdfrwt>
<pdfrwt beam="1">  1       -4 0.11016375E-01 0.12500053E+03</pdfrwt>
<totfact> 0.10427360E+04</totfact>
</mgrwt>
</event>
<event>
 5    1  0.3191162E-002  0.1249976E+03  0.7818608E-02  0.1235073E+00
         -4   -1    0    0    0  501 -0.00000000000E+00  0.00000000000E+00  0.25811935135E+03  0.25812247566E+03  0.12700000000E+01 0.  1.
          4   -1    0    0  501    0  0.00000000000E+00 -0.00000000000E+00 -0.15103054203E+02  0.15156356629E+02  0.12700000000E+01 0.  1.
         25    2    1    2    0    0  0.00000000000E+00  0.00000000000E+00  0.24301629715E+03  0.27327883229E+03  0.12499759797E+03 0.  0.
    9000005    1    3    3    0    0 -0.34838677492E+02 -0.14260780941E+02  0.12457258922E+02  0.39664677261E+02  0.10000000000E+01 0.  0.
    9000005    1    3    3    0    0  0.34838677492E+02  0.14260780941E+02  0.23055903823E+03  0.23361415503E+03  0.10000000000E+01 0.  0.
<mgrwt>
<rscale>  0 0.12499760E+03</rscale>
<asrwt>0</asrwt>
<pdfrwt beam="2">  1        4 0.23278877E-02 0.12499760E+03</pdfrwt>
<pdfrwt beam="1">  1       -4 0.39715004E-01 0.12499760E+03</pdfrwt>
<totfact> 0.79082035E+03</totfact>
</mgrwt>
</event>
<event>
 5    1  0.3191162E-002  0.1250041E+03  0.7818608E-02  0.1235063E+00
         -4   -1    0    0    0  501 -0.00000000000E+00  0.00000000000E+00  0.21255362962E+03  0.21255742369E+03  0.12700000000E+01 0. -1.
          4   -1    0    0  501    0  0.00000000000E+00 -0.00000000000E+00 -0.18353012439E+02  0.18396900978E+02  0.12700000000E+01 0. -1.
         25    2    1    2    0    0  0.00000000000E+00  0.00000000000E+00  0.19420061719E+03  0.23095432467E+03  0.12500408141E+03 0.  0.
    9000005    1    3    3    0    0 -0.59059244908E+02 -0.20394389826E+02  0.94778276908E+02  0.11352465512E+03  0.10000000000E+01 0.  0.
    9000005    1    3    3    0    0  0.59059244908E+02  0.20394389826E+02  0.99422340278E+02  0.11742966956E+03  0.10000000000E+01 0.  0.
<mgrwt>
<rscale>  0 0.12500408E+03</rscale>
<asrwt>0</asrwt>
<pdfrwt beam="2">  1        4 0.28272083E-02 0.12500408E+03</pdfrwt>
<pdfrwt beam="1">  1       -4 0.32704226E-01 0.12500408E+03</pdfrwt>
<totfact> 0.85155520E+03</totfact>
</mgrwt>
</event>
<event>
 5    1  0.3191162E-002  0.1250052E+03  0.7818608E-02  0.1235061E+00
         -4   -1    0    0    0  501 -0.00000000000E+00  0.00000000000E+00  0.84134622957E+02  0.84144207645E+02  0.12700000000E+01 0.  1.
          4   -1    0    0  501    0  0.00000000000E+00 -0.00000000000E+00 -0.46411527446E+02  0.46428900266E+02  0.12700000000E+01 0.  1.
         25    2    1    2    0    0  0.00000000000E+00  0.00000000000E+00  0.37723095511E+02  0.13057310791E+03  0.12500521819E+03 0.  0.
    9000005    1    3    3    0    0  0.35262902055E+02 -0.21163649016E+01  0.72709902604E+02  0.80843560031E+02  0.10000000000E+01 0.  0.
    9000005    1    3    3    0    0 -0.35262902055E+02  0.21163649016E+01 -0.34986807093E+02  0.49729547880E+02  0.10000000000E+01 0.  0.
<mgrwt>
<rscale>  0 0.12500522E+03</rscale>
<asrwt>0</asrwt>
<pdfrwt beam="2">  1        4 0.71423088E-02 0.12500522E+03</pdfrwt>
<pdfrwt beam="1">  1       -4 0.12945862E-01 0.12500522E+03</pdfrwt>
<totfact> 0.10331033E+04</totfact>
</mgrwt>
</event>
<event>
 5    1  0.3191162E-002  0.1249930E+03  0.7818608E-02  0.1235080E+00
          4   -1    0    0  501    0  0.00000000000E+00  0.00000000000E+00  0.93863132090E+01  0.94718411968E+01  0.12700000000E+01 0. -1.
         -4   -1    0    0    0  501 -0.00000000000E+00 -0.00000000000E+00 -0.41414396768E+03  0.41414591495E+03  0.12700000000E+01 0. -1.
         25    2    1    2    0    0  0.00000000000E+00  0.00000000000E+00 -0.40475765447E+03  0.42361775614E+03  0.12499297767E+03 0.  0.
    9000005    1    3    3    0    0 -0.41145587948E+02 -0.46240580926E+02 -0.23146626935E+03  0.23960130337E+03  0.10000000000E+01 0.  0.
    9000005    1    3    3    0    0  0.41145587948E+02  0.46240580926E+02 -0.17329138512E+03  0.18401645277E+03  0.10000000000E+01 0.  0.
<mgrwt>
<rscale>  0 0.12499298E+03</rscale>
<asrwt>0</asrwt>
<pdfrwt beam="1">  1        4 0.14507774E-02 0.12499298E+03</pdfrwt>
<pdfrwt beam="2">  1       -4 0.63721172E-01 0.12499298E+03</pdfrwt>
<totfact> 0.62328452E+03</totfact>
</mgrwt>
</event>
<event>
 5    1  0.3191162E-002  0.1249989E+03  0.7818608E-02  0.1235071E+00
         -4   -1    0    0    0  501 -0.00000000000E+00  0.00000000000E+00  0.19509645947E+02  0.19550938212E+02  0.12700000000E+01 0. -1.
          4   -1    0    0  501    0  0.00000000000E+00 -0.00000000000E+00 -0.19996302780E+03  0.19996706076E+03  0.12700000000E+01 0. -1.
         25    2    1    2    0    0  0.00000000000E+00  0.00000000000E+00 -0.18045338185E+03  0.21951799897E+03  0.12499891539E+03 0.  0.
    9000005    1    3    3    0    0  0.13141659906E+02 -0.16360351546E+02 -0.19359897128E+03  0.19473552837E+03  0.10000000000E+01 0.  0.
    9000005    1    3    3    0    0 -0.13141659906E+02  0.16360351546E+02  0.13145589424E+02  0.24782470601E+02  0.10000000000E+01 0.  0.
<mgrwt>
<rscale>  0 0.12499892E+03</rscale>
<asrwt>0</asrwt>
<pdfrwt beam="2">  1        4 0.30767028E-01 0.12499892E+03</pdfrwt>
<pdfrwt beam="1">  1       -4 0.30049707E-02 0.12499892E+03</pdfrwt>
<totfact> 0.86946784E+03</totfact>
</mgrwt>
</event>
<event>
 5    1  0.3191162E-002  0.1250015E+03  0.7818608E-02  0.1235067E+00
         -4   -1    0    0    0  501 -0.00000000000E+00  0.00000000000E+00  0.96878541707E+02  0.96886865690E+02  0.12700000000E+01 0. -1.
          4   -1    0    0  501    0  0.00000000000E+00 -0.00000000000E+00 -0.40302043938E+02  0.40322049124E+02  0.12700000000E+01 0. -1.
         25    2    1    2    0    0  0.00000000000E+00  0.00000000000E+00  0.56576497770E+02  0.13720891481E+03  0.12500154481E+03 0.  0.
    9000005    1    3    3    0    0 -0.58166386464E+02  0.64867531347E+01  0.52335224052E+02  0.78519947511E+02  0.10000000000E+01 0.  0.
    9000005    1    3    3    0    0  0.58166386464E+02 -0.64867531347E+01  0.42412737173E+01  0.58688967304E+02  0.10000000000E+01 0.  0.
<mgrwt>
<rscale>  0 0.12500154E+03</rscale>
<asrwt>0</asrwt>
<pdfrwt beam="2">  1        4 0.62024936E-02 0.12500154E+03</pdfrwt>
<pdfrwt beam="1">  1       -4 0.14906570E-01 0.12500154E+03</pdfrwt>
<totfact> 0.10191364E+04</totfact>
</mgrwt>
</event>
<event>
 5    1  0.3191162E-002  0.1250011E+03  0.7818608E-02  0.1235068E+00
          4   -1    0    0  501    0  0.00000000000E+00  0.00000000000E+00  0.15664085351E+02  0.15715485035E+02  0.12700000000E+01 0. -1.
         -4   -1    0    0    0  501 -0.00000000000E+00 -0.00000000000E+00 -0.24891898544E+03  0.24892222522E+03  0.12700000000E+01 0. -1.
         25    2    1    2    0    0  0.00000000000E+00  0.00000000000E+00 -0.23325490009E+03  0.26463771026E+03  0.12500107710E+03 0.  0.
    9000005    1    3    3    0    0  0.45852639668E+02 -0.42327581403E+02 -0.12372160913E+03  0.13857173333E+03  0.10000000000E+01 0.  0.
    9000005    1    3    3    0    0 -0.45852639668E+02  0.42327581403E+02 -0.10953329096E+03  0.12606597693E+03  0.10000000000E+01 0.  0.
<mgrwt>
<rscale>  0 0.12500108E+03</rscale>
<asrwt>0</asrwt>
<pdfrwt beam="1">  1        4 0.24140625E-02 0.12500108E+03</pdfrwt>
<pdfrwt beam="2">  1       -4 0.38299429E-01 0.12500108E+03</pdfrwt>
<totfact> 0.80257675E+03</totfact>
</mgrwt>
</event>
<event>
 5    1  0.3191162E-002  0.1249983E+03  0.7818608E-02  0.1235072E+00
         -4   -1    0    0    0  501 -0.00000000000E+00  0.00000000000E+00  0.12646983615E+02  0.12710589859E+02  0.12700000000E+01 0.  1.
          4   -1    0    0  501    0  0.00000000000E+00 -0.00000000000E+00 -0.30802011942E+03  0.30802273759E+03  0.12700000000E+01 0.  1.
         25    2    1    2    0    0  0.00000000000E+00  0.00000000000E+00 -0.29537313581E+03  0.32073332744E+03  0.12499831189E+03 0.  0.
    9000005    1    3    3    0    0 -0.10111162522E+01 -0.57519591755E+02 -0.21030816001E+03  0.21803680413E+03  0.10000000000E+01 0.  0.
    9000005    1    3    3    0    0  0.10111162522E+01  0.57519591755E+02 -0.85064975804E+02  0.10269652331E+03  0.10000000000E+01 0.  0.
<mgrwt>
<rscale>  0 0.12499831E+03</rscale>
<asrwt>0</asrwt>
<pdfrwt beam="2">  1        4 0.47392800E-01 0.12499831E+03</pdfrwt>
<pdfrwt beam="1">  1       -4 0.19507842E-02 0.12499831E+03</pdfrwt>
<totfact> 0.73071727E+03</totfact>
</mgrwt>
</event>
<event>
 5    1  0.3191162E-002  0.1249931E+03  0.7818608E-02  0.1235080E+00
          4   -1    0    0  501    0  0.00000000000E+00  0.00000000000E+00  0.18916404131E+03  0.18916830449E+03  0.12700000000E+01 0.  1.
         -4   -1    0    0    0  501 -0.00000000000E+00 -0.00000000000E+00 -0.20623750480E+02  0.20662816455E+02  0.12700000000E+01 0.  1.
         25    2    1    2    0    0  0.00000000000E+00  0.00000000000E+00  0.16854029083E+03  0.20983112095E+03  0.12499307855E+03 0.  0.
    9000005    1    3    3    0    0  0.31235876030E+02  0.52958023763E+02  0.65532408211E+02  0.89865058606E+02  0.10000000000E+01 0.  0.
    9000005    1    3    3    0    0 -0.31235876030E+02 -0.52958023763E+02  0.10300788262E+03  0.11996606234E+03  0.10000000000E+01 0.  0.
<mgrwt>
<rscale>  0 0.12499308E+03</rscale>
<asrwt>0</asrwt>
<pdfrwt beam="1">  1        4 0.29105493E-01 0.12499308E+03</pdfrwt>
<pdfrwt beam="2">  1       -4 0.31762177E-02 0.12499308E+03</pdfrwt>
<totfact> 0.88517165E+03</totfact>
</mgrwt>
</event>
<event>
 5    1  0.3191162E-002  0.1250009E+03  0.7818608E-02  0.1235068E+00
         -4   -1    0    0    0  501 -0.00000000000E+00  0.00000000000E+00  0.94676527564E+02  0.94685045132E+02  0.12700000000E+01 0. -1.
          4   -1    0    0  501    0  0.00000000000E+00 -0.00000000000E+00 -0.41239355016E+02  0.41258905732E+02  0.12700000000E+01 0. -1.
         25    2    1    2    0    0  0.00000000000E+00  0.00000000000E+00  0.53437172548E+02  0.13594395086E+03  0.12500090546E+03 0.  0.
    9000005    1    3    3    0    0  0.10834339238E+02  0.60149552653E+02  0.12540627731E+02  0.62398869661E+02  0.10000000000E+01 0.  0.
    9000005    1    3    3    0    0 -0.10834339238E+02 -0.60149552653E+02  0.40896544816E+02  0.73545081202E+02  0.10000000000E+01 0.  0.
<mgrwt>
<rscale>  0 0.12500091E+03</rscale>
<asrwt>0</asrwt>
<pdfrwt beam="2">  1        4 0.63466753E-02 0.12500091E+03</pdfrwt>
<pdfrwt beam="1">  1       -4 0.14567779E-01 0.12500091E+03</pdfrwt>
<totfact> 0.10218004E+04</totfact>
</mgrwt>
</event>
<event>
 5    1  0.3191162E-002  0.1249979E+03  0.7818608E-02  0.1235073E+00
         -4   -1    0    0    0  501 -0.00000000000E+00  0.00000000000E+00  0.29949867025E+03  0.29950136290E+03  0.12700000000E+01 0. -1.
          4   -1    0    0  501    0  0.00000000000E+00 -0.00000000000E+00 -0.13008517845E+02  0.13070364820E+02  0.12700000000E+01 0. -1.
         25    2    1    2    0    0  0.00000000000E+00  0.00000000000E+00  0.28649015240E+03  0.31257172772E+03  0.12499791017E+03 0.  0.
    9000005    1    3    3    0    0  0.26639832279E+02  0.52357248805E+02  0.19653560783E+03  0.20512973288E+03  0.10000000000E+01 0.  0.
    9000005    1    3    3    0    0 -0.26639832279E+02 -0.52357248805E+02  0.89954544572E+02  0.10744199484E+03  0.10000000000E+01 0.  0.
<mgrwt>
<rscale>  0 0.12499791E+03</rscale>
<asrwt>0</asrwt>
<pdfrwt beam="2">  1        4 0.20062750E-02 0.12499791E+03</pdfrwt>
<pdfrwt beam="1">  1       -4 0.46081683E-01 0.12499791E+03</pdfrwt>
<totfact> 0.74051849E+03</totfact>
</mgrwt>
</event>
<event>
 5    1  0.3191162E-002  0.1249968E+03  0.7818608E-02  0.1235074E+00
         -4   -1    0    0    0  501 -0.00000000000E+00  0.00000000000E+00  0.11538518649E+02  0.11608200232E+02  0.12700000000E+01 0. -1.
          4   -1    0    0  501    0  0.00000000000E+00 -0.00000000000E+00 -0.33743255763E+03  0.33743494758E+03  0.12700000000E+01 0. -1.
         25    2    1    2    0    0  0.00000000000E+00  0.00000000000E+00 -0.32589403898E+03  0.34904314781E+03  0.12499677752E+03 0.  0.
    9000005    1    3    3    0    0 -0.24159845278E+02 -0.39881364907E+02 -0.27912054163E+03  0.28299027925E+03  0.10000000000E+01 0.  0.
    9000005    1    3    3    0    0  0.24159845278E+02  0.39881364907E+02 -0.46773497352E+02  0.66052868562E+02  0.10000000000E+01 0.  0.
<mgrwt>
<rscale>  0 0.12499678E+03</rscale>
<asrwt>0</asrwt>
<pdfrwt beam="2">  1        4 0.51918238E-01 0.12499678E+03</pdfrwt>
<pdfrwt beam="1">  1       -4 0.17807009E-02 0.12499678E+03</pdfrwt>
<totfact> 0.69834933E+03</totfact>
</mgrwt>
</event>
<event>
 5    1  0.3191162E-002  0.1249993E+03  0.7818608E-02  0.1235070E+00
          4   -1    0    0  501    0  0.00000000000E+00  0.00000000000E+00  0.39523942805E+02  0.39544341629E+02  0.12700000000E+01 0.  1.
         -4   -1    0    0    0  501 -0.00000000000E+00 -0.00000000000E+00 -0.98781407773E+02  0.98789571421E+02  0.12700000000E+01 0.  1.
         25    2    1    2    0    0  0.00000000000E+00  0.00000000000E+00 -0.59257464967E+02  0.13833391305E+03  0.12499929738E+03 0.  0.
    9000005    1    3    3    0    0  0.28102755510E+01  0.21216126527E+02  0.35347323871E+02  0.41333460759E+02  0.10000000000E+01 0.  0.
    9000005    1    3    3    0    0 -0.28102755510E+01 -0.21216126527E+02 -0.94604788838E+02  0.97000452291E+02  0.10000000000E+01 0.  0.
<mgrwt>
<rscale>  0 0.12499930E+03</rscale>
<asrwt>0</asrwt>
<pdfrwt beam="1">  1        4 0.60828037E-02 0.12499930E+03</pdfrwt>
<pdfrwt beam="2">  1       -4 0.15199337E-01 0.12499930E+03</pdfrwt>
<totfact> 0.10168395E+04</totfact>
</mgrwt>
</event>
<event>
 5    1  0.3191162E-002  0.1250053E+03  0.7818608E-02  0.1235061E+00
          4   -1    0    0  501    0  0.00000000000E+00  0.00000000000E+00  0.74480720263E+02  0.74491547110E+02  0.12700000000E+01 0.  1.
         -4   -1    0    0    0  501 -0.00000000000E+00 -0.00000000000E+00 -0.52428575609E+02  0.52443955232E+02  0.12700000000E+01 0.  1.
         25    2    1    2    0    0  0.00000000000E+00  0.00000000000E+00  0.22052144654E+02  0.12693550234E+03  0.12500529857E+03 0.  0.
    9000005    1    3    3    0    0 -0.41383627168E+02 -0.18039297764E+02  0.54908637013E+02  0.71091344621E+02  0.10000000000E+01 0.  0.
    9000005    1    3    3    0    0  0.41383627168E+02  0.18039297764E+02 -0.32856492359E+02  0.55844157721E+02  0.10000000000E+01 0.  0.
<mgrwt>
<rscale>  0 0.12500530E+03</rscale>
<asrwt>0</asrwt>
<pdfrwt beam="1">  1        4 0.11460588E-01 0.12500530E+03</pdfrwt>
<pdfrwt beam="2">  1       -4 0.80679506E-02 0.12500530E+03</pdfrwt>
<totfact> 0.10409302E+04</totfact>
</mgrwt>
</event>
<event>
 5    1  0.3191162E-002  0.1250004E+03  0.7818608E-02  0.1235069E+00
         -4   -1    0    0    0  501 -0.00000000000E+00  0.00000000000E+00  0.63932333546E+02  0.63944946420E+02  0.12700000000E+01 0. -1.
          4   -1    0    0  501    0  0.00000000000E+00 -0.00000000000E+00 -0.61074870285E+02  0.61088073143E+02  0.12700000000E+01 0. -1.
         25    2    1    2    0    0  0.00000000000E+00  0.00000000000E+00  0.28574632614E+01  0.12503301956E+03  0.12500036354E+03 0.  0.
    9000005    1    3    3    0    0 -0.32631377053E+02  0.47050347320E+02 -0.23612400057E+02  0.61944228043E+02  0.10000000000E+01 0.  0.
    9000005    1    3    3    0    0  0.32631377053E+02 -0.47050347320E+02  0.26469863318E+02  0.63088791520E+02  0.10000000000E+01 0.  0.
<mgrwt>
<rscale>  0 0.12500036E+03</rscale>
<asrwt>0</asrwt>
<pdfrwt beam="2">  1        4 0.93981197E-02 0.12500036E+03</pdfrwt>
<pdfrwt beam="1">  1       -4 0.98377294E-02 0.12500036E+03</pdfrwt>
<totfact> 0.10452060E+04</totfact>
</mgrwt>
</event>
<event>
 5    1  0.3191162E-002  0.1249949E+03  0.7818608E-02  0.1235077E+00
          4   -1    0    0  501    0  0.00000000000E+00  0.00000000000E+00  0.26194299534E+02  0.26225068695E+02  0.12700000000E+01 0.  1.
         -4   -1    0    0    0  501 -0.00000000000E+00 -0.00000000000E+00 -0.14899285993E+03  0.14899827251E+03  0.12700000000E+01 0.  1.
         25    2    1    2    0    0  0.00000000000E+00  0.00000000000E+00 -0.12279856040E+03  0.17522334120E+03  0.12499493136E+03 0.  0.
    9000005    1    3    3    0    0  0.28187921351E+02 -0.55726225386E+02 -0.64521998333E+02  0.89800107877E+02  0.10000000000E+01 0.  0.
    9000005    1    3    3    0    0 -0.28187921351E+02  0.55726225386E+02 -0.58276562063E+02  0.85423233326E+02  0.10000000000E+01 0.  0.
<mgrwt>
<rscale>  0 0.12499493E+03</rscale>
<asrwt>0</asrwt>
<pdfrwt beam="1">  1        4 0.40326755E-02 0.12499493E+03</pdfrwt>
<pdfrwt beam="2">  1       -4 0.22924761E-01 0.12499493E+03</pdfrwt>
<totfact> 0.94494696E+03</totfact>
</mgrwt>
</event>
<event>
 5    1  0.3191162E-002  0.1249908E+03  0.7818608E-02  0.1235084E+00
         -4   -1    0    0    0  501 -0.00000000000E+00  0.00000000000E+00  0.24108047250E+01  0.27248631933E+01  0.12700000000E+01 0. -1.
          4   -1    0    0  501    0  0.00000000000E+00 -0.00000000000E+00 -0.15206847724E+04  0.15206853028E+04  0.12700000000E+01 0. -1.
         25    2    1    2    0    0  0.00000000000E+00  0.00000000000E+00 -0.15182739677E+04  0.15234101660E+04  0.12499077042E+03 0.  0.
    9000005    1    3    3    0    0  0.46158669453E+02 -0.22737638875E+02 -0.11912677748E+04  0.11923789391E+04  0.10000000000E+01 0.  0.
    9000005    1    3    3    0    0 -0.46158669453E+02  0.22737638875E+02 -0.32700619288E+03  0.33103122687E+03  0.10000000000E+01 0.  0.
<mgrwt>
<rscale>  0 0.12499077E+03</rscale>
<asrwt>0</asrwt>
<pdfrwt beam="2">  1        4 0.23397498E+00 0.12499077E+03</pdfrwt>
<pdfrwt beam="1">  1       -4 0.39509339E-03 0.12499077E+03</pdfrwt>
<totfact> 0.17478394E+03</totfact>
</mgrwt>
</event>
<event>
 5    1  0.3191162E-002  0.1249974E+03  0.7818608E-02  0.1235073E+00
         -4   -1    0    0    0  501 -0.00000000000E+00  0.00000000000E+00  0.44680941230E+01  0.46450796647E+01  0.12700000000E+01 0.  1.
          4   -1    0    0  501    0  0.00000000000E+00 -0.00000000000E+00 -0.85706256347E+03  0.85706350442E+03  0.12700000000E+01 0.  1.
         25    2    1    2    0    0  0.00000000000E+00  0.00000000000E+00 -0.85259446935E+03  0.86170858408E+03  0.12499741884E+03 0.  0.
    9000005    1    3    3    0    0 -0.73481649667E+01  0.12660993171E+01 -0.85401863520E+03  0.85405177115E+03  0.10000000000E+01 0.  0.
    9000005    1    3    3    0    0  0.73481649667E+01 -0.12660993171E+01  0.14241658540E+01  0.76568129296E+01  0.10000000000E+01 0.  0.
<mgrwt>
<rscale>  0 0.12499742E+03</rscale>
<asrwt>0</asrwt>
<pdfrwt beam="2">  1        4 0.13186934E+00 0.12499742E+03</pdfrwt>
<pdfrwt beam="1">  1       -4 0.70108643E-03 0.12499742E+03</pdfrwt>
<totfact> 0.35654973E+03</totfact>
</mgrwt>
</event>
<event>
 5    1  0.3191162E-002  0.1250012E+03  0.7818608E-02  0.1235067E+00
          4   -1    0    0  501    0  0.00000000000E+00  0.00000000000E+00  0.18023165927E+03  0.18023613374E+03  0.12700000000E+01 0. -1.
         -4   -1    0    0    0  501 -0.00000000000E+00 -0.00000000000E+00 -0.21650572061E+02  0.21687788513E+02  0.12700000000E+01 0. -1.
         25    2    1    2    0    0  0.00000000000E+00  0.00000000000E+00  0.15858108721E+03  0.20192392225E+03  0.12500123661E+03 0.  0.
    9000005    1    3    3    0    0 -0.19992408003E+02  0.59162263044E+02  0.75516803143E+02  0.97998251532E+02  0.10000000000E+01 0.  0.
    9000005    1    3    3    0    0  0.19992408003E+02 -0.59162263044E+02  0.83064284068E+02  0.10392567072E+03  0.10000000000E+01 0.  0.
<mgrwt>
<rscale>  0 0.12500124E+03</rscale>
<asrwt>0</asrwt>
<pdfrwt beam="1">  1        4 0.27731155E-01 0.12500124E+03</pdfrwt>
<pdfrwt beam="2">  1       -4 0.33340642E-02 0.12500124E+03</pdfrwt>
<totfact> 0.89809548E+03</totfact>
</mgrwt>
</event>
<event>
 5    1  0.3191162E-002  0.1250036E+03  0.7818608E-02  0.1235064E+00
          4   -1    0    0  501    0  0.00000000000E+00  0.00000000000E+00  0.13275278938E+03  0.13275886407E+03  0.12700000000E+01 0.  1.
         -4   -1    0    0    0  501 -0.00000000000E+00 -0.00000000000E+00 -0.29406241581E+02  0.29433653255E+02  0.12700000000E+01 0.  1.
         25    2    1    2    0    0  0.00000000000E+00  0.00000000000E+00  0.10334654780E+03  0.16219251732E+03  0.12500361488E+03 0.  0.
    9000005    1    3    3    0    0  0.59045376841E+02 -0.15969235952E+02  0.68294627301E+02  0.91687126367E+02  0.10000000000E+01 0.  0.
    9000005    1    3    3    0    0 -0.59045376841E+02  0.15969235952E+02  0.35051920498E+02  0.70505390955E+02  0.10000000000E+01 0.  0.
<mgrwt>
<rscale>  0 0.12500361E+03</rscale>
<asrwt>0</asrwt>
<pdfrwt beam="1">  1        4 0.20426082E-01 0.12500361E+03</pdfrwt>
<pdfrwt beam="2">  1       -4 0.45266131E-02 0.12500361E+03</pdfrwt>
<totfact> 0.96913870E+03</totfact>
</mgrwt>
</event>
<event>
 5    1  0.3191162E-002  0.1249634E+03  0.7818608E-02  0.1235127E+00
          4   -1    0    0  501    0  0.00000000000E+00  0.00000000000E+00  0.17719605851E+02  0.17765059288E+02  0.12700000000E+01 0.  1.
         -4   -1    0    0    0  501 -0.00000000000E+00 -0.00000000000E+00 -0.21998927759E+03  0.21999294342E+03  0.12700000000E+01 0.  1.
         25    2    1    2    0    0  0.00000000000E+00  0.00000000000E+00 -0.20226967174E+03  0.23775800271E+03  0.12496338562E+03 0.  0.
    9000005    1    3    3    0    0 -0.92304758977E+01 -0.58336443649E+02 -0.62393260953E+02  0.85920087030E+02  0.10000000000E+01 0.  0.
    9000005    1    3    3    0    0  0.92304758977E+01  0.58336443649E+02 -0.13987641078E+03  0.15183791567E+03  0.10000000000E+01 0.  0.
<mgrwt>
<rscale>  0 0.12496339E+03</rscale>
<asrwt>0</asrwt>
<pdfrwt beam="1">  1        4 0.27298718E-02 0.12496339E+03</pdfrwt>
<pdfrwt beam="2">  1       -4 0.33848281E-01 0.12496339E+03</pdfrwt>
<totfact> 0.84201135E+03</totfact>
</mgrwt>
</event>
<event>
 5    1  0.3191162E-002  0.1250035E+03  0.7818608E-02  0.1235064E+00
          4   -1    0    0  501    0  0.00000000000E+00  0.00000000000E+00  0.18830130297E+03  0.18830558569E+03  0.12700000000E+01 0. -1.
         -4   -1    0    0    0  501 -0.00000000000E+00 -0.00000000000E+00 -0.20721887326E+02  0.20760768636E+02  0.12700000000E+01 0. -1.
         25    2    1    2    0    0  0.00000000000E+00  0.00000000000E+00  0.16757941564E+03  0.20906635432E+03  0.12500351980E+03 0.  0.
    9000005    1    3    3    0    0  0.15054144532E+02 -0.27992321212E+02  0.17378227484E+03  0.17666770039E+03  0.10000000000E+01 0.  0.
    9000005    1    3    3    0    0 -0.15054144532E+02  0.27992321212E+02 -0.62028591906E+01  0.32398653932E+02  0.10000000000E+01 0.  0.
<mgrwt>
<rscale>  0 0.12500352E+03</rscale>
<asrwt>0</asrwt>
<pdfrwt beam="1">  1        4 0.28972752E-01 0.12500352E+03</pdfrwt>
<pdfrwt beam="2">  1       -4 0.31913029E-02 0.12500352E+03</pdfrwt>
<totfact> 0.88621609E+03</totfact>
</mgrwt>
</event>
<event>
 5    1  0.3191162E-002  0.1250007E+03  0.7818608E-02  0.1235068E+00
         -4   -1    0    0    0  501 -0.00000000000E+00  0.00000000000E+00  0.10229486636E+02  0.10308020995E+02  0.12700000000E+01 0.  1.
          4   -1    0    0  501    0  0.00000000000E+00 -0.00000000000E+00 -0.38032643385E+03  0.38032855426E+03  0.12700000000E+01 0.  1.
         25    2    1    2    0    0  0.00000000000E+00  0.00000000000E+00 -0.37009694721E+03  0.39063657525E+03  0.12500073436E+03 0.  0.
    9000005    1    3    3    0    0  0.61107798015E+02  0.18701522680E+01 -0.22551009399E+03  0.23365244047E+03  0.10000000000E+01 0.  0.
    9000005    1    3    3    0    0 -0.61107798015E+02 -0.18701522680E+01 -0.14458685322E+03  0.15698413478E+03  0.10000000000E+01 0.  0.
<mgrwt>
<rscale>  0 0.12500073E+03</rscale>
<asrwt>0</asrwt>
<pdfrwt beam="2">  1        4 0.58517952E-01 0.12500073E+03</pdfrwt>
<pdfrwt beam="1">  1       -4 0.15799717E-02 0.12500073E+03</pdfrwt>
<totfact> 0.65472710E+03</totfact>
</mgrwt>
</event>
<event>
 5    1  0.3191162E-002  0.1250013E+03  0.7818608E-02  0.1235067E+00
          4   -1    0    0  501    0  0.00000000000E+00  0.00000000000E+00  0.45681963028E+02  0.45699613194E+02  0.12700000000E+01 0. -1.
         -4   -1    0    0    0  501 -0.00000000000E+00 -0.00000000000E+00 -0.85472548838E+02  0.85481983511E+02  0.12700000000E+01 0. -1.
         25    2    1    2    0    0  0.00000000000E+00  0.00000000000E+00 -0.39790585810E+02  0.13118159670E+03  0.12500128237E+03 0.  0.
    9000005    1    3    3    0    0 -0.20645826546E+02  0.36210242521E+02  0.28967456465E+02  0.50769531722E+02  0.10000000000E+01 0.  0.
    9000005    1    3    3    0    0  0.20645826546E+02 -0.36210242521E+02 -0.68758042276E+02  0.80412064983E+02  0.10000000000E+01 0.  0.
<mgrwt>
<rscale>  0 0.12500128E+03</rscale>
<asrwt>0</asrwt>
<pdfrwt beam="1">  1        4 0.70300778E-02 0.12500128E+03</pdfrwt>
<pdfrwt beam="2">  1       -4 0.13151706E-01 0.12500128E+03</pdfrwt>
<totfact> 0.10318899E+04</totfact>
</mgrwt>
</event>
<event>
 5    1  0.3191162E-002  0.1249977E+03  0.7818608E-02  0.1235073E+00
          4   -1    0    0  501    0  0.00000000000E+00  0.00000000000E+00  0.45105978784E+01  0.46859783633E+01  0.12700000000E+01 0. -1.
         -4   -1    0    0    0  501 -0.00000000000E+00 -0.00000000000E+00 -0.84929441258E+03  0.84929536213E+03  0.12700000000E+01 0. -1.
         25    2    1    2    0    0  0.00000000000E+00  0.00000000000E+00 -0.84478381470E+03  0.85398134049E+03  0.12499774531E+03 0.  0.
    9000005    1    3    3    0    0  0.13647635277E+02  0.35230355525E+02 -0.76246182195E+03  0.76339797343E+03  0.10000000000E+01 0.  0.
    9000005    1    3    3    0    0 -0.13647635277E+02 -0.35230355525E+02 -0.82321992747E+02  0.90583367066E+02  0.10000000000E+01 0.  0.
<mgrwt>
<rscale>  0 0.12499775E+03</rscale>
<asrwt>0</asrwt>
<pdfrwt beam="1">  1        4 0.70750266E-03 0.12499775E+03</pdfrwt>
<pdfrwt beam="2">  1       -4 0.13067412E+00 0.12499775E+03</pdfrwt>
<totfact> 0.35966757E+03</totfact>
</mgrwt>
</event>
<event>
 5    1  0.3191162E-002  0.1250017E+03  0.7818608E-02  0.1235067E+00
         -4   -1    0    0    0  501 -0.00000000000E+00  0.00000000000E+00  0.63542321671E+02  0.63555011945E+02  0.12700000000E+01 0. -1.
          4   -1    0    0  501    0  0.00000000000E+00 -0.00000000000E+00 -0.61451050546E+02  0.61464172598E+02  0.12700000000E+01 0. -1.
         25    2    1    2    0    0  0.00000000000E+00  0.00000000000E+00  0.20912711252E+01  0.12501918454E+03  0.12500169234E+03 0.  0.
    9000005    1    3    3    0    0  0.21583046183E+02  0.52723696963E+02 -0.24643356699E+02  0.62079877041E+02  0.10000000000E+01 0.  0.
    9000005    1    3    3    0    0 -0.21583046183E+02 -0.52723696963E+02  0.26734627824E+02  0.62939307503E+02  0.10000000000E+01 0.  0.
<mgrwt>
<rscale>  0 0.12500169E+03</rscale>
<asrwt>0</asrwt>
<pdfrwt beam="2">  1        4 0.94559934E-02 0.12500169E+03</pdfrwt>
<pdfrwt beam="1">  1       -4 0.97777273E-02 0.12500169E+03</pdfrwt>
<totfact> 0.10452046E+04</totfact>
</mgrwt>
</event>
<event>
 5    1  0.3191162E-002  0.1250082E+03  0.7818608E-02  0.1235056E+00
          4   -1    0    0  501    0  0.00000000000E+00  0.00000000000E+00  0.18561025081E+03  0.18561459562E+03  0.12700000000E+01 0. -1.
         -4   -1    0    0    0  501 -0.00000000000E+00 -0.00000000000E+00 -0.21024446063E+02  0.21062768865E+02  0.12700000000E+01 0. -1.
         25    2    1    2    0    0  0.00000000000E+00  0.00000000000E+00  0.16458580475E+03  0.20667736448E+03  0.12500818319E+03 0.  0.
    9000005    1    3    3    0    0  0.10488262875E+00  0.97680701995E+01  0.18434832062E+03  0.18460966798E+03  0.10000000000E+01 0.  0.
    9000005    1    3    3    0    0 -0.10488262875E+00 -0.97680701995E+01 -0.19762515867E+02  0.22067696509E+02  0.10000000000E+01 0.  0.
<mgrwt>
<rscale>  0 0.12500818E+03</rscale>
<asrwt>0</asrwt>
<pdfrwt beam="1">  1        4 0.28558705E-01 0.12500818E+03</pdfrwt>
<pdfrwt beam="2">  1       -4 0.32378123E-02 0.12500818E+03</pdfrwt>
<totfact> 0.89005113E+03</totfact>
</mgrwt>
</event>
<event>
 5    1  0.3191162E-002  0.1249887E+03  0.7818608E-02  0.1235087E+00
         -4   -1    0    0    0  501 -0.00000000000E+00  0.00000000000E+00  0.31575058983E+02  0.31600589390E+02  0.12700000000E+01 0. -1.
          4   -1    0    0  501    0  0.00000000000E+00 -0.00000000000E+00 -0.12361197095E+03  0.12361849483E+03  0.12700000000E+01 0. -1.
         25    2    1    2    0    0  0.00000000000E+00  0.00000000000E+00 -0.92036911971E+02  0.15521908422E+03  0.12498868325E+03 0.  0.
    9000005    1    3    3    0    0  0.47020297787E+02 -0.32756460843E+02 -0.76956817896E+02  0.95954395166E+02  0.10000000000E+01 0.  0.
    9000005    1    3    3    0    0 -0.47020297787E+02  0.32756460843E+02 -0.15080094075E+02  0.59264689051E+02  0.10000000000E+01 0.  0.
<mgrwt>
<rscale>  0 0.12498868E+03</rscale>
<asrwt>0</asrwt>
<pdfrwt beam="2">  1        4 0.19019692E-01 0.12498868E+03</pdfrwt>
<pdfrwt beam="1">  1       -4 0.48601671E-02 0.12498868E+03</pdfrwt>
<totfact> 0.98297522E+03</totfact>
</mgrwt>
</event>
<event>
 5    1  0.3191162E-002  0.1250204E+03  0.7818608E-02  0.1235037E+00
          4   -1    0    0  501    0  0.00000000000E+00  0.00000000000E+00  0.11553217272E+03  0.11553915281E+03  0.12700000000E+01 0.  1.
         -4   -1    0    0    0  501 -0.00000000000E+00 -0.00000000000E+00 -0.33802048858E+02  0.33825898465E+02  0.12700000000E+01 0.  1.
         25    2    1    2    0    0  0.00000000000E+00  0.00000000000E+00  0.81730123860E+02  0.14936505128E+03  0.12502041992E+03 0.  0.
    9000005    1    3    3    0    0 -0.24995501155E+02 -0.24743932706E+02 -0.20862924739E+02  0.40905976488E+02  0.10000000000E+01 0.  0.
    9000005    1    3    3    0    0  0.24995501155E+02  0.24743932706E+02  0.10259304860E+03  0.10845907479E+03  0.10000000000E+01 0.  0.
<mgrwt>
<rscale>  0 0.12502042E+03</rscale>
<asrwt>0</asrwt>
<pdfrwt beam="1">  1        4 0.17776552E-01 0.12502042E+03</pdfrwt>
<pdfrwt beam="2">  1       -4 0.52026867E-02 0.12502042E+03</pdfrwt>
<totfact> 0.99384732E+03</totfact>
</mgrwt>
</event>
<event>
 5    1  0.3191162E-002  0.1250022E+03  0.7818608E-02  0.1235066E+00
         -4   -1    0    0    0  501 -0.00000000000E+00  0.00000000000E+00  0.61165955498E+01  0.62470505937E+01  0.12700000000E+01 0.  1.
          4   -1    0    0  501    0  0.00000000000E+00 -0.00000000000E+00 -0.63178376500E+03  0.63178504146E+03  0.12700000000E+01 0.  1.
         25    2    1    2    0    0  0.00000000000E+00  0.00000000000E+00 -0.62566716945E+03  0.63803209205E+03  0.12500217425E+03 0.  0.
    9000005    1    3    3    0    0  0.44844496898E+02  0.42386995326E+02 -0.36328477157E+03  0.36848949989E+03  0.10000000000E+01 0.  0.
    9000005    1    3    3    0    0 -0.44844496898E+02 -0.42386995326E+02 -0.26238239787E+03  0.26954259216E+03  0.10000000000E+01 0.  0.
<mgrwt>
<rscale>  0 0.12500217E+03</rscale>
<asrwt>0</asrwt>
<pdfrwt beam="2">  1        4 0.97207584E-01 0.12500217E+03</pdfrwt>
<pdfrwt beam="1">  1       -4 0.95114839E-03 0.12500217E+03</pdfrwt>
<totfact> 0.46549446E+03</totfact>
</mgrwt>
</event>
<event>
 5    1  0.3191162E-002  0.1250025E+03  0.7818608E-02  0.1235065E+00
         -4   -1    0    0    0  501 -0.00000000000E+00  0.00000000000E+00  0.61801970979E+02  0.61815018538E+02  0.12700000000E+01 0. -1.
          4   -1    0    0  501    0  0.00000000000E+00 -0.00000000000E+00 -0.63182333079E+02  0.63195095643E+02  0.12700000000E+01 0. -1.
         25    2    1    2    0    0  0.00000000000E+00  0.00000000000E+00 -0.13803621008E+01  0.12501011418E+03  0.12500249297E+03 0.  0.
    9000005    1    3    3    0    0  0.38842458945E+02  0.23693593113E+02 -0.43532994172E+02  0.62978127577E+02  0.10000000000E+01 0.  0.
    9000005    1    3    3    0    0 -0.38842458945E+02 -0.23693593113E+02  0.42152632071E+02  0.62031986604E+02  0.10000000000E+01 0.  0.
<mgrwt>
<rscale>  0 0.12500249E+03</rscale>
<asrwt>0</asrwt>
<pdfrwt beam="2">  1        4 0.97223444E-02 0.12500249E+03</pdfrwt>
<pdfrwt beam="1">  1       -4 0.95099809E-02 0.12500249E+03</pdfrwt>
<totfact> 0.10452054E+04</totfact>
</mgrwt>
</event>
<event>
 5    1  0.3191162E-002  0.1249767E+03  0.7818608E-02  0.1235106E+00
         -4   -1    0    0    0  501 -0.00000000000E+00  0.00000000000E+00  0.16933398255E+02  0.16980956288E+02  0.12700000000E+01 0.  1.
          4   -1    0    0  501    0  0.00000000000E+00 -0.00000000000E+00 -0.23022437015E+03  0.23022787301E+03  0.12700000000E+01 0.  1.
         25    2    1    2    0    0  0.00000000000E+00  0.00000000000E+00 -0.21329097190E+03  0.24720882930E+03  0.12497666419E+03 0.  0.
    9000005    1    3    3    0    0  0.46798145202E+02 -0.35732253807E+02 -0.14799225931E+03  0.15927827590E+03  0.10000000000E+01 0.  0.
    9000005    1    3    3    0    0 -0.46798145202E+02  0.35732253807E+02 -0.65298712581E+02  0.87930553400E+02  0.10000000000E+01 0.  0.
<mgrwt>
<rscale>  0 0.12497666E+03</rscale>
<asrwt>0</asrwt>
<pdfrwt beam="2">  1        4 0.35423059E-01 0.12497666E+03</pdfrwt>
<pdfrwt beam="1">  1       -4 0.26090661E-02 0.12497666E+03</pdfrwt>
<totfact> 0.82778353E+03</totfact>
</mgrwt>
</event>
<event>
 5    1  0.3191162E-002  0.1249994E+03  0.7818608E-02  0.1235070E+00
         -4   -1    0    0    0  501 -0.00000000000E+00  0.00000000000E+00  0.54528589236E+02  0.54543376721E+02  0.12700000000E+01 0.  1.
          4   -1    0    0  501    0  0.00000000000E+00 -0.00000000000E+00 -0.71605918418E+02  0.71617179870E+02  0.12700000000E+01 0.  1.
         25    2    1    2    0    0  0.00000000000E+00  0.00000000000E+00 -0.17077329182E+02  0.12616055659E+03  0.12499940347E+03 0.  0.
    9000005    1    3    3    0    0  0.42815461693E+02  0.19065221578E+02 -0.50257441907E+02  0.68727410113E+02  0.10000000000E+01 0.  0.
    9000005    1    3    3    0    0 -0.42815461693E+02 -0.19065221578E+02  0.33180112725E+02  0.57433146477E+02  0.10000000000E+01 0.  0.
<mgrwt>
<rscale>  0 0.12499940E+03</rscale>
<asrwt>0</asrwt>
<pdfrwt beam="2">  1        4 0.11018299E-01 0.12499940E+03</pdfrwt>
<pdfrwt beam="1">  1       -4 0.83910175E-02 0.12499940E+03</pdfrwt>
<totfact> 0.10427582E+04</totfact>
</mgrwt>
</event>
<event>
 5    1  0.3191162E-002  0.1250043E+03  0.7818608E-02  0.1235063E+00
          4   -1    0    0  501    0  0.00000000000E+00  0.00000000000E+00  0.16232600450E+03  0.16233097252E+03  0.12700000000E+01 0.  1.
         -4   -1    0    0    0  501 -0.00000000000E+00 -0.00000000000E+00 -0.24043789341E+02  0.24077306865E+02  0.12700000000E+01 0.  1.
         25    2    1    2    0    0  0.00000000000E+00  0.00000000000E+00  0.13828221516E+03  0.18640827938E+03  0.12500430229E+03 0.  0.
    9000005    1    3    3    0    0  0.13786958750E+02 -0.43834240276E+02  0.13230243084E+03  0.14005875217E+03  0.10000000000E+01 0.  0.
    9000005    1    3    3    0    0 -0.13786958750E+02  0.43834240276E+02  0.59797843185E+01  0.46349527211E+02  0.10000000000E+01 0.  0.
<mgrwt>
<rscale>  0 0.12500430E+03</rscale>
<asrwt>0</asrwt>
<pdfrwt beam="1">  1        4 0.24976192E-01 0.12500430E+03</pdfrwt>
<pdfrwt beam="2">  1       -4 0.37020049E-02 0.12500430E+03</pdfrwt>
<totfact> 0.92467130E+03</totfact>
</mgrwt>
</event>
<event>
 5    1  0.3191162E-002  0.1250003E+03  0.7818608E-02  0.1235069E+00
         -4   -1    0    0    0  501 -0.00000000000E+00  0.00000000000E+00  0.22142700572E+03  0.22143064775E+03  0.12700000000E+01 0. -1.
          4   -1    0    0  501    0  0.00000000000E+00 -0.00000000000E+00 -0.17614688749E+02  0.17660412218E+02  0.12700000000E+01 0. -1.
         25    2    1    2    0    0  0.00000000000E+00  0.00000000000E+00  0.20381231697E+03  0.23909105997E+03  0.12500029763E+03 0.  0.
    9000005    1    3    3    0    0  0.49020088846E+01  0.58063842745E+02  0.58718009547E+02  0.82729947242E+02  0.10000000000E+01 0.  0.
    9000005    1    3    3    0    0 -0.49020088846E+01 -0.58063842745E+02  0.14509430743E+03  0.15636111273E+03  0.10000000000E+01 0.  0.
<mgrwt>
<rscale>  0 0.12500030E+03</rscale>
<asrwt>0</asrwt>
<pdfrwt beam="2">  1        4 0.27137496E-02 0.12500030E+03</pdfrwt>
<pdfrwt beam="1">  1       -4 0.34069488E-01 0.12500030E+03</pdfrwt>
<totfact> 0.83932368E+03</totfact>
</mgrwt>
</event>
<event>
 5    1  0.3191162E-002  0.1250024E+03  0.7818608E-02  0.1235066E+00
         -4   -1    0    0    0  501 -0.00000000000E+00  0.00000000000E+00  0.10419144531E+02  0.10496259941E+02  0.12700000000E+01 0. -1.
          4   -1    0    0  501    0  0.00000000000E+00 -0.00000000000E+00 -0.37346441698E+03  0.37346657635E+03  0.12700000000E+01 0. -1.
         25    2    1    2    0    0  0.00000000000E+00  0.00000000000E+00 -0.36304527245E+03  0.38396283629E+03  0.12500235920E+03 0.  0.
    9000005    1    3    3    0    0 -0.18997733482E+02 -0.12419315271E+02 -0.26736547850E+01  0.22875788493E+02  0.10000000000E+01 0.  0.
    9000005    1    3    3    0    0  0.18997733482E+02  0.12419315271E+02 -0.36037161766E+03  0.36108704780E+03  0.10000000000E+01 0.  0.
<mgrwt>
<rscale>  0 0.12500236E+03</rscale>
<asrwt>0</asrwt>
<pdfrwt beam="2">  1        4 0.57462152E-01 0.12500236E+03</pdfrwt>
<pdfrwt beam="1">  1       -4 0.16090437E-02 0.12500236E+03</pdfrwt>
<totfact> 0.66139572E+03</totfact>
</mgrwt>
</event>
<event>
 5    1  0.3191162E-002  0.1249986E+03  0.7818608E-02  0.1235071E+00
          4   -1    0    0  501    0  0.00000000000E+00  0.00000000000E+00  0.84340343055E+01  0.85291168749E+01  0.12700000000E+01 0.  1.
         -4   -1    0    0    0  501 -0.00000000000E+00 -0.00000000000E+00 -0.46045099898E+03  0.46045275041E+03  0.12700000000E+01 0.  1.
         25    2    1    2    0    0  0.00000000000E+00  0.00000000000E+00 -0.45201696467E+03  0.46898186729E+03  0.12499862195E+03 0.  0.
    9000005    1    3    3    0    0 -0.30866453273E+02  0.19134335167E+02 -0.35203135332E+02  0.50587759954E+02  0.10000000000E+01 0.  0.
    9000005    1    3    3    0    0  0.30866453273E+02 -0.19134335167E+02 -0.41681382934E+03  0.41839410733E+03  0.10000000000E+01 0.  0.
<mgrwt>
<rscale>  0 0.12499862E+03</rscale>
<asrwt>0</asrwt>
<pdfrwt beam="1">  1        4 0.13049929E-02 0.12499862E+03</pdfrwt>
<pdfrwt beam="2">  1       -4 0.70846045E-01 0.12499862E+03</pdfrwt>
<totfact> 0.58355735E+03</totfact>
</mgrwt>
</event>
<event>
 5    1  0.3191162E-002  0.1250047E+03  0.7818608E-02  0.1235062E+00
         -4   -1    0    0    0  501 -0.00000000000E+00  0.00000000000E+00  0.23697488744E+02  0.23731495375E+02  0.12700000000E+01 0.  1.
          4   -1    0    0  501    0  0.00000000000E+00 -0.00000000000E+00 -0.16469589146E+03  0.16470078799E+03  0.12700000000E+01 0.  1.
         25    2    1    2    0    0  0.00000000000E+00  0.00000000000E+00 -0.14099840271E+03  0.18843228336E+03  0.12500470329E+03 0.  0.
    9000005    1    3    3    0    0 -0.36789515828E+02  0.31877970533E+01  0.55000537369E+01  0.37348107262E+02  0.10000000000E+01 0.  0.
    9000005    1    3    3    0    0  0.36789515828E+02 -0.31877970533E+01 -0.14649845645E+03  0.15108417610E+03  0.10000000000E+01 0.  0.
<mgrwt>
<rscale>  0 0.12500470E+03</rscale>
<asrwt>0</asrwt>
<pdfrwt beam="2">  1        4 0.25340821E-01 0.12500470E+03</pdfrwt>
<pdfrwt beam="1">  1       -4 0.36487602E-02 0.12500470E+03</pdfrwt>
<totfact> 0.92111104E+03</totfact>
</mgrwt>
</event>
<event>
 5    1  0.3191162E-002  0.1249953E+03  0.7818608E-02  0.1235077E+00
         -4   -1    0    0    0  501 -0.00000000000E+00  0.00000000000E+00  0.41315552143E+02  0.41335066819E+02  0.12700000000E+01 0.  1.
          4   -1    0    0  501    0  0.00000000000E+00 -0.00000000000E+00 -0.94493477390E+02  0.94502011456E+02  0.12700000000E+01 0.  1.
         25    2    1    2    0    0  0.00000000000E+00  0.00000000000E+00 -0.53177925247E+02  0.13583707828E+03  0.12499528031E+03 0.  0.
    9000005    1    3    3    0    0  0.94754337369E+01 -0.21090517118E+01 -0.93674424188E+02  0.94181365941E+02  0.10000000000E+01 0.  0.
    9000005    1    3    3    0    0 -0.94754337369E+01  0.21090517118E+01  0.40496498941E+02  0.41655712334E+02  0.10000000000E+01 0.  0.
<mgrwt>
<rscale>  0 0.12499528E+03</rscale>
<asrwt>0</asrwt>
<pdfrwt beam="2">  1        4 0.14539616E-01 0.12499528E+03</pdfrwt>
<pdfrwt beam="1">  1       -4 0.63583964E-02 0.12499528E+03</pdfrwt>
<totfact> 0.10221545E+04</totfact>
</mgrwt>
</event>
<event>
 5    1  0.3191162E-002  0.1250004E+03  0.7818608E-02  0.1235069E+00
         -4   -1    0    0    0  501 -0.00000000000E+00  0.00000000000E+00  0.51216023092E+02  0.51231766722E+02  0.12700000000E+01 0. -1.
          4   -1    0    0  501    0  0.00000000000E+00 -0.00000000000E+00 -0.76237848466E+02  0.76248425812E+02  0.12700000000E+01 0. -1.
         25    2    1    2    0    0  0.00000000000E+00  0.00000000000E+00 -0.25021825374E+02  0.12748019253E+03  0.12500043097E+03 0.  0.
    9000005    1    3    3    0    0  0.51703230206E+02  0.86178204905E+01  0.22190356920E+02  0.56928927480E+02  0.10000000000E+01 0.  0.
    9000005    1    3    3    0    0 -0.51703230206E+02 -0.86178204905E+01 -0.47212182294E+02  0.70551265054E+02  0.10000000000E+01 0.  0.
<mgrwt>
<rscale>  0 0.12500043E+03</rscale>
<asrwt>0</asrwt>
<pdfrwt beam="2">  1        4 0.11730924E-01 0.12500043E+03</pdfrwt>
<pdfrwt beam="1">  1       -4 0.78814129E-02 0.12500043E+03</pdfrwt>
<totfact> 0.10398628E+04</totfact>
</mgrwt>
</event>
<event>
 5    1  0.3191162E-002  0.1250026E+03  0.7818608E-02  0.1235065E+00
         -4   -1    0    0    0  501 -0.00000000000E+00  0.00000000000E+00  0.71524257140E+03  0.71524369892E+03  0.12700000000E+01 0.  1.
          4   -1    0    0  501    0  0.00000000000E+00 -0.00000000000E+00 -0.53866838511E+01  0.55343710493E+01  0.12700000000E+01 0.  1.
         25    2    1    2    0    0  0.00000000000E+00  0.00000000000E+00  0.70985588755E+03  0.72077806997E+03  0.12500258021E+03 0.  0.
    9000005    1    3    3    0    0  0.34758282234E+02 -0.46995264017E+02  0.22745680621E+03  0.23484950865E+03  0.10000000000E+01 0.  0.
    9000005    1    3    3    0    0 -0.34758282234E+02  0.46995264017E+02  0.48239908134E+03  0.48592856131E+03  0.10000000000E+01 0.  0.
<mgrwt>
<rscale>  0 0.12500258E+03</rscale>
<asrwt>0</asrwt>
<pdfrwt beam="2">  1        4 0.84016863E-03 0.12500258E+03</pdfrwt>
<pdfrwt beam="1">  1       -4 0.11004867E+00 0.12500258E+03</pdfrwt>
<totfact> 0.42009947E+03</totfact>
</mgrwt>
</event>
<event>
 5    1  0.3191162E-002  0.1250018E+03  0.7818608E-02  0.1235067E+00
         -4   -1    0    0    0  501 -0.00000000000E+00  0.00000000000E+00  0.34334355882E+02  0.34357835989E+02  0.12700000000E+01 0. -1.
          4   -1    0    0  501    0  0.00000000000E+00 -0.00000000000E+00 -0.11370819080E+03  0.11371528286E+03  0.12700000000E+01 0. -1.
         25    2    1    2    0    0  0.00000000000E+00  0.00000000000E+00 -0.79373834921E+02  0.14807311885E+03  0.12500177141E+03 0.  0.
    9000005    1    3    3    0    0  0.57916833991E+02 -0.70999621869E+01 -0.13183502787E+02  0.59829540098E+02  0.10000000000E+01 0.  0.
    9000005    1    3    3    0    0 -0.57916833991E+02  0.70999621869E+01 -0.66190332134E+02  0.88243578750E+02  0.10000000000E+01 0.  0.
<mgrwt>
<rscale>  0 0.12500177E+03</rscale>
<asrwt>0</asrwt>
<pdfrwt beam="2">  1        4 0.17495919E-01 0.12500177E+03</pdfrwt>
<pdfrwt beam="1">  1       -4 0.52845604E-02 0.12500177E+03</pdfrwt>
<totfact> 0.99685213E+03</totfact>
</mgrwt>
</event>
<event>
 5    1  0.3191162E-002  0.1249943E+03  0.7818608E-02  0.1235078E+00
          4   -1    0    0  501    0  0.00000000000E+00  0.00000000000E+00  0.25306196882E+02  0.25338044530E+02  0.12700000000E+01 0. -1.
         -4   -1    0    0    0  501 -0.00000000000E+00 -0.00000000000E+00 -0.15421377499E+03  0.15421900433E+03  0.12700000000E+01 0. -1.
         25    2    1    2    0    0  0.00000000000E+00  0.00000000000E+00 -0.12890757810E+03  0.17955704886E+03  0.12499428027E+03 0.  0.
    9000005    1    3    3    0    0 -0.32689939478E+02 -0.21313449404E+02  0.56566920325E+01  0.39444815037E+02  0.10000000000E+01 0.  0.
    9000005    1    3    3    0    0  0.32689939478E+02  0.21313449404E+02 -0.13456427014E+03  0.14011223382E+03  0.10000000000E+01 0.  0.
<mgrwt>
<rscale>  0 0.12499428E+03</rscale>
<asrwt>0</asrwt>
<pdfrwt beam="1">  1        4 0.38961132E-02 0.12499428E+03</pdfrwt>
<pdfrwt beam="2">  1       -4 0.23728048E-01 0.12499428E+03</pdfrwt>
<totfact> 0.93708815E+03</totfact>
</mgrwt>
</event>
<event>
 5    1  0.3191162E-002  0.1249993E+03  0.7818608E-02  0.1235070E+00
         -4   -1    0    0    0  501 -0.00000000000E+00  0.00000000000E+00  0.43195540315E+02  0.43214206034E+02  0.12700000000E+01 0.  1.
          4   -1    0    0  501    0  0.00000000000E+00 -0.00000000000E+00 -0.90388065381E+02  0.90396987026E+02  0.12700000000E+01 0.  1.
         25    2    1    2    0    0  0.00000000000E+00  0.00000000000E+00 -0.47192525066E+02  0.13361119306E+03  0.12499926595E+03 0.  0.
    9000005    1    3    3    0    0  0.18343351606E+02 -0.52695292084E+02 -0.53676361531E+02  0.77430124262E+02  0.10000000000E+01 0.  0.
    9000005    1    3    3    0    0 -0.18343351606E+02  0.52695292084E+02  0.64838364648E+01  0.56181068798E+02  0.10000000000E+01 0.  0.
<mgrwt>
<rscale>  0 0.12499927E+03</rscale>
<asrwt>0</asrwt>
<pdfrwt beam="2">  1        4 0.13907978E-01 0.12499927E+03</pdfrwt>
<pdfrwt beam="1">  1       -4 0.66475899E-02 0.12499927E+03</pdfrwt>
<totfact> 0.10267597E+04</totfact>
</mgrwt>
</event>
<event>
 5    1  0.3191162E-002  0.1250011E+03  0.7818608E-02  0.1235068E+00
          4   -1    0    0  501    0  0.00000000000E+00  0.00000000000E+00  0.14482551294E+02  0.14538128902E+02  0.12700000000E+01 0.  1.
         -4   -1    0    0    0  501 -0.00000000000E+00 -0.00000000000E+00 -0.26915225955E+03  0.26915525579E+03  0.12700000000E+01 0.  1.
         25    2    1    2    0    0  0.00000000000E+00  0.00000000000E+00 -0.25466970825E+03  0.28369338469E+03  0.12500110486E+03 0.  0.
    9000005    1    3    3    0    0  0.26414521212E+02  0.30605809469E+01 -0.25568307761E+03  0.25706405868E+03  0.10000000000E+01 0.  0.
    9000005    1    3    3    0    0 -0.26414521212E+02 -0.30605809469E+01  0.10133693584E+01  0.26629326015E+02  0.10000000000E+01 0.  0.
<mgrwt>
<rscale>  0 0.12500110E+03</rscale>
<asrwt>0</asrwt>
<pdfrwt beam="1">  1        4 0.22325907E-02 0.12500110E+03</pdfrwt>
<pdfrwt beam="2">  1       -4 0.41412542E-01 0.12500110E+03</pdfrwt>
<totfact> 0.77689018E+03</totfact>
</mgrwt>
</event>
<event>
 5    1  0.3191162E-002  0.1249985E+03  0.7818608E-02  0.1235072E+00
         -4   -1    0    0    0  501 -0.00000000000E+00  0.00000000000E+00  0.10446111297E+03  0.10446883279E+03  0.12700000000E+01 0.  1.
          4   -1    0    0  501    0  0.00000000000E+00 -0.00000000000E+00 -0.37373529336E+02  0.37395101217E+02  0.12700000000E+01 0.  1.
         25    2    1    2    0    0  0.00000000000E+00  0.00000000000E+00  0.67087583637E+02  0.14186393400E+03  0.12499852756E+03 0.  0.
    9000005    1    3    3    0    0  0.40479847041E+02 -0.74566118729E+01 -0.19821080156E+02  0.45695670425E+02  0.10000000000E+01 0.  0.
    9000005    1    3    3    0    0 -0.40479847041E+02  0.74566118729E+01  0.86908663793E+02  0.96168263577E+02  0.10000000000E+01 0.  0.
<mgrwt>
<rscale>  0 0.12499853E+03</rscale>
<asrwt>0</asrwt>
<pdfrwt beam="2">  1        4 0.57520270E-02 0.12499853E+03</pdfrwt>
<pdfrwt beam="1">  1       -4 0.16073193E-01 0.12499853E+03</pdfrwt>
<totfact> 0.10095435E+04</totfact>
</mgrwt>
</event>
<event>
 5    1  0.3191162E-002  0.1249995E+03  0.7818608E-02  0.1235070E+00
         -4   -1    0    0    0  501 -0.00000000000E+00  0.00000000000E+00  0.57516419690E+03  0.57516559902E+03  0.12700000000E+01 0. -1.
          4   -1    0    0  501    0  0.00000000000E+00 -0.00000000000E+00 -0.67306852942E+01  0.68494543235E+01  0.12700000000E+01 0. -1.
         25    2    1    2    0    0  0.00000000000E+00  0.00000000000E+00  0.56843351160E+03  0.58201505334E+03  0.12499946080E+03 0.  0.
    9000005    1    3    3    0    0  0.51113262734E+02 -0.51533111733E+01  0.11854096092E+03  0.12919783922E+03  0.10000000000E+01 0.  0.
    9000005    1    3    3    0    0 -0.51113262734E+02  0.51533111733E+01  0.44989255068E+03  0.45281721412E+03  0.10000000000E+01 0.  0.
<mgrwt>
<rscale>  0 0.12499946E+03</rscale>
<asrwt>0</asrwt>
<pdfrwt beam="2">  1        4 0.10447341E-02 0.12499946E+03</pdfrwt>
<pdfrwt beam="1">  1       -4 0.88496032E-01 0.12499946E+03</pdfrwt>
<totfact> 0.50023510E+03</totfact>
</mgrwt>
</event>
<event>
 5    1  0.3191162E-002  0.1249983E+03  0.7818608E-02  0.1235072E+00
          4   -1    0    0  501    0  0.00000000000E+00  0.00000000000E+00  0.17598705550E+02  0.17644470438E+02  0.12700000000E+01 0.  1.
         -4   -1    0    0    0  501 -0.00000000000E+00 -0.00000000000E+00 -0.22162061142E+03  0.22162425027E+03  0.12700000000E+01 0.  1.
         25    2    1    2    0    0  0.00000000000E+00  0.00000000000E+00 -0.20402190587E+03  0.23926872071E+03  0.12499833052E+03 0.  0.
    9000005    1    3    3    0    0 -0.19389429112E+02 -0.56901860120E+02 -0.69336590525E+02  0.91773277331E+02  0.10000000000E+01 0.  0.
    9000005    1    3    3    0    0  0.19389429112E+02  0.56901860120E+02 -0.13468531535E+03  0.14749544338E+03  0.10000000000E+01 0.  0.
<mgrwt>
<rscale>  0 0.12499833E+03</rscale>
<asrwt>0</asrwt>
<pdfrwt beam="1">  1        4 0.27112936E-02 0.12499833E+03</pdfrwt>
<pdfrwt beam="2">  1       -4 0.34099277E-01 0.12499833E+03</pdfrwt>
<totfact> 0.83909523E+03</totfact>
</mgrwt>
</event>
<event>
 5    1  0.3191162E-002  0.1249951E+03  0.7818608E-02  0.1235077E+00
         -4   -1    0    0    0  501 -0.00000000000E+00  0.00000000000E+00  0.62577262952E+01  0.63852986136E+01  0.12700000000E+01 0.  1.
          4   -1    0    0  501    0  0.00000000000E+00 -0.00000000000E+00 -0.61775319839E+03  0.61775450384E+03  0.12700000000E+01 0.  1.
         25    2    1    2    0    0  0.00000000000E+00  0.00000000000E+00 -0.61149547209E+03  0.62413980246E+03  0.12499512239E+03 0.  0.
    9000005    1    3    3    0    0  0.80601122851E+01 -0.40974211349E+00  0.36689894052E+01  0.89215907720E+01  0.10000000000E+01 0.  0.
    9000005    1    3    3    0    0 -0.80601122851E+01  0.40974211349E+00 -0.61516446150E+03  0.61521821168E+03  0.10000000000E+01 0.  0.
<mgrwt>
<rscale>  0 0.12499512E+03</rscale>
<asrwt>0</asrwt>
<pdfrwt beam="2">  1        4 0.95048820E-01 0.12499512E+03</pdfrwt>
<pdfrwt beam="1">  1       -4 0.97264128E-03 0.12499512E+03</pdfrwt>
<totfact> 0.47383532E+03</totfact>
</mgrwt>
</event>
<event>
 5    1  0.3191162E-002  0.1250003E+03  0.7818608E-02  0.1235069E+00
          4   -1    0    0  501    0  0.00000000000E+00  0.00000000000E+00  0.42854543260E+02  0.42873357438E+02  0.12700000000E+01 0. -1.
         -4   -1    0    0    0  501 -0.00000000000E+00 -0.00000000000E+00 -0.91108492051E+02  0.91117343156E+02  0.12700000000E+01 0. -1.
         25    2    1    2    0    0  0.00000000000E+00  0.00000000000E+00 -0.48253948791E+02  0.13399070059E+03  0.12500025709E+03 0.  0.
    9000005    1    3    3    0    0  0.24932908308E+02  0.26604865959E+01 -0.85484996811E+02  0.89092158944E+02  0.10000000000E+01 0.  0.
    9000005    1    3    3    0    0 -0.24932908308E+02 -0.26604865959E+01  0.37231048020E+02  0.44898541650E+02  0.10000000000E+01 0.  0.
<mgrwt>
<rscale>  0 0.12500026E+03</rscale>
<asrwt>0</asrwt>
<pdfrwt beam="1">  1        4 0.65951348E-02 0.12500026E+03</pdfrwt>
<pdfrwt beam="2">  1       -4 0.14018819E-01 0.12500026E+03</pdfrwt>
<totfact> 0.10259329E+04</totfact>
</mgrwt>
</event>
<event>
 5    1  0.3191162E-002  0.1250005E+03  0.7818608E-02  0.1235069E+00
         -4   -1    0    0    0  501 -0.00000000000E+00  0.00000000000E+00  0.32526053622E+02  0.32550838149E+02  0.12700000000E+01 0.  1.
          4   -1    0    0  501    0  0.00000000000E+00 -0.00000000000E+00 -0.12002301719E+03  0.12002973613E+03  0.12700000000E+01 0.  1.
         25    2    1    2    0    0  0.00000000000E+00  0.00000000000E+00 -0.87496963571E+02  0.15258057428E+03  0.12500045206E+03 0.  0.
    9000005    1    3    3    0    0  0.36365822725E+02 -0.41983952888E+02 -0.78705555601E+02  0.96336337096E+02  0.10000000000E+01 0.  0.
    9000005    1    3    3    0    0 -0.36365822725E+02  0.41983952888E+02 -0.87914079704E+01  0.56244237186E+02  0.10000000000E+01 0.  0.
<mgrwt>
<rscale>  0 0.12500045E+03</rscale>
<asrwt>0</asrwt>
<pdfrwt beam="2">  1        4 0.18467503E-01 0.12500045E+03</pdfrwt>
<pdfrwt beam="1">  1       -4 0.50064316E-02 0.12500045E+03</pdfrwt>
<totfact> 0.98790760E+03</totfact>
</mgrwt>
</event>
<event>
 5    1  0.3191162E-002  0.1249919E+03  0.7818608E-02  0.1235082E+00
          4   -1    0    0  501    0  0.00000000000E+00  0.00000000000E+00  0.39941380005E+02  0.39961565744E+02  0.12700000000E+01 0.  1.
         -4   -1    0    0    0  501 -0.00000000000E+00 -0.00000000000E+00 -0.97737837005E+02  0.97746087811E+02  0.12700000000E+01 0.  1.
         25    2    1    2    0    0  0.00000000000E+00  0.00000000000E+00 -0.57796457000E+02  0.13770765355E+03  0.12499186936E+03 0.  0.
    9000005    1    3    3    0    0 -0.10805907460E+01 -0.62303813698E+02 -0.34043329811E+02  0.71013246526E+02  0.10000000000E+01 0.  0.
    9000005    1    3    3    0    0  0.10805907460E+01  0.62303813698E+02 -0.23753127189E+02  0.66694407028E+02  0.10000000000E+01 0.  0.
<mgrwt>
<rscale>  0 0.12499187E+03</rscale>
<asrwt>0</asrwt>
<pdfrwt beam="1">  1        4 0.61470151E-02 0.12499187E+03</pdfrwt>
<pdfrwt beam="2">  1       -4 0.15038778E-01 0.12499187E+03</pdfrwt>
<totfact> 0.10183177E+04</totfact>
</mgrwt>
</event>
<event>
 5    1  0.3191162E-002  0.1249986E+03  0.7818608E-02  0.1235071E+00
          4   -1    0    0  501    0  0.00000000000E+00  0.00000000000E+00  0.23435410173E+04  0.23435413614E+04  0.12700000000E+01 0.  1.
         -4   -1    0    0    0  501 -0.00000000000E+00 -0.00000000000E+00 -0.14244659089E+01  0.19084032922E+01  0.12700000000E+01 0.  1.
         25    2    1    2    0    0  0.00000000000E+00  0.00000000000E+00  0.23421165514E+04  0.23454497647E+04  0.12499863387E+03 0.  0.
    9000005    1    3    3    0    0  0.33187830153E+02 -0.51869070931E+02  0.13708130642E+04  0.13721957913E+04  0.10000000000E+01 0.  0.
    9000005    1    3    3    0    0 -0.33187830153E+02  0.51869070931E+02  0.97130348719E+03  0.97325397344E+03  0.10000000000E+01 0.  0.
<mgrwt>
<rscale>  0 0.12499863E+03</rscale>
<asrwt>0</asrwt>
<pdfrwt beam="1">  1        4 0.36058049E+00 0.12499863E+03</pdfrwt>
<pdfrwt beam="2">  1       -4 0.25640212E-03 0.12499863E+03</pdfrwt>
<totfact> 0.60000286E+02</totfact>
</mgrwt>
</event>
<event>
 5    1  0.3191162E-002  0.1250026E+03  0.7818608E-02  0.1235065E+00
         -4   -1    0    0    0  501 -0.00000000000E+00  0.00000000000E+00  0.32646191058E+03  0.32646438084E+03  0.12700000000E+01 0. -1.
          4   -1    0    0  501    0  0.00000000000E+00 -0.00000000000E+00 -0.11929684048E+02  0.11997093876E+02  0.12700000000E+01 0. -1.
         25    2    1    2    0    0  0.00000000000E+00  0.00000000000E+00  0.31453222653E+03  0.33846147472E+03  0.12500259334E+03 0.  0.
    9000005    1    3    3    0    0  0.50482396659E+02 -0.31040776839E+02  0.10356134413E+03  0.11932289888E+03  0.10000000000E+01 0.  0.
    9000005    1    3    3    0    0 -0.50482396659E+02  0.31040776839E+02  0.21097088241E+03  0.21913857584E+03  0.10000000000E+01 0.  0.
<mgrwt>
<rscale>  0 0.12500259E+03</rscale>
<asrwt>0</asrwt>
<pdfrwt beam="2">  1        4 0.18407115E-02 0.12500259E+03</pdfrwt>
<pdfrwt beam="1">  1       -4 0.50230282E-01 0.12500259E+03</pdfrwt>
<totfact> 0.71008793E+03</totfact>
</mgrwt>
</event>
<event>
 5    1  0.3191162E-002  0.1249999E+03  0.7818608E-02  0.1235069E+00
         -4   -1    0    0    0  501 -0.00000000000E+00  0.00000000000E+00  0.38955878738E+02  0.38976574866E+02  0.12700000000E+01 0. -1.
          4   -1    0    0  501    0  0.00000000000E+00 -0.00000000000E+00 -0.10022217226E+03  0.10023021856E+03  0.12700000000E+01 0. -1.
         25    2    1    2    0    0  0.00000000000E+00  0.00000000000E+00 -0.61266293521E+02  0.13920679343E+03  0.12499989046E+03 0.  0.
    9000005    1    3    3    0    0  0.12557684061E+02  0.18275659418E+02 -0.95699101126E+02  0.98239569994E+02  0.10000000000E+01 0.  0.
    9000005    1    3    3    0    0 -0.12557684061E+02 -0.18275659418E+02  0.34432807605E+02  0.40967223432E+02  0.10000000000E+01 0.  0.
<mgrwt>
<rscale>  0 0.12499989E+03</rscale>
<asrwt>0</asrwt>
<pdfrwt beam="2">  1        4 0.15421007E-01 0.12499989E+03</pdfrwt>
<pdfrwt beam="1">  1       -4 0.59954231E-02 0.12499989E+03</pdfrwt>
<totfact> 0.10150077E+04</totfact>
</mgrwt>
</event>
<event>
 5    1  0.3191162E-002  0.1249997E+03  0.7818608E-02  0.1235070E+00
          4   -1    0    0  501    0  0.00000000000E+00  0.00000000000E+00  0.91061440791E+02  0.91070296469E+02  0.12700000000E+01 0.  1.
         -4   -1    0    0    0  501 -0.00000000000E+00 -0.00000000000E+00 -0.42876286217E+02  0.42895090858E+02  0.12700000000E+01 0.  1.
         25    2    1    2    0    0  0.00000000000E+00  0.00000000000E+00  0.48185154575E+02  0.13396538733E+03  0.12499966352E+03 0.  0.
    9000005    1    3    3    0    0 -0.54187319469E+02 -0.30957901483E+02  0.27577205716E+02  0.68236057408E+02  0.10000000000E+01 0.  0.
    9000005    1    3    3    0    0  0.54187319469E+02  0.30957901483E+02  0.20607948859E+02  0.65729329920E+02  0.10000000000E+01 0.  0.
<mgrwt>
<rscale>  0 0.12499966E+03</rscale>
<asrwt>0</asrwt>
<pdfrwt beam="1">  1        4 0.14011580E-01 0.12499966E+03</pdfrwt>
<pdfrwt beam="2">  1       -4 0.65984795E-02 0.12499966E+03</pdfrwt>
<totfact> 0.10260002E+04</totfact>
</mgrwt>
</event>
<event>
 5    1  0.3191162E-002  0.1249991E+03  0.7818608E-02  0.1235071E+00
          4   -1    0    0  501    0  0.00000000000E+00  0.00000000000E+00  0.61560630321E+02  0.61573729021E+02  0.12700000000E+01 0.  1.
         -4   -1    0    0    0  501 -0.00000000000E+00 -0.00000000000E+00 -0.63426541731E+02  0.63439255165E+02  0.12700000000E+01 0.  1.
         25    2    1    2    0    0  0.00000000000E+00  0.00000000000E+00 -0.18659114093E+01  0.12501298419E+03  0.12499905836E+03 0.  0.
    9000005    1    3    3    0    0  0.29656086413E+02 -0.54442061254E+02 -0.87931984774E+01  0.62623812040E+02  0.10000000000E+01 0.  0.
    9000005    1    3    3    0    0 -0.29656086413E+02  0.54442061254E+02  0.69272870681E+01  0.62389172146E+02  0.10000000000E+01 0.  0.
<mgrwt>
<rscale>  0 0.12499906E+03</rscale>
<asrwt>0</asrwt>
<pdfrwt beam="1">  1        4 0.94728517E-02 0.12499906E+03</pdfrwt>
<pdfrwt beam="2">  1       -4 0.97599151E-02 0.12499906E+03</pdfrwt>
<totfact> 0.10452803E+04</totfact>
</mgrwt>
</event>
<event>
 5    1  0.3191162E-002  0.1249897E+03  0.7818608E-02  0.1235085E+00
          4   -1    0    0  501    0  0.00000000000E+00  0.00000000000E+00  0.49292165971E+01  0.50901941281E+01  0.12700000000E+01 0. -1.
         -4   -1    0    0    0  501 -0.00000000000E+00 -0.00000000000E+00 -0.77944686826E+03  0.77944790291E+03  0.12700000000E+01 0. -1.
         25    2    1    2    0    0  0.00000000000E+00  0.00000000000E+00 -0.77451765167E+03  0.78453809704E+03  0.12498973140E+03 0.  0.
    9000005    1    3    3    0    0 -0.36080779290E+01 -0.24097973378E+01 -0.77853100463E+03  0.77854373706E+03  0.10000000000E+01 0.  0.
    9000005    1    3    3    0    0  0.36080779290E+01  0.24097973378E+01  0.40133529592E+01  0.59943599764E+01  0.10000000000E+01 0.  0.
<mgrwt>
<rscale>  0 0.12498973E+03</rscale>
<asrwt>0</asrwt>
<pdfrwt beam="1">  1        4 0.77080411E-03 0.12498973E+03</pdfrwt>
<pdfrwt beam="2">  1       -4 0.11992727E+00 0.12498973E+03</pdfrwt>
<totfact> 0.38973149E+03</totfact>
</mgrwt>
</event>
<event>
 5    1  0.3191162E-002  0.1250150E+03  0.7818608E-02  0.1235046E+00
         -4   -1    0    0    0  501 -0.00000000000E+00  0.00000000000E+00  0.88479686927E+03  0.88479778072E+03  0.12700000000E+01 0.  1.
          4   -1    0    0  501    0  0.00000000000E+00 -0.00000000000E+00 -0.43236693924E+01  0.45063307707E+01  0.12700000000E+01 0.  1.
         25    2    1    2    0    0  0.00000000000E+00  0.00000000000E+00  0.88047319988E+03  0.88930411149E+03  0.12501498716E+03 0.  0.
    9000005    1    3    3    0    0 -0.32555800437E+02 -0.15336171709E+02  0.80373346910E+03  0.80453935122E+03  0.10000000000E+01 0.  0.
    9000005    1    3    3    0    0  0.32555800437E+02  0.15336171709E+02  0.76739730777E+02  0.84764760275E+02  0.10000000000E+01 0.  0.
<mgrwt>
<rscale>  0 0.12501499E+03</rscale>
<asrwt>0</asrwt>
<pdfrwt beam="2">  1        4 0.67930037E-03 0.12501499E+03</pdfrwt>
<pdfrwt beam="1">  1       -4 0.13613682E+00 0.12501499E+03</pdfrwt>
<totfact> 0.34559298E+03</totfact>
</mgrwt>
</event>
<event>
 5    1  0.3191162E-002  0.1250021E+03  0.7818608E-02  0.1235066E+00
         -4   -1    0    0    0  501 -0.00000000000E+00  0.00000000000E+00  0.17985898368E+03  0.17986346742E+03  0.12700000000E+01 0. -1.
          4   -1    0    0  501    0  0.00000000000E+00 -0.00000000000E+00 -0.21695809457E+02  0.21732948443E+02  0.12700000000E+01 0. -1.
         25    2    1    2    0    0  0.00000000000E+00  0.00000000000E+00  0.15816317422E+03  0.20159641586E+03  0.12500210081E+03 0.  0.
    9000005    1    3    3    0    0  0.13061398169E+02 -0.94089974373E+01 -0.18302687060E+02  0.24395034505E+02  0.10000000000E+01 0.  0.
    9000005    1    3    3    0    0 -0.13061398169E+02  0.94089974373E+01  0.17646586128E+03  0.17720138135E+03  0.10000000000E+01 0.  0.
<mgrwt>
<rscale>  0 0.12500210E+03</rscale>
<asrwt>0</asrwt>
<pdfrwt beam="2">  1        4 0.33410185E-02 0.12500210E+03</pdfrwt>
<pdfrwt beam="1">  1       -4 0.27673815E-01 0.12500210E+03</pdfrwt>
<totfact> 0.89862730E+03</totfact>
</mgrwt>
</event>
<event>
 5    1  0.3191162E-002  0.1249962E+03  0.7818608E-02  0.1235075E+00
          4   -1    0    0  501    0  0.00000000000E+00  0.00000000000E+00  0.93896860310E+02  0.93905448596E+02  0.12700000000E+01 0. -1.
         -4   -1    0    0    0  501 -0.00000000000E+00 -0.00000000000E+00 -0.41578756367E+02  0.41598147567E+02  0.12700000000E+01 0. -1.
         25    2    1    2    0    0  0.00000000000E+00  0.00000000000E+00  0.52318103943E+02  0.13550359616E+03  0.12499616223E+03 0.  0.
    9000005    1    3    3    0    0  0.32357923590E+01 -0.42069752913E+02 -0.23809925870E+02  0.48458714719E+02  0.10000000000E+01 0.  0.
    9000005    1    3    3    0    0 -0.32357923590E+01  0.42069752913E+02  0.76128029813E+02  0.87044881443E+02  0.10000000000E+01 0.  0.
<mgrwt>
<rscale>  0 0.12499616E+03</rscale>
<asrwt>0</asrwt>
<pdfrwt beam="1">  1        4 0.14447823E-01 0.12499616E+03</pdfrwt>
<pdfrwt beam="2">  1       -4 0.63988841E-02 0.12499616E+03</pdfrwt>
<totfact> 0.10228352E+04</totfact>
</mgrwt>
</event>
<event>
 5    1  0.3191162E-002  0.1249987E+03  0.7818608E-02  0.1235071E+00
         -4   -1    0    0    0  501 -0.00000000000E+00  0.00000000000E+00  0.88094595867E+02  0.88103749756E+02  0.12700000000E+01 0.  1.
          4   -1    0    0  501    0  0.00000000000E+00 -0.00000000000E+00 -0.44320050025E+02  0.44338242345E+02  0.12700000000E+01 0.  1.
         25    2    1    2    0    0  0.00000000000E+00  0.00000000000E+00  0.43774545842E+02  0.13244199210E+03  0.12499868162E+03 0.  0.
    9000005    1    3    3    0    0  0.11260239987E+02  0.46399108979E+02  0.64605517312E+02  0.80340171681E+02  0.10000000000E+01 0.  0.
    9000005    1    3    3    0    0 -0.11260239987E+02 -0.46399108979E+02 -0.20830971470E+02  0.52101820419E+02  0.10000000000E+01 0.  0.
<mgrwt>
<rscale>  0 0.12499868E+03</rscale>
<asrwt>0</asrwt>
<pdfrwt beam="2">  1        4 0.68205728E-02 0.12499868E+03</pdfrwt>
<pdfrwt beam="1">  1       -4 0.13555118E-01 0.12499868E+03</pdfrwt>
<totfact> 0.10292580E+04</totfact>
</mgrwt>
</event>
<event>
 5    1  0.3191162E-002  0.1250088E+03  0.7818608E-02  0.1235056E+00
         -4   -1    0    0    0  501 -0.00000000000E+00  0.00000000000E+00  0.18428434855E+02  0.18472144196E+02  0.12700000000E+01 0. -1.
          4   -1    0    0  501    0  0.00000000000E+00 -0.00000000000E+00 -0.21170171347E+03  0.21170552281E+03  0.12700000000E+01 0. -1.
         25    2    1    2    0    0  0.00000000000E+00  0.00000000000E+00 -0.19327327862E+03  0.23017766700E+03  0.12500879233E+03 0.  0.
    9000005    1    3    3    0    0 -0.40398835617E+02  0.47486112100E+02 -0.88652398332E+02  0.10838470599E+03  0.10000000000E+01 0.  0.
    9000005    1    3    3    0    0  0.40398835617E+02 -0.47486112100E+02 -0.10462088029E+03  0.12179296102E+03  0.10000000000E+01 0.  0.
<mgrwt>
<rscale>  0 0.12500879E+03</rscale>
<asrwt>0</asrwt>
<pdfrwt beam="2">  1        4 0.32573148E-01 0.12500879E+03</pdfrwt>
<pdfrwt beam="1">  1       -4 0.28387992E-02 0.12500879E+03</pdfrwt>
<totfact> 0.85265596E+03</totfact>
</mgrwt>
</event>
<event>
 5    1  0.3191162E-002  0.1250048E+03  0.7818608E-02  0.1235062E+00
         -4   -1    0    0    0  501 -0.00000000000E+00  0.00000000000E+00  0.68747336296E+01  0.69910558914E+01  0.12700000000E+01 0. -1.
          4   -1    0    0  501    0  0.00000000000E+00 -0.00000000000E+00 -0.56336299523E+03  0.56336442672E+03  0.12700000000E+01 0. -1.
         25    2    1    2    0    0  0.00000000000E+00  0.00000000000E+00 -0.55648826160E+03  0.57035548261E+03  0.12500476490E+03 0.  0.
    9000005    1    3    3    0    0 -0.22919829224E+02  0.58136882418E+02 -0.28087368068E+03  0.28774335817E+03  0.10000000000E+01 0.  0.
    9000005    1    3    3    0    0  0.22919829224E+02 -0.58136882418E+02 -0.27561458092E+03  0.28261212444E+03  0.10000000000E+01 0.  0.
<mgrwt>
<rscale>  0 0.12500476E+03</rscale>
<asrwt>0</asrwt>
<pdfrwt beam="2">  1        4 0.86680252E-01 0.12500476E+03</pdfrwt>
<pdfrwt beam="1">  1       -4 0.10667097E-02 0.12500476E+03</pdfrwt>
<totfact> 0.50788674E+03</totfact>
</mgrwt>
</event>
<event>
 5    1  0.3191162E-002  0.1249989E+03  0.7818608E-02  0.1235071E+00
         -4   -1    0    0    0  501 -0.00000000000E+00  0.00000000000E+00  0.37132820637E+03  0.37133037817E+03  0.12700000000E+01 0.  1.
          4   -1    0    0  501    0  0.00000000000E+00 -0.00000000000E+00 -0.10478935064E+02  0.10555613676E+02  0.12700000000E+01 0.  1.
         25    2    1    2    0    0  0.00000000000E+00  0.00000000000E+00  0.36084927131E+03  0.38188599184E+03  0.12499885664E+03 0.  0.
    9000005    1    3    3    0    0 -0.44921676008E+02 -0.40719622297E+02  0.22667044502E+03  0.23464129061E+03  0.10000000000E+01 0.  0.
    9000005    1    3    3    0    0  0.44921676008E+02  0.40719622297E+02  0.13417882629E+03  0.14724470123E+03  0.10000000000E+01 0.  0.
<mgrwt>
<rscale>  0 0.12499886E+03</rscale>
<asrwt>0</asrwt>
<pdfrwt beam="2">  1        4 0.16182093E-02 0.12499886E+03</pdfrwt>
<pdfrwt beam="1">  1       -4 0.57133482E-01 0.12499886E+03</pdfrwt>
<totfact> 0.66355178E+03</totfact>
</mgrwt>
</event>
<event>
 5    1  0.3191162E-002  0.1249994E+03  0.7818608E-02  0.1235070E+00
          4   -1    0    0  501    0  0.00000000000E+00  0.00000000000E+00  0.42949182892E+01  0.44787524057E+01  0.12700000000E+01 0. -1.
         -4   -1    0    0    0  501 -0.00000000000E+00 -0.00000000000E+00 -0.89025494776E+03  0.89025585362E+03  0.12700000000E+01 0. -1.
         25    2    1    2    0    0  0.00000000000E+00  0.00000000000E+00 -0.88596002947E+03  0.89473460603E+03  0.12499936562E+03 0.  0.
    9000005    1    3    3    0    0  0.12488326071E+02  0.50384177994E+02 -0.69203905299E+03  0.69398384314E+03  0.10000000000E+01 0.  0.
    9000005    1    3    3    0    0 -0.12488326071E+02 -0.50384177994E+02 -0.19392097648E+03  0.20075076289E+03  0.10000000000E+01 0.  0.
<mgrwt>
<rscale>  0 0.12499937E+03</rscale>
<asrwt>0</asrwt>
<pdfrwt beam="1">  1        4 0.67496814E-03 0.12499937E+03</pdfrwt>
<pdfrwt beam="2">  1       -4 0.13697637E+00 0.12499937E+03</pdfrwt>
<totfact> 0.34362848E+03</totfact>
</mgrwt>
</event>
<event>
 5    1  0.3191162E-002  0.1250003E+03  0.7818608E-02  0.1235069E+00
          4   -1    0    0  501    0  0.00000000000E+00  0.00000000000E+00  0.60327727589E+03  0.60327861267E+03  0.12700000000E+01 0.  1.
         -4   -1    0    0    0  501 -0.00000000000E+00 -0.00000000000E+00 -0.64114482211E+01  0.65360208302E+01  0.12700000000E+01 0.  1.
         25    2    1    2    0    0  0.00000000000E+00  0.00000000000E+00  0.59686582767E+03  0.60981463350E+03  0.12500028397E+03 0.  0.
    9000005    1    3    3    0    0  0.24059264287E+02 -0.49642434009E+02  0.15519676327E+03  0.16471264306E+03  0.10000000000E+01 0.  0.
    9000005    1    3    3    0    0 -0.24059264287E+02  0.49642434009E+02  0.44166906439E+03  0.44510199044E+03  0.10000000000E+01 0.  0.
<mgrwt>
<rscale>  0 0.12500028E+03</rscale>
<asrwt>0</asrwt>
<pdfrwt beam="1">  1        4 0.92821598E-01 0.12500028E+03</pdfrwt>
<pdfrwt beam="2">  1       -4 0.99606173E-03 0.12500028E+03</pdfrwt>
<totfact> 0.48253575E+03</totfact>
</mgrwt>
</event>
<event>
 5    1  0.3191162E-002  0.1249787E+03  0.7818608E-02  0.1235103E+00
          4   -1    0    0  501    0  0.00000000000E+00  0.00000000000E+00  0.11405249995E+02  0.11475740823E+02  0.12700000000E+01 0.  1.
         -4   -1    0    0    0  501 -0.00000000000E+00 -0.00000000000E+00 -0.34125254004E+03  0.34125490324E+03  0.12700000000E+01 0.  1.
         25    2    1    2    0    0  0.00000000000E+00  0.00000000000E+00 -0.32984729005E+03  0.35273064406E+03  0.12497868822E+03 0.  0.
    9000005    1    3    3    0    0  0.60117347939E+02  0.13275365824E+02 -0.19500324480E+03  0.20449351174E+03  0.10000000000E+01 0.  0.
    9000005    1    3    3    0    0 -0.60117347939E+02 -0.13275365824E+02 -0.13484404525E+03  0.14823713232E+03  0.10000000000E+01 0.  0.
<mgrwt>
<rscale>  0 0.12497869E+03</rscale>
<asrwt>0</asrwt>
<pdfrwt beam="1">  1        4 0.17602583E-02 0.12497869E+03</pdfrwt>
<pdfrwt beam="2">  1       -4 0.52505987E-01 0.12497869E+03</pdfrwt>
<totfact> 0.69457945E+03</totfact>
</mgrwt>
</event>
<event>
 5    1  0.3191162E-002  0.1250262E+03  0.7818608E-02  0.1235028E+00
          4   -1    0    0  501    0  0.00000000000E+00  0.00000000000E+00  0.14571916595E+04  0.14571922129E+04  0.12700000000E+01 0. -1.
         -4   -1    0    0    0  501 -0.00000000000E+00 -0.00000000000E+00 -0.25308529980E+01  0.28316279589E+01  0.12700000000E+01 0. -1.
         25    2    1    2    0    0  0.00000000000E+00  0.00000000000E+00  0.14546608065E+04  0.14600238409E+04  0.12502621318E+03 0.  0.
    9000005    1    3    3    0    0 -0.14624087524E+01 -0.52239104051E+02  0.32689692953E+03  0.33104933948E+03  0.10000000000E+01 0.  0.
    9000005    1    3    3    0    0  0.14624087524E+01  0.52239104051E+02  0.11277638769E+04  0.11289745014E+04  0.10000000000E+01 0.  0.
<mgrwt>
<rscale>  0 0.12502621E+03</rscale>
<asrwt>0</asrwt>
<pdfrwt beam="1">  1        4 0.22420669E+00 0.12502621E+03</pdfrwt>
<pdfrwt beam="2">  1       -4 0.41254079E-03 0.12502621E+03</pdfrwt>
<totfact> 0.18717613E+03</totfact>
</mgrwt>
</event>
<event>
 5    1  0.3191162E-002  0.1250021E+03  0.7818608E-02  0.1235066E+00
         -4   -1    0    0    0  501 -0.00000000000E+00  0.00000000000E+00  0.11594749307E+03  0.11595444816E+03  0.12700000000E+01 0.  1.
          4   -1    0    0  501    0  0.00000000000E+00 -0.00000000000E+00 -0.33671029742E+02  0.33694972087E+02  0.12700000000E+01 0.  1.
         25    2    1    2    0    0  0.00000000000E+00  0.00000000000E+00  0.82276463325E+02  0.14964942025E+03  0.12500213024E+03 0.  0.
    9000005    1    3    3    0    0  0.47374752856E+02  0.38943926144E+02  0.26752863106E+02  0.66915710233E+02  0.10000000000E+01 0.  0.
    9000005    1    3    3    0    0 -0.47374752856E+02 -0.38943926144E+02  0.55523600220E+02  0.82733710016E+02  0.10000000000E+01 0.  0.
<mgrwt>
<rscale>  0 0.12500213E+03</rscale>
<asrwt>0</asrwt>
<pdfrwt beam="2">  1        4 0.51825351E-02 0.12500213E+03</pdfrwt>
<pdfrwt beam="1">  1       -4 0.17840453E-01 0.12500213E+03</pdfrwt>
<totfact> 0.99368862E+03</totfact>
</mgrwt>
</event>
<event>
 5    1  0.3191162E-002  0.1250012E+03  0.7818608E-02  0.1235067E+00
          4   -1    0    0  501    0  0.00000000000E+00  0.00000000000E+00  0.57929284615E+02  0.57943204226E+02  0.12700000000E+01 0.  1.
         -4   -1    0    0    0  501 -0.00000000000E+00 -0.00000000000E+00 -0.67404623664E+02  0.67416586915E+02  0.12700000000E+01 0.  1.
         25    2    1    2    0    0  0.00000000000E+00  0.00000000000E+00 -0.94753390498E+01  0.12535979114E+03  0.12500118073E+03 0.  0.
    9000005    1    3    3    0    0 -0.56114106776E+02 -0.24439724863E+02  0.79171949901E+01  0.61723375694E+02  0.10000000000E+01 0.  0.
    9000005    1    3    3    0    0  0.56114106776E+02  0.24439724863E+02 -0.17392534040E+02  0.63636415447E+02  0.10000000000E+01 0.  0.
<mgrwt>
<rscale>  0 0.12500118E+03</rscale>
<asrwt>0</asrwt>
<pdfrwt beam="1">  1        4 0.89141886E-02 0.12500118E+03</pdfrwt>
<pdfrwt beam="2">  1       -4 0.10371933E-01 0.12500118E+03</pdfrwt>
<totfact> 0.10444774E+04</totfact>
</mgrwt>
</event>
<event>
 5    1  0.3191162E-002  0.1250006E+03  0.7818608E-02  0.1235068E+00
          4   -1    0    0  501    0  0.00000000000E+00  0.00000000000E+00  0.24558391560E+02  0.24591207698E+02  0.12700000000E+01 0.  1.
         -4   -1    0    0    0  501 -0.00000000000E+00 -0.00000000000E+00 -0.15891970471E+03  0.15892477920E+03  0.12700000000E+01 0.  1.
         25    2    1    2    0    0  0.00000000000E+00  0.00000000000E+00 -0.13436131315E+03  0.18351598690E+03  0.12500061991E+03 0.  0.
    9000005    1    3    3    0    0 -0.27707868296E+02  0.55605928937E+02 -0.57272914791E+02  0.84504035804E+02  0.10000000000E+01 0.  0.
    9000005    1    3    3    0    0  0.27707868296E+02 -0.55605928937E+02 -0.77088398354E+02  0.99011951094E+02  0.10000000000E+01 0.  0.
<mgrwt>
<rscale>  0 0.12500062E+03</rscale>
<asrwt>0</asrwt>
<pdfrwt beam="1">  1        4 0.37811288E-02 0.12500062E+03</pdfrwt>
<pdfrwt beam="2">  1       -4 0.24452099E-01 0.12500062E+03</pdfrwt>
<totfact> 0.92986624E+03</totfact>
</mgrwt>
</event>
<event>
 5    1  0.3191162E-002  0.1249996E+03  0.7818608E-02  0.1235070E+00
          4   -1    0    0  501    0  0.00000000000E+00  0.00000000000E+00  0.98261412991E+01  0.99078732749E+01  0.12700000000E+01 0.  1.
         -4   -1    0    0    0  501 -0.00000000000E+00 -0.00000000000E+00 -0.39580446987E+03  0.39580650736E+03  0.12700000000E+01 0.  1.
         25    2    1    2    0    0  0.00000000000E+00  0.00000000000E+00 -0.38597832857E+03  0.40571438064E+03  0.12499955411E+03 0.  0.
    9000005    1    3    3    0    0  0.24453613107E+02  0.34246801863E+02 -0.43038016946E+02  0.60200444637E+02  0.10000000000E+01 0.  0.
    9000005    1    3    3    0    0 -0.24453613107E+02 -0.34246801863E+02 -0.34294031163E+03  0.34551393600E+03  0.10000000000E+01 0.  0.
<mgrwt>
<rscale>  0 0.12499955E+03</rscale>
<asrwt>0</asrwt>
<pdfrwt beam="1">  1        4 0.15181582E-02 0.12499955E+03</pdfrwt>
<pdfrwt beam="2">  1       -4 0.60899427E-01 0.12499955E+03</pdfrwt>
<totfact> 0.64001420E+03</totfact>
</mgrwt>
</event>
<event>
 5    1  0.3191162E-002  0.1250006E+03  0.7818608E-02  0.1235068E+00
          4   -1    0    0  501    0  0.00000000000E+00  0.00000000000E+00  0.30464602582E+03  0.30464867298E+03  0.12700000000E+01 0. -1.
         -4   -1    0    0    0  501 -0.00000000000E+00 -0.00000000000E+00 -0.12788226360E+02  0.12851133547E+02  0.12700000000E+01 0. -1.
         25    2    1    2    0    0  0.00000000000E+00  0.00000000000E+00  0.29185779946E+03  0.31749980653E+03  0.12500060815E+03 0.  0.
    9000005    1    3    3    0    0  0.56514023025E+01  0.82147875470E+01  0.30262498209E+03  0.30279085334E+03  0.10000000000E+01 0.  0.
    9000005    1    3    3    0    0 -0.56514023025E+01 -0.82147875470E+01 -0.10767182622E+02  0.14708953193E+02  0.10000000000E+01 0.  0.
<mgrwt>
<rscale>  0 0.12500061E+03</rscale>
<asrwt>0</asrwt>
<pdfrwt beam="1">  1        4 0.46873656E-01 0.12500061E+03</pdfrwt>
<pdfrwt beam="2">  1       -4 0.19724623E-02 0.12500061E+03</pdfrwt>
<totfact> 0.73453492E+03</totfact>
</mgrwt>
</event>
<event>
 5    1  0.3191162E-002  0.1249983E+03  0.7818608E-02  0.1235072E+00
         -4   -1    0    0    0  501 -0.00000000000E+00  0.00000000000E+00  0.12541564748E+03  0.12542207753E+03  0.12700000000E+01 0. -1.
          4   -1    0    0  501    0  0.00000000000E+00 -0.00000000000E+00 -0.31125395252E+02  0.31151294188E+02  0.12700000000E+01 0. -1.
         25    2    1    2    0    0  0.00000000000E+00  0.00000000000E+00  0.94290252227E+02  0.15657337172E+03  0.12499827626E+03 0.  0.
    9000005    1    3    3    0    0 -0.14846303032E+02  0.13590276571E+02 -0.26960299771E+02  0.33659561713E+02  0.10000000000E+01 0.  0.
    9000005    1    3    3    0    0  0.14846303032E+02 -0.13590276571E+02  0.12125055200E+03  0.12291381001E+03  0.10000000000E+01 0.  0.
<mgrwt>
<rscale>  0 0.12499828E+03</rscale>
<asrwt>0</asrwt>
<pdfrwt beam="2">  1        4 0.47910091E-02 0.12499828E+03</pdfrwt>
<pdfrwt beam="1">  1       -4 0.19297202E-01 0.12499828E+03</pdfrwt>
<totfact> 0.98011307E+03</totfact>
</mgrwt>
</event>
<event>
 5    1  0.3191162E-002  0.1250010E+03  0.7818608E-02  0.1235068E+00
          4   -1    0    0  501    0  0.00000000000E+00  0.00000000000E+00  0.51755169039E+03  0.51755324859E+03  0.12700000000E+01 0. -1.
         -4   -1    0    0    0  501 -0.00000000000E+00 -0.00000000000E+00 -0.74926756679E+01  0.75995452932E+01  0.12700000000E+01 0. -1.
         25    2    1    2    0    0  0.00000000000E+00  0.00000000000E+00  0.51005901472E+03  0.52515279388E+03  0.12500103369E+03 0.  0.
    9000005    1    3    3    0    0 -0.53582120380E+02  0.39822831759E+01  0.38910021933E+03  0.39279368998E+03  0.10000000000E+01 0.  0.
    9000005    1    3    3    0    0  0.53582120380E+02 -0.39822831759E+01  0.12095879539E+03  0.13235910390E+03  0.10000000000E+01 0.  0.
<mgrwt>
<rscale>  0 0.12500103E+03</rscale>
<asrwt>0</asrwt>
<pdfrwt beam="1">  1        4 0.79631693E-01 0.12500103E+03</pdfrwt>
<pdfrwt beam="2">  1       -4 0.11610597E-02 0.12500103E+03</pdfrwt>
<totfact> 0.53963066E+03</totfact>
</mgrwt>
</event>
<event>
 5    1  0.3191162E-002  0.1249984E+03  0.7818608E-02  0.1235072E+00
          4   -1    0    0  501    0  0.00000000000E+00  0.00000000000E+00  0.24864083520E+02  0.24896496727E+02  0.12700000000E+01 0. -1.
         -4   -1    0    0    0  501 -0.00000000000E+00 -0.00000000000E+00 -0.15696287741E+03  0.15696801516E+03  0.12700000000E+01 0. -1.
         25    2    1    2    0    0  0.00000000000E+00  0.00000000000E+00 -0.13209879389E+03  0.18186451189E+03  0.12499843734E+03 0.  0.
    9000005    1    3    3    0    0 -0.14809440420E+02  0.51916493433E+02 -0.11183963733E+03  0.12419237615E+03  0.10000000000E+01 0.  0.
    9000005    1    3    3    0    0  0.14809440420E+02 -0.51916493433E+02 -0.20259156553E+02  0.57672135735E+02  0.10000000000E+01 0.  0.
<mgrwt>
<rscale>  0 0.12499844E+03</rscale>
<asrwt>0</asrwt>
<pdfrwt beam="1">  1        4 0.38281323E-02 0.12499844E+03</pdfrwt>
<pdfrwt beam="2">  1       -4 0.24151023E-01 0.12499844E+03</pdfrwt>
<totfact> 0.93285726E+03</totfact>
</mgrwt>
</event>
<event>
 5    1  0.3191162E-002  0.1250005E+03  0.7818608E-02  0.1235069E+00
         -4   -1    0    0    0  501 -0.00000000000E+00  0.00000000000E+00  0.27435113310E+03  0.27435407256E+03  0.12700000000E+01 0. -1.
          4   -1    0    0  501    0  0.00000000000E+00 -0.00000000000E+00 -0.14206903341E+02  0.14263555046E+02  0.12700000000E+01 0. -1.
         25    2    1    2    0    0  0.00000000000E+00  0.00000000000E+00  0.26014422976E+03  0.28861762761E+03  0.12500045876E+03 0.  0.
    9000005    1    3    3    0    0 -0.37700252117E+02  0.42197012902E+01  0.15409404453E+02  0.40958083870E+02  0.10000000000E+01 0.  0.
    9000005    1    3    3    0    0  0.37700252117E+02 -0.42197012902E+01  0.24473482530E+03  0.24765954374E+03  0.10000000000E+01 0.  0.
<mgrwt>
<rscale>  0 0.12500046E+03</rscale>
<asrwt>0</asrwt>
<pdfrwt beam="2">  1        4 0.21902614E-02 0.12500046E+03</pdfrwt>
<pdfrwt beam="1">  1       -4 0.42212449E-01 0.12500046E+03</pdfrwt>
<totfact> 0.77048386E+03</totfact>
</mgrwt>
</event>
<event>
 5    1  0.3191162E-002  0.1249962E+03  0.7818608E-02  0.1235075E+00
         -4   -1    0    0    0  501 -0.00000000000E+00  0.00000000000E+00  0.57000092239E+02  0.57014238706E+02  0.12700000000E+01 0. -1.
          4   -1    0    0  501    0  0.00000000000E+00 -0.00000000000E+00 -0.68497893909E+02  0.68509666252E+02  0.12700000000E+01 0. -1.
         25    2    1    2    0    0  0.00000000000E+00  0.00000000000E+00 -0.11497801671E+02  0.12552390496E+03  0.12499620503E+03 0.  0.
    9000005    1    3    3    0    0  0.55994350751E+02 -0.26068912560E+02 -0.15278816884E+02  0.63634878514E+02  0.10000000000E+01 0.  0.
    9000005    1    3    3    0    0 -0.55994350751E+02  0.26068912560E+02  0.37810152138E+01  0.61889026444E+02  0.10000000000E+01 0.  0.
<mgrwt>
<rscale>  0 0.12499621E+03</rscale>
<asrwt>0</asrwt>
<pdfrwt beam="2">  1        4 0.10540131E-01 0.12499621E+03</pdfrwt>
<pdfrwt beam="1">  1       -4 0.87712388E-02 0.12499621E+03</pdfrwt>
<totfact> 0.10442320E+04</totfact>
</mgrwt>
</event>
<event>
 5    1  0.3191162E-002  0.1250002E+03  0.7818608E-02  0.1235069E+00
          4   -1    0    0  501    0  0.00000000000E+00  0.00000000000E+00  0.17627107807E+02  0.17672799146E+02  0.12700000000E+01 0.  1.
         -4   -1    0    0    0  501 -0.00000000000E+00 -0.00000000000E+00 -0.22127110416E+03  0.22127474875E+03  0.12700000000E+01 0.  1.
         25    2    1    2    0    0  0.00000000000E+00  0.00000000000E+00 -0.20364399635E+03  0.23894754790E+03  0.12500021359E+03 0.  0.
    9000005    1    3    3    0    0  0.43183768461E+01 -0.61583760590E+02 -0.12036088681E+03  0.13527361539E+03  0.10000000000E+01 0.  0.
    9000005    1    3    3    0    0 -0.43183768461E+01  0.61583760590E+02 -0.83283109539E+02  0.10367393251E+03  0.10000000000E+01 0.  0.
<mgrwt>
<rscale>  0 0.12500021E+03</rscale>
<asrwt>0</asrwt>
<pdfrwt beam="1">  1        4 0.27156580E-02 0.12500021E+03</pdfrwt>
<pdfrwt beam="2">  1       -4 0.34045501E-01 0.12500021E+03</pdfrwt>
<totfact> 0.83953963E+03</totfact>
</mgrwt>
</event>
<event>
 5    1  0.3191162E-002  0.1249992E+03  0.7818608E-02  0.1235071E+00
         -4   -1    0    0    0  501 -0.00000000000E+00  0.00000000000E+00  0.79758499059E+01  0.80763284803E+01  0.12700000000E+01 0. -1.
          4   -1    0    0  501    0  0.00000000000E+00 -0.00000000000E+00 -0.48658620284E+03  0.48658786020E+03  0.12700000000E+01 0. -1.
         25    2    1    2    0    0  0.00000000000E+00  0.00000000000E+00 -0.47861035293E+03  0.49466418868E+03  0.12499915851E+03 0.  0.
    9000005    1    3    3    0    0 -0.15928292019E+02 -0.16813931470E+02 -0.46899387024E+03  0.46956646931E+03  0.10000000000E+01 0.  0.
    9000005    1    3    3    0    0  0.15928292019E+02  0.16813931470E+02 -0.96164826926E+01  0.25097719369E+02  0.10000000000E+01 0.  0.
<mgrwt>
<rscale>  0 0.12499916E+03</rscale>
<asrwt>0</asrwt>
<pdfrwt beam="2">  1        4 0.74867250E-01 0.12499916E+03</pdfrwt>
<pdfrwt beam="1">  1       -4 0.12349108E-02 0.12499916E+03</pdfrwt>
<totfact> 0.56281801E+03</totfact>
</mgrwt>
</event>
<event>
 5    1  0.3191162E-002  0.1250141E+03  0.7818608E-02  0.1235047E+00
          4   -1    0    0  501    0  0.00000000000E+00  0.00000000000E+00  0.17174949381E+03  0.17175418924E+03  0.12700000000E+01 0. -1.
         -4   -1    0    0    0  501 -0.00000000000E+00 -0.00000000000E+00 -0.22726279568E+02  0.22761737258E+02  0.12700000000E+01 0. -1.
         25    2    1    2    0    0  0.00000000000E+00  0.00000000000E+00  0.14902321424E+03  0.19451592650E+03  0.12501410833E+03 0.  0.
    9000005    1    3    3    0    0  0.58014688131E+02 -0.32242695791E-01  0.11068294346E+03  0.12496967253E+03  0.10000000000E+01 0.  0.
    9000005    1    3    3    0    0 -0.58014688131E+02  0.32242695791E-01  0.38340270776E+02  0.69546253973E+02  0.10000000000E+01 0.  0.
<mgrwt>
<rscale>  0 0.12501411E+03</rscale>
<asrwt>0</asrwt>
<pdfrwt beam="1">  1        4 0.26426086E-01 0.12501411E+03</pdfrwt>
<pdfrwt beam="2">  1       -4 0.34994396E-02 0.12501411E+03</pdfrwt>
<totfact> 0.91038681E+03</totfact>
</mgrwt>
</event>
<event>
 5    1  0.3191162E-002  0.1250191E+03  0.7818608E-02  0.1235039E+00
         -4   -1    0    0    0  501 -0.00000000000E+00  0.00000000000E+00  0.22363864932E+03  0.22364225533E+03  0.12700000000E+01 0.  1.
          4   -1    0    0  501    0  0.00000000000E+00 -0.00000000000E+00 -0.17445290906E+02  0.17491457194E+02  0.12700000000E+01 0.  1.
         25    2    1    2    0    0  0.00000000000E+00  0.00000000000E+00  0.20619335842E+03  0.24113371253E+03  0.12501906360E+03 0.  0.
    9000005    1    3    3    0    0 -0.26035449179E+02 -0.42758117795E+02  0.30919735708E+02  0.58848375573E+02  0.10000000000E+01 0.  0.
    9000005    1    3    3    0    0  0.26035449179E+02  0.42758117795E+02  0.17527362271E+03  0.18228533695E+03  0.10000000000E+01 0.  0.
<mgrwt>
<rscale>  0 0.12501906E+03</rscale>
<asrwt>0</asrwt>
<pdfrwt beam="2">  1        4 0.26877195E-02 0.12501906E+03</pdfrwt>
<pdfrwt beam="1">  1       -4 0.34409775E-01 0.12501906E+03</pdfrwt>
<totfact> 0.83593280E+03</totfact>
</mgrwt>
</event>
<event>
 5    1  0.3191162E-002  0.1250003E+03  0.7818608E-02  0.1235069E+00
          4   -1    0    0  501    0  0.00000000000E+00  0.00000000000E+00  0.51797984393E+03  0.51798140084E+03  0.12700000000E+01 0. -1.
         -4   -1    0    0    0  501 -0.00000000000E+00 -0.00000000000E+00 -0.74863091681E+01  0.75932683978E+01  0.12700000000E+01 0. -1.
         25    2    1    2    0    0  0.00000000000E+00  0.00000000000E+00  0.51049353476E+03  0.52557466924E+03  0.12500033565E+03 0.  0.
    9000005    1    3    3    0    0  0.43211146810E+01  0.60584615246E+02  0.19343744427E+03  0.20275160291E+03  0.10000000000E+01 0.  0.
    9000005    1    3    3    0    0 -0.43211146810E+01 -0.60584615246E+02  0.31705609049E+03  0.32282306633E+03  0.10000000000E+01 0.  0.
<mgrwt>
<rscale>  0 0.12500034E+03</rscale>
<asrwt>0</asrwt>
<pdfrwt beam="1">  1        4 0.79697537E-01 0.12500034E+03</pdfrwt>
<pdfrwt beam="2">  1       -4 0.11600875E-02 0.12500034E+03</pdfrwt>
<totfact> 0.53932896E+03</totfact>
</mgrwt>
</event>
<event>
 5    1  0.3191162E-002  0.1249867E+03  0.7818608E-02  0.1235090E+00
         -4   -1    0    0    0  501 -0.00000000000E+00  0.00000000000E+00  0.44029529078E+02  0.44047841386E+02  0.12700000000E+01 0.  1.
          4   -1    0    0  501    0  0.00000000000E+00 -0.00000000000E+00 -0.88658712009E+02  0.88667807659E+02  0.12700000000E+01 0.  1.
         25    2    1    2    0    0  0.00000000000E+00  0.00000000000E+00 -0.44629182931E+02  0.13271564905E+03  0.12498671742E+03 0.  0.
    9000005    1    3    3    0    0  0.94175283913E+00  0.51820474006E+02 -0.59375194619E+02  0.78820442530E+02  0.10000000000E+01 0.  0.
    9000005    1    3    3    0    0 -0.94175283913E+00 -0.51820474006E+02  0.14746011688E+02  0.53895206515E+02  0.10000000000E+01 0.  0.
<mgrwt>
<rscale>  0 0.12498672E+03</rscale>
<asrwt>0</asrwt>
<pdfrwt beam="2">  1        4 0.13641910E-01 0.12498672E+03</pdfrwt>
<pdfrwt beam="1">  1       -4 0.67758820E-02 0.12498672E+03</pdfrwt>
<totfact> 0.10289530E+04</totfact>
</mgrwt>
</event>
<event>
 5    1  0.3191162E-002  0.1250003E+03  0.7818608E-02  0.1235069E+00
          4   -1    0    0  501    0  0.00000000000E+00  0.00000000000E+00  0.17311282251E+02  0.17357804965E+02  0.12700000000E+01 0. -1.
         -4   -1    0    0    0  501 -0.00000000000E+00 -0.00000000000E+00 -0.22529764473E+03  0.22530122419E+03  0.12700000000E+01 0. -1.
         25    2    1    2    0    0  0.00000000000E+00  0.00000000000E+00 -0.20798636248E+03  0.24265902915E+03  0.12500030981E+03 0.  0.
    9000005    1    3    3    0    0 -0.40024905343E+02 -0.41473773763E+02 -0.15087398183E+03  0.16151168797E+03  0.10000000000E+01 0.  0.
    9000005    1    3    3    0    0  0.40024905343E+02  0.41473773763E+02 -0.57112380652E+02  0.81147341186E+02  0.10000000000E+01 0.  0.
<mgrwt>
<rscale>  0 0.12500031E+03</rscale>
<asrwt>0</asrwt>
<pdfrwt beam="1">  1        4 0.26671284E-02 0.12500031E+03</pdfrwt>
<pdfrwt beam="2">  1       -4 0.34665028E-01 0.12500031E+03</pdfrwt>
<totfact> 0.83402364E+03</totfact>
</mgrwt>
</event>
<event>
 5    1  0.3191162E-002  0.1249984E+03  0.7818608E-02  0.1235072E+00
         -4   -1    0    0    0  501 -0.00000000000E+00  0.00000000000E+00  0.78472238518E+02  0.78482514728E+02  0.12700000000E+01 0.  1.
          4   -1    0    0  501    0  0.00000000000E+00 -0.00000000000E+00 -0.49755847441E+02  0.49772052948E+02  0.12700000000E+01 0.  1.
         25    2    1    2    0    0  0.00000000000E+00  0.00000000000E+00  0.28716391076E+02  0.12825456768E+03  0.12499841204E+03 0.  0.
    9000005    1    3    3    0    0 -0.60535943049E+02  0.65725796034E+01 -0.55940478549E-01  0.60899937051E+02  0.10000000000E+01 0.  0.
    9000005    1    3    3    0    0  0.60535943049E+02 -0.65725796034E+01  0.28772331555E+02  0.67354630624E+02  0.10000000000E+01 0.  0.
<mgrwt>
<rscale>  0 0.12499841E+03</rscale>
<asrwt>0</asrwt>
<pdfrwt beam="2">  1        4 0.76567828E-02 0.12499841E+03</pdfrwt>
<pdfrwt beam="1">  1       -4 0.12074689E-01 0.12499841E+03</pdfrwt>
<totfact> 0.10382366E+04</totfact>
</mgrwt>
</event>
<event>
 5    1  0.3191162E-002  0.1249971E+03  0.7818608E-02  0.1235074E+00
         -4   -1    0    0    0  501 -0.00000000000E+00  0.00000000000E+00  0.15897210720E+03  0.15897718002E+03  0.12700000000E+01 0. -1.
          4   -1    0    0  501    0  0.00000000000E+00 -0.00000000000E+00 -0.24548884670E+02  0.24581713499E+02  0.12700000000E+01 0. -1.
         25    2    1    2    0    0  0.00000000000E+00  0.00000000000E+00  0.13442322253E+03  0.18355889352E+03  0.12499705851E+03 0.  0.
    9000005    1    3    3    0    0 -0.53362182211E+02 -0.97968974791E+01  0.21674566620E+02  0.58431913615E+02  0.10000000000E+01 0.  0.
    9000005    1    3    3    0    0  0.53362182211E+02  0.97968974791E+01  0.11274865591E+03  0.12512697991E+03  0.10000000000E+01 0.  0.
<mgrwt>
<rscale>  0 0.12499706E+03</rscale>
<asrwt>0</asrwt>
<pdfrwt beam="2">  1        4 0.37796670E-02 0.12499706E+03</pdfrwt>
<pdfrwt beam="1">  1       -4 0.24460162E-01 0.12499706E+03</pdfrwt>
<totfact> 0.92986416E+03</totfact>
</mgrwt>
</event>
<event>
 5    1  0.3191162E-002  0.1250120E+03  0.7818608E-02  0.1235051E+00
         -4   -1    0    0    0  501 -0.00000000000E+00  0.00000000000E+00  0.11772652467E+02  0.11840956300E+02  0.12700000000E+01 0. -1.
          4   -1    0    0  501    0  0.00000000000E+00 -0.00000000000E+00 -0.33084114094E+03  0.33084357850E+03  0.12700000000E+01 0. -1.
         25    2    1    2    0    0  0.00000000000E+00  0.00000000000E+00 -0.31906848847E+03  0.34268453480E+03  0.12501195966E+03 0.  0.
    9000005    1    3    3    0    0  0.22073315220E+02 -0.16843630338E+02 -0.60493077019E+01  0.28434719120E+02  0.10000000000E+01 0.  0.
    9000005    1    3    3    0    0 -0.22073315220E+02  0.16843630338E+02 -0.31301918077E+03  0.31424981568E+03  0.10000000000E+01 0.  0.
<mgrwt>
<rscale>  0 0.12501196E+03</rscale>
<asrwt>0</asrwt>
<pdfrwt beam="2">  1        4 0.50904072E-01 0.12501196E+03</pdfrwt>
<pdfrwt beam="1">  1       -4 0.18166192E-02 0.12501196E+03</pdfrwt>
<totfact> 0.70518245E+03</totfact>
</mgrwt>
</event>
<event>
 5    1  0.3191162E-002  0.1250059E+03  0.7818608E-02  0.1235060E+00
          4   -1    0    0  501    0  0.00000000000E+00  0.00000000000E+00  0.17562348481E+03  0.17562807668E+03  0.12700000000E+01 0. -1.
         -4   -1    0    0    0  501 -0.00000000000E+00 -0.00000000000E+00 -0.22221271602E+02  0.22257533817E+02  0.12700000000E+01 0. -1.
         25    2    1    2    0    0  0.00000000000E+00  0.00000000000E+00  0.15340221321E+03  0.19788561049E+03  0.12500590315E+03 0.  0.
    9000005    1    3    3    0    0 -0.59888973583E+02 -0.17316032311E+02  0.83616673267E+02  0.10430379753E+03  0.10000000000E+01 0.  0.
    9000005    1    3    3    0    0  0.59888973583E+02  0.17316032311E+02  0.69785539943E+02  0.93581812961E+02  0.10000000000E+01 0.  0.
<mgrwt>
<rscale>  0 0.12500590E+03</rscale>
<asrwt>0</asrwt>
<pdfrwt beam="1">  1        4 0.27022141E-01 0.12500590E+03</pdfrwt>
<pdfrwt beam="2">  1       -4 0.34217997E-02 0.12500590E+03</pdfrwt>
<totfact> 0.90481101E+03</totfact>
</mgrwt>
</event>
<event>
 5    1  0.3191162E-002  0.1250103E+03  0.7818608E-02  0.1235053E+00
         -4   -1    0    0    0  501 -0.00000000000E+00  0.00000000000E+00  0.33384958392E+02  0.33409105748E+02  0.12700000000E+01 0. -1.
          4   -1    0    0  501    0  0.00000000000E+00 -0.00000000000E+00 -0.11695569482E+03  0.11696258996E+03  0.12700000000E+01 0. -1.
         25    2    1    2    0    0  0.00000000000E+00  0.00000000000E+00 -0.83570736429E+02  0.15037169571E+03  0.12501031511E+03 0.  0.
    9000005    1    3    3    0    0  0.41229013003E+02  0.46903041288E+02 -0.44772743715E+02  0.76846114899E+02  0.10000000000E+01 0.  0.
    9000005    1    3    3    0    0 -0.41229013003E+02 -0.46903041288E+02 -0.38797992714E+02  0.73525580813E+02  0.10000000000E+01 0.  0.
<mgrwt>
<rscale>  0 0.12501032E+03</rscale>
<asrwt>0</asrwt>
<pdfrwt beam="2">  1        4 0.17995571E-01 0.12501032E+03</pdfrwt>
<pdfrwt beam="1">  1       -4 0.51385354E-02 0.12501032E+03</pdfrwt>
<totfact> 0.99206626E+03</totfact>
</mgrwt>
</event>
<event>
 5    1  0.3191162E-002  0.1250003E+03  0.7818608E-02  0.1235069E+00
          4   -1    0    0  501    0  0.00000000000E+00  0.00000000000E+00  0.20331261588E+04  0.20331265555E+04  0.12700000000E+01 0. -1.
         -4   -1    0    0    0  501 -0.00000000000E+00 -0.00000000000E+00 -0.17110004837E+01  0.21308267539E+01  0.12700000000E+01 0. -1.
         25    2    1    2    0    0  0.00000000000E+00  0.00000000000E+00  0.20314151583E+04  0.20352573822E+04  0.12500026560E+03 0.  0.
    9000005    1    3    3    0    0  0.52542468251E+02 -0.12515612160E+02  0.50394537202E+03  0.50683260501E+03  0.10000000000E+01 0.  0.
    9000005    1    3    3    0    0 -0.52542468251E+02  0.12515612160E+02  0.15274697863E+04  0.15284247772E+04  0.10000000000E+01 0.  0.
<mgrwt>
<rscale>  0 0.12500027E+03</rscale>
<asrwt>0</asrwt>
<pdfrwt beam="1">  1        4 0.31281972E+00 0.12500027E+03</pdfrwt>
<pdfrwt beam="2">  1       -4 0.29555686E-03 0.12500027E+03</pdfrwt>
<totfact> 0.94080462E+02</totfact>
</mgrwt>
</event>
<event>
 5    1  0.3191162E-002  0.1250006E+03  0.7818608E-02  0.1235068E+00
         -4   -1    0    0    0  501 -0.00000000000E+00  0.00000000000E+00  0.33674130172E+03  0.33674369658E+03  0.12700000000E+01 0. -1.
          4   -1    0    0  501    0  0.00000000000E+00 -0.00000000000E+00 -0.11563054265E+02  0.11632588875E+02  0.12700000000E+01 0. -1.
         25    2    1    2    0    0  0.00000000000E+00  0.00000000000E+00  0.32517824746E+03  0.34837628545E+03  0.12500057459E+03 0.  0.
    9000005    1    3    3    0    0  0.19766615825E+02 -0.17711087345E+02  0.49109591609E+01  0.27009613770E+02  0.10000000000E+01 0.  0.
    9000005    1    3    3    0    0 -0.19766615825E+02  0.17711087345E+02  0.32026728830E+03  0.32136667168E+03  0.10000000000E+01 0.  0.
<mgrwt>
<rscale>  0 0.12500057E+03</rscale>
<asrwt>0</asrwt>
<pdfrwt beam="2">  1        4 0.17844642E-02 0.12500057E+03</pdfrwt>
<pdfrwt beam="1">  1       -4 0.51811894E-01 0.12500057E+03</pdfrwt>
<totfact> 0.69902659E+03</totfact>
</mgrwt>
</event>
<event>
 5    1  0.3191162E-002  0.1249983E+03  0.7818608E-02  0.1235072E+00
         -4   -1    0    0    0  501 -0.00000000000E+00  0.00000000000E+00  0.66477325743E+01  0.67679574747E+01  0.12700000000E+01 0.  1.
          4   -1    0    0  501    0  0.00000000000E+00 -0.00000000000E+00 -0.58220393121E+03  0.58220531638E+03  0.12700000000E+01 0.  1.
         25    2    1    2    0    0  0.00000000000E+00  0.00000000000E+00 -0.57555619864E+03  0.58897327385E+03  0.12499831808E+03 0.  0.
    9000005    1    3    3    0    0 -0.10312775792E+02 -0.61599518600E+02 -0.29753839102E+03  0.30402458481E+03  0.10000000000E+01 0.  0.
    9000005    1    3    3    0    0  0.10312775792E+02  0.61599518600E+02 -0.27801780761E+03  0.28494868904E+03  0.10000000000E+01 0.  0.
<mgrwt>
<rscale>  0 0.12499832E+03</rscale>
<asrwt>0</asrwt>
<pdfrwt beam="2">  1        4 0.89579150E-01 0.12499832E+03</pdfrwt>
<pdfrwt beam="1">  1       -4 0.10320832E-02 0.12499832E+03</pdfrwt>
<totfact> 0.49572974E+03</totfact>
</mgrwt>
</event>
<event>
 5    1  0.3191162E-002  0.1250008E+03  0.7818608E-02  0.1235068E+00
         -4   -1    0    0    0  501 -0.00000000000E+00  0.00000000000E+00  0.64767784784E+02  0.64780234993E+02  0.12700000000E+01 0. -1.
          4   -1    0    0  501    0  0.00000000000E+00 -0.00000000000E+00 -0.60287489601E+02  0.60300864856E+02  0.12700000000E+01 0. -1.
         25    2    1    2    0    0  0.00000000000E+00  0.00000000000E+00  0.44802951825E+01  0.12508109985E+03  0.12500083398E+03 0.  0.
    9000005    1    3    3    0    0 -0.52856030119E+02 -0.33303541170E+02  0.68468835810E+00  0.62484834741E+02  0.10000000000E+01 0.  0.
    9000005    1    3    3    0    0  0.52856030119E+02  0.33303541170E+02  0.37956068244E+01  0.62596265109E+02  0.10000000000E+01 0.  0.
<mgrwt>
<rscale>  0 0.12500083E+03</rscale>
<asrwt>0</asrwt>
<pdfrwt beam="2">  1        4 0.92769850E-02 0.12500083E+03</pdfrwt>
<pdfrwt beam="1">  1       -4 0.99662611E-02 0.12500083E+03</pdfrwt>
<totfact> 0.10450904E+04</totfact>
</mgrwt>
</event>
<event>
 5    1  0.3191162E-002  0.1249999E+03  0.7818608E-02  0.1235069E+00
         -4   -1    0    0    0  501 -0.00000000000E+00  0.00000000000E+00  0.31922279669E+01  0.34355813763E+01  0.12700000000E+01 0.  1.
          4   -1    0    0  501    0  0.00000000000E+00 -0.00000000000E+00 -0.11784999621E+04  0.11785006464E+04  0.12700000000E+01 0.  1.
         25    2    1    2    0    0  0.00000000000E+00  0.00000000000E+00 -0.11753077342E+04  0.11819362278E+04  0.12499990649E+03 0.  0.
    9000005    1    3    3    0    0 -0.49442495745E+02  0.22394595917E+02 -0.29481332044E+03  0.29976986543E+03  0.10000000000E+01 0.  0.
    9000005    1    3    3    0    0  0.49442495745E+02 -0.22394595917E+02 -0.88049441372E+03  0.88216636238E+03  0.10000000000E+01 0.  0.
<mgrwt>
<rscale>  0 0.12499991E+03</rscale>
<asrwt>0</asrwt>
<pdfrwt beam="2">  1        4 0.18132612E+00 0.12499991E+03</pdfrwt>
<pdfrwt beam="1">  1       -4 0.50988507E-03 0.12499991E+03</pdfrwt>
<totfact> 0.25190632E+03</totfact>
</mgrwt>
</event>
<event>
 5    1  0.3191162E-002  0.1249998E+03  0.7818608E-02  0.1235070E+00
         -4   -1    0    0    0  501 -0.00000000000E+00  0.00000000000E+00  0.45629121757E+03  0.45629298497E+03  0.12700000000E+01 0.  1.
          4   -1    0    0  501    0  0.00000000000E+00 -0.00000000000E+00 -0.85119510423E+01  0.86061728164E+01  0.12700000000E+01 0.  1.
         25    2    1    2    0    0  0.00000000000E+00  0.00000000000E+00  0.44777926652E+03  0.46489915778E+03  0.12499982151E+03 0.  0.
    9000005    1    3    3    0    0 -0.28288395376E+02 -0.40593470126E+02  0.36586249251E+03  0.36919429377E+03  0.10000000000E+01 0.  0.
    9000005    1    3    3    0    0  0.28288395376E+02  0.40593470126E+02  0.81916774017E+02  0.95704864010E+02  0.10000000000E+01 0.  0.
<mgrwt>
<rscale>  0 0.12499982E+03</rscale>
<asrwt>0</asrwt>
<pdfrwt beam="2">  1        4 0.13169142E-02 0.12499982E+03</pdfrwt>
<pdfrwt beam="1">  1       -4 0.70206060E-01 0.12499982E+03</pdfrwt>
<totfact> 0.58694682E+03</totfact>
</mgrwt>
</event>
<event>
 5    1  0.3191162E-002  0.1249997E+03  0.7818608E-02  0.1235070E+00
          4   -1    0    0  501    0  0.00000000000E+00  0.00000000000E+00  0.44679009165E+02  0.44697055383E+02  0.12700000000E+01 0.  1.
         -4   -1    0    0    0  501 -0.00000000000E+00 -0.00000000000E+00 -0.87388531577E+02  0.87397759418E+02  0.12700000000E+01 0.  1.
         25    2    1    2    0    0  0.00000000000E+00  0.00000000000E+00 -0.42709522412E+02  0.13209481480E+03  0.12499974717E+03 0.  0.
    9000005    1    3    3    0    0  0.31992912132E+02  0.52758738807E+02 -0.10882521650E+02  0.62661473208E+02  0.10000000000E+01 0.  0.
    9000005    1    3    3    0    0 -0.31992912132E+02 -0.52758738807E+02 -0.31827000763E+02  0.69433341593E+02  0.10000000000E+01 0.  0.
<mgrwt>
<rscale>  0 0.12499975E+03</rscale>
<asrwt>0</asrwt>
<pdfrwt beam="1">  1        4 0.68757917E-02 0.12499975E+03</pdfrwt>
<pdfrwt beam="2">  1       -4 0.13446487E-01 0.12499975E+03</pdfrwt>
<totfact> 0.10299734E+04</totfact>
</mgrwt>
</event>
<event>
 5    1  0.3191162E-002  0.1250073E+03  0.7818608E-02  0.1235058E+00
          4   -1    0    0  501    0  0.00000000000E+00  0.00000000000E+00  0.31623385807E+03  0.31623640823E+03  0.12700000000E+01 0.  1.
         -4   -1    0    0    0  501 -0.00000000000E+00 -0.00000000000E+00 -0.12318599478E+02  0.12383892485E+02  0.12700000000E+01 0.  1.
         25    2    1    2    0    0  0.00000000000E+00  0.00000000000E+00  0.30391525859E+03  0.32862030071E+03  0.12500727033E+03 0.  0.
    9000005    1    3    3    0    0 -0.43421697986E+02  0.44207914982E+02  0.17330136190E+03  0.18404930220E+03  0.10000000000E+01 0.  0.
    9000005    1    3    3    0    0  0.43421697986E+02 -0.44207914982E+02  0.13061389669E+03  0.14457099852E+03  0.10000000000E+01 0.  0.
<mgrwt>
<rscale>  0 0.12500727E+03</rscale>
<asrwt>0</asrwt>
<pdfrwt beam="1">  1        4 0.48656579E-01 0.12500727E+03</pdfrwt>
<pdfrwt beam="2">  1       -4 0.19003879E-02 0.12500727E+03</pdfrwt>
<totfact> 0.72130831E+03</totfact>
</mgrwt>
</event>
<event>
 5    1  0.3191162E-002  0.1250063E+03  0.7818608E-02  0.1235059E+00
          4   -1    0    0  501    0  0.00000000000E+00  0.00000000000E+00  0.35682270642E+03  0.35682496649E+03  0.12700000000E+01 0.  1.
         -4   -1    0    0    0  501 -0.00000000000E+00 -0.00000000000E+00 -0.10909290038E+02  0.10982964497E+02  0.12700000000E+01 0.  1.
         25    2    1    2    0    0  0.00000000000E+00  0.00000000000E+00  0.34591341638E+03  0.36780793099E+03  0.12500632972E+03 0.  0.
    9000005    1    3    3    0    0  0.48701918833E+02  0.38228148937E+02  0.19798841247E+03  0.20744560670E+03  0.10000000000E+01 0.  0.
    9000005    1    3    3    0    0 -0.48701918833E+02 -0.38228148937E+02  0.14792500391E+03  0.16036232429E+03  0.10000000000E+01 0.  0.
<mgrwt>
<rscale>  0 0.12500633E+03</rscale>
<asrwt>0</asrwt>
<pdfrwt beam="1">  1        4 0.54901646E-01 0.12500633E+03</pdfrwt>
<pdfrwt beam="2">  1       -4 0.16841933E-02 0.12500633E+03</pdfrwt>
<totfact> 0.67799400E+03</totfact>
</mgrwt>
</event>
<event>
 5    1  0.3191162E-002  0.1250006E+03  0.7818608E-02  0.1235068E+00
          4   -1    0    0  501    0  0.00000000000E+00  0.00000000000E+00  0.23599164424E+02  0.23633312538E+02  0.12700000000E+01 0. -1.
         -4   -1    0    0    0  501 -0.00000000000E+00 -0.00000000000E+00 -0.16537033029E+03  0.16537520685E+03  0.12700000000E+01 0. -1.
         25    2    1    2    0    0  0.00000000000E+00  0.00000000000E+00 -0.14177116587E+03  0.18900851939E+03  0.12500062772E+03 0.  0.
    9000005    1    3    3    0    0  0.22916233445E+02  0.54960978020E+02 -0.99552048901E+02  0.11600635026E+03  0.10000000000E+01 0.  0.
    9000005    1    3    3    0    0 -0.22916233445E+02 -0.54960978020E+02 -0.42219116970E+02  0.73002169131E+02  0.10000000000E+01 0.  0.
<mgrwt>
<rscale>  0 0.12500063E+03</rscale>
<asrwt>0</asrwt>
<pdfrwt beam="1">  1        4 0.36336427E-02 0.12500063E+03</pdfrwt>
<pdfrwt beam="2">  1       -4 0.25444590E-01 0.12500063E+03</pdfrwt>
<totfact> 0.92018822E+03</totfact>
</mgrwt>
</event>
<event>
 5    1  0.3191162E-002  0.1249999E+03  0.7818608E-02  0.1235069E+00
          4   -1    0    0  501    0  0.00000000000E+00  0.00000000000E+00  0.81238551331E+02  0.81248477662E+02  0.12700000000E+01 0.  1.
         -4   -1    0    0    0  501 -0.00000000000E+00 -0.00000000000E+00 -0.48062384418E+02  0.48079160724E+02  0.12700000000E+01 0.  1.
         25    2    1    2    0    0  0.00000000000E+00  0.00000000000E+00  0.33176166914E+02  0.12932763839E+03  0.12499992000E+03 0.  0.
    9000005    1    3    3    0    0 -0.86735904655E+01  0.61714680302E+02  0.21364413869E+02  0.65889081921E+02  0.10000000000E+01 0.  0.
    9000005    1    3    3    0    0  0.86735904655E+01 -0.61714680302E+02  0.11811753044E+02  0.63438556465E+02  0.10000000000E+01 0.  0.
<mgrwt>
<rscale>  0 0.12499992E+03</rscale>
<asrwt>0</asrwt>
<pdfrwt beam="1">  1        4 0.12500293E-01 0.12499992E+03</pdfrwt>
<pdfrwt beam="2">  1       -4 0.73962672E-02 0.12499992E+03</pdfrwt>
<totfact> 0.10358930E+04</totfact>
</mgrwt>
</event>
<event>
 5    1  0.3191162E-002  0.1250028E+03  0.7818608E-02  0.1235065E+00
         -4   -1    0    0    0  501 -0.00000000000E+00  0.00000000000E+00  0.93438358532E+01  0.94297491192E+01  0.12700000000E+01 0. -1.
          4   -1    0    0  501    0  0.00000000000E+00 -0.00000000000E+00 -0.41607519026E+03  0.41607712849E+03  0.12700000000E+01 0. -1.
         25    2    1    2    0    0  0.00000000000E+00  0.00000000000E+00 -0.40673135441E+03  0.42550687761E+03  0.12500283290E+03 0.  0.
    9000005    1    3    3    0    0  0.17780114848E+02 -0.38067294528E+02 -0.45890741696E+02  0.62227096751E+02  0.10000000000E+01 0.  0.
    9000005    1    3    3    0    0 -0.17780114848E+02  0.38067294528E+02 -0.36084061271E+03  0.36327978086E+03  0.10000000000E+01 0.  0.
<mgrwt>
<rscale>  0 0.12500283E+03</rscale>
<asrwt>0</asrwt>
<pdfrwt beam="2">  1        4 0.64018311E-01 0.12500283E+03</pdfrwt>
<pdfrwt beam="1">  1       -4 0.14442713E-02 0.12500283E+03</pdfrwt>
<totfact> 0.62141512E+03</totfact>
</mgrwt>
</event>
<event>
 5    1  0.3191162E-002  0.1250017E+03  0.7818608E-02  0.1235067E+00
          4   -1    0    0  501    0  0.00000000000E+00  0.00000000000E+00  0.48258488766E+02  0.48275196924E+02  0.12700000000E+01 0.  1.
         -4   -1    0    0    0  501 -0.00000000000E+00 -0.00000000000E+00 -0.80910852838E+02  0.80920819367E+02  0.12700000000E+01 0.  1.
         25    2    1    2    0    0  0.00000000000E+00  0.00000000000E+00 -0.32652364072E+02  0.12919601629E+03  0.12500173497E+03 0.  0.
    9000005    1    3    3    0    0 -0.47583234350E+02 -0.38198680876E+02 -0.30271692520E+02  0.68122527697E+02  0.10000000000E+01 0.  0.
    9000005    1    3    3    0    0  0.47583234350E+02  0.38198680876E+02 -0.23806715521E+01  0.61073488593E+02  0.10000000000E+01 0.  0.
<mgrwt>
<rscale>  0 0.12500173E+03</rscale>
<asrwt>0</asrwt>
<pdfrwt beam="1">  1        4 0.74264348E-02 0.12500173E+03</pdfrwt>
<pdfrwt beam="2">  1       -4 0.12449875E-01 0.12500173E+03</pdfrwt>
<totfact> 0.10361331E+04</totfact>
</mgrwt>
</event>
<event>
 5    1  0.3191162E-002  0.1249842E+03  0.7818608E-02  0.1235094E+00
          4   -1    0    0  501    0  0.00000000000E+00  0.00000000000E+00  0.93910438734E+02  0.93919025779E+02  0.12700000000E+01 0.  1.
         -4   -1    0    0    0  501 -0.00000000000E+00 -0.00000000000E+00 -0.41564806805E+02  0.41584204510E+02  0.12700000000E+01 0.  1.
         25    2    1    2    0    0  0.00000000000E+00  0.00000000000E+00  0.52345631929E+02  0.13550323029E+03  0.12498423995E+03 0.  0.
    9000005    1    3    3    0    0  0.22571927961E+02  0.17075098865E+02 -0.34222084075E+02  0.44420738079E+02  0.10000000000E+01 0.  0.
    9000005    1    3    3    0    0 -0.22571927961E+02 -0.17075098865E+02  0.86567716003E+02  0.91082492210E+02  0.10000000000E+01 0.  0.
<mgrwt>
<rscale>  0 0.12498424E+03</rscale>
<asrwt>0</asrwt>
<pdfrwt beam="1">  1        4 0.14449912E-01 0.12498424E+03</pdfrwt>
<pdfrwt beam="2">  1       -4 0.63967383E-02 0.12498424E+03</pdfrwt>
<totfact> 0.10231111E+04</totfact>
</mgrwt>
</event>
<event>
 5    1  0.3191162E-002  0.1249984E+03  0.7818608E-02  0.1235072E+00
          4   -1    0    0  501    0  0.00000000000E+00  0.00000000000E+00  0.18618512521E+03  0.18618945660E+03  0.12700000000E+01 0.  1.
         -4   -1    0    0    0  501 -0.00000000000E+00 -0.00000000000E+00 -0.20956137121E+02  0.20994584612E+02  0.12700000000E+01 0.  1.
         25    2    1    2    0    0  0.00000000000E+00  0.00000000000E+00  0.16522898809E+03  0.20718404121E+03  0.12499843370E+03 0.  0.
    9000005    1    3    3    0    0 -0.27572399586E+02  0.10781798123E+02 -0.86028752446E+01  0.30846293978E+02  0.10000000000E+01 0.  0.
    9000005    1    3    3    0    0  0.27572399586E+02 -0.10781798123E+02  0.17383186334E+03  0.17633774724E+03  0.10000000000E+01 0.  0.
<mgrwt>
<rscale>  0 0.12499843E+03</rscale>
<asrwt>0</asrwt>
<pdfrwt beam="1">  1        4 0.28647157E-01 0.12499843E+03</pdfrwt>
<pdfrwt beam="2">  1       -4 0.32273117E-02 0.12499843E+03</pdfrwt>
<totfact> 0.88940953E+03</totfact>
</mgrwt>
</event>
<event>
 5    1  0.3191162E-002  0.1249979E+03  0.7818608E-02  0.1235073E+00
          4   -1    0    0  501    0  0.00000000000E+00  0.00000000000E+00  0.17990315235E+02  0.18035086422E+02  0.12700000000E+01 0.  1.
         -4   -1    0    0    0  501 -0.00000000000E+00 -0.00000000000E+00 -0.21680693222E+03  0.21681065186E+03  0.12700000000E+01 0.  1.
         25    2    1    2    0    0  0.00000000000E+00  0.00000000000E+00 -0.19881661699E+03  0.23484573828E+03  0.12499789438E+03 0.  0.
    9000005    1    3    3    0    0 -0.25227542171E+02 -0.34076672614E+02 -0.13157996164E+02  0.44404744831E+02  0.10000000000E+01 0.  0.
    9000005    1    3    3    0    0  0.25227542171E+02  0.34076672614E+02 -0.18565862082E+03  0.19044099345E+03  0.10000000000E+01 0.  0.
<mgrwt>
<rscale>  0 0.12499789E+03</rscale>
<asrwt>0</asrwt>
<pdfrwt beam="1">  1        4 0.27714710E-02 0.12499789E+03</pdfrwt>
<pdfrwt beam="2">  1       -4 0.33358641E-01 0.12499789E+03</pdfrwt>
<totfact> 0.84575014E+03</totfact>
</mgrwt>
</event>
<event>
 5    1  0.3191162E-002  0.1250013E+03  0.7818608E-02  0.1235067E+00
          4   -1    0    0  501    0  0.00000000000E+00  0.00000000000E+00  0.92843546856E+01  0.93708133013E+01  0.12700000000E+01 0. -1.
         -4   -1    0    0    0  501 -0.00000000000E+00 -0.00000000000E+00 -0.41870603757E+03  0.41870796362E+03  0.12700000000E+01 0. -1.
         25    2    1    2    0    0  0.00000000000E+00  0.00000000000E+00 -0.40942168288E+03  0.42807877692E+03  0.12500129933E+03 0.  0.
    9000005    1    3    3    0    0  0.31476753338E+02  0.10122411735E+02 -0.23107782658E+02  0.40351193779E+02  0.10000000000E+01 0.  0.
    9000005    1    3    3    0    0 -0.31476753338E+02 -0.10122411735E+02 -0.38631390022E+03  0.38772758314E+03  0.10000000000E+01 0.  0.
<mgrwt>
<rscale>  0 0.12500130E+03</rscale>
<asrwt>0</asrwt>
<pdfrwt beam="1">  1        4 0.14351614E-02 0.12500130E+03</pdfrwt>
<pdfrwt beam="2">  1       -4 0.64423098E-01 0.12500130E+03</pdfrwt>
<totfact> 0.61908758E+03</totfact>
</mgrwt>
</event>
<event>
 5    1  0.3191162E-002  0.1249992E+03  0.7818608E-02  0.1235071E+00
         -4   -1    0    0    0  501 -0.00000000000E+00  0.00000000000E+00  0.71622691315E+02  0.71633950130E+02  0.12700000000E+01 0.  1.
          4   -1    0    0  501    0  0.00000000000E+00 -0.00000000000E+00 -0.54515621554E+02  0.54530412555E+02  0.12700000000E+01 0.  1.
         25    2    1    2    0    0  0.00000000000E+00  0.00000000000E+00  0.17107069760E+02  0.12616436269E+03  0.12499917830E+03 0.  0.
    9000005    1    3    3    0    0 -0.36708881868E+02 -0.41526607888E+02 -0.20580692960E+02  0.59131768901E+02  0.10000000000E+01 0.  0.
    9000005    1    3    3    0    0  0.36708881868E+02  0.41526607888E+02  0.37687762720E+02  0.67032593784E+02  0.10000000000E+01 0.  0.
<mgrwt>
<rscale>  0 0.12499918E+03</rscale>
<asrwt>0</asrwt>
<pdfrwt beam="2">  1        4 0.83890226E-02 0.12499918E+03</pdfrwt>
<pdfrwt beam="1">  1       -4 0.11020879E-01 0.12499918E+03</pdfrwt>
<totfact> 0.10427552E+04</totfact>
</mgrwt>
</event>
<event>
 5    1  0.3191162E-002  0.1249823E+03  0.7818608E-02  0.1235097E+00
          4   -1    0    0  501    0  0.00000000000E+00  0.00000000000E+00  0.64781244801E+03  0.64781369289E+03  0.12700000000E+01 0. -1.
         -4   -1    0    0    0  501 -0.00000000000E+00 -0.00000000000E+00 -0.59600460244E+01  0.60938533469E+01  0.12700000000E+01 0. -1.
         25    2    1    2    0    0  0.00000000000E+00  0.00000000000E+00  0.64185240198E+03  0.65390754623E+03  0.12498229111E+03 0.  0.
    9000005    1    3    3    0    0  0.15663413809E+02  0.78473216021E+01  0.63472507755E+03  0.63496759528E+03  0.10000000000E+01 0.  0.
    9000005    1    3    3    0    0 -0.15663413809E+02 -0.78473216021E+01  0.71273244317E+01  0.18939950951E+02  0.10000000000E+01 0.  0.
<mgrwt>
<rscale>  0 0.12498229E+03</rscale>
<asrwt>0</asrwt>
<pdfrwt beam="1">  1        4 0.99673864E-01 0.12498229E+03</pdfrwt>
<pdfrwt beam="2">  1       -4 0.92731859E-03 0.12498229E+03</pdfrwt>
<totfact> 0.45649981E+03</totfact>
</mgrwt>
</event>
<event>
 5    1  0.3191162E-002  0.1250040E+03  0.7818608E-02  0.1235063E+00
          4   -1    0    0  501    0  0.00000000000E+00  0.00000000000E+00  0.18907272053E+03  0.18907698577E+03  0.12700000000E+01 0.  1.
         -4   -1    0    0    0  501 -0.00000000000E+00 -0.00000000000E+00 -0.20637347326E+02  0.20676387611E+02  0.12700000000E+01 0.  1.
         25    2    1    2    0    0  0.00000000000E+00  0.00000000000E+00  0.16843537320E+03  0.20975337338E+03  0.12500401073E+03 0.  0.
    9000005    1    3    3    0    0  0.53295463191E+02  0.25485812304E+02  0.11842396865E+03  0.13234488799E+03  0.10000000000E+01 0.  0.
    9000005    1    3    3    0    0 -0.53295463191E+02 -0.25485812304E+02  0.50011404548E+02  0.77408485390E+02  0.10000000000E+01 0.  0.
<mgrwt>
<rscale>  0 0.12500401E+03</rscale>
<asrwt>0</asrwt>
<pdfrwt beam="1">  1        4 0.29091440E-01 0.12500401E+03</pdfrwt>
<pdfrwt beam="2">  1       -4 0.31783079E-02 0.12500401E+03</pdfrwt>
<totfact> 0.88508238E+03</totfact>
</mgrwt>
</event>
<event>
 5    1  0.3191162E-002  0.1249982E+03  0.7818608E-02  0.1235072E+00
         -4   -1    0    0    0  501 -0.00000000000E+00  0.00000000000E+00  0.19748625361E+03  0.19749033714E+03  0.12700000000E+01 0. -1.
          4   -1    0    0  501    0  0.00000000000E+00 -0.00000000000E+00 -0.19754616133E+02  0.19795397409E+02  0.12700000000E+01 0. -1.
         25    2    1    2    0    0  0.00000000000E+00  0.00000000000E+00  0.17773163748E+03  0.21728573455E+03  0.12499822191E+03 0.  0.
    9000005    1    3    3    0    0 -0.17827265590E+02  0.41868555298E+02  0.14415139438E+02  0.47744984723E+02  0.10000000000E+01 0.  0.
    9000005    1    3    3    0    0  0.17827265590E+02 -0.41868555298E+02  0.16331649804E+03  0.16954074983E+03  0.10000000000E+01 0.  0.
<mgrwt>
<rscale>  0 0.12499822E+03</rscale>
<asrwt>0</asrwt>
<pdfrwt beam="2">  1        4 0.30426229E-02 0.12499822E+03</pdfrwt>
<pdfrwt beam="1">  1       -4 0.30385952E-01 0.12499822E+03</pdfrwt>
<totfact> 0.87303145E+03</totfact>
</mgrwt>
</event>
<event>
 5    1  0.3191162E-002  0.1249962E+03  0.7818608E-02  0.1235075E+00
         -4   -1    0    0    0  501 -0.00000000000E+00  0.00000000000E+00  0.13040741001E+02  0.13102435875E+02  0.12700000000E+01 0.  1.
          4   -1    0    0  501    0  0.00000000000E+00 -0.00000000000E+00 -0.29875395575E+03  0.29875665512E+03  0.12700000000E+01 0.  1.
         25    2    1    2    0    0  0.00000000000E+00  0.00000000000E+00 -0.28571321475E+03  0.31185909099E+03  0.12499620615E+03 0.  0.
    9000005    1    3    3    0    0  0.72644674605E+01  0.27736667463E+02 -0.43270198430E+01  0.29014105366E+02  0.10000000000E+01 0.  0.
    9000005    1    3    3    0    0 -0.72644674605E+01 -0.27736667463E+02 -0.28138619491E+03  0.28284498563E+03  0.10000000000E+01 0.  0.
<mgrwt>
<rscale>  0 0.12499621E+03</rscale>
<asrwt>0</asrwt>
<pdfrwt beam="2">  1        4 0.45967095E-01 0.12499621E+03</pdfrwt>
<pdfrwt beam="1">  1       -4 0.20112215E-02 0.12499621E+03</pdfrwt>
<totfact> 0.74141176E+03</totfact>
</mgrwt>
</event>
<event>
 5    1  0.3191162E-002  0.1250001E+03  0.7818608E-02  0.1235069E+00
          4   -1    0    0  501    0  0.00000000000E+00  0.00000000000E+00  0.10500615738E+03  0.10501383713E+03  0.12700000000E+01 0.  1.
         -4   -1    0    0    0  501 -0.00000000000E+00 -0.00000000000E+00 -0.37180379740E+02  0.37202063621E+02  0.12700000000E+01 0.  1.
         25    2    1    2    0    0  0.00000000000E+00  0.00000000000E+00  0.67825777641E+02  0.14221590075E+03  0.12500010525E+03 0.  0.
    9000005    1    3    3    0    0 -0.14235982716E+02 -0.13749679715E+02 -0.33525969435E+02  0.38944929358E+02  0.10000000000E+01 0.  0.
    9000005    1    3    3    0    0  0.14235982716E+02  0.13749679715E+02  0.10135174708E+03  0.10327097139E+03  0.10000000000E+01 0.  0.
<mgrwt>
<rscale>  0 0.12500011E+03</rscale>
<asrwt>0</asrwt>
<pdfrwt beam="1">  1        4 0.16157052E-01 0.12500011E+03</pdfrwt>
<pdfrwt beam="2">  1       -4 0.57223172E-02 0.12500011E+03</pdfrwt>
<totfact> 0.10087841E+04</totfact>
</mgrwt>
</event>
<event>
 5    1  0.3191162E-002  0.1250066E+03  0.7818608E-02  0.1235059E+00
         -4   -1    0    0    0  501 -0.00000000000E+00  0.00000000000E+00  0.17454616158E+02  0.17500757847E+02  0.12700000000E+01 0.  1.
          4   -1    0    0  501    0  0.00000000000E+00 -0.00000000000E+00 -0.22347491120E+03  0.22347851985E+03  0.12700000000E+01 0.  1.
         25    2    1    2    0    0  0.00000000000E+00  0.00000000000E+00 -0.20602029504E+03  0.24097927770E+03  0.12500660107E+03 0.  0.
    9000005    1    3    3    0    0  0.47145673136E+02 -0.24202626470E+02 -0.16686382018E+03  0.17508002773E+03  0.10000000000E+01 0.  0.
    9000005    1    3    3    0    0 -0.47145673136E+02  0.24202626470E+02 -0.39156474859E+02  0.65899249972E+02  0.10000000000E+01 0.  0.
<mgrwt>
<rscale>  0 0.12500660E+03</rscale>
<asrwt>0</asrwt>
<pdfrwt beam="2">  1        4 0.34384580E-01 0.12500660E+03</pdfrwt>
<pdfrwt beam="1">  1       -4 0.26891527E-02 0.12500660E+03</pdfrwt>
<totfact> 0.83639430E+03</totfact>
</mgrwt>
</event>
<event>
 5    1  0.3191162E-002  0.1250022E+03  0.7818608E-02  0.1235066E+00
          4   -1    0    0  501    0  0.00000000000E+00  0.00000000000E+00  0.29157444863E+03  0.29157721446E+03  0.12700000000E+01 0.  1.
         -4   -1    0    0    0  501 -0.00000000000E+00 -0.00000000000E+00 -0.13364632936E+02  0.13424839422E+02  0.12700000000E+01 0.  1.
         25    2    1    2    0    0  0.00000000000E+00  0.00000000000E+00  0.27820981569E+03  0.30500205388E+03  0.12500220528E+03 0.  0.
    9000005    1    3    3    0    0  0.34494946959E+02  0.24080092716E+02  0.25186324557E+03  0.25535435516E+03  0.10000000000E+01 0.  0.
    9000005    1    3    3    0    0 -0.34494946959E+02 -0.24080092716E+02  0.26346570117E+02  0.49647698716E+02  0.10000000000E+01 0.  0.
<mgrwt>
<rscale>  0 0.12500221E+03</rscale>
<asrwt>0</asrwt>
<pdfrwt beam="1">  1        4 0.44862454E-01 0.12500221E+03</pdfrwt>
<pdfrwt beam="2">  1       -4 0.20609413E-02 0.12500221E+03</pdfrwt>
<totfact> 0.74971972E+03</totfact>
</mgrwt>
</event>
<event>
 5    1  0.3191162E-002  0.1250059E+03  0.7818608E-02  0.1235060E+00
         -4   -1    0    0    0  501 -0.00000000000E+00  0.00000000000E+00  0.14322190569E+01  0.19141973323E+01  0.12700000000E+01 0.  1.
          4   -1    0    0  501    0  0.00000000000E+00 -0.00000000000E+00 -0.23343234830E+04  0.23343238285E+04  0.12700000000E+01 0.  1.
         25    2    1    2    0    0  0.00000000000E+00  0.00000000000E+00 -0.23328912639E+04  0.23362380258E+04  0.12500585524E+03 0.  0.
    9000005    1    3    3    0    0  0.56892220439E+02  0.25848326529E+02 -0.11502041200E+04  0.11519007676E+04  0.10000000000E+01 0.  0.
    9000005    1    3    3    0    0 -0.56892220439E+02 -0.25848326529E+02 -0.11826871439E+04  0.11843372581E+04  0.10000000000E+01 0.  0.
<mgrwt>
<rscale>  0 0.12500586E+03</rscale>
<asrwt>0</asrwt>
<pdfrwt beam="2">  1        4 0.35916119E+00 0.12500586E+03</pdfrwt>
<pdfrwt beam="1">  1       -4 0.25744509E-03 0.12500586E+03</pdfrwt>
<totfact> 0.60859184E+02</totfact>
</mgrwt>
</event>
<event>
 5    1  0.3191162E-002  0.1249871E+03  0.7818608E-02  0.1235089E+00
          4   -1    0    0  501    0  0.00000000000E+00  0.00000000000E+00  0.30175987807E+03  0.30176255054E+03  0.12700000000E+01 0. -1.
         -4   -1    0    0    0  501 -0.00000000000E+00 -0.00000000000E+00 -0.12908339486E+02  0.12970664142E+02  0.12700000000E+01 0. -1.
         25    2    1    2    0    0  0.00000000000E+00  0.00000000000E+00  0.28885153858E+03  0.31473321468E+03  0.12498713968E+03 0.  0.
    9000005    1    3    3    0    0  0.54560005742E+02  0.12238508818E+02  0.74194418122E+02  0.92910639892E+02  0.10000000000E+01 0.  0.
    9000005    1    3    3    0    0 -0.54560005742E+02 -0.12238508818E+02  0.21465712046E+03  0.22182257479E+03  0.10000000000E+01 0.  0.
<mgrwt>
<rscale>  0 0.12498714E+03</rscale>
<asrwt>0</asrwt>
<pdfrwt beam="1">  1        4 0.46429599E-01 0.12498714E+03</pdfrwt>
<pdfrwt beam="2">  1       -4 0.19908980E-02 0.12498714E+03</pdfrwt>
<totfact> 0.73807991E+03</totfact>
</mgrwt>
</event>
<event>
 5    1  0.3191162E-002  0.1250011E+03  0.7818608E-02  0.1235068E+00
          4   -1    0    0  501    0  0.00000000000E+00  0.00000000000E+00  0.90482542996E+02  0.90491455326E+02  0.12700000000E+01 0.  1.
         -4   -1    0    0    0  501 -0.00000000000E+00 -0.00000000000E+00 -0.43151686932E+02  0.43170371612E+02  0.12700000000E+01 0.  1.
         25    2    1    2    0    0  0.00000000000E+00  0.00000000000E+00  0.47330856064E+02  0.13366182694E+03  0.12500109617E+03 0.  0.
    9000005    1    3    3    0    0 -0.10708538458E+02  0.60843292633E+02  0.13592587596E+02  0.63264030001E+02  0.10000000000E+01 0.  0.
    9000005    1    3    3    0    0  0.10708538458E+02 -0.60843292633E+02  0.33738268467E+02  0.70397796937E+02  0.10000000000E+01 0.  0.
<mgrwt>
<rscale>  0 0.12500110E+03</rscale>
<asrwt>0</asrwt>
<pdfrwt beam="1">  1        4 0.13922514E-01 0.12500110E+03</pdfrwt>
<pdfrwt beam="2">  1       -4 0.66408440E-02 0.12500110E+03</pdfrwt>
<totfact> 0.10266100E+04</totfact>
</mgrwt>
</event>
<event>
 5    1  0.3191162E-002  0.1249918E+03  0.7818608E-02  0.1235082E+00
         -4   -1    0    0    0  501 -0.00000000000E+00  0.00000000000E+00  0.59018635780E+02  0.59032298527E+02  0.12700000000E+01 0. -1.
          4   -1    0    0  501    0  0.00000000000E+00 -0.00000000000E+00 -0.66150653514E+02  0.66162843502E+02  0.12700000000E+01 0. -1.
         25    2    1    2    0    0  0.00000000000E+00  0.00000000000E+00 -0.71320177335E+01  0.12519514203E+03  0.12499183138E+03 0.  0.
    9000005    1    3    3    0    0  0.26194713284E+02 -0.42577156134E+02  0.33988473828E+02  0.60458196976E+02  0.10000000000E+01 0.  0.
    9000005    1    3    3    0    0 -0.26194713284E+02  0.42577156134E+02 -0.41120491561E+02  0.64736945052E+02  0.10000000000E+01 0.  0.
<mgrwt>
<rscale>  0 0.12499183E+03</rscale>
<asrwt>0</asrwt>
<pdfrwt beam="2">  1        4 0.10179012E-01 0.12499183E+03</pdfrwt>
<pdfrwt beam="1">  1       -4 0.90817788E-02 0.12499183E+03</pdfrwt>
<totfact> 0.10450555E+04</totfact>
</mgrwt>
</event>
<event>
 5    1  0.3191162E-002  0.1250008E+03  0.7818608E-02  0.1235068E+00
         -4   -1    0    0    0  501 -0.00000000000E+00  0.00000000000E+00  0.81314786278E+03  0.81314885454E+03  0.12700000000E+01 0. -1.
          4   -1    0    0  501    0  0.00000000000E+00 -0.00000000000E+00 -0.47189742370E+01  0.48868822218E+01  0.12700000000E+01 0. -1.
         25    2    1    2    0    0  0.00000000000E+00  0.00000000000E+00  0.80842888854E+03  0.81803573676E+03  0.12500079517E+03 0.  0.
    9000005    1    3    3    0    0  0.58123411301E+01  0.48381308683E+01  0.81017438156E+03  0.81021029329E+03  0.10000000000E+01 0.  0.
    9000005    1    3    3    0    0 -0.58123411301E+01 -0.48381308683E+01 -0.17454930147E+01  0.78254434748E+01  0.10000000000E+01 0.  0.
<mgrwt>
<rscale>  0 0.12500080E+03</rscale>
<asrwt>0</asrwt>
<pdfrwt beam="2">  1        4 0.73898824E-03 0.12500080E+03</pdfrwt>
<pdfrwt beam="1">  1       -4 0.12511268E+00 0.12500080E+03</pdfrwt>
<totfact> 0.37471482E+03</totfact>
</mgrwt>
</event>
<event>
 5    1  0.3191162E-002  0.1250315E+03  0.7818608E-02  0.1235020E+00
         -4   -1    0    0    0  501 -0.00000000000E+00  0.00000000000E+00  0.26750825485E+03  0.26751126950E+03  0.12700000000E+01 0.  1.
          4   -1    0    0  501    0  0.00000000000E+00 -0.00000000000E+00 -0.14579007808E+02  0.14634219100E+02  0.12700000000E+01 0.  1.
         25    2    1    2    0    0  0.00000000000E+00  0.00000000000E+00  0.25292924704E+03  0.28214548860E+03  0.12503148696E+03 0.  0.
    9000005    1    3    3    0    0  0.17642080181E+02 -0.54134897286E+02  0.18467376908E+03  0.19325431711E+03  0.10000000000E+01 0.  0.
    9000005    1    3    3    0    0 -0.17642080181E+02  0.54134897286E+02  0.68255477960E+02  0.88891171490E+02  0.10000000000E+01 0.  0.
<mgrwt>
<rscale>  0 0.12503149E+03</rscale>
<asrwt>0</asrwt>
<pdfrwt beam="2">  1        4 0.22474035E-02 0.12503149E+03</pdfrwt>
<pdfrwt beam="1">  1       -4 0.41159589E-01 0.12503149E+03</pdfrwt>
<totfact> 0.77840004E+03</totfact>
</mgrwt>
</event>
<event>
 5    1  0.3191162E-002  0.1249953E+03  0.7818608E-02  0.1235077E+00
          4   -1    0    0  501    0  0.00000000000E+00  0.00000000000E+00  0.73222346421E+03  0.73222456559E+03  0.12700000000E+01 0.  1.
         -4   -1    0    0    0  501 -0.00000000000E+00 -0.00000000000E+00 -0.52576690482E+01  0.54088800893E+01  0.12700000000E+01 0.  1.
         25    2    1    2    0    0  0.00000000000E+00  0.00000000000E+00  0.72696579517E+03  0.73763344567E+03  0.12499533126E+03 0.  0.
    9000005    1    3    3    0    0  0.44729394604E+02 -0.43025686895E+02  0.40645697235E+03  0.41116930679E+03  0.10000000000E+01 0.  0.
    9000005    1    3    3    0    0 -0.44729394604E+02  0.43025686895E+02  0.32050882282E+03  0.32646413889E+03  0.10000000000E+01 0.  0.
<mgrwt>
<rscale>  0 0.12499533E+03</rscale>
<asrwt>0</asrwt>
<pdfrwt beam="1">  1        4 0.11266148E+00 0.12499533E+03</pdfrwt>
<pdfrwt beam="2">  1       -4 0.82058849E-03 0.12499533E+03</pdfrwt>
<totfact> 0.41176932E+03</totfact>
</mgrwt>
</event>
<event>
 5    1  0.3191162E-002  0.1249986E+03  0.7818608E-02  0.1235071E+00
         -4   -1    0    0    0  501 -0.00000000000E+00  0.00000000000E+00  0.11263357793E+02  0.11334731085E+02  0.12700000000E+01 0.  1.
          4   -1    0    0  501    0  0.00000000000E+00 -0.00000000000E+00 -0.34563493954E+03  0.34563727278E+03  0.12700000000E+01 0.  1.
         25    2    1    2    0    0  0.00000000000E+00  0.00000000000E+00 -0.33437158175E+03  0.35697200386E+03  0.12499862743E+03 0.  0.
    9000005    1    3    3    0    0 -0.16002572731E+02 -0.24844039413E+02 -0.32443308051E+03  0.32577773459E+03  0.10000000000E+01 0.  0.
    9000005    1    3    3    0    0  0.16002572731E+02  0.24844039413E+02 -0.99385012434E+01  0.31194269271E+02  0.10000000000E+01 0.  0.
<mgrwt>
<rscale>  0 0.12499863E+03</rscale>
<asrwt>0</asrwt>
<pdfrwt beam="2">  1        4 0.53180268E-01 0.12499863E+03</pdfrwt>
<pdfrwt beam="1">  1       -4 0.17384943E-02 0.12499863E+03</pdfrwt>
<totfact> 0.68966397E+03</totfact>
</mgrwt>
</event>
<event>
 5    1  0.3191162E-002  0.1249983E+03  0.7818608E-02  0.1235072E+00
          4   -1    0    0  501    0  0.00000000000E+00  0.00000000000E+00  0.65956856264E+02  0.65969082063E+02  0.12700000000E+01 0. -1.
         -4   -1    0    0    0  501 -0.00000000000E+00 -0.00000000000E+00 -0.59198205626E+02  0.59211826938E+02  0.12700000000E+01 0. -1.
         25    2    1    2    0    0  0.00000000000E+00  0.00000000000E+00  0.67586506384E+01  0.12518090900E+03  0.12499832247E+03 0.  0.
    9000005    1    3    3    0    0 -0.42522309418E+02  0.30594714080E+02  0.37501985909E+02  0.64432773299E+02  0.10000000000E+01 0.  0.
    9000005    1    3    3    0    0  0.42522309418E+02 -0.30594714080E+02 -0.30743335270E+02  0.60748135703E+02  0.10000000000E+01 0.  0.
<mgrwt>
<rscale>  0 0.12499832E+03</rscale>
<asrwt>0</asrwt>
<pdfrwt beam="1">  1        4 0.10149197E-01 0.12499832E+03</pdfrwt>
<pdfrwt beam="2">  1       -4 0.91094045E-02 0.12499832E+03</pdfrwt>
<totfact> 0.10449331E+04</totfact>
</mgrwt>
</event>
<event>
 5    1  0.3191162E-002  0.1250396E+03  0.7818608E-02  0.1235007E+00
          4   -1    0    0  501    0  0.00000000000E+00  0.00000000000E+00  0.97478638033E+02  0.97486910776E+02  0.12700000000E+01 0. -1.
         -4   -1    0    0    0  501 -0.00000000000E+00 -0.00000000000E+00 -0.40078256815E+02  0.40098373649E+02  0.12700000000E+01 0. -1.
         25    2    1    2    0    0  0.00000000000E+00  0.00000000000E+00  0.57400381218E+02  0.13758528443E+03  0.12503962063E+03 0.  0.
    9000005    1    3    3    0    0 -0.15178175140E+02  0.44585053494E+02 -0.16527702015E+02  0.49923630973E+02  0.10000000000E+01 0.  0.
    9000005    1    3    3    0    0  0.15178175140E+02 -0.44585053494E+02  0.73928083232E+02  0.87661653453E+02  0.10000000000E+01 0.  0.
<mgrwt>
<rscale>  0 0.12503962E+03</rscale>
<asrwt>0</asrwt>
<pdfrwt beam="1">  1        4 0.14998897E-01 0.12503962E+03</pdfrwt>
<pdfrwt beam="2">  1       -4 0.61680695E-02 0.12503962E+03</pdfrwt>
<totfact> 0.10174771E+04</totfact>
</mgrwt>
</event>
<event>
 5    1  0.3191162E-002  0.1249990E+03  0.7818608E-02  0.1235071E+00
         -4   -1    0    0    0  501 -0.00000000000E+00  0.00000000000E+00  0.77505979190E+01  0.78539587535E+01  0.12700000000E+01 0.  1.
          4   -1    0    0  501    0  0.00000000000E+00 -0.00000000000E+00 -0.50054279194E+03  0.50054440309E+03  0.12700000000E+01 0.  1.
         25    2    1    2    0    0  0.00000000000E+00  0.00000000000E+00 -0.49279219402E+03  0.50839836184E+03  0.12499899134E+03 0.  0.
    9000005    1    3    3    0    0 -0.59475812042E+02  0.16732752442E+02 -0.28451307172E+03  0.29114608911E+03  0.10000000000E+01 0.  0.
    9000005    1    3    3    0    0  0.59475812042E+02 -0.16732752442E+02 -0.20827912230E+03  0.21725227273E+03  0.10000000000E+01 0.  0.
<mgrwt>
<rscale>  0 0.12499899E+03</rscale>
<asrwt>0</asrwt>
<pdfrwt beam="2">  1        4 0.77014633E-01 0.12499899E+03</pdfrwt>
<pdfrwt beam="1">  1       -4 0.12004748E-02 0.12499899E+03</pdfrwt>
<totfact> 0.55219830E+03</totfact>
</mgrwt>
</event>
<event>
 5    1  0.3191162E-002  0.1250071E+03  0.7818608E-02  0.1235058E+00
          4   -1    0    0  501    0  0.00000000000E+00  0.00000000000E+00  0.18748410371E+03  0.18748840510E+03  0.12700000000E+01 0. -1.
         -4   -1    0    0    0  501 -0.00000000000E+00 -0.00000000000E+00 -0.20813572365E+02  0.20852282719E+02  0.12700000000E+01 0. -1.
         25    2    1    2    0    0  0.00000000000E+00  0.00000000000E+00  0.16667053135E+03  0.20834068781E+03  0.12500710451E+03 0.  0.
    9000005    1    3    3    0    0 -0.31211003913E+02 -0.24979981764E+02  0.32750728298E+01  0.40122965446E+02  0.10000000000E+01 0.  0.
    9000005    1    3    3    0    0  0.31211003913E+02  0.24979981764E+02  0.16339545852E+03  0.16821772237E+03  0.10000000000E+01 0.  0.
<mgrwt>
<rscale>  0 0.12500710E+03</rscale>
<asrwt>0</asrwt>
<pdfrwt beam="1">  1        4 0.28847017E-01 0.12500710E+03</pdfrwt>
<pdfrwt beam="2">  1       -4 0.32053967E-02 0.12500710E+03</pdfrwt>
<totfact> 0.88733490E+03</totfact>
</mgrwt>
</event>
<event>
 5    1  0.3191162E-002  0.1250006E+03  0.7818608E-02  0.1235068E+00
         -4   -1    0    0    0  501 -0.00000000000E+00  0.00000000000E+00  0.14086427447E+03  0.14086999937E+03  0.12700000000E+01 0.  1.
          4   -1    0    0  501    0  0.00000000000E+00 -0.00000000000E+00 -0.27710024254E+02  0.27739112173E+02  0.12700000000E+01 0.  1.
         25    2    1    2    0    0  0.00000000000E+00  0.00000000000E+00  0.11315425021E+03  0.16860911154E+03  0.12500059261E+03 0.  0.
    9000005    1    3    3    0    0 -0.14655213881E+02  0.60361863120E+02  0.65820278907E+02  0.90507673314E+02  0.10000000000E+01 0.  0.
    9000005    1    3    3    0    0  0.14655213881E+02 -0.60361863120E+02  0.47333971308E+02  0.78101438226E+02  0.10000000000E+01 0.  0.
<mgrwt>
<rscale>  0 0.12500059E+03</rscale>
<asrwt>0</asrwt>
<pdfrwt beam="2">  1        4 0.42657585E-02 0.12500059E+03</pdfrwt>
<pdfrwt beam="1">  1       -4 0.21674105E-01 0.12500059E+03</pdfrwt>
<totfact> 0.95706942E+03</totfact>
</mgrwt>
</event>
<event>
 5    1  0.3191162E-002  0.1250168E+03  0.7818608E-02  0.1235043E+00
          4   -1    0    0  501    0  0.00000000000E+00  0.00000000000E+00  0.26119960639E+02  0.26150817268E+02  0.12700000000E+01 0. -1.
         -4   -1    0    0    0  501 -0.00000000000E+00 -0.00000000000E+00 -0.14946866641E+03  0.14947406176E+03  0.12700000000E+01 0. -1.
         25    2    1    2    0    0  0.00000000000E+00  0.00000000000E+00 -0.12334870577E+03  0.17562487903E+03  0.12501677854E+03 0.  0.
    9000005    1    3    3    0    0 -0.30836656536E+02 -0.52034415918E+02 -0.83789251344E+02  0.10334465863E+03  0.10000000000E+01 0.  0.
    9000005    1    3    3    0    0  0.30836656536E+02  0.52034415918E+02 -0.39559454427E+02  0.72280220398E+02  0.10000000000E+01 0.  0.
<mgrwt>
<rscale>  0 0.12501678E+03</rscale>
<asrwt>0</asrwt>
<pdfrwt beam="1">  1        4 0.40212442E-02 0.12501678E+03</pdfrwt>
<pdfrwt beam="2">  1       -4 0.22997968E-01 0.12501678E+03</pdfrwt>
<totfact> 0.94374995E+03</totfact>
</mgrwt>
</event>
<event>
 5    1  0.3191162E-002  0.1250033E+03  0.7818608E-02  0.1235064E+00
          4   -1    0    0  501    0  0.00000000000E+00  0.00000000000E+00  0.22859058686E+03  0.22859411476E+03  0.12700000000E+01 0. -1.
         -4   -1    0    0    0  501 -0.00000000000E+00 -0.00000000000E+00 -0.17062050780E+02  0.17109251205E+02  0.12700000000E+01 0. -1.
         25    2    1    2    0    0  0.00000000000E+00  0.00000000000E+00  0.21152853608E+03  0.24570336596E+03  0.12500328983E+03 0.  0.
    9000005    1    3    3    0    0  0.39422237726E+02 -0.33707507807E+02  0.17428216433E+03  0.18183943938E+03  0.10000000000E+01 0.  0.
    9000005    1    3    3    0    0 -0.39422237726E+02  0.33707507807E+02  0.37246371748E+02  0.63863926581E+02  0.10000000000E+01 0.  0.
<mgrwt>
<rscale>  0 0.12500329E+03</rscale>
<asrwt>0</asrwt>
<pdfrwt beam="1">  1        4 0.35171683E-01 0.12500329E+03</pdfrwt>
<pdfrwt beam="2">  1       -4 0.26288332E-02 0.12500329E+03</pdfrwt>
<totfact> 0.82949137E+03</totfact>
</mgrwt>
</event>
<event>
 5    1  0.3191162E-002  0.1250079E+03  0.7818608E-02  0.1235057E+00
         -4   -1    0    0    0  501 -0.00000000000E+00  0.00000000000E+00  0.58280129252E+03  0.58280267627E+03  0.12700000000E+01 0.  1.
          4   -1    0    0  501    0  0.00000000000E+00 -0.00000000000E+00 -0.66418349493E+01  0.67621647047E+01  0.12700000000E+01 0.  1.
         25    2    1    2    0    0  0.00000000000E+00  0.00000000000E+00  0.57615945758E+03  0.58956484098E+03  0.12500792439E+03 0.  0.
    9000005    1    3    3    0    0 -0.58582537167E+02 -0.72699248183E+01  0.38484614838E+03  0.38934858853E+03  0.10000000000E+01 0.  0.
    9000005    1    3    3    0    0  0.58582537167E+02  0.72699248183E+01  0.19131330919E+03  0.20021625244E+03  0.10000000000E+01 0.  0.
<mgrwt>
<rscale>  0 0.12500792E+03</rscale>
<asrwt>0</asrwt>
<pdfrwt beam="2">  1        4 0.10311835E-02 0.12500792E+03</pdfrwt>
<pdfrwt beam="1">  1       -4 0.89671084E-01 0.12500792E+03</pdfrwt>
<totfact> 0.49524401E+03</totfact>
</mgrwt>
</event>
<event>
 5    1  0.3191162E-002  0.1250003E+03  0.7818608E-02  0.1235069E+00
         -4   -1    0    0    0  501 -0.00000000000E+00  0.00000000000E+00  0.21023890208E+03  0.21024273792E+03  0.12700000000E+01 0.  1.
          4   -1    0    0  501    0  0.00000000000E+00 -0.00000000000E+00 -0.18554431459E+02  0.18597844681E+02  0.12700000000E+01 0.  1.
         25    2    1    2    0    0  0.00000000000E+00  0.00000000000E+00  0.19168447062E+03  0.22884058260E+03  0.12500030387E+03 0.  0.
    9000005    1    3    3    0    0  0.26847569978E+02 -0.39447082432E+02  0.21966274023E+02  0.52539333081E+02  0.10000000000E+01 0.  0.
    9000005    1    3    3    0    0 -0.26847569978E+02  0.39447082432E+02  0.16971819660E+03  0.17630124952E+03  0.10000000000E+01 0.  0.
<mgrwt>
<rscale>  0 0.12500030E+03</rscale>
<asrwt>0</asrwt>
<pdfrwt beam="2">  1        4 0.28581626E-02 0.12500030E+03</pdfrwt>
<pdfrwt beam="1">  1       -4 0.32348079E-01 0.12500030E+03</pdfrwt>
<totfact> 0.85487366E+03</totfact>
</mgrwt>
</event>
<event>
 5    1  0.3191162E-002  0.1249990E+03  0.7818608E-02  0.1235071E+00
         -4   -1    0    0    0  501 -0.00000000000E+00  0.00000000000E+00  0.39431900284E+03  0.39432104800E+03  0.12700000000E+01 0. -1.
          4   -1    0    0  501    0  0.00000000000E+00 -0.00000000000E+00 -0.98633705437E+01  0.99447965531E+01  0.12700000000E+01 0. -1.
         25    2    1    2    0    0  0.00000000000E+00  0.00000000000E+00  0.38445563229E+03  0.40426584455E+03  0.12499895949E+03 0.  0.
    9000005    1    3    3    0    0 -0.37424453757E+01  0.41447187021E+02  0.41455548217E+02  0.58748937755E+02  0.10000000000E+01 0.  0.
    9000005    1    3    3    0    0  0.37424453757E+01 -0.41447187021E+02  0.34300008407E+03  0.34551690680E+03  0.10000000000E+01 0.  0.
<mgrwt>
<rscale>  0 0.12499896E+03</rscale>
<asrwt>0</asrwt>
<pdfrwt beam="2">  1        4 0.15238625E-02 0.12499896E+03</pdfrwt>
<pdfrwt beam="1">  1       -4 0.60670880E-01 0.12499896E+03</pdfrwt>
<totfact> 0.64141475E+03</totfact>
</mgrwt>
</event>
<event>
 5    1  0.3191162E-002  0.1250000E+03  0.7818608E-02  0.1235069E+00
          4   -1    0    0  501    0  0.00000000000E+00  0.00000000000E+00  0.10555439909E+03  0.10556203895E+03  0.12700000000E+01 0. -1.
         -4   -1    0    0    0  501 -0.00000000000E+00 -0.00000000000E+00 -0.36987096257E+02  0.37008893384E+02  0.12700000000E+01 0. -1.
         25    2    1    2    0    0  0.00000000000E+00  0.00000000000E+00  0.68567302831E+02  0.14257093233E+03  0.12499998291E+03 0.  0.
    9000005    1    3    3    0    0  0.15252960058E+02  0.14524373635E+02 -0.32822434032E+02  0.39011823795E+02  0.10000000000E+01 0.  0.
    9000005    1    3    3    0    0 -0.15252960058E+02 -0.14524373635E+02  0.10138973686E+03  0.10355910854E+03  0.10000000000E+01 0.  0.
<mgrwt>
<rscale>  0 0.12499998E+03</rscale>
<asrwt>0</asrwt>
<pdfrwt beam="1">  1        4 0.16241402E-01 0.12499998E+03</pdfrwt>
<pdfrwt beam="2">  1       -4 0.56925870E-02 0.12499998E+03</pdfrwt>
<totfact> 0.10080581E+04</totfact>
</mgrwt>
</event>
<event>
 5    1  0.3191162E-002  0.1250012E+03  0.7818608E-02  0.1235067E+00
         -4   -1    0    0    0  501 -0.00000000000E+00  0.00000000000E+00  0.11116329507E+03  0.11117054948E+03  0.12700000000E+01 0.  1.
          4   -1    0    0  501    0  0.00000000000E+00 -0.00000000000E+00 -0.35120559782E+02  0.35143514614E+02  0.12700000000E+01 0.  1.
         25    2    1    2    0    0  0.00000000000E+00  0.00000000000E+00  0.76042735292E+02  0.14631406409E+03  0.12500123104E+03 0.  0.
    9000005    1    3    3    0    0  0.46493737127E+02  0.34667269068E+02  0.65267648950E+02  0.87317541973E+02  0.10000000000E+01 0.  0.
    9000005    1    3    3    0    0 -0.46493737127E+02 -0.34667269068E+02  0.10775086342E+02  0.58996522121E+02  0.10000000000E+01 0.  0.
<mgrwt>
<rscale>  0 0.12500123E+03</rscale>
<asrwt>0</asrwt>
<pdfrwt beam="2">  1        4 0.54054869E-02 0.12500123E+03</pdfrwt>
<pdfrwt beam="1">  1       -4 0.17104369E-01 0.12500123E+03</pdfrwt>
<totfact> 0.10004080E+04</totfact>
</mgrwt>
</event>
<event>
 5    1  0.3191162E-002  0.1250010E+03  0.7818608E-02  0.1235068E+00
         -4   -1    0    0    0  501 -0.00000000000E+00  0.00000000000E+00  0.20016507898E+02  0.20056756678E+02  0.12700000000E+01 0. -1.
          4   -1    0    0  501    0  0.00000000000E+00 -0.00000000000E+00 -0.19491617126E+03  0.19492030863E+03  0.12700000000E+01 0. -1.
         25    2    1    2    0    0  0.00000000000E+00  0.00000000000E+00 -0.17489966336E+03  0.21497706531E+03  0.12500098546E+03 0.  0.
    9000005    1    3    3    0    0  0.55884704019E+02  0.35272467026E+01 -0.13516529860E+03  0.14630857650E+03  0.10000000000E+01 0.  0.
    9000005    1    3    3    0    0 -0.55884704019E+02 -0.35272467026E+01 -0.39734364762E+02  0.68668488811E+02  0.10000000000E+01 0.  0.
<mgrwt>
<rscale>  0 0.12500099E+03</rscale>
<asrwt>0</asrwt>
<pdfrwt beam="2">  1        4 0.29990516E-01 0.12500099E+03</pdfrwt>
<pdfrwt beam="1">  1       -4 0.30828772E-02 0.12500099E+03</pdfrwt>
<totfact> 0.87667527E+03</totfact>
</mgrwt>
</event>
<event>
 5    1  0.3191162E-002  0.1250092E+03  0.7818608E-02  0.1235055E+00
         -4   -1    0    0    0  501 -0.00000000000E+00  0.00000000000E+00  0.10769250270E+02  0.10843876215E+02  0.12700000000E+01 0. -1.
          4   -1    0    0  501    0  0.00000000000E+00 -0.00000000000E+00 -0.36144785137E+03  0.36145008253E+03  0.12700000000E+01 0. -1.
         25    2    1    2    0    0  0.00000000000E+00  0.00000000000E+00 -0.35067860110E+03  0.37229395874E+03  0.12500924145E+03 0.  0.
    9000005    1    3    3    0    0  0.31896843277E+02 -0.22716464718E+02 -0.32039543797E+03  0.32278116899E+03  0.10000000000E+01 0.  0.
    9000005    1    3    3    0    0 -0.31896843277E+02  0.22716464718E+02 -0.30283163129E+02  0.49512789756E+02  0.10000000000E+01 0.  0.
<mgrwt>
<rscale>  0 0.12500924E+03</rscale>
<asrwt>0</asrwt>
<pdfrwt beam="2">  1        4 0.55613265E-01 0.12500924E+03</pdfrwt>
<pdfrwt beam="1">  1       -4 0.16627201E-02 0.12500924E+03</pdfrwt>
<totfact> 0.67325876E+03</totfact>
</mgrwt>
</event>
<event>
 5    1  0.3191162E-002  0.1249975E+03  0.7818608E-02  0.1235073E+00
          4   -1    0    0  501    0  0.00000000000E+00  0.00000000000E+00  0.24782971109E+04  0.24782974363E+04  0.12700000000E+01 0. -1.
         -4   -1    0    0    0  501 -0.00000000000E+00 -0.00000000000E+00 -0.13199084925E+01  0.18316818579E+01  0.12700000000E+01 0. -1.
         25    2    1    2    0    0  0.00000000000E+00  0.00000000000E+00  0.24769772025E+04  0.24801291182E+04  0.12499752602E+03 0.  0.
    9000005    1    3    3    0    0 -0.12622069878E+02  0.33194158625E+01  0.24510513869E+04  0.24510863380E+04  0.10000000000E+01 0.  0.
    9000005    1    3    3    0    0  0.12622069878E+02 -0.33194158625E+01  0.25925815601E+02  0.29042780243E+02  0.10000000000E+01 0.  0.
<mgrwt>
<rscale>  0 0.12499753E+03</rscale>
<asrwt>0</asrwt>
<pdfrwt beam="1">  1        4 0.38131260E+00 0.12499753E+03</pdfrwt>
<pdfrwt beam="2">  1       -4 0.24245714E-03 0.12499753E+03</pdfrwt>
<totfact> 0.48277908E+02</totfact>
</mgrwt>
</event>
<event>
 5    1  0.3191162E-002  0.1249995E+03  0.7818608E-02  0.1235070E+00
         -4   -1    0    0    0  501 -0.00000000000E+00  0.00000000000E+00  0.48120707826E+03  0.48120875415E+03  0.12700000000E+01 0. -1.
          4   -1    0    0  501    0  0.00000000000E+00 -0.00000000000E+00 -0.80661735061E+01  0.81655407065E+01  0.12700000000E+01 0. -1.
         25    2    1    2    0    0  0.00000000000E+00  0.00000000000E+00  0.47314090476E+03  0.48937429486E+03  0.12499953885E+03 0.  0.
    9000005    1    3    3    0    0 -0.13106577346E+01 -0.11616012496E+02  0.47690772518E+03  0.47705201803E+03  0.10000000000E+01 0.  0.
    9000005    1    3    3    0    0  0.13106577346E+01  0.11616012496E+02 -0.37668204254E+01  0.12322276824E+02  0.10000000000E+01 0.  0.
<mgrwt>
<rscale>  0 0.12499954E+03</rscale>
<asrwt>0</asrwt>
<pdfrwt beam="2">  1        4 0.12487222E-02 0.12499954E+03</pdfrwt>
<pdfrwt beam="1">  1       -4 0.74039635E-01 0.12499954E+03</pdfrwt>
<totfact> 0.56698890E+03</totfact>
</mgrwt>
</event>
<event>
 5    1  0.3191162E-002  0.1249978E+03  0.7818608E-02  0.1235073E+00
          4   -1    0    0  501    0  0.00000000000E+00  0.00000000000E+00  0.43543965368E+03  0.43544150571E+03  0.12700000000E+01 0. -1.
         -4   -1    0    0    0  501 -0.00000000000E+00 -0.00000000000E+00 -0.89236711922E+01  0.90135901585E+01  0.12700000000E+01 0. -1.
         25    2    1    2    0    0  0.00000000000E+00  0.00000000000E+00  0.42651598248E+03  0.44445509587E+03  0.12499779569E+03 0.  0.
    9000005    1    3    3    0    0 -0.22781917277E+02  0.15633887430E+02  0.13958415683E+02  0.30972109378E+02  0.10000000000E+01 0.  0.
    9000005    1    3    3    0    0  0.22781917277E+02 -0.15633887430E+02  0.41255756680E+03  0.41348298649E+03  0.10000000000E+01 0.  0.
<mgrwt>
<rscale>  0 0.12499780E+03</rscale>
<asrwt>0</asrwt>
<pdfrwt beam="1">  1        4 0.66997738E-01 0.12499780E+03</pdfrwt>
<pdfrwt beam="2">  1       -4 0.13799326E-02 0.12499780E+03</pdfrwt>
<totfact> 0.60450132E+03</totfact>
</mgrwt>
</event>
<event>
 5    1  0.3191162E-002  0.1249629E+03  0.7818608E-02  0.1235127E+00
         -4   -1    0    0    0  501 -0.00000000000E+00  0.00000000000E+00  0.49139543393E+02  0.49155952079E+02  0.12700000000E+01 0.  1.
          4   -1    0    0  501    0  0.00000000000E+00 -0.00000000000E+00 -0.79411053362E+02  0.79421208100E+02  0.12700000000E+01 0.  1.
         25    2    1    2    0    0  0.00000000000E+00  0.00000000000E+00 -0.30271509970E+02  0.12857716018E+03  0.12496288171E+03 0.  0.
    9000005    1    3    3    0    0 -0.51157835697E+02 -0.34572852005E+02 -0.53461503995E+01  0.61983768626E+02  0.10000000000E+01 0.  0.
    9000005    1    3    3    0    0  0.51157835697E+02  0.34572852005E+02 -0.24925359570E+02  0.66593391554E+02  0.10000000000E+01 0.  0.
<mgrwt>
<rscale>  0 0.12496288E+03</rscale>
<asrwt>0</asrwt>
<pdfrwt beam="2">  1        4 0.12219128E-01 0.12496288E+03</pdfrwt>
<pdfrwt beam="1">  1       -4 0.75619731E-02 0.12496288E+03</pdfrwt>
<totfact> 0.10383740E+04</totfact>
</mgrwt>
</event>
<event>
 5    1  0.3191162E-002  0.1250057E+03  0.7818608E-02  0.1235060E+00
         -4   -1    0    0    0  501 -0.00000000000E+00  0.00000000000E+00  0.16767297162E+03  0.16767778121E+03  0.12700000000E+01 0. -1.
          4   -1    0    0  501    0  0.00000000000E+00 -0.00000000000E+00 -0.23276492939E+02  0.23311113735E+02  0.12700000000E+01 0. -1.
         25    2    1    2    0    0  0.00000000000E+00  0.00000000000E+00  0.14439647868E+03  0.19098889494E+03  0.12500565962E+03 0.  0.
    9000005    1    3    3    0    0  0.51137455371E+02 -0.17186635222E+02  0.12039636216E+03  0.13193446780E+03  0.10000000000E+01 0.  0.
    9000005    1    3    3    0    0 -0.51137455371E+02  0.17186635222E+02  0.24000116512E+02  0.59054427138E+02  0.10000000000E+01 0.  0.
<mgrwt>
<rscale>  0 0.12500566E+03</rscale>
<asrwt>0</asrwt>
<pdfrwt beam="2">  1        4 0.35840319E-02 0.12500566E+03</pdfrwt>
<pdfrwt beam="1">  1       -4 0.25798876E-01 0.12500566E+03</pdfrwt>
<totfact> 0.91663913E+03</totfact>
</mgrwt>
</event>
<event>
 5    1  0.3191162E-002  0.1249963E+03  0.7818608E-02  0.1235075E+00
         -4   -1    0    0    0  501 -0.00000000000E+00  0.00000000000E+00  0.52205931662E+02  0.52221376855E+02  0.12700000000E+01 0. -1.
          4   -1    0    0  501    0  0.00000000000E+00 -0.00000000000E+00 -0.74787586964E+02  0.74798369393E+02  0.12700000000E+01 0. -1.
         25    2    1    2    0    0  0.00000000000E+00  0.00000000000E+00 -0.22581655302E+02  0.12701974625E+03  0.12499633907E+03 0.  0.
    9000005    1    3    3    0    0  0.48786495862E+02  0.49417686334E+00  0.28388080296E+02  0.56455730375E+02  0.10000000000E+01 0.  0.
    9000005    1    3    3    0    0 -0.48786495862E+02 -0.49417686334E+00 -0.50969735598E+02  0.70564015874E+02  0.10000000000E+01 0.  0.
<mgrwt>
<rscale>  0 0.12499634E+03</rscale>
<asrwt>0</asrwt>
<pdfrwt beam="2">  1        4 0.11507800E-01 0.12499634E+03</pdfrwt>
<pdfrwt beam="1">  1       -4 0.80336993E-02 0.12499634E+03</pdfrwt>
<totfact> 0.10409577E+04</totfact>
</mgrwt>
</event>
<event>
 5    1  0.3191162E-002  0.1250016E+03  0.7818608E-02  0.1235067E+00
         -4   -1    0    0    0  501 -0.00000000000E+00  0.00000000000E+00  0.29757384502E+03  0.29757655509E+03  0.12700000000E+01 0.  1.
          4   -1    0    0  501    0  0.00000000000E+00 -0.00000000000E+00 -0.13093843776E+02  0.13155289614E+02  0.12700000000E+01 0.  1.
         25    2    1    2    0    0  0.00000000000E+00  0.00000000000E+00  0.28448000125E+03  0.31073184471E+03  0.12500163281E+03 0.  0.
    9000005    1    3    3    0    0  0.21204231359E+02 -0.54461546136E+02  0.19724763728E+03  0.20572629839E+03  0.10000000000E+01 0.  0.
    9000005    1    3    3    0    0 -0.21204231359E+02  0.54461546136E+02  0.87232363964E+02  0.10500554632E+03  0.10000000000E+01 0.  0.
<mgrwt>
<rscale>  0 0.12500163E+03</rscale>
<asrwt>0</asrwt>
<pdfrwt beam="2">  1        4 0.20193726E-02 0.12500163E+03</pdfrwt>
<pdfrwt beam="1">  1       -4 0.45785525E-01 0.12500163E+03</pdfrwt>
<totfact> 0.74269387E+03</totfact>
</mgrwt>
</event>
<event>
 5    1  0.3191162E-002  0.1249993E+03  0.7818608E-02  0.1235070E+00
          4   -1    0    0  501    0  0.00000000000E+00  0.00000000000E+00  0.31613150949E+02  0.31638650618E+02  0.12700000000E+01 0.  1.
         -4   -1    0    0    0  501 -0.00000000000E+00 -0.00000000000E+00 -0.12348405563E+03  0.12349058626E+03  0.12700000000E+01 0.  1.
         25    2    1    2    0    0  0.00000000000E+00  0.00000000000E+00 -0.91870904685E+02  0.15512923688E+03  0.12499926803E+03 0.  0.
    9000005    1    3    3    0    0 -0.36243320663E+02 -0.42049544267E+02 -0.10322505519E+02  0.56473857544E+02  0.10000000000E+01 0.  0.
    9000005    1    3    3    0    0  0.36243320663E+02  0.42049544267E+02 -0.81548399167E+02  0.98655379338E+02  0.10000000000E+01 0.  0.
<mgrwt>
<rscale>  0 0.12499927E+03</rscale>
<asrwt>0</asrwt>
<pdfrwt beam="1">  1        4 0.48660256E-02 0.12499927E+03</pdfrwt>
<pdfrwt beam="2">  1       -4 0.19000011E-01 0.12499927E+03</pdfrwt>
<totfact> 0.98291752E+03</totfact>
</mgrwt>
</event>
<event>
 5    1  0.3191162E-002  0.1249995E+03  0.7818608E-02  0.1235070E+00
          4   -1    0    0  501    0  0.00000000000E+00  0.00000000000E+00  0.38413322435E+03  0.38413532375E+03  0.12700000000E+01 0.  1.
         -4   -1    0    0    0  501 -0.00000000000E+00 -0.00000000000E+00 -0.10127121903E+02  0.10206443947E+02  0.12700000000E+01 0.  1.
         25    2    1    2    0    0  0.00000000000E+00  0.00000000000E+00  0.37400610245E+03  0.39434176769E+03  0.12499946032E+03 0.  0.
    9000005    1    3    3    0    0  0.18814556813E+01  0.37586204867E+02  0.29614535042E+02  0.47898678035E+02  0.10000000000E+01 0.  0.
    9000005    1    3    3    0    0 -0.18814556813E+01 -0.37586204867E+02  0.34439156741E+03  0.34644308966E+03  0.10000000000E+01 0.  0.
<mgrwt>
<rscale>  0 0.12499946E+03</rscale>
<asrwt>0</asrwt>
<pdfrwt beam="1">  1        4 0.59103668E-01 0.12499946E+03</pdfrwt>
<pdfrwt beam="2">  1       -4 0.15642823E-02 0.12499946E+03</pdfrwt>
<totfact> 0.65107630E+03</totfact>
</mgrwt>
</event>
<event>
 5    1  0.3191162E-002  0.1250004E+03  0.7818608E-02  0.1235069E+00
          4   -1    0    0  501    0  0.00000000000E+00  0.00000000000E+00  0.15719939117E+02  0.15771156769E+02  0.12700000000E+01 0. -1.
         -4   -1    0    0    0  501 -0.00000000000E+00 -0.00000000000E+00 -0.24803489726E+03  0.24803814860E+03  0.12700000000E+01 0. -1.
         25    2    1    2    0    0  0.00000000000E+00  0.00000000000E+00 -0.23231495814E+03  0.26380930537E+03  0.12500043928E+03 0.  0.
    9000005    1    3    3    0    0  0.10745939979E+02 -0.58334230803E+02 -0.15767094731E+03  0.16846211840E+03  0.10000000000E+01 0.  0.
    9000005    1    3    3    0    0 -0.10745939979E+02  0.58334230803E+02 -0.74644010832E+02  0.95347186967E+02  0.10000000000E+01 0.  0.
<mgrwt>
<rscale>  0 0.12500044E+03</rscale>
<asrwt>0</asrwt>
<pdfrwt beam="1">  1        4 0.24226423E-02 0.12500044E+03</pdfrwt>
<pdfrwt beam="2">  1       -4 0.38163402E-01 0.12500044E+03</pdfrwt>
<totfact> 0.80373649E+03</totfact>
</mgrwt>
</event>
<event>
 4    1  0.3191162E-002  0.1250927E+03  0.7818608E-02  0.1234925E+00
          4   -1    0    0  501    0  0.00000000000E+00  0.00000000000E+00  0.16002892864E+02  0.16053207780E+02  0.12700000000E+01 0. -1.
         -4   -1    0    0    0  501 -0.00000000000E+00 -0.00000000000E+00 -0.24402292807E+03  0.24402623286E+03  0.12700000000E+01 0. -1.
    9000005    1    1    2    0    0 -0.15925640809E+02  0.56824545852E+02 -0.70977809609E+02  0.92311995446E+02  0.10000000000E+01 0.  0.
    9000005    1    1    2    0    0  0.15925640809E+02 -0.56824545852E+02 -0.15704222560E+03  0.16776744520E+03  0.10000000000E+01 0.  0.
<mgrwt>
<rscale>  0 0.12509268E+03</rscale>
<asrwt>0</asrwt>
<pdfrwt beam="1">  1        4 0.24661083E-02 0.12509268E+03</pdfrwt>
<pdfrwt beam="2">  1       -4 0.37546111E-01 0.12509268E+03</pdfrwt>
<totfact> 0.80728250E+03</totfact>
</mgrwt>
</event>
<event>
 5    1  0.3191162E-002  0.1249700E+03  0.7818608E-02  0.1235116E+00
         -4   -1    0    0    0  501 -0.00000000000E+00  0.00000000000E+00  0.63471858094E+01  0.64729952649E+01  0.12700000000E+01 0. -1.
          4   -1    0    0  501    0  0.00000000000E+00 -0.00000000000E+00 -0.60897160946E+03  0.60897293374E+03  0.12700000000E+01 0. -1.
         25    2    1    2    0    0  0.00000000000E+00  0.00000000000E+00 -0.60262442365E+03  0.61544592901E+03  0.12496997859E+03 0.  0.
    9000005    1    3    3    0    0  0.10394656425E+02 -0.11844552017E+02 -0.59904713277E+03  0.59925521238E+03  0.10000000000E+01 0.  0.
    9000005    1    3    3    0    0 -0.10394656425E+02  0.11844552017E+02 -0.35772908870E+01  0.16190716623E+02  0.10000000000E+01 0.  0.
<mgrwt>
<rscale>  0 0.12496998E+03</rscale>
<asrwt>0</asrwt>
<pdfrwt beam="2">  1        4 0.93697674E-01 0.12496998E+03</pdfrwt>
<pdfrwt beam="1">  1       -4 0.98627012E-03 0.12496998E+03</pdfrwt>
<totfact> 0.47938468E+03</totfact>
</mgrwt>
</event>
<event>
 5    1  0.3191162E-002  0.1250068E+03  0.7818608E-02  0.1235059E+00
          4   -1    0    0  501    0  0.00000000000E+00  0.00000000000E+00  0.85063608347E+01  0.86006438509E+01  0.12700000000E+01 0. -1.
         -4   -1    0    0    0  501 -0.00000000000E+00 -0.00000000000E+00 -0.45663885693E+03  0.45664062298E+03  0.12700000000E+01 0. -1.
         25    2    1    2    0    0  0.00000000000E+00  0.00000000000E+00 -0.44813249610E+03  0.46524126683E+03  0.12500680905E+03 0.  0.
    9000005    1    3    3    0    0 -0.52204740635E+02  0.34343066717E+02 -0.22054650740E+03  0.22923032763E+03  0.10000000000E+01 0.  0.
    9000005    1    3    3    0    0  0.52204740635E+02 -0.34343066717E+02 -0.22758598869E+03  0.23601093921E+03  0.10000000000E+01 0.  0.
<mgrwt>
<rscale>  0 0.12500681E+03</rscale>
<asrwt>0</asrwt>
<pdfrwt beam="1">  1        4 0.13160596E-02 0.12500681E+03</pdfrwt>
<pdfrwt beam="2">  1       -4 0.70259501E-01 0.12500681E+03</pdfrwt>
<totfact> 0.58657031E+03</totfact>
</mgrwt>
</event>
<event>
 5    1  0.3191162E-002  0.1250029E+03  0.7818608E-02  0.1235065E+00
         -4   -1    0    0    0  501 -0.00000000000E+00  0.00000000000E+00  0.42530823000E+03  0.42531012615E+03  0.12700000000E+01 0.  1.
          4   -1    0    0  501    0  0.00000000000E+00 -0.00000000000E+00 -0.91391143600E+01  0.92269340132E+01  0.12700000000E+01 0.  1.
         25    2    1    2    0    0  0.00000000000E+00  0.00000000000E+00  0.41616911564E+03  0.43453706016E+03  0.12500289534E+03 0.  0.
    9000005    1    3    3    0    0  0.31440410424E+02  0.38625954494E+02  0.76861793508E+02  0.91592571039E+02  0.10000000000E+01 0.  0.
    9000005    1    3    3    0    0 -0.31440410424E+02 -0.38625954494E+02  0.33930732213E+03  0.34294448912E+03  0.10000000000E+01 0.  0.
<mgrwt>
<rscale>  0 0.12500290E+03</rscale>
<asrwt>0</asrwt>
<pdfrwt beam="2">  1        4 0.14129192E-02 0.12500290E+03</pdfrwt>
<pdfrwt beam="1">  1       -4 0.65438920E-01 0.12500290E+03</pdfrwt>
<totfact> 0.61322971E+03</totfact>
</mgrwt>
</event>
<event>
 5    1  0.3191162E-002  0.1250030E+03  0.7818608E-02  0.1235065E+00
         -4   -1    0    0    0  501 -0.00000000000E+00  0.00000000000E+00  0.34868129306E+03  0.34868360591E+03  0.12700000000E+01 0.  1.
          4   -1    0    0  501    0  0.00000000000E+00 -0.00000000000E+00 -0.11165112568E+02  0.11237109889E+02  0.12700000000E+01 0.  1.
         25    2    1    2    0    0  0.00000000000E+00  0.00000000000E+00  0.33751618049E+03  0.35992071580E+03  0.12500299823E+03 0.  0.
    9000005    1    3    3    0    0 -0.33494169640E+02  0.50232909715E+02  0.12231004847E+03  0.13640363842E+03  0.10000000000E+01 0.  0.
    9000005    1    3    3    0    0  0.33494169640E+02 -0.50232909715E+02  0.21520613202E+03  0.22351707737E+03  0.10000000000E+01 0.  0.
<mgrwt>
<rscale>  0 0.12500300E+03</rscale>
<asrwt>0</asrwt>
<pdfrwt beam="2">  1        4 0.17234258E-02 0.12500300E+03</pdfrwt>
<pdfrwt beam="1">  1       -4 0.53648993E-01 0.12500300E+03</pdfrwt>
<totfact> 0.68642215E+03</totfact>
</mgrwt>
</event>
<event>
 5    1  0.3191162E-002  0.1249991E+03  0.7818608E-02  0.1235071E+00
          4   -1    0    0  501    0  0.00000000000E+00  0.00000000000E+00  0.52172003067E+02  0.52187458302E+02  0.12700000000E+01 0. -1.
         -4   -1    0    0    0  501 -0.00000000000E+00 -0.00000000000E+00 -0.74839531990E+02  0.74850306936E+02  0.12700000000E+01 0. -1.
         25    2    1    2    0    0  0.00000000000E+00  0.00000000000E+00 -0.22667528923E+02  0.12703776524E+03  0.12499910771E+03 0.  0.
    9000005    1    3    3    0    0 -0.72097516826E+01  0.60652237838E+02 -0.24759813642E+02  0.65914511647E+02  0.10000000000E+01 0.  0.
    9000005    1    3    3    0    0  0.72097516826E+01 -0.60652237838E+02  0.20922847187E+01  0.61123253590E+02  0.10000000000E+01 0.  0.
<mgrwt>
<rscale>  0 0.12499911E+03</rscale>
<asrwt>0</asrwt>
<pdfrwt beam="1">  1        4 0.80284798E-02 0.12499911E+03</pdfrwt>
<pdfrwt beam="2">  1       -4 0.11515792E-01 0.12499911E+03</pdfrwt>
<totfact> 0.10408535E+04</totfact>
</mgrwt>
</event>
<event>
 5    1  0.3191162E-002  0.1249940E+03  0.7818608E-02  0.1235079E+00
         -4   -1    0    0    0  501 -0.00000000000E+00  0.00000000000E+00  0.63376918379E+02  0.63389641766E+02  0.12700000000E+01 0. -1.
          4   -1    0    0  501    0  0.00000000000E+00 -0.00000000000E+00 -0.61603844656E+02  0.61616934169E+02  0.12700000000E+01 0. -1.
         25    2    1    2    0    0  0.00000000000E+00  0.00000000000E+00  0.17730737234E+01  0.12500657593E+03  0.12499400080E+03 0.  0.
    9000005    1    3    3    0    0 -0.41992974694E+02 -0.40848535051E+02 -0.20861048520E+02  0.62194823617E+02  0.10000000000E+01 0.  0.
    9000005    1    3    3    0    0  0.41992974694E+02  0.40848535051E+02  0.22634122243E+02  0.62811752317E+02  0.10000000000E+01 0.  0.
<mgrwt>
<rscale>  0 0.12499400E+03</rscale>
<asrwt>0</asrwt>
<pdfrwt beam="2">  1        4 0.94795001E-02 0.12499400E+03</pdfrwt>
<pdfrwt beam="1">  1       -4 0.97522808E-02 0.12499400E+03</pdfrwt>
<totfact> 0.10454137E+04</totfact>
</mgrwt>
</event>
<event>
 5    1  0.3191162E-002  0.1249998E+03  0.7818608E-02  0.1235070E+00
          4   -1    0    0  501    0  0.00000000000E+00  0.00000000000E+00  0.61175794065E+02  0.61188975146E+02  0.12700000000E+01 0.  1.
         -4   -1    0    0    0  501 -0.00000000000E+00 -0.00000000000E+00 -0.63826253723E+02  0.63838887555E+02  0.12700000000E+01 0.  1.
         25    2    1    2    0    0  0.00000000000E+00  0.00000000000E+00 -0.26504596584E+01  0.12502786270E+03  0.12499976606E+03 0.  0.
    9000005    1    3    3    0    0  0.26485722892E+01 -0.22146431696E+01  0.61085235838E+02  0.61190894886E+02  0.10000000000E+01 0.  0.
    9000005    1    3    3    0    0 -0.26485722892E+01  0.22146431696E+01 -0.63735695496E+02  0.63836967816E+02  0.10000000000E+01 0.  0.
<mgrwt>
<rscale>  0 0.12499977E+03</rscale>
<asrwt>0</asrwt>
<pdfrwt beam="1">  1        4 0.94136464E-02 0.12499977E+03</pdfrwt>
<pdfrwt beam="2">  1       -4 0.98214094E-02 0.12499977E+03</pdfrwt>
<totfact> 0.10452313E+04</totfact>
</mgrwt>
</event>
<event>
 5    1  0.3191162E-002  0.1249991E+03  0.7818608E-02  0.1235071E+00
         -4   -1    0    0    0  501 -0.00000000000E+00  0.00000000000E+00  0.26851175784E+01  0.29703125104E+01  0.12700000000E+01 0.  1.
          4   -1    0    0  501    0  0.00000000000E+00 -0.00000000000E+00 -0.13811107314E+04  0.13811113153E+04  0.12700000000E+01 0.  1.
         25    2    1    2    0    0  0.00000000000E+00  0.00000000000E+00 -0.13784256138E+04  0.13840816278E+04  0.12499911856E+03 0.  0.
    9000005    1    3    3    0    0 -0.14336850763E+02  0.47696239299E+02 -0.11071579344E+04  0.11082780194E+04  0.10000000000E+01 0.  0.
    9000005    1    3    3    0    0  0.14336850763E+02 -0.47696239299E+02 -0.27126767944E+03  0.27580360847E+03  0.10000000000E+01 0.  0.
<mgrwt>
<rscale>  0 0.12499912E+03</rscale>
<asrwt>0</asrwt>
<pdfrwt beam="2">  1        4 0.21250002E+00 0.12499912E+03</pdfrwt>
<pdfrwt beam="1">  1       -4 0.43507910E-03 0.12499912E+03</pdfrwt>
<totfact> 0.20325585E+03</totfact>
</mgrwt>
</event>
<event>
 5    1  0.3191162E-002  0.1250240E+03  0.7818608E-02  0.1235032E+00
          4   -1    0    0  501    0  0.00000000000E+00  0.00000000000E+00  0.10288333522E+03  0.10289117342E+03  0.12700000000E+01 0. -1.
         -4   -1    0    0    0  501 -0.00000000000E+00 -0.00000000000E+00 -0.37962423611E+02  0.37983661045E+02  0.12700000000E+01 0. -1.
         25    2    1    2    0    0  0.00000000000E+00  0.00000000000E+00  0.64920911614E+02  0.14087483446E+03  0.12502397458E+03 0.  0.
    9000005    1    3    3    0    0  0.57252451988E+02  0.11466038968E+02  0.57591376222E+02  0.82018777871E+02  0.10000000000E+01 0.  0.
    9000005    1    3    3    0    0 -0.57252451988E+02 -0.11466038968E+02  0.73295353916E+01  0.58856056590E+02  0.10000000000E+01 0.  0.
<mgrwt>
<rscale>  0 0.12502397E+03</rscale>
<asrwt>0</asrwt>
<pdfrwt beam="1">  1        4 0.15830442E-01 0.12502397E+03</pdfrwt>
<pdfrwt beam="2">  1       -4 0.58426096E-02 0.12502397E+03</pdfrwt>
<totfact> 0.10110025E+04</totfact>
</mgrwt>
</event>
<event>
 5    1  0.3191162E-002  0.1249984E+03  0.7818608E-02  0.1235072E+00
          4   -1    0    0  501    0  0.00000000000E+00  0.00000000000E+00  0.12186992445E+02  0.12252986773E+02  0.12700000000E+01 0. -1.
         -4   -1    0    0    0  501 -0.00000000000E+00 -0.00000000000E+00 -0.31958501171E+03  0.31958753513E+03  0.12700000000E+01 0. -1.
         25    2    1    2    0    0  0.00000000000E+00  0.00000000000E+00 -0.30739801927E+03  0.33184052190E+03  0.12499835890E+03 0.  0.
    9000005    1    3    3    0    0  0.32195639400E+01  0.59685083719E+02 -0.20210543919E+03  0.21076119984E+03  0.10000000000E+01 0.  0.
    9000005    1    3    3    0    0 -0.32195639400E+01 -0.59685083719E+02 -0.10529258008E+03  0.12107932206E+03  0.10000000000E+01 0.  0.
<mgrwt>
<rscale>  0 0.12499836E+03</rscale>
<asrwt>0</asrwt>
<pdfrwt beam="1">  1        4 0.18801928E-02 0.12499836E+03</pdfrwt>
<pdfrwt beam="2">  1       -4 0.49172189E-01 0.12499836E+03</pdfrwt>
<totfact> 0.71772248E+03</totfact>
</mgrwt>
</event>
<event>
 5    1  0.3191162E-002  0.1250001E+03  0.7818608E-02  0.1235069E+00
         -4   -1    0    0    0  501 -0.00000000000E+00  0.00000000000E+00  0.21619678338E+03  0.21620051351E+03  0.12700000000E+01 0.  1.
          4   -1    0    0  501    0  0.00000000000E+00 -0.00000000000E+00 -0.18041864157E+02  0.18086507741E+02  0.12700000000E+01 0.  1.
         25    2    1    2    0    0  0.00000000000E+00  0.00000000000E+00  0.19815491922E+03  0.23428702125E+03  0.12500014526E+03 0.  0.
    9000005    1    3    3    0    0 -0.19086591175E+02 -0.46084249672E+02  0.28518242738E+02  0.57466043881E+02  0.10000000000E+01 0.  0.
    9000005    1    3    3    0    0  0.19086591175E+02  0.46084249672E+02  0.16963667648E+03  0.17682097737E+03  0.10000000000E+01 0.  0.
<mgrwt>
<rscale>  0 0.12500015E+03</rscale>
<asrwt>0</asrwt>
<pdfrwt beam="2">  1        4 0.27793924E-02 0.12500015E+03</pdfrwt>
<pdfrwt beam="1">  1       -4 0.33264765E-01 0.12500015E+03</pdfrwt>
<totfact> 0.84655363E+03</totfact>
</mgrwt>
</event>
<event>
 5    1  0.3191162E-002  0.1249991E+03  0.7818608E-02  0.1235071E+00
          4   -1    0    0  501    0  0.00000000000E+00  0.00000000000E+00  0.51709838495E+01  0.53246571694E+01  0.12700000000E+01 0. -1.
         -4   -1    0    0    0  501 -0.00000000000E+00 -0.00000000000E+00 -0.74419159546E+03  0.74419267912E+03  0.12700000000E+01 0. -1.
         25    2    1    2    0    0  0.00000000000E+00  0.00000000000E+00 -0.73902061161E+03  0.74951733629E+03  0.12499909204E+03 0.  0.
    9000005    1    3    3    0    0  0.43989830095E+02  0.43712196650E+02 -0.41569724576E+03  0.42029877637E+03  0.10000000000E+01 0.  0.
    9000005    1    3    3    0    0 -0.43989830095E+02 -0.43712196650E+02 -0.32332336585E+03  0.32921855992E+03  0.10000000000E+01 0.  0.
<mgrwt>
<rscale>  0 0.12499909E+03</rscale>
<asrwt>0</asrwt>
<pdfrwt beam="1">  1        4 0.80744095E-03 0.12499909E+03</pdfrwt>
<pdfrwt beam="2">  1       -4 0.11450284E+00 0.12499909E+03</pdfrwt>
<totfact> 0.40598062E+03</totfact>
</mgrwt>
</event>
<event>
 5    1  0.3191162E-002  0.1249998E+03  0.7818608E-02  0.1235070E+00
          4   -1    0    0  501    0  0.00000000000E+00  0.00000000000E+00  0.12793809485E+03  0.12794439814E+03  0.12700000000E+01 0.  1.
         -4   -1    0    0    0  501 -0.00000000000E+00 -0.00000000000E+00 -0.30511965702E+02  0.30538384878E+02  0.12700000000E+01 0.  1.
         25    2    1    2    0    0  0.00000000000E+00  0.00000000000E+00  0.97426129152E+02  0.15848278302E+03  0.12499976748E+03 0.  0.
    9000005    1    3    3    0    0 -0.46986501596E+02  0.35961450067E+02  0.23220526925E+02  0.63570040851E+02  0.10000000000E+01 0.  0.
    9000005    1    3    3    0    0  0.46986501596E+02 -0.35961450067E+02  0.74205602227E+02  0.94912742164E+02  0.10000000000E+01 0.  0.
<mgrwt>
<rscale>  0 0.12499977E+03</rscale>
<asrwt>0</asrwt>
<pdfrwt beam="1">  1        4 0.19685301E-01 0.12499977E+03</pdfrwt>
<pdfrwt beam="2">  1       -4 0.46966656E-02 0.12499977E+03</pdfrwt>
<totfact> 0.97636602E+03</totfact>
</mgrwt>
</event>
<event>
 5    1  0.3191162E-002  0.1250012E+03  0.7818608E-02  0.1235067E+00
          4   -1    0    0  501    0  0.00000000000E+00  0.00000000000E+00  0.19401884970E+03  0.19402300621E+03  0.12700000000E+01 0. -1.
         -4   -1    0    0    0  501 -0.00000000000E+00 -0.00000000000E+00 -0.20109346029E+02  0.20149409364E+02  0.12700000000E+01 0. -1.
         25    2    1    2    0    0  0.00000000000E+00  0.00000000000E+00  0.17390950367E+03  0.21417241558E+03  0.12500123250E+03 0.  0.
    9000005    1    3    3    0    0  0.34972743687E+02 -0.59936923153E+01  0.17509405025E+03  0.17865593631E+03  0.10000000000E+01 0.  0.
    9000005    1    3    3    0    0 -0.34972743687E+02  0.59936923153E+01 -0.11845465733E+01  0.35516479262E+02  0.10000000000E+01 0.  0.
<mgrwt>
<rscale>  0 0.12500123E+03</rscale>
<asrwt>0</asrwt>
<pdfrwt beam="1">  1        4 0.29852454E-01 0.12500123E+03</pdfrwt>
<pdfrwt beam="2">  1       -4 0.30971472E-02 0.12500123E+03</pdfrwt>
<totfact> 0.87796554E+03</totfact>
</mgrwt>
</event>
<event>
 5    1  0.3191162E-002  0.1249993E+03  0.7818608E-02  0.1235070E+00
         -4   -1    0    0    0  501 -0.00000000000E+00  0.00000000000E+00  0.42467080198E+01  0.44325420478E+01  0.12700000000E+01 0.  1.
          4   -1    0    0  501    0  0.00000000000E+00 -0.00000000000E+00 -0.89993948682E+03  0.89994038294E+03  0.12700000000E+01 0.  1.
         25    2    1    2    0    0  0.00000000000E+00  0.00000000000E+00 -0.89569277880E+03  0.90437292499E+03  0.12499933379E+03 0.  0.
    9000005    1    3    3    0    0 -0.44627434052E+02 -0.20513198086E+02 -0.16830764858E+03  0.17533072673E+03  0.10000000000E+01 0.  0.
    9000005    1    3    3    0    0  0.44627434052E+02  0.20513198086E+02 -0.72738513022E+03  0.72904219825E+03  0.10000000000E+01 0.  0.
<mgrwt>
<rscale>  0 0.12499933E+03</rscale>
<asrwt>0</asrwt>
<pdfrwt beam="2">  1        4 0.13846644E+00 0.12499933E+03</pdfrwt>
<pdfrwt beam="1">  1       -4 0.66770427E-03 0.12499933E+03</pdfrwt>
<totfact> 0.33993555E+03</totfact>
</mgrwt>
</event>
<event>
 5    1  0.3191162E-002  0.1249964E+03  0.7818608E-02  0.1235075E+00
         -4   -1    0    0    0  501 -0.00000000000E+00  0.00000000000E+00  0.40005532657E+02  0.40025686043E+02  0.12700000000E+01 0.  1.
          4   -1    0    0  501    0  0.00000000000E+00 -0.00000000000E+00 -0.97588203583E+02  0.97596467039E+02  0.12700000000E+01 0.  1.
         25    2    1    2    0    0  0.00000000000E+00  0.00000000000E+00 -0.57582670925E+02  0.13762215308E+03  0.12499637206E+03 0.  0.
    9000005    1    3    3    0    0 -0.59327835150E+02 -0.15609077501E+02 -0.41892323822E+02  0.74292678772E+02  0.10000000000E+01 0.  0.
    9000005    1    3    3    0    0  0.59327835150E+02  0.15609077501E+02 -0.15690347104E+02  0.63329474309E+02  0.10000000000E+01 0.  0.
<mgrwt>
<rscale>  0 0.12499637E+03</rscale>
<asrwt>0</asrwt>
<pdfrwt beam="2">  1        4 0.15015756E-01 0.12499637E+03</pdfrwt>
<pdfrwt beam="1">  1       -4 0.61568833E-02 0.12499637E+03</pdfrwt>
<totfact> 0.10183926E+04</totfact>
</mgrwt>
</event>
<event>
 5    1  0.3191162E-002  0.1250031E+03  0.7818608E-02  0.1235064E+00
         -4   -1    0    0    0  501 -0.00000000000E+00  0.00000000000E+00  0.80266860716E+03  0.80266961187E+03  0.12700000000E+01 0. -1.
          4   -1    0    0  501    0  0.00000000000E+00 -0.00000000000E+00 -0.47829468741E+01  0.49486847546E+01  0.12700000000E+01 0. -1.
         25    2    1    2    0    0  0.00000000000E+00  0.00000000000E+00  0.79788566028E+03  0.80761829662E+03  0.12500314458E+03 0.  0.
    9000005    1    3    3    0    0  0.59544525856E+02  0.18406393112E+02  0.42862074266E+03  0.43312941127E+03  0.10000000000E+01 0.  0.
    9000005    1    3    3    0    0 -0.59544525856E+02 -0.18406393112E+02  0.36926491762E+03  0.37448888536E+03  0.10000000000E+01 0.  0.
<mgrwt>
<rscale>  0 0.12500314E+03</rscale>
<asrwt>0</asrwt>
<pdfrwt beam="2">  1        4 0.74866471E-03 0.12500314E+03</pdfrwt>
<pdfrwt beam="1">  1       -4 0.12350024E+00 0.12500314E+03</pdfrwt>
<totfact> 0.37924291E+03</totfact>
</mgrwt>
</event>
<event>
 5    1  0.3191162E-002  0.1250017E+03  0.7818608E-02  0.1235067E+00
          4   -1    0    0  501    0  0.00000000000E+00  0.00000000000E+00  0.27252558984E+02  0.27282134652E+02  0.12700000000E+01 0. -1.
         -4   -1    0    0    0  501 -0.00000000000E+00 -0.00000000000E+00 -0.14322901084E+03  0.14323464123E+03  0.12700000000E+01 0. -1.
         25    2    1    2    0    0  0.00000000000E+00  0.00000000000E+00 -0.11597645186E+03  0.17051677588E+03  0.12500173387E+03 0.  0.
    9000005    1    3    3    0    0  0.20045983234E+02 -0.57220856194E+01  0.22376280987E+02  0.30598719882E+02  0.10000000000E+01 0.  0.
    9000005    1    3    3    0    0 -0.20045983234E+02  0.57220856194E+01 -0.13835273285E+03  0.13991805600E+03  0.10000000000E+01 0.  0.
<mgrwt>
<rscale>  0 0.12500173E+03</rscale>
<asrwt>0</asrwt>
<pdfrwt beam="1">  1        4 0.41954096E-02 0.12500173E+03</pdfrwt>
<pdfrwt beam="2">  1       -4 0.22037940E-01 0.12500173E+03</pdfrwt>
<totfact> 0.95348694E+03</totfact>
</mgrwt>
</event>
<event>
 5    1  0.3191162E-002  0.1250016E+03  0.7818608E-02  0.1235067E+00
          4   -1    0    0  501    0  0.00000000000E+00  0.00000000000E+00  0.52372402413E+03  0.52372556397E+03  0.12700000000E+01 0.  1.
         -4   -1    0    0    0  501 -0.00000000000E+00 -0.00000000000E+00 -0.74031725908E+01  0.75113157575E+01  0.12700000000E+01 0.  1.
         25    2    1    2    0    0  0.00000000000E+00  0.00000000000E+00  0.51632085154E+03  0.53123687973E+03  0.12500160256E+03 0.  0.
    9000005    1    3    3    0    0  0.45158620393E+02  0.67050759289E+01  0.43951915952E+03  0.44188499706E+03  0.10000000000E+01 0.  0.
    9000005    1    3    3    0    0 -0.45158620393E+02 -0.67050759289E+01  0.76801692023E+02  0.89351882669E+02  0.10000000000E+01 0.  0.
<mgrwt>
<rscale>  0 0.12500160E+03</rscale>
<asrwt>0</asrwt>
<pdfrwt beam="1">  1        4 0.80581406E-01 0.12500160E+03</pdfrwt>
<pdfrwt beam="2">  1       -4 0.11473862E-02 0.12500160E+03</pdfrwt>
<totfact> 0.53517782E+03</totfact>
</mgrwt>
</event>
<event>
 5    1  0.3191162E-002  0.1250028E+03  0.7818608E-02  0.1235065E+00
          4   -1    0    0  501    0  0.00000000000E+00  0.00000000000E+00  0.21539935115E+02  0.21577342394E+02  0.12700000000E+01 0. -1.
         -4   -1    0    0    0  501 -0.00000000000E+00 -0.00000000000E+00 -0.18116028457E+03  0.18116473610E+03  0.12700000000E+01 0. -1.
         25    2    1    2    0    0  0.00000000000E+00  0.00000000000E+00 -0.15962034946E+03  0.20274207850E+03  0.12500277769E+03 0.  0.
    9000005    1    3    3    0    0  0.17060052719E+02 -0.59808043929E+02 -0.89725824238E+02  0.10917770401E+03  0.10000000000E+01 0.  0.
    9000005    1    3    3    0    0 -0.17060052719E+02  0.59808043929E+02 -0.69894525220E+02  0.93564374487E+02  0.10000000000E+01 0.  0.
<mgrwt>
<rscale>  0 0.12500278E+03</rscale>
<asrwt>0</asrwt>
<pdfrwt beam="1">  1        4 0.33170562E-02 0.12500278E+03</pdfrwt>
<pdfrwt beam="2">  1       -4 0.27874032E-01 0.12500278E+03</pdfrwt>
<totfact> 0.89669513E+03</totfact>
</mgrwt>
</event>
<event>
 5    1  0.3191162E-002  0.1249933E+03  0.7818608E-02  0.1235080E+00
          4   -1    0    0  501    0  0.00000000000E+00  0.00000000000E+00  0.95352747584E+01  0.96194784016E+01  0.12700000000E+01 0.  1.
         -4   -1    0    0    0  501 -0.00000000000E+00 -0.00000000000E+00 -0.40773351720E+03  0.40773549508E+03  0.12700000000E+01 0.  1.
         25    2    1    2    0    0  0.00000000000E+00  0.00000000000E+00 -0.39819824244E+03  0.41735497348E+03  0.12499333425E+03 0.  0.
    9000005    1    3    3    0    0  0.53491314890E+02 -0.26290998438E+02 -0.26177098600E+03  0.26847269224E+03  0.10000000000E+01 0.  0.
    9000005    1    3    3    0    0 -0.53491314890E+02  0.26290998438E+02 -0.13642725645E+03  0.14888228125E+03  0.10000000000E+01 0.  0.
<mgrwt>
<rscale>  0 0.12499333E+03</rscale>
<asrwt>0</asrwt>
<pdfrwt beam="1">  1        4 0.14735950E-02 0.12499333E+03</pdfrwt>
<pdfrwt beam="2">  1       -4 0.62734850E-01 0.12499333E+03</pdfrwt>
<totfact> 0.62908410E+03</totfact>
</mgrwt>
</event>
<event>
 5    1  0.3191162E-002  0.1250009E+03  0.7818608E-02  0.1235068E+00
          4   -1    0    0  501    0  0.00000000000E+00  0.00000000000E+00  0.14595131897E+02  0.14650282424E+02  0.12700000000E+01 0. -1.
         -4   -1    0    0    0  501 -0.00000000000E+00 -0.00000000000E+00 -0.26708319367E+03  0.26708621313E+03  0.12700000000E+01 0. -1.
         25    2    1    2    0    0  0.00000000000E+00  0.00000000000E+00 -0.25248806178E+03  0.28173649555E+03  0.12500092634E+03 0.  0.
    9000005    1    3    3    0    0  0.56814359539E+02 -0.20481594755E+02 -0.16244246909E+03  0.17330875032E+03  0.10000000000E+01 0.  0.
    9000005    1    3    3    0    0 -0.56814359539E+02  0.20481594755E+02 -0.90045592688E+02  0.10842774523E+03  0.10000000000E+01 0.  0.
<mgrwt>
<rscale>  0 0.12500093E+03</rscale>
<asrwt>0</asrwt>
<pdfrwt beam="1">  1        4 0.22498797E-02 0.12500093E+03</pdfrwt>
<pdfrwt beam="2">  1       -4 0.41094193E-01 0.12500093E+03</pdfrwt>
<totfact> 0.77946817E+03</totfact>
</mgrwt>
</event>
<event>
 5    1  0.3191162E-002  0.1250014E+03  0.7818608E-02  0.1235067E+00
         -4   -1    0    0    0  501 -0.00000000000E+00  0.00000000000E+00  0.84108941570E+01  0.85062353906E+01  0.12700000000E+01 0.  1.
          4   -1    0    0  501    0  0.00000000000E+00 -0.00000000000E+00 -0.46172390971E+03  0.46172565632E+03  0.12700000000E+01 0.  1.
         25    2    1    2    0    0  0.00000000000E+00  0.00000000000E+00 -0.45331301556E+03  0.47023189171E+03  0.12500136762E+03 0.  0.
    9000005    1    3    3    0    0 -0.16146805419E+02  0.17925485436E+02 -0.97954159172E+01  0.26057485035E+02  0.10000000000E+01 0.  0.
    9000005    1    3    3    0    0  0.16146805419E+02 -0.17925485436E+02 -0.44351759964E+03  0.44417440667E+03  0.10000000000E+01 0.  0.
<mgrwt>
<rscale>  0 0.12500137E+03</rscale>
<asrwt>0</asrwt>
<pdfrwt beam="2">  1        4 0.71041896E-01 0.12500137E+03</pdfrwt>
<pdfrwt beam="1">  1       -4 0.13014524E-02 0.12500137E+03</pdfrwt>
<totfact> 0.58248571E+03</totfact>
</mgrwt>
</event>
<event>
 5    1  0.3191162E-002  0.1249999E+03  0.7818608E-02  0.1235069E+00
          4   -1    0    0  501    0  0.00000000000E+00  0.00000000000E+00  0.30817420476E+02  0.30843578015E+02  0.12700000000E+01 0.  1.
         -4   -1    0    0    0  501 -0.00000000000E+00 -0.00000000000E+00 -0.12667134994E+03  0.12667771625E+03  0.12700000000E+01 0.  1.
         25    2    1    2    0    0  0.00000000000E+00  0.00000000000E+00 -0.95853929460E+02  0.15752129427E+03  0.12499992942E+03 0.  0.
    9000005    1    3    3    0    0 -0.17189373254E+02 -0.57915468937E+02 -0.27781188308E+02  0.66501658016E+02  0.10000000000E+01 0.  0.
    9000005    1    3    3    0    0  0.17189373254E+02  0.57915468937E+02 -0.68072741152E+02  0.91019636250E+02  0.10000000000E+01 0.  0.
<mgrwt>
<rscale>  0 0.12499993E+03</rscale>
<asrwt>0</asrwt>
<pdfrwt beam="1">  1        4 0.47436435E-02 0.12499993E+03</pdfrwt>
<pdfrwt beam="2">  1       -4 0.19490402E-01 0.12499993E+03</pdfrwt>
<totfact> 0.97822955E+03</totfact>
</mgrwt>
</event>
<event>
 5    1  0.3191162E-002  0.1249920E+03  0.7818608E-02  0.1235082E+00
          4   -1    0    0  501    0  0.00000000000E+00  0.00000000000E+00  0.24287544246E+03  0.24287876286E+03  0.12700000000E+01 0.  1.
         -4   -1    0    0    0  501 -0.00000000000E+00 -0.00000000000E+00 -0.16052766746E+02  0.16102925827E+02  0.12700000000E+01 0.  1.
         25    2    1    2    0    0  0.00000000000E+00  0.00000000000E+00  0.22682267571E+03  0.25898168869E+03  0.12499195518E+03 0.  0.
    9000005    1    3    3    0    0  0.28468040767E+02 -0.52078284424E+02  0.72905708488E+02  0.94014995526E+02  0.10000000000E+01 0.  0.
    9000005    1    3    3    0    0 -0.28468040767E+02  0.52078284424E+02  0.15391696722E+03  0.16496669316E+03  0.10000000000E+01 0.  0.
<mgrwt>
<rscale>  0 0.12499196E+03</rscale>
<asrwt>0</asrwt>
<pdfrwt beam="1">  1        4 0.37369565E-01 0.12499196E+03</pdfrwt>
<pdfrwt beam="2">  1       -4 0.24737703E-02 0.12499196E+03</pdfrwt>
<totfact> 0.81063696E+03</totfact>
</mgrwt>
</event>
<event>
 4    1  0.3191162E-002  0.1251008E+03  0.7818608E-02  0.1234912E+00
          4   -1    0    0  501    0  0.00000000000E+00  0.00000000000E+00  0.66630822389E+01  0.67830350819E+01  0.12700000000E+01 0.  1.
         -4   -1    0    0    0  501 -0.00000000000E+00 -0.00000000000E+00 -0.58183999819E+03  0.58184138422E+03  0.12700000000E+01 0.  1.
    9000005    1    1    2    0    0 -0.35703112552E+02 -0.26281582336E+02 -0.80019203901E+02  0.91485008657E+02  0.10000000000E+01 0.  0.
    9000005    1    1    2    0    0  0.35703112552E+02  0.26281582336E+02 -0.49515771205E+03  0.49713941064E+03  0.10000000000E+01 0.  0.
<mgrwt>
<rscale>  0 0.12510085E+03</rscale>
<asrwt>0</asrwt>
<pdfrwt beam="1">  1        4 0.10344238E-02 0.12510085E+03</pdfrwt>
<pdfrwt beam="2">  1       -4 0.89523140E-01 0.12510085E+03</pdfrwt>
<totfact> 0.49484111E+03</totfact>
</mgrwt>
</event>
<event>
 5    1  0.3191162E-002  0.1250076E+03  0.7818608E-02  0.1235057E+00
          4   -1    0    0  501    0  0.00000000000E+00  0.00000000000E+00  0.12594550462E+02  0.12658420176E+02  0.12700000000E+01 0. -1.
         -4   -1    0    0    0  501 -0.00000000000E+00 -0.00000000000E+00 -0.30934211741E+03  0.30934472439E+03  0.12700000000E+01 0. -1.
         25    2    1    2    0    0  0.00000000000E+00  0.00000000000E+00 -0.29674756695E+03  0.32200314456E+03  0.12500762623E+03 0.  0.
    9000005    1    3    3    0    0  0.18793736381E+02 -0.57892609369E+02 -0.18489009972E+03  0.19465381507E+03  0.10000000000E+01 0.  0.
    9000005    1    3    3    0    0 -0.18793736381E+02  0.57892609369E+02 -0.11185746723E+03  0.12734932949E+03  0.10000000000E+01 0.  0.
<mgrwt>
<rscale>  0 0.12500763E+03</rscale>
<asrwt>0</asrwt>
<pdfrwt beam="1">  1        4 0.19427370E-02 0.12500763E+03</pdfrwt>
<pdfrwt beam="2">  1       -4 0.47596203E-01 0.12500763E+03</pdfrwt>
<totfact> 0.72906187E+03</totfact>
</mgrwt>
</event>
<event>
 5    1  0.3191162E-002  0.1249994E+03  0.7818608E-02  0.1235070E+00
         -4   -1    0    0    0  501 -0.00000000000E+00  0.00000000000E+00  0.23606090488E+01  0.26805549950E+01  0.12700000000E+01 0.  1.
          4   -1    0    0  501    0  0.00000000000E+00 -0.00000000000E+00 -0.15494073145E+04  0.15494078350E+04  0.12700000000E+01 0.  1.
         25    2    1    2    0    0  0.00000000000E+00  0.00000000000E+00 -0.15470467055E+04  0.15520883900E+04  0.12499944591E+03 0.  0.
    9000005    1    3    3    0    0  0.29882501784E+02  0.42694138050E+02 -0.12017598266E+04  0.12028896185E+04  0.10000000000E+01 0.  0.
    9000005    1    3    3    0    0 -0.29882501784E+02 -0.42694138050E+02 -0.34528687886E+03  0.34919877155E+03  0.10000000000E+01 0.  0.
<mgrwt>
<rscale>  0 0.12499945E+03</rscale>
<asrwt>0</asrwt>
<pdfrwt beam="2">  1        4 0.23839425E+00 0.12499945E+03</pdfrwt>
<pdfrwt beam="1">  1       -4 0.38782313E-03 0.12499945E+03</pdfrwt>
<totfact> 0.16929231E+03</totfact>
</mgrwt>
</event>
<event>
 5    1  0.3191162E-002  0.1249973E+03  0.7818608E-02  0.1235073E+00
          4   -1    0    0  501    0  0.00000000000E+00  0.00000000000E+00  0.14415476211E+02  0.14471311427E+02  0.12700000000E+01 0.  1.
         -4   -1    0    0    0  501 -0.00000000000E+00 -0.00000000000E+00 -0.27038343304E+03  0.27038641564E+03  0.12700000000E+01 0.  1.
         25    2    1    2    0    0  0.00000000000E+00  0.00000000000E+00 -0.25596795683E+03  0.28485772707E+03  0.12499731896E+03 0.  0.
    9000005    1    3    3    0    0 -0.46355945206E+01  0.62044968490E+02 -0.14127524227E+03  0.15437215076E+03  0.10000000000E+01 0.  0.
    9000005    1    3    3    0    0  0.46355945206E+01 -0.62044968490E+02 -0.11469271456E+03  0.13048557631E+03  0.10000000000E+01 0.  0.
<mgrwt>
<rscale>  0 0.12499732E+03</rscale>
<asrwt>0</asrwt>
<pdfrwt beam="1">  1        4 0.22222902E-02 0.12499732E+03</pdfrwt>
<pdfrwt beam="2">  1       -4 0.41601972E-01 0.12499732E+03</pdfrwt>
<totfact> 0.77543005E+03</totfact>
</mgrwt>
</event>
<event>
 5    1  0.3191162E-002  0.1249904E+03  0.7818608E-02  0.1235084E+00
          4   -1    0    0  501    0  0.00000000000E+00  0.00000000000E+00  0.57783496549E+02  0.57797451271E+02  0.12700000000E+01 0.  1.
         -4   -1    0    0    0  501 -0.00000000000E+00 -0.00000000000E+00 -0.67563018290E+02  0.67574953500E+02  0.12700000000E+01 0.  1.
         25    2    1    2    0    0  0.00000000000E+00  0.00000000000E+00 -0.97795217413E+01  0.12537240477E+03  0.12499040296E+03 0.  0.
    9000005    1    3    3    0    0 -0.22458852646E+02 -0.12535362068E+02 -0.62012161646E+02  0.67141965688E+02  0.10000000000E+01 0.  0.
    9000005    1    3    3    0    0  0.22458852646E+02  0.12535362068E+02  0.52232639905E+02  0.58230439083E+02  0.10000000000E+01 0.  0.
<mgrwt>
<rscale>  0 0.12499040E+03</rscale>
<asrwt>0</asrwt>
<pdfrwt beam="1">  1        4 0.88917603E-02 0.12499040E+03</pdfrwt>
<pdfrwt beam="2">  1       -4 0.10396302E-01 0.12499040E+03</pdfrwt>
<totfact> 0.10447039E+04</totfact>
</mgrwt>
</event>
<event>
 5    1  0.3191162E-002  0.1249980E+03  0.7818608E-02  0.1235072E+00
          4   -1    0    0  501    0  0.00000000000E+00  0.00000000000E+00  0.43972120633E+03  0.43972304033E+03  0.12700000000E+01 0.  1.
         -4   -1    0    0    0  501 -0.00000000000E+00 -0.00000000000E+00 -0.88359377095E+01  0.89267404581E+01  0.12700000000E+01 0.  1.
         25    2    1    2    0    0  0.00000000000E+00  0.00000000000E+00  0.43088526862E+03  0.44864978079E+03  0.12499804433E+03 0.  0.
    9000005    1    3    3    0    0 -0.61609100409E+02  0.40360896595E+01  0.25008526149E+03  0.25759582545E+03  0.10000000000E+01 0.  0.
    9000005    1    3    3    0    0  0.61609100409E+02 -0.40360896595E+01  0.18080000713E+03  0.19105395534E+03  0.10000000000E+01 0.  0.
<mgrwt>
<rscale>  0 0.12499804E+03</rscale>
<asrwt>0</asrwt>
<pdfrwt beam="1">  1        4 0.67656546E-01 0.12499804E+03</pdfrwt>
<pdfrwt beam="2">  1       -4 0.13665009E-02 0.12499804E+03</pdfrwt>
<totfact> 0.60083527E+03</totfact>
</mgrwt>
</event>
<event>
 5    1  0.3191162E-002  0.1249921E+03  0.7818608E-02  0.1235082E+00
         -4   -1    0    0    0  501 -0.00000000000E+00  0.00000000000E+00  0.12151750768E+03  0.12152414400E+03  0.12700000000E+01 0.  1.
          4   -1    0    0  501    0  0.00000000000E+00 -0.00000000000E+00 -0.32121470403E+02  0.32146566860E+02  0.12700000000E+01 0.  1.
         25    2    1    2    0    0  0.00000000000E+00  0.00000000000E+00  0.89396037281E+02  0.15367071085E+03  0.12499214333E+03 0.  0.
    9000005    1    3    3    0    0  0.34092265061E+01  0.36509483092E+02 -0.17509775980E+02  0.40646739548E+02  0.10000000000E+01 0.  0.
    9000005    1    3    3    0    0 -0.34092265061E+01 -0.36509483092E+02  0.10690581326E+03  0.11302397131E+03  0.10000000000E+01 0.  0.
<mgrwt>
<rscale>  0 0.12499214E+03</rscale>
<asrwt>0</asrwt>
<pdfrwt beam="2">  1        4 0.49442057E-02 0.12499214E+03</pdfrwt>
<pdfrwt beam="1">  1       -4 0.18697442E-01 0.12499214E+03</pdfrwt>
<totfact> 0.98594390E+03</totfact>
</mgrwt>
</event>
<event>
 4    1  0.3191162E-002  0.1255103E+03  0.7818608E-02  0.1234274E+00
         -4   -1    0    0    0  501 -0.00000000000E+00  0.00000000000E+00  0.48585707142E+03  0.48585873127E+03  0.12700000000E+01 0. -1.
          4   -1    0    0  501    0  0.00000000000E+00 -0.00000000000E+00 -0.80542628216E+01  0.81537751747E+01  0.12700000000E+01 0. -1.
    9000005    1    1    2    0    0  0.50145238345E+02  0.35880702588E+02  0.28467432640E+03  0.29127725942E+03  0.10000000000E+01 0.  0.
    9000005    1    1    2    0    0 -0.50145238345E+02 -0.35880702588E+02  0.19312848220E+03  0.20273524702E+03  0.10000000000E+01 0.  0.
<mgrwt>
<rscale>  0 0.12551029E+03</rscale>
<asrwt>0</asrwt>
<pdfrwt beam="2">  1        4 0.12469001E-02 0.12551029E+03</pdfrwt>
<pdfrwt beam="1">  1       -4 0.74755011E-01 0.12551029E+03</pdfrwt>
<totfact> 0.55704411E+03</totfact>
</mgrwt>
</event>
<event>
 5    1  0.3191162E-002  0.1250027E+03  0.7818608E-02  0.1235065E+00
          4   -1    0    0  501    0  0.00000000000E+00  0.00000000000E+00  0.61140194346E+01  0.62445282966E+01  0.12700000000E+01 0. -1.
         -4   -1    0    0    0  501 -0.00000000000E+00 -0.00000000000E+00 -0.63204951190E+03  0.63205078783E+03  0.12700000000E+01 0. -1.
         25    2    1    2    0    0  0.00000000000E+00  0.00000000000E+00 -0.62593549247E+03  0.63829531612E+03  0.12500267940E+03 0.  0.
    9000005    1    3    3    0    0  0.12707090610E+02  0.51065144497E+02 -0.14084093641E+03  0.15035387758E+03  0.10000000000E+01 0.  0.
    9000005    1    3    3    0    0 -0.12707090610E+02 -0.51065144497E+02 -0.48509455606E+03  0.48794143855E+03  0.10000000000E+01 0.  0.
<mgrwt>
<rscale>  0 0.12500268E+03</rscale>
<asrwt>0</asrwt>
<pdfrwt beam="1">  1        4 0.95075616E-03 0.12500268E+03</pdfrwt>
<pdfrwt beam="2">  1       -4 0.97248473E-01 0.12500268E+03</pdfrwt>
<totfact> 0.46533468E+03</totfact>
</mgrwt>
</event>
<event>
 5    1  0.3191162E-002  0.1249950E+03  0.7818608E-02  0.1235077E+00
          4   -1    0    0  501    0  0.00000000000E+00  0.00000000000E+00  0.15481921074E+03  0.15482441964E+03  0.12700000000E+01 0. -1.
         -4   -1    0    0    0  501 -0.00000000000E+00 -0.00000000000E+00 -0.25207415517E+02  0.25239387811E+02  0.12700000000E+01 0. -1.
         25    2    1    2    0    0  0.00000000000E+00  0.00000000000E+00  0.12961179523E+03  0.18006380745E+03  0.12499502906E+03 0.  0.
    9000005    1    3    3    0    0  0.24163788366E+02  0.47027259831E+02  0.11278972559E+03  0.12457116053E+03  0.10000000000E+01 0.  0.
    9000005    1    3    3    0    0 -0.24163788366E+02 -0.47027259831E+02  0.16822069634E+02  0.55492646920E+02  0.10000000000E+01 0.  0.
<mgrwt>
<rscale>  0 0.12499503E+03</rscale>
<asrwt>0</asrwt>
<pdfrwt beam="1">  1        4 0.23821200E-01 0.12499503E+03</pdfrwt>
<pdfrwt beam="2">  1       -4 0.38809240E-02 0.12499503E+03</pdfrwt>
<totfact> 0.93615953E+03</totfact>
</mgrwt>
</event>
<event>
 5    1  0.3191162E-002  0.1250010E+03  0.7818608E-02  0.1235068E+00
          4   -1    0    0  501    0  0.00000000000E+00  0.00000000000E+00  0.15458329248E+02  0.15510410799E+02  0.12700000000E+01 0.  1.
         -4   -1    0    0    0  501 -0.00000000000E+00 -0.00000000000E+00 -0.25222070703E+03  0.25222390441E+03  0.12700000000E+01 0.  1.
         25    2    1    2    0    0  0.00000000000E+00  0.00000000000E+00 -0.23676237778E+03  0.26773431521E+03  0.12500096002E+03 0.  0.
    9000005    1    3    3    0    0  0.61366503572E+02 -0.64926381292E+01 -0.97252880891E+02  0.11518300635E+03  0.10000000000E+01 0.  0.
    9000005    1    3    3    0    0 -0.61366503572E+02  0.64926381292E+01 -0.13950949689E+03  0.15255130885E+03  0.10000000000E+01 0.  0.
<mgrwt>
<rscale>  0 0.12500096E+03</rscale>
<asrwt>0</asrwt>
<pdfrwt beam="1">  1        4 0.23824569E-02 0.12500096E+03</pdfrwt>
<pdfrwt beam="2">  1       -4 0.38807435E-01 0.12500096E+03</pdfrwt>
<totfact> 0.79831061E+03</totfact>
</mgrwt>
</event>
<event>
 5    1  0.3191162E-002  0.1249996E+03  0.7818608E-02  0.1235070E+00
          4   -1    0    0  501    0  0.00000000000E+00  0.00000000000E+00  0.96093039473E+02  0.96101431494E+02  0.12700000000E+01 0. -1.
         -4   -1    0    0    0  501 -0.00000000000E+00 -0.00000000000E+00 -0.40630369600E+02  0.40650213208E+02  0.12700000000E+01 0. -1.
         25    2    1    2    0    0  0.00000000000E+00  0.00000000000E+00  0.55462669873E+02  0.13675164470E+03  0.12499961832E+03 0.  0.
    9000005    1    3    3    0    0 -0.40222121689E+02  0.33937289223E+02  0.64599325253E+02  0.83328455500E+02  0.10000000000E+01 0.  0.
    9000005    1    3    3    0    0  0.40222121689E+02 -0.33937289223E+02 -0.91366553801E+01  0.53423189202E+02  0.10000000000E+01 0.  0.
<mgrwt>
<rscale>  0 0.12499962E+03</rscale>
<asrwt>0</asrwt>
<pdfrwt beam="1">  1        4 0.14785716E-01 0.12499962E+03</pdfrwt>
<pdfrwt beam="2">  1       -4 0.62529982E-02 0.12499962E+03</pdfrwt>
<totfact> 0.10201369E+04</totfact>
</mgrwt>
</event>
<event>
 5    1  0.3191162E-002  0.1250025E+03  0.7818608E-02  0.1235065E+00
          4   -1    0    0  501    0  0.00000000000E+00  0.00000000000E+00  0.71851887481E+01  0.72965633929E+01  0.12700000000E+01 0. -1.
         -4   -1    0    0    0  501 -0.00000000000E+00 -0.00000000000E+00 -0.53938159667E+03  0.53938309180E+03  0.12700000000E+01 0. -1.
         25    2    1    2    0    0  0.00000000000E+00  0.00000000000E+00 -0.53219640792E+03  0.54667965520E+03  0.12500251519E+03 0.  0.
    9000005    1    3    3    0    0 -0.12498953774E+02  0.57978697166E+02 -0.35220477838E+03  0.35716517059E+03  0.10000000000E+01 0.  0.
    9000005    1    3    3    0    0  0.12498953774E+02 -0.57978697166E+02 -0.17999162954E+03  0.18951448460E+03  0.10000000000E+01 0.  0.
<mgrwt>
<rscale>  0 0.12500252E+03</rscale>
<asrwt>0</asrwt>
<pdfrwt beam="1">  1        4 0.11140964E-02 0.12500252E+03</pdfrwt>
<pdfrwt beam="2">  1       -4 0.82990435E-01 0.12500252E+03</pdfrwt>
<totfact> 0.52413293E+03</totfact>
</mgrwt>
</event>
<event>
 5    1  0.3191162E-002  0.1249847E+03  0.7818608E-02  0.1235093E+00
          4   -1    0    0  501    0  0.00000000000E+00  0.00000000000E+00  0.28093953774E+02  0.28122644588E+02  0.12700000000E+01 0.  1.
         -4   -1    0    0    0  501 -0.00000000000E+00 -0.00000000000E+00 -0.13890577116E+03  0.13891157677E+03  0.12700000000E+01 0.  1.
         25    2    1    2    0    0  0.00000000000E+00  0.00000000000E+00 -0.11081181738E+03  0.16703422136E+03  0.12498468799E+03 0.  0.
    9000005    1    3    3    0    0 -0.27630816768E+02  0.27888691209E+02  0.95599643367E+01  0.40418239085E+02  0.10000000000E+01 0.  0.
    9000005    1    3    3    0    0  0.27630816768E+02 -0.27888691209E+02 -0.12037178172E+03  0.12661598227E+03  0.10000000000E+01 0.  0.
<mgrwt>
<rscale>  0 0.12498469E+03</rscale>
<asrwt>0</asrwt>
<pdfrwt beam="1">  1        4 0.43248004E-02 0.12498469E+03</pdfrwt>
<pdfrwt beam="2">  1       -4 0.21372772E-01 0.12498469E+03</pdfrwt>
<totfact> 0.96036548E+03</totfact>
</mgrwt>
</event>
<event>
 5    1  0.3191162E-002  0.1250018E+03  0.7818608E-02  0.1235066E+00
          4   -1    0    0  501    0  0.00000000000E+00  0.00000000000E+00  0.12271109437E+03  0.12271766613E+03  0.12700000000E+01 0. -1.
         -4   -1    0    0    0  501 -0.00000000000E+00 -0.00000000000E+00 -0.31813726366E+02  0.31839065396E+02  0.12700000000E+01 0. -1.
         25    2    1    2    0    0  0.00000000000E+00  0.00000000000E+00  0.90897368004E+02  0.15455673153E+03  0.12500180699E+03 0.  0.
    9000005    1    3    3    0    0  0.43815628649E+02  0.37083401857E+02  0.75995783386E+02  0.95243619732E+02  0.10000000000E+01 0.  0.
    9000005    1    3    3    0    0 -0.43815628649E+02 -0.37083401857E+02  0.14901584618E+02  0.59313111799E+02  0.10000000000E+01 0.  0.
<mgrwt>
<rscale>  0 0.12500181E+03</rscale>
<asrwt>0</asrwt>
<pdfrwt beam="1">  1        4 0.18881085E-01 0.12500181E+03</pdfrwt>
<pdfrwt beam="2">  1       -4 0.48968741E-02 0.12500181E+03</pdfrwt>
<totfact> 0.98398589E+03</totfact>
</mgrwt>
</event>
<event>
 5    1  0.3191162E-002  0.1250028E+03  0.7818608E-02  0.1235065E+00
         -4   -1    0    0    0  501 -0.00000000000E+00  0.00000000000E+00  0.24476692399E+03  0.24477021873E+03  0.12700000000E+01 0.  1.
          4   -1    0    0  501    0  0.00000000000E+00 -0.00000000000E+00 -0.15931101232E+02  0.15981642170E+02  0.12700000000E+01 0.  1.
         25    2    1    2    0    0  0.00000000000E+00  0.00000000000E+00  0.22883582276E+03  0.26075186090E+03  0.12500279672E+03 0.  0.
    9000005    1    3    3    0    0  0.22449264291E+02 -0.72783552852E+01 -0.62888501169E+01  0.24443681365E+02  0.10000000000E+01 0.  0.
    9000005    1    3    3    0    0 -0.22449264291E+02  0.72783552852E+01  0.23512467287E+03  0.23630817954E+03  0.10000000000E+01 0.  0.
<mgrwt>
<rscale>  0 0.12500280E+03</rscale>
<asrwt>0</asrwt>
<pdfrwt beam="2">  1        4 0.24550797E-02 0.12500280E+03</pdfrwt>
<pdfrwt beam="1">  1       -4 0.37660593E-01 0.12500280E+03</pdfrwt>
<totfact> 0.80795631E+03</totfact>
</mgrwt>
</event>
<event>
 5    1  0.3191162E-002  0.1249976E+03  0.7818608E-02  0.1235073E+00
         -4   -1    0    0    0  501 -0.00000000000E+00  0.00000000000E+00  0.14191045466E+02  0.14247760225E+02  0.12700000000E+01 0. -1.
          4   -1    0    0  501    0  0.00000000000E+00 -0.00000000000E+00 -0.27464373201E+03  0.27464666835E+03  0.12700000000E+01 0. -1.
         25    2    1    2    0    0  0.00000000000E+00  0.00000000000E+00 -0.26045268655E+03  0.28889442857E+03  0.12499755570E+03 0.  0.
    9000005    1    3    3    0    0  0.47563134174E+02 -0.37805969998E+02 -0.16400105383E+03  0.17489679458E+03  0.10000000000E+01 0.  0.
    9000005    1    3    3    0    0 -0.47563134174E+02  0.37805969998E+02 -0.96451632719E+02  0.11399763398E+03  0.10000000000E+01 0.  0.
<mgrwt>
<rscale>  0 0.12499756E+03</rscale>
<asrwt>0</asrwt>
<pdfrwt beam="2">  1        4 0.42257466E-01 0.12499756E+03</pdfrwt>
<pdfrwt beam="1">  1       -4 0.21878265E-02 0.12499756E+03</pdfrwt>
<totfact> 0.77017542E+03</totfact>
</mgrwt>
</event>
<event>
 5    1  0.3191162E-002  0.1250056E+03  0.7818608E-02  0.1235061E+00
          4   -1    0    0  501    0  0.00000000000E+00  0.00000000000E+00  0.32972506546E+01  0.35333782531E+01  0.12700000000E+01 0. -1.
         -4   -1    0    0    0  501 -0.00000000000E+00 -0.00000000000E+00 -0.11436107467E+04  0.11436114519E+04  0.12700000000E+01 0. -1.
         25    2    1    2    0    0  0.00000000000E+00  0.00000000000E+00 -0.11403134961E+04  0.11471448302E+04  0.12500556802E+03 0.  0.
    9000005    1    3    3    0    0 -0.58912352236E+02  0.74437487256E+01 -0.39138118482E+03  0.39586147384E+03  0.10000000000E+01 0.  0.
    9000005    1    3    3    0    0  0.58912352236E+02 -0.74437487256E+01 -0.74893231127E+03  0.75128335634E+03  0.10000000000E+01 0.  0.
<mgrwt>
<rscale>  0 0.12500557E+03</rscale>
<asrwt>0</asrwt>
<pdfrwt beam="1">  1        4 0.52548815E-03 0.12500557E+03</pdfrwt>
<pdfrwt beam="2">  1       -4 0.17595803E+00 0.12500557E+03</pdfrwt>
<totfact> 0.26136465E+03</totfact>
</mgrwt>
</event>
<event>
 5    1  0.3191162E-002  0.1250013E+03  0.7818608E-02  0.1235067E+00
         -4   -1    0    0    0  501 -0.00000000000E+00  0.00000000000E+00  0.70452375357E+02  0.70463821167E+02  0.12700000000E+01 0.  1.
          4   -1    0    0  501    0  0.00000000000E+00 -0.00000000000E+00 -0.55423215663E+02  0.55437764515E+02  0.12700000000E+01 0.  1.
         25    2    1    2    0    0  0.00000000000E+00  0.00000000000E+00  0.15029159694E+02  0.12590158568E+03  0.12500133454E+03 0.  0.
    9000005    1    3    3    0    0 -0.56992068123E+02  0.22478446340E+02 -0.49012842170E+01  0.61468682804E+02  0.10000000000E+01 0.  0.
    9000005    1    3    3    0    0  0.56992068123E+02 -0.22478446340E+02  0.19930443911E+02  0.64432902877E+02  0.10000000000E+01 0.  0.
<mgrwt>
<rscale>  0 0.12500133E+03</rscale>
<asrwt>0</asrwt>
<pdfrwt beam="2">  1        4 0.85286482E-02 0.12500133E+03</pdfrwt>
<pdfrwt beam="1">  1       -4 0.10840827E-01 0.12500133E+03</pdfrwt>
<totfact> 0.10432801E+04</totfact>
</mgrwt>
</event>
<event>
 5    1  0.3191162E-002  0.1249996E+03  0.7818608E-02  0.1235070E+00
          4   -1    0    0  501    0  0.00000000000E+00  0.00000000000E+00  0.16711736642E+02  0.16759923675E+02  0.12700000000E+01 0.  1.
         -4   -1    0    0    0  501 -0.00000000000E+00 -0.00000000000E+00 -0.23335490328E+03  0.23335835914E+03  0.12700000000E+01 0.  1.
         25    2    1    2    0    0  0.00000000000E+00  0.00000000000E+00 -0.21664316663E+03  0.25011828282E+03  0.12499957501E+03 0.  0.
    9000005    1    3    3    0    0  0.49981046743E+02  0.15618040094E+02 -0.17656538431E+03  0.18416938711E+03  0.10000000000E+01 0.  0.
    9000005    1    3    3    0    0 -0.49981046743E+02 -0.15618040094E+02 -0.40077782319E+02  0.65948895711E+02  0.10000000000E+01 0.  0.
<mgrwt>
<rscale>  0 0.12499958E+03</rscale>
<asrwt>0</asrwt>
<pdfrwt beam="1">  1        4 0.25750091E-02 0.12499958E+03</pdfrwt>
<pdfrwt beam="2">  1       -4 0.35904724E-01 0.12499958E+03</pdfrwt>
<totfact> 0.82313916E+03</totfact>
</mgrwt>
</event>
<event>
 5    1  0.3191162E-002  0.1249946E+03  0.7818608E-02  0.1235078E+00
          4   -1    0    0  501    0  0.00000000000E+00  0.00000000000E+00  0.48959834169E+03  0.48959998886E+03  0.12700000000E+01 0.  1.
         -4   -1    0    0    0  501 -0.00000000000E+00 -0.00000000000E+00 -0.79255690159E+01  0.80266770351E+01  0.12700000000E+01 0.  1.
         25    2    1    2    0    0  0.00000000000E+00  0.00000000000E+00  0.48167277268E+03  0.49762666589E+03  0.12499455455E+03 0.  0.
    9000005    1    3    3    0    0  0.47161075918E+02  0.14550996816E+02  0.39342603975E+03  0.39651096750E+03  0.10000000000E+01 0.  0.
    9000005    1    3    3    0    0 -0.47161075918E+02 -0.14550996816E+02  0.88246732926E+02  0.10111569840E+03  0.10000000000E+01 0.  0.
<mgrwt>
<rscale>  0 0.12499455E+03</rscale>
<asrwt>0</asrwt>
<pdfrwt beam="1">  1        4 0.75330729E-01 0.12499455E+03</pdfrwt>
<pdfrwt beam="2">  1       -4 0.12272225E-02 0.12499455E+03</pdfrwt>
<totfact> 0.56055688E+03</totfact>
</mgrwt>
</event>
<event>
 5    1  0.3191162E-002  0.1250049E+03  0.7818608E-02  0.1235062E+00
         -4   -1    0    0    0  501 -0.00000000000E+00  0.00000000000E+00  0.38538915310E+03  0.38539124565E+03  0.12700000000E+01 0. -1.
          4   -1    0    0  501    0  0.00000000000E+00 -0.00000000000E+00 -0.10094746968E+02  0.10174321419E+02  0.12700000000E+01 0. -1.
         25    2    1    2    0    0  0.00000000000E+00  0.00000000000E+00  0.37529440613E+03  0.39556556707E+03  0.12500490622E+03 0.  0.
    9000005    1    3    3    0    0  0.16522391699E+02 -0.35584232486E+01  0.37803539032E+03  0.37841433395E+03  0.10000000000E+01 0.  0.
    9000005    1    3    3    0    0 -0.16522391699E+02  0.35584232486E+01 -0.27409841858E+01  0.17151233127E+02  0.10000000000E+01 0.  0.
<mgrwt>
<rscale>  0 0.12500491E+03</rscale>
<asrwt>0</asrwt>
<pdfrwt beam="2">  1        4 0.15593200E-02 0.12500491E+03</pdfrwt>
<pdfrwt beam="1">  1       -4 0.59296924E-01 0.12500491E+03</pdfrwt>
<totfact> 0.64979330E+03</totfact>
</mgrwt>
</event>
<event>
 5    1  0.3191162E-002  0.1249977E+03  0.7818608E-02  0.1235073E+00
         -4   -1    0    0    0  501 -0.00000000000E+00  0.00000000000E+00  0.30838913997E+03  0.30839175500E+03  0.12700000000E+01 0. -1.
          4   -1    0    0  501    0  0.00000000000E+00 -0.00000000000E+00 -0.12631657344E+02  0.12695340376E+02  0.12700000000E+01 0. -1.
         25    2    1    2    0    0  0.00000000000E+00  0.00000000000E+00  0.29575748263E+03  0.32108709538E+03  0.12499773713E+03 0.  0.
    9000005    1    3    3    0    0 -0.23802564880E+02  0.48872872439E+02  0.68705222574E+02  0.87615794034E+02  0.10000000000E+01 0.  0.
    9000005    1    3    3    0    0  0.23802564880E+02 -0.48872872439E+02  0.22705226005E+03  0.23347130134E+03  0.10000000000E+01 0.  0.
<mgrwt>
<rscale>  0 0.12499774E+03</rscale>
<asrwt>0</asrwt>
<pdfrwt beam="2">  1        4 0.19484317E-02 0.12499774E+03</pdfrwt>
<pdfrwt beam="1">  1       -4 0.47449584E-01 0.12499774E+03</pdfrwt>
<totfact> 0.73030676E+03</totfact>
</mgrwt>
</event>
<event>
 5    1  0.3191162E-002  0.1250011E+03  0.7818608E-02  0.1235068E+00
         -4   -1    0    0    0  501 -0.00000000000E+00  0.00000000000E+00  0.27581490770E+01  0.30364924388E+01  0.12700000000E+01 0. -1.
          4   -1    0    0  501    0  0.00000000000E+00 -0.00000000000E+00 -0.13479734803E+04  0.13479740786E+04  0.12700000000E+01 0. -1.
         25    2    1    2    0    0  0.00000000000E+00  0.00000000000E+00 -0.13452153312E+04  0.13510105710E+04  0.12500110246E+03 0.  0.
    9000005    1    3    3    0    0  0.11347118161E+01 -0.53749468545E+02 -0.10169444977E+04  0.10183650644E+04  0.10000000000E+01 0.  0.
    9000005    1    3    3    0    0 -0.11347118161E+01  0.53749468545E+02 -0.32827083353E+03  0.33264550664E+03  0.10000000000E+01 0.  0.
<mgrwt>
<rscale>  0 0.12500110E+03</rscale>
<asrwt>0</asrwt>
<pdfrwt beam="2">  1        4 0.20740149E+00 0.12500110E+03</pdfrwt>
<pdfrwt beam="1">  1       -4 0.44578875E-03 0.12500110E+03</pdfrwt>
<totfact> 0.21055162E+03</totfact>
</mgrwt>
</event>
<event>
 5    1  0.3191162E-002  0.1250205E+03  0.7818608E-02  0.1235037E+00
         -4   -1    0    0    0  501 -0.00000000000E+00  0.00000000000E+00  0.99520261837E+01  0.10032732687E+02  0.12700000000E+01 0.  1.
          4   -1    0    0  501    0  0.00000000000E+00 -0.00000000000E+00 -0.39096968532E+03  0.39097174801E+03  0.12700000000E+01 0.  1.
         25    2    1    2    0    0  0.00000000000E+00  0.00000000000E+00 -0.38101765914E+03  0.40100448069E+03  0.12502054616E+03 0.  0.
    9000005    1    3    3    0    0  0.32131882819E+02  0.53607461271E+02 -0.18870450087E+03  0.19878784280E+03  0.10000000000E+01 0.  0.
    9000005    1    3    3    0    0 -0.32131882819E+02 -0.53607461271E+02 -0.19231315827E+03  0.20221663789E+03  0.10000000000E+01 0.  0.
<mgrwt>
<rscale>  0 0.12502055E+03</rscale>
<asrwt>0</asrwt>
<pdfrwt beam="2">  1        4 0.60155537E-01 0.12502055E+03</pdfrwt>
<pdfrwt beam="1">  1       -4 0.15374481E-02 0.12502055E+03</pdfrwt>
<totfact> 0.64425991E+03</totfact>
</mgrwt>
</event>
<event>
 5    1  0.3191162E-002  0.1250019E+03  0.7818608E-02  0.1235066E+00
         -4   -1    0    0    0  501 -0.00000000000E+00  0.00000000000E+00  0.73250987105E+01  0.74343776551E+01  0.12700000000E+01 0.  1.
          4   -1    0    0  501    0  0.00000000000E+00 -0.00000000000E+00 -0.52922677480E+03  0.52922829862E+03  0.12700000000E+01 0.  1.
         25    2    1    2    0    0  0.00000000000E+00  0.00000000000E+00 -0.52190167609E+03  0.53666267628E+03  0.12500187441E+03 0.  0.
    9000005    1    3    3    0    0 -0.14579109826E+02 -0.60244713181E+01 -0.13422894877E+01  0.15863367834E+02  0.10000000000E+01 0.  0.
    9000005    1    3    3    0    0  0.14579109826E+02  0.60244713181E+01 -0.52055938660E+03  0.52079930844E+03  0.10000000000E+01 0.  0.
<mgrwt>
<rscale>  0 0.12500187E+03</rscale>
<asrwt>0</asrwt>
<pdfrwt beam="2">  1        4 0.81427997E-01 0.12500187E+03</pdfrwt>
<pdfrwt beam="1">  1       -4 0.11354620E-02 0.12500187E+03</pdfrwt>
<totfact> 0.53125751E+03</totfact>
</mgrwt>
</event>
<event>
 5    1  0.3191162E-002  0.1249924E+03  0.7818608E-02  0.1235081E+00
          4   -1    0    0  501    0  0.00000000000E+00  0.00000000000E+00  0.11035023339E+03  0.11035754124E+03  0.12700000000E+01 0.  1.
         -4   -1    0    0    0  501 -0.00000000000E+00 -0.00000000000E+00 -0.35374472102E+02  0.35397262274E+02  0.12700000000E+01 0.  1.
         25    2    1    2    0    0  0.00000000000E+00  0.00000000000E+00  0.74975761288E+02  0.14575480352E+03  0.12499239164E+03 0.  0.
    9000005    1    3    3    0    0  0.39359877057E+02 -0.27816305626E+02 -0.88908531961E+01  0.49020343238E+02  0.10000000000E+01 0.  0.
    9000005    1    3    3    0    0 -0.39359877057E+02  0.27816305626E+02  0.83866614484E+02  0.96734460279E+02  0.10000000000E+01 0.  0.
<mgrwt>
<rscale>  0 0.12499239E+03</rscale>
<asrwt>0</asrwt>
<pdfrwt beam="1">  1        4 0.16979274E-01 0.12499239E+03</pdfrwt>
<pdfrwt beam="2">  1       -4 0.54445418E-02 0.12499239E+03</pdfrwt>
<totfact> 0.10017391E+04</totfact>
</mgrwt>
</event>
<event>
 5    1  0.3191162E-002  0.1250009E+03  0.7818608E-02  0.1235068E+00
          4   -1    0    0  501    0  0.00000000000E+00  0.00000000000E+00  0.83906328888E+02  0.83915939651E+02  0.12700000000E+01 0.  1.
         -4   -1    0    0    0  501 -0.00000000000E+00 -0.00000000000E+00 -0.46534585237E+02  0.46551912133E+02  0.12700000000E+01 0.  1.
         25    2    1    2    0    0  0.00000000000E+00  0.00000000000E+00  0.37371743651E+02  0.13046785178E+03  0.12500085250E+03 0.  0.
    9000005    1    3    3    0    0 -0.33878725983E+01  0.57376126965E+02  0.44290511524E+02  0.72568223330E+02  0.10000000000E+01 0.  0.
    9000005    1    3    3    0    0  0.33878725983E+01 -0.57376126965E+02 -0.69187678729E+01  0.57899628454E+02  0.10000000000E+01 0.  0.
<mgrwt>
<rscale>  0 0.12500085E+03</rscale>
<asrwt>0</asrwt>
<pdfrwt beam="1">  1        4 0.12910738E-01 0.12500085E+03</pdfrwt>
<pdfrwt beam="2">  1       -4 0.71612391E-02 0.12500085E+03</pdfrwt>
<totfact> 0.10334310E+04</totfact>
</mgrwt>
</event>
<event>
 5    1  0.3191162E-002  0.1249967E+03  0.7818608E-02  0.1235075E+00
          4   -1    0    0  501    0  0.00000000000E+00  0.00000000000E+00  0.45034167764E+02  0.45052071719E+02  0.12700000000E+01 0.  1.
         -4   -1    0    0    0  501 -0.00000000000E+00 -0.00000000000E+00 -0.86695265261E+02  0.86704566885E+02  0.12700000000E+01 0.  1.
         25    2    1    2    0    0  0.00000000000E+00  0.00000000000E+00 -0.41661097498E+02  0.13175663860E+03  0.12499665904E+03 0.  0.
    9000005    1    3    3    0    0  0.15432816921E+02  0.58286861534E+02 -0.38135184079E+02  0.71349998811E+02  0.10000000000E+01 0.  0.
    9000005    1    3    3    0    0 -0.15432816921E+02 -0.58286861534E+02 -0.35259134193E+01  0.60406639793E+02  0.10000000000E+01 0.  0.
<mgrwt>
<rscale>  0 0.12499666E+03</rscale>
<asrwt>0</asrwt>
<pdfrwt beam="1">  1        4 0.69304262E-02 0.12499666E+03</pdfrwt>
<pdfrwt beam="2">  1       -4 0.13339826E-01 0.12499666E+03</pdfrwt>
<totfact> 0.10307672E+04</totfact>
</mgrwt>
</event>
<event>
 5    1  0.3191162E-002  0.1249991E+03  0.7818608E-02  0.1235071E+00
         -4   -1    0    0    0  501 -0.00000000000E+00  0.00000000000E+00  0.83841085368E+03  0.83841181556E+03  0.12700000000E+01 0. -1.
          4   -1    0    0  501    0  0.00000000000E+00 -0.00000000000E+00 -0.45715130555E+01  0.47446424119E+01  0.12700000000E+01 0. -1.
         25    2    1    2    0    0  0.00000000000E+00  0.00000000000E+00  0.83383934062E+03  0.84315645797E+03  0.12499906657E+03 0.  0.
    9000005    1    3    3    0    0  0.38944805297E+02  0.44854031239E+02  0.54782192948E+03  0.55103398116E+03  0.10000000000E+01 0.  0.
    9000005    1    3    3    0    0 -0.38944805297E+02 -0.44854031239E+02  0.28601741115E+03  0.29212247681E+03  0.10000000000E+01 0.  0.
<mgrwt>
<rscale>  0 0.12499907E+03</rscale>
<asrwt>0</asrwt>
<pdfrwt beam="2">  1        4 0.71670185E-03 0.12499907E+03</pdfrwt>
<pdfrwt beam="1">  1       -4 0.12899958E+00 0.12499907E+03</pdfrwt>
<totfact> 0.36409782E+03</totfact>
</mgrwt>
</event>
<event>
 5    1  0.3191162E-002  0.1249925E+03  0.7818608E-02  0.1235081E+00
         -4   -1    0    0    0  501 -0.00000000000E+00  0.00000000000E+00  0.16572043801E+02  0.16620635840E+02  0.12700000000E+01 0.  1.
          4   -1    0    0  501    0  0.00000000000E+00 -0.00000000000E+00 -0.23528972845E+03  0.23529315590E+03  0.12700000000E+01 0.  1.
         25    2    1    2    0    0  0.00000000000E+00  0.00000000000E+00 -0.21871768465E+03  0.25191379174E+03  0.12499253134E+03 0.  0.
    9000005    1    3    3    0    0 -0.59111148562E+02  0.19990787591E+02 -0.10266720247E+03  0.12014705130E+03  0.10000000000E+01 0.  0.
    9000005    1    3    3    0    0  0.59111148562E+02 -0.19990787591E+02 -0.11605048217E+03  0.13176674044E+03  0.10000000000E+01 0.  0.
<mgrwt>
<rscale>  0 0.12499253E+03</rscale>
<asrwt>0</asrwt>
<pdfrwt beam="2">  1        4 0.36202419E-01 0.12499253E+03</pdfrwt>
<pdfrwt beam="1">  1       -4 0.25535469E-02 0.12499253E+03</pdfrwt>
<totfact> 0.82068062E+03</totfact>
</mgrwt>
</event>
<event>
 5    1  0.3191162E-002  0.1249955E+03  0.7818608E-02  0.1235076E+00
          4   -1    0    0  501    0  0.00000000000E+00  0.00000000000E+00  0.16496693147E+03  0.16497181996E+03  0.12700000000E+01 0.  1.
         -4   -1    0    0    0  501 -0.00000000000E+00 -0.00000000000E+00 -0.23655003855E+02  0.23689071476E+02  0.12700000000E+01 0.  1.
         25    2    1    2    0    0  0.00000000000E+00  0.00000000000E+00  0.14131192762E+03  0.18866089143E+03  0.12499548419E+03 0.  0.
    9000005    1    3    3    0    0  0.21458723329E+02 -0.40849612332E+02  0.70519386051E+01  0.46689372160E+02  0.10000000000E+01 0.  0.
    9000005    1    3    3    0    0 -0.21458723329E+02  0.40849612332E+02  0.13425998901E+03  0.14197151927E+03  0.10000000000E+01 0.  0.
<mgrwt>
<rscale>  0 0.12499548E+03</rscale>
<asrwt>0</asrwt>
<pdfrwt beam="1">  1        4 0.25382524E-01 0.12499548E+03</pdfrwt>
<pdfrwt beam="2">  1       -4 0.36422280E-02 0.12499548E+03</pdfrwt>
<totfact> 0.92090154E+03</totfact>
</mgrwt>
</event>
<event>
 5    1  0.3191162E-002  0.1250364E+03  0.7818608E-02  0.1235012E+00
         -4   -1    0    0    0  501 -0.00000000000E+00  0.00000000000E+00  0.44474312287E+03  0.44474493616E+03  0.12700000000E+01 0. -1.
          4   -1    0    0  501    0  0.00000000000E+00 -0.00000000000E+00 -0.87405516298E+01  0.88323350702E+01  0.12700000000E+01 0. -1.
         25    2    1    2    0    0  0.00000000000E+00  0.00000000000E+00  0.43600257124E+03  0.45357727123E+03  0.12503639010E+03 0.  0.
    9000005    1    3    3    0    0  0.49256664576E+02 -0.23280604954E+02  0.32917994761E+03  0.33365947233E+03  0.10000000000E+01 0.  0.
    9000005    1    3    3    0    0 -0.49256664576E+02  0.23280604954E+02  0.10682262363E+03  0.11991779890E+03  0.10000000000E+01 0.  0.
<mgrwt>
<rscale>  0 0.12503639E+03</rscale>
<asrwt>0</asrwt>
<pdfrwt beam="2">  1        4 0.13519000E-02 0.12503639E+03</pdfrwt>
<pdfrwt beam="1">  1       -4 0.68429220E-01 0.12503639E+03</pdfrwt>
<totfact> 0.59607356E+03</totfact>
</mgrwt>
</event>
<event>
 5    1  0.3191162E-002  0.1249973E+03  0.7818608E-02  0.1235074E+00
          4   -1    0    0  501    0  0.00000000000E+00  0.00000000000E+00  0.70164682940E+02  0.70176175673E+02  0.12700000000E+01 0.  1.
         -4   -1    0    0    0  501 -0.00000000000E+00 -0.00000000000E+00 -0.55646866524E+02  0.55661356918E+02  0.12700000000E+01 0.  1.
         25    2    1    2    0    0  0.00000000000E+00  0.00000000000E+00  0.14517816416E+02  0.12583753259E+03  0.12499727043E+03 0.  0.
    9000005    1    3    3    0    0 -0.49763616557E+02  0.16672553205E+02 -0.26890912399E+02  0.58978917698E+02  0.10000000000E+01 0.  0.
    9000005    1    3    3    0    0  0.49763616557E+02 -0.16672553205E+02  0.41408728816E+02  0.66858614893E+02  0.10000000000E+01 0.  0.
<mgrwt>
<rscale>  0 0.12499727E+03</rscale>
<asrwt>0</asrwt>
<pdfrwt beam="1">  1        4 0.10796565E-01 0.12499727E+03</pdfrwt>
<pdfrwt beam="2">  1       -4 0.85630551E-02 0.12499727E+03</pdfrwt>
<totfact> 0.10435164E+04</totfact>
</mgrwt>
</event>
<event>
 5    1  0.3191162E-002  0.1249993E+03  0.7818608E-02  0.1235070E+00
         -4   -1    0    0    0  501 -0.00000000000E+00  0.00000000000E+00  0.62009649852E+02  0.62022653722E+02  0.12700000000E+01 0.  1.
          4   -1    0    0  501    0  0.00000000000E+00 -0.00000000000E+00 -0.62967505960E+02  0.62980312057E+02  0.12700000000E+01 0.  1.
         25    2    1    2    0    0  0.00000000000E+00  0.00000000000E+00 -0.95785610836E+00  0.12500296578E+03  0.12499929586E+03 0.  0.
    9000005    1    3    3    0    0 -0.26730870566E+02  0.12833520395E+01  0.55994134698E+02  0.62068748612E+02  0.10000000000E+01 0.  0.
    9000005    1    3    3    0    0  0.26730870566E+02 -0.12833520395E+01 -0.56951990806E+02  0.62934217168E+02  0.10000000000E+01 0.  0.
<mgrwt>
<rscale>  0 0.12499930E+03</rscale>
<asrwt>0</asrwt>
<pdfrwt beam="2">  1        4 0.96892940E-02 0.12499930E+03</pdfrwt>
<pdfrwt beam="1">  1       -4 0.95419315E-02 0.12499930E+03</pdfrwt>
<totfact> 0.10452964E+04</totfact>
</mgrwt>
</event>
<event>
 5    1  0.3191162E-002  0.1249990E+03  0.7818608E-02  0.1235071E+00
          4   -1    0    0  501    0  0.00000000000E+00  0.00000000000E+00  0.86405242447E+01  0.87333589886E+01  0.12700000000E+01 0. -1.
         -4   -1    0    0    0  501 -0.00000000000E+00 -0.00000000000E+00 -0.44956855307E+03  0.44957034690E+03  0.12700000000E+01 0. -1.
         25    2    1    2    0    0  0.00000000000E+00  0.00000000000E+00 -0.44092802883E+03  0.45830370589E+03  0.12499904090E+03 0.  0.
    9000005    1    3    3    0    0 -0.35695225265E+01 -0.30164554601E+02 -0.20228815050E+02  0.36508174477E+02  0.10000000000E+01 0.  0.
    9000005    1    3    3    0    0  0.35695225265E+01  0.30164554601E+02 -0.42069921378E+03  0.42179553141E+03  0.10000000000E+01 0.  0.
<mgrwt>
<rscale>  0 0.12499904E+03</rscale>
<asrwt>0</asrwt>
<pdfrwt beam="1">  1        4 0.13365909E-02 0.12499904E+03</pdfrwt>
<pdfrwt beam="2">  1       -4 0.69171654E-01 0.12499904E+03</pdfrwt>
<totfact> 0.59252395E+03</totfact>
</mgrwt>
</event>
<event>
 5    1  0.3191162E-002  0.1249983E+03  0.7818608E-02  0.1235072E+00
         -4   -1    0    0    0  501 -0.00000000000E+00  0.00000000000E+00  0.66837267049E+02  0.66849331833E+02  0.12700000000E+01 0. -1.
          4   -1    0    0  501    0  0.00000000000E+00 -0.00000000000E+00 -0.58418364649E+02  0.58432167752E+02  0.12700000000E+01 0. -1.
         25    2    1    2    0    0  0.00000000000E+00  0.00000000000E+00  0.84189024003E+01  0.12528149959E+03  0.12499830487E+03 0.  0.
    9000005    1    3    3    0    0  0.14221099269E+02  0.46589139292E+02 -0.35024561270E+02  0.60004228656E+02  0.10000000000E+01 0.  0.
    9000005    1    3    3    0    0 -0.14221099269E+02 -0.46589139292E+02  0.43443463670E+02  0.65277270930E+02  0.10000000000E+01 0.  0.
<mgrwt>
<rscale>  0 0.12499830E+03</rscale>
<asrwt>0</asrwt>
<pdfrwt beam="2">  1        4 0.89894305E-02 0.12499830E+03</pdfrwt>
<pdfrwt beam="1">  1       -4 0.10284646E-01 0.12499830E+03</pdfrwt>
<totfact> 0.10447152E+04</totfact>
</mgrwt>
</event>
<event>
 5    1  0.3191162E-002  0.1249976E+03  0.7818608E-02  0.1235073E+00
          4   -1    0    0  501    0  0.00000000000E+00  0.00000000000E+00  0.10477685778E+04  0.10477693475E+04  0.12700000000E+01 0.  1.
         -4   -1    0    0    0  501 -0.00000000000E+00 -0.00000000000E+00 -0.36190622915E+01  0.38354285119E+01  0.12700000000E+01 0.  1.
         25    2    1    2    0    0  0.00000000000E+00  0.00000000000E+00  0.10441495155E+04  0.10516047760E+04  0.12499757661E+03 0.  0.
    9000005    1    3    3    0    0  0.60114199961E+02 -0.42835781835E+01  0.38306089917E+03  0.38777405606E+03  0.10000000000E+01 0.  0.
    9000005    1    3    3    0    0 -0.60114199961E+02  0.42835781835E+01  0.66108861632E+03  0.66383071991E+03  0.10000000000E+01 0.  0.
<mgrwt>
<rscale>  0 0.12499758E+03</rscale>
<asrwt>0</asrwt>
<pdfrwt beam="1">  1        4 0.16121192E+00 0.12499758E+03</pdfrwt>
<pdfrwt beam="2">  1       -4 0.57348140E-03 0.12499758E+03</pdfrwt>
<totfact> 0.28946232E+03</totfact>
</mgrwt>
</event>
<event>
 5    1  0.3191162E-002  0.1249981E+03  0.7818608E-02  0.1235072E+00
          4   -1    0    0  501    0  0.00000000000E+00  0.00000000000E+00  0.46162058931E+01  0.47877193785E+01  0.12700000000E+01 0. -1.
         -4   -1    0    0    0  501 -0.00000000000E+00 -0.00000000000E+00 -0.83057242195E+03  0.83057339290E+03  0.12700000000E+01 0. -1.
         25    2    1    2    0    0  0.00000000000E+00  0.00000000000E+00 -0.82595621606E+03  0.83536111228E+03  0.12499806828E+03 0.  0.
    9000005    1    3    3    0    0  0.53400934447E+02  0.21592975360E+02 -0.25103266178E+03  0.25755836944E+03  0.10000000000E+01 0.  0.
    9000005    1    3    3    0    0 -0.53400934447E+02 -0.21592975360E+02 -0.57492355427E+03  0.57780274285E+03  0.10000000000E+01 0.  0.
<mgrwt>
<rscale>  0 0.12499807E+03</rscale>
<asrwt>0</asrwt>
<pdfrwt beam="1">  1        4 0.72345422E-03 0.12499807E+03</pdfrwt>
<pdfrwt beam="2">  1       -4 0.12779352E+00 0.12499807E+03</pdfrwt>
<totfact> 0.36735543E+03</totfact>
</mgrwt>
</event>
<event>
 5    1  0.3191162E-002  0.1249971E+03  0.7818608E-02  0.1235074E+00
         -4   -1    0    0    0  501 -0.00000000000E+00  0.00000000000E+00  0.17796334437E+03  0.17796787586E+03  0.12700000000E+01 0. -1.
          4   -1    0    0  501    0  0.00000000000E+00 -0.00000000000E+00 -0.21925535062E+02  0.21962285577E+02  0.12700000000E+01 0. -1.
         25    2    1    2    0    0  0.00000000000E+00  0.00000000000E+00  0.15603780931E+03  0.19993016144E+03  0.12499708604E+03 0.  0.
    9000005    1    3    3    0    0 -0.36600166658E+02  0.95598094204E+01  0.15757758210E+03  0.16205757167E+03  0.10000000000E+01 0.  0.
    9000005    1    3    3    0    0  0.36600166658E+02 -0.95598094204E+01 -0.15397727919E+01  0.37872589769E+02  0.10000000000E+01 0.  0.
<mgrwt>
<rscale>  0 0.12499709E+03</rscale>
<asrwt>0</asrwt>
<pdfrwt beam="2">  1        4 0.33763348E-02 0.12499709E+03</pdfrwt>
<pdfrwt beam="1">  1       -4 0.27382151E-01 0.12499709E+03</pdfrwt>
<totfact> 0.90153165E+03</totfact>
</mgrwt>
</event>
<event>
 5    1  0.3191162E-002  0.1250029E+03  0.7818608E-02  0.1235065E+00
         -4   -1    0    0    0  501 -0.00000000000E+00  0.00000000000E+00  0.40491508125E+02  0.40511419751E+02  0.12700000000E+01 0.  1.
          4   -1    0    0  501    0  0.00000000000E+00 -0.00000000000E+00 -0.96427468924E+02  0.96435831843E+02  0.12700000000E+01 0.  1.
         25    2    1    2    0    0  0.00000000000E+00  0.00000000000E+00 -0.55935960800E+02  0.13694725159E+03  0.12500287200E+03 0.  0.
    9000005    1    3    3    0    0  0.29990407443E+02 -0.26896795237E+02 -0.80309355940E+02  0.89852405556E+02  0.10000000000E+01 0.  0.
    9000005    1    3    3    0    0 -0.29990407443E+02  0.26896795237E+02  0.24373395140E+02  0.47094846038E+02  0.10000000000E+01 0.  0.
<mgrwt>
<rscale>  0 0.12500287E+03</rscale>
<asrwt>0</asrwt>
<pdfrwt beam="2">  1        4 0.14837170E-01 0.12500287E+03</pdfrwt>
<pdfrwt beam="1">  1       -4 0.62316378E-02 0.12500287E+03</pdfrwt>
<totfact> 0.10196529E+04</totfact>
</mgrwt>
</event>
<event>
 5    1  0.3191162E-002  0.1250015E+03  0.7818608E-02  0.1235067E+00
          4   -1    0    0  501    0  0.00000000000E+00  0.00000000000E+00  0.27676751572E+02  0.27705874424E+02  0.12700000000E+01 0.  1.
         -4   -1    0    0    0  501 -0.00000000000E+00 -0.00000000000E+00 -0.14103542723E+03  0.14104114518E+03  0.12700000000E+01 0.  1.
         25    2    1    2    0    0  0.00000000000E+00  0.00000000000E+00 -0.11335867565E+03  0.16874701960E+03  0.12500146910E+03 0.  0.
    9000005    1    3    3    0    0  0.55082175546E+02  0.26186221159E+02 -0.38289252464E+02  0.72019657703E+02  0.10000000000E+01 0.  0.
    9000005    1    3    3    0    0 -0.55082175546E+02 -0.26186221159E+02 -0.75069423191E+02  0.96727361898E+02  0.10000000000E+01 0.  0.
<mgrwt>
<rscale>  0 0.12500147E+03</rscale>
<asrwt>0</asrwt>
<pdfrwt beam="1">  1        4 0.42606419E-02 0.12500147E+03</pdfrwt>
<pdfrwt beam="2">  1       -4 0.21700438E-01 0.12500147E+03</pdfrwt>
<totfact> 0.95679278E+03</totfact>
</mgrwt>
</event>
<event>
 5    1  0.3191162E-002  0.1250002E+03  0.7818608E-02  0.1235069E+00
         -4   -1    0    0    0  501 -0.00000000000E+00  0.00000000000E+00  0.43001901515E+02  0.43020651250E+02  0.12700000000E+01 0. -1.
          4   -1    0    0  501    0  0.00000000000E+00 -0.00000000000E+00 -0.90796300455E+02  0.90805181990E+02  0.12700000000E+01 0. -1.
         25    2    1    2    0    0  0.00000000000E+00  0.00000000000E+00 -0.47794398939E+02  0.13382583324E+03  0.12500019629E+03 0.  0.
    9000005    1    3    3    0    0  0.24986023296E+02  0.57278985224E+02 -0.24197655717E+02  0.67020221207E+02  0.10000000000E+01 0.  0.
    9000005    1    3    3    0    0 -0.24986023296E+02 -0.57278985224E+02 -0.23596743223E+02  0.66805612033E+02  0.10000000000E+01 0.  0.
<mgrwt>
<rscale>  0 0.12500020E+03</rscale>
<asrwt>0</asrwt>
<pdfrwt beam="2">  1        4 0.13970787E-01 0.12500020E+03</pdfrwt>
<pdfrwt beam="1">  1       -4 0.66178027E-02 0.12500020E+03</pdfrwt>
<totfact> 0.10262834E+04</totfact>
</mgrwt>
</event>
<event>
 5    1  0.3191162E-002  0.1250000E+03  0.7818608E-02  0.1235069E+00
         -4   -1    0    0    0  501 -0.00000000000E+00  0.00000000000E+00  0.95095896760E+01  0.95940187516E+01  0.12700000000E+01 0.  1.
          4   -1    0    0  501    0  0.00000000000E+00 -0.00000000000E+00 -0.40886892819E+03  0.40887090057E+03  0.12700000000E+01 0.  1.
         25    2    1    2    0    0  0.00000000000E+00  0.00000000000E+00 -0.39935933851E+03  0.41846491933E+03  0.12500002980E+03 0.  0.
    9000005    1    3    3    0    0 -0.62383885651E+02 -0.58653967333E-01 -0.18737971508E+03  0.19749407650E+03  0.10000000000E+01 0.  0.
    9000005    1    3    3    0    0  0.62383885651E+02  0.58653967333E-01 -0.21197962343E+03  0.22097084283E+03  0.10000000000E+01 0.  0.
<mgrwt>
<rscale>  0 0.12500003E+03</rscale>
<asrwt>0</asrwt>
<pdfrwt beam="2">  1        4 0.62909545E-01 0.12500003E+03</pdfrwt>
<pdfrwt beam="1">  1       -4 0.14696604E-02 0.12500003E+03</pdfrwt>
<totfact> 0.62795642E+03</totfact>
</mgrwt>
</event>
<event>
 5    1  0.3191162E-002  0.1249988E+03  0.7818608E-02  0.1235071E+00
          4   -1    0    0  501    0  0.00000000000E+00  0.00000000000E+00  0.26420101050E+02  0.26450607545E+02  0.12700000000E+01 0.  1.
         -4   -1    0    0    0  501 -0.00000000000E+00 -0.00000000000E+00 -0.14773011925E+03  0.14773557809E+03  0.12700000000E+01 0.  1.
         25    2    1    2    0    0  0.00000000000E+00  0.00000000000E+00 -0.12131001820E+03  0.17418618563E+03  0.12499882699E+03 0.  0.
    9000005    1    3    3    0    0  0.20211666394E+02 -0.53901658779E+02 -0.94539662490E+02  0.11069168018E+03  0.10000000000E+01 0.  0.
    9000005    1    3    3    0    0 -0.20211666394E+02  0.53901658779E+02 -0.26770355706E+02  0.63494505449E+02  0.10000000000E+01 0.  0.
<mgrwt>
<rscale>  0 0.12499883E+03</rscale>
<asrwt>0</asrwt>
<pdfrwt beam="1">  1        4 0.40673976E-02 0.12499883E+03</pdfrwt>
<pdfrwt beam="2">  1       -4 0.22730477E-01 0.12499883E+03</pdfrwt>
<totfact> 0.94676592E+03</totfact>
</mgrwt>
</event>
<event>
 5    1  0.3191162E-002  0.1250022E+03  0.7818608E-02  0.1235066E+00
         -4   -1    0    0    0  501 -0.00000000000E+00  0.00000000000E+00  0.20868163744E+02  0.20906773018E+02  0.12700000000E+01 0.  1.
          4   -1    0    0  501    0  0.00000000000E+00 -0.00000000000E+00 -0.18697999006E+03  0.18698430304E+03  0.12700000000E+01 0.  1.
         25    2    1    2    0    0  0.00000000000E+00  0.00000000000E+00 -0.16611182631E+03  0.20789107605E+03  0.12500224263E+03 0.  0.
    9000005    1    3    3    0    0 -0.40084392414E+02 -0.37868548432E+02 -0.34153888980E+02  0.64871207851E+02  0.10000000000E+01 0.  0.
    9000005    1    3    3    0    0  0.40084392414E+02  0.37868548432E+02 -0.13195793733E+03  0.14301986820E+03  0.10000000000E+01 0.  0.
<mgrwt>
<rscale>  0 0.12500224E+03</rscale>
<asrwt>0</asrwt>
<pdfrwt beam="2">  1        4 0.28769453E-01 0.12500224E+03</pdfrwt>
<pdfrwt beam="1">  1       -4 0.32137886E-02 0.12500224E+03</pdfrwt>
<totfact> 0.88817004E+03</totfact>
</mgrwt>
</event>
<event>
 5    1  0.3191162E-002  0.1250011E+03  0.7818608E-02  0.1235068E+00
          4   -1    0    0  501    0  0.00000000000E+00  0.00000000000E+00  0.20184936452E+03  0.20185335979E+03  0.12700000000E+01 0.  1.
         -4   -1    0    0    0  501 -0.00000000000E+00 -0.00000000000E+00 -0.19327605310E+02  0.19369285661E+02  0.12700000000E+01 0.  1.
         25    2    1    2    0    0  0.00000000000E+00  0.00000000000E+00  0.18252175921E+03  0.22122264545E+03  0.12500106509E+03 0.  0.
    9000005    1    3    3    0    0 -0.19726585279E+02 -0.58569932231E+02  0.74873434321E+02  0.97090711684E+02  0.10000000000E+01 0.  0.
    9000005    1    3    3    0    0  0.19726585279E+02  0.58569932231E+02  0.10764832489E+03  0.12413193376E+03  0.10000000000E+01 0.  0.
<mgrwt>
<rscale>  0 0.12500107E+03</rscale>
<asrwt>0</asrwt>
<pdfrwt beam="1">  1        4 0.31057262E-01 0.12500107E+03</pdfrwt>
<pdfrwt beam="2">  1       -4 0.29769912E-02 0.12500107E+03</pdfrwt>
<totfact> 0.86673188E+03</totfact>
</mgrwt>
</event>
<event>
 5    1  0.3191162E-002  0.1250137E+03  0.7818608E-02  0.1235048E+00
          4   -1    0    0  501    0  0.00000000000E+00  0.00000000000E+00  0.58435030163E+02  0.58448829331E+02  0.12700000000E+01 0. -1.
         -4   -1    0    0    0  501 -0.00000000000E+00 -0.00000000000E+00 -0.66834707461E+02  0.66846772707E+02  0.12700000000E+01 0. -1.
         25    2    1    2    0    0  0.00000000000E+00  0.00000000000E+00 -0.83996772973E+01  0.12529560204E+03  0.12501373249E+03 0.  0.
    9000005    1    3    3    0    0  0.30631568326E+02  0.33750654778E+02  0.38659983551E+02  0.59774526382E+02  0.10000000000E+01 0.  0.
    9000005    1    3    3    0    0 -0.30631568326E+02 -0.33750654778E+02 -0.47059660848E+02  0.65521075657E+02  0.10000000000E+01 0.  0.
<mgrwt>
<rscale>  0 0.12501373E+03</rscale>
<asrwt>0</asrwt>
<pdfrwt beam="1">  1        4 0.89919942E-02 0.12501373E+03</pdfrwt>
<pdfrwt beam="2">  1       -4 0.10284252E-01 0.12501373E+03</pdfrwt>
<totfact> 0.10443204E+04</totfact>
</mgrwt>
</event>
<event>
 5    1  0.3191162E-002  0.1250053E+03  0.7818608E-02  0.1235061E+00
         -4   -1    0    0    0  501 -0.00000000000E+00  0.00000000000E+00  0.57117417649E+03  0.57117558840E+03  0.12700000000E+01 0.  1.
          4   -1    0    0  501    0  0.00000000000E+00 -0.00000000000E+00 -0.67791699832E+01  0.68971041503E+01  0.12700000000E+01 0.  1.
         25    2    1    2    0    0  0.00000000000E+00  0.00000000000E+00  0.56439500650E+03  0.57807269255E+03  0.12500525792E+03 0.  0.
    9000005    1    3    3    0    0 -0.20763574994E+02  0.18263358916E+02  0.54136550946E+03  0.54207221951E+03  0.10000000000E+01 0.  0.
    9000005    1    3    3    0    0  0.20763574994E+02 -0.18263358916E+02  0.23029497040E+02  0.36000473043E+02  0.10000000000E+01 0.  0.
<mgrwt>
<rscale>  0 0.12500526E+03</rscale>
<asrwt>0</asrwt>
<pdfrwt beam="2">  1        4 0.10521298E-02 0.12500526E+03</pdfrwt>
<pdfrwt beam="1">  1       -4 0.87882126E-01 0.12500526E+03</pdfrwt>
<totfact> 0.50275840E+03</totfact>
</mgrwt>
</event>
<event>
 5    1  0.3191162E-002  0.1249917E+03  0.7818608E-02  0.1235082E+00
         -4   -1    0    0    0  501 -0.00000000000E+00  0.00000000000E+00  0.57726021736E+02  0.57739990348E+02  0.12700000000E+01 0. -1.
          4   -1    0    0  501    0  0.00000000000E+00 -0.00000000000E+00 -0.67631660679E+02  0.67643583777E+02  0.12700000000E+01 0. -1.
         25    2    1    2    0    0  0.00000000000E+00  0.00000000000E+00 -0.99056389435E+01  0.12538357413E+03  0.12499167563E+03 0.  0.
    9000005    1    3    3    0    0  0.39032731679E+02 -0.41249784118E+02 -0.31104290151E+02  0.64757823449E+02  0.10000000000E+01 0.  0.
    9000005    1    3    3    0    0 -0.39032731679E+02  0.41249784118E+02  0.21198651207E+02  0.60625750677E+02  0.10000000000E+01 0.  0.
<mgrwt>
<rscale>  0 0.12499168E+03</rscale>
<asrwt>0</asrwt>
<pdfrwt beam="2">  1        4 0.10406863E-01 0.12499168E+03</pdfrwt>
<pdfrwt beam="1">  1       -4 0.88829181E-02 0.12499168E+03</pdfrwt>
<totfact> 0.10446492E+04</totfact>
</mgrwt>
</event>
<event>
 5    1  0.3191162E-002  0.1250004E+03  0.7818608E-02  0.1235069E+00
          4   -1    0    0  501    0  0.00000000000E+00  0.00000000000E+00  0.10347861016E+03  0.10348640326E+03  0.12700000000E+01 0. -1.
         -4   -1    0    0    0  501 -0.00000000000E+00 -0.00000000000E+00 -0.37729709421E+02  0.37751077773E+02  0.12700000000E+01 0. -1.
         25    2    1    2    0    0  0.00000000000E+00  0.00000000000E+00  0.65748900736E+02  0.14123748104E+03  0.12500043240E+03 0.  0.
    9000005    1    3    3    0    0 -0.41193984034E+02  0.43175089514E+02  0.53838339711E+02  0.80377854525E+02  0.10000000000E+01 0.  0.
    9000005    1    3    3    0    0  0.41193984034E+02 -0.43175089514E+02  0.11910561025E+02  0.60859626511E+02  0.10000000000E+01 0.  0.
<mgrwt>
<rscale>  0 0.12500043E+03</rscale>
<asrwt>0</asrwt>
<pdfrwt beam="1">  1        4 0.15922029E-01 0.12500043E+03</pdfrwt>
<pdfrwt beam="2">  1       -4 0.58068139E-02 0.12500043E+03</pdfrwt>
<totfact> 0.10107904E+04</totfact>
</mgrwt>
</event>
<event>
 5    1  0.3191162E-002  0.1249994E+03  0.7818608E-02  0.1235070E+00
         -4   -1    0    0    0  501 -0.00000000000E+00  0.00000000000E+00  0.73029603558E+02  0.73040645505E+02  0.12700000000E+01 0. -1.
          4   -1    0    0  501    0  0.00000000000E+00 -0.00000000000E+00 -0.53465432583E+02  0.53480514034E+02  0.12700000000E+01 0. -1.
         25    2    1    2    0    0  0.00000000000E+00  0.00000000000E+00  0.19564170975E+02  0.12652115954E+03  0.12499938810E+03 0.  0.
    9000005    1    3    3    0    0 -0.72676224838E+01  0.61992424878E+02  0.12874220183E+02  0.63738721545E+02  0.10000000000E+01 0.  0.
    9000005    1    3    3    0    0  0.72676224838E+01 -0.61992424878E+02  0.66899507920E+01  0.62782437994E+02  0.10000000000E+01 0.  0.
<mgrwt>
<rscale>  0 0.12499939E+03</rscale>
<asrwt>0</asrwt>
<pdfrwt beam="2">  1        4 0.82274607E-02 0.12499939E+03</pdfrwt>
<pdfrwt beam="1">  1       -4 0.11237333E-01 0.12499939E+03</pdfrwt>
<totfact> 0.10419711E+04</totfact>
</mgrwt>
</event>
<event>
 5    1  0.3191162E-002  0.1249992E+03  0.7818608E-02  0.1235070E+00
          4   -1    0    0  501    0  0.00000000000E+00  0.00000000000E+00  0.14519084387E+02  0.14574522683E+02  0.12700000000E+01 0. -1.
         -4   -1    0    0    0  501 -0.00000000000E+00 -0.00000000000E+00 -0.26846956067E+03  0.26847256453E+03  0.12700000000E+01 0. -1.
         25    2    1    2    0    0  0.00000000000E+00  0.00000000000E+00 -0.25395047628E+03  0.28304708721E+03  0.12499923670E+03 0.  0.
    9000005    1    3    3    0    0  0.44034529053E+02  0.44266073978E+02 -0.12112397254E+03  0.13627377510E+03  0.10000000000E+01 0.  0.
    9000005    1    3    3    0    0 -0.44034529053E+02 -0.44266073978E+02 -0.13282650374E+03  0.14677331212E+03  0.10000000000E+01 0.  0.
<mgrwt>
<rscale>  0 0.12499924E+03</rscale>
<asrwt>0</asrwt>
<pdfrwt beam="1">  1        4 0.22382010E-02 0.12499924E+03</pdfrwt>
<pdfrwt beam="2">  1       -4 0.41307501E-01 0.12499924E+03</pdfrwt>
<totfact> 0.77777132E+03</totfact>
</mgrwt>
</event>
<event>
 5    1  0.3191162E-002  0.1250008E+03  0.7818608E-02  0.1235068E+00
          4   -1    0    0  501    0  0.00000000000E+00  0.00000000000E+00  0.56973900448E+01  0.58372213700E+01  0.12700000000E+01 0.  1.
         -4   -1    0    0    0  501 -0.00000000000E+00 -0.00000000000E+00 -0.67717713588E+03  0.67717832678E+03  0.12700000000E+01 0.  1.
         25    2    1    2    0    0  0.00000000000E+00  0.00000000000E+00 -0.67147974583E+03  0.68301554815E+03  0.12500075978E+03 0.  0.
    9000005    1    3    3    0    0 -0.49472416878E+02  0.30014865697E+02 -0.20679597007E+03  0.21474167139E+03  0.10000000000E+01 0.  0.
    9000005    1    3    3    0    0  0.49472416878E+02 -0.30014865697E+02 -0.46468377576E+03  0.46827387675E+03  0.10000000000E+01 0.  0.
<mgrwt>
<rscale>  0 0.12500076E+03</rscale>
<asrwt>0</asrwt>
<pdfrwt beam="1">  1        4 0.88736994E-03 0.12500076E+03</pdfrwt>
<pdfrwt beam="2">  1       -4 0.10419188E+00 0.12500076E+03</pdfrwt>
<totfact> 0.43997866E+03</totfact>
</mgrwt>
</event>
<event>
 5    1  0.3191162E-002  0.1250004E+03  0.7818608E-02  0.1235069E+00
          4   -1    0    0  501    0  0.00000000000E+00  0.00000000000E+00  0.29990653942E+03  0.29990922841E+03  0.12700000000E+01 0.  1.
         -4   -1    0    0    0  501 -0.00000000000E+00 -0.00000000000E+00 -0.12991263324E+02  0.13053192053E+02  0.12700000000E+01 0.  1.
         25    2    1    2    0    0  0.00000000000E+00  0.00000000000E+00  0.28691527610E+03  0.31296242047E+03  0.12500040386E+03 0.  0.
    9000005    1    3    3    0    0  0.47795396293E+02  0.38441835631E+02  0.11350731469E+03  0.12902358359E+03  0.10000000000E+01 0.  0.
    9000005    1    3    3    0    0 -0.47795396293E+02 -0.38441835631E+02  0.17340796140E+03  0.18393883688E+03  0.10000000000E+01 0.  0.
<mgrwt>
<rscale>  0 0.12500040E+03</rscale>
<asrwt>0</asrwt>
<pdfrwt beam="1">  1        4 0.46144436E-01 0.12500040E+03</pdfrwt>
<pdfrwt beam="2">  1       -4 0.20036266E-02 0.12500040E+03</pdfrwt>
<totfact> 0.74000382E+03</totfact>
</mgrwt>
</event>
<event>
 5    1  0.3191162E-002  0.1249973E+03  0.7818608E-02  0.1235073E+00
         -4   -1    0    0    0  501 -0.00000000000E+00  0.00000000000E+00  0.29245969868E+03  0.29246245614E+03  0.12700000000E+01 0.  1.
          4   -1    0    0  501    0  0.00000000000E+00 -0.00000000000E+00 -0.13322953726E+02  0.13383347712E+02  0.12700000000E+01 0.  1.
         25    2    1    2    0    0  0.00000000000E+00  0.00000000000E+00  0.27913674495E+03  0.30584580385E+03  0.12499733337E+03 0.  0.
    9000005    1    3    3    0    0 -0.58213356448E+02  0.41786208366E+01  0.84920027445E+02  0.10304691554E+03  0.10000000000E+01 0.  0.
    9000005    1    3    3    0    0  0.58213356448E+02 -0.41786208366E+01  0.19421671751E+03  0.20279888831E+03  0.10000000000E+01 0.  0.
<mgrwt>
<rscale>  0 0.12499733E+03</rscale>
<asrwt>0</asrwt>
<pdfrwt beam="2">  1        4 0.20545428E-02 0.12499733E+03</pdfrwt>
<pdfrwt beam="1">  1       -4 0.44998661E-01 0.12499733E+03</pdfrwt>
<totfact> 0.74875781E+03</totfact>
</mgrwt>
</event>
<event>
 5    1  0.3191162E-002  0.1249927E+03  0.7818608E-02  0.1235081E+00
         -4   -1    0    0    0  501 -0.00000000000E+00  0.00000000000E+00  0.12673291700E+03  0.12673928022E+03  0.12700000000E+01 0. -1.
          4   -1    0    0  501    0  0.00000000000E+00 -0.00000000000E+00 -0.30798855573E+02  0.30825028866E+02  0.12700000000E+01 0. -1.
         25    2    1    2    0    0  0.00000000000E+00  0.00000000000E+00  0.95934061426E+02  0.15756430909E+03  0.12499266921E+03 0.  0.
    9000005    1    3    3    0    0 -0.56447679499E+02 -0.14909885722E+02  0.19888244635E+02  0.61686201762E+02  0.10000000000E+01 0.  0.
    9000005    1    3    3    0    0  0.56447679499E+02  0.14909885722E+02  0.76045816791E+02  0.95878107326E+02  0.10000000000E+01 0.  0.
<mgrwt>
<rscale>  0 0.12499267E+03</rscale>
<asrwt>0</asrwt>
<pdfrwt beam="2">  1        4 0.47407882E-02 0.12499267E+03</pdfrwt>
<pdfrwt beam="1">  1       -4 0.19499875E-01 0.12499267E+03</pdfrwt>
<totfact> 0.97830556E+03</totfact>
</mgrwt>
</event>
<event>
 5    1  0.3191162E-002  0.1250015E+03  0.7818608E-02  0.1235067E+00
         -4   -1    0    0    0  501 -0.00000000000E+00  0.00000000000E+00  0.30089811335E+03  0.30090079348E+03  0.12700000000E+01 0. -1.
          4   -1    0    0  501    0  0.00000000000E+00 -0.00000000000E+00 -0.12948483858E+02  0.13010616212E+02  0.12700000000E+01 0. -1.
         25    2    1    2    0    0  0.00000000000E+00  0.00000000000E+00  0.28794962949E+03  0.31391140969E+03  0.12500153603E+03 0.  0.
    9000005    1    3    3    0    0  0.42697604026E+01  0.44303475599E+02  0.33813253508E+02  0.55904963258E+02  0.10000000000E+01 0.  0.
    9000005    1    3    3    0    0 -0.42697604026E+01 -0.44303475599E+02  0.25413637598E+03  0.25800644643E+03  0.10000000000E+01 0.  0.
<mgrwt>
<rscale>  0 0.12500154E+03</rscale>
<asrwt>0</asrwt>
<pdfrwt beam="2">  1        4 0.19970601E-02 0.12500154E+03</pdfrwt>
<pdfrwt beam="1">  1       -4 0.46297000E-01 0.12500154E+03</pdfrwt>
<totfact> 0.73883666E+03</totfact>
</mgrwt>
</event>
<event>
 5    1  0.3191162E-002  0.1249999E+03  0.7818608E-02  0.1235069E+00
         -4   -1    0    0    0  501 -0.00000000000E+00  0.00000000000E+00  0.14963980048E+03  0.14964518966E+03  0.12700000000E+01 0.  1.
          4   -1    0    0  501    0  0.00000000000E+00 -0.00000000000E+00 -0.26082990047E+02  0.26113890361E+02  0.12700000000E+01 0.  1.
         25    2    1    2    0    0  0.00000000000E+00  0.00000000000E+00  0.12355681043E+03  0.17575908002E+03  0.12499987522E+03 0.  0.
    9000005    1    3    3    0    0 -0.20384970842E+02 -0.12869559056E+01 -0.21263795820E+02  0.29501733922E+02  0.10000000000E+01 0.  0.
    9000005    1    3    3    0    0  0.20384970842E+02  0.12869559056E+01  0.14482060626E+03  0.14625734610E+03  0.10000000000E+01 0.  0.
<mgrwt>
<rscale>  0 0.12499988E+03</rscale>
<asrwt>0</asrwt>
<pdfrwt beam="2">  1        4 0.40155591E-02 0.12499988E+03</pdfrwt>
<pdfrwt beam="1">  1       -4 0.23024300E-01 0.12499988E+03</pdfrwt>
<totfact> 0.94386264E+03</totfact>
</mgrwt>
</event>
<event>
 5    1  0.3191162E-002  0.1250026E+03  0.7818608E-02  0.1235065E+00
          4   -1    0    0  501    0  0.00000000000E+00  0.00000000000E+00  0.43472684778E+02  0.43491231551E+02  0.12700000000E+01 0.  1.
         -4   -1    0    0    0  501 -0.00000000000E+00 -0.00000000000E+00 -0.89816751983E+02  0.89825730372E+02  0.12700000000E+01 0.  1.
         25    2    1    2    0    0  0.00000000000E+00  0.00000000000E+00 -0.46344067205E+02  0.13331696192E+03  0.12500255906E+03 0.  0.
    9000005    1    3    3    0    0  0.49101111605E+02 -0.38412556668E+02 -0.27816731743E+02  0.68273085732E+02  0.10000000000E+01 0.  0.
    9000005    1    3    3    0    0 -0.49101111605E+02  0.38412556668E+02 -0.18527335462E+02  0.65043876191E+02  0.10000000000E+01 0.  0.
<mgrwt>
<rscale>  0 0.12500256E+03</rscale>
<asrwt>0</asrwt>
<pdfrwt beam="1">  1        4 0.66902227E-02 0.12500256E+03</pdfrwt>
<pdfrwt beam="2">  1       -4 0.13820079E-01 0.12500256E+03</pdfrwt>
<totfact> 0.10273075E+04</totfact>
</mgrwt>
</event>
<event>
 5    1  0.3191162E-002  0.1249922E+03  0.7818608E-02  0.1235082E+00
          4   -1    0    0  501    0  0.00000000000E+00  0.00000000000E+00  0.79743036926E+03  0.79743138057E+03  0.12700000000E+01 0.  1.
         -4   -1    0    0    0  501 -0.00000000000E+00 -0.00000000000E+00 -0.48145753879E+01  0.49792606043E+01  0.12700000000E+01 0.  1.
         25    2    1    2    0    0  0.00000000000E+00  0.00000000000E+00  0.79261579387E+03  0.80241064117E+03  0.12499216125E+03 0.  0.
    9000005    1    3    3    0    0  0.14328216325E+02 -0.17262330437E+02  0.77071794571E+03  0.77104502960E+03  0.10000000000E+01 0.  0.
    9000005    1    3    3    0    0 -0.14328216325E+02  0.17262330437E+02  0.21897848163E+02  0.31365611573E+02  0.10000000000E+01 0.  0.
<mgrwt>
<rscale>  0 0.12499216E+03</rscale>
<asrwt>0</asrwt>
<pdfrwt beam="1">  1        4 0.12269428E+00 0.12499216E+03</pdfrwt>
<pdfrwt beam="2">  1       -4 0.75345015E-03 0.12499216E+03</pdfrwt>
<totfact> 0.38163884E+03</totfact>
</mgrwt>
</event>
<event>
 5    1  0.3191162E-002  0.1250011E+03  0.7818608E-02  0.1235067E+00
         -4   -1    0    0    0  501 -0.00000000000E+00  0.00000000000E+00  0.66411119901E+01  0.67614546116E+01  0.12700000000E+01 0.  1.
          4   -1    0    0  501    0  0.00000000000E+00 -0.00000000000E+00 -0.58280036852E+03  0.58280175227E+03  0.12700000000E+01 0.  1.
         25    2    1    2    0    0  0.00000000000E+00  0.00000000000E+00 -0.57615925653E+03  0.58956320688E+03  0.12500114408E+03 0.  0.
    9000005    1    3    3    0    0 -0.63455644095E+01  0.47829020637E+02 -0.10075588686E+03  0.11171674065E+03  0.10000000000E+01 0.  0.
    9000005    1    3    3    0    0  0.63455644095E+01 -0.47829020637E+02 -0.47540336967E+03  0.47784646624E+03  0.10000000000E+01 0.  0.
<mgrwt>
<rscale>  0 0.12500114E+03</rscale>
<asrwt>0</asrwt>
<pdfrwt beam="2">  1        4 0.89670919E-01 0.12500114E+03</pdfrwt>
<pdfrwt beam="1">  1       -4 0.10310736E-02 0.12500114E+03</pdfrwt>
<totfact> 0.49531882E+03</totfact>
</mgrwt>
</event>
<event>
 5    1  0.3191162E-002  0.1249994E+03  0.7818608E-02  0.1235070E+00
          4   -1    0    0  501    0  0.00000000000E+00  0.00000000000E+00  0.16010294028E+04  0.16010299065E+04  0.12700000000E+01 0. -1.
         -4   -1    0    0    0  501 -0.00000000000E+00 -0.00000000000E+00 -0.22740044565E+01  0.26046105790E+01  0.12700000000E+01 0. -1.
         25    2    1    2    0    0  0.00000000000E+00  0.00000000000E+00  0.15987553984E+04  0.16036345171E+04  0.12499936263E+03 0.  0.
    9000005    1    3    3    0    0 -0.37360571060E+02 -0.85137666809E+01  0.16606576904E+03  0.17043220394E+03  0.10000000000E+01 0.  0.
    9000005    1    3    3    0    0  0.37360571060E+02  0.85137666809E+01  0.14326896293E+04  0.14332023132E+04  0.10000000000E+01 0.  0.
<mgrwt>
<rscale>  0 0.12499936E+03</rscale>
<asrwt>0</asrwt>
<pdfrwt beam="1">  1        4 0.24633713E+00 0.12499936E+03</pdfrwt>
<pdfrwt beam="2">  1       -4 0.37531768E-03 0.12499936E+03</pdfrwt>
<totfact> 0.15980873E+03</totfact>
</mgrwt>
</event>
<event>
 5    1  0.3191162E-002  0.1250028E+03  0.7818608E-02  0.1235065E+00
          4   -1    0    0  501    0  0.00000000000E+00  0.00000000000E+00  0.41845240102E+03  0.41845432824E+03  0.12700000000E+01 0.  1.
         -4   -1    0    0    0  501 -0.00000000000E+00 -0.00000000000E+00 -0.92902612846E+01  0.93766654380E+01  0.12700000000E+01 0.  1.
         25    2    1    2    0    0  0.00000000000E+00  0.00000000000E+00  0.40916213974E+03  0.42783099367E+03  0.12500281019E+03 0.  0.
    9000005    1    3    3    0    0  0.97443579665E+01  0.10373875369E+02  0.41284826530E+03  0.41309473485E+03  0.10000000000E+01 0.  0.
    9000005    1    3    3    0    0 -0.97443579665E+01 -0.10373875369E+02 -0.36861255644E+01  0.14736258821E+02  0.10000000000E+01 0.  0.
<mgrwt>
<rscale>  0 0.12500281E+03</rscale>
<asrwt>0</asrwt>
<pdfrwt beam="1">  1        4 0.64384093E-01 0.12500281E+03</pdfrwt>
<pdfrwt beam="2">  1       -4 0.14360656E-02 0.12500281E+03</pdfrwt>
<totfact> 0.61929249E+03</totfact>
</mgrwt>
</event>
<event>
 5    1  0.3191162E-002  0.1250046E+03  0.7818608E-02  0.1235062E+00
         -4   -1    0    0    0  501 -0.00000000000E+00  0.00000000000E+00  0.81181552062E+01  0.82168938140E+01  0.12700000000E+01 0.  1.
          4   -1    0    0  501    0  0.00000000000E+00 -0.00000000000E+00 -0.47820162688E+03  0.47820331330E+03  0.12700000000E+01 0.  1.
         25    2    1    2    0    0  0.00000000000E+00  0.00000000000E+00 -0.47008347168E+03  0.48642020712E+03  0.12500459011E+03 0.  0.
    9000005    1    3    3    0    0 -0.58624243369E+02  0.95820311454E+01 -0.15949598522E+03  0.17020160556E+03  0.10000000000E+01 0.  0.
    9000005    1    3    3    0    0  0.58624243369E+02 -0.95820311454E+01 -0.31058748645E+03  0.31621860156E+03  0.10000000000E+01 0.  0.
<mgrwt>
<rscale>  0 0.12500459E+03</rscale>
<asrwt>0</asrwt>
<pdfrwt beam="2">  1        4 0.73577184E-01 0.12500459E+03</pdfrwt>
<pdfrwt beam="1">  1       -4 0.12566723E-02 0.12500459E+03</pdfrwt>
<totfact> 0.56927864E+03</totfact>
</mgrwt>
</event>
<event>
 5    1  0.3191162E-002  0.1250018E+03  0.7818608E-02  0.1235067E+00
         -4   -1    0    0    0  501 -0.00000000000E+00  0.00000000000E+00  0.32129458432E+01  0.34548402266E+01  0.12700000000E+01 0.  1.
          4   -1    0    0  501    0  0.00000000000E+00 -0.00000000000E+00 -0.11714690787E+04  0.11714697671E+04  0.12700000000E+01 0.  1.
         25    2    1    2    0    0  0.00000000000E+00  0.00000000000E+00 -0.11682561328E+04  0.11749246073E+04  0.12500176385E+03 0.  0.
    9000005    1    3    3    0    0  0.41631082133E+02  0.38239535872E+02 -0.33368553305E+03  0.33844119736E+03  0.10000000000E+01 0.  0.
    9000005    1    3    3    0    0 -0.41631082133E+02 -0.38239535872E+02 -0.83457059980E+03  0.83648340997E+03  0.10000000000E+01 0.  0.
<mgrwt>
<rscale>  0 0.12500176E+03</rscale>
<asrwt>0</asrwt>
<pdfrwt beam="2">  1        4 0.18024434E+00 0.12500176E+03</pdfrwt>
<pdfrwt beam="1">  1       -4 0.51296051E-03 0.12500176E+03</pdfrwt>
<totfact> 0.25377773E+03</totfact>
</mgrwt>
</event>
<event>
 5    1  0.3191162E-002  0.1250008E+03  0.7818608E-02  0.1235068E+00
         -4   -1    0    0    0  501 -0.00000000000E+00  0.00000000000E+00  0.12023653855E+02  0.12090539774E+02  0.12700000000E+01 0.  1.
          4   -1    0    0  501    0  0.00000000000E+00 -0.00000000000E+00 -0.32391552642E+03  0.32391801610E+03  0.12700000000E+01 0.  1.
         25    2    1    2    0    0  0.00000000000E+00  0.00000000000E+00 -0.31189187256E+03  0.33600855587E+03  0.12500083780E+03 0.  0.
    9000005    1    3    3    0    0  0.11069454689E+01  0.33775678019E+02 -0.29724845622E+03  0.29916494861E+03  0.10000000000E+01 0.  0.
    9000005    1    3    3    0    0 -0.11069454689E+01 -0.33775678019E+02 -0.14643416344E+02  0.36843607262E+02  0.10000000000E+01 0.  0.
<mgrwt>
<rscale>  0 0.12500084E+03</rscale>
<asrwt>0</asrwt>
<pdfrwt beam="2">  1        4 0.49838488E-01 0.12500084E+03</pdfrwt>
<pdfrwt beam="1">  1       -4 0.18551297E-02 0.12500084E+03</pdfrwt>
<totfact> 0.71290399E+03</totfact>
</mgrwt>
</event>
<event>
 5    1  0.3191162E-002  0.1249981E+03  0.7818608E-02  0.1235072E+00
         -4   -1    0    0    0  501 -0.00000000000E+00  0.00000000000E+00  0.15456979043E+02  0.15509065128E+02  0.12700000000E+01 0.  1.
          4   -1    0    0  501    0  0.00000000000E+00 -0.00000000000E+00 -0.25223109795E+03  0.25223429520E+03  0.12700000000E+01 0.  1.
         25    2    1    2    0    0  0.00000000000E+00  0.00000000000E+00 -0.23677411891E+03  0.26774336032E+03  0.12499809444E+03 0.  0.
    9000005    1    3    3    0    0 -0.51931605970E+02  0.25494146849E+02 -0.67776126877E+02  0.89114794488E+02  0.10000000000E+01 0.  0.
    9000005    1    3    3    0    0  0.51931605970E+02 -0.25494146849E+02 -0.16899799203E+03  0.17862856584E+03  0.10000000000E+01 0.  0.
<mgrwt>
<rscale>  0 0.12499809E+03</rscale>
<asrwt>0</asrwt>
<pdfrwt beam="2">  1        4 0.38809034E-01 0.12499809E+03</pdfrwt>
<pdfrwt beam="1">  1       -4 0.23822495E-02 0.12499809E+03</pdfrwt>
<totfact> 0.79834909E+03</totfact>
</mgrwt>
</event>
<event>
 5    1  0.3191162E-002  0.1249994E+03  0.7818608E-02  0.1235070E+00
         -4   -1    0    0    0  501 -0.00000000000E+00  0.00000000000E+00  0.71176820647E+02  0.71188149979E+02  0.12700000000E+01 0.  1.
          4   -1    0    0  501    0  0.00000000000E+00 -0.00000000000E+00 -0.54857364382E+02  0.54872063265E+02  0.12700000000E+01 0.  1.
         25    2    1    2    0    0  0.00000000000E+00  0.00000000000E+00  0.16319456265E+02  0.12606021324E+03  0.12499941084E+03 0.  0.
    9000005    1    3    3    0    0 -0.11255225178E+02  0.47525640885E+02 -0.31156327532E+02  0.57940343290E+02  0.10000000000E+01 0.  0.
    9000005    1    3    3    0    0  0.11255225178E+02 -0.47525640885E+02  0.47475783797E+02  0.68119869953E+02  0.10000000000E+01 0.  0.
<mgrwt>
<rscale>  0 0.12499941E+03</rscale>
<asrwt>0</asrwt>
<pdfrwt beam="2">  1        4 0.84415967E-02 0.12499941E+03</pdfrwt>
<pdfrwt beam="1">  1       -4 0.10952282E-01 0.12499941E+03</pdfrwt>
<totfact> 0.10429776E+04</totfact>
</mgrwt>
</event>
<event>
 5    1  0.3191162E-002  0.1249946E+03  0.7818608E-02  0.1235078E+00
         -4   -1    0    0    0  501 -0.00000000000E+00  0.00000000000E+00  0.32046624101E+03  0.32046875749E+03  0.12700000000E+01 0. -1.
          4   -1    0    0  501    0  0.00000000000E+00 -0.00000000000E+00 -0.12152571405E+02  0.12218751644E+02  0.12700000000E+01 0. -1.
         25    2    1    2    0    0  0.00000000000E+00  0.00000000000E+00  0.30831366961E+03  0.33268750914E+03  0.12499463936E+03 0.  0.
    9000005    1    3    3    0    0 -0.57729155930E+02  0.23501633442E+02  0.14227376362E+03  0.15533127835E+03  0.10000000000E+01 0.  0.
    9000005    1    3    3    0    0  0.57729155930E+02 -0.23501633442E+02  0.16603990599E+03  0.17735623079E+03  0.10000000000E+01 0.  0.
<mgrwt>
<rscale>  0 0.12499464E+03</rscale>
<asrwt>0</asrwt>
<pdfrwt beam="2">  1        4 0.18749106E-02 0.12499464E+03</pdfrwt>
<pdfrwt beam="1">  1       -4 0.49307786E-01 0.12499464E+03</pdfrwt>
<totfact> 0.71680605E+03</totfact>
</mgrwt>
</event>
<event>
 5    1  0.3191162E-002  0.1250239E+03  0.7818608E-02  0.1235032E+00
          4   -1    0    0  501    0  0.00000000000E+00  0.00000000000E+00  0.92002316749E+02  0.92011081872E+02  0.12700000000E+01 0. -1.
         -4   -1    0    0    0  501 -0.00000000000E+00 -0.00000000000E+00 -0.42454147779E+02  0.42473139319E+02  0.12700000000E+01 0. -1.
         25    2    1    2    0    0  0.00000000000E+00  0.00000000000E+00  0.49548168971E+02  0.13448422119E+03  0.12502393651E+03 0.  0.
    9000005    1    3    3    0    0  0.31993568447E+02 -0.41099501355E+02 -0.12394693184E+02  0.53547977112E+02  0.10000000000E+01 0.  0.
    9000005    1    3    3    0    0 -0.31993568447E+02  0.41099501355E+02  0.61942862155E+02  0.80936244079E+02  0.10000000000E+01 0.  0.
<mgrwt>
<rscale>  0 0.12502394E+03</rscale>
<asrwt>0</asrwt>
<pdfrwt beam="1">  1        4 0.14156338E-01 0.12502394E+03</pdfrwt>
<pdfrwt beam="2">  1       -4 0.65335425E-02 0.12502394E+03</pdfrwt>
<totfact> 0.10243423E+04</totfact>
</mgrwt>
</event>
<event>
 5    1  0.3191162E-002  0.1250005E+03  0.7818608E-02  0.1235068E+00
         -4   -1    0    0    0  501 -0.00000000000E+00  0.00000000000E+00  0.11161266527E+03  0.11161989047E+03  0.12700000000E+01 0.  1.
          4   -1    0    0  501    0  0.00000000000E+00 -0.00000000000E+00 -0.34978682287E+02  0.35001730165E+02  0.12700000000E+01 0.  1.
         25    2    1    2    0    0  0.00000000000E+00  0.00000000000E+00  0.76633982985E+02  0.14662162064E+03  0.12500052916E+03 0.  0.
    9000005    1    3    3    0    0 -0.43657837751E+02 -0.39682367879E+02  0.14147418595E+02  0.60678221550E+02  0.10000000000E+01 0.  0.
    9000005    1    3    3    0    0  0.43657837751E+02  0.39682367879E+02  0.62486564390E+02  0.85943399088E+02  0.10000000000E+01 0.  0.
<mgrwt>
<rscale>  0 0.12500053E+03</rscale>
<asrwt>0</asrwt>
<pdfrwt beam="2">  1        4 0.53836645E-02 0.12500053E+03</pdfrwt>
<pdfrwt beam="1">  1       -4 0.17173508E-01 0.12500053E+03</pdfrwt>
<totfact> 0.99980251E+03</totfact>
</mgrwt>
</event>
<event>
 5    1  0.3191162E-002  0.1250001E+03  0.7818608E-02  0.1235069E+00
         -4   -1    0    0    0  501 -0.00000000000E+00  0.00000000000E+00  0.13291294705E+02  0.13351831894E+02  0.12700000000E+01 0.  1.
          4   -1    0    0  501    0  0.00000000000E+00 -0.00000000000E+00 -0.29316636918E+03  0.29316912000E+03  0.12700000000E+01 0.  1.
         25    2    1    2    0    0  0.00000000000E+00  0.00000000000E+00 -0.27987507448E+03  0.30652095189E+03  0.12500014654E+03 0.  0.
    9000005    1    3    3    0    0 -0.16293680759E+02 -0.11454555155E+02 -0.28518702536E+03  0.28588342082E+03  0.10000000000E+01 0.  0.
    9000005    1    3    3    0    0  0.16293680759E+02  0.11454555155E+02  0.53119508827E+01  0.20637531070E+02  0.10000000000E+01 0.  0.
<mgrwt>
<rscale>  0 0.12500015E+03</rscale>
<asrwt>0</asrwt>
<pdfrwt beam="2">  1        4 0.45107382E-01 0.12500015E+03</pdfrwt>
<pdfrwt beam="1">  1       -4 0.20496831E-02 0.12500015E+03</pdfrwt>
<totfact> 0.74787835E+03</totfact>
</mgrwt>
</event>
<event>
 5    1  0.3191162E-002  0.1249983E+03  0.7818608E-02  0.1235072E+00
          4   -1    0    0  501    0  0.00000000000E+00  0.00000000000E+00  0.17704593203E+02  0.17750085084E+02  0.12700000000E+01 0.  1.
         -4   -1    0    0    0  501 -0.00000000000E+00 -0.00000000000E+00 -0.22029830258E+03  0.22030196327E+03  0.12700000000E+01 0.  1.
         25    2    1    2    0    0  0.00000000000E+00  0.00000000000E+00 -0.20259370938E+03  0.23805204835E+03  0.12499826657E+03 0.  0.
    9000005    1    3    3    0    0  0.32696251624E+02 -0.46810098916E+02 -0.52933327183E+02  0.77866342905E+02  0.10000000000E+01 0.  0.
    9000005    1    3    3    0    0 -0.32696251624E+02  0.46810098916E+02 -0.14966038219E+03  0.16018570545E+03  0.10000000000E+01 0.  0.
<mgrwt>
<rscale>  0 0.12499827E+03</rscale>
<asrwt>0</asrwt>
<pdfrwt beam="1">  1        4 0.27275647E-02 0.12499827E+03</pdfrwt>
<pdfrwt beam="2">  1       -4 0.33895825E-01 0.12499827E+03</pdfrwt>
<totfact> 0.84091589E+03</totfact>
</mgrwt>
</event>
<event>
 5    1  0.3191162E-002  0.1249995E+03  0.7818608E-02  0.1235070E+00
          4   -1    0    0  501    0  0.00000000000E+00  0.00000000000E+00  0.15874136979E+02  0.15924858706E+02  0.12700000000E+01 0.  1.
         -4   -1    0    0    0  501 -0.00000000000E+00 -0.00000000000E+00 -0.24562966394E+03  0.24563294711E+03  0.12700000000E+01 0.  1.
         25    2    1    2    0    0  0.00000000000E+00  0.00000000000E+00 -0.22975552696E+03  0.26155780582E+03  0.12499953446E+03 0.  0.
    9000005    1    3    3    0    0  0.51220363082E+01 -0.61022949163E+02 -0.14094437700E+03  0.15367613018E+03  0.10000000000E+01 0.  0.
    9000005    1    3    3    0    0 -0.51220363082E+01  0.61022949163E+02 -0.88811149966E+02  0.10788167564E+03  0.10000000000E+01 0.  0.
<mgrwt>
<rscale>  0 0.12499953E+03</rscale>
<asrwt>0</asrwt>
<pdfrwt beam="1">  1        4 0.24463293E-02 0.12499953E+03</pdfrwt>
<pdfrwt beam="2">  1       -4 0.37793331E-01 0.12499953E+03</pdfrwt>
<totfact> 0.80688778E+03</totfact>
</mgrwt>
</event>
<event>
 5    1  0.3191162E-002  0.1250028E+03  0.7818608E-02  0.1235065E+00
         -4   -1    0    0    0  501 -0.00000000000E+00  0.00000000000E+00  0.50504822360E+02  0.50520787619E+02  0.12700000000E+01 0.  1.
          4   -1    0    0  501    0  0.00000000000E+00 -0.00000000000E+00 -0.77314214894E+02  0.77324645002E+02  0.12700000000E+01 0.  1.
         25    2    1    2    0    0  0.00000000000E+00  0.00000000000E+00 -0.26809392533E+02  0.12784543262E+03  0.12500284442E+03 0.  0.
    9000005    1    3    3    0    0 -0.27162107360E+02 -0.56094971972E+02 -0.87177086512E+01  0.62939847480E+02  0.10000000000E+01 0.  0.
    9000005    1    3    3    0    0  0.27162107360E+02  0.56094971972E+02 -0.18091683882E+02  0.64905585140E+02  0.10000000000E+01 0.  0.
<mgrwt>
<rscale>  0 0.12500284E+03</rscale>
<asrwt>0</asrwt>
<pdfrwt beam="2">  1        4 0.11896525E-01 0.12500284E+03</pdfrwt>
<pdfrwt beam="1">  1       -4 0.77720031E-02 0.12500284E+03</pdfrwt>
<totfact> 0.10390160E+04</totfact>
</mgrwt>
</event>
<event>
 5    1  0.3191162E-002  0.1249994E+03  0.7818608E-02  0.1235070E+00
          4   -1    0    0  501    0  0.00000000000E+00  0.00000000000E+00  0.37747409810E+02  0.37768768147E+02  0.12700000000E+01 0.  1.
         -4   -1    0    0    0  501 -0.00000000000E+00 -0.00000000000E+00 -0.10342832261E+03  0.10343611950E+03  0.12700000000E+01 0.  1.
         25    2    1    2    0    0  0.00000000000E+00  0.00000000000E+00 -0.65680912797E+02  0.14120488765E+03  0.12499935196E+03 0.  0.
    9000005    1    3    3    0    0 -0.41162702356E+02  0.22254850778E+02  0.13948710223E+02  0.48838642132E+02  0.10000000000E+01 0.  0.
    9000005    1    3    3    0    0  0.41162702356E+02 -0.22254850778E+02 -0.79629623020E+02  0.92366245516E+02  0.10000000000E+01 0.  0.
<mgrwt>
<rscale>  0 0.12499935E+03</rscale>
<asrwt>0</asrwt>
<pdfrwt beam="1">  1        4 0.58095366E-02 0.12499935E+03</pdfrwt>
<pdfrwt beam="2">  1       -4 0.15914292E-01 0.12499935E+03</pdfrwt>
<totfact> 0.10108822E+04</totfact>
</mgrwt>
</event>
<event>
 5    1  0.3191162E-002  0.1250008E+03  0.7818608E-02  0.1235068E+00
          4   -1    0    0  501    0  0.00000000000E+00  0.00000000000E+00  0.11498937257E+03  0.11499638561E+03  0.12700000000E+01 0.  1.
         -4   -1    0    0    0  501 -0.00000000000E+00 -0.00000000000E+00 -0.33951067252E+02  0.33974812252E+02  0.12700000000E+01 0.  1.
         25    2    1    2    0    0  0.00000000000E+00  0.00000000000E+00  0.81038305316E+02  0.14897119786E+03  0.12500084345E+03 0.  0.
    9000005    1    3    3    0    0  0.61264096275E+01 -0.62118164845E+02  0.36923385233E+02  0.72529550362E+02  0.10000000000E+01 0.  0.
    9000005    1    3    3    0    0 -0.61264096275E+01  0.62118164845E+02  0.44114920083E+02  0.76441647500E+02  0.10000000000E+01 0.  0.
<mgrwt>
<rscale>  0 0.12500084E+03</rscale>
<asrwt>0</asrwt>
<pdfrwt beam="1">  1        4 0.17693039E-01 0.12500084E+03</pdfrwt>
<pdfrwt beam="2">  1       -4 0.52256069E-02 0.12500084E+03</pdfrwt>
<totfact> 0.99507281E+03</totfact>
</mgrwt>
</event>
<event>
 5    1  0.3191162E-002  0.1249967E+03  0.7818608E-02  0.1235074E+00
          4   -1    0    0  501    0  0.00000000000E+00  0.00000000000E+00  0.97534150620E+03  0.97534233304E+03  0.12700000000E+01 0. -1.
         -4   -1    0    0    0  501 -0.00000000000E+00 -0.00000000000E+00 -0.39032588831E+01  0.41046717175E+01  0.12700000000E+01 0. -1.
         25    2    1    2    0    0  0.00000000000E+00  0.00000000000E+00  0.97143824732E+03  0.97944700476E+03  0.12499666706E+03 0.  0.
    9000005    1    3    3    0    0  0.32478230719E+02 -0.52940486130E+02  0.53972988347E+03  0.54329262617E+03  0.10000000000E+01 0.  0.
    9000005    1    3    3    0    0 -0.32478230719E+02  0.52940486130E+02  0.43170836385E+03  0.43615437858E+03  0.10000000000E+01 0.  0.
<mgrwt>
<rscale>  0 0.12499667E+03</rscale>
<asrwt>0</asrwt>
<pdfrwt beam="1">  1        4 0.15006830E+00 0.12499667E+03</pdfrwt>
<pdfrwt beam="2">  1       -4 0.61605742E-03 0.12499667E+03</pdfrwt>
<totfact> 0.31295240E+03</totfact>
</mgrwt>
</event>
<event>
 5    1  0.3191162E-002  0.1250001E+03  0.7818608E-02  0.1235069E+00
         -4   -1    0    0    0  501 -0.00000000000E+00  0.00000000000E+00  0.75517738667E+02  0.75528416860E+02  0.12700000000E+01 0.  1.
          4   -1    0    0  501    0  0.00000000000E+00 -0.00000000000E+00 -0.51704225160E+02  0.51719820180E+02  0.12700000000E+01 0.  1.
         25    2    1    2    0    0  0.00000000000E+00  0.00000000000E+00  0.23813513507E+02  0.12724823704E+03  0.12500012162E+03 0.  0.
    9000005    1    3    3    0    0 -0.21127440975E+02  0.49385992794E+02  0.44417193770E+02  0.69708192838E+02  0.10000000000E+01 0.  0.
    9000005    1    3    3    0    0  0.21127440975E+02 -0.49385992794E+02 -0.20603680263E+02  0.57540044202E+02  0.10000000000E+01 0.  0.
<mgrwt>
<rscale>  0 0.12500012E+03</rscale>
<asrwt>0</asrwt>
<pdfrwt beam="2">  1        4 0.79565172E-02 0.12500012E+03</pdfrwt>
<pdfrwt beam="1">  1       -4 0.11620135E-01 0.12500012E+03</pdfrwt>
<totfact> 0.10403728E+04</totfact>
</mgrwt>
</event>
<event>
 5    1  0.3191162E-002  0.1250010E+03  0.7818608E-02  0.1235068E+00
         -4   -1    0    0    0  501 -0.00000000000E+00  0.00000000000E+00  0.20856343059E+03  0.20856729724E+03  0.12700000000E+01 0.  1.
          4   -1    0    0  501    0  0.00000000000E+00 -0.00000000000E+00 -0.18704036953E+02  0.18747103732E+02  0.12700000000E+01 0.  1.
         25    2    1    2    0    0  0.00000000000E+00  0.00000000000E+00  0.18985939364E+03  0.22731440097E+03  0.12500099015E+03 0.  0.
    9000005    1    3    3    0    0  0.32136867449E+02 -0.53543493431E+02  0.99243779555E+02  0.11726044396E+03  0.10000000000E+01 0.  0.
    9000005    1    3    3    0    0 -0.32136867449E+02  0.53543493431E+02  0.90615614082E+02  0.11005395701E+03  0.10000000000E+01 0.  0.
<mgrwt>
<rscale>  0 0.12500099E+03</rscale>
<asrwt>0</asrwt>
<pdfrwt beam="2">  1        4 0.28811545E-02 0.12500099E+03</pdfrwt>
<pdfrwt beam="1">  1       -4 0.32090291E-01 0.12500099E+03</pdfrwt>
<totfact> 0.85721792E+03</totfact>
</mgrwt>
</event>
<event>
 5    1  0.3191162E-002  0.1250023E+03  0.7818608E-02  0.1235066E+00
         -4   -1    0    0    0  501 -0.00000000000E+00  0.00000000000E+00  0.92968101630E+01  0.93831540117E+01  0.12700000000E+01 0. -1.
          4   -1    0    0  501    0  0.00000000000E+00 -0.00000000000E+00 -0.41815681568E+03  0.41815874425E+03  0.12700000000E+01 0. -1.
         25    2    1    2    0    0  0.00000000000E+00  0.00000000000E+00 -0.40886000551E+03  0.42754189827E+03  0.12500228264E+03 0.  0.
    9000005    1    3    3    0    0  0.41526290980E+02 -0.35786862728E+02 -0.30705302066E+03  0.31190974637E+03  0.10000000000E+01 0.  0.
    9000005    1    3    3    0    0 -0.41526290980E+02  0.35786862728E+02 -0.10180698486E+03  0.11563215190E+03  0.10000000000E+01 0.  0.
<mgrwt>
<rscale>  0 0.12500228E+03</rscale>
<asrwt>0</asrwt>
<pdfrwt beam="2">  1        4 0.64338593E-01 0.12500228E+03</pdfrwt>
<pdfrwt beam="1">  1       -4 0.14370690E-02 0.12500228E+03</pdfrwt>
<totfact> 0.61956325E+03</totfact>
</mgrwt>
</event>
<event>
 5    1  0.3191162E-002  0.1249992E+03  0.7818608E-02  0.1235070E+00
         -4   -1    0    0    0  501 -0.00000000000E+00  0.00000000000E+00  0.10770411020E+03  0.10771159758E+03  0.12700000000E+01 0.  1.
          4   -1    0    0  501    0  0.00000000000E+00 -0.00000000000E+00 -0.36248034652E+02  0.36270275932E+02  0.12700000000E+01 0.  1.
         25    2    1    2    0    0  0.00000000000E+00  0.00000000000E+00  0.71456075543E+02  0.14398187351E+03  0.12499923667E+03 0.  0.
    9000005    1    3    3    0    0  0.91082742991E+01 -0.61185633450E+02  0.25518621913E+02  0.66924154576E+02  0.10000000000E+01 0.  0.
    9000005    1    3    3    0    0 -0.91082742991E+01  0.61185633450E+02  0.45937453631E+02  0.77057718935E+02  0.10000000000E+01 0.  0.
<mgrwt>
<rscale>  0 0.12499924E+03</rscale>
<asrwt>0</asrwt>
<pdfrwt beam="2">  1        4 0.55789077E-02 0.12499924E+03</pdfrwt>
<pdfrwt beam="1">  1       -4 0.16572150E-01 0.12499924E+03</pdfrwt>
<totfact> 0.10051888E+04</totfact>
</mgrwt>
</event>
<event>
 5    1  0.3191162E-002  0.1250009E+03  0.7818608E-02  0.1235068E+00
          4   -1    0    0  501    0  0.00000000000E+00  0.00000000000E+00  0.12438201849E+03  0.12438850198E+03  0.12700000000E+01 0. -1.
         -4   -1    0    0    0  501 -0.00000000000E+00 -0.00000000000E+00 -0.31385563093E+02  0.31411247519E+02  0.12700000000E+01 0. -1.
         25    2    1    2    0    0  0.00000000000E+00  0.00000000000E+00  0.92996455399E+02  0.15579974950E+03  0.12500088490E+03 0.  0.
    9000005    1    3    3    0    0 -0.41105673435E+02  0.47069104227E+02  0.46051704769E+02  0.77633346401E+02  0.10000000000E+01 0.  0.
    9000005    1    3    3    0    0  0.41105673435E+02 -0.47069104227E+02  0.46944750630E+02  0.78166403096E+02  0.10000000000E+01 0.  0.
<mgrwt>
<rscale>  0 0.12500088E+03</rscale>
<asrwt>0</asrwt>
<pdfrwt beam="1">  1        4 0.19138170E-01 0.12500088E+03</pdfrwt>
<pdfrwt beam="2">  1       -4 0.48310226E-02 0.12500088E+03</pdfrwt>
<totfact> 0.98156773E+03</totfact>
</mgrwt>
</event>
<event>
 5    1  0.3191162E-002  0.1249992E+03  0.7818608E-02  0.1235071E+00
         -4   -1    0    0    0  501 -0.00000000000E+00  0.00000000000E+00  0.21256715984E+02  0.21294620786E+02  0.12700000000E+01 0. -1.
          4   -1    0    0  501    0  0.00000000000E+00 -0.00000000000E+00 -0.18355918513E+03  0.18356357848E+03  0.12700000000E+01 0. -1.
         25    2    1    2    0    0  0.00000000000E+00  0.00000000000E+00 -0.16230246914E+03  0.20485819926E+03  0.12499916126E+03 0.  0.
    9000005    1    3    3    0    0  0.23852025184E+02  0.49248693466E+02 -0.13061286311E+03  0.14161593457E+03  0.10000000000E+01 0.  0.
    9000005    1    3    3    0    0 -0.23852025184E+02 -0.49248693466E+02 -0.31689606028E+02  0.63242264694E+02  0.10000000000E+01 0.  0.
<mgrwt>
<rscale>  0 0.12499916E+03</rscale>
<asrwt>0</asrwt>
<pdfrwt beam="2">  1        4 0.28243127E-01 0.12499916E+03</pdfrwt>
<pdfrwt beam="1">  1       -4 0.32735178E-02 0.12499916E+03</pdfrwt>
<totfact> 0.89324226E+03</totfact>
</mgrwt>
</event>
<event>
 5    1  0.3191162E-002  0.1249992E+03  0.7818608E-02  0.1235071E+00
          4   -1    0    0  501    0  0.00000000000E+00  0.00000000000E+00  0.15278037998E+02  0.15330732047E+02  0.12700000000E+01 0.  1.
         -4   -1    0    0    0  501 -0.00000000000E+00 -0.00000000000E+00 -0.25517978366E+03  0.25518294396E+03  0.12700000000E+01 0.  1.
         25    2    1    2    0    0  0.00000000000E+00  0.00000000000E+00 -0.23990174566E+03  0.27051367601E+03  0.12499920534E+03 0.  0.
    9000005    1    3    3    0    0  0.21037996156E+01  0.20506852871E+01  0.15139114941E+02  0.15453934261E+02  0.10000000000E+01 0.  0.
    9000005    1    3    3    0    0 -0.21037996156E+01 -0.20506852871E+01 -0.25504086060E+03  0.25505974175E+03  0.10000000000E+01 0.  0.
<mgrwt>
<rscale>  0 0.12499921E+03</rscale>
<asrwt>0</asrwt>
<pdfrwt beam="1">  1        4 0.23547641E-02 0.12499921E+03</pdfrwt>
<pdfrwt beam="2">  1       -4 0.39262722E-01 0.12499921E+03</pdfrwt>
<totfact> 0.79454293E+03</totfact>
</mgrwt>
</event>
<event>
 5    1  0.3191162E-002  0.1250017E+03  0.7818608E-02  0.1235067E+00
         -4   -1    0    0    0  501 -0.00000000000E+00  0.00000000000E+00  0.96504393762E+02  0.96512750015E+02  0.12700000000E+01 0.  1.
          4   -1    0    0  501    0  0.00000000000E+00 -0.00000000000E+00 -0.40458462088E+02  0.40478389969E+02  0.12700000000E+01 0.  1.
         25    2    1    2    0    0  0.00000000000E+00  0.00000000000E+00  0.56045931675E+02  0.13699113998E+03  0.12500170390E+03 0.  0.
    9000005    1    3    3    0    0  0.44174369470E+02 -0.34581693899E+02  0.58197207518E+02  0.80840481406E+02  0.10000000000E+01 0.  0.
    9000005    1    3    3    0    0 -0.44174369470E+02  0.34581693899E+02 -0.21512758436E+01  0.56150658578E+02  0.10000000000E+01 0.  0.
<mgrwt>
<rscale>  0 0.12500170E+03</rscale>
<asrwt>0</asrwt>
<pdfrwt beam="2">  1        4 0.62265545E-02 0.12500170E+03</pdfrwt>
<pdfrwt beam="1">  1       -4 0.14849005E-01 0.12500170E+03</pdfrwt>
<totfact> 0.10195879E+04</totfact>
</mgrwt>
</event>
<event>
 5    1  0.3191162E-002  0.1250015E+03  0.7818608E-02  0.1235067E+00
          4   -1    0    0  501    0  0.00000000000E+00  0.00000000000E+00  0.85106367880E+01  0.86048729530E+01  0.12700000000E+01 0.  1.
         -4   -1    0    0    0  501 -0.00000000000E+00 -0.00000000000E+00 -0.45637318908E+03  0.45637495616E+03  0.12700000000E+01 0.  1.
         25    2    1    2    0    0  0.00000000000E+00  0.00000000000E+00 -0.44786255229E+03  0.46497982912E+03  0.12500150294E+03 0.  0.
    9000005    1    3    3    0    0 -0.17270156279E+02 -0.55715248698E+01 -0.14874839137E+01  0.18234933388E+02  0.10000000000E+01 0.  0.
    9000005    1    3    3    0    0  0.17270156279E+02  0.55715248698E+01 -0.44637506838E+03  0.44674489573E+03  0.10000000000E+01 0.  0.
<mgrwt>
<rscale>  0 0.12500150E+03</rscale>
<asrwt>0</asrwt>
<pdfrwt beam="1">  1        4 0.13167140E-02 0.12500150E+03</pdfrwt>
<pdfrwt beam="2">  1       -4 0.70218626E-01 0.12500150E+03</pdfrwt>
<totfact> 0.58685776E+03</totfact>
</mgrwt>
</event>
<event>
 5    1  0.3191162E-002  0.1249736E+03  0.7818608E-02  0.1235111E+00
          4   -1    0    0  501    0  0.00000000000E+00  0.00000000000E+00  0.30583814577E+03  0.30584078261E+03  0.12700000000E+01 0.  1.
         -4   -1    0    0    0  501 -0.00000000000E+00 -0.00000000000E+00 -0.12732594767E+02  0.12795775455E+02  0.12700000000E+01 0.  1.
         25    2    1    2    0    0  0.00000000000E+00  0.00000000000E+00  0.29310555100E+03  0.31863655806E+03  0.12497356563E+03 0.  0.
    9000005    1    3    3    0    0  0.39023487017E+02 -0.16309345821E+02  0.26380175902E+03  0.26717259470E+03  0.10000000000E+01 0.  0.
    9000005    1    3    3    0    0 -0.39023487017E+02  0.16309345821E+02  0.29303791983E+02  0.51463963359E+02  0.10000000000E+01 0.  0.
<mgrwt>
<rscale>  0 0.12497357E+03</rscale>
<asrwt>0</asrwt>
<pdfrwt beam="1">  1        4 0.47057081E-01 0.12497357E+03</pdfrwt>
<pdfrwt beam="2">  1       -4 0.19639238E-02 0.12497357E+03</pdfrwt>
<totfact> 0.73361567E+03</totfact>
</mgrwt>
</event>
<event>
 5    1  0.3191162E-002  0.1249914E+03  0.7818608E-02  0.1235083E+00
         -4   -1    0    0    0  501 -0.00000000000E+00  0.00000000000E+00  0.14140914490E+03  0.14141484774E+03  0.12700000000E+01 0.  1.
          4   -1    0    0  501    0  0.00000000000E+00 -0.00000000000E+00 -0.27599061269E+02  0.27628266014E+02  0.12700000000E+01 0.  1.
         25    2    1    2    0    0  0.00000000000E+00  0.00000000000E+00  0.11381008363E+03  0.16904311375E+03  0.12499135639E+03 0.  0.
    9000005    1    3    3    0    0  0.13721709242E+02 -0.20426827637E+02  0.13458693433E+03  0.13682172153E+03  0.10000000000E+01 0.  0.
    9000005    1    3    3    0    0 -0.13721709242E+02  0.20426827637E+02 -0.20776850696E+02  0.32221392221E+02  0.10000000000E+01 0.  0.
<mgrwt>
<rscale>  0 0.12499136E+03</rscale>
<asrwt>0</asrwt>
<pdfrwt beam="2">  1        4 0.42486946E-02 0.12499136E+03</pdfrwt>
<pdfrwt beam="1">  1       -4 0.21757938E-01 0.12499136E+03</pdfrwt>
<totfact> 0.95645685E+03</totfact>
</mgrwt>
</event>
<event>
 5    1  0.3191162E-002  0.1249977E+03  0.7818608E-02  0.1235073E+00
          4   -1    0    0  501    0  0.00000000000E+00  0.00000000000E+00  0.40170705590E+02  0.40190776151E+02  0.12700000000E+01 0.  1.
         -4   -1    0    0    0  501 -0.00000000000E+00 -0.00000000000E+00 -0.97189150993E+02  0.97197448376E+02  0.12700000000E+01 0.  1.
         25    2    1    2    0    0  0.00000000000E+00  0.00000000000E+00 -0.57018445403E+02  0.13738822453E+03  0.12499768447E+03 0.  0.
    9000005    1    3    3    0    0 -0.26168847791E+02 -0.68368629103E+01  0.33409286142E+02  0.42996880000E+02  0.10000000000E+01 0.  0.
    9000005    1    3    3    0    0  0.26168847791E+02  0.68368629103E+01 -0.90427731546E+02  0.94391344527E+02  0.10000000000E+01 0.  0.
<mgrwt>
<rscale>  0 0.12499768E+03</rscale>
<asrwt>0</asrwt>
<pdfrwt beam="1">  1        4 0.61822907E-02 0.12499768E+03</pdfrwt>
<pdfrwt beam="2">  1       -4 0.14954359E-01 0.12499768E+03</pdfrwt>
<totfact> 0.10188507E+04</totfact>
</mgrwt>
</event>
<event>
 5    1  0.3191162E-002  0.1249962E+03  0.7818608E-02  0.1235075E+00
         -4   -1    0    0    0  501 -0.00000000000E+00  0.00000000000E+00  0.34895151337E+02  0.34918254350E+02  0.12700000000E+01 0. -1.
          4   -1    0    0  501    0  0.00000000000E+00 -0.00000000000E+00 -0.11187193465E+03  0.11187914311E+03  0.12700000000E+01 0. -1.
         25    2    1    2    0    0  0.00000000000E+00  0.00000000000E+00 -0.76976783314E+02  0.14679739746E+03  0.12499620287E+03 0.  0.
    9000005    1    3    3    0    0 -0.22240206707E+02  0.45935290651E+02 -0.80837976333E+02  0.95605732774E+02  0.10000000000E+01 0.  0.
    9000005    1    3    3    0    0  0.22240206707E+02 -0.45935290651E+02  0.38611930190E+01  0.51191664684E+02  0.10000000000E+01 0.  0.
<mgrwt>
<rscale>  0 0.12499620E+03</rscale>
<asrwt>0</asrwt>
<pdfrwt beam="2">  1        4 0.17213398E-01 0.12499620E+03</pdfrwt>
<pdfrwt beam="1">  1       -4 0.53708165E-02 0.12499620E+03</pdfrwt>
<totfact> 0.99954508E+03</totfact>
</mgrwt>
</event>
<event>
 5    1  0.3191162E-002  0.1250357E+03  0.7818608E-02  0.1235013E+00
          4   -1    0    0  501    0  0.00000000000E+00  0.00000000000E+00  0.22195492223E+03  0.22195855559E+03  0.12700000000E+01 0. -1.
         -4   -1    0    0    0  501 -0.00000000000E+00 -0.00000000000E+00 -0.17582675863E+02  0.17628482366E+02  0.12700000000E+01 0. -1.
         25    2    1    2    0    0  0.00000000000E+00  0.00000000000E+00  0.20437224636E+03  0.23958703796E+03  0.12503572959E+03 0.  0.
    9000005    1    3    3    0    0  0.47260134744E+02  0.12177452580E+01  0.23823371895E+02  0.52948619321E+02  0.10000000000E+01 0.  0.
    9000005    1    3    3    0    0 -0.47260134744E+02 -0.12177452580E+01  0.18054887447E+03  0.18663841864E+03  0.10000000000E+01 0.  0.
<mgrwt>
<rscale>  0 0.12503573E+03</rscale>
<asrwt>0</asrwt>
<pdfrwt beam="1">  1        4 0.34150712E-01 0.12503573E+03</pdfrwt>
<pdfrwt beam="2">  1       -4 0.27088303E-02 0.12503573E+03</pdfrwt>
<totfact> 0.83792146E+03</totfact>
</mgrwt>
</event>
<event>
 5    1  0.3191162E-002  0.1250125E+03  0.7818608E-02  0.1235050E+00
          4   -1    0    0  501    0  0.00000000000E+00  0.00000000000E+00  0.34289666243E+01  0.36565984344E+01  0.12700000000E+01 0.  1.
         -4   -1    0    0    0  501 -0.00000000000E+00 -0.00000000000E+00 -0.11025869662E+04  0.11025876976E+04  0.12700000000E+01 0.  1.
         25    2    1    2    0    0  0.00000000000E+00  0.00000000000E+00 -0.10991579995E+04  0.11062442960E+04  0.12501253742E+03 0.  0.
    9000005    1    3    3    0    0  0.57644293428E+02  0.20329357841E+02 -0.66491811576E+03  0.66772243337E+03  0.10000000000E+01 0.  0.
    9000005    1    3    3    0    0 -0.57644293428E+02 -0.20329357841E+02 -0.43423988376E+03  0.43852186263E+03  0.10000000000E+01 0.  0.
<mgrwt>
<rscale>  0 0.12501254E+03</rscale>
<asrwt>0</asrwt>
<pdfrwt beam="1">  1        4 0.54510061E-03 0.12501254E+03</pdfrwt>
<pdfrwt beam="2">  1       -4 0.16964606E+00 0.12501254E+03</pdfrwt>
<totfact> 0.27293942E+03</totfact>
</mgrwt>
</event>
<event>
 5    1  0.3191162E-002  0.1249977E+03  0.7818608E-02  0.1235073E+00
          4   -1    0    0  501    0  0.00000000000E+00  0.00000000000E+00  0.10534674077E+02  0.10610949906E+02  0.12700000000E+01 0.  1.
         -4   -1    0    0    0  501 -0.00000000000E+00 -0.00000000000E+00 -0.36937057284E+03  0.36937275615E+03  0.12700000000E+01 0.  1.
         25    2    1    2    0    0  0.00000000000E+00  0.00000000000E+00 -0.35883589877E+03  0.37998370605E+03  0.12499765846E+03 0.  0.
    9000005    1    3    3    0    0  0.17077705798E+02 -0.30211940004E+02 -0.21438421872E+02  0.40804598840E+02  0.10000000000E+01 0.  0.
    9000005    1    3    3    0    0 -0.17077705798E+02  0.30211940004E+02 -0.33739747690E+03  0.33917910721E+03  0.10000000000E+01 0.  0.
<mgrwt>
<rscale>  0 0.12499766E+03</rscale>
<asrwt>0</asrwt>
<pdfrwt beam="1">  1        4 0.16267547E-02 0.12499766E+03</pdfrwt>
<pdfrwt beam="2">  1       -4 0.56832267E-01 0.12499766E+03</pdfrwt>
<totfact> 0.66550677E+03</totfact>
</mgrwt>
</event>
<event>
 5    1  0.3191162E-002  0.1250001E+03  0.7818608E-02  0.1235069E+00
         -4   -1    0    0    0  501 -0.00000000000E+00  0.00000000000E+00  0.83223639601E+01  0.84187078512E+01  0.12700000000E+01 0.  1.
          4   -1    0    0  501    0  0.00000000000E+00 -0.00000000000E+00 -0.46657021068E+03  0.46657193914E+03  0.12700000000E+01 0.  1.
         25    2    1    2    0    0  0.00000000000E+00  0.00000000000E+00 -0.45824784672E+03  0.47499064699E+03  0.12500010283E+03 0.  0.
    9000005    1    3    3    0    0 -0.30014956111E+02  0.54812005677E+02 -0.22932749312E+03  0.23769171769E+03  0.10000000000E+01 0.  0.
    9000005    1    3    3    0    0  0.30014956111E+02 -0.54812005677E+02 -0.22892035360E+03  0.23729892930E+03  0.10000000000E+01 0.  0.
<mgrwt>
<rscale>  0 0.12500010E+03</rscale>
<asrwt>0</asrwt>
<pdfrwt beam="2">  1        4 0.71787556E-01 0.12500010E+03</pdfrwt>
<pdfrwt beam="1">  1       -4 0.12879081E-02 0.12500010E+03</pdfrwt>
<totfact> 0.57858253E+03</totfact>
</mgrwt>
</event>
<event>
 5    1  0.3191162E-002  0.1250024E+03  0.7818608E-02  0.1235066E+00
          4   -1    0    0  501    0  0.00000000000E+00  0.00000000000E+00  0.25513112537E+03  0.25513428628E+03  0.12700000000E+01 0. -1.
         -4   -1    0    0    0  501 -0.00000000000E+00 -0.00000000000E+00 -0.15281741502E+02  0.15334422823E+02  0.12700000000E+01 0. -1.
         25    2    1    2    0    0  0.00000000000E+00  0.00000000000E+00  0.23984938387E+03  0.27046870910E+03  0.12500238261E+03 0.  0.
    9000005    1    3    3    0    0  0.26916983199E+02  0.26396557575E+02  0.12083920901E+02  0.39602062834E+02  0.10000000000E+01 0.  0.
    9000005    1    3    3    0    0 -0.26916983199E+02 -0.26396557575E+02  0.22776546297E+03  0.23086664627E+03  0.10000000000E+01 0.  0.
<mgrwt>
<rscale>  0 0.12500238E+03</rscale>
<asrwt>0</asrwt>
<pdfrwt beam="1">  1        4 0.39255232E-01 0.12500238E+03</pdfrwt>
<pdfrwt beam="2">  1       -4 0.23553330E-02 0.12500238E+03</pdfrwt>
<totfact> 0.79454801E+03</totfact>
</mgrwt>
</event>
<event>
 5    1  0.3191162E-002  0.1250011E+03  0.7818608E-02  0.1235068E+00
          4   -1    0    0  501    0  0.00000000000E+00  0.00000000000E+00  0.26166729083E+02  0.26197530626E+02  0.12700000000E+01 0. -1.
         -4   -1    0    0    0  501 -0.00000000000E+00 -0.00000000000E+00 -0.14916432226E+03  0.14916972862E+03  0.12700000000E+01 0. -1.
         25    2    1    2    0    0  0.00000000000E+00  0.00000000000E+00 -0.12299759318E+03  0.17536725924E+03  0.12500107074E+03 0.  0.
    9000005    1    3    3    0    0 -0.61653821682E+02 -0.97569713376E+01 -0.57307661157E+02  0.84744086784E+02  0.10000000000E+01 0.  0.
    9000005    1    3    3    0    0  0.61653821682E+02  0.97569713376E+01 -0.65689932021E+02  0.90623172459E+02  0.10000000000E+01 0.  0.
<mgrwt>
<rscale>  0 0.12500107E+03</rscale>
<asrwt>0</asrwt>
<pdfrwt beam="1">  1        4 0.40284359E-02 0.12500107E+03</pdfrwt>
<pdfrwt beam="2">  1       -4 0.22951142E-01 0.12500107E+03</pdfrwt>
<totfact> 0.94455352E+03</totfact>
</mgrwt>
</event>
<event>
 5    1  0.3191162E-002  0.1250008E+03  0.7818608E-02  0.1235068E+00
          4   -1    0    0  501    0  0.00000000000E+00  0.00000000000E+00  0.11785404644E+03  0.11786088903E+03  0.12700000000E+01 0. -1.
         -4   -1    0    0    0  501 -0.00000000000E+00 -0.00000000000E+00 -0.33125267437E+02  0.33149603962E+02  0.12700000000E+01 0. -1.
         25    2    1    2    0    0  0.00000000000E+00  0.00000000000E+00  0.84728779002E+02  0.15101049299E+03  0.12500081200E+03 0.  0.
    9000005    1    3    3    0    0  0.24662703569E+02  0.73337682401E+01  0.11116395351E+03  0.11410722003E+03  0.10000000000E+01 0.  0.
    9000005    1    3    3    0    0 -0.24662703569E+02 -0.73337682401E+01 -0.26435174504E+02  0.36903272958E+02  0.10000000000E+01 0.  0.
<mgrwt>
<rscale>  0 0.12500081E+03</rscale>
<asrwt>0</asrwt>
<pdfrwt beam="1">  1        4 0.18133790E-01 0.12500081E+03</pdfrwt>
<pdfrwt beam="2">  1       -4 0.50985934E-02 0.12500081E+03</pdfrwt>
<totfact> 0.99100841E+03</totfact>
</mgrwt>
</event>
<event>
 5    1  0.3191162E-002  0.1250007E+03  0.7818608E-02  0.1235068E+00
          4   -1    0    0  501    0  0.00000000000E+00  0.00000000000E+00  0.39359866601E+03  0.39360071492E+03  0.12700000000E+01 0. -1.
         -4   -1    0    0    0  501 -0.00000000000E+00 -0.00000000000E+00 -0.98818441007E+01  0.99631191316E+01  0.12700000000E+01 0. -1.
         25    2    1    2    0    0  0.00000000000E+00  0.00000000000E+00  0.38371682191E+03  0.40356383405E+03  0.12500067495E+03 0.  0.
    9000005    1    3    3    0    0  0.23659755150E+02  0.40055894443E+02  0.32656953008E+03  0.32986802917E+03  0.10000000000E+01 0.  0.
    9000005    1    3    3    0    0 -0.23659755150E+02 -0.40055894443E+02  0.57147291835E+02  0.73695804884E+02  0.10000000000E+01 0.  0.
<mgrwt>
<rscale>  0 0.12500067E+03</rscale>
<asrwt>0</asrwt>
<pdfrwt beam="1">  1        4 0.60560046E-01 0.12500067E+03</pdfrwt>
<pdfrwt beam="2">  1       -4 0.15266934E-02 0.12500067E+03</pdfrwt>
<totfact> 0.64206689E+03</totfact>
</mgrwt>
</event>
<event>
 5    1  0.3191162E-002  0.1249992E+03  0.7818608E-02  0.1235070E+00
          4   -1    0    0  501    0  0.00000000000E+00  0.00000000000E+00  0.11275073772E+03  0.11275789000E+03  0.12700000000E+01 0. -1.
         -4   -1    0    0    0  501 -0.00000000000E+00 -0.00000000000E+00 -0.34624694237E+02  0.34647977589E+02  0.12700000000E+01 0. -1.
         25    2    1    2    0    0  0.00000000000E+00  0.00000000000E+00  0.78126043483E+02  0.14740586758E+03  0.12499924451E+03 0.  0.
    9000005    1    3    3    0    0 -0.35479242481E+02  0.50523768528E+02  0.27643424133E+02  0.67650474729E+02  0.10000000000E+01 0.  0.
    9000005    1    3    3    0    0  0.35479242481E+02 -0.50523768528E+02  0.50482619349E+02  0.79755392856E+02  0.10000000000E+01 0.  0.
<mgrwt>
<rscale>  0 0.12499924E+03</rscale>
<asrwt>0</asrwt>
<pdfrwt beam="1">  1        4 0.17348609E-01 0.12499924E+03</pdfrwt>
<pdfrwt beam="2">  1       -4 0.53292171E-02 0.12499924E+03</pdfrwt>
<totfact> 0.99825033E+03</totfact>
</mgrwt>
</event>
<event>
 5    1  0.3191162E-002  0.1249888E+03  0.7818608E-02  0.1235087E+00
          4   -1    0    0  501    0  0.00000000000E+00  0.00000000000E+00  0.80145744518E+01  0.81145735343E+01  0.12700000000E+01 0.  1.
         -4   -1    0    0    0  501 -0.00000000000E+00 -0.00000000000E+00 -0.48418395742E+03  0.48418562301E+03  0.12700000000E+01 0.  1.
         25    2    1    2    0    0  0.00000000000E+00  0.00000000000E+00 -0.47616938297E+03  0.49230019654E+03  0.12498880844E+03 0.  0.
    9000005    1    3    3    0    0  0.60100013610E+02  0.72947276627E+01 -0.29901785208E+03  0.30508670989E+03  0.10000000000E+01 0.  0.
    9000005    1    3    3    0    0 -0.60100013610E+02 -0.72947276627E+01 -0.17715153089E+03  0.18721348665E+03  0.10000000000E+01 0.  0.
<mgrwt>
<rscale>  0 0.12498881E+03</rscale>
<asrwt>0</asrwt>
<pdfrwt beam="1">  1        4 0.12408322E-02 0.12498881E+03</pdfrwt>
<pdfrwt beam="2">  1       -4 0.74497637E-01 0.12498881E+03</pdfrwt>
<totfact> 0.56480676E+03</totfact>
</mgrwt>
</event>
<event>
 5    1  0.3191162E-002  0.1249993E+03  0.7818608E-02  0.1235070E+00
         -4   -1    0    0    0  501 -0.00000000000E+00  0.00000000000E+00  0.16725597565E+03  0.16726079723E+03  0.12700000000E+01 0.  1.
          4   -1    0    0  501    0  0.00000000000E+00 -0.00000000000E+00 -0.23332247864E+02  0.23366786052E+02  0.12700000000E+01 0.  1.
         25    2    1    2    0    0  0.00000000000E+00  0.00000000000E+00  0.14392372778E+03  0.19062758328E+03  0.12499934435E+03 0.  0.
    9000005    1    3    3    0    0 -0.32090288617E+02  0.11899099448E+02  0.15169962987E+03  0.15551576413E+03  0.10000000000E+01 0.  0.
    9000005    1    3    3    0    0  0.32090288617E+02 -0.11899099448E+02 -0.77759020808E+01  0.35111819155E+02  0.10000000000E+01 0.  0.
<mgrwt>
<rscale>  0 0.12499934E+03</rscale>
<asrwt>0</asrwt>
<pdfrwt beam="2">  1        4 0.35926044E-02 0.12499934E+03</pdfrwt>
<pdfrwt beam="1">  1       -4 0.25734715E-01 0.12499934E+03</pdfrwt>
<totfact> 0.91739580E+03</totfact>
</mgrwt>
</event>
<event>
 5    1  0.3191162E-002  0.1250010E+03  0.7818608E-02  0.1235068E+00
          4   -1    0    0  501    0  0.00000000000E+00  0.00000000000E+00  0.36480404919E+02  0.36502504613E+02  0.12700000000E+01 0.  1.
         -4   -1    0    0    0  501 -0.00000000000E+00 -0.00000000000E+00 -0.10702144508E+03  0.10702898022E+03  0.12700000000E+01 0.  1.
         25    2    1    2    0    0  0.00000000000E+00  0.00000000000E+00 -0.70541040158E+02  0.14353148483E+03  0.12500099516E+03 0.  0.
    9000005    1    3    3    0    0  0.43590524600E+02  0.21348917850E+02  0.99271214085E+01  0.49552576802E+02  0.10000000000E+01 0.  0.
    9000005    1    3    3    0    0 -0.43590524600E+02 -0.21348917850E+02 -0.80468161566E+02  0.93978908028E+02  0.10000000000E+01 0.  0.
<mgrwt>
<rscale>  0 0.12500100E+03</rscale>
<asrwt>0</asrwt>
<pdfrwt beam="1">  1        4 0.56146496E-02 0.12500100E+03</pdfrwt>
<pdfrwt beam="2">  1       -4 0.16467117E-01 0.12500100E+03</pdfrwt>
<totfact> 0.10060686E+04</totfact>
</mgrwt>
</event>
<event>
 5    1  0.3191162E-002  0.1249997E+03  0.7818608E-02  0.1235070E+00
         -4   -1    0    0    0  501 -0.00000000000E+00  0.00000000000E+00  0.23938080294E+02  0.23971745622E+02  0.12700000000E+01 0.  1.
          4   -1    0    0  501    0  0.00000000000E+00 -0.00000000000E+00 -0.16302996157E+03  0.16303490813E+03  0.12700000000E+01 0.  1.
         25    2    1    2    0    0  0.00000000000E+00  0.00000000000E+00 -0.13909188127E+03  0.18700665375E+03  0.12499974844E+03 0.  0.
    9000005    1    3    3    0    0 -0.93988827147E+01  0.57471093922E+02 -0.35629034249E+02  0.68276597121E+02  0.10000000000E+01 0.  0.
    9000005    1    3    3    0    0  0.93988827147E+01 -0.57471093922E+02 -0.10346284702E+03  0.11873005663E+03  0.10000000000E+01 0.  0.
<mgrwt>
<rscale>  0 0.12499975E+03</rscale>
<asrwt>0</asrwt>
<pdfrwt beam="2">  1        4 0.25084502E-01 0.12499975E+03</pdfrwt>
<pdfrwt beam="1">  1       -4 0.36857518E-02 0.12499975E+03</pdfrwt>
<totfact> 0.92371292E+03</totfact>
</mgrwt>
</event>
<event>
 5    1  0.3191162E-002  0.1249941E+03  0.7818608E-02  0.1235078E+00
          4   -1    0    0  501    0  0.00000000000E+00  0.00000000000E+00  0.75066770847E+03  0.75066878278E+03  0.12700000000E+01 0. -1.
         -4   -1    0    0    0  501 -0.00000000000E+00 -0.00000000000E+00 -0.51246202801E+01  0.52796432659E+01  0.12700000000E+01 0. -1.
         25    2    1    2    0    0  0.00000000000E+00  0.00000000000E+00  0.74554308819E+03  0.75594842604E+03  0.12499410583E+03 0.  0.
    9000005    1    3    3    0    0  0.92459646723E+01  0.32527079289E+02  0.69058036461E+03  0.69140851798E+03  0.10000000000E+01 0.  0.
    9000005    1    3    3    0    0 -0.92459646723E+01 -0.32527079289E+02  0.54962723578E+02  0.64539908064E+02  0.10000000000E+01 0.  0.
<mgrwt>
<rscale>  0 0.12499411E+03</rscale>
<asrwt>0</asrwt>
<pdfrwt beam="1">  1        4 0.11549923E+00 0.12499411E+03</pdfrwt>
<pdfrwt beam="2">  1       -4 0.80041138E-03 0.12499411E+03</pdfrwt>
<totfact> 0.40296453E+03</totfact>
</mgrwt>
</event>
<event>
 5    1  0.3191162E-002  0.1249969E+03  0.7818608E-02  0.1235074E+00
         -4   -1    0    0    0  501 -0.00000000000E+00  0.00000000000E+00  0.31495064189E+02  0.31520659388E+02  0.12700000000E+01 0. -1.
          4   -1    0    0  501    0  0.00000000000E+00 -0.00000000000E+00 -0.12394199818E+03  0.12394850468E+03  0.12700000000E+01 0. -1.
         25    2    1    2    0    0  0.00000000000E+00  0.00000000000E+00 -0.92446933993E+02  0.15546916407E+03  0.12499690145E+03 0.  0.
    9000005    1    3    3    0    0  0.64557012195E+01  0.43705028514E+02  0.87463151279E+01  0.45047792665E+02  0.10000000000E+01 0.  0.
    9000005    1    3    3    0    0 -0.64557012195E+01 -0.43705028514E+02 -0.10119324912E+03  0.11042137141E+03  0.10000000000E+01 0.  0.
<mgrwt>
<rscale>  0 0.12499690E+03</rscale>
<asrwt>0</asrwt>
<pdfrwt beam="2">  1        4 0.19070469E-01 0.12499690E+03</pdfrwt>
<pdfrwt beam="1">  1       -4 0.48478639E-02 0.12499690E+03</pdfrwt>
<totfact> 0.98230320E+03</totfact>
</mgrwt>
</event>
<event>
 5    1  0.3191162E-002  0.1249989E+03  0.7818608E-02  0.1235071E+00
         -4   -1    0    0    0  501 -0.00000000000E+00  0.00000000000E+00  0.12227205466E+02  0.12292983914E+02  0.12700000000E+01 0. -1.
          4   -1    0    0  501    0  0.00000000000E+00 -0.00000000000E+00 -0.31854241790E+03  0.31854494958E+03  0.12700000000E+01 0. -1.
         25    2    1    2    0    0  0.00000000000E+00  0.00000000000E+00 -0.30631521243E+03  0.33083793349E+03  0.12499891547E+03 0.  0.
    9000005    1    3    3    0    0  0.55318356609E+01  0.59146087405E+02 -0.20450146284E+03  0.21295705944E+03  0.10000000000E+01 0.  0.
    9000005    1    3    3    0    0 -0.55318356609E+01 -0.59146087405E+02 -0.10181374959E+03  0.11788087405E+03  0.10000000000E+01 0.  0.
<mgrwt>
<rscale>  0 0.12499892E+03</rscale>
<asrwt>0</asrwt>
<pdfrwt beam="2">  1        4 0.49011774E-01 0.12499892E+03</pdfrwt>
<pdfrwt beam="1">  1       -4 0.18863634E-02 0.12499892E+03</pdfrwt>
<totfact> 0.71887102E+03</totfact>
</mgrwt>
</event>
<event>
 5    1  0.3191162E-002  0.1250004E+03  0.7818608E-02  0.1235069E+00
          4   -1    0    0  501    0  0.00000000000E+00  0.00000000000E+00  0.13199710484E+04  0.13199716593E+04  0.12700000000E+01 0.  1.
         -4   -1    0    0    0  501 -0.00000000000E+00 -0.00000000000E+00 -0.28224720243E+01  0.30950360787E+01  0.12700000000E+01 0.  1.
         25    2    1    2    0    0  0.00000000000E+00  0.00000000000E+00  0.13171485764E+04  0.13230666954E+04  0.12500043332E+03 0.  0.
    9000005    1    3    3    0    0  0.15753735737E+02  0.28711764059E+01  0.19209938422E+02  0.25028894858E+02  0.10000000000E+01 0.  0.
    9000005    1    3    3    0    0 -0.15753735737E+02 -0.28711764059E+01  0.12979386379E+04  0.12980378006E+04  0.10000000000E+01 0.  0.
<mgrwt>
<rscale>  0 0.12500043E+03</rscale>
<asrwt>0</asrwt>
<pdfrwt beam="1">  1        4 0.20309285E+00 0.12500043E+03</pdfrwt>
<pdfrwt beam="2">  1       -4 0.45524135E-03 0.12500043E+03</pdfrwt>
<totfact> 0.21690458E+03</totfact>
</mgrwt>
</event>
<event>
 5    1  0.3191162E-002  0.1249961E+03  0.7818608E-02  0.1235075E+00
          4   -1    0    0  501    0  0.00000000000E+00  0.00000000000E+00  0.69862447251E+02  0.69873989695E+02  0.12700000000E+01 0. -1.
         -4   -1    0    0    0  501 -0.00000000000E+00 -0.00000000000E+00 -0.55886550255E+02  0.55900978519E+02  0.12700000000E+01 0. -1.
         25    2    1    2    0    0  0.00000000000E+00  0.00000000000E+00  0.13975896996E+02  0.12577496821E+03  0.12499606767E+03 0.  0.
    9000005    1    3    3    0    0  0.43957357539E+02  0.25160521642E+02 -0.29842087831E+02  0.58794994151E+02  0.10000000000E+01 0.  0.
    9000005    1    3    3    0    0 -0.43957357539E+02 -0.25160521642E+02  0.43817984827E+02  0.66979974063E+02  0.10000000000E+01 0.  0.
<mgrwt>
<rscale>  0 0.12499607E+03</rscale>
<asrwt>0</asrwt>
<pdfrwt beam="1">  1        4 0.10750067E-01 0.12499607E+03</pdfrwt>
<pdfrwt beam="2">  1       -4 0.85999285E-02 0.12499607E+03</pdfrwt>
<totfact> 0.10436821E+04</totfact>
</mgrwt>
</event>
<event>
 5    1  0.3191162E-002  0.1250007E+03  0.7818608E-02  0.1235068E+00
          4   -1    0    0  501    0  0.00000000000E+00  0.00000000000E+00  0.38521203336E+01  0.40560733554E+01  0.12700000000E+01 0. -1.
         -4   -1    0    0    0  501 -0.00000000000E+00 -0.00000000000E+00 -0.98770610144E+03  0.98770691793E+03  0.12700000000E+01 0. -1.
         25    2    1    2    0    0  0.00000000000E+00  0.00000000000E+00 -0.98385398110E+03  0.99176299128E+03  0.12500069896E+03 0.  0.
    9000005    1    3    3    0    0  0.56835722851E+02 -0.22577581248E+02 -0.59391812054E+03  0.59705927719E+03  0.10000000000E+01 0.  0.
    9000005    1    3    3    0    0 -0.56835722851E+02  0.22577581248E+02 -0.38993586056E+03  0.39470371409E+03  0.10000000000E+01 0.  0.
<mgrwt>
<rscale>  0 0.12500070E+03</rscale>
<asrwt>0</asrwt>
<pdfrwt beam="1">  1        4 0.60838619E-03 0.12500070E+03</pdfrwt>
<pdfrwt beam="2">  1       -4 0.15197034E+00 0.12500070E+03</pdfrwt>
<totfact> 0.30877591E+03</totfact>
</mgrwt>
</event>
<event>
 5    1  0.3191162E-002  0.1250032E+03  0.7818608E-02  0.1235064E+00
         -4   -1    0    0    0  501 -0.00000000000E+00  0.00000000000E+00  0.65226423569E+01  0.66451307975E+01  0.12700000000E+01 0. -1.
          4   -1    0    0  501    0  0.00000000000E+00 -0.00000000000E+00 -0.59321149909E+03  0.59321285856E+03  0.12700000000E+01 0. -1.
         25    2    1    2    0    0  0.00000000000E+00  0.00000000000E+00 -0.58668885674E+03  0.59985798935E+03  0.12500317105E+03 0.  0.
    9000005    1    3    3    0    0  0.36869540735E+02 -0.29625388211E+02 -0.97333488843E+02  0.10822123041E+03  0.10000000000E+01 0.  0.
    9000005    1    3    3    0    0 -0.36869540735E+02  0.29625388211E+02 -0.48935536789E+03  0.49163675895E+03  0.10000000000E+01 0.  0.
<mgrwt>
<rscale>  0 0.12500317E+03</rscale>
<asrwt>0</asrwt>
<pdfrwt beam="2">  1        4 0.91272793E-01 0.12500317E+03</pdfrwt>
<pdfrwt beam="1">  1       -4 0.10130107E-02 0.12500317E+03</pdfrwt>
<totfact> 0.48873194E+03</totfact>
</mgrwt>
</event>
<event>
 5    1  0.3191162E-002  0.1249995E+03  0.7818608E-02  0.1235070E+00
          4   -1    0    0  501    0  0.00000000000E+00  0.00000000000E+00  0.15285879204E+03  0.15286406774E+03  0.12700000000E+01 0.  1.
         -4   -1    0    0    0  501 -0.00000000000E+00 -0.00000000000E+00 -0.25532911891E+02  0.25564477105E+02  0.12700000000E+01 0.  1.
         25    2    1    2    0    0  0.00000000000E+00  0.00000000000E+00  0.12732588015E+03  0.17842854484E+03  0.12499946343E+03 0.  0.
    9000005    1    3    3    0    0 -0.19044494148E+02 -0.59405166154E+02  0.58408518784E+02  0.85464738867E+02  0.10000000000E+01 0.  0.
    9000005    1    3    3    0    0  0.19044494148E+02  0.59405166154E+02  0.68917361368E+02  0.92963805973E+02  0.10000000000E+01 0.  0.
<mgrwt>
<rscale>  0 0.12499946E+03</rscale>
<asrwt>0</asrwt>
<pdfrwt beam="1">  1        4 0.23519571E-01 0.12499946E+03</pdfrwt>
<pdfrwt beam="2">  1       -4 0.39309742E-02 0.12499946E+03</pdfrwt>
<totfact> 0.93901767E+03</totfact>
</mgrwt>
</event>
<event>
 5    1  0.3191162E-002  0.1249969E+03  0.7818608E-02  0.1235074E+00
          4   -1    0    0  501    0  0.00000000000E+00  0.00000000000E+00  0.11745189524E+03  0.11745876125E+03  0.12700000000E+01 0. -1.
         -4   -1    0    0    0  501 -0.00000000000E+00 -0.00000000000E+00 -0.33236674185E+02  0.33260929194E+02  0.12700000000E+01 0. -1.
         25    2    1    2    0    0  0.00000000000E+00  0.00000000000E+00  0.84215221051E+02  0.15071969045E+03  0.12499688649E+03 0.  0.
    9000005    1    3    3    0    0 -0.30053981012E+02 -0.42973458680E+02  0.11268757745E+01  0.52461698167E+02  0.10000000000E+01 0.  0.
    9000005    1    3    3    0    0  0.30053981012E+02  0.42973458680E+02  0.83088345277E+02  0.98257992278E+02  0.10000000000E+01 0.  0.
<mgrwt>
<rscale>  0 0.12499689E+03</rscale>
<asrwt>0</asrwt>
<pdfrwt beam="1">  1        4 0.18071916E-01 0.12499689E+03</pdfrwt>
<pdfrwt beam="2">  1       -4 0.51157284E-02 0.12499689E+03</pdfrwt>
<totfact> 0.99167380E+03</totfact>
</mgrwt>
</event>
<event>
 5    1  0.3191162E-002  0.1250011E+03  0.7818608E-02  0.1235068E+00
         -4   -1    0    0    0  501 -0.00000000000E+00  0.00000000000E+00  0.14112584488E+02  0.14169613295E+02  0.12700000000E+01 0.  1.
          4   -1    0    0  501    0  0.00000000000E+00 -0.00000000000E+00 -0.27618020402E+03  0.27618312402E+03  0.12700000000E+01 0.  1.
         25    2    1    2    0    0  0.00000000000E+00  0.00000000000E+00 -0.26206761953E+03  0.29035273731E+03  0.12500109943E+03 0.  0.
    9000005    1    3    3    0    0 -0.40205733694E+02 -0.46840431059E+02 -0.15364884523E+03  0.16558832882E+03  0.10000000000E+01 0.  0.
    9000005    1    3    3    0    0  0.40205733694E+02  0.46840431059E+02 -0.10841877431E+03  0.12476440849E+03  0.10000000000E+01 0.  0.
<mgrwt>
<rscale>  0 0.12500110E+03</rscale>
<asrwt>0</asrwt>
<pdfrwt beam="2">  1        4 0.42493870E-01 0.12500110E+03</pdfrwt>
<pdfrwt beam="1">  1       -4 0.21757785E-02 0.12500110E+03</pdfrwt>
<totfact> 0.76823256E+03</totfact>
</mgrwt>
</event>
<event>
 5    1  0.3191162E-002  0.1249996E+03  0.7818608E-02  0.1235070E+00
          4   -1    0    0  501    0  0.00000000000E+00  0.00000000000E+00  0.67466299153E+03  0.67466418687E+03  0.12700000000E+01 0. -1.
         -4   -1    0    0    0  501 -0.00000000000E+00 -0.00000000000E+00 -0.57190370002E+01  0.58583516632E+01  0.12700000000E+01 0. -1.
         25    2    1    2    0    0  0.00000000000E+00  0.00000000000E+00  0.66894395453E+03  0.68052253853E+03  0.12499964458E+03 0.  0.
    9000005    1    3    3    0    0 -0.34080967462E+02 -0.46997137376E+02  0.46039476906E+03  0.46404157857E+03  0.10000000000E+01 0.  0.
    9000005    1    3    3    0    0  0.34080967462E+02  0.46997137376E+02  0.20854918547E+03  0.21648095996E+03  0.10000000000E+01 0.  0.
<mgrwt>
<rscale>  0 0.12499964E+03</rscale>
<asrwt>0</asrwt>
<pdfrwt beam="1">  1        4 0.10380507E+00 0.12499964E+03</pdfrwt>
<pdfrwt beam="2">  1       -4 0.89066067E-03 0.12499964E+03</pdfrwt>
<totfact> 0.44135382E+03</totfact>
</mgrwt>
</event>
<event>
 5    1  0.3191162E-002  0.1250031E+03  0.7818608E-02  0.1235064E+00
          4   -1    0    0  501    0  0.00000000000E+00  0.00000000000E+00  0.61606345921E+02  0.61619434903E+02  0.12700000000E+01 0. -1.
         -4   -1    0    0    0  501 -0.00000000000E+00 -0.00000000000E+00 -0.63383609720E+02  0.63396331764E+02  0.12700000000E+01 0. -1.
         25    2    1    2    0    0  0.00000000000E+00  0.00000000000E+00 -0.17772637989E+01  0.12501576667E+03  0.12500313296E+03 0.  0.
    9000005    1    3    3    0    0  0.43943443665E+02  0.28824390189E+02 -0.34708822150E+02  0.62988681887E+02  0.10000000000E+01 0.  0.
    9000005    1    3    3    0    0 -0.43943443665E+02 -0.28824390189E+02  0.32931558351E+02  0.62027084780E+02  0.10000000000E+01 0.  0.
<mgrwt>
<rscale>  0 0.12500313E+03</rscale>
<asrwt>0</asrwt>
<pdfrwt beam="1">  1        4 0.94798848E-02 0.12500313E+03</pdfrwt>
<pdfrwt beam="2">  1       -4 0.97533101E-02 0.12500313E+03</pdfrwt>
<totfact> 0.10451780E+04</totfact>
</mgrwt>
</event>
<event>
 5    1  0.3191162E-002  0.1250029E+03  0.7818608E-02  0.1235065E+00
          4   -1    0    0  501    0  0.00000000000E+00  0.00000000000E+00  0.22903704879E+03  0.22904056981E+03  0.12700000000E+01 0. -1.
         -4   -1    0    0    0  501 -0.00000000000E+00 -0.00000000000E+00 -0.17028596482E+02  0.17075889381E+02  0.12700000000E+01 0. -1.
         25    2    1    2    0    0  0.00000000000E+00  0.00000000000E+00  0.21200845231E+03  0.24611645919E+03  0.12500291050E+03 0.  0.
    9000005    1    3    3    0    0  0.59685452574E+01 -0.62161080330E+02  0.11074939139E+03  0.12714578693E+03  0.10000000000E+01 0.  0.
    9000005    1    3    3    0    0 -0.59685452574E+01  0.62161080330E+02  0.10125906092E+03  0.11897067226E+03  0.10000000000E+01 0.  0.
<mgrwt>
<rscale>  0 0.12500291E+03</rscale>
<asrwt>0</asrwt>
<pdfrwt beam="1">  1        4 0.35240374E-01 0.12500291E+03</pdfrwt>
<pdfrwt beam="2">  1       -4 0.26236931E-02 0.12500291E+03</pdfrwt>
<totfact> 0.82889406E+03</totfact>
</mgrwt>
</event>
<event>
 5    1  0.3191162E-002  0.1250076E+03  0.7818608E-02  0.1235057E+00
          4   -1    0    0  501    0  0.00000000000E+00  0.00000000000E+00  0.31888728492E+02  0.31914007972E+02  0.12700000000E+01 0.  1.
         -4   -1    0    0    0  501 -0.00000000000E+00 -0.00000000000E+00 -0.12243399618E+03  0.12244058282E+03  0.12700000000E+01 0.  1.
         25    2    1    2    0    0  0.00000000000E+00  0.00000000000E+00 -0.90545267687E+02  0.15435459079E+03  0.12500757656E+03 0.  0.
    9000005    1    3    3    0    0 -0.36941849025E+01 -0.11032173796E+02 -0.12109111276E+03  0.12165283988E+03  0.10000000000E+01 0.  0.
    9000005    1    3    3    0    0  0.36941849025E+01  0.11032173796E+02  0.30545845078E+02  0.32701750906E+02  0.10000000000E+01 0.  0.
<mgrwt>
<rscale>  0 0.12500758E+03</rscale>
<asrwt>0</asrwt>
<pdfrwt beam="1">  1        4 0.49084095E-02 0.12500758E+03</pdfrwt>
<pdfrwt beam="2">  1       -4 0.18838450E-01 0.12500758E+03</pdfrwt>
<totfact> 0.98425576E+03</totfact>
</mgrwt>
</event>
<event>
 5    1  0.3191162E-002  0.1249989E+03  0.7818608E-02  0.1235071E+00
          4   -1    0    0  501    0  0.00000000000E+00  0.00000000000E+00  0.77506153005E+03  0.77506257054E+03  0.12700000000E+01 0.  1.
         -4   -1    0    0    0  501 -0.00000000000E+00 -0.00000000000E+00 -0.49587623210E+01  0.51188107755E+01  0.12700000000E+01 0.  1.
         25    2    1    2    0    0  0.00000000000E+00  0.00000000000E+00  0.77010276772E+03  0.78018138132E+03  0.12499885959E+03 0.  0.
    9000005    1    3    3    0    0 -0.41813498005E+02 -0.13543057252E+02  0.66231738629E+03  0.66377488894E+03  0.10000000000E+01 0.  0.
    9000005    1    3    3    0    0  0.41813498005E+02  0.13543057252E+02  0.10778538144E+03  0.11640649238E+03  0.10000000000E+01 0.  0.
<mgrwt>
<rscale>  0 0.12499886E+03</rscale>
<asrwt>0</asrwt>
<pdfrwt beam="1">  1        4 0.11925272E+00 0.12499886E+03</pdfrwt>
<pdfrwt beam="2">  1       -4 0.77527734E-03 0.12499886E+03</pdfrwt>
<totfact> 0.39165882E+03</totfact>
</mgrwt>
</event>
<event>
 5    1  0.3191162E-002  0.1250053E+03  0.7818608E-02  0.1235061E+00
         -4   -1    0    0    0  501 -0.00000000000E+00  0.00000000000E+00  0.89927567202E+02  0.89936534527E+02  0.12700000000E+01 0. -1.
          4   -1    0    0  501    0  0.00000000000E+00 -0.00000000000E+00 -0.43420993727E+02  0.43439562570E+02  0.12700000000E+01 0. -1.
         25    2    1    2    0    0  0.00000000000E+00  0.00000000000E+00  0.46506573474E+02  0.13337609710E+03  0.12500528749E+03 0.  0.
    9000005    1    3    3    0    0 -0.23463325726E+02 -0.57420278165E+02  0.15130022500E+02  0.63855568117E+02  0.10000000000E+01 0.  0.
    9000005    1    3    3    0    0  0.23463325726E+02  0.57420278165E+02  0.31376550974E+02  0.69520528980E+02  0.10000000000E+01 0.  0.
<mgrwt>
<rscale>  0 0.12500529E+03</rscale>
<asrwt>0</asrwt>
<pdfrwt beam="2">  1        4 0.66822710E-02 0.12500529E+03</pdfrwt>
<pdfrwt beam="1">  1       -4 0.13837129E-01 0.12500529E+03</pdfrwt>
<totfact> 0.10271188E+04</totfact>
</mgrwt>
</event>
<event>
 5    1  0.3191162E-002  0.1249983E+03  0.7818608E-02  0.1235072E+00
         -4   -1    0    0    0  501 -0.00000000000E+00  0.00000000000E+00  0.33195911030E+02  0.33220195801E+02  0.12700000000E+01 0.  1.
          4   -1    0    0  501    0  0.00000000000E+00 -0.00000000000E+00 -0.11759859538E+03  0.11760545283E+03  0.12700000000E+01 0.  1.
         25    2    1    2    0    0  0.00000000000E+00  0.00000000000E+00 -0.84402684349E+02  0.15082564863E+03  0.12499825262E+03 0.  0.
    9000005    1    3    3    0    0  0.71085950284E+00  0.60981532112E+02 -0.58652527026E+02  0.84618978406E+02  0.10000000000E+01 0.  0.
    9000005    1    3    3    0    0 -0.71085950284E+00 -0.60981532112E+02 -0.25750157323E+02  0.66206670224E+02  0.10000000000E+01 0.  0.
<mgrwt>
<rscale>  0 0.12499825E+03</rscale>
<asrwt>0</asrwt>
<pdfrwt beam="2">  1        4 0.18094487E-01 0.12499825E+03</pdfrwt>
<pdfrwt beam="1">  1       -4 0.51094588E-02 0.12499825E+03</pdfrwt>
<totfact> 0.99143270E+03</totfact>
</mgrwt>
</event>
<event>
 5    1  0.3191162E-002  0.1250021E+03  0.7818608E-02  0.1235066E+00
          4   -1    0    0  501    0  0.00000000000E+00  0.00000000000E+00  0.56705062879E+02  0.56719282930E+02  0.12700000000E+01 0.  1.
         -4   -1    0    0    0  501 -0.00000000000E+00 -0.00000000000E+00 -0.68860779855E+02  0.68872490170E+02  0.12700000000E+01 0.  1.
         25    2    1    2    0    0  0.00000000000E+00  0.00000000000E+00 -0.12155716977E+02  0.12559177310E+03  0.12500212804E+03 0.  0.
    9000005    1    3    3    0    0 -0.77381093480E+01  0.61866819746E+02 -0.10340663858E+02  0.63208472935E+02  0.10000000000E+01 0.  0.
    9000005    1    3    3    0    0  0.77381093480E+01 -0.61866819746E+02 -0.18150531189E+01  0.62383300166E+02  0.10000000000E+01 0.  0.
<mgrwt>
<rscale>  0 0.12500213E+03</rscale>
<asrwt>0</asrwt>
<pdfrwt beam="1">  1        4 0.87258505E-02 0.12500213E+03</pdfrwt>
<pdfrwt beam="2">  1       -4 0.10595961E-01 0.12500213E+03</pdfrwt>
<totfact> 0.10439427E+04</totfact>
</mgrwt>
</event>
<event>
 5    1  0.3191162E-002  0.1250010E+03  0.7818608E-02  0.1235068E+00
          4   -1    0    0  501    0  0.00000000000E+00  0.00000000000E+00  0.50291721077E+03  0.50291881431E+03  0.12700000000E+01 0. -1.
         -4   -1    0    0    0  501 -0.00000000000E+00 -0.00000000000E+00 -0.77137735140E+01  0.78176212383E+01  0.12700000000E+01 0. -1.
         25    2    1    2    0    0  0.00000000000E+00  0.00000000000E+00  0.49520343725E+03  0.51073643555E+03  0.12500104931E+03 0.  0.
    9000005    1    3    3    0    0  0.56965540934E+01 -0.60649256969E+02  0.30458917165E+03  0.31062251461E+03  0.10000000000E+01 0.  0.
    9000005    1    3    3    0    0 -0.56965540934E+01  0.60649256969E+02  0.19061426561E+03  0.20011392093E+03  0.10000000000E+01 0.  0.
<mgrwt>
<rscale>  0 0.12500105E+03</rscale>
<asrwt>0</asrwt>
<pdfrwt beam="1">  1        4 0.77379961E-01 0.12500105E+03</pdfrwt>
<pdfrwt beam="2">  1       -4 0.11948465E-02 0.12500105E+03</pdfrwt>
<totfact> 0.55039612E+03</totfact>
</mgrwt>
</event>
<event>
 5    1  0.3191162E-002  0.1250001E+03  0.7818608E-02  0.1235069E+00
          4   -1    0    0  501    0  0.00000000000E+00  0.00000000000E+00  0.12164433078E+02  0.12230549133E+02  0.12700000000E+01 0.  1.
         -4   -1    0    0    0  501 -0.00000000000E+00 -0.00000000000E+00 -0.32018324178E+03  0.32018576048E+03  0.12700000000E+01 0.  1.
         25    2    1    2    0    0  0.00000000000E+00  0.00000000000E+00 -0.30801880870E+03  0.33241630962E+03  0.12500006554E+03 0.  0.
    9000005    1    3    3    0    0 -0.46491413565E+02 -0.40308881389E+02 -0.18301885045E+03  0.19308846955E+03  0.10000000000E+01 0.  0.
    9000005    1    3    3    0    0  0.46491413565E+02  0.40308881389E+02 -0.12499995825E+03  0.13932784006E+03  0.10000000000E+01 0.  0.
<mgrwt>
<rscale>  0 0.12500007E+03</rscale>
<asrwt>0</asrwt>
<pdfrwt beam="1">  1        4 0.18767311E-02 0.12500007E+03</pdfrwt>
<pdfrwt beam="2">  1       -4 0.49264234E-01 0.12500007E+03</pdfrwt>
<totfact> 0.71703204E+03</totfact>
</mgrwt>
</event>
<event>
 5    1  0.3191162E-002  0.1250012E+03  0.7818608E-02  0.1235067E+00
          4   -1    0    0  501    0  0.00000000000E+00  0.00000000000E+00  0.21104428082E+01  0.24631014690E+01  0.12700000000E+01 0. -1.
         -4   -1    0    0    0  501 -0.00000000000E+00 -0.00000000000E+00 -0.17078744207E+04  0.17078748929E+04  0.12700000000E+01 0. -1.
         25    2    1    2    0    0  0.00000000000E+00  0.00000000000E+00 -0.17057639779E+04  0.17103379943E+04  0.12500122676E+03 0.  0.
    9000005    1    3    3    0    0  0.50543783775E+01  0.22237622753E+02 -0.56788264273E+02  0.61204293686E+02  0.10000000000E+01 0.  0.
    9000005    1    3    3    0    0 -0.50543783775E+01 -0.22237622753E+02 -0.16489757136E+04  0.16491337007E+04  0.10000000000E+01 0.  0.
<mgrwt>
<rscale>  0 0.12500123E+03</rscale>
<asrwt>0</asrwt>
<pdfrwt beam="1">  1        4 0.35184879E-03 0.12500123E+03</pdfrwt>
<pdfrwt beam="2">  1       -4 0.26277605E+00 0.12500123E+03</pdfrwt>
<totfact> 0.14135890E+03</totfact>
</mgrwt>
</event>
<event>
 5    1  0.3191162E-002  0.1249941E+03  0.7818608E-02  0.1235079E+00
         -4   -1    0    0    0  501 -0.00000000000E+00  0.00000000000E+00  0.26364802845E+02  0.26395373251E+02  0.12700000000E+01 0.  1.
          4   -1    0    0  501    0  0.00000000000E+00 -0.00000000000E+00 -0.14802834034E+03  0.14803378818E+03  0.12700000000E+01 0.  1.
         25    2    1    2    0    0  0.00000000000E+00  0.00000000000E+00 -0.12166353749E+03  0.17442916143E+03  0.12499406387E+03 0.  0.
    9000005    1    3    3    0    0  0.49871980151E+02  0.37618351836E+02 -0.58614635905E+02  0.85668140760E+02  0.10000000000E+01 0.  0.
    9000005    1    3    3    0    0 -0.49871980151E+02 -0.37618351836E+02 -0.63048901586E+02  0.88761020669E+02  0.10000000000E+01 0.  0.
<mgrwt>
<rscale>  0 0.12499406E+03</rscale>
<asrwt>0</asrwt>
<pdfrwt beam="2">  1        4 0.22776361E-01 0.12499406E+03</pdfrwt>
<pdfrwt beam="1">  1       -4 0.40588942E-02 0.12499406E+03</pdfrwt>
<totfact> 0.94642096E+03</totfact>
</mgrwt>
</event>
<event>
 5    1  0.3191162E-002  0.1250007E+03  0.7818608E-02  0.1235068E+00
         -4   -1    0    0    0  501 -0.00000000000E+00  0.00000000000E+00  0.29576258455E+03  0.29576531122E+03  0.12700000000E+01 0.  1.
          4   -1    0    0  501    0  0.00000000000E+00 -0.00000000000E+00 -0.13174207751E+02  0.13235280498E+02  0.12700000000E+01 0.  1.
         25    2    1    2    0    0  0.00000000000E+00  0.00000000000E+00  0.28258837680E+03  0.30900059171E+03  0.12500069991E+03 0.  0.
    9000005    1    3    3    0    0 -0.20072570876E+02 -0.36781547377E+02  0.25590245290E+03  0.25931227454E+03  0.10000000000E+01 0.  0.
    9000005    1    3    3    0    0  0.20072570876E+02  0.36781547377E+02  0.26685923900E+02  0.49688317172E+02  0.10000000000E+01 0.  0.
<mgrwt>
<rscale>  0 0.12500070E+03</rscale>
<asrwt>0</asrwt>
<pdfrwt beam="2">  1        4 0.20317092E-02 0.12500070E+03</pdfrwt>
<pdfrwt beam="1">  1       -4 0.45506836E-01 0.12500070E+03</pdfrwt>
<totfact> 0.74482363E+03</totfact>
</mgrwt>
</event>
<event>
 5    1  0.3191162E-002  0.1250017E+03  0.7818608E-02  0.1235067E+00
         -4   -1    0    0    0  501 -0.00000000000E+00  0.00000000000E+00  0.17583958806E+02  0.17629761975E+02  0.12700000000E+01 0. -1.
          4   -1    0    0  501    0  0.00000000000E+00 -0.00000000000E+00 -0.22181808999E+03  0.22182172560E+03  0.12700000000E+01 0. -1.
         25    2    1    2    0    0  0.00000000000E+00  0.00000000000E+00 -0.20423413119E+03  0.23945148758E+03  0.12500173823E+03 0.  0.
    9000005    1    3    3    0    0 -0.57888080609E+02  0.72895427118E+01 -0.59232278114E+02  0.83148241594E+02  0.10000000000E+01 0.  0.
    9000005    1    3    3    0    0  0.57888080609E+02 -0.72895427118E+01 -0.14500185307E+03  0.15630324598E+03  0.10000000000E+01 0.  0.
<mgrwt>
<rscale>  0 0.12500174E+03</rscale>
<asrwt>0</asrwt>
<pdfrwt beam="2">  1        4 0.34129661E-01 0.12500174E+03</pdfrwt>
<pdfrwt beam="1">  1       -4 0.27090276E-02 0.12500174E+03</pdfrwt>
<totfact> 0.83875877E+03</totfact>
</mgrwt>
</event>
<event>
 5    1  0.3191162E-002  0.1249965E+03  0.7818608E-02  0.1235075E+00
          4   -1    0    0  501    0  0.00000000000E+00  0.00000000000E+00  0.25613371771E+03  0.25613686624E+03  0.12700000000E+01 0.  1.
         -4   -1    0    0    0  501 -0.00000000000E+00 -0.00000000000E+00 -0.15220291809E+02  0.15273185089E+02  0.12700000000E+01 0.  1.
         25    2    1    2    0    0  0.00000000000E+00  0.00000000000E+00  0.24091342590E+03  0.27141005133E+03  0.12499654869E+03 0.  0.
    9000005    1    3    3    0    0 -0.59008850436E+02 -0.18842039583E+02  0.10255567277E+03  0.11981541179E+03  0.10000000000E+01 0.  0.
    9000005    1    3    3    0    0  0.59008850436E+02  0.18842039583E+02  0.13835775313E+03  0.15159463954E+03  0.10000000000E+01 0.  0.
<mgrwt>
<rscale>  0 0.12499655E+03</rscale>
<asrwt>0</asrwt>
<pdfrwt beam="1">  1        4 0.39409496E-01 0.12499655E+03</pdfrwt>
<pdfrwt beam="2">  1       -4 0.23458944E-02 0.12499655E+03</pdfrwt>
<totfact> 0.79337107E+03</totfact>
</mgrwt>
</event>
<event>
 5    1  0.3191162E-002  0.1250056E+03  0.7818608E-02  0.1235061E+00
          4   -1    0    0  501    0  0.00000000000E+00  0.00000000000E+00  0.10243543066E+04  0.10243550939E+04  0.12700000000E+01 0. -1.
         -4   -1    0    0    0  501 -0.00000000000E+00 -0.00000000000E+00 -0.37071762879E+01  0.39186803939E+01  0.12700000000E+01 0. -1.
         25    2    1    2    0    0  0.00000000000E+00  0.00000000000E+00  0.10206471303E+04  0.10282737743E+04  0.12500556083E+03 0.  0.
    9000005    1    3    3    0    0 -0.10401437848E+02 -0.41012225672E+01  0.10161005705E+04  0.10161625753E+04  0.10000000000E+01 0.  0.
    9000005    1    3    3    0    0  0.10401437848E+02  0.41012225672E+01  0.45465598045E+01  0.12111199028E+02  0.10000000000E+01 0.  0.
<mgrwt>
<rscale>  0 0.12500556E+03</rscale>
<asrwt>0</asrwt>
<pdfrwt beam="1">  1        4 0.15760941E+00 0.12500556E+03</pdfrwt>
<pdfrwt beam="2">  1       -4 0.58666453E-03 0.12500556E+03</pdfrwt>
<totfact> 0.29679333E+03</totfact>
</mgrwt>
</event>
<event>
 5    1  0.3191162E-002  0.1249903E+03  0.7818608E-02  0.1235084E+00
          4   -1    0    0  501    0  0.00000000000E+00  0.00000000000E+00  0.61332676704E+03  0.61332808191E+03  0.12700000000E+01 0.  1.
         -4   -1    0    0    0  501 -0.00000000000E+00 -0.00000000000E+00 -0.63033104504E+01  0.64299784319E+01  0.12700000000E+01 0.  1.
         25    2    1    2    0    0  0.00000000000E+00  0.00000000000E+00  0.60702345659E+03  0.61975806034E+03  0.12499030569E+03 0.  0.
    9000005    1    3    3    0    0  0.40627692504E+02  0.45059551743E+02  0.37766856665E+03  0.38251211594E+03  0.10000000000E+01 0.  0.
    9000005    1    3    3    0    0 -0.40627692504E+02 -0.45059551743E+02  0.22935488994E+03  0.23724594441E+03  0.10000000000E+01 0.  0.
<mgrwt>
<rscale>  0 0.12499031E+03</rscale>
<asrwt>0</asrwt>
<pdfrwt beam="1">  1        4 0.94367844E-01 0.12499031E+03</pdfrwt>
<pdfrwt beam="2">  1       -4 0.97958455E-03 0.12499031E+03</pdfrwt>
<totfact> 0.47653823E+03</totfact>
</mgrwt>
</event>
<event>
 5    1  0.3191162E-002  0.1250013E+03  0.7818608E-02  0.1235067E+00
         -4   -1    0    0    0  501 -0.00000000000E+00  0.00000000000E+00  0.23664720089E+01  0.26857195998E+01  0.12700000000E+01 0.  1.
          4   -1    0    0  501    0  0.00000000000E+00 -0.00000000000E+00 -0.15460703764E+04  0.15460708980E+04  0.12700000000E+01 0.  1.
         25    2    1    2    0    0  0.00000000000E+00  0.00000000000E+00 -0.15437039044E+04  0.15487566176E+04  0.12500126466E+03 0.  0.
    9000005    1    3    3    0    0 -0.20838637978E+02 -0.57166675581E+02 -0.94840359980E+03  0.95035396866E+03  0.10000000000E+01 0.  0.
    9000005    1    3    3    0    0  0.20838637978E+02  0.57166675581E+02 -0.59530030458E+03  0.59840264894E+03  0.10000000000E+01 0.  0.
<mgrwt>
<rscale>  0 0.12500126E+03</rscale>
<asrwt>0</asrwt>
<pdfrwt beam="2">  1        4 0.23788082E+00 0.12500126E+03</pdfrwt>
<pdfrwt beam="1">  1       -4 0.38867148E-03 0.12500126E+03</pdfrwt>
<totfact> 0.16991285E+03</totfact>
</mgrwt>
</event>
<event>
 5    1  0.3191162E-002  0.1249992E+03  0.7818608E-02  0.1235071E+00
          4   -1    0    0  501    0  0.00000000000E+00  0.00000000000E+00  0.76200112942E+01  0.77251195540E+01  0.12700000000E+01 0. -1.
         -4   -1    0    0    0  501 -0.00000000000E+00 -0.00000000000E+00 -0.50900654375E+03  0.50900812811E+03  0.12700000000E+01 0. -1.
         25    2    1    2    0    0  0.00000000000E+00  0.00000000000E+00 -0.50138653245E+03  0.51673324766E+03  0.12499917724E+03 0.  0.
    9000005    1    3    3    0    0 -0.57402472923E+02 -0.23196954911E+02 -0.21560238984E+03  0.22431792866E+03  0.10000000000E+01 0.  0.
    9000005    1    3    3    0    0  0.57402472923E+02  0.23196954911E+02 -0.28578414261E+03  0.29241531900E+03  0.10000000000E+01 0.  0.
<mgrwt>
<rscale>  0 0.12499918E+03</rscale>
<asrwt>0</asrwt>
<pdfrwt beam="1">  1        4 0.11805170E-02 0.12499918E+03</pdfrwt>
<pdfrwt beam="2">  1       -4 0.78316880E-01 0.12499918E+03</pdfrwt>
<totfact> 0.54590049E+03</totfact>
</mgrwt>
</event>
<event>
 5    1  0.3191162E-002  0.1250000E+03  0.7818608E-02  0.1235069E+00
          4   -1    0    0  501    0  0.00000000000E+00  0.00000000000E+00  0.33513605902E+04  0.33513608309E+04  0.12700000000E+01 0.  1.
         -4   -1    0    0    0  501 -0.00000000000E+00 -0.00000000000E+00 -0.81931300171E+00  0.15113483367E+01  0.12700000000E+01 0.  1.
         25    2    1    2    0    0  0.00000000000E+00  0.00000000000E+00  0.33505412772E+04  0.33528721792E+04  0.12499999858E+03 0.  0.
    9000005    1    3    3    0    0  0.67229298334E+00  0.52658521496E+02  0.25776866818E+04  0.25782247771E+04  0.10000000000E+01 0.  0.
    9000005    1    3    3    0    0 -0.67229298334E+00 -0.52658521496E+02  0.77285459550E+03  0.77464740214E+03  0.10000000000E+01 0.  0.
<mgrwt>
<rscale>  0 0.12500000E+03</rscale>
<asrwt>0</asrwt>
<pdfrwt beam="1">  1        4 0.51564388E+00 0.12500000E+03</pdfrwt>
<pdfrwt beam="2">  1       -4 0.17930130E-03 0.12500000E+03</pdfrwt>
<totfact> 0.82579472E+01</totfact>
</mgrwt>
</event>
<event>
 5    1  0.3191162E-002  0.1250011E+03  0.7818608E-02  0.1235068E+00
         -4   -1    0    0    0  501 -0.00000000000E+00  0.00000000000E+00  0.62329957586E+01  0.63610640719E+01  0.12700000000E+01 0. -1.
          4   -1    0    0  501    0  0.00000000000E+00 -0.00000000000E+00 -0.62021420281E+03  0.62021550308E+03  0.12700000000E+01 0. -1.
         25    2    1    2    0    0  0.00000000000E+00  0.00000000000E+00 -0.61398120705E+03  0.62657656716E+03  0.12500108759E+03 0.  0.
    9000005    1    3    3    0    0 -0.47486394383E+02  0.33415598311E+02 -0.42279701435E+03  0.42676676910E+03  0.10000000000E+01 0.  0.
    9000005    1    3    3    0    0  0.47486394383E+02 -0.33415598311E+02 -0.19118419270E+03  0.19980979806E+03  0.10000000000E+01 0.  0.
<mgrwt>
<rscale>  0 0.12500109E+03</rscale>
<asrwt>0</asrwt>
<pdfrwt beam="2">  1        4 0.95427473E-01 0.12500109E+03</pdfrwt>
<pdfrwt beam="1">  1       -4 0.96887434E-03 0.12500109E+03</pdfrwt>
<totfact> 0.47230766E+03</totfact>
</mgrwt>
</event>
<event>
 5    1  0.3191162E-002  0.1249975E+03  0.7818608E-02  0.1235073E+00
         -4   -1    0    0    0  501 -0.00000000000E+00  0.00000000000E+00  0.24524672311E+03  0.24525001141E+03  0.12700000000E+01 0.  1.
          4   -1    0    0  501    0  0.00000000000E+00 -0.00000000000E+00 -0.15898484765E+02  0.15949129062E+02  0.12700000000E+01 0.  1.
         25    2    1    2    0    0  0.00000000000E+00  0.00000000000E+00  0.22934823834E+03  0.26119914047E+03  0.12499750618E+03 0.  0.
    9000005    1    3    3    0    0  0.59339627268E+02 -0.19017035360E+01  0.73924295548E+02  0.94818823621E+02  0.10000000000E+01 0.  0.
    9000005    1    3    3    0    0 -0.59339627268E+02  0.19017035360E+01  0.15542394279E+03  0.16638031685E+03  0.10000000000E+01 0.  0.
<mgrwt>
<rscale>  0 0.12499751E+03</rscale>
<asrwt>0</asrwt>
<pdfrwt beam="2">  1        4 0.24500695E-02 0.12499751E+03</pdfrwt>
<pdfrwt beam="1">  1       -4 0.37734412E-01 0.12499751E+03</pdfrwt>
<totfact> 0.80742555E+03</totfact>
</mgrwt>
</event>
<event>
 5    1  0.3191162E-002  0.1249973E+03  0.7818608E-02  0.1235074E+00
         -4   -1    0    0    0  501 -0.00000000000E+00  0.00000000000E+00  0.80286125550E+02  0.80296169621E+02  0.12700000000E+01 0. -1.
          4   -1    0    0  501    0  0.00000000000E+00 -0.00000000000E+00 -0.48630625832E+02  0.48647206177E+02  0.12700000000E+01 0. -1.
         25    2    1    2    0    0  0.00000000000E+00  0.00000000000E+00  0.31655499717E+02  0.12894337580E+03  0.12499729397E+03 0.  0.
    9000005    1    3    3    0    0  0.26309115710E+02 -0.54631635415E+02  0.31414203320E+02  0.68298150252E+02  0.10000000000E+01 0.  0.
    9000005    1    3    3    0    0 -0.26309115710E+02  0.54631635415E+02  0.24129639708E+00  0.60645225546E+02  0.10000000000E+01 0.  0.
<mgrwt>
<rscale>  0 0.12499729E+03</rscale>
<asrwt>0</asrwt>
<pdfrwt beam="2">  1        4 0.74836828E-02 0.12499729E+03</pdfrwt>
<pdfrwt beam="1">  1       -4 0.12353760E-01 0.12499729E+03</pdfrwt>
<totfact> 0.10367797E+04</totfact>
</mgrwt>
</event>
<event>
 5    1  0.3191162E-002  0.1250024E+03  0.7818608E-02  0.1235066E+00
          4   -1    0    0  501    0  0.00000000000E+00  0.00000000000E+00  0.52001434678E+03  0.52001589760E+03  0.12700000000E+01 0. -1.
         -4   -1    0    0    0  501 -0.00000000000E+00 -0.00000000000E+00 -0.74568477474E+01  0.75642235773E+01  0.12700000000E+01 0. -1.
         25    2    1    2    0    0  0.00000000000E+00  0.00000000000E+00  0.51255749903E+03  0.52758012118E+03  0.12500237777E+03 0.  0.
    9000005    1    3    3    0    0  0.54888649044E+02 -0.23115927195E+02  0.33616770108E+03  0.34140420784E+03  0.10000000000E+01 0.  0.
    9000005    1    3    3    0    0 -0.54888649044E+02  0.23115927195E+02  0.17638979796E+03  0.18617591334E+03  0.10000000000E+01 0.  0.
<mgrwt>
<rscale>  0 0.12500238E+03</rscale>
<asrwt>0</asrwt>
<pdfrwt beam="1">  1        4 0.80010601E-01 0.12500238E+03</pdfrwt>
<pdfrwt beam="2">  1       -4 0.11555861E-02 0.12500238E+03</pdfrwt>
<totfact> 0.53783417E+03</totfact>
</mgrwt>
</event>
<event>
 5    1  0.3191162E-002  0.1249924E+03  0.7818608E-02  0.1235081E+00
          4   -1    0    0  501    0  0.00000000000E+00  0.00000000000E+00  0.13078166461E+02  0.13139685612E+02  0.12700000000E+01 0. -1.
         -4   -1    0    0    0  501 -0.00000000000E+00 -0.00000000000E+00 -0.29788505610E+03  0.29788776334E+03  0.12700000000E+01 0. -1.
         25    2    1    2    0    0  0.00000000000E+00  0.00000000000E+00 -0.28480688964E+03  0.31102744896E+03  0.12499243823E+03 0.  0.
    9000005    1    3    3    0    0  0.33637386930E+02  0.30624716759E+01 -0.11582254818E+02  0.35721158421E+02  0.10000000000E+01 0.  0.
    9000005    1    3    3    0    0 -0.33637386930E+02 -0.30624716759E+01 -0.27322463483E+03  0.27530629053E+03  0.10000000000E+01 0.  0.
<mgrwt>
<rscale>  0 0.12499244E+03</rscale>
<asrwt>0</asrwt>
<pdfrwt beam="1">  1        4 0.20169663E-02 0.12499244E+03</pdfrwt>
<pdfrwt beam="2">  1       -4 0.45833406E-01 0.12499244E+03</pdfrwt>
<totfact> 0.74248530E+03</totfact>
</mgrwt>
</event>
<event>
 5    1  0.3191162E-002  0.1250035E+03  0.7818608E-02  0.1235064E+00
          4   -1    0    0  501    0  0.00000000000E+00  0.00000000000E+00  0.17446955734E+02  0.17493117629E+02  0.12700000000E+01 0.  1.
         -4   -1    0    0    0  501 -0.00000000000E+00 -0.00000000000E+00 -0.22356169721E+03  0.22356530446E+03  0.12700000000E+01 0.  1.
         25    2    1    2    0    0  0.00000000000E+00  0.00000000000E+00 -0.20611474147E+03  0.24105842209E+03  0.12500350478E+03 0.  0.
    9000005    1    3    3    0    0 -0.21217375914E+02  0.20000709537E+02  0.35345933805E+01  0.29388752492E+02  0.10000000000E+01 0.  0.
    9000005    1    3    3    0    0  0.21217375914E+02 -0.20000709537E+02 -0.20964933485E+03  0.21166966960E+03  0.10000000000E+01 0.  0.
<mgrwt>
<rscale>  0 0.12500350E+03</rscale>
<asrwt>0</asrwt>
<pdfrwt beam="1">  1        4 0.26879756E-02 0.12500350E+03</pdfrwt>
<pdfrwt beam="2">  1       -4 0.34397934E-01 0.12500350E+03</pdfrwt>
<totfact> 0.83633453E+03</totfact>
</mgrwt>
</event>
<event>
 5    1  0.3191162E-002  0.1250004E+03  0.7818608E-02  0.1235069E+00
         -4   -1    0    0    0  501 -0.00000000000E+00  0.00000000000E+00  0.13089802119E+02  0.13151266841E+02  0.12700000000E+01 0. -1.
          4   -1    0    0  501    0  0.00000000000E+00 -0.00000000000E+00 -0.29765951549E+03  0.29766222478E+03  0.12700000000E+01 0. -1.
         25    2    1    2    0    0  0.00000000000E+00  0.00000000000E+00 -0.28456971337E+03  0.31081349162E+03  0.12500041922E+03 0.  0.
    9000005    1    3    3    0    0  0.51877011019E+02 -0.14621979026E+01 -0.55723455646E+02  0.76154223810E+02  0.10000000000E+01 0.  0.
    9000005    1    3    3    0    0 -0.51877011019E+02  0.14621979026E+01 -0.22884625772E+03  0.23465926781E+03  0.10000000000E+01 0.  0.
<mgrwt>
<rscale>  0 0.12500042E+03</rscale>
<asrwt>0</asrwt>
<pdfrwt beam="2">  1        4 0.45798703E-01 0.12500042E+03</pdfrwt>
<pdfrwt beam="1">  1       -4 0.20187524E-02 0.12500042E+03</pdfrwt>
<totfact> 0.74261442E+03</totfact>
</mgrwt>
</event>
<event>
 5    1  0.3191162E-002  0.1250021E+03  0.7818608E-02  0.1235066E+00
          4   -1    0    0  501    0  0.00000000000E+00  0.00000000000E+00  0.13285258051E+03  0.13285865064E+03  0.12700000000E+01 0.  1.
         -4   -1    0    0    0  501 -0.00000000000E+00 -0.00000000000E+00 -0.29383435534E+02  0.29410868464E+02  0.12700000000E+01 0.  1.
         25    2    1    2    0    0  0.00000000000E+00  0.00000000000E+00  0.10346914498E+03  0.16226951910E+03  0.12500213145E+03 0.  0.
    9000005    1    3    3    0    0 -0.60981854220E+02 -0.10973866631E+02  0.62294310158E+02  0.87868045221E+02  0.10000000000E+01 0.  0.
    9000005    1    3    3    0    0  0.60981854220E+02  0.10973866631E+02  0.41174834821E+02  0.74401473880E+02  0.10000000000E+01 0.  0.
<mgrwt>
<rscale>  0 0.12500213E+03</rscale>
<asrwt>0</asrwt>
<pdfrwt beam="1">  1        4 0.20441436E-01 0.12500213E+03</pdfrwt>
<pdfrwt beam="2">  1       -4 0.45231056E-02 0.12500213E+03</pdfrwt>
<totfact> 0.96902373E+03</totfact>
</mgrwt>
</event>
<event>
 5    1  0.3191162E-002  0.1249978E+03  0.7818608E-02  0.1235073E+00
          4   -1    0    0  501    0  0.00000000000E+00  0.00000000000E+00  0.10226648118E+03  0.10227436664E+03  0.12700000000E+01 0.  1.
         -4   -1    0    0    0  501 -0.00000000000E+00 -0.00000000000E+00 -0.38175542522E+02  0.38196661462E+02  0.12700000000E+01 0.  1.
         25    2    1    2    0    0  0.00000000000E+00  0.00000000000E+00  0.64090938654E+02  0.14047102811E+03  0.12499784526E+03 0.  0.
    9000005    1    3    3    0    0  0.20994057833E+02 -0.20689879891E+02 -0.29878120632E+02  0.41982421163E+02  0.10000000000E+01 0.  0.
    9000005    1    3    3    0    0 -0.20994057833E+02  0.20689879891E+02  0.93969059286E+02  0.98488606942E+02  0.10000000000E+01 0.  0.
<mgrwt>
<rscale>  0 0.12499785E+03</rscale>
<asrwt>0</asrwt>
<pdfrwt beam="1">  1        4 0.15735536E-01 0.12499785E+03</pdfrwt>
<pdfrwt beam="2">  1       -4 0.58753915E-02 0.12499785E+03</pdfrwt>
<totfact> 0.10124324E+04</totfact>
</mgrwt>
</event>
<event>
 5    1  0.3191162E-002  0.1250000E+03  0.7818608E-02  0.1235069E+00
         -4   -1    0    0    0  501 -0.00000000000E+00  0.00000000000E+00  0.13073518030E+01  0.18226543108E+01  0.12700000000E+01 0. -1.
          4   -1    0    0  501    0  0.00000000000E+00 -0.00000000000E+00 -0.24954858758E+04  0.24954861990E+04  0.12700000000E+01 0. -1.
         25    2    1    2    0    0  0.00000000000E+00  0.00000000000E+00 -0.24941785240E+04  0.24973088533E+04  0.12499999630E+03 0.  0.
    9000005    1    3    3    0    0 -0.17522690560E+02  0.30096831467E+01 -0.24439892789E+04  0.24440541520E+04  0.10000000000E+01 0.  0.
    9000005    1    3    3    0    0  0.17522690560E+02 -0.30096831467E+01 -0.50189245137E+02  0.53254701243E+02  0.10000000000E+01 0.  0.
<mgrwt>
<rscale>  0 0.12500000E+03</rscale>
<asrwt>0</asrwt>
<pdfrwt beam="2">  1        4 0.38395738E+00 0.12500000E+03</pdfrwt>
<pdfrwt beam="1">  1       -4 0.24079656E-03 0.12500000E+03</pdfrwt>
<totfact> 0.46906886E+02</totfact>
</mgrwt>
</event>
<event>
 5    1  0.3191162E-002  0.1249981E+03  0.7818608E-02  0.1235072E+00
         -4   -1    0    0    0  501 -0.00000000000E+00  0.00000000000E+00  0.86181993731E+02  0.86191350747E+02  0.12700000000E+01 0. -1.
          4   -1    0    0  501    0  0.00000000000E+00 -0.00000000000E+00 -0.45303514701E+02  0.45321312252E+02  0.12700000000E+01 0. -1.
         25    2    1    2    0    0  0.00000000000E+00  0.00000000000E+00  0.40878479030E+02  0.13151266300E+03  0.12499812191E+03 0.  0.
    9000005    1    3    3    0    0 -0.13497326947E+02 -0.21675100624E+02  0.80448155442E+02  0.84409084439E+02  0.10000000000E+01 0.  0.
    9000005    1    3    3    0    0  0.13497326947E+02  0.21675100624E+02 -0.39569676412E+02  0.47103578560E+02  0.10000000000E+01 0.  0.
<mgrwt>
<rscale>  0 0.12499812E+03</rscale>
<asrwt>0</asrwt>
<pdfrwt beam="2">  1        4 0.69718603E-02 0.12499812E+03</pdfrwt>
<pdfrwt beam="1">  1       -4 0.13260857E-01 0.12499812E+03</pdfrwt>
<totfact> 0.10312548E+04</totfact>
</mgrwt>
</event>
<event>
 5    1  0.3191162E-002  0.1249986E+03  0.7818608E-02  0.1235072E+00
         -4   -1    0    0    0  501 -0.00000000000E+00  0.00000000000E+00  0.82068042649E+02  0.82077868663E+02  0.12700000000E+01 0.  1.
          4   -1    0    0  501    0  0.00000000000E+00 -0.00000000000E+00 -0.47575456182E+02  0.47592404130E+02  0.12700000000E+01 0.  1.
         25    2    1    2    0    0  0.00000000000E+00  0.00000000000E+00  0.34492586467E+02  0.12967027279E+03  0.12499856449E+03 0.  0.
    9000005    1    3    3    0    0  0.13968192063E+02  0.51978947056E+02 -0.15693216844E+02  0.56073152056E+02  0.10000000000E+01 0.  0.
    9000005    1    3    3    0    0 -0.13968192063E+02 -0.51978947056E+02  0.50185803312E+02  0.73597120736E+02  0.10000000000E+01 0.  0.
<mgrwt>
<rscale>  0 0.12499856E+03</rscale>
<asrwt>0</asrwt>
<pdfrwt beam="2">  1        4 0.73213606E-02 0.12499856E+03</pdfrwt>
<pdfrwt beam="1">  1       -4 0.12627912E-01 0.12499856E+03</pdfrwt>
<totfact> 0.10351901E+04</totfact>
</mgrwt>
</event>
<event>
 5    1  0.3191162E-002  0.1249979E+03  0.7818608E-02  0.1235073E+00
          4   -1    0    0  501    0  0.00000000000E+00  0.00000000000E+00  0.51100576373E+02  0.51116355559E+02  0.12700000000E+01 0.  1.
         -4   -1    0    0    0  501 -0.00000000000E+00 -0.00000000000E+00 -0.76406961772E+02  0.76417515709E+02  0.12700000000E+01 0.  1.
         25    2    1    2    0    0  0.00000000000E+00  0.00000000000E+00 -0.25306385399E+02  0.12753387127E+03  0.12499790070E+03 0.  0.
    9000005    1    3    3    0    0  0.46213493804E+01  0.61880131830E+02 -0.20193060310E+02  0.65263062065E+02  0.10000000000E+01 0.  0.
    9000005    1    3    3    0    0 -0.46213493804E+01 -0.61880131830E+02 -0.51133250885E+01  0.62270809204E+02  0.10000000000E+01 0.  0.
<mgrwt>
<rscale>  0 0.12499790E+03</rscale>
<asrwt>0</asrwt>
<pdfrwt beam="1">  1        4 0.78636528E-02 0.12499790E+03</pdfrwt>
<pdfrwt beam="2">  1       -4 0.11756943E-01 0.12499790E+03</pdfrwt>
<totfact> 0.10398060E+04</totfact>
</mgrwt>
</event>
<event>
 5    1  0.3191162E-002  0.1250551E+03  0.7818608E-02  0.1234983E+00
          4   -1    0    0  501    0  0.00000000000E+00  0.00000000000E+00  0.13008755275E+03  0.13009375189E+03  0.12700000000E+01 0. -1.
         -4   -1    0    0    0  501 -0.00000000000E+00 -0.00000000000E+00 -0.30033987589E+02  0.30060826843E+02  0.12700000000E+01 0. -1.
         25    2    1    2    0    0  0.00000000000E+00  0.00000000000E+00  0.10005356516E+03  0.16015457873E+03  0.12505508061E+03 0.  0.
    9000005    1    3    3    0    0 -0.96430101764E+01 -0.13242289707E+02  0.12729651976E+03  0.12835010645E+03  0.10000000000E+01 0.  0.
    9000005    1    3    3    0    0  0.96430101764E+01  0.13242289707E+02 -0.27242954600E+02  0.31804472284E+02  0.10000000000E+01 0.  0.
<mgrwt>
<rscale>  0 0.12505508E+03</rscale>
<asrwt>0</asrwt>
<pdfrwt beam="1">  1        4 0.20016011E-01 0.12505508E+03</pdfrwt>
<pdfrwt beam="2">  1       -4 0.46231550E-02 0.12505508E+03</pdfrwt>
<totfact> 0.97192612E+03</totfact>
</mgrwt>
</event>
<event>
 4    1  0.3191162E-002  0.1250630E+03  0.7818608E-02  0.1234971E+00
          4   -1    0    0  501    0  0.00000000000E+00  0.00000000000E+00  0.62153421677E+02  0.62166395473E+02  0.12700000000E+01 0.  1.
         -4   -1    0    0    0  501 -0.00000000000E+00 -0.00000000000E+00 -0.62885911330E+02  0.62898734039E+02  0.12700000000E+01 0.  1.
    9000005    1    1    2    0    0  0.12588416710E+02  0.18913629862E+02 -0.58616654983E+02  0.62873729579E+02  0.10000000000E+01 0.  0.
    9000005    1    1    2    0    0 -0.12588416710E+02 -0.18913629862E+02  0.57884165330E+02  0.62191399934E+02  0.10000000000E+01 0.  0.
<mgrwt>
<rscale>  0 0.12506298E+03</rscale>
<asrwt>0</asrwt>
<pdfrwt beam="1">  1        4 0.95640492E-02 0.12506298E+03</pdfrwt>
<pdfrwt beam="2">  1       -4 0.96767399E-02 0.12506298E+03</pdfrwt>
<totfact> 0.10436585E+04</totfact>
</mgrwt>
</event>
<event>
 5    1  0.3191162E-002  0.1250024E+03  0.7818608E-02  0.1235065E+00
         -4   -1    0    0    0  501 -0.00000000000E+00  0.00000000000E+00  0.14383775902E+03  0.14384336557E+03  0.12700000000E+01 0. -1.
          4   -1    0    0  501    0  0.00000000000E+00 -0.00000000000E+00 -0.27137409498E+02  0.27167110524E+02  0.12700000000E+01 0. -1.
         25    2    1    2    0    0  0.00000000000E+00  0.00000000000E+00  0.11670034952E+03  0.17101047610E+03  0.12500244540E+03 0.  0.
    9000005    1    3    3    0    0 -0.36394982479E+02 -0.40304962757E+02  0.10065650813E+03  0.11437577279E+03  0.10000000000E+01 0.  0.
    9000005    1    3    3    0    0  0.36394982479E+02  0.40304962757E+02  0.16043841396E+02  0.56634703312E+02  0.10000000000E+01 0.  0.
<mgrwt>
<rscale>  0 0.12500245E+03</rscale>
<asrwt>0</asrwt>
<pdfrwt beam="2">  1        4 0.41777021E-02 0.12500245E+03</pdfrwt>
<pdfrwt beam="1">  1       -4 0.22131601E-01 0.12500245E+03</pdfrwt>
<totfact> 0.95255405E+03</totfact>
</mgrwt>
</event>
<event>
 5    1  0.3191162E-002  0.1249977E+03  0.7818608E-02  0.1235073E+00
          4   -1    0    0  501    0  0.00000000000E+00  0.00000000000E+00  0.13596623411E+03  0.13597216523E+03  0.12700000000E+01 0.  1.
         -4   -1    0    0    0  501 -0.00000000000E+00 -0.00000000000E+00 -0.28707906602E+02  0.28735984435E+02  0.12700000000E+01 0.  1.
         25    2    1    2    0    0  0.00000000000E+00  0.00000000000E+00  0.10725832751E+03  0.16470814967E+03  0.12499770297E+03 0.  0.
    9000005    1    3    3    0    0  0.60675761357E+02  0.78121371257E+01  0.36830358336E+02  0.71414653944E+02  0.10000000000E+01 0.  0.
    9000005    1    3    3    0    0 -0.60675761357E+02 -0.78121371257E+01  0.70427969169E+02  0.93293495722E+02  0.10000000000E+01 0.  0.
<mgrwt>
<rscale>  0 0.12499770E+03</rscale>
<asrwt>0</asrwt>
<pdfrwt beam="1">  1        4 0.20920498E-01 0.12499770E+03</pdfrwt>
<pdfrwt beam="2">  1       -4 0.44192171E-02 0.12499770E+03</pdfrwt>
<totfact> 0.96447669E+03</totfact>
</mgrwt>
</event>
<event>
 5    1  0.3191162E-002  0.1250002E+03  0.7818608E-02  0.1235069E+00
          4   -1    0    0  501    0  0.00000000000E+00  0.00000000000E+00  0.36040288740E+02  0.36062658145E+02  0.12700000000E+01 0. -1.
         -4   -1    0    0    0  501 -0.00000000000E+00 -0.00000000000E+00 -0.10832632503E+03  0.10833376941E+03  0.12700000000E+01 0. -1.
         25    2    1    2    0    0  0.00000000000E+00  0.00000000000E+00 -0.72286036295E+02  0.14439642756E+03  0.12500022899E+03 0.  0.
    9000005    1    3    3    0    0  0.56947532464E+02  0.20917783696E+02 -0.18827450901E+02  0.63529898756E+02  0.10000000000E+01 0.  0.
    9000005    1    3    3    0    0 -0.56947532464E+02 -0.20917783696E+02 -0.53458585394E+02  0.80866528804E+02  0.10000000000E+01 0.  0.
<mgrwt>
<rscale>  0 0.12500023E+03</rscale>
<asrwt>0</asrwt>
<pdfrwt beam="1">  1        4 0.55469532E-02 0.12500023E+03</pdfrwt>
<pdfrwt beam="2">  1       -4 0.16667882E-01 0.12500023E+03</pdfrwt>
<totfact> 0.10043214E+04</totfact>
</mgrwt>
</event>
<event>
 5    1  0.3191162E-002  0.1249990E+03  0.7818608E-02  0.1235071E+00
          4   -1    0    0  501    0  0.00000000000E+00  0.00000000000E+00  0.21426682085E+02  0.21464286738E+02  0.12700000000E+01 0. -1.
         -4   -1    0    0    0  501 -0.00000000000E+00 -0.00000000000E+00 -0.18210503524E+03  0.18210946367E+03  0.12700000000E+01 0. -1.
         25    2    1    2    0    0  0.00000000000E+00  0.00000000000E+00 -0.16067835315E+03  0.20357375041E+03  0.12499895473E+03 0.  0.
    9000005    1    3    3    0    0  0.42896287977E+01 -0.46384430718E+02 -0.12497164758E+02  0.48239977770E+02  0.10000000000E+01 0.  0.
    9000005    1    3    3    0    0 -0.42896287977E+01  0.46384430718E+02 -0.14818118840E+03  0.15533377264E+03  0.10000000000E+01 0.  0.
<mgrwt>
<rscale>  0 0.12499895E+03</rscale>
<asrwt>0</asrwt>
<pdfrwt beam="1">  1        4 0.32996461E-02 0.12499895E+03</pdfrwt>
<pdfrwt beam="2">  1       -4 0.28019392E-01 0.12499895E+03</pdfrwt>
<totfact> 0.89538339E+03</totfact>
</mgrwt>
</event>
<event>
 5    1  0.3191162E-002  0.1249992E+03  0.7818608E-02  0.1235070E+00
         -4   -1    0    0    0  501 -0.00000000000E+00  0.00000000000E+00  0.10004169783E+03  0.10004975865E+03  0.12700000000E+01 0.  1.
          4   -1    0    0  501    0  0.00000000000E+00 -0.00000000000E+00 -0.39025785857E+02  0.39046444931E+02  0.12700000000E+01 0.  1.
         25    2    1    2    0    0  0.00000000000E+00  0.00000000000E+00  0.61015911975E+02  0.13909620358E+03  0.12499924934E+03 0.  0.
    9000005    1    3    3    0    0 -0.17412175277E+02 -0.24821333492E+02  0.91314035377E+02  0.96221284033E+02  0.10000000000E+01 0.  0.
    9000005    1    3    3    0    0  0.17412175277E+02  0.24821333492E+02 -0.30298123402E+02  0.42874919544E+02  0.10000000000E+01 0.  0.
<mgrwt>
<rscale>  0 0.12499925E+03</rscale>
<asrwt>0</asrwt>
<pdfrwt beam="2">  1        4 0.60061764E-02 0.12499925E+03</pdfrwt>
<pdfrwt beam="1">  1       -4 0.15393239E-01 0.12499925E+03</pdfrwt>
<totfact> 0.10152523E+04</totfact>
</mgrwt>
</event>
<event>
 5    1  0.3191162E-002  0.1249970E+03  0.7818608E-02  0.1235074E+00
         -4   -1    0    0    0  501 -0.00000000000E+00  0.00000000000E+00  0.11317149402E+03  0.11317861971E+03  0.12700000000E+01 0.  1.
          4   -1    0    0  501    0  0.00000000000E+00 -0.00000000000E+00 -0.34494671368E+02  0.34518042424E+02  0.12700000000E+01 0.  1.
         25    2    1    2    0    0  0.00000000000E+00  0.00000000000E+00  0.78676822655E+02  0.14769666213E+03  0.12499704630E+03 0.  0.
    9000005    1    3    3    0    0 -0.10217332253E+02 -0.40009170588E+02 -0.16082814769E+02  0.44325890181E+02  0.10000000000E+01 0.  0.
    9000005    1    3    3    0    0  0.10217332253E+02  0.40009170588E+02  0.94759637424E+02  0.10337077195E+03  0.10000000000E+01 0.  0.
<mgrwt>
<rscale>  0 0.12499705E+03</rscale>
<asrwt>0</asrwt>
<pdfrwt beam="2">  1        4 0.53092184E-02 0.12499705E+03</pdfrwt>
<pdfrwt beam="1">  1       -4 0.17413345E-01 0.12499705E+03</pdfrwt>
<totfact> 0.99771465E+03</totfact>
</mgrwt>
</event>
<event>
 5    1  0.3191162E-002  0.1249996E+03  0.7818608E-02  0.1235070E+00
          4   -1    0    0  501    0  0.00000000000E+00  0.00000000000E+00  0.11520765232E+03  0.11521465208E+03  0.12700000000E+01 0.  1.
         -4   -1    0    0    0  501 -0.00000000000E+00 -0.00000000000E+00 -0.33886023463E+02  0.33909814009E+02  0.12700000000E+01 0.  1.
         25    2    1    2    0    0  0.00000000000E+00  0.00000000000E+00  0.81321628857E+02  0.14912446609E+03  0.12499959626E+03 0.  0.
    9000005    1    3    3    0    0 -0.44965691809E+02  0.42860570915E+02  0.48776964039E+02  0.78988190256E+02  0.10000000000E+01 0.  0.
    9000005    1    3    3    0    0  0.44965691809E+02 -0.42860570915E+02  0.32544664818E+02  0.70136275829E+02  0.10000000000E+01 0.  0.
<mgrwt>
<rscale>  0 0.12499960E+03</rscale>
<asrwt>0</asrwt>
<pdfrwt beam="1">  1        4 0.17726623E-01 0.12499960E+03</pdfrwt>
<pdfrwt beam="2">  1       -4 0.52156028E-02 0.12499960E+03</pdfrwt>
<totfact> 0.99479413E+03</totfact>
</mgrwt>
</event>
<event>
 5    1  0.3191162E-002  0.1250131E+03  0.7818608E-02  0.1235049E+00
         -4   -1    0    0    0  501 -0.00000000000E+00  0.00000000000E+00  0.49224957583E+02  0.49241337807E+02  0.12700000000E+01 0.  1.
          4   -1    0    0  501    0  0.00000000000E+00 -0.00000000000E+00 -0.79337040380E+02  0.79347204590E+02  0.12700000000E+01 0.  1.
         25    2    1    2    0    0  0.00000000000E+00  0.00000000000E+00 -0.30112082797E+02  0.12858854240E+03  0.12501310214E+03 0.  0.
    9000005    1    3    3    0    0  0.32312398679E+02  0.15301070101E+01 -0.70061040772E+02  0.77175007417E+02  0.10000000000E+01 0.  0.
    9000005    1    3    3    0    0 -0.32312398679E+02 -0.15301070101E+01  0.39948957975E+02  0.51413534980E+02  0.10000000000E+01 0.  0.
<mgrwt>
<rscale>  0 0.12501310E+03</rscale>
<asrwt>0</asrwt>
<pdfrwt beam="2">  1        4 0.12207740E-01 0.12501310E+03</pdfrwt>
<pdfrwt beam="1">  1       -4 0.75751123E-02 0.12501310E+03</pdfrwt>
<totfact> 0.10371729E+04</totfact>
</mgrwt>
</event>
<event>
 5    1  0.3191162E-002  0.1249824E+03  0.7818608E-02  0.1235097E+00
          4   -1    0    0  501    0  0.00000000000E+00  0.00000000000E+00  0.46345938900E+03  0.46346112907E+03  0.12700000000E+01 0.  1.
         -4   -1    0    0    0  501 -0.00000000000E+00 -0.00000000000E+00 -0.83764643372E+01  0.84721930332E+01  0.12700000000E+01 0.  1.
         25    2    1    2    0    0  0.00000000000E+00  0.00000000000E+00  0.45508292467E+03  0.47193332210E+03  0.12498236750E+03 0.  0.
    9000005    1    3    3    0    0 -0.48830477489E+02 -0.36767588102E+02  0.27646608326E+03  0.28314442651E+03  0.10000000000E+01 0.  0.
    9000005    1    3    3    0    0  0.48830477489E+02  0.36767588102E+02  0.17861684140E+03  0.18878889559E+03  0.10000000000E+01 0.  0.
<mgrwt>
<rscale>  0 0.12498237E+03</rscale>
<asrwt>0</asrwt>
<pdfrwt beam="1">  1        4 0.71308930E-01 0.12498237E+03</pdfrwt>
<pdfrwt beam="2">  1       -4 0.12961846E-02 0.12498237E+03</pdfrwt>
<totfact> 0.58132271E+03</totfact>
</mgrwt>
</event>
<event>
 5    1  0.3191162E-002  0.1250009E+03  0.7818608E-02  0.1235068E+00
         -4   -1    0    0    0  501 -0.00000000000E+00  0.00000000000E+00  0.15871437816E+04  0.15871442897E+04  0.12700000000E+01 0.  1.
          4   -1    0    0  501    0  0.00000000000E+00 -0.00000000000E+00 -0.22968445344E+01  0.26245751685E+01  0.12700000000E+01 0.  1.
         25    2    1    2    0    0  0.00000000000E+00  0.00000000000E+00  0.15848469371E+04  0.15897688649E+04  0.12500091929E+03 0.  0.
    9000005    1    3    3    0    0 -0.61621010138E+02 -0.12152228338E+01  0.92378431719E+03  0.92583858763E+03  0.10000000000E+01 0.  0.
    9000005    1    3    3    0    0  0.61621010138E+02  0.12152228338E+01  0.66106261987E+03  0.66393027725E+03  0.10000000000E+01 0.  0.
<mgrwt>
<rscale>  0 0.12500092E+03</rscale>
<asrwt>0</asrwt>
<pdfrwt beam="2">  1        4 0.37860947E-03 0.12500092E+03</pdfrwt>
<pdfrwt beam="1">  1       -4 0.24420145E+00 0.12500092E+03</pdfrwt>
<totfact> 0.16231327E+03</totfact>
</mgrwt>
</event>
<event>
 5    1  0.3191162E-002  0.1249908E+03  0.7818608E-02  0.1235084E+00
          4   -1    0    0  501    0  0.00000000000E+00  0.00000000000E+00  0.55495193223E+02  0.55509723210E+02  0.12700000000E+01 0.  1.
         -4   -1    0    0    0  501 -0.00000000000E+00 -0.00000000000E+00 -0.70349110783E+02  0.70360573391E+02  0.12700000000E+01 0.  1.
         25    2    1    2    0    0  0.00000000000E+00  0.00000000000E+00 -0.14853917560E+02  0.12587029660E+03  0.12499077046E+03 0.  0.
    9000005    1    3    3    0    0  0.11154930203E+02  0.21575007387E+01 -0.69305132600E+02  0.70237373826E+02  0.10000000000E+01 0.  0.
    9000005    1    3    3    0    0 -0.11154930203E+02 -0.21575007387E+01  0.54451215039E+02  0.55632922775E+02  0.10000000000E+01 0.  0.
<mgrwt>
<rscale>  0 0.12499077E+03</rscale>
<asrwt>0</asrwt>
<pdfrwt beam="1">  1        4 0.85397214E-02 0.12499077E+03</pdfrwt>
<pdfrwt beam="2">  1       -4 0.10824940E-01 0.12499077E+03</pdfrwt>
<totfact> 0.10435975E+04</totfact>
</mgrwt>
</event>
<event>
 5    1  0.3191162E-002  0.1249901E+03  0.7818608E-02  0.1235085E+00
         -4   -1    0    0    0  501 -0.00000000000E+00  0.00000000000E+00  0.17696685392E+03  0.17697141093E+03  0.12700000000E+01 0.  1.
          4   -1    0    0  501    0  0.00000000000E+00 -0.00000000000E+00 -0.22046722312E+02  0.22083271150E+02  0.12700000000E+01 0.  1.
         25    2    1    2    0    0  0.00000000000E+00  0.00000000000E+00  0.15492013161E+03  0.19905468208E+03  0.12499007673E+03 0.  0.
    9000005    1    3    3    0    0 -0.31758818870E+02  0.24106957635E+02  0.83702195806E+00  0.39893214814E+02  0.10000000000E+01 0.  0.
    9000005    1    3    3    0    0  0.31758818870E+02 -0.24106957635E+02  0.15408310965E+03  0.15916146727E+03  0.10000000000E+01 0.  0.
<mgrwt>
<rscale>  0 0.12499008E+03</rscale>
<asrwt>0</asrwt>
<pdfrwt beam="2">  1        4 0.33949654E-02 0.12499008E+03</pdfrwt>
<pdfrwt beam="1">  1       -4 0.27228832E-01 0.12499008E+03</pdfrwt>
<totfact> 0.90315241E+03</totfact>
</mgrwt>
</event>
<event>
 5    1  0.3191162E-002  0.1250029E+03  0.7818608E-02  0.1235065E+00
          4   -1    0    0  501    0  0.00000000000E+00  0.00000000000E+00  0.20152317740E+03  0.20152717913E+03  0.12700000000E+01 0.  1.
         -4   -1    0    0    0  501 -0.00000000000E+00 -0.00000000000E+00 -0.19359537993E+02  0.19401149741E+02  0.12700000000E+01 0.  1.
         25    2    1    2    0    0  0.00000000000E+00  0.00000000000E+00  0.18216363941E+03  0.22092832887E+03  0.12500293987E+03 0.  0.
    9000005    1    3    3    0    0  0.18021343363E+02  0.27097819289E+02  0.18537430767E+03  0.18821183430E+03  0.10000000000E+01 0.  0.
    9000005    1    3    3    0    0 -0.18021343363E+02 -0.27097819289E+02 -0.32106682579E+01  0.32716494578E+02  0.10000000000E+01 0.  0.
<mgrwt>
<rscale>  0 0.12500294E+03</rscale>
<asrwt>0</asrwt>
<pdfrwt beam="1">  1        4 0.31007073E-01 0.12500294E+03</pdfrwt>
<pdfrwt beam="2">  1       -4 0.29818994E-02 0.12500294E+03</pdfrwt>
<totfact> 0.86715973E+03</totfact>
</mgrwt>
</event>
<event>
 5    1  0.3191162E-002  0.1250052E+03  0.7818608E-02  0.1235061E+00
         -4   -1    0    0    0  501 -0.00000000000E+00  0.00000000000E+00  0.39316088818E+02  0.39336595429E+02  0.12700000000E+01 0.  1.
          4   -1    0    0  501    0  0.00000000000E+00 -0.00000000000E+00 -0.99312844740E+02  0.99320964707E+02  0.12700000000E+01 0.  1.
         25    2    1    2    0    0  0.00000000000E+00  0.00000000000E+00 -0.59996755922E+02  0.13865756014E+03  0.12500523294E+03 0.  0.
    9000005    1    3    3    0    0 -0.33003807970E+02 -0.25924034217E+02 -0.81361937453E+02  0.91553655070E+02  0.10000000000E+01 0.  0.
    9000005    1    3    3    0    0  0.33003807970E+02  0.25924034217E+02  0.21365181531E+02  0.47103905066E+02  0.10000000000E+01 0.  0.
<mgrwt>
<rscale>  0 0.12500523E+03</rscale>
<asrwt>0</asrwt>
<pdfrwt beam="2">  1        4 0.15281101E-01 0.12500523E+03</pdfrwt>
<pdfrwt beam="1">  1       -4 0.60508311E-02 0.12500523E+03</pdfrwt>
<totfact> 0.10160286E+04</totfact>
</mgrwt>
</event>
<event>
 4    1  0.3191162E-002  0.1249339E+03  0.7818608E-02  0.1235173E+00
         -4   -1    0    0    0  501 -0.00000000000E+00  0.00000000000E+00  0.20848476878E+02  0.20887122543E+02  0.12700000000E+01 0. -1.
          4   -1    0    0  501    0  0.00000000000E+00 -0.00000000000E+00 -0.18695161273E+03  0.18695592636E+03  0.12700000000E+01 0. -1.
    9000005    1    1    2    0    0 -0.89855441322E+01 -0.23213439696E+02  0.12248339536E+02  0.27760144223E+02  0.10000000000E+01 0.  0.
    9000005    1    1    2    0    0  0.89855441322E+01  0.23213439696E+02 -0.17835147539E+03  0.18008290468E+03  0.10000000000E+01 0.  0.
<mgrwt>
<rscale>  0 0.12493391E+03</rscale>
<asrwt>0</asrwt>
<pdfrwt beam="2">  1        4 0.28765090E-01 0.12493391E+03</pdfrwt>
<pdfrwt beam="1">  1       -4 0.32107627E-02 0.12493391E+03</pdfrwt>
<totfact> 0.88960764E+03</totfact>
</mgrwt>
</event>
<event>
 5    1  0.3191162E-002  0.1249995E+03  0.7818608E-02  0.1235070E+00
          4   -1    0    0  501    0  0.00000000000E+00  0.00000000000E+00  0.24907018081E+02  0.24939375487E+02  0.12700000000E+01 0.  1.
         -4   -1    0    0    0  501 -0.00000000000E+00 -0.00000000000E+00 -0.15669532937E+03  0.15670047590E+03  0.12700000000E+01 0.  1.
         25    2    1    2    0    0  0.00000000000E+00  0.00000000000E+00 -0.13178831129E+03  0.18163985138E+03  0.12499950647E+03 0.  0.
    9000005    1    3    3    0    0  0.46878177146E+02  0.41136205237E+02 -0.71609256026E+02  0.94966501580E+02  0.10000000000E+01 0.  0.
    9000005    1    3    3    0    0 -0.46878177146E+02 -0.41136205237E+02 -0.60179055263E+02  0.86673349804E+02  0.10000000000E+01 0.  0.
<mgrwt>
<rscale>  0 0.12499951E+03</rscale>
<asrwt>0</asrwt>
<pdfrwt beam="1">  1        4 0.38347339E-02 0.12499951E+03</pdfrwt>
<pdfrwt beam="2">  1       -4 0.24109858E-01 0.12499951E+03</pdfrwt>
<totfact> 0.93323687E+03</totfact>
</mgrwt>
</event>
<event>
 5    1  0.3191162E-002  0.1249992E+03  0.7818608E-02  0.1235071E+00
          4   -1    0    0  501    0  0.00000000000E+00  0.00000000000E+00  0.53302299071E+01  0.54794389186E+01  0.12700000000E+01 0. -1.
         -4   -1    0    0    0  501 -0.00000000000E+00 -0.00000000000E+00 -0.72257343310E+03  0.72257454918E+03  0.12700000000E+01 0. -1.
         25    2    1    2    0    0  0.00000000000E+00  0.00000000000E+00 -0.71724320319E+03  0.72805398810E+03  0.12499918823E+03 0.  0.
    9000005    1    3    3    0    0  0.58779011733E+02 -0.23558036475E+01 -0.48144435815E+03  0.48502597046E+03  0.10000000000E+01 0.  0.
    9000005    1    3    3    0    0 -0.58779011733E+02  0.23558036475E+01 -0.23579884505E+03  0.24302801764E+03  0.10000000000E+01 0.  0.
<mgrwt>
<rscale>  0 0.12499919E+03</rscale>
<asrwt>0</asrwt>
<pdfrwt beam="1">  1        4 0.83159941E-03 0.12499919E+03</pdfrwt>
<pdfrwt beam="2">  1       -4 0.11117663E+00 0.12499919E+03</pdfrwt>
<totfact> 0.41647209E+03</totfact>
</mgrwt>
</event>
<event>
 5    1  0.3191162E-002  0.1249983E+03  0.7818608E-02  0.1235072E+00
         -4   -1    0    0    0  501 -0.00000000000E+00  0.00000000000E+00  0.45840898970E+03  0.45841074893E+03  0.12700000000E+01 0. -1.
          4   -1    0    0  501    0  0.00000000000E+00 -0.00000000000E+00 -0.84719763767E+01  0.85666378310E+01  0.12700000000E+01 0. -1.
         25    2    1    2    0    0  0.00000000000E+00  0.00000000000E+00  0.44993701332E+03  0.46697738676E+03  0.12499825515E+03 0.  0.
    9000005    1    3    3    0    0  0.31918648422E+02 -0.21813170151E+02  0.40838899668E+03  0.41021602494E+03  0.10000000000E+01 0.  0.
    9000005    1    3    3    0    0 -0.31918648422E+02  0.21813170151E+02  0.41548016644E+02  0.56761361824E+02  0.10000000000E+01 0.  0.
<mgrwt>
<rscale>  0 0.12499826E+03</rscale>
<asrwt>0</asrwt>
<pdfrwt beam="2">  1        4 0.13107974E-02 0.12499826E+03</pdfrwt>
<pdfrwt beam="1">  1       -4 0.70531908E-01 0.12499826E+03</pdfrwt>
<totfact> 0.58522980E+03</totfact>
</mgrwt>
</event>
<event>
 5    1  0.3191162E-002  0.1250071E+03  0.7818608E-02  0.1235058E+00
          4   -1    0    0  501    0  0.00000000000E+00  0.00000000000E+00  0.71544325419E+02  0.71555596564E+02  0.12700000000E+01 0. -1.
         -4   -1    0    0    0  501 -0.00000000000E+00 -0.00000000000E+00 -0.54582284356E+02  0.54597057297E+02  0.12700000000E+01 0. -1.
         25    2    1    2    0    0  0.00000000000E+00  0.00000000000E+00  0.16962041062E+02  0.12615265386E+03  0.12500712475E+03 0.  0.
    9000005    1    3    3    0    0 -0.61214674495E+02  0.52214956207E+01 -0.30779760158E+01  0.61522145008E+02  0.10000000000E+01 0.  0.
    9000005    1    3    3    0    0  0.61214674495E+02 -0.52214956207E+01  0.20040017078E+02  0.64630508853E+02  0.10000000000E+01 0.  0.
<mgrwt>
<rscale>  0 0.12500712E+03</rscale>
<asrwt>0</asrwt>
<pdfrwt beam="1">  1        4 0.11008823E-01 0.12500712E+03</pdfrwt>
<pdfrwt beam="2">  1       -4 0.83992779E-02 0.12500712E+03</pdfrwt>
<totfact> 0.10425938E+04</totfact>
</mgrwt>
</event>
<event>
 5    1  0.3191162E-002  0.1249997E+03  0.7818608E-02  0.1235070E+00
         -4   -1    0    0    0  501 -0.00000000000E+00  0.00000000000E+00  0.41539483172E+03  0.41539677313E+03  0.12700000000E+01 0. -1.
          4   -1    0    0  501    0  0.00000000000E+00 -0.00000000000E+00 -0.93588108517E+01  0.94445878977E+01  0.12700000000E+01 0. -1.
         25    2    1    2    0    0  0.00000000000E+00  0.00000000000E+00  0.40603602087E+03  0.42484136102E+03  0.12499972716E+03 0.  0.
    9000005    1    3    3    0    0  0.35230796326E+02  0.46807415135E+02  0.12909331725E+03  0.14176821816E+03  0.10000000000E+01 0.  0.
    9000005    1    3    3    0    0 -0.35230796326E+02 -0.46807415135E+02  0.27694270362E+03  0.28307314287E+03  0.10000000000E+01 0.  0.
<mgrwt>
<rscale>  0 0.12499973E+03</rscale>
<asrwt>0</asrwt>
<pdfrwt beam="2">  1        4 0.14465646E-02 0.12499973E+03</pdfrwt>
<pdfrwt beam="1">  1       -4 0.63913646E-01 0.12499973E+03</pdfrwt>
<totfact> 0.62206761E+03</totfact>
</mgrwt>
</event>
<event>
 5    1  0.3191162E-002  0.1249987E+03  0.7818608E-02  0.1235071E+00
         -4   -1    0    0    0  501 -0.00000000000E+00  0.00000000000E+00  0.44478403376E+02  0.44496530954E+02  0.12700000000E+01 0. -1.
          4   -1    0    0  501    0  0.00000000000E+00 -0.00000000000E+00 -0.87781119621E+02  0.87790306196E+02  0.12700000000E+01 0. -1.
         25    2    1    2    0    0  0.00000000000E+00  0.00000000000E+00 -0.43302716245E+02  0.13228683715E+03  0.12499872819E+03 0.  0.
    9000005    1    3    3    0    0 -0.59191501514E+02 -0.19951611112E+02 -0.19679989040E+02  0.65498111469E+02  0.10000000000E+01 0.  0.
    9000005    1    3    3    0    0  0.59191501514E+02  0.19951611112E+02 -0.23622727205E+02  0.66788725680E+02  0.10000000000E+01 0.  0.
<mgrwt>
<rscale>  0 0.12499873E+03</rscale>
<asrwt>0</asrwt>
<pdfrwt beam="2">  1        4 0.13506889E-01 0.12499873E+03</pdfrwt>
<pdfrwt beam="1">  1       -4 0.68449324E-02 0.12499873E+03</pdfrwt>
<totfact> 0.10295875E+04</totfact>
</mgrwt>
</event>
<event>
 5    1  0.3191162E-002  0.1250001E+03  0.7818608E-02  0.1235069E+00
          4   -1    0    0  501    0  0.00000000000E+00  0.00000000000E+00  0.22702786646E+02  0.22738280971E+02  0.12700000000E+01 0.  1.
         -4   -1    0    0    0  501 -0.00000000000E+00 -0.00000000000E+00 -0.17188829207E+03  0.17189298372E+03  0.12700000000E+01 0.  1.
         25    2    1    2    0    0  0.00000000000E+00  0.00000000000E+00 -0.14918550542E+03  0.19463126469E+03  0.12500005666E+03 0.  0.
    9000005    1    3    3    0    0 -0.59844784969E+01 -0.28583886846E+02 -0.16061745658E+03  0.16325385119E+03  0.10000000000E+01 0.  0.
    9000005    1    3    3    0    0  0.59844784969E+01  0.28583886846E+02  0.11431951161E+02  0.31377413492E+02  0.10000000000E+01 0.  0.
<mgrwt>
<rscale>  0 0.12500006E+03</rscale>
<asrwt>0</asrwt>
<pdfrwt beam="1">  1        4 0.34958277E-02 0.12500006E+03</pdfrwt>
<pdfrwt beam="2">  1       -4 0.26447443E-01 0.12500006E+03</pdfrwt>
<totfact> 0.91047561E+03</totfact>
</mgrwt>
</event>
<event>
 5    1  0.3191162E-002  0.1250097E+03  0.7818608E-02  0.1235054E+00
         -4   -1    0    0    0  501 -0.00000000000E+00  0.00000000000E+00  0.98691080316E+02  0.98699251435E+02  0.12700000000E+01 0. -1.
          4   -1    0    0  501    0  0.00000000000E+00 -0.00000000000E+00 -0.39566698933E+02  0.39587075725E+02  0.12700000000E+01 0. -1.
         25    2    1    2    0    0  0.00000000000E+00  0.00000000000E+00  0.59124381383E+02  0.13828632716E+03  0.12500966285E+03 0.  0.
    9000005    1    3    3    0    0 -0.36655448685E+02 -0.28621286780E+02  0.75746140882E+02  0.88889132259E+02  0.10000000000E+01 0.  0.
    9000005    1    3    3    0    0  0.36655448685E+02  0.28621286780E+02 -0.16621759499E+02  0.49397194901E+02  0.10000000000E+01 0.  0.
<mgrwt>
<rscale>  0 0.12500966E+03</rscale>
<asrwt>0</asrwt>
<pdfrwt beam="2">  1        4 0.60893804E-02 0.12500966E+03</pdfrwt>
<pdfrwt beam="1">  1       -4 0.15185439E-01 0.12500966E+03</pdfrwt>
<totfact> 0.10167013E+04</totfact>
</mgrwt>
</event>
<event>
 5    1  0.3191162E-002  0.1250011E+03  0.7818608E-02  0.1235068E+00
          4   -1    0    0  501    0  0.00000000000E+00  0.00000000000E+00  0.42958879868E+02  0.42977648371E+02  0.12700000000E+01 0.  1.
         -4   -1    0    0    0  501 -0.00000000000E+00 -0.00000000000E+00 -0.90888518341E+02  0.90897390865E+02  0.12700000000E+01 0.  1.
         25    2    1    2    0    0  0.00000000000E+00  0.00000000000E+00 -0.47929638473E+02  0.13387503924E+03  0.12500110354E+03 0.  0.
    9000005    1    3    3    0    0 -0.28825111692E+02  0.21366454373E+02 -0.78762582608E+02  0.86556090806E+02  0.10000000000E+01 0.  0.
    9000005    1    3    3    0    0  0.28825111692E+02 -0.21366454373E+02  0.30832944135E+02  0.47318948430E+02  0.10000000000E+01 0.  0.
<mgrwt>
<rscale>  0 0.12500110E+03</rscale>
<asrwt>0</asrwt>
<pdfrwt beam="1">  1        4 0.66111847E-02 0.12500110E+03</pdfrwt>
<pdfrwt beam="2">  1       -4 0.13984975E-01 0.12500110E+03</pdfrwt>
<totfact> 0.10261581E+04</totfact>
</mgrwt>
</event>
<event>
 5    1  0.3191162E-002  0.1249957E+03  0.7818608E-02  0.1235076E+00
         -4   -1    0    0    0  501 -0.00000000000E+00  0.00000000000E+00  0.15135482942E+03  0.15136015753E+03  0.12700000000E+01 0.  1.
          4   -1    0    0  501    0  0.00000000000E+00 -0.00000000000E+00 -0.25785361768E+02  0.25816618320E+02  0.12700000000E+01 0.  1.
         25    2    1    2    0    0  0.00000000000E+00  0.00000000000E+00  0.12556946765E+03  0.17717677585E+03  0.12499567471E+03 0.  0.
    9000005    1    3    3    0    0  0.33002012121E+02  0.46613371918E+02  0.98729109806E+02  0.11406303682E+03  0.10000000000E+01 0.  0.
    9000005    1    3    3    0    0 -0.33002012121E+02 -0.46613371918E+02  0.26840357847E+02  0.63113739034E+02  0.10000000000E+01 0.  0.
<mgrwt>
<rscale>  0 0.12499567E+03</rscale>
<asrwt>0</asrwt>
<pdfrwt beam="2">  1        4 0.39697930E-02 0.12499567E+03</pdfrwt>
<pdfrwt beam="1">  1       -4 0.23288172E-01 0.12499567E+03</pdfrwt>
<totfact> 0.94136807E+03</totfact>
</mgrwt>
</event>
<event>
 5    1  0.3191162E-002  0.1250113E+03  0.7818608E-02  0.1235052E+00
         -4   -1    0    0    0  501 -0.00000000000E+00  0.00000000000E+00  0.36130388670E+01  0.38297454034E+01  0.12700000000E+01 0. -1.
          4   -1    0    0  501    0  0.00000000000E+00 -0.00000000000E+00 -0.10496478843E+04  0.10496486526E+04  0.12700000000E+01 0. -1.
         25    2    1    2    0    0  0.00000000000E+00  0.00000000000E+00 -0.10460348454E+04  0.10534783980E+04  0.12501134833E+03 0.  0.
    9000005    1    3    3    0    0 -0.19698566610E+02  0.53379767692E+02 -0.74090647207E+03  0.74308871172E+03  0.10000000000E+01 0.  0.
    9000005    1    3    3    0    0  0.19698566610E+02 -0.53379767692E+02 -0.30512837337E+03  0.31038968630E+03  0.10000000000E+01 0.  0.
<mgrwt>
<rscale>  0 0.12501135E+03</rscale>
<asrwt>0</asrwt>
<pdfrwt beam="2">  1        4 0.16150078E+00 0.12501135E+03</pdfrwt>
<pdfrwt beam="1">  1       -4 0.57258180E-03 0.12501135E+03</pdfrwt>
<totfact> 0.28879305E+03</totfact>
</mgrwt>
</event>
<event>
 5    1  0.3191162E-002  0.1249999E+03  0.7818608E-02  0.1235069E+00
         -4   -1    0    0    0  501 -0.00000000000E+00  0.00000000000E+00  0.22464962360E+03  0.22465321338E+03  0.12700000000E+01 0.  1.
          4   -1    0    0  501    0  0.00000000000E+00 -0.00000000000E+00 -0.17361227659E+02  0.17407616891E+02  0.12700000000E+01 0.  1.
         25    2    1    2    0    0  0.00000000000E+00  0.00000000000E+00  0.20728839594E+03  0.24206083027E+03  0.12499986584E+03 0.  0.
    9000005    1    3    3    0    0  0.45406499048E+02  0.41811785604E+01  0.18639390274E+03  0.19189298942E+03  0.10000000000E+01 0.  0.
    9000005    1    3    3    0    0 -0.45406499048E+02 -0.41811785604E+01  0.20894493203E+02  0.50167840856E+02  0.10000000000E+01 0.  0.
<mgrwt>
<rscale>  0 0.12499987E+03</rscale>
<asrwt>0</asrwt>
<pdfrwt beam="2">  1        4 0.26748028E-02 0.12499987E+03</pdfrwt>
<pdfrwt beam="1">  1       -4 0.34565323E-01 0.12499987E+03</pdfrwt>
<totfact> 0.83491648E+03</totfact>
</mgrwt>
</event>
<event>
 5    1  0.3191162E-002  0.1249963E+03  0.7818608E-02  0.1235075E+00
          4   -1    0    0  501    0  0.00000000000E+00  0.00000000000E+00  0.11846174818E+04  0.11846181626E+04  0.12700000000E+01 0. -1.
         -4   -1    0    0    0  501 -0.00000000000E+00 -0.00000000000E+00 -0.31742876412E+01  0.34189182542E+01  0.12700000000E+01 0. -1.
         25    2    1    2    0    0  0.00000000000E+00  0.00000000000E+00  0.11814431942E+04  0.11880370809E+04  0.12499633749E+03 0.  0.
    9000005    1    3    3    0    0 -0.17149601970E+02  0.46310826735E+02  0.22677956572E+03  0.23209647337E+03  0.10000000000E+01 0.  0.
    9000005    1    3    3    0    0  0.17149601970E+02 -0.46310826735E+02  0.95466362847E+03  0.95594060749E+03  0.10000000000E+01 0.  0.
<mgrwt>
<rscale>  0 0.12499634E+03</rscale>
<asrwt>0</asrwt>
<pdfrwt beam="1">  1        4 0.18226789E+00 0.12499634E+03</pdfrwt>
<pdfrwt beam="2">  1       -4 0.50722157E-03 0.12499634E+03</pdfrwt>
<totfact> 0.25030011E+03</totfact>
</mgrwt>
</event>
<event>
 5    1  0.3191162E-002  0.1250000E+03  0.7818608E-02  0.1235069E+00
         -4   -1    0    0    0  501 -0.00000000000E+00  0.00000000000E+00  0.16792202192E+03  0.16792682438E+03  0.12700000000E+01 0. -1.
          4   -1    0    0  501    0  0.00000000000E+00 -0.00000000000E+00 -0.23239808606E+02  0.23274483970E+02  0.12700000000E+01 0. -1.
         25    2    1    2    0    0  0.00000000000E+00  0.00000000000E+00  0.14468221331E+03  0.19120130835E+03  0.12499998986E+03 0.  0.
    9000005    1    3    3    0    0 -0.64491435209E+01 -0.60074008289E+02  0.47926133304E+02  0.77125820433E+02  0.10000000000E+01 0.  0.
    9000005    1    3    3    0    0  0.64491435209E+01  0.60074008289E+02  0.96756080008E+02  0.11407548791E+03  0.10000000000E+01 0.  0.
<mgrwt>
<rscale>  0 0.12499999E+03</rscale>
<asrwt>0</asrwt>
<pdfrwt beam="2">  1        4 0.35783918E-02 0.12499999E+03</pdfrwt>
<pdfrwt beam="1">  1       -4 0.25837195E-01 0.12499999E+03</pdfrwt>
<totfact> 0.91638730E+03</totfact>
</mgrwt>
</event>
<event>
 5    1  0.3191162E-002  0.1250039E+03  0.7818608E-02  0.1235063E+00
          4   -1    0    0  501    0  0.00000000000E+00  0.00000000000E+00  0.31276982052E+02  0.31302755571E+02  0.12700000000E+01 0.  1.
         -4   -1    0    0    0  501 -0.00000000000E+00 -0.00000000000E+00 -0.12481960632E+03  0.12482606707E+03  0.12700000000E+01 0.  1.
         25    2    1    2    0    0  0.00000000000E+00  0.00000000000E+00 -0.93542624263E+02  0.15612882264E+03  0.12500394676E+03 0.  0.
    9000005    1    3    3    0    0  0.60702201367E+02  0.67020915985E+01 -0.63332642432E+02  0.87986924483E+02  0.10000000000E+01 0.  0.
    9000005    1    3    3    0    0 -0.60702201367E+02 -0.67020915985E+01 -0.30209981831E+02  0.68141898160E+02  0.10000000000E+01 0.  0.
<mgrwt>
<rscale>  0 0.12500395E+03</rscale>
<asrwt>0</asrwt>
<pdfrwt beam="1">  1        4 0.48143230E-02 0.12500395E+03</pdfrwt>
<pdfrwt beam="2">  1       -4 0.19205496E-01 0.12500395E+03</pdfrwt>
<totfact> 0.98085646E+03</totfact>
</mgrwt>
</event>
<event>
 5    1  0.3191162E-002  0.1250017E+03  0.7818608E-02  0.1235067E+00
          4   -1    0    0  501    0  0.00000000000E+00  0.00000000000E+00  0.67110512693E+03  0.67110632860E+03  0.12700000000E+01 0. -1.
         -4   -1    0    0    0  501 -0.00000000000E+00 -0.00000000000E+00 -0.57502831245E+01  0.58888586340E+01  0.12700000000E+01 0. -1.
         25    2    1    2    0    0  0.00000000000E+00  0.00000000000E+00  0.66535484380E+03  0.67699518723E+03  0.12500166146E+03 0.  0.
    9000005    1    3    3    0    0 -0.43015303940E+02  0.15263618307E+02  0.10149699342E+03  0.11129211154E+03  0.10000000000E+01 0.  0.
    9000005    1    3    3    0    0  0.43015303940E+02 -0.15263618307E+02  0.56385785038E+03  0.56570307570E+03  0.10000000000E+01 0.  0.
<mgrwt>
<rscale>  0 0.12500166E+03</rscale>
<asrwt>0</asrwt>
<pdfrwt beam="1">  1        4 0.10325772E+00 0.12500166E+03</pdfrwt>
<pdfrwt beam="2">  1       -4 0.89541078E-03 0.12500166E+03</pdfrwt>
<totfact> 0.44327607E+03</totfact>
</mgrwt>
</event>
<event>
 5    1  0.3191162E-002  0.1249748E+03  0.7818608E-02  0.1235109E+00
         -4   -1    0    0    0  501 -0.00000000000E+00  0.00000000000E+00  0.36055849245E+02  0.36078209001E+02  0.12700000000E+01 0.  1.
          4   -1    0    0  501    0  0.00000000000E+00 -0.00000000000E+00 -0.10823550807E+03  0.10824295870E+03  0.12700000000E+01 0.  1.
         25    2    1    2    0    0  0.00000000000E+00  0.00000000000E+00 -0.72179658826E+02  0.14432116770E+03  0.12497478265E+03 0.  0.
    9000005    1    3    3    0    0  0.27795341859E+02 -0.95079895084E+00 -0.10069881559E+03  0.10447361633E+03  0.10000000000E+01 0.  0.
    9000005    1    3    3    0    0 -0.27795341859E+02  0.95079895084E+00  0.28519156763E+02  0.39847551370E+02  0.10000000000E+01 0.  0.
<mgrwt>
<rscale>  0 0.12497478E+03</rscale>
<asrwt>0</asrwt>
<pdfrwt beam="2">  1        4 0.16653910E-01 0.12497478E+03</pdfrwt>
<pdfrwt beam="1">  1       -4 0.55493469E-02 0.12497478E+03</pdfrwt>
<totfact> 0.10050505E+04</totfact>
</mgrwt>
</event>
<event>
 5    1  0.3191162E-002  0.1250021E+03  0.7818608E-02  0.1235066E+00
         -4   -1    0    0    0  501 -0.00000000000E+00  0.00000000000E+00  0.54937119137E+01  0.56385965089E+01  0.12700000000E+01 0. -1.
          4   -1    0    0  501    0  0.00000000000E+00 -0.00000000000E+00 -0.70166446619E+03  0.70166561552E+03  0.12700000000E+01 0. -1.
         25    2    1    2    0    0  0.00000000000E+00  0.00000000000E+00 -0.69617075427E+03  0.70730421203E+03  0.12500211700E+03 0.  0.
    9000005    1    3    3    0    0  0.40354995686E+02 -0.14710244896E+02 -0.60493062335E+03  0.60645443032E+03  0.10000000000E+01 0.  0.
    9000005    1    3    3    0    0 -0.40354995686E+02  0.14710244896E+02 -0.91240130920E+02  0.10084978172E+03  0.10000000000E+01 0.  0.
<mgrwt>
<rscale>  0 0.12500212E+03</rscale>
<asrwt>0</asrwt>
<pdfrwt beam="2">  1        4 0.10795954E+00 0.12500212E+03</pdfrwt>
<pdfrwt beam="1">  1       -4 0.85642038E-03 0.12500212E+03</pdfrwt>
<totfact> 0.42701957E+03</totfact>
</mgrwt>
</event>
<event>
 5    1  0.3191162E-002  0.1249925E+03  0.7818608E-02  0.1235081E+00
          4   -1    0    0  501    0  0.00000000000E+00  0.00000000000E+00  0.19384448803E+03  0.19384864828E+03  0.12700000000E+01 0.  1.
         -4   -1    0    0    0  501 -0.00000000000E+00 -0.00000000000E+00 -0.20124644800E+02  0.20164677740E+02  0.12700000000E+01 0.  1.
         25    2    1    2    0    0  0.00000000000E+00  0.00000000000E+00  0.17371984323E+03  0.21401332602E+03  0.12499247890E+03 0.  0.
    9000005    1    3    3    0    0  0.51671337217E+02  0.13146232786E+02  0.31061076681E+02  0.61713377892E+02  0.10000000000E+01 0.  0.
    9000005    1    3    3    0    0 -0.51671337217E+02 -0.13146232786E+02  0.14265876655E+03  0.15229994813E+03  0.10000000000E+01 0.  0.
<mgrwt>
<rscale>  0 0.12499248E+03</rscale>
<asrwt>0</asrwt>
<pdfrwt beam="1">  1        4 0.29825629E-01 0.12499248E+03</pdfrwt>
<pdfrwt beam="2">  1       -4 0.30994987E-02 0.12499248E+03</pdfrwt>
<totfact> 0.87839381E+03</totfact>
</mgrwt>
</event>
<event>
 5    1  0.3191162E-002  0.1249976E+03  0.7818608E-02  0.1235073E+00
         -4   -1    0    0    0  501 -0.00000000000E+00  0.00000000000E+00  0.49901863240E+02  0.49918021343E+02  0.12700000000E+01 0. -1.
          4   -1    0    0  501    0  0.00000000000E+00 -0.00000000000E+00 -0.78241597117E+02  0.78251903615E+02  0.12700000000E+01 0. -1.
         25    2    1    2    0    0  0.00000000000E+00  0.00000000000E+00 -0.28339733877E+02  0.12816992496E+03  0.12499755657E+03 0.  0.
    9000005    1    3    3    0    0 -0.35092308100E+02  0.38953367693E+02  0.20696989829E+02  0.56375529535E+02  0.10000000000E+01 0.  0.
    9000005    1    3    3    0    0  0.35092308100E+02 -0.38953367693E+02 -0.49036723705E+02  0.71794395423E+02  0.10000000000E+01 0.  0.
<mgrwt>
<rscale>  0 0.12499756E+03</rscale>
<asrwt>0</asrwt>
<pdfrwt beam="2">  1        4 0.12039204E-01 0.12499756E+03</pdfrwt>
<pdfrwt beam="1">  1       -4 0.76792455E-02 0.12499756E+03</pdfrwt>
<totfact> 0.10384392E+04</totfact>
</mgrwt>
</event>
<event>
 5    1  0.3191162E-002  0.1249868E+03  0.7818608E-02  0.1235090E+00
         -4   -1    0    0    0  501 -0.00000000000E+00  0.00000000000E+00  0.21862363347E+02  0.21899219874E+02  0.12700000000E+01 0.  1.
          4   -1    0    0  501    0  0.00000000000E+00 -0.00000000000E+00 -0.17844741659E+03  0.17845193579E+03  0.12700000000E+01 0.  1.
         25    2    1    2    0    0  0.00000000000E+00  0.00000000000E+00 -0.15658505324E+03  0.20035115566E+03  0.12498682601E+03 0.  0.
    9000005    1    3    3    0    0 -0.28220369987E+02  0.47715015716E+02 -0.12451043982E+03  0.13629732804E+03  0.10000000000E+01 0.  0.
    9000005    1    3    3    0    0  0.28220369987E+02 -0.47715015716E+02 -0.32074613423E+02  0.64053827623E+02  0.10000000000E+01 0.  0.
<mgrwt>
<rscale>  0 0.12498683E+03</rscale>
<asrwt>0</asrwt>
<pdfrwt beam="2">  1        4 0.27456631E-01 0.12498683E+03</pdfrwt>
<pdfrwt beam="1">  1       -4 0.33666234E-02 0.12498683E+03</pdfrwt>
<totfact> 0.90102874E+03</totfact>
</mgrwt>
</event>
<event>
 5    1  0.3191162E-002  0.1250070E+03  0.7818608E-02  0.1235058E+00
          4   -1    0    0  501    0  0.00000000000E+00  0.00000000000E+00  0.13858609895E+02  0.13916679497E+02  0.12700000000E+01 0.  1.
         -4   -1    0    0    0  501 -0.00000000000E+00 -0.00000000000E+00 -0.28124729078E+03  0.28125015817E+03  0.12700000000E+01 0.  1.
         25    2    1    2    0    0  0.00000000000E+00  0.00000000000E+00 -0.26738868088E+03  0.29516683767E+03  0.12500702138E+03 0.  0.
    9000005    1    3    3    0    0 -0.48467878053E+02 -0.39291031297E+02 -0.12525704651E+03  0.13994015879E+03  0.10000000000E+01 0.  0.
    9000005    1    3    3    0    0  0.48467878053E+02  0.39291031297E+02 -0.14213163438E+03  0.15522667887E+03  0.10000000000E+01 0.  0.
<mgrwt>
<rscale>  0 0.12500702E+03</rscale>
<asrwt>0</asrwt>
<pdfrwt beam="1">  1        4 0.21367815E-02 0.12500702E+03</pdfrwt>
<pdfrwt beam="2">  1       -4 0.43273497E-01 0.12500702E+03</pdfrwt>
<totfact> 0.76197250E+03</totfact>
</mgrwt>
</event>
<event>
 5    1  0.3191162E-002  0.1250009E+03  0.7818608E-02  0.1235068E+00
          4   -1    0    0  501    0  0.00000000000E+00  0.00000000000E+00  0.33325486389E+01  0.35663399208E+01  0.12700000000E+01 0. -1.
         -4   -1    0    0    0  501 -0.00000000000E+00 -0.00000000000E+00 -0.11322104377E+04  0.11322111500E+04  0.12700000000E+01 0. -1.
         25    2    1    2    0    0  0.00000000000E+00  0.00000000000E+00 -0.11288778891E+04  0.11357774899E+04  0.12500087261E+03 0.  0.
    9000005    1    3    3    0    0 -0.28197373797E+02  0.23150399032E+02 -0.10254458188E+04  0.10260951028E+04  0.10000000000E+01 0.  0.
    9000005    1    3    3    0    0  0.28197373797E+02 -0.23150399032E+02 -0.10343207034E+03  0.10968238710E+03  0.10000000000E+01 0.  0.
<mgrwt>
<rscale>  0 0.12500087E+03</rscale>
<asrwt>0</asrwt>
<pdfrwt beam="1">  1        4 0.53073943E-03 0.12500087E+03</pdfrwt>
<pdfrwt beam="2">  1       -4 0.17420396E+00 0.12500087E+03</pdfrwt>
<totfact> 0.26457723E+03</totfact>
</mgrwt>
</event>
<event>
 5    1  0.3191162E-002  0.1250023E+03  0.7818608E-02  0.1235066E+00
          4   -1    0    0  501    0  0.00000000000E+00  0.00000000000E+00  0.59526780319E+01  0.60866473326E+01  0.12700000000E+01 0. -1.
         -4   -1    0    0    0  501 -0.00000000000E+00 -0.00000000000E+00 -0.64880436389E+03  0.64880560687E+03  0.12700000000E+01 0. -1.
         25    2    1    2    0    0  0.00000000000E+00  0.00000000000E+00 -0.64285168586E+03  0.65489225420E+03  0.12500229838E+03 0.  0.
    9000005    1    3    3    0    0  0.37595999590E+01 -0.59934211642E+02 -0.23081172337E+03  0.23849799991E+03  0.10000000000E+01 0.  0.
    9000005    1    3    3    0    0 -0.37595999590E+01  0.59934211642E+02 -0.41203996249E+03  0.41639425429E+03  0.10000000000E+01 0.  0.
<mgrwt>
<rscale>  0 0.12500230E+03</rscale>
<asrwt>0</asrwt>
<pdfrwt beam="1">  1        4 0.92619808E-03 0.12500230E+03</pdfrwt>
<pdfrwt beam="2">  1       -4 0.99826402E-01 0.12500230E+03</pdfrwt>
<totfact> 0.45573866E+03</totfact>
</mgrwt>
</event>
<event>
 5    1  0.3191162E-002  0.1250041E+03  0.7818608E-02  0.1235063E+00
         -4   -1    0    0    0  501 -0.00000000000E+00  0.00000000000E+00  0.78484461712E+02  0.78494736322E+02  0.12700000000E+01 0.  1.
          4   -1    0    0  501    0  0.00000000000E+00 -0.00000000000E+00 -0.49752652518E+02  0.49768859064E+02  0.12700000000E+01 0.  1.
         25    2    1    2    0    0  0.00000000000E+00  0.00000000000E+00  0.28731809195E+02  0.12826359539E+03  0.12500413210E+03 0.  0.
    9000005    1    3    3    0    0  0.50723603890E+02 -0.33423575972E+02  0.29428209344E+02  0.67505843654E+02  0.10000000000E+01 0.  0.
    9000005    1    3    3    0    0 -0.50723603890E+02  0.33423575972E+02 -0.69640014880E+00  0.60757751732E+02  0.10000000000E+01 0.  0.
<mgrwt>
<rscale>  0 0.12500413E+03</rscale>
<asrwt>0</asrwt>
<pdfrwt beam="2">  1        4 0.76562913E-02 0.12500413E+03</pdfrwt>
<pdfrwt beam="1">  1       -4 0.12076570E-01 0.12500413E+03</pdfrwt>
<totfact> 0.10380831E+04</totfact>
</mgrwt>
</event>
<event>
 5    1  0.3191162E-002  0.1250012E+03  0.7818608E-02  0.1235067E+00
         -4   -1    0    0    0  501 -0.00000000000E+00  0.00000000000E+00  0.96519658085E+02  0.96528013016E+02  0.12700000000E+01 0.  1.
          4   -1    0    0  501    0  0.00000000000E+00 -0.00000000000E+00 -0.40451727016E+02  0.40471658214E+02  0.12700000000E+01 0.  1.
         25    2    1    2    0    0  0.00000000000E+00  0.00000000000E+00  0.56067931069E+02  0.13699967123E+03  0.12500118809E+03 0.  0.
    9000005    1    3    3    0    0  0.65490561933E+01  0.43475575821E+02 -0.20639559419E+02  0.48579905753E+02  0.10000000000E+01 0.  0.
    9000005    1    3    3    0    0 -0.65490561933E+01 -0.43475575821E+02  0.76707490488E+02  0.88419765477E+02  0.10000000000E+01 0.  0.
<mgrwt>
<rscale>  0 0.12500119E+03</rscale>
<asrwt>0</asrwt>
<pdfrwt beam="2">  1        4 0.62255186E-02 0.12500119E+03</pdfrwt>
<pdfrwt beam="1">  1       -4 0.14851354E-01 0.12500119E+03</pdfrwt>
<totfact> 0.10195820E+04</totfact>
</mgrwt>
</event>
<event>
 5    1  0.3191162E-002  0.1249986E+03  0.7818608E-02  0.1235071E+00
          4   -1    0    0  501    0  0.00000000000E+00  0.00000000000E+00  0.35600453267E+02  0.35623098866E+02  0.12700000000E+01 0. -1.
         -4   -1    0    0    0  501 -0.00000000000E+00 -0.00000000000E+00 -0.10966108585E+03  0.10966843963E+03  0.12700000000E+01 0. -1.
         25    2    1    2    0    0  0.00000000000E+00  0.00000000000E+00 -0.74060632584E+02  0.14529153849E+03  0.12499861543E+03 0.  0.
    9000005    1    3    3    0    0  0.47658628042E+02 -0.31429218773E+02 -0.74870126504E+01  0.57586421820E+02  0.10000000000E+01 0.  0.
    9000005    1    3    3    0    0 -0.47658628042E+02  0.31429218773E+02 -0.66573619934E+02  0.87705116673E+02  0.10000000000E+01 0.  0.
<mgrwt>
<rscale>  0 0.12499862E+03</rscale>
<asrwt>0</asrwt>
<pdfrwt beam="1">  1        4 0.54793005E-02 0.12499862E+03</pdfrwt>
<pdfrwt beam="2">  1       -4 0.16873244E-01 0.12499862E+03</pdfrwt>
<totfact> 0.10025381E+04</totfact>
</mgrwt>
</event>
<event>
 5    1  0.3191162E-002  0.1249943E+03  0.7818608E-02  0.1235078E+00
          4   -1    0    0  501    0  0.00000000000E+00  0.00000000000E+00  0.24675991568E+02  0.24708651518E+02  0.12700000000E+01 0. -1.
         -4   -1    0    0    0  501 -0.00000000000E+00 -0.00000000000E+00 -0.15814718719E+03  0.15815228648E+03  0.12700000000E+01 0. -1.
         25    2    1    2    0    0  0.00000000000E+00  0.00000000000E+00 -0.13347119563E+03  0.18286093799E+03  0.12499425020E+03 0.  0.
    9000005    1    3    3    0    0 -0.11348600920E+02  0.61082741091E+02 -0.56921946609E+02  0.84267431478E+02  0.10000000000E+01 0.  0.
    9000005    1    3    3    0    0  0.11348600920E+02 -0.61082741091E+02 -0.76549249018E+02  0.98593506517E+02  0.10000000000E+01 0.  0.
<mgrwt>
<rscale>  0 0.12499425E+03</rscale>
<asrwt>0</asrwt>
<pdfrwt beam="1">  1        4 0.37992110E-02 0.12499425E+03</pdfrwt>
<pdfrwt beam="2">  1       -4 0.24333240E-01 0.12499425E+03</pdfrwt>
<totfact> 0.93116546E+03</totfact>
</mgrwt>
</event>
<event>
 5    1  0.3191162E-002  0.1249980E+03  0.7818608E-02  0.1235072E+00
          4   -1    0    0  501    0  0.00000000000E+00  0.00000000000E+00  0.18972658051E+02  0.19015116448E+02  0.12700000000E+01 0. -1.
         -4   -1    0    0    0  501 -0.00000000000E+00 -0.00000000000E+00 -0.20560735425E+03  0.20561127650E+03  0.12700000000E+01 0. -1.
         25    2    1    2    0    0  0.00000000000E+00  0.00000000000E+00 -0.18663469620E+03  0.22462639295E+03  0.12499802631E+03 0.  0.
    9000005    1    3    3    0    0  0.55226035480E+02 -0.29120045705E+02 -0.98150879539E+02  0.11632921908E+03  0.10000000000E+01 0.  0.
    9000005    1    3    3    0    0 -0.55226035480E+02  0.29120045705E+02 -0.88483816665E+02  0.10829717387E+03  0.10000000000E+01 0.  0.
<mgrwt>
<rscale>  0 0.12499803E+03</rscale>
<asrwt>0</asrwt>
<pdfrwt beam="1">  1        4 0.29224384E-02 0.12499803E+03</pdfrwt>
<pdfrwt beam="2">  1       -4 0.31635467E-01 0.12499803E+03</pdfrwt>
<totfact> 0.86145333E+03</totfact>
</mgrwt>
</event>
<event>
 5    1  0.3191162E-002  0.1249990E+03  0.7818608E-02  0.1235071E+00
         -4   -1    0    0    0  501 -0.00000000000E+00  0.00000000000E+00  0.38437012150E+03  0.38437221960E+03  0.12700000000E+01 0. -1.
          4   -1    0    0  501    0  0.00000000000E+00 -0.00000000000E+00 -0.10120748167E+02  0.10200119776E+02  0.12700000000E+01 0. -1.
         25    2    1    2    0    0  0.00000000000E+00  0.00000000000E+00  0.37424937333E+03  0.39457233937E+03  0.12499895024E+03 0.  0.
    9000005    1    3    3    0    0 -0.27525946416E+02 -0.19409208281E+02  0.35328297961E+03  0.35488626174E+03  0.10000000000E+01 0.  0.
    9000005    1    3    3    0    0  0.27525946416E+02  0.19409208281E+02  0.20966393721E+02  0.39686077632E+02  0.10000000000E+01 0.  0.
<mgrwt>
<rscale>  0 0.12499895E+03</rscale>
<asrwt>0</asrwt>
<pdfrwt beam="2">  1        4 0.15633049E-02 0.12499895E+03</pdfrwt>
<pdfrwt beam="1">  1       -4 0.59140139E-01 0.12499895E+03</pdfrwt>
<totfact> 0.65085625E+03</totfact>
</mgrwt>
</event>
<event>
 5    1  0.3191162E-002  0.1249955E+03  0.7818608E-02  0.1235076E+00
          4   -1    0    0  501    0  0.00000000000E+00  0.00000000000E+00  0.83756910114E+03  0.83757006399E+03  0.12700000000E+01 0. -1.
         -4   -1    0    0    0  501 -0.00000000000E+00 -0.00000000000E+00 -0.45760064931E+01  0.47489720387E+01  0.12700000000E+01 0. -1.
         25    2    1    2    0    0  0.00000000000E+00  0.00000000000E+00  0.83299309465E+03  0.84231903603E+03  0.12499545079E+03 0.  0.
    9000005    1    3    3    0    0  0.44903367683E+02 -0.36084512333E+02  0.25328943458E+03  0.25975939276E+03  0.10000000000E+01 0.  0.
    9000005    1    3    3    0    0 -0.44903367683E+02  0.36084512333E+02  0.57970366007E+03  0.58255964327E+03  0.10000000000E+01 0.  0.
<mgrwt>
<rscale>  0 0.12499545E+03</rscale>
<asrwt>0</asrwt>
<pdfrwt beam="1">  1        4 0.12887008E+00 0.12499545E+03</pdfrwt>
<pdfrwt beam="2">  1       -4 0.71738056E-03 0.12499545E+03</pdfrwt>
<totfact> 0.36447356E+03</totfact>
</mgrwt>
</event>
<event>
 5    1  0.3191162E-002  0.1250016E+03  0.7818608E-02  0.1235067E+00
          4   -1    0    0  501    0  0.00000000000E+00  0.00000000000E+00  0.55293052715E+01  0.56732809542E+01  0.12700000000E+01 0.  1.
         -4   -1    0    0    0  501 -0.00000000000E+00 -0.00000000000E+00 -0.69725740615E+03  0.69725856276E+03  0.12700000000E+01 0.  1.
         25    2    1    2    0    0  0.00000000000E+00  0.00000000000E+00 -0.69172810088E+03  0.70293184371E+03  0.12500164539E+03 0.  0.
    9000005    1    3    3    0    0  0.36188902086E+02 -0.29282215547E+02 -0.11141101339E+03  0.12074973576E+03  0.10000000000E+01 0.  0.
    9000005    1    3    3    0    0 -0.36188902086E+02  0.29282215547E+02 -0.58031708749E+03  0.58218210795E+03  0.10000000000E+01 0.  0.
<mgrwt>
<rscale>  0 0.12500165E+03</rscale>
<asrwt>0</asrwt>
<pdfrwt beam="1">  1        4 0.86182693E-03 0.12500165E+03</pdfrwt>
<pdfrwt beam="2">  1       -4 0.10728147E+00 0.12500165E+03</pdfrwt>
<totfact> 0.42930853E+03</totfact>
</mgrwt>
</event>
<event>
 5    1  0.3191162E-002  0.1249988E+03  0.7818608E-02  0.1235071E+00
          4   -1    0    0  501    0  0.00000000000E+00  0.00000000000E+00  0.32392996023E+02  0.32417882277E+02  0.12700000000E+01 0.  1.
         -4   -1    0    0    0  501 -0.00000000000E+00 -0.00000000000E+00 -0.12051247085E+03  0.12051916250E+03  0.12700000000E+01 0.  1.
         25    2    1    2    0    0  0.00000000000E+00  0.00000000000E+00 -0.88119474829E+02  0.15293704478E+03  0.12499879128E+03 0.  0.
    9000005    1    3    3    0    0  0.50664411212E+02 -0.36568233751E+02 -0.45317139846E+02  0.77193014237E+02  0.10000000000E+01 0.  0.
    9000005    1    3    3    0    0 -0.50664411212E+02  0.36568233751E+02 -0.42802334983E+02  0.75744030544E+02  0.10000000000E+01 0.  0.
<mgrwt>
<rscale>  0 0.12499879E+03</rscale>
<asrwt>0</asrwt>
<pdfrwt beam="1">  1        4 0.49859670E-02 0.12499879E+03</pdfrwt>
<pdfrwt beam="2">  1       -4 0.18542809E-01 0.12499879E+03</pdfrwt>
<totfact> 0.98724116E+03</totfact>
</mgrwt>
</event>
<event>
 5    1  0.3191162E-002  0.1250077E+03  0.7818608E-02  0.1235057E+00
          4   -1    0    0  501    0  0.00000000000E+00  0.00000000000E+00  0.15075929005E+03  0.15076463921E+03  0.12700000000E+01 0.  1.
         -4   -1    0    0    0  501 -0.00000000000E+00 -0.00000000000E+00 -0.25892335674E+02  0.25923463245E+02  0.12700000000E+01 0.  1.
         25    2    1    2    0    0  0.00000000000E+00  0.00000000000E+00  0.12486695438E+03  0.17668810246E+03  0.12500771678E+03 0.  0.
    9000005    1    3    3    0    0 -0.55338761308E+02 -0.17095322207E+02  0.95614301750E+02  0.11179321645E+03  0.10000000000E+01 0.  0.
    9000005    1    3    3    0    0  0.55338761308E+02  0.17095322207E+02  0.29252652625E+02  0.64894886008E+02  0.10000000000E+01 0.  0.
<mgrwt>
<rscale>  0 0.12500772E+03</rscale>
<asrwt>0</asrwt>
<pdfrwt beam="1">  1        4 0.23196543E-01 0.12500772E+03</pdfrwt>
<pdfrwt beam="2">  1       -4 0.39862422E-02 0.12500772E+03</pdfrwt>
<totfact> 0.94200269E+03</totfact>
</mgrwt>
</event>
<event>
 4    1  0.3191162E-002  0.1247578E+03  0.7818608E-02  0.1235448E+00
         -4   -1    0    0    0  501 -0.00000000000E+00  0.00000000000E+00  0.13112871182E+03  0.13113486174E+03  0.12700000000E+01 0. -1.
          4   -1    0    0  501    0  0.00000000000E+00 -0.00000000000E+00 -0.29653679490E+02  0.29680862644E+02  0.12700000000E+01 0. -1.
    9000005    1    1    2    0    0  0.27792066407E+02  0.48516557671E+02  0.15111159000E+02  0.57927562090E+02  0.10000000000E+01 0.  0.
    9000005    1    1    2    0    0 -0.27792066407E+02 -0.48516557671E+02  0.86363873325E+02  0.10288816229E+03  0.10000000000E+01 0.  0.
<mgrwt>
<rscale>  0 0.12475783E+03</rscale>
<asrwt>0</asrwt>
<pdfrwt beam="2">  1        4 0.45646686E-02 0.12475783E+03</pdfrwt>
<pdfrwt beam="1">  1       -4 0.20176212E-01 0.12475783E+03</pdfrwt>
<totfact> 0.97716623E+03</totfact>
</mgrwt>
</event>
<event>
 5    1  0.3191162E-002  0.1250354E+03  0.7818608E-02  0.1235014E+00
          4   -1    0    0  501    0  0.00000000000E+00  0.00000000000E+00  0.13604478083E+02  0.13663627772E+02  0.12700000000E+01 0. -1.
         -4   -1    0    0    0  501 -0.00000000000E+00 -0.00000000000E+00 -0.28660884864E+03  0.28661166239E+03  0.12700000000E+01 0. -1.
         25    2    1    2    0    0  0.00000000000E+00  0.00000000000E+00 -0.27300437055E+03  0.30027529016E+03  0.12503544913E+03 0.  0.
    9000005    1    3    3    0    0 -0.50230877633E+01  0.47042001227E+02 -0.38383520503E+02  0.60930090566E+02  0.10000000000E+01 0.  0.
    9000005    1    3    3    0    0  0.50230877633E+01 -0.47042001227E+02 -0.23462085005E+03  0.23934519959E+03  0.10000000000E+01 0.  0.
<mgrwt>
<rscale>  0 0.12503545E+03</rscale>
<asrwt>0</asrwt>
<pdfrwt beam="1">  1        4 0.20977633E-02 0.12503545E+03</pdfrwt>
<pdfrwt beam="2">  1       -4 0.44098431E-01 0.12503545E+03</pdfrwt>
<totfact> 0.75504889E+03</totfact>
</mgrwt>
</event>
<event>
 5    1  0.3191162E-002  0.1250026E+03  0.7818608E-02  0.1235065E+00
          4   -1    0    0  501    0  0.00000000000E+00  0.00000000000E+00  0.72375679958E+02  0.72386821655E+02  0.12700000000E+01 0.  1.
         -4   -1    0    0    0  501 -0.00000000000E+00 -0.00000000000E+00 -0.53951337479E+02  0.53966283139E+02  0.12700000000E+01 0.  1.
         25    2    1    2    0    0  0.00000000000E+00  0.00000000000E+00  0.18424342478E+02  0.12635310479E+03  0.12500260275E+03 0.  0.
    9000005    1    3    3    0    0  0.17797777421E+02 -0.14845992474E+02  0.67875798405E+02  0.71730665568E+02  0.10000000000E+01 0.  0.
    9000005    1    3    3    0    0 -0.17797777421E+02  0.14845992474E+02 -0.49451455927E+02  0.54622439226E+02  0.10000000000E+01 0.  0.
<mgrwt>
<rscale>  0 0.12500260E+03</rscale>
<asrwt>0</asrwt>
<pdfrwt beam="1">  1        4 0.11136727E-01 0.12500260E+03</pdfrwt>
<pdfrwt beam="2">  1       -4 0.83022125E-02 0.12500260E+03</pdfrwt>
<totfact> 0.10422621E+04</totfact>
</mgrwt>
</event>
<event>
 5    1  0.3191162E-002  0.1250101E+03  0.7818608E-02  0.1235053E+00
          4   -1    0    0  501    0  0.00000000000E+00  0.00000000000E+00  0.14063109293E+02  0.14120337921E+02  0.12700000000E+01 0. -1.
         -4   -1    0    0    0  501 -0.00000000000E+00 -0.00000000000E+00 -0.27718782610E+03  0.27719073548E+03  0.12700000000E+01 0. -1.
         25    2    1    2    0    0  0.00000000000E+00  0.00000000000E+00 -0.26312471681E+03  0.29131107340E+03  0.12501009917E+03 0.  0.
    9000005    1    3    3    0    0 -0.56067106087E+02  0.17568682976E+01 -0.67351092770E+02  0.87657154120E+02  0.10000000000E+01 0.  0.
    9000005    1    3    3    0    0  0.56067106087E+02 -0.17568682976E+01 -0.19577362404E+03  0.20365391928E+03  0.10000000000E+01 0.  0.
<mgrwt>
<rscale>  0 0.12501010E+03</rscale>
<asrwt>0</asrwt>
<pdfrwt beam="1">  1        4 0.21681815E-02 0.12501010E+03</pdfrwt>
<pdfrwt beam="2">  1       -4 0.42648903E-01 0.12501010E+03</pdfrwt>
<totfact> 0.76684649E+03</totfact>
</mgrwt>
</event>
<event>
 5    1  0.3191162E-002  0.1249940E+03  0.7818608E-02  0.1235079E+00
          4   -1    0    0  501    0  0.00000000000E+00  0.00000000000E+00  0.79726568982E+02  0.79736683538E+02  0.12700000000E+01 0. -1.
         -4   -1    0    0    0  501 -0.00000000000E+00 -0.00000000000E+00 -0.48969413313E+02  0.48985878988E+02  0.12700000000E+01 0. -1.
         25    2    1    2    0    0  0.00000000000E+00  0.00000000000E+00  0.30757155670E+02  0.12872256253E+03  0.12499398177E+03 0.  0.
    9000005    1    3    3    0    0 -0.35644994597E+02  0.28939463773E+02 -0.28274747948E+02  0.53930692326E+02  0.10000000000E+01 0.  0.
    9000005    1    3    3    0    0  0.35644994597E+02 -0.28939463773E+02  0.59031903617E+02  0.74791870200E+02  0.10000000000E+01 0.  0.
<mgrwt>
<rscale>  0 0.12499398E+03</rscale>
<asrwt>0</asrwt>
<pdfrwt beam="1">  1        4 0.12267670E-01 0.12499398E+03</pdfrwt>
<pdfrwt beam="2">  1       -4 0.75358007E-02 0.12499398E+03</pdfrwt>
<totfact> 0.10373322E+04</totfact>
</mgrwt>
</event>
<event>
 5    1  0.3191162E-002  0.1250050E+03  0.7818608E-02  0.1235061E+00
         -4   -1    0    0    0  501 -0.00000000000E+00  0.00000000000E+00  0.12336997734E+02  0.12402193882E+02  0.12700000000E+01 0.  1.
          4   -1    0    0  501    0  0.00000000000E+00 -0.00000000000E+00 -0.31575338776E+03  0.31575594180E+03  0.12700000000E+01 0.  1.
         25    2    1    2    0    0  0.00000000000E+00  0.00000000000E+00 -0.30341639003E+03  0.32815813569E+03  0.12500502501E+03 0.  0.
    9000005    1    3    3    0    0 -0.27111691320E+02 -0.51483142015E+02 -0.91844981216E+02  0.10872928903E+03  0.10000000000E+01 0.  0.
    9000005    1    3    3    0    0  0.27111691320E+02  0.51483142015E+02 -0.21157140881E+03  0.21942884666E+03  0.10000000000E+01 0.  0.
<mgrwt>
<rscale>  0 0.12500503E+03</rscale>
<asrwt>0</asrwt>
<pdfrwt beam="2">  1        4 0.48582650E-01 0.12500503E+03</pdfrwt>
<pdfrwt beam="1">  1       -4 0.19032114E-02 0.12500503E+03</pdfrwt>
<totfact> 0.72188180E+03</totfact>
</mgrwt>
</event>
<event>
 5    1  0.3191162E-002  0.1250004E+03  0.7818608E-02  0.1235069E+00
          4   -1    0    0  501    0  0.00000000000E+00  0.00000000000E+00  0.88532259778E+01  0.89438532084E+01  0.12700000000E+01 0. -1.
         -4   -1    0    0    0  501 -0.00000000000E+00 -0.00000000000E+00 -0.43888762128E+03  0.43888945876E+03  0.12700000000E+01 0. -1.
         25    2    1    2    0    0  0.00000000000E+00  0.00000000000E+00 -0.43003439530E+03  0.44783331197E+03  0.12500037667E+03 0.  0.
    9000005    1    3    3    0    0 -0.32982018025E+02  0.53897505731E+01 -0.25833618531E+02  0.42252085992E+02  0.10000000000E+01 0.  0.
    9000005    1    3    3    0    0  0.32982018025E+02 -0.53897505731E+01 -0.40420077677E+03  0.40558122598E+03  0.10000000000E+01 0.  0.
<mgrwt>
<rscale>  0 0.12500038E+03</rscale>
<asrwt>0</asrwt>
<pdfrwt beam="1">  1        4 0.13691478E-02 0.12500038E+03</pdfrwt>
<pdfrwt beam="2">  1       -4 0.67528268E-01 0.12500038E+03</pdfrwt>
<totfact> 0.60151464E+03</totfact>
</mgrwt>
</event>
<event>
 5    1  0.3191162E-002  0.1250004E+03  0.7818608E-02  0.1235069E+00
         -4   -1    0    0    0  501 -0.00000000000E+00  0.00000000000E+00  0.25601196285E+03  0.25601511288E+03  0.12700000000E+01 0.  1.
          4   -1    0    0  501    0  0.00000000000E+00 -0.00000000000E+00 -0.15228496117E+02  0.15281360999E+02  0.12700000000E+01 0.  1.
         25    2    1    2    0    0  0.00000000000E+00  0.00000000000E+00  0.24078346674E+03  0.27129647388E+03  0.12500039554E+03 0.  0.
    9000005    1    3    3    0    0  0.13048650901E+02  0.20236457052E+01  0.25296021481E+03  0.25330659823E+03  0.10000000000E+01 0.  0.
    9000005    1    3    3    0    0 -0.13048650901E+02 -0.20236457052E+01 -0.12176748071E+02  0.17989875649E+02  0.10000000000E+01 0.  0.
<mgrwt>
<rscale>  0 0.12500040E+03</rscale>
<asrwt>0</asrwt>
<pdfrwt beam="2">  1        4 0.23471543E-02 0.12500040E+03</pdfrwt>
<pdfrwt beam="1">  1       -4 0.39390766E-01 0.12500040E+03</pdfrwt>
<totfact> 0.79345741E+03</totfact>
</mgrwt>
</event>
<event>
 5    1  0.3191162E-002  0.1250013E+03  0.7818608E-02  0.1235067E+00
         -4   -1    0    0    0  501 -0.00000000000E+00  0.00000000000E+00  0.22543213230E+03  0.22543570963E+03  0.12700000000E+01 0. -1.
          4   -1    0    0  501    0  0.00000000000E+00 -0.00000000000E+00 -0.17301192595E+02  0.17347742366E+02  0.12700000000E+01 0. -1.
         25    2    1    2    0    0  0.00000000000E+00  0.00000000000E+00  0.20813093971E+03  0.24278345199E+03  0.12500126598E+03 0.  0.
    9000005    1    3    3    0    0  0.51539728719E+02  0.11261864810E+02  0.39002891914E+02  0.65615537893E+02  0.10000000000E+01 0.  0.
    9000005    1    3    3    0    0 -0.51539728719E+02 -0.11261864810E+02  0.16912804779E+03  0.17716791410E+03  0.10000000000E+01 0.  0.
<mgrwt>
<rscale>  0 0.12500127E+03</rscale>
<asrwt>0</asrwt>
<pdfrwt beam="2">  1        4 0.26655780E-02 0.12500127E+03</pdfrwt>
<pdfrwt beam="1">  1       -4 0.34685720E-01 0.12500127E+03</pdfrwt>
<totfact> 0.83382208E+03</totfact>
</mgrwt>
</event>
<event>
 5    1  0.3191162E-002  0.1249989E+03  0.7818608E-02  0.1235071E+00
         -4   -1    0    0    0  501 -0.00000000000E+00  0.00000000000E+00  0.32650952465E+02  0.32675642256E+02  0.12700000000E+01 0.  1.
          4   -1    0    0  501    0  0.00000000000E+00 -0.00000000000E+00 -0.11956119033E+03  0.11956793522E+03  0.12700000000E+01 0.  1.
         25    2    1    2    0    0  0.00000000000E+00  0.00000000000E+00 -0.86910237861E+02  0.15224357747E+03  0.12499886974E+03 0.  0.
    9000005    1    3    3    0    0 -0.59602031783E+02  0.98518469548E+01 -0.62931747416E+02  0.87240276902E+02  0.10000000000E+01 0.  0.
    9000005    1    3    3    0    0  0.59602031783E+02 -0.98518469548E+01 -0.23978490444E+02  0.65003300571E+02  0.10000000000E+01 0.  0.
<mgrwt>
<rscale>  0 0.12499887E+03</rscale>
<asrwt>0</asrwt>
<pdfrwt beam="2">  1        4 0.18396447E-01 0.12499887E+03</pdfrwt>
<pdfrwt beam="1">  1       -4 0.50256416E-02 0.12499887E+03</pdfrwt>
<totfact> 0.98860855E+03</totfact>
</mgrwt>
</event>
<event>
 5    1  0.3191162E-002  0.1249998E+03  0.7818608E-02  0.1235070E+00
         -4   -1    0    0    0  501 -0.00000000000E+00  0.00000000000E+00  0.56180508098E+02  0.56194860888E+02  0.12700000000E+01 0. -1.
          4   -1    0    0  501    0  0.00000000000E+00 -0.00000000000E+00 -0.69501124622E+02  0.69512727063E+02  0.12700000000E+01 0. -1.
         25    2    1    2    0    0  0.00000000000E+00  0.00000000000E+00 -0.13320616524E+02  0.12570758795E+03  0.12499983538E+03 0.  0.
    9000005    1    3    3    0    0 -0.46574775135E+02  0.37412797566E+02  0.11782354642E+02  0.60899515445E+02  0.10000000000E+01 0.  0.
    9000005    1    3    3    0    0  0.46574775135E+02 -0.37412797566E+02 -0.25102971166E+02  0.64808072506E+02  0.10000000000E+01 0.  0.
<mgrwt>
<rscale>  0 0.12499984E+03</rscale>
<asrwt>0</asrwt>
<pdfrwt beam="2">  1        4 0.10694477E-01 0.12499984E+03</pdfrwt>
<pdfrwt beam="1">  1       -4 0.86451517E-02 0.12499984E+03</pdfrwt>
<totfact> 0.10437416E+04</totfact>
</mgrwt>
</event>
<event>
 5    1  0.3191162E-002  0.1249980E+03  0.7818608E-02  0.1235072E+00
         -4   -1    0    0    0  501 -0.00000000000E+00  0.00000000000E+00  0.80020537097E+02  0.80030614500E+02  0.12700000000E+01 0.  1.
          4   -1    0    0  501    0  0.00000000000E+00 -0.00000000000E+00 -0.48792647177E+02  0.48809172483E+02  0.12700000000E+01 0.  1.
         25    2    1    2    0    0  0.00000000000E+00  0.00000000000E+00  0.31227889920E+02  0.12883978698E+03  0.12499803839E+03 0.  0.
    9000005    1    3    3    0    0  0.60550923722E+02  0.10140261333E+02  0.35985632452E+01  0.61507633030E+02  0.10000000000E+01 0.  0.
    9000005    1    3    3    0    0 -0.60550923722E+02 -0.10140261333E+02  0.27629326675E+02  0.67332153953E+02  0.10000000000E+01 0.  0.
<mgrwt>
<rscale>  0 0.12499804E+03</rscale>
<asrwt>0</asrwt>
<pdfrwt beam="2">  1        4 0.75086075E-02 0.12499804E+03</pdfrwt>
<pdfrwt beam="1">  1       -4 0.12312898E-01 0.12499804E+03</pdfrwt>
<totfact> 0.10369850E+04</totfact>
</mgrwt>
</event>
<event>
 5    1  0.3191162E-002  0.1250037E+03  0.7818608E-02  0.1235063E+00
         -4   -1    0    0    0  501 -0.00000000000E+00  0.00000000000E+00  0.23953236731E+02  0.23986880787E+02  0.12700000000E+01 0. -1.
          4   -1    0    0  501    0  0.00000000000E+00 -0.00000000000E+00 -0.16293732361E+03  0.16294227298E+03  0.12700000000E+01 0. -1.
         25    2    1    2    0    0  0.00000000000E+00  0.00000000000E+00 -0.13898408688E+03  0.18692915377E+03  0.12500372844E+03 0.  0.
    9000005    1    3    3    0    0 -0.28013636216E+02  0.47386209284E+02 -0.11373296840E+03  0.12635823972E+03  0.10000000000E+01 0.  0.
    9000005    1    3    3    0    0  0.28013636216E+02 -0.47386209284E+02 -0.25251118479E+02  0.60570914050E+02  0.10000000000E+01 0.  0.
<mgrwt>
<rscale>  0 0.12500373E+03</rscale>
<asrwt>0</asrwt>
<pdfrwt beam="2">  1        4 0.25070248E-01 0.12500373E+03</pdfrwt>
<pdfrwt beam="1">  1       -4 0.36880822E-02 0.12500373E+03</pdfrwt>
<totfact> 0.92376677E+03</totfact>
</mgrwt>
</event>
<event>
 5    1  0.3191162E-002  0.1250000E+03  0.7818608E-02  0.1235069E+00
          4   -1    0    0  501    0  0.00000000000E+00  0.00000000000E+00  0.35657083989E+02  0.35679693645E+02  0.12700000000E+01 0. -1.
         -4   -1    0    0    0  501 -0.00000000000E+00 -0.00000000000E+00 -0.10948938440E+03  0.10949674971E+03  0.12700000000E+01 0. -1.
         25    2    1    2    0    0  0.00000000000E+00  0.00000000000E+00 -0.73832300413E+02  0.14517644335E+03  0.12499996448E+03 0.  0.
    9000005    1    3    3    0    0 -0.17941255987E+02 -0.42647611089E+02  0.11870619552E+02  0.47776762202E+02  0.10000000000E+01 0.  0.
    9000005    1    3    3    0    0  0.17941255987E+02  0.42647611089E+02 -0.85702919965E+02  0.97399681152E+02  0.10000000000E+01 0.  0.
<mgrwt>
<rscale>  0 0.12499996E+03</rscale>
<asrwt>0</asrwt>
<pdfrwt beam="1">  1        4 0.54880110E-02 0.12499996E+03</pdfrwt>
<pdfrwt beam="2">  1       -4 0.16846826E-01 0.12499996E+03</pdfrwt>
<totfact> 0.10027413E+04</totfact>
</mgrwt>
</event>
<event>
 5    1  0.3191162E-002  0.1249950E+03  0.7818608E-02  0.1235077E+00
         -4   -1    0    0    0  501 -0.00000000000E+00  0.00000000000E+00  0.48170310449E+02  0.48187049181E+02  0.12700000000E+01 0.  1.
          4   -1    0    0  501    0  0.00000000000E+00 -0.00000000000E+00 -0.81050258333E+02  0.81060207721E+02  0.12700000000E+01 0.  1.
         25    2    1    2    0    0  0.00000000000E+00  0.00000000000E+00 -0.32879947883E+02  0.12924725690E+03  0.12499504968E+03 0.  0.
    9000005    1    3    3    0    0  0.57920801071E+02  0.15935557847E+02 -0.34235300135E+02  0.69150683120E+02  0.10000000000E+01 0.  0.
    9000005    1    3    3    0    0 -0.57920801071E+02 -0.15935557847E+02  0.13553522518E+01  0.60096573782E+02  0.10000000000E+01 0.  0.
<mgrwt>
<rscale>  0 0.12499505E+03</rscale>
<asrwt>0</asrwt>
<pdfrwt beam="2">  1        4 0.12471323E-01 0.12499505E+03</pdfrwt>
<pdfrwt beam="1">  1       -4 0.74128699E-02 0.12499505E+03</pdfrwt>
<totfact> 0.10361795E+04</totfact>
</mgrwt>
</event>
<event>
 5    1  0.3191162E-002  0.1250053E+03  0.7818608E-02  0.1235061E+00
          4   -1    0    0  501    0  0.00000000000E+00  0.00000000000E+00  0.13219946558E+02  0.13280808974E+02  0.12700000000E+01 0. -1.
         -4   -1    0    0    0  501 -0.00000000000E+00 -0.00000000000E+00 -0.29476576483E+03  0.29476850072E+03  0.12700000000E+01 0. -1.
         25    2    1    2    0    0  0.00000000000E+00  0.00000000000E+00 -0.28154581827E+03  0.30804930969E+03  0.12500531755E+03 0.  0.
    9000005    1    3    3    0    0  0.24859062777E+02 -0.40858549217E+02 -0.41642640826E+02  0.63423210114E+02  0.10000000000E+01 0.  0.
    9000005    1    3    3    0    0 -0.24859062777E+02  0.40858549217E+02 -0.23990317745E+03  0.24462609958E+03  0.10000000000E+01 0.  0.
<mgrwt>
<rscale>  0 0.12500532E+03</rscale>
<asrwt>0</asrwt>
<pdfrwt beam="1">  1        4 0.20387303E-02 0.12500532E+03</pdfrwt>
<pdfrwt beam="2">  1       -4 0.45353466E-01 0.12500532E+03</pdfrwt>
<totfact> 0.74591317E+03</totfact>
</mgrwt>
</event>
<event>
 5    1  0.3191162E-002  0.1249995E+03  0.7818608E-02  0.1235070E+00
         -4   -1    0    0    0  501 -0.00000000000E+00  0.00000000000E+00  0.26030286726E+01  0.28963180541E+01  0.12700000000E+01 0. -1.
          4   -1    0    0  501    0  0.00000000000E+00 -0.00000000000E+00 -0.14203193746E+04  0.14203199424E+04  0.12700000000E+01 0. -1.
         25    2    1    2    0    0  0.00000000000E+00  0.00000000000E+00 -0.14177163460E+04  0.14232162605E+04  0.12499954599E+03 0.  0.
    9000005    1    3    3    0    0 -0.36966651291E+02  0.96174390249E+01 -0.12719871003E+04  0.12725608873E+04  0.10000000000E+01 0.  0.
    9000005    1    3    3    0    0  0.36966651291E+02 -0.96174390249E+01 -0.14572924563E+03  0.15065537319E+03  0.10000000000E+01 0.  0.
<mgrwt>
<rscale>  0 0.12499955E+03</rscale>
<asrwt>0</asrwt>
<pdfrwt beam="2">  1        4 0.21853269E+00 0.12499955E+03</pdfrwt>
<pdfrwt beam="1">  1       -4 0.42307148E-03 0.12499955E+03</pdfrwt>
<totfact> 0.19488407E+03</totfact>
</mgrwt>
</event>
<event>
 5    1  0.3191162E-002  0.1249998E+03  0.7818608E-02  0.1235070E+00
         -4   -1    0    0    0  501 -0.00000000000E+00  0.00000000000E+00  0.40626656841E+03  0.40626855343E+03  0.12700000000E+01 0.  1.
          4   -1    0    0  501    0  0.00000000000E+00 -0.00000000000E+00 -0.95710102425E+01  0.96549022296E+01  0.12700000000E+01 0.  1.
         25    2    1    2    0    0  0.00000000000E+00  0.00000000000E+00  0.39669555816E+03  0.41592345566E+03  0.12499982040E+03 0.  0.
    9000005    1    3    3    0    0 -0.51702756471E+02  0.13774301699E+02  0.30577321741E+03  0.31042095113E+03  0.10000000000E+01 0.  0.
    9000005    1    3    3    0    0  0.51702756471E+02 -0.13774301699E+02  0.90922340755E+02  0.10550250453E+03  0.10000000000E+01 0.  0.
<mgrwt>
<rscale>  0 0.12499982E+03</rscale>
<asrwt>0</asrwt>
<pdfrwt beam="2">  1        4 0.14790693E-02 0.12499982E+03</pdfrwt>
<pdfrwt beam="1">  1       -4 0.62509143E-01 0.12499982E+03</pdfrwt>
<totfact> 0.63033262E+03</totfact>
</mgrwt>
</event>
<event>
 5    1  0.3191162E-002  0.1249979E+03  0.7818608E-02  0.1235073E+00
          4   -1    0    0  501    0  0.00000000000E+00  0.00000000000E+00  0.65880164326E+03  0.65880286737E+03  0.12700000000E+01 0. -1.
         -4   -1    0    0    0  501 -0.00000000000E+00 -0.00000000000E+00 -0.58598745315E+01  0.59959177383E+01  0.12700000000E+01 0. -1.
         25    2    1    2    0    0  0.00000000000E+00  0.00000000000E+00  0.65294176872E+03  0.66479878511E+03  0.12499788534E+03 0.  0.
    9000005    1    3    3    0    0 -0.92919427822E+01 -0.60047223220E+02  0.24883043199E+03  0.25614369620E+03  0.10000000000E+01 0.  0.
    9000005    1    3    3    0    0  0.92919427822E+01  0.60047223220E+02  0.40411133673E+03  0.40865508891E+03  0.10000000000E+01 0.  0.
<mgrwt>
<rscale>  0 0.12499789E+03</rscale>
<asrwt>0</asrwt>
<pdfrwt beam="1">  1        4 0.10136461E+00 0.12499789E+03</pdfrwt>
<pdfrwt beam="2">  1       -4 0.91207859E-03 0.12499789E+03</pdfrwt>
<totfact> 0.45013223E+03</totfact>
</mgrwt>
</event>
<event>
 5    1  0.3191162E-002  0.1250015E+03  0.7818608E-02  0.1235067E+00
          4   -1    0    0  501    0  0.00000000000E+00  0.00000000000E+00  0.34976914380E+03  0.34977144945E+03  0.12700000000E+01 0. -1.
         -4   -1    0    0    0  501 -0.00000000000E+00 -0.00000000000E+00 -0.11129900888E+02  0.11202124520E+02  0.12700000000E+01 0. -1.
         25    2    1    2    0    0  0.00000000000E+00  0.00000000000E+00  0.33863924291E+03  0.36097357397E+03  0.12500153707E+03 0.  0.
    9000005    1    3    3    0    0 -0.12561647766E+01  0.11140169130E+02  0.34685572999E+03  0.34703829579E+03  0.10000000000E+01 0.  0.
    9000005    1    3    3    0    0  0.12561647766E+01 -0.11140169130E+02 -0.82164870783E+01  0.13935278185E+02  0.10000000000E+01 0.  0.
<mgrwt>
<rscale>  0 0.12500154E+03</rscale>
<asrwt>0</asrwt>
<pdfrwt beam="1">  1        4 0.53816369E-01 0.12500154E+03</pdfrwt>
<pdfrwt beam="2">  1       -4 0.17180255E-02 0.12500154E+03</pdfrwt>
<totfact> 0.68531632E+03</totfact>
</mgrwt>
</event>
<event>
 5    1  0.3191162E-002  0.1250093E+03  0.7818608E-02  0.1235055E+00
         -4   -1    0    0    0  501 -0.00000000000E+00  0.00000000000E+00  0.12796346245E+03  0.12796976448E+03  0.12700000000E+01 0. -1.
          4   -1    0    0  501    0  0.00000000000E+00 -0.00000000000E+00 -0.30510558053E+02  0.30536978447E+02  0.12700000000E+01 0. -1.
         25    2    1    2    0    0  0.00000000000E+00  0.00000000000E+00  0.97452904393E+02  0.15850674293E+03  0.12500927557E+03 0.  0.
    9000005    1    3    3    0    0  0.45597966671E+02 -0.41876971726E+02  0.37894896751E+02  0.72593928984E+02  0.10000000000E+01 0.  0.
    9000005    1    3    3    0    0 -0.45597966671E+02  0.41876971726E+02  0.59558007642E+02  0.85912813944E+02  0.10000000000E+01 0.  0.
<mgrwt>
<rscale>  0 0.12500928E+03</rscale>
<asrwt>0</asrwt>
<pdfrwt beam="2">  1        4 0.46964490E-02 0.12500928E+03</pdfrwt>
<pdfrwt beam="1">  1       -4 0.19689204E-01 0.12500928E+03</pdfrwt>
<totfact> 0.97611091E+03</totfact>
</mgrwt>
</event>
<event>
 5    1  0.3191162E-002  0.1250088E+03  0.7818608E-02  0.1235055E+00
         -4   -1    0    0    0  501 -0.00000000000E+00  0.00000000000E+00  0.23999689837E+02  0.24033268864E+02  0.12700000000E+01 0.  1.
          4   -1    0    0  501    0  0.00000000000E+00 -0.00000000000E+00 -0.16263568190E+03  0.16264064045E+03  0.12700000000E+01 0.  1.
         25    2    1    2    0    0  0.00000000000E+00  0.00000000000E+00 -0.13863599206E+03  0.18667390931E+03  0.12500884018E+03 0.  0.
    9000005    1    3    3    0    0 -0.17478975168E+02 -0.59968781348E+02 -0.72316944114E+02  0.95564165435E+02  0.10000000000E+01 0.  0.
    9000005    1    3    3    0    0  0.17478975168E+02  0.59968781348E+02 -0.66319047947E+02  0.91109743880E+02  0.10000000000E+01 0.  0.
<mgrwt>
<rscale>  0 0.12500884E+03</rscale>
<asrwt>0</asrwt>
<pdfrwt beam="2">  1        4 0.25023838E-01 0.12500884E+03</pdfrwt>
<pdfrwt beam="1">  1       -4 0.36952245E-02 0.12500884E+03</pdfrwt>
<totfact> 0.92410980E+03</totfact>
</mgrwt>
</event>
<event>
 5    1  0.3191162E-002  0.1250021E+03  0.7818608E-02  0.1235066E+00
         -4   -1    0    0    0  501 -0.00000000000E+00  0.00000000000E+00  0.27936706739E+03  0.27936995408E+03  0.12700000000E+01 0. -1.
          4   -1    0    0  501    0  0.00000000000E+00 -0.00000000000E+00 -0.13951164291E+02  0.14008850241E+02  0.12700000000E+01 0. -1.
         25    2    1    2    0    0  0.00000000000E+00  0.00000000000E+00  0.26541590310E+03  0.29337880432E+03  0.12500208481E+03 0.  0.
    9000005    1    3    3    0    0  0.10103891983E+02 -0.34491132575E+02  0.25269530626E+03  0.25524036645E+03  0.10000000000E+01 0.  0.
    9000005    1    3    3    0    0 -0.10103891983E+02  0.34491132575E+02  0.12720596844E+02  0.38138437876E+02  0.10000000000E+01 0.  0.
<mgrwt>
<rscale>  0 0.12500208E+03</rscale>
<asrwt>0</asrwt>
<pdfrwt beam="2">  1        4 0.21509924E-02 0.12500208E+03</pdfrwt>
<pdfrwt beam="1">  1       -4 0.42984208E-01 0.12500208E+03</pdfrwt>
<totfact> 0.76433426E+03</totfact>
</mgrwt>
</event>
<event>
 5    1  0.3191162E-002  0.1249986E+03  0.7818608E-02  0.1235071E+00
         -4   -1    0    0    0  501 -0.00000000000E+00  0.00000000000E+00  0.25011094026E+02  0.25043316961E+02  0.12700000000E+01 0. -1.
          4   -1    0    0  501    0  0.00000000000E+00 -0.00000000000E+00 -0.15604193460E+03  0.15604710267E+03  0.12700000000E+01 0. -1.
         25    2    1    2    0    0  0.00000000000E+00  0.00000000000E+00 -0.13103084057E+03  0.18109041963E+03  0.12499863560E+03 0.  0.
    9000005    1    3    3    0    0  0.13473154382E+02  0.53011473687E+00  0.22885663514E+02  0.26581205863E+02  0.10000000000E+01 0.  0.
    9000005    1    3    3    0    0 -0.13473154382E+02 -0.53011473687E+00 -0.15391650408E+03  0.15450921377E+03  0.10000000000E+01 0.  0.
<mgrwt>
<rscale>  0 0.12499864E+03</rscale>
<asrwt>0</asrwt>
<pdfrwt beam="2">  1        4 0.24009327E-01 0.12499864E+03</pdfrwt>
<pdfrwt beam="1">  1       -4 0.38507369E-02 0.12499864E+03</pdfrwt>
<totfact> 0.93423949E+03</totfact>
</mgrwt>
</event>
<event>
 5    1  0.3191162E-002  0.1249920E+03  0.7818608E-02  0.1235082E+00
          4   -1    0    0  501    0  0.00000000000E+00  0.00000000000E+00  0.14396745812E+04  0.14396751414E+04  0.12700000000E+01 0. -1.
         -4   -1    0    0    0  501 -0.00000000000E+00 -0.00000000000E+00 -0.25637181626E+01  0.28610401635E+01  0.12700000000E+01 0. -1.
         25    2    1    2    0    0  0.00000000000E+00  0.00000000000E+00  0.14371108630E+04  0.14425361815E+04  0.12499200914E+03 0.  0.
    9000005    1    3    3    0    0  0.43987244824E+02 -0.26229906368E+02  0.30535040838E+03  0.30961711451E+03  0.10000000000E+01 0.  0.
    9000005    1    3    3    0    0 -0.43987244824E+02  0.26229906368E+02  0.11317604546E+04  0.11329190670E+04  0.10000000000E+01 0.  0.
<mgrwt>
<rscale>  0 0.12499201E+03</rscale>
<asrwt>0</asrwt>
<pdfrwt beam="1">  1        4 0.22151117E+00 0.12499201E+03</pdfrwt>
<pdfrwt beam="2">  1       -4 0.41733246E-03 0.12499201E+03</pdfrwt>
<totfact> 0.19089478E+03</totfact>
</mgrwt>
</event>
<event>
 5    1  0.3191162E-002  0.1249982E+03  0.7818608E-02  0.1235072E+00
         -4   -1    0    0    0  501 -0.00000000000E+00  0.00000000000E+00  0.10478561981E+03  0.10479331571E+03  0.12700000000E+01 0. -1.
          4   -1    0    0  501    0  0.00000000000E+00 -0.00000000000E+00 -0.37257518013E+02  0.37279157025E+02  0.12700000000E+01 0. -1.
         25    2    1    2    0    0  0.00000000000E+00  0.00000000000E+00  0.67528101794E+02  0.14207247274E+03  0.12499817190E+03 0.  0.
    9000005    1    3    3    0    0  0.27739480688E+02 -0.55039362064E+02  0.45483984649E+02  0.76606807953E+02  0.10000000000E+01 0.  0.
    9000005    1    3    3    0    0 -0.27739480688E+02  0.55039362064E+02  0.22044117145E+02  0.65465664786E+02  0.10000000000E+01 0.  0.
<mgrwt>
<rscale>  0 0.12499817E+03</rscale>
<asrwt>0</asrwt>
<pdfrwt beam="2">  1        4 0.57341824E-02 0.12499817E+03</pdfrwt>
<pdfrwt beam="1">  1       -4 0.16123121E-01 0.12499817E+03</pdfrwt>
<totfact> 0.10091227E+04</totfact>
</mgrwt>
</event>
<event>
 5    1  0.3191162E-002  0.1249997E+03  0.7818608E-02  0.1235070E+00
         -4   -1    0    0    0  501 -0.00000000000E+00  0.00000000000E+00  0.15185399651E+02  0.15238414044E+02  0.12700000000E+01 0.  1.
          4   -1    0    0  501    0  0.00000000000E+00 -0.00000000000E+00 -0.25673325065E+03  0.25673639183E+03  0.12700000000E+01 0.  1.
         25    2    1    2    0    0  0.00000000000E+00  0.00000000000E+00 -0.24154785100E+03  0.27197480587E+03  0.12499972283E+03 0.  0.
    9000005    1    3    3    0    0  0.34919294621E+02 -0.33598448022E+02 -0.34918707093E+02  0.59737165578E+02  0.10000000000E+01 0.  0.
    9000005    1    3    3    0    0 -0.34919294621E+02  0.33598448022E+02 -0.20662914390E+03  0.21223764029E+03  0.10000000000E+01 0.  0.
<mgrwt>
<rscale>  0 0.12499972E+03</rscale>
<asrwt>0</asrwt>
<pdfrwt beam="2">  1        4 0.39501740E-01 0.12499972E+03</pdfrwt>
<pdfrwt beam="1">  1       -4 0.23405352E-02 0.12499972E+03</pdfrwt>
<totfact> 0.79254854E+03</totfact>
</mgrwt>
</event>
<event>
 5    1  0.3191162E-002  0.1249997E+03  0.7818608E-02  0.1235070E+00
         -4   -1    0    0    0  501 -0.00000000000E+00  0.00000000000E+00  0.15347794310E+04  0.15347799565E+04  0.12700000000E+01 0. -1.
          4   -1    0    0  501    0  0.00000000000E+00 -0.00000000000E+00 -0.23861533747E+01  0.27030774920E+01  0.12700000000E+01 0. -1.
         25    2    1    2    0    0  0.00000000000E+00  0.00000000000E+00  0.15323932776E+04  0.15374830339E+04  0.12499968939E+03 0.  0.
    9000005    1    3    3    0    0  0.21784127266E+02 -0.12205532647E+02  0.61582548384E+02  0.66460014245E+02  0.10000000000E+01 0.  0.
    9000005    1    3    3    0    0 -0.21784127266E+02  0.12205532647E+02  0.14708107292E+04  0.14710230197E+04  0.10000000000E+01 0.  0.
<mgrwt>
<rscale>  0 0.12499969E+03</rscale>
<asrwt>0</asrwt>
<pdfrwt beam="2">  1        4 0.39152115E-03 0.12499969E+03</pdfrwt>
<pdfrwt beam="1">  1       -4 0.23614347E+00 0.12499969E+03</pdfrwt>
<totfact> 0.17205470E+03</totfact>
</mgrwt>
</event>
<event>
 5    1  0.3191162E-002  0.1249982E+03  0.7818608E-02  0.1235072E+00
          4   -1    0    0  501    0  0.00000000000E+00  0.00000000000E+00  0.12252912724E+02  0.12318553901E+02  0.12700000000E+01 0. -1.
         -4   -1    0    0    0  501 -0.00000000000E+00 -0.00000000000E+00 -0.31787415870E+03  0.31787669570E+03  0.12700000000E+01 0. -1.
         25    2    1    2    0    0  0.00000000000E+00  0.00000000000E+00 -0.30562124597E+03  0.33019524960E+03  0.12499822746E+03 0.  0.
    9000005    1    3    3    0    0  0.19605425977E+02  0.50500136190E+02 -0.23510408782E+03  0.24126659237E+03  0.10000000000E+01 0.  0.
    9000005    1    3    3    0    0 -0.19605425977E+02 -0.50500136190E+02 -0.70517158152E+02  0.88928657230E+02  0.10000000000E+01 0.  0.
<mgrwt>
<rscale>  0 0.12499823E+03</rscale>
<asrwt>0</asrwt>
<pdfrwt beam="1">  1        4 0.18903082E-02 0.12499823E+03</pdfrwt>
<pdfrwt beam="2">  1       -4 0.48908955E-01 0.12499823E+03</pdfrwt>
<totfact> 0.71962550E+03</totfact>
</mgrwt>
</event>
<event>
 5    1  0.3191162E-002  0.1249996E+03  0.7818608E-02  0.1235070E+00
         -4   -1    0    0    0  501 -0.00000000000E+00  0.00000000000E+00  0.88722083781E+03  0.88722174677E+03  0.12700000000E+01 0.  1.
          4   -1    0    0  501    0  0.00000000000E+00 -0.00000000000E+00 -0.43102472935E+01  0.44934543206E+01  0.12700000000E+01 0.  1.
         25    2    1    2    0    0  0.00000000000E+00  0.00000000000E+00  0.88291059051E+03  0.89171520109E+03  0.12499955605E+03 0.  0.
    9000005    1    3    3    0    0 -0.48475285185E+02 -0.21190819826E+02  0.20417716296E+03  0.21092230321E+03  0.10000000000E+01 0.  0.
    9000005    1    3    3    0    0  0.48475285185E+02  0.21190819826E+02  0.67873342756E+03  0.68079289788E+03  0.10000000000E+01 0.  0.
<mgrwt>
<rscale>  0 0.12499956E+03</rscale>
<asrwt>0</asrwt>
<pdfrwt beam="2">  1        4 0.67727774E-03 0.12499956E+03</pdfrwt>
<pdfrwt beam="1">  1       -4 0.13650968E+00 0.12499956E+03</pdfrwt>
<totfact> 0.34478659E+03</totfact>
</mgrwt>
</event>
<event>
 5    1  0.3191162E-002  0.1250002E+03  0.7818608E-02  0.1235069E+00
          4   -1    0    0  501    0  0.00000000000E+00  0.00000000000E+00  0.12286945861E+04  0.12286952424E+04  0.12700000000E+01 0.  1.
         -4   -1    0    0    0  501 -0.00000000000E+00 -0.00000000000E+00 -0.30516833220E+01  0.33054002932E+01  0.12700000000E+01 0.  1.
         25    2    1    2    0    0  0.00000000000E+00  0.00000000000E+00  0.12256429028E+04  0.12320006427E+04  0.12500023433E+03 0.  0.
    9000005    1    3    3    0    0  0.18114181705E+02 -0.12065940139E+02  0.35462988828E+02  0.41621317458E+02  0.10000000000E+01 0.  0.
    9000005    1    3    3    0    0 -0.18114181705E+02  0.12065940139E+02  0.11901799139E+04  0.11903793253E+04  0.10000000000E+01 0.  0.
<mgrwt>
<rscale>  0 0.12500023E+03</rscale>
<asrwt>0</asrwt>
<pdfrwt beam="1">  1        4 0.18904942E+00 0.12500023E+03</pdfrwt>
<pdfrwt beam="2">  1       -4 0.48905714E-03 0.12500023E+03</pdfrwt>
<totfact> 0.23890062E+03</totfact>
</mgrwt>
</event>
<event>
 5    1  0.3191162E-002  0.1249998E+03  0.7818608E-02  0.1235070E+00
          4   -1    0    0  501    0  0.00000000000E+00  0.00000000000E+00  0.65071614108E+01  0.66299358689E+01  0.12700000000E+01 0.  1.
         -4   -1    0    0    0  501 -0.00000000000E+00 -0.00000000000E+00 -0.59456413690E+03  0.59456549327E+03  0.12700000000E+01 0.  1.
         25    2    1    2    0    0  0.00000000000E+00  0.00000000000E+00 -0.58805697549E+03  0.60119542914E+03  0.12499975038E+03 0.  0.
    9000005    1    3    3    0    0 -0.24552555601E+02 -0.30180148301E+02 -0.52923406969E+03  0.53066314161E+03  0.10000000000E+01 0.  0.
    9000005    1    3    3    0    0  0.24552555601E+02  0.30180148301E+02 -0.58822905799E+02  0.70532287533E+02  0.10000000000E+01 0.  0.
<mgrwt>
<rscale>  0 0.12499975E+03</rscale>
<asrwt>0</asrwt>
<pdfrwt beam="1">  1        4 0.10106508E-02 0.12499975E+03</pdfrwt>
<pdfrwt beam="2">  1       -4 0.91480912E-01 0.12499975E+03</pdfrwt>
<totfact> 0.48792522E+03</totfact>
</mgrwt>
</event>
<event>
 5    1  0.3191162E-002  0.1249931E+03  0.7818608E-02  0.1235080E+00
          4   -1    0    0  501    0  0.00000000000E+00  0.00000000000E+00  0.21780760518E+02  0.21817754897E+02  0.12700000000E+01 0.  1.
         -4   -1    0    0    0  501 -0.00000000000E+00 -0.00000000000E+00 -0.17913282538E+03  0.17913732729E+03  0.12700000000E+01 0.  1.
         25    2    1    2    0    0  0.00000000000E+00  0.00000000000E+00 -0.15735206487E+03  0.20095508219E+03  0.12499309077E+03 0.  0.
    9000005    1    3    3    0    0  0.58278152908E+02 -0.22515472162E+02 -0.80663768883E+02  0.10203398063E+03  0.10000000000E+01 0.  0.
    9000005    1    3    3    0    0 -0.58278152908E+02  0.22515472162E+02 -0.76688295982E+02  0.98921101559E+02  0.10000000000E+01 0.  0.
<mgrwt>
<rscale>  0 0.12499309E+03</rscale>
<asrwt>0</asrwt>
<pdfrwt beam="1">  1        4 0.33540784E-02 0.12499309E+03</pdfrwt>
<pdfrwt beam="2">  1       -4 0.27562087E-01 0.12499309E+03</pdfrwt>
<totfact> 0.89988585E+03</totfact>
</mgrwt>
</event>
<event>
 5    1  0.3191162E-002  0.1249992E+03  0.7818608E-02  0.1235070E+00
          4   -1    0    0  501    0  0.00000000000E+00  0.00000000000E+00  0.15394465966E+03  0.15394989814E+03  0.12700000000E+01 0. -1.
         -4   -1    0    0    0  501 -0.00000000000E+00 -0.00000000000E+00 -0.25352499047E+02  0.25384288604E+02  0.12700000000E+01 0. -1.
         25    2    1    2    0    0  0.00000000000E+00  0.00000000000E+00  0.12859216061E+03  0.17933418675E+03  0.12499922706E+03 0.  0.
    9000005    1    3    3    0    0  0.32193031438E+02  0.45961517187E+02  0.10375243698E+03  0.11795940198E+03  0.10000000000E+01 0.  0.
    9000005    1    3    3    0    0 -0.32193031438E+02 -0.45961517187E+02  0.24839723633E+02  0.61374784770E+02  0.10000000000E+01 0.  0.
<mgrwt>
<rscale>  0 0.12499923E+03</rscale>
<asrwt>0</asrwt>
<pdfrwt beam="1">  1        4 0.23686642E-01 0.12499923E+03</pdfrwt>
<pdfrwt beam="2">  1       -4 0.39032329E-02 0.12499923E+03</pdfrwt>
<totfact> 0.93738614E+03</totfact>
</mgrwt>
</event>
<event>
 5    1  0.3191162E-002  0.1250025E+03  0.7818608E-02  0.1235065E+00
         -4   -1    0    0    0  501 -0.00000000000E+00  0.00000000000E+00  0.13402187831E+03  0.13402789548E+03  0.12700000000E+01 0.  1.
          4   -1    0    0  501    0  0.00000000000E+00 -0.00000000000E+00 -0.29127000297E+02  0.29154674519E+02  0.12700000000E+01 0.  1.
         25    2    1    2    0    0  0.00000000000E+00  0.00000000000E+00  0.10489487801E+03  0.16318257000E+03  0.12500246284E+03 0.  0.
    9000005    1    3    3    0    0  0.23866899657E+02  0.33451405169E+02 -0.90159285523E+01  0.42082209717E+02  0.10000000000E+01 0.  0.
    9000005    1    3    3    0    0 -0.23866899657E+02 -0.33451405169E+02  0.11391080657E+03  0.12110036028E+03  0.10000000000E+01 0.  0.
<mgrwt>
<rscale>  0 0.12500246E+03</rscale>
<asrwt>0</asrwt>
<pdfrwt beam="2">  1        4 0.44836687E-02 0.12500246E+03</pdfrwt>
<pdfrwt beam="1">  1       -4 0.20621342E-01 0.12500246E+03</pdfrwt>
<totfact> 0.96727343E+03</totfact>
</mgrwt>
</event>
<event>
 5    1  0.3191162E-002  0.1249992E+03  0.7818608E-02  0.1235071E+00
         -4   -1    0    0    0  501 -0.00000000000E+00  0.00000000000E+00  0.13332384483E+02  0.13392735942E+02  0.12700000000E+01 0. -1.
          4   -1    0    0  501    0  0.00000000000E+00 -0.00000000000E+00 -0.29226242717E+03  0.29226518649E+03  0.12700000000E+01 0. -1.
         25    2    1    2    0    0  0.00000000000E+00  0.00000000000E+00 -0.27893004269E+03  0.30565792244E+03  0.12499918733E+03 0.  0.
    9000005    1    3    3    0    0 -0.47771339173E+02  0.33929742362E+02 -0.86347220544E+02  0.10435598094E+03  0.10000000000E+01 0.  0.
    9000005    1    3    3    0    0  0.47771339173E+02 -0.33929742362E+02 -0.19258282214E+03  0.20130194149E+03  0.10000000000E+01 0.  0.
<mgrwt>
<rscale>  0 0.12499919E+03</rscale>
<asrwt>0</asrwt>
<pdfrwt beam="2">  1        4 0.44968300E-01 0.12499919E+03</pdfrwt>
<pdfrwt beam="1">  1       -4 0.20559910E-02 0.12499919E+03</pdfrwt>
<totfact> 0.74895909E+03</totfact>
</mgrwt>
</event>
<event>
 5    1  0.3191162E-002  0.1250023E+03  0.7818608E-02  0.1235066E+00
          4   -1    0    0  501    0  0.00000000000E+00  0.00000000000E+00  0.40779615996E+02  0.40799387014E+02  0.12700000000E+01 0. -1.
         -4   -1    0    0    0  501 -0.00000000000E+00 -0.00000000000E+00 -0.95745630347E+02  0.95754052815E+02  0.12700000000E+01 0. -1.
         25    2    1    2    0    0  0.00000000000E+00  0.00000000000E+00 -0.54966014351E+02  0.13655343983E+03  0.12500231676E+03 0.  0.
    9000005    1    3    3    0    0 -0.32808990527E+02 -0.19287156597E+02 -0.81631273482E+02  0.90072687754E+02  0.10000000000E+01 0.  0.
    9000005    1    3    3    0    0  0.32808990527E+02  0.19287156597E+02  0.26665259130E+02  0.46480752076E+02  0.10000000000E+01 0.  0.
<mgrwt>
<rscale>  0 0.12500232E+03</rscale>
<asrwt>0</asrwt>
<pdfrwt beam="1">  1        4 0.62759558E-02 0.12500232E+03</pdfrwt>
<pdfrwt beam="2">  1       -4 0.14732266E-01 0.12500232E+03</pdfrwt>
<totfact> 0.10204898E+04</totfact>
</mgrwt>
</event>
<event>
 5    1  0.3191162E-002  0.1249989E+03  0.7818608E-02  0.1235071E+00
          4   -1    0    0  501    0  0.00000000000E+00  0.00000000000E+00  0.17618680291E+03  0.17619138009E+03  0.12700000000E+01 0.  1.
         -4   -1    0    0    0  501 -0.00000000000E+00 -0.00000000000E+00 -0.22147622120E+02  0.22184004723E+02  0.12700000000E+01 0.  1.
         25    2    1    2    0    0  0.00000000000E+00  0.00000000000E+00  0.15403918079E+03  0.19837538481E+03  0.12499889633E+03 0.  0.
    9000005    1    3    3    0    0  0.16102324636E+02 -0.12344052927E+01 -0.18786469231E+02  0.24793951708E+02  0.10000000000E+01 0.  0.
    9000005    1    3    3    0    0 -0.16102324636E+02  0.12344052927E+01  0.17282565002E+03  0.17358143311E+03  0.10000000000E+01 0.  0.
<mgrwt>
<rscale>  0 0.12499890E+03</rscale>
<asrwt>0</asrwt>
<pdfrwt beam="1">  1        4 0.27108813E-01 0.12499890E+03</pdfrwt>
<pdfrwt beam="2">  1       -4 0.34104772E-02 0.12499890E+03</pdfrwt>
<totfact> 0.90412334E+03</totfact>
</mgrwt>
</event>
<event>
 5    1  0.3191162E-002  0.1250019E+03  0.7818608E-02  0.1235066E+00
          4   -1    0    0  501    0  0.00000000000E+00  0.00000000000E+00  0.47904055770E+01  0.49558940255E+01  0.12700000000E+01 0.  1.
         -4   -1    0    0    0  501 -0.00000000000E+00 -0.00000000000E+00 -0.80144445789E+03  0.80144546413E+03  0.12700000000E+01 0.  1.
         25    2    1    2    0    0  0.00000000000E+00  0.00000000000E+00 -0.79665405231E+03  0.80640135816E+03  0.12500188549E+03 0.  0.
    9000005    1    3    3    0    0 -0.22224494645E+02 -0.39712449655E+02 -0.12202943808E+03  0.13024281392E+03  0.10000000000E+01 0.  0.
    9000005    1    3    3    0    0  0.22224494645E+02  0.39712449655E+02 -0.67462461423E+03  0.67615854423E+03  0.10000000000E+01 0.  0.
<mgrwt>
<rscale>  0 0.12500189E+03</rscale>
<asrwt>0</asrwt>
<pdfrwt beam="1">  1        4 0.74979340E-03 0.12500189E+03</pdfrwt>
<pdfrwt beam="2">  1       -4 0.12331185E+00 0.12500189E+03</pdfrwt>
<totfact> 0.37979009E+03</totfact>
</mgrwt>
</event>
<event>
 5    1  0.3191162E-002  0.1249973E+03  0.7818608E-02  0.1235074E+00
         -4   -1    0    0    0  501 -0.00000000000E+00  0.00000000000E+00  0.45529043044E+01  0.47267153083E+01  0.12700000000E+01 0. -1.
          4   -1    0    0  501    0  0.00000000000E+00 -0.00000000000E+00 -0.84168747855E+03  0.84168843668E+03  0.12700000000E+01 0. -1.
         25    2    1    2    0    0  0.00000000000E+00  0.00000000000E+00 -0.83713457425E+03  0.84641515199E+03  0.12499725647E+03 0.  0.
    9000005    1    3    3    0    0  0.37362409611E+02 -0.19757595973E+02 -0.10687613471E+03  0.11493398288E+03  0.10000000000E+01 0.  0.
    9000005    1    3    3    0    0 -0.37362409611E+02  0.19757595973E+02 -0.73025843953E+03  0.73148116911E+03  0.10000000000E+01 0.  0.
<mgrwt>
<rscale>  0 0.12499726E+03</rscale>
<asrwt>0</asrwt>
<pdfrwt beam="2">  1        4 0.12950370E+00 0.12499726E+03</pdfrwt>
<pdfrwt beam="1">  1       -4 0.71389127E-03 0.12499726E+03</pdfrwt>
<totfact> 0.36276674E+03</totfact>
</mgrwt>
</event>
<event>
 5    1  0.3191162E-002  0.1250014E+03  0.7818608E-02  0.1235067E+00
          4   -1    0    0  501    0  0.00000000000E+00  0.00000000000E+00  0.14465200359E+03  0.14465757858E+03  0.12700000000E+01 0.  1.
         -4   -1    0    0    0  501 -0.00000000000E+00 -0.00000000000E+00 -0.26984048548E+02  0.27013918191E+02  0.12700000000E+01 0.  1.
         25    2    1    2    0    0  0.00000000000E+00  0.00000000000E+00  0.11766795504E+03  0.17167149677E+03  0.12500142064E+03 0.  0.
    9000005    1    3    3    0    0 -0.20418622399E+02 -0.29093386056E+02 -0.11756987729E+02  0.37450928070E+02  0.10000000000E+01 0.  0.
    9000005    1    3    3    0    0  0.20418622399E+02  0.29093386056E+02  0.12942494277E+03  0.13422056870E+03  0.10000000000E+01 0.  0.
<mgrwt>
<rscale>  0 0.12500142E+03</rscale>
<asrwt>0</asrwt>
<pdfrwt beam="1">  1        4 0.22256881E-01 0.12500142E+03</pdfrwt>
<pdfrwt beam="2">  1       -4 0.41541186E-02 0.12500142E+03</pdfrwt>
<totfact> 0.95134974E+03</totfact>
</mgrwt>
</event>
<event>
 5    1  0.3191162E-002  0.1250071E+03  0.7818608E-02  0.1235058E+00
          4   -1    0    0  501    0  0.00000000000E+00  0.00000000000E+00  0.54403847179E+02  0.54418668561E+02  0.12700000000E+01 0. -1.
         -4   -1    0    0    0  501 -0.00000000000E+00 -0.00000000000E+00 -0.71778950911E+02  0.71790185220E+02  0.12700000000E+01 0. -1.
         25    2    1    2    0    0  0.00000000000E+00  0.00000000000E+00 -0.17375103732E+02  0.12620885378E+03  0.12500712197E+03 0.  0.
    9000005    1    3    3    0    0 -0.50346532393E+02  0.90991881837E+01  0.27547954771E+02  0.58115904550E+02  0.10000000000E+01 0.  0.
    9000005    1    3    3    0    0  0.50346532393E+02 -0.90991881837E+01 -0.44923058502E+02  0.68092949230E+02  0.10000000000E+01 0.  0.
<mgrwt>
<rscale>  0 0.12500712E+03</rscale>
<asrwt>0</asrwt>
<pdfrwt beam="1">  1        4 0.83718269E-02 0.12500712E+03</pdfrwt>
<pdfrwt beam="2">  1       -4 0.11044920E-01 0.12500712E+03</pdfrwt>
<totfact> 0.10424710E+04</totfact>
</mgrwt>
</event>
<event>
 5    1  0.3191162E-002  0.1249999E+03  0.7818608E-02  0.1235069E+00
          4   -1    0    0  501    0  0.00000000000E+00  0.00000000000E+00  0.14314414236E+01  0.19136155698E+01  0.12700000000E+01 0.  1.
         -4   -1    0    0    0  501 -0.00000000000E+00 -0.00000000000E+00 -0.23350504221E+04  0.23350507674E+04  0.12700000000E+01 0.  1.
         25    2    1    2    0    0  0.00000000000E+00  0.00000000000E+00 -0.23336189806E+04  0.23369643830E+04  0.12499992244E+03 0.  0.
    9000005    1    3    3    0    0  0.58517227991E+02 -0.71507246573E+01 -0.15544230446E+04  0.15555408707E+04  0.10000000000E+01 0.  0.
    9000005    1    3    3    0    0 -0.58517227991E+02  0.71507246573E+01 -0.77919593607E+03  0.78142351233E+03  0.10000000000E+01 0.  0.
<mgrwt>
<rscale>  0 0.12499992E+03</rscale>
<asrwt>0</asrwt>
<pdfrwt beam="1">  1        4 0.25734051E-03 0.12499992E+03</pdfrwt>
<pdfrwt beam="2">  1       -4 0.35927303E+00 0.12499992E+03</pdfrwt>
<totfact> 0.60798424E+02</totfact>
</mgrwt>
</event>
<event>
 5    1  0.3191162E-002  0.1250000E+03  0.7818608E-02  0.1235069E+00
          4   -1    0    0  501    0  0.00000000000E+00  0.00000000000E+00  0.22867310128E+02  0.22902549476E+02  0.12700000000E+01 0.  1.
         -4   -1    0    0    0  501 -0.00000000000E+00 -0.00000000000E+00 -0.17065327597E+03  0.17065800157E+03  0.12700000000E+01 0.  1.
         25    2    1    2    0    0  0.00000000000E+00  0.00000000000E+00 -0.14778596584E+03  0.19356055105E+03  0.12499998088E+03 0.  0.
    9000005    1    3    3    0    0 -0.37172591345E+02  0.22973252021E+02 -0.47175280126E+01  0.43963927557E+02  0.10000000000E+01 0.  0.
    9000005    1    3    3    0    0  0.37172591345E+02 -0.22973252021E+02 -0.14306843783E+03  0.14959662349E+03  0.10000000000E+01 0.  0.
<mgrwt>
<rscale>  0 0.12499998E+03</rscale>
<asrwt>0</asrwt>
<pdfrwt beam="1">  1        4 0.35211220E-02 0.12499998E+03</pdfrwt>
<pdfrwt beam="2">  1       -4 0.26257424E-01 0.12499998E+03</pdfrwt>
<totfact> 0.91231494E+03</totfact>
</mgrwt>
</event>
<event>
 5    1  0.3191162E-002  0.1250478E+03  0.7818608E-02  0.1234995E+00
          4   -1    0    0  501    0  0.00000000000E+00  0.00000000000E+00  0.34065103972E+02  0.34088769538E+02  0.12700000000E+01 0.  1.
         -4   -1    0    0    0  501 -0.00000000000E+00 -0.00000000000E+00 -0.11469089265E+03  0.11469792394E+03  0.12700000000E+01 0.  1.
         25    2    1    2    0    0  0.00000000000E+00  0.00000000000E+00 -0.80625788675E+02  0.14878669348E+03  0.12504784027E+03 0.  0.
    9000005    1    3    3    0    0 -0.47054596738E+02 -0.36560334727E+02 -0.17817480222E+02  0.62203341960E+02  0.10000000000E+01 0.  0.
    9000005    1    3    3    0    0  0.47054596738E+02  0.36560334727E+02 -0.62808308453E+02  0.86583351519E+02  0.10000000000E+01 0.  0.
<mgrwt>
<rscale>  0 0.12504784E+03</rscale>
<asrwt>0</asrwt>
<pdfrwt beam="1">  1        4 0.52431466E-02 0.12504784E+03</pdfrwt>
<pdfrwt beam="2">  1       -4 0.17647114E-01 0.12504784E+03</pdfrwt>
<totfact> 0.99438987E+03</totfact>
</mgrwt>
</event>
<event>
 5    1  0.3191162E-002  0.1250026E+03  0.7818608E-02  0.1235065E+00
          4   -1    0    0  501    0  0.00000000000E+00  0.00000000000E+00  0.10518298409E+03  0.10519065092E+03  0.12700000000E+01 0. -1.
         -4   -1    0    0    0  501 -0.00000000000E+00 -0.00000000000E+00 -0.37119338652E+02  0.37141058170E+02  0.12700000000E+01 0. -1.
         25    2    1    2    0    0  0.00000000000E+00  0.00000000000E+00  0.68063645436E+02  0.14233170909E+03  0.12500262231E+03 0.  0.
    9000005    1    3    3    0    0  0.91733197294E+01 -0.52018092503E+02  0.72059025992E+02  0.89350629374E+02  0.10000000000E+01 0.  0.
    9000005    1    3    3    0    0 -0.91733197294E+01  0.52018092503E+02 -0.39953805558E+01  0.52981079720E+02  0.10000000000E+01 0.  0.
<mgrwt>
<rscale>  0 0.12500262E+03</rscale>
<asrwt>0</asrwt>
<pdfrwt beam="1">  1        4 0.16184258E-01 0.12500262E+03</pdfrwt>
<pdfrwt beam="2">  1       -4 0.57129279E-02 0.12500262E+03</pdfrwt>
<totfact> 0.10084891E+04</totfact>
</mgrwt>
</event>
<event>
 5    1  0.3191162E-002  0.1249992E+03  0.7818608E-02  0.1235071E+00
          4   -1    0    0  501    0  0.00000000000E+00  0.00000000000E+00  0.29638451991E+02  0.29665649098E+02  0.12700000000E+01 0.  1.
         -4   -1    0    0    0  501 -0.00000000000E+00 -0.00000000000E+00 -0.13170432706E+03  0.13171045010E+03  0.12700000000E+01 0.  1.
         25    2    1    2    0    0  0.00000000000E+00  0.00000000000E+00 -0.10206587506E+03  0.16137609920E+03  0.12499921015E+03 0.  0.
    9000005    1    3    3    0    0  0.61395479807E+02  0.10909167594E+02 -0.45743586327E+02  0.77342682707E+02  0.10000000000E+01 0.  0.
    9000005    1    3    3    0    0 -0.61395479807E+02 -0.10909167594E+02 -0.56322288738E+02  0.84033416490E+02  0.10000000000E+01 0.  0.
<mgrwt>
<rscale>  0 0.12499921E+03</rscale>
<asrwt>0</asrwt>
<pdfrwt beam="1">  1        4 0.45623250E-02 0.12499921E+03</pdfrwt>
<pdfrwt beam="2">  1       -4 0.20264767E-01 0.12499921E+03</pdfrwt>
<totfact> 0.97079862E+03</totfact>
</mgrwt>
</event>
<event>
 5    1  0.3191162E-002  0.1249993E+03  0.7818608E-02  0.1235070E+00
          4   -1    0    0  501    0  0.00000000000E+00  0.00000000000E+00  0.13672402618E+03  0.13672992443E+03  0.12700000000E+01 0. -1.
         -4   -1    0    0    0  501 -0.00000000000E+00 -0.00000000000E+00 -0.28549353704E+02  0.28577587318E+02  0.12700000000E+01 0. -1.
         25    2    1    2    0    0  0.00000000000E+00  0.00000000000E+00  0.10817467248E+03  0.16530751175E+03  0.12499925470E+03 0.  0.
    9000005    1    3    3    0    0  0.61051797991E+02  0.13281596541E+02  0.55696500109E+02  0.83706767760E+02  0.10000000000E+01 0.  0.
    9000005    1    3    3    0    0 -0.61051797991E+02 -0.13281596541E+02  0.52478172369E+02  0.81600743990E+02  0.10000000000E+01 0.  0.
<mgrwt>
<rscale>  0 0.12499925E+03</rscale>
<asrwt>0</asrwt>
<pdfrwt beam="1">  1        4 0.21037091E-01 0.12499925E+03</pdfrwt>
<pdfrwt beam="2">  1       -4 0.43948337E-02 0.12499925E+03</pdfrwt>
<totfact> 0.96330798E+03</totfact>
</mgrwt>
</event>
<event>
 5    1  0.3191162E-002  0.1249995E+03  0.7818608E-02  0.1235070E+00
          4   -1    0    0  501    0  0.00000000000E+00  0.00000000000E+00  0.14659279334E+03  0.14659829453E+03  0.12700000000E+01 0. -1.
         -4   -1    0    0    0  501 -0.00000000000E+00 -0.00000000000E+00 -0.26625609249E+02  0.26655880549E+02  0.12700000000E+01 0. -1.
         25    2    1    2    0    0  0.00000000000E+00  0.00000000000E+00  0.11996718409E+03  0.17325417508E+03  0.12499953569E+03 0.  0.
    9000005    1    3    3    0    0 -0.32120173828E+02 -0.45808386247E+02  0.98571939878E+02  0.11334699444E+03  0.10000000000E+01 0.  0.
    9000005    1    3    3    0    0  0.32120173828E+02  0.45808386247E+02  0.21395244214E+02  0.59907180640E+02  0.10000000000E+01 0.  0.
<mgrwt>
<rscale>  0 0.12499954E+03</rscale>
<asrwt>0</asrwt>
<pdfrwt beam="1">  1        4 0.22555489E-01 0.12499954E+03</pdfrwt>
<pdfrwt beam="2">  1       -4 0.40989993E-02 0.12499954E+03</pdfrwt>
<totfact> 0.94846548E+03</totfact>
</mgrwt>
</event>
<event>
 5    1  0.3191162E-002  0.1249976E+03  0.7818608E-02  0.1235073E+00
          4   -1    0    0  501    0  0.00000000000E+00  0.00000000000E+00  0.14283108749E+02  0.14339459388E+02  0.12700000000E+01 0.  1.
         -4   -1    0    0    0  501 -0.00000000000E+00 -0.00000000000E+00 -0.27288078885E+03  0.27288374416E+03  0.12700000000E+01 0.  1.
         25    2    1    2    0    0  0.00000000000E+00  0.00000000000E+00 -0.25859768010E+03  0.28722320354E+03  0.12499763397E+03 0.  0.
    9000005    1    3    3    0    0 -0.49818948116E+02 -0.37070907953E+01 -0.43032813484E+02  0.65943105401E+02  0.10000000000E+01 0.  0.
    9000005    1    3    3    0    0  0.49818948116E+02  0.37070907953E+01 -0.21556486662E+03  0.22128009814E+03  0.10000000000E+01 0.  0.
<mgrwt>
<rscale>  0 0.12499763E+03</rscale>
<asrwt>0</asrwt>
<pdfrwt beam="1">  1        4 0.22019635E-02 0.12499763E+03</pdfrwt>
<pdfrwt beam="2">  1       -4 0.41986218E-01 0.12499763E+03</pdfrwt>
<totfact> 0.77234068E+03</totfact>
</mgrwt>
</event>
<event>
 5    1  0.3191162E-002  0.1249986E+03  0.7818608E-02  0.1235072E+00
          4   -1    0    0  501    0  0.00000000000E+00  0.00000000000E+00  0.37222059636E+03  0.37222276295E+03  0.12700000000E+01 0. -1.
         -4   -1    0    0    0  501 -0.00000000000E+00 -0.00000000000E+00 -0.10453579017E+02  0.10530442263E+02  0.12700000000E+01 0. -1.
         25    2    1    2    0    0  0.00000000000E+00  0.00000000000E+00  0.36176701735E+03  0.38275320521E+03  0.12499856503E+03 0.  0.
    9000005    1    3    3    0    0 -0.57001562909E+02  0.25605971650E+02  0.18260578332E+03  0.19300444570E+03  0.10000000000E+01 0.  0.
    9000005    1    3    3    0    0  0.57001562909E+02 -0.25605971650E+02  0.17916123402E+03  0.18974875951E+03  0.10000000000E+01 0.  0.
<mgrwt>
<rscale>  0 0.12499857E+03</rscale>
<asrwt>0</asrwt>
<pdfrwt beam="1">  1        4 0.57270791E-01 0.12499857E+03</pdfrwt>
<pdfrwt beam="2">  1       -4 0.16143220E-02 0.12499857E+03</pdfrwt>
<totfact> 0.66267580E+03</totfact>
</mgrwt>
</event>
<event>
 5    1  0.3191162E-002  0.1249976E+03  0.7818608E-02  0.1235073E+00
          4   -1    0    0  501    0  0.00000000000E+00  0.00000000000E+00  0.14115567163E+02  0.14172583968E+02  0.12700000000E+01 0.  1.
         -4   -1    0    0    0  501 -0.00000000000E+00 -0.00000000000E+00 -0.27610648843E+03  0.27610940921E+03  0.12700000000E+01 0.  1.
         25    2    1    2    0    0  0.00000000000E+00  0.00000000000E+00 -0.26199092127E+03  0.29028199318E+03  0.12499757092E+03 0.  0.
    9000005    1    3    3    0    0 -0.26945719289E+02 -0.28107427256E+02 -0.17487453050E+02  0.42695553272E+02  0.10000000000E+01 0.  0.
    9000005    1    3    3    0    0  0.26945719289E+02  0.28107427256E+02 -0.24450346822E+03  0.24758643991E+03  0.10000000000E+01 0.  0.
<mgrwt>
<rscale>  0 0.12499757E+03</rscale>
<asrwt>0</asrwt>
<pdfrwt beam="1">  1        4 0.21762365E-02 0.12499757E+03</pdfrwt>
<pdfrwt beam="2">  1       -4 0.42482528E-01 0.12499757E+03</pdfrwt>
<totfact> 0.76838392E+03</totfact>
</mgrwt>
</event>
<event>
 5    1  0.3191162E-002  0.1249996E+03  0.7818608E-02  0.1235070E+00
         -4   -1    0    0    0  501 -0.00000000000E+00  0.00000000000E+00  0.12115516670E+03  0.12116182286E+03  0.12700000000E+01 0. -1.
          4   -1    0    0  501    0  0.00000000000E+00 -0.00000000000E+00 -0.32221469398E+02  0.32246488028E+02  0.12700000000E+01 0. -1.
         25    2    1    2    0    0  0.00000000000E+00  0.00000000000E+00  0.88933697305E+02  0.15340831089E+03  0.12499962933E+03 0.  0.
    9000005    1    3    3    0    0 -0.27504045432E+02  0.47900767913E+02  0.85963072526E+01  0.55909324626E+02  0.10000000000E+01 0.  0.
    9000005    1    3    3    0    0  0.27504045432E+02 -0.47900767913E+02  0.80337390052E+02  0.97498986262E+02  0.10000000000E+01 0.  0.
<mgrwt>
<rscale>  0 0.12499963E+03</rscale>
<asrwt>0</asrwt>
<pdfrwt beam="2">  1        4 0.49595856E-02 0.12499963E+03</pdfrwt>
<pdfrwt beam="1">  1       -4 0.18641693E-01 0.12499963E+03</pdfrwt>
<totfact> 0.98629412E+03</totfact>
</mgrwt>
</event>
<event>
 5    1  0.3191162E-002  0.1250014E+03  0.7818608E-02  0.1235067E+00
         -4   -1    0    0    0  501 -0.00000000000E+00  0.00000000000E+00  0.15241422063E+02  0.15294242267E+02  0.12700000000E+01 0.  1.
          4   -1    0    0  501    0  0.00000000000E+00 -0.00000000000E+00 -0.25579966167E+03  0.25580281431E+03  0.12700000000E+01 0.  1.
         25    2    1    2    0    0  0.00000000000E+00  0.00000000000E+00 -0.24055823960E+03  0.27109705658E+03  0.12500138977E+03 0.  0.
    9000005    1    3    3    0    0 -0.12570859623E+02  0.61022090795E+02 -0.13081818161E+03  0.14490037514E+03  0.10000000000E+01 0.  0.
    9000005    1    3    3    0    0  0.12570859623E+02 -0.61022090795E+02 -0.10974005799E+03  0.12619668143E+03  0.10000000000E+01 0.  0.
<mgrwt>
<rscale>  0 0.12500139E+03</rscale>
<asrwt>0</asrwt>
<pdfrwt beam="2">  1        4 0.39358097E-01 0.12500139E+03</pdfrwt>
<pdfrwt beam="1">  1       -4 0.23491399E-02 0.12500139E+03</pdfrwt>
<totfact> 0.79371083E+03</totfact>
</mgrwt>
</event>
<event>
 5    1  0.3191162E-002  0.1250007E+03  0.7818608E-02  0.1235068E+00
         -4   -1    0    0    0  501 -0.00000000000E+00  0.00000000000E+00  0.29543249914E+03  0.29543522886E+03  0.12700000000E+01 0.  1.
          4   -1    0    0  501    0  0.00000000000E+00 -0.00000000000E+00 -0.13188985260E+02  0.13249989893E+02  0.12700000000E+01 0.  1.
         25    2    1    2    0    0  0.00000000000E+00  0.00000000000E+00  0.28224351389E+03  0.30868521875E+03  0.12500065258E+03 0.  0.
    9000005    1    3    3    0    0 -0.44601865826E+01 -0.27731550325E+01 -0.12655127049E+02  0.13738118278E+02  0.10000000000E+01 0.  0.
    9000005    1    3    3    0    0  0.44601865826E+01  0.27731550325E+01  0.29489864093E+03  0.29494710047E+03  0.10000000000E+01 0.  0.
<mgrwt>
<rscale>  0 0.12500065E+03</rscale>
<asrwt>0</asrwt>
<pdfrwt beam="2">  1        4 0.20339774E-02 0.12500065E+03</pdfrwt>
<pdfrwt beam="1">  1       -4 0.45456054E-01 0.12500065E+03</pdfrwt>
<totfact> 0.74521059E+03</totfact>
</mgrwt>
</event>
<event>
 5    1  0.3191162E-002  0.1249937E+03  0.7818608E-02  0.1235079E+00
         -4   -1    0    0    0  501 -0.00000000000E+00  0.00000000000E+00  0.57880786409E+02  0.57894717681E+02  0.12700000000E+01 0. -1.
          4   -1    0    0  501    0  0.00000000000E+00 -0.00000000000E+00 -0.67453018639E+02  0.67464973308E+02  0.12700000000E+01 0. -1.
         25    2    1    2    0    0  0.00000000000E+00  0.00000000000E+00 -0.95722322294E+01  0.12535969099E+03  0.12499369782E+03 0.  0.
    9000005    1    3    3    0    0  0.34168037069E+02 -0.28640931584E+02  0.39126771811E+02  0.59326739263E+02  0.10000000000E+01 0.  0.
    9000005    1    3    3    0    0 -0.34168037069E+02  0.28640931584E+02 -0.48699004041E+02  0.66032951727E+02  0.10000000000E+01 0.  0.
<mgrwt>
<rscale>  0 0.12499370E+03</rscale>
<asrwt>0</asrwt>
<pdfrwt beam="2">  1        4 0.10379379E-01 0.12499370E+03</pdfrwt>
<pdfrwt beam="1">  1       -4 0.89067276E-02 0.12499370E+03</pdfrwt>
<totfact> 0.10446543E+04</totfact>
</mgrwt>
</event>
<event>
 5    1  0.3191162E-002  0.1250221E+03  0.7818608E-02  0.1235035E+00
          4   -1    0    0  501    0  0.00000000000E+00  0.00000000000E+00  0.64129539190E+01  0.65374978369E+01  0.12700000000E+01 0. -1.
         -4   -1    0    0    0  501 -0.00000000000E+00 -0.00000000000E+00 -0.60334862599E+03  0.60334996261E+03  0.12700000000E+01 0. -1.
         25    2    1    2    0    0  0.00000000000E+00  0.00000000000E+00 -0.59693567207E+03  0.60988746045E+03  0.12502206934E+03 0.  0.
    9000005    1    3    3    0    0  0.14860655748E+02 -0.55035386979E+02 -0.17343861931E+03  0.18256967869E+03  0.10000000000E+01 0.  0.
    9000005    1    3    3    0    0 -0.14860655748E+02  0.55035386979E+02 -0.42349705276E+03  0.42731778176E+03  0.10000000000E+01 0.  0.
<mgrwt>
<rscale>  0 0.12502207E+03</rscale>
<asrwt>0</asrwt>
<pdfrwt beam="1">  1        4 0.99629189E-03 0.12502207E+03</pdfrwt>
<pdfrwt beam="2">  1       -4 0.92832504E-01 0.12502207E+03</pdfrwt>
<totfact> 0.48226056E+03</totfact>
</mgrwt>
</event>
<event>
 5    1  0.3191162E-002  0.1249992E+03  0.7818608E-02  0.1235070E+00
          4   -1    0    0  501    0  0.00000000000E+00  0.00000000000E+00  0.40067817078E+02  0.40087939151E+02  0.12700000000E+01 0.  1.
         -4   -1    0    0    0  501 -0.00000000000E+00 -0.00000000000E+00 -0.97441051039E+02  0.97449326973E+02  0.12700000000E+01 0.  1.
         25    2    1    2    0    0  0.00000000000E+00  0.00000000000E+00 -0.57373233961E+02  0.13753726612E+03  0.12499924639E+03 0.  0.
    9000005    1    3    3    0    0 -0.38480420091E+02 -0.35425992852E+02 -0.66314131334E+02  0.84464831229E+02  0.10000000000E+01 0.  0.
    9000005    1    3    3    0    0  0.38480420091E+02  0.35425992852E+02  0.89408973728E+01  0.53072434896E+02  0.10000000000E+01 0.  0.
<mgrwt>
<rscale>  0 0.12499925E+03</rscale>
<asrwt>0</asrwt>
<pdfrwt beam="1">  1        4 0.61664640E-02 0.12499925E+03</pdfrwt>
<pdfrwt beam="2">  1       -4 0.14993115E-01 0.12499925E+03</pdfrwt>
<totfact> 0.10185037E+04</totfact>
</mgrwt>
</event>
<event>
 5    1  0.3191162E-002  0.1249992E+03  0.7818608E-02  0.1235071E+00
         -4   -1    0    0    0  501 -0.00000000000E+00  0.00000000000E+00  0.76915382539E+01  0.77956821838E+01  0.12700000000E+01 0.  1.
          4   -1    0    0  501    0  0.00000000000E+00 -0.00000000000E+00 -0.50433658763E+03  0.50433818666E+03  0.12700000000E+01 0.  1.
         25    2    1    2    0    0  0.00000000000E+00  0.00000000000E+00 -0.49664504938E+03  0.51213386884E+03  0.12499917818E+03 0.  0.
    9000005    1    3    3    0    0  0.48756513045E+02  0.18352649079E+00 -0.40847489952E+03  0.41137571000E+03  0.10000000000E+01 0.  0.
    9000005    1    3    3    0    0 -0.48756513045E+02 -0.18352649079E+00 -0.88170149861E+02  0.10075815884E+03  0.10000000000E+01 0.  0.
<mgrwt>
<rscale>  0 0.12499918E+03</rscale>
<asrwt>0</asrwt>
<pdfrwt beam="2">  1        4 0.77598353E-01 0.12499918E+03</pdfrwt>
<pdfrwt beam="1">  1       -4 0.11914480E-02 0.12499918E+03</pdfrwt>
<totfact> 0.54936070E+03</totfact>
</mgrwt>
</event>
<event>
 5    1  0.3191162E-002  0.1250081E+03  0.7818608E-02  0.1235057E+00
         -4   -1    0    0    0  501 -0.00000000000E+00  0.00000000000E+00  0.10523414719E+02  0.10599771571E+02  0.12700000000E+01 0.  1.
          4   -1    0    0  501    0  0.00000000000E+00 -0.00000000000E+00 -0.36982482501E+03  0.36982700563E+03  0.12700000000E+01 0.  1.
         25    2    1    2    0    0  0.00000000000E+00  0.00000000000E+00 -0.35930141029E+03  0.38042677720E+03  0.12500811723E+03 0.  0.
    9000005    1    3    3    0    0  0.44424603624E+01  0.17949302242E+02  0.20230668569E+01  0.18628089128E+02  0.10000000000E+01 0.  0.
    9000005    1    3    3    0    0 -0.44424603624E+01 -0.17949302242E+02 -0.36132447715E+03  0.36179868807E+03  0.10000000000E+01 0.  0.
<mgrwt>
<rscale>  0 0.12500812E+03</rscale>
<asrwt>0</asrwt>
<pdfrwt beam="2">  1        4 0.56902158E-01 0.12500812E+03</pdfrwt>
<pdfrwt beam="1">  1       -4 0.16250285E-02 0.12500812E+03</pdfrwt>
<totfact> 0.66490104E+03</totfact>
</mgrwt>
</event>
<event>
 5    1  0.3191162E-002  0.1250034E+03  0.7818608E-02  0.1235064E+00
          4   -1    0    0  501    0  0.00000000000E+00  0.00000000000E+00  0.63569189270E+02  0.63581874181E+02  0.12700000000E+01 0. -1.
         -4   -1    0    0    0  501 -0.00000000000E+00 -0.00000000000E+00 -0.61426796466E+02  0.61439923699E+02  0.12700000000E+01 0. -1.
         25    2    1    2    0    0  0.00000000000E+00  0.00000000000E+00  0.21423928036E+01  0.12502179788E+03  0.12500344035E+03 0.  0.
    9000005    1    3    3    0    0  0.67922930796E+01 -0.57613030700E+02  0.24313982579E+02  0.62909190907E+02  0.10000000000E+01 0.  0.
    9000005    1    3    3    0    0 -0.67922930796E+01  0.57613030700E+02 -0.22171589775E+02  0.62112606973E+02  0.10000000000E+01 0.  0.
<mgrwt>
<rscale>  0 0.12500344E+03</rscale>
<asrwt>0</asrwt>
<pdfrwt beam="1">  1        4 0.97818609E-02 0.12500344E+03</pdfrwt>
<pdfrwt beam="2">  1       -4 0.94522619E-02 0.12500344E+03</pdfrwt>
<totfact> 0.10451576E+04</totfact>
</mgrwt>
</event>
<event>
 5    1  0.3191162E-002  0.1249968E+03  0.7818608E-02  0.1235074E+00
          4   -1    0    0  501    0  0.00000000000E+00  0.00000000000E+00  0.35508412673E+02  0.35531116934E+02  0.12700000000E+01 0.  1.
         -4   -1    0    0    0  501 -0.00000000000E+00 -0.00000000000E+00 -0.10994189706E+03  0.10994923205E+03  0.12700000000E+01 0.  1.
         25    2    1    2    0    0  0.00000000000E+00  0.00000000000E+00 -0.74433484383E+02  0.14548034898E+03  0.12499675333E+03 0.  0.
    9000005    1    3    3    0    0  0.16077886339E+02  0.25726798585E+02  0.26368235736E+02  0.40207591950E+02  0.10000000000E+01 0.  0.
    9000005    1    3    3    0    0 -0.16077886339E+02 -0.25726798585E+02 -0.10080172012E+03  0.10527275703E+03  0.10000000000E+01 0.  0.
<mgrwt>
<rscale>  0 0.12499675E+03</rscale>
<asrwt>0</asrwt>
<pdfrwt beam="1">  1        4 0.54651435E-02 0.12499675E+03</pdfrwt>
<pdfrwt beam="2">  1       -4 0.16916449E-01 0.12499675E+03</pdfrwt>
<totfact> 0.10021971E+04</totfact>
</mgrwt>
</event>
<event>
 5    1  0.3191162E-002  0.1249982E+03  0.7818608E-02  0.1235072E+00
          4   -1    0    0  501    0  0.00000000000E+00  0.00000000000E+00  0.70109996568E+02  0.70121498264E+02  0.12700000000E+01 0.  1.
         -4   -1    0    0    0  501 -0.00000000000E+00 -0.00000000000E+00 -0.55691132075E+02  0.55705610954E+02  0.12700000000E+01 0.  1.
         25    2    1    2    0    0  0.00000000000E+00  0.00000000000E+00  0.14418864493E+02  0.12582710922E+03  0.12499823103E+03 0.  0.
    9000005    1    3    3    0    0  0.41581214946E+02  0.19607339499E+01 -0.39707543084E+02  0.57537213104E+02  0.10000000000E+01 0.  0.
    9000005    1    3    3    0    0 -0.41581214946E+02 -0.19607339499E+01  0.54126407577E+02  0.68289896114E+02  0.10000000000E+01 0.  0.
<mgrwt>
<rscale>  0 0.12499823E+03</rscale>
<asrwt>0</asrwt>
<pdfrwt beam="1">  1        4 0.10788152E-01 0.12499823E+03</pdfrwt>
<pdfrwt beam="2">  1       -4 0.85698650E-02 0.12499823E+03</pdfrwt>
<totfact> 0.10435166E+04</totfact>
</mgrwt>
</event>
<event>
 5    1  0.3191162E-002  0.1250060E+03  0.7818608E-02  0.1235060E+00
         -4   -1    0    0    0  501 -0.00000000000E+00  0.00000000000E+00  0.30587629519E+01  0.33119376196E+01  0.12700000000E+01 0.  1.
          4   -1    0    0  501    0  0.00000000000E+00 -0.00000000000E+00 -0.12261806066E+04  0.12261812643E+04  0.12700000000E+01 0.  1.
         25    2    1    2    0    0  0.00000000000E+00  0.00000000000E+00 -0.12231218436E+04  0.12294932019E+04  0.12500595641E+03 0.  0.
    9000005    1    3    3    0    0 -0.10631335093E+02 -0.54047541447E+02 -0.90190917586E+03  0.90359024094E+03  0.10000000000E+01 0.  0.
    9000005    1    3    3    0    0  0.10631335093E+02  0.54047541447E+02 -0.32121266776E+03  0.32590296094E+03  0.10000000000E+01 0.  0.
<mgrwt>
<rscale>  0 0.12500596E+03</rscale>
<asrwt>0</asrwt>
<pdfrwt beam="2">  1        4 0.18866232E+00 0.12500596E+03</pdfrwt>
<pdfrwt beam="1">  1       -4 0.49010546E-03 0.12500596E+03</pdfrwt>
<totfact> 0.23950513E+03</totfact>
</mgrwt>
</event>
<event>
 5    1  0.3191162E-002  0.1250465E+03  0.7818608E-02  0.1234997E+00
          4   -1    0    0  501    0  0.00000000000E+00  0.00000000000E+00  0.13021414992E+04  0.13021421186E+04  0.12700000000E+01 0.  1.
         -4   -1    0    0    0  501 -0.00000000000E+00 -0.00000000000E+00 -0.28671372916E+01  0.31358214632E+01  0.12700000000E+01 0.  1.
         25    2    1    2    0    0  0.00000000000E+00  0.00000000000E+00  0.12992743619E+04  0.13052779400E+04  0.12504652378E+03 0.  0.
    9000005    1    3    3    0    0 -0.86550092749E+01 -0.51471876107E+02  0.10087971949E+04  0.10101470406E+04  0.10000000000E+01 0.  0.
    9000005    1    3    3    0    0  0.86550092749E+01  0.51471876107E+02  0.29047716708E+03  0.29513089945E+03  0.10000000000E+01 0.  0.
<mgrwt>
<rscale>  0 0.12504652E+03</rscale>
<asrwt>0</asrwt>
<pdfrwt beam="1">  1        4 0.20035053E+00 0.12504652E+03</pdfrwt>
<pdfrwt beam="2">  1       -4 0.46181288E-03 0.12504652E+03</pdfrwt>
<totfact> 0.22081805E+03</totfact>
</mgrwt>
</event>
<event>
 5    1  0.3191162E-002  0.1250016E+03  0.7818608E-02  0.1235067E+00
         -4   -1    0    0    0  501 -0.00000000000E+00  0.00000000000E+00  0.23802185634E+03  0.23802524445E+03  0.12700000000E+01 0.  1.
          4   -1    0    0  501    0  0.00000000000E+00 -0.00000000000E+00 -0.16383638033E+02  0.16432787201E+02  0.12700000000E+01 0.  1.
         25    2    1    2    0    0  0.00000000000E+00  0.00000000000E+00  0.22163821831E+03  0.25445803165E+03  0.12500156022E+03 0.  0.
    9000005    1    3    3    0    0  0.54270856234E+02  0.43334344695E+01  0.48366352215E+02  0.72831370420E+02  0.10000000000E+01 0.  0.
    9000005    1    3    3    0    0 -0.54270856234E+02 -0.43334344695E+01  0.17327186609E+03  0.18162666123E+03  0.10000000000E+01 0.  0.
<mgrwt>
<rscale>  0 0.12500156E+03</rscale>
<asrwt>0</asrwt>
<pdfrwt beam="2">  1        4 0.25246012E-02 0.12500156E+03</pdfrwt>
<pdfrwt beam="1">  1       -4 0.36622787E-01 0.12500156E+03</pdfrwt>
<totfact> 0.81687305E+03</totfact>
</mgrwt>
</event>
<event>
 5    1  0.3191162E-002  0.1250042E+03  0.7818608E-02  0.1235063E+00
          4   -1    0    0  501    0  0.00000000000E+00  0.00000000000E+00  0.15413650829E+03  0.15414174025E+03  0.12700000000E+01 0. -1.
         -4   -1    0    0    0  501 -0.00000000000E+00 -0.00000000000E+00 -0.25322930638E+02  0.25354757267E+02  0.12700000000E+01 0. -1.
         25    2    1    2    0    0  0.00000000000E+00  0.00000000000E+00  0.12881357765E+03  0.17949649752E+03  0.12500421927E+03 0.  0.
    9000005    1    3    3    0    0  0.36662855167E+02  0.50609560176E+02  0.64615755928E+02  0.89898211574E+02  0.10000000000E+01 0.  0.
    9000005    1    3    3    0    0 -0.36662855167E+02 -0.50609560176E+02  0.64197821726E+02  0.89598285947E+02  0.10000000000E+01 0.  0.
<mgrwt>
<rscale>  0 0.12500422E+03</rscale>
<asrwt>0</asrwt>
<pdfrwt beam="1">  1        4 0.23716160E-01 0.12500422E+03</pdfrwt>
<pdfrwt beam="2">  1       -4 0.38986861E-02 0.12500422E+03</pdfrwt>
<totfact> 0.93698848E+03</totfact>
</mgrwt>
</event>
<event>
 5    1  0.3191162E-002  0.1250009E+03  0.7818608E-02  0.1235068E+00
         -4   -1    0    0    0  501 -0.00000000000E+00  0.00000000000E+00  0.30614843368E+01  0.33144511377E+01  0.12700000000E+01 0. -1.
          4   -1    0    0  501    0  0.00000000000E+00 -0.00000000000E+00 -0.12250737950E+04  0.12250744533E+04  0.12700000000E+01 0. -1.
         25    2    1    2    0    0  0.00000000000E+00  0.00000000000E+00 -0.12220123106E+04  0.12283889044E+04  0.12500085240E+03 0.  0.
    9000005    1    3    3    0    0  0.67752005396E+01  0.46419784546E+02 -0.20527850780E+03  0.21057294581E+03  0.10000000000E+01 0.  0.
    9000005    1    3    3    0    0 -0.67752005396E+01 -0.46419784546E+02 -0.10167338028E+04  0.10178159586E+04  0.10000000000E+01 0.  0.
<mgrwt>
<rscale>  0 0.12500085E+03</rscale>
<asrwt>0</asrwt>
<pdfrwt beam="2">  1        4 0.18849202E+00 0.12500085E+03</pdfrwt>
<pdfrwt beam="1">  1       -4 0.49050819E-03 0.12500085E+03</pdfrwt>
<totfact> 0.23981154E+03</totfact>
</mgrwt>
</event>
<event>
 5    1  0.3191162E-002  0.1249976E+03  0.7818608E-02  0.1235073E+00
         -4   -1    0    0    0  501 -0.00000000000E+00  0.00000000000E+00  0.88728101280E+02  0.88737189818E+02  0.12700000000E+01 0.  1.
          4   -1    0    0  501    0  0.00000000000E+00 -0.00000000000E+00 -0.44002727427E+02  0.44021050885E+02  0.12700000000E+01 0.  1.
         25    2    1    2    0    0  0.00000000000E+00  0.00000000000E+00  0.44725373853E+02  0.13275824070E+03  0.12499756561E+03 0.  0.
    9000005    1    3    3    0    0 -0.28839081632E+02  0.16426632020E+02  0.78598853903E+02  0.85324713324E+02  0.10000000000E+01 0.  0.
    9000005    1    3    3    0    0  0.28839081632E+02 -0.16426632020E+02 -0.33873480050E+02  0.47433527379E+02  0.10000000000E+01 0.  0.
<mgrwt>
<rscale>  0 0.12499757E+03</rscale>
<asrwt>0</asrwt>
<pdfrwt beam="2">  1        4 0.67717591E-02 0.12499757E+03</pdfrwt>
<pdfrwt beam="1">  1       -4 0.13652586E-01 0.12499757E+03</pdfrwt>
<totfact> 0.10286106E+04</totfact>
</mgrwt>
</event>
<event>
 5    1  0.3191162E-002  0.1250015E+03  0.7818608E-02  0.1235067E+00
          4   -1    0    0  501    0  0.00000000000E+00  0.00000000000E+00  0.96294440616E+02  0.96302815086E+02  0.12700000000E+01 0.  1.
         -4   -1    0    0    0  501 -0.00000000000E+00 -0.00000000000E+00 -0.40546593099E+02  0.40566477687E+02  0.12700000000E+01 0.  1.
         25    2    1    2    0    0  0.00000000000E+00  0.00000000000E+00  0.55747847517E+02  0.13686929277E+03  0.12500152320E+03 0.  0.
    9000005    1    3    3    0    0  0.33054943521E+02  0.49120615476E+02  0.49769487278E+02  0.77352866914E+02  0.10000000000E+01 0.  0.
    9000005    1    3    3    0    0 -0.33054943521E+02 -0.49120615476E+02  0.59783602386E+01  0.59516425859E+02  0.10000000000E+01 0.  0.
<mgrwt>
<rscale>  0 0.12500152E+03</rscale>
<asrwt>0</asrwt>
<pdfrwt beam="1">  1        4 0.14816703E-01 0.12500152E+03</pdfrwt>
<pdfrwt beam="2">  1       -4 0.62401111E-02 0.12500152E+03</pdfrwt>
<totfact> 0.10198469E+04</totfact>
</mgrwt>
</event>
<event>
 5    1  0.3191162E-002  0.1249974E+03  0.7818608E-02  0.1235073E+00
          4   -1    0    0  501    0  0.00000000000E+00  0.00000000000E+00  0.37164270880E+02  0.37185964154E+02  0.12700000000E+01 0.  1.
         -4   -1    0    0    0  501 -0.00000000000E+00 -0.00000000000E+00 -0.10504710742E+03  0.10505478417E+03  0.12700000000E+01 0.  1.
         25    2    1    2    0    0  0.00000000000E+00  0.00000000000E+00 -0.67882836535E+02  0.14224074832E+03  0.12499740392E+03 0.  0.
    9000005    1    3    3    0    0  0.12540909683E+02  0.57718335660E+02 -0.57162480220E+02  0.82202371207E+02  0.10000000000E+01 0.  0.
    9000005    1    3    3    0    0 -0.12540909683E+02 -0.57718335660E+02 -0.10720356315E+02  0.60038377115E+02  0.10000000000E+01 0.  0.
<mgrwt>
<rscale>  0 0.12499740E+03</rscale>
<asrwt>0</asrwt>
<pdfrwt beam="1">  1        4 0.57198394E-02 0.12499740E+03</pdfrwt>
<pdfrwt beam="2">  1       -4 0.16163353E-01 0.12499740E+03</pdfrwt>
<totfact> 0.10087944E+04</totfact>
</mgrwt>
</event>
<event>
 5    1  0.3191162E-002  0.1250130E+03  0.7818608E-02  0.1235049E+00
          4   -1    0    0  501    0  0.00000000000E+00  0.00000000000E+00  0.20270794989E+03  0.20271192823E+03  0.12700000000E+01 0.  1.
         -4   -1    0    0    0  501 -0.00000000000E+00 -0.00000000000E+00 -0.19249254735E+02  0.19291104371E+02  0.12700000000E+01 0.  1.
         25    2    1    2    0    0  0.00000000000E+00  0.00000000000E+00  0.18345869515E+03  0.22200303260E+03  0.12501301396E+03 0.  0.
    9000005    1    3    3    0    0 -0.25946443261E+01 -0.24833195711E+02 -0.10016231937E+02  0.26921082642E+02  0.10000000000E+01 0.  0.
    9000005    1    3    3    0    0  0.25946443261E+01  0.24833195711E+02  0.19347492709E+03  0.19508194996E+03  0.10000000000E+01 0.  0.
<mgrwt>
<rscale>  0 0.12501301E+03</rscale>
<asrwt>0</asrwt>
<pdfrwt beam="1">  1        4 0.31189363E-01 0.12501301E+03</pdfrwt>
<pdfrwt beam="2">  1       -4 0.29649491E-02 0.12501301E+03</pdfrwt>
<totfact> 0.86527234E+03</totfact>
</mgrwt>
</event>
<event>
 5    1  0.3191162E-002  0.1250008E+03  0.7818608E-02  0.1235068E+00
         -4   -1    0    0    0  501 -0.00000000000E+00  0.00000000000E+00  0.36714390874E+02  0.36736349808E+02  0.12700000000E+01 0. -1.
          4   -1    0    0  501    0  0.00000000000E+00 -0.00000000000E+00 -0.10633935916E+03  0.10634694263E+03  0.12700000000E+01 0. -1.
         25    2    1    2    0    0  0.00000000000E+00  0.00000000000E+00 -0.69624968283E+02  0.14308329243E+03  0.12500076946E+03 0.  0.
    9000005    1    3    3    0    0  0.56216063350E+02 -0.27078108378E+02 -0.38749240105E+02  0.73457289228E+02  0.10000000000E+01 0.  0.
    9000005    1    3    3    0    0 -0.56216063350E+02  0.27078108378E+02 -0.30875728177E+02  0.69626003206E+02  0.10000000000E+01 0.  0.
<mgrwt>
<rscale>  0 0.12500077E+03</rscale>
<asrwt>0</asrwt>
<pdfrwt beam="2">  1        4 0.16362174E-01 0.12500077E+03</pdfrwt>
<pdfrwt beam="1">  1       -4 0.56506404E-02 0.12500077E+03</pdfrwt>
<totfact> 0.10069903E+04</totfact>
</mgrwt>
</event>
<event>
 5    1  0.3191162E-002  0.1249965E+03  0.7818608E-02  0.1235075E+00
         -4   -1    0    0    0  501 -0.00000000000E+00  0.00000000000E+00  0.42204433112E+01  0.44073849098E+01  0.12700000000E+01 0.  1.
          4   -1    0    0  501    0  0.00000000000E+00 -0.00000000000E+00 -0.90526139090E+03  0.90526228174E+03  0.12700000000E+01 0.  1.
         25    2    1    2    0    0  0.00000000000E+00  0.00000000000E+00 -0.90104094759E+03  0.90966966665E+03  0.12499645277E+03 0.  0.
    9000005    1    3    3    0    0 -0.31140009331E+02 -0.38631369784E+01 -0.84380559258E+03  0.84438942561E+03  0.10000000000E+01 0.  0.
    9000005    1    3    3    0    0  0.31140009331E+02  0.38631369784E+01 -0.57235355005E+02  0.65280241046E+02  0.10000000000E+01 0.  0.
<mgrwt>
<rscale>  0 0.12499645E+03</rscale>
<asrwt>0</asrwt>
<pdfrwt beam="2">  1        4 0.13928528E+00 0.12499645E+03</pdfrwt>
<pdfrwt beam="1">  1       -4 0.66374834E-03 0.12499645E+03</pdfrwt>
<totfact> 0.33795006E+03</totfact>
</mgrwt>
</event>
<event>
 5    1  0.3191162E-002  0.1249930E+03  0.7818608E-02  0.1235080E+00
          4   -1    0    0  501    0  0.00000000000E+00  0.00000000000E+00  0.31014598557E+03  0.31014858578E+03  0.12700000000E+01 0.  1.
         -4   -1    0    0    0  501 -0.00000000000E+00 -0.00000000000E+00 -0.12558790345E+02  0.12622841001E+02  0.12700000000E+01 0.  1.
         25    2    1    2    0    0  0.00000000000E+00  0.00000000000E+00  0.29758719522E+03  0.32277142679E+03  0.12499302056E+03 0.  0.
    9000005    1    3    3    0    0  0.85323619904E+01 -0.33959972323E+02  0.28244515464E+03  0.28460911142E+03  0.10000000000E+01 0.  0.
    9000005    1    3    3    0    0 -0.85323619904E+01  0.33959972323E+02  0.15142040584E+02  0.38162315370E+02  0.10000000000E+01 0.  0.
<mgrwt>
<rscale>  0 0.12499302E+03</rscale>
<asrwt>0</asrwt>
<pdfrwt beam="1">  1        4 0.47719891E-01 0.12499302E+03</pdfrwt>
<pdfrwt beam="2">  1       -4 0.19372487E-02 0.12499302E+03</pdfrwt>
<totfact> 0.72838976E+03</totfact>
</mgrwt>
</event>
<event>
 5    1  0.3191162E-002  0.1249993E+03  0.7818608E-02  0.1235070E+00
          4   -1    0    0  501    0  0.00000000000E+00  0.00000000000E+00  0.46953393844E+02  0.46970566246E+02  0.12700000000E+01 0.  1.
         -4   -1    0    0    0  501 -0.00000000000E+00 -0.00000000000E+00 -0.83155973959E+02  0.83165671434E+02  0.12700000000E+01 0.  1.
         25    2    1    2    0    0  0.00000000000E+00  0.00000000000E+00 -0.36202580115E+02  0.13013623768E+03  0.12499925420E+03 0.  0.
    9000005    1    3    3    0    0  0.16762773286E+02 -0.56477501286E+02 -0.39802704864E+02  0.71105232116E+02  0.10000000000E+01 0.  0.
    9000005    1    3    3    0    0 -0.16762773286E+02  0.56477501286E+02  0.36001247492E+01  0.59031005565E+02  0.10000000000E+01 0.  0.
<mgrwt>
<rscale>  0 0.12499925E+03</rscale>
<asrwt>0</asrwt>
<pdfrwt beam="1">  1        4 0.72256660E-02 0.12499925E+03</pdfrwt>
<pdfrwt beam="2">  1       -4 0.12795294E-01 0.12499925E+03</pdfrwt>
<totfact> 0.10341768E+04</totfact>
</mgrwt>
</event>
<event>
 5    1  0.3191162E-002  0.1249988E+03  0.7818608E-02  0.1235071E+00
          4   -1    0    0  501    0  0.00000000000E+00  0.00000000000E+00  0.29117392576E+03  0.29117669540E+03  0.12700000000E+01 0.  1.
         -4   -1    0    0    0  501 -0.00000000000E+00 -0.00000000000E+00 -0.13382360272E+02  0.13442487361E+02  0.12700000000E+01 0.  1.
         25    2    1    2    0    0  0.00000000000E+00  0.00000000000E+00  0.27779156549E+03  0.30461918276E+03  0.12499877059E+03 0.  0.
    9000005    1    3    3    0    0  0.13166553713E+01  0.48779353354E+02  0.23403203157E+03  0.23906725141E+03  0.10000000000E+01 0.  0.
    9000005    1    3    3    0    0 -0.13166553713E+01 -0.48779353354E+02  0.43759533920E+02  0.65551931351E+02  0.10000000000E+01 0.  0.
<mgrwt>
<rscale>  0 0.12499877E+03</rscale>
<asrwt>0</asrwt>
<pdfrwt beam="1">  1        4 0.44800823E-01 0.12499877E+03</pdfrwt>
<pdfrwt beam="2">  1       -4 0.20636631E-02 0.12499877E+03</pdfrwt>
<totfact> 0.75025095E+03</totfact>
</mgrwt>
</event>
<event>
 5    1  0.3191162E-002  0.1249972E+03  0.7818608E-02  0.1235074E+00
          4   -1    0    0  501    0  0.00000000000E+00  0.00000000000E+00  0.46158729301E+02  0.46176197231E+02  0.12700000000E+01 0. -1.
         -4   -1    0    0    0  501 -0.00000000000E+00 -0.00000000000E+00 -0.84584367935E+02  0.84593901665E+02  0.12700000000E+01 0. -1.
         25    2    1    2    0    0  0.00000000000E+00  0.00000000000E+00 -0.38425638634E+02  0.13077009890E+03  0.12499715621E+03 0.  0.
    9000005    1    3    3    0    0 -0.24742233091E+01  0.54837150369E+02 -0.50455706876E+02  0.74565496028E+02  0.10000000000E+01 0.  0.
    9000005    1    3    3    0    0  0.24742233091E+01 -0.54837150369E+02  0.12030068242E+02  0.56204602867E+02  0.10000000000E+01 0.  0.
<mgrwt>
<rscale>  0 0.12499716E+03</rscale>
<asrwt>0</asrwt>
<pdfrwt beam="1">  1        4 0.71034200E-02 0.12499716E+03</pdfrwt>
<pdfrwt beam="2">  1       -4 0.13015057E-01 0.12499716E+03</pdfrwt>
<totfact> 0.10328683E+04</totfact>
</mgrwt>
</event>
<event>
 5    1  0.3191162E-002  0.1249963E+03  0.7818608E-02  0.1235075E+00
         -4   -1    0    0    0  501 -0.00000000000E+00  0.00000000000E+00  0.27786419825E+03  0.27786710055E+03  0.12700000000E+01 0. -1.
          4   -1    0    0  501    0  0.00000000000E+00 -0.00000000000E+00 -0.14025621513E+02  0.14083002479E+02  0.12700000000E+01 0. -1.
         25    2    1    2    0    0  0.00000000000E+00  0.00000000000E+00  0.26383857674E+03  0.29195010303E+03  0.12499627228E+03 0.  0.
    9000005    1    3    3    0    0 -0.43511864835E+02 -0.44642195489E+02  0.14204894386E+03  0.15512933459E+03  0.10000000000E+01 0.  0.
    9000005    1    3    3    0    0  0.43511864835E+02  0.44642195489E+02  0.12178963288E+03  0.13682076844E+03  0.10000000000E+01 0.  0.
<mgrwt>
<rscale>  0 0.12499627E+03</rscale>
<asrwt>0</asrwt>
<pdfrwt beam="2">  1        4 0.21624253E-02 0.12499627E+03</pdfrwt>
<pdfrwt beam="1">  1       -4 0.42752971E-01 0.12499627E+03</pdfrwt>
<totfact> 0.76626172E+03</totfact>
</mgrwt>
</event>
<event>
 5    1  0.3191162E-002  0.1249999E+03  0.7818608E-02  0.1235069E+00
          4   -1    0    0  501    0  0.00000000000E+00  0.00000000000E+00  0.36593980437E+03  0.36594200814E+03  0.12700000000E+01 0. -1.
         -4   -1    0    0    0  501 -0.00000000000E+00 -0.00000000000E+00 -0.10634533903E+02  0.10710098568E+02  0.12700000000E+01 0. -1.
         25    2    1    2    0    0  0.00000000000E+00  0.00000000000E+00  0.35530527047E+03  0.37665210671E+03  0.12499989707E+03 0.  0.
    9000005    1    3    3    0    0  0.20183766834E+02 -0.28471239809E+02  0.21451354831E+02  0.40977512906E+02  0.10000000000E+01 0.  0.
    9000005    1    3    3    0    0 -0.20183766834E+02  0.28471239809E+02  0.33385391563E+03  0.33567459380E+03  0.10000000000E+01 0.  0.
<mgrwt>
<rscale>  0 0.12499990E+03</rscale>
<asrwt>0</asrwt>
<pdfrwt beam="1">  1        4 0.56304411E-01 0.12499990E+03</pdfrwt>
<pdfrwt beam="2">  1       -4 0.16420644E-02 0.12499990E+03</pdfrwt>
<totfact> 0.66888849E+03</totfact>
</mgrwt>
</event>
<event>
 5    1  0.3191162E-002  0.1250003E+03  0.7818608E-02  0.1235069E+00
          4   -1    0    0  501    0  0.00000000000E+00  0.00000000000E+00  0.75116188325E+03  0.75116295686E+03  0.12700000000E+01 0. -1.
         -4   -1    0    0    0  501 -0.00000000000E+00 -0.00000000000E+00 -0.51216740506E+01  0.52767835923E+01  0.12700000000E+01 0. -1.
         25    2    1    2    0    0  0.00000000000E+00  0.00000000000E+00  0.74604020920E+03  0.75643974045E+03  0.12500034873E+03 0.  0.
    9000005    1    3    3    0    0 -0.61737860766E+01 -0.60223429483E+02  0.27921311253E+03  0.28570253639E+03  0.10000000000E+01 0.  0.
    9000005    1    3    3    0    0  0.61737860766E+01  0.60223429483E+02  0.46682709667E+03  0.47073720406E+03  0.10000000000E+01 0.  0.
<mgrwt>
<rscale>  0 0.12500035E+03</rscale>
<asrwt>0</asrwt>
<pdfrwt beam="1">  1        4 0.11557537E+00 0.12500035E+03</pdfrwt>
<pdfrwt beam="2">  1       -4 0.79996402E-03 0.12500035E+03</pdfrwt>
<totfact> 0.40267698E+03</totfact>
</mgrwt>
</event>
<event>
 5    1  0.3191162E-002  0.1250016E+03  0.7818608E-02  0.1235067E+00
         -4   -1    0    0    0  501 -0.00000000000E+00  0.00000000000E+00  0.45178230035E+02  0.45196076922E+02  0.12700000000E+01 0.  1.
          4   -1    0    0  501    0  0.00000000000E+00 -0.00000000000E+00 -0.86425668784E+02  0.86434999420E+02  0.12700000000E+01 0.  1.
         25    2    1    2    0    0  0.00000000000E+00  0.00000000000E+00 -0.41247438749E+02  0.13163107634E+03  0.12500155621E+03 0.  0.
    9000005    1    3    3    0    0 -0.45051747126E+02  0.42197249240E+02 -0.30891733568E+02  0.69033086020E+02  0.10000000000E+01 0.  0.
    9000005    1    3    3    0    0  0.45051747126E+02 -0.42197249240E+02 -0.10355705181E+02  0.62597990322E+02  0.10000000000E+01 0.  0.
<mgrwt>
<rscale>  0 0.12500156E+03</rscale>
<asrwt>0</asrwt>
<pdfrwt beam="2">  1        4 0.13298347E-01 0.12500156E+03</pdfrwt>
<pdfrwt beam="1">  1       -4 0.69525875E-02 0.12500156E+03</pdfrwt>
<totfact> 0.10309217E+04</totfact>
</mgrwt>
</event>
<event>
 5    1  0.3191162E-002  0.1249989E+03  0.7818608E-02  0.1235071E+00
          4   -1    0    0  501    0  0.00000000000E+00  0.00000000000E+00  0.68210419320E+02  0.68222241269E+02  0.12700000000E+01 0. -1.
         -4   -1    0    0    0  501 -0.00000000000E+00 -0.00000000000E+00 -0.57242770503E+02  0.57256857012E+02  0.12700000000E+01 0. -1.
         25    2    1    2    0    0  0.00000000000E+00  0.00000000000E+00  0.10967648817E+02  0.12547909828E+03  0.12499885913E+03 0.  0.
    9000005    1    3    3    0    0  0.62340082496E+02  0.71004380070E+00  0.97884981815E+01  0.63115804237E+02  0.10000000000E+01 0.  0.
    9000005    1    3    3    0    0 -0.62340082496E+02 -0.71004380070E+00  0.11791506353E+01  0.62363294044E+02  0.10000000000E+01 0.  0.
<mgrwt>
<rscale>  0 0.12499886E+03</rscale>
<asrwt>0</asrwt>
<pdfrwt beam="1">  1        4 0.10495904E-01 0.12499886E+03</pdfrwt>
<pdfrwt beam="2">  1       -4 0.88085730E-02 0.12499886E+03</pdfrwt>
<totfact> 0.10442685E+04</totfact>
</mgrwt>
</event>
<event>
 5    1  0.3191162E-002  0.1250005E+03  0.7818608E-02  0.1235068E+00
         -4   -1    0    0    0  501 -0.00000000000E+00  0.00000000000E+00  0.25236370676E+03  0.25236690233E+03  0.12700000000E+01 0. -1.
          4   -1    0    0  501    0  0.00000000000E+00 -0.00000000000E+00 -0.15449428220E+02  0.15501539676E+02  0.12700000000E+01 0. -1.
         25    2    1    2    0    0  0.00000000000E+00  0.00000000000E+00  0.23691427854E+03  0.26786844201E+03  0.12500050738E+03 0.  0.
    9000005    1    3    3    0    0  0.44382222017E+02  0.27854745940E+02  0.19143083688E+03  0.19847527254E+03  0.10000000000E+01 0.  0.
    9000005    1    3    3    0    0 -0.44382222017E+02 -0.27854745940E+02  0.45483441667E+02  0.69393169465E+02  0.10000000000E+01 0.  0.
<mgrwt>
<rscale>  0 0.12500051E+03</rscale>
<asrwt>0</asrwt>
<pdfrwt beam="2">  1        4 0.23810897E-02 0.12500051E+03</pdfrwt>
<pdfrwt beam="1">  1       -4 0.38829436E-01 0.12500051E+03</pdfrwt>
<totfact> 0.79813464E+03</totfact>
</mgrwt>
</event>
<event>
 5    1  0.3191162E-002  0.1249988E+03  0.7818608E-02  0.1235071E+00
          4   -1    0    0  501    0  0.00000000000E+00  0.00000000000E+00  0.10215890851E+03  0.10216680228E+03  0.12700000000E+01 0.  1.
         -4   -1    0    0    0  501 -0.00000000000E+00 -0.00000000000E+00 -0.38216354021E+02  0.38237450420E+02  0.12700000000E+01 0.  1.
         25    2    1    2    0    0  0.00000000000E+00  0.00000000000E+00  0.63942554488E+02  0.14040425270E+03  0.12499881560E+03 0.  0.
    9000005    1    3    3    0    0 -0.11278272266E+02  0.12546973176E+02  0.99558039172E+02  0.10098232085E+03  0.10000000000E+01 0.  0.
    9000005    1    3    3    0    0  0.11278272266E+02 -0.12546973176E+02 -0.35615484683E+02  0.39421931845E+02  0.10000000000E+01 0.  0.
<mgrwt>
<rscale>  0 0.12499882E+03</rscale>
<asrwt>0</asrwt>
<pdfrwt beam="1">  1        4 0.15718985E-01 0.12499882E+03</pdfrwt>
<pdfrwt beam="2">  1       -4 0.58816691E-02 0.12499882E+03</pdfrwt>
<totfact> 0.10125484E+04</totfact>
</mgrwt>
</event>
<event>
 5    1  0.3191162E-002  0.1250030E+03  0.7818608E-02  0.1235065E+00
          4   -1    0    0  501    0  0.00000000000E+00  0.00000000000E+00  0.28871201812E+03  0.28871481138E+03  0.12700000000E+01 0. -1.
         -4   -1    0    0    0  501 -0.00000000000E+00 -0.00000000000E+00 -0.13497890744E+02  0.13557505469E+02  0.12700000000E+01 0. -1.
         25    2    1    2    0    0  0.00000000000E+00  0.00000000000E+00  0.27521412738E+03  0.30227231685E+03  0.12500295046E+03 0.  0.
    9000005    1    3    3    0    0  0.34608846859E+02 -0.48097788889E+02  0.18562153258E+03  0.19485256717E+03  0.10000000000E+01 0.  0.
    9000005    1    3    3    0    0 -0.34608846859E+02  0.48097788889E+02  0.89592594801E+02  0.10741974967E+03  0.10000000000E+01 0.  0.
<mgrwt>
<rscale>  0 0.12500295E+03</rscale>
<asrwt>0</asrwt>
<pdfrwt beam="1">  1        4 0.44422032E-01 0.12500295E+03</pdfrwt>
<pdfrwt beam="2">  1       -4 0.20813993E-02 0.12500295E+03</pdfrwt>
<totfact> 0.75309752E+03</totfact>
</mgrwt>
</event>
<event>
 5    1  0.3191162E-002  0.1249996E+03  0.7818608E-02  0.1235070E+00
          4   -1    0    0  501    0  0.00000000000E+00  0.00000000000E+00  0.24280039869E+02  0.24313231707E+02  0.12700000000E+01 0. -1.
         -4   -1    0    0    0  501 -0.00000000000E+00 -0.00000000000E+00 -0.16073651487E+03  0.16074153200E+03  0.12700000000E+01 0. -1.
         25    2    1    2    0    0  0.00000000000E+00  0.00000000000E+00 -0.13645647500E+03  0.18505476371E+03  0.12499958401E+03 0.  0.
    9000005    1    3    3    0    0 -0.50285096143E+02 -0.26825693542E+02 -0.30281063896E+02  0.64545732305E+02  0.10000000000E+01 0.  0.
    9000005    1    3    3    0    0  0.50285096143E+02  0.26825693542E+02 -0.10617541110E+03  0.12050903141E+03  0.10000000000E+01 0.  0.
<mgrwt>
<rscale>  0 0.12499958E+03</rscale>
<asrwt>0</asrwt>
<pdfrwt beam="1">  1        4 0.37383300E-02 0.12499958E+03</pdfrwt>
<pdfrwt beam="2">  1       -4 0.24731633E-01 0.12499958E+03</pdfrwt>
<totfact> 0.92715826E+03</totfact>
</mgrwt>
</event>
<event>
 5    1  0.3191162E-002  0.1250102E+03  0.7818608E-02  0.1235053E+00
          4   -1    0    0  501    0  0.00000000000E+00  0.00000000000E+00  0.11161861745E+02  0.11233879901E+02  0.12700000000E+01 0. -1.
         -4   -1    0    0    0  501 -0.00000000000E+00 -0.00000000000E+00 -0.34882221550E+03  0.34882452742E+03  0.12700000000E+01 0. -1.
         25    2    1    2    0    0  0.00000000000E+00  0.00000000000E+00 -0.33766035376E+03  0.36005840732E+03  0.12501016831E+03 0.  0.
    9000005    1    3    3    0    0  0.10703915101E+02 -0.18983527297E+02 -0.33753753151E+03  0.33824182664E+03  0.10000000000E+01 0.  0.
    9000005    1    3    3    0    0 -0.10703915101E+02  0.18983527297E+02 -0.12282224061E+00  0.21816580677E+02  0.10000000000E+01 0.  0.
<mgrwt>
<rscale>  0 0.12501017E+03</rscale>
<asrwt>0</asrwt>
<pdfrwt beam="1">  1        4 0.17229275E-02 0.12501017E+03</pdfrwt>
<pdfrwt beam="2">  1       -4 0.53670666E-01 0.12501017E+03</pdfrwt>
<totfact> 0.68616570E+03</totfact>
</mgrwt>
</event>
<event>
 5    1  0.3191162E-002  0.1249978E+03  0.7818608E-02  0.1235073E+00
          4   -1    0    0  501    0  0.00000000000E+00  0.00000000000E+00  0.10532244859E+04  0.10532252516E+04  0.12700000000E+01 0. -1.
         -4   -1    0    0    0  501 -0.00000000000E+00 -0.00000000000E+00 -0.35992040084E+01  0.38166961490E+01  0.12700000000E+01 0. -1.
         25    2    1    2    0    0  0.00000000000E+00  0.00000000000E+00  0.10496252819E+04  0.10570419478E+04  0.12499778761E+03 0.  0.
    9000005    1    3    3    0    0  0.41708896587E+02 -0.30009078198E+02  0.82557534665E+03  0.82717339767E+03  0.10000000000E+01 0.  0.
    9000005    1    3    3    0    0 -0.41708896587E+02  0.30009078198E+02  0.22404993528E+03  0.22986855011E+03  0.10000000000E+01 0.  0.
<mgrwt>
<rscale>  0 0.12499779E+03</rscale>
<asrwt>0</asrwt>
<pdfrwt beam="1">  1        4 0.16205123E+00 0.12499779E+03</pdfrwt>
<pdfrwt beam="2">  1       -4 0.57051308E-03 0.12499779E+03</pdfrwt>
<totfact> 0.28777313E+03</totfact>
</mgrwt>
</event>
<event>
 4    1  0.3191162E-002  0.1288889E+03  0.7818608E-02  0.1229114E+00
         -4   -1    0    0    0  501 -0.00000000000E+00  0.00000000000E+00  0.14047512028E+03  0.14048086103E+03  0.12700000000E+01 0. -1.
          4   -1    0    0  501    0  0.00000000000E+00 -0.00000000000E+00 -0.29544590606E+02  0.29571874037E+02  0.12700000000E+01 0. -1.
    9000005    1    1    2    0    0 -0.44515255757E+02  0.26149852705E+02  0.45937572843E+01  0.51841348339E+02  0.10000000000E+01 0.  0.
    9000005    1    1    2    0    0  0.44515255757E+02 -0.26149852705E+02  0.10633677239E+03  0.11821138673E+03  0.10000000000E+01 0.  0.
<mgrwt>
<rscale>  0 0.12888891E+03</rscale>
<asrwt>0</asrwt>
<pdfrwt beam="2">  1        4 0.45478620E-02 0.12888891E+03</pdfrwt>
<pdfrwt beam="1">  1       -4 0.21614097E-01 0.12888891E+03</pdfrwt>
<totfact> 0.87561885E+03</totfact>
</mgrwt>
</event>
<event>
 5    1  0.3191162E-002  0.1250010E+03  0.7818608E-02  0.1235068E+00
         -4   -1    0    0    0  501 -0.00000000000E+00  0.00000000000E+00  0.27277941130E+03  0.27278236770E+03  0.12700000000E+01 0.  1.
          4   -1    0    0  501    0  0.00000000000E+00 -0.00000000000E+00 -0.14289216668E+02  0.14345543314E+02  0.12700000000E+01 0.  1.
         25    2    1    2    0    0  0.00000000000E+00  0.00000000000E+00  0.25849019463E+03  0.28712791102E+03  0.12500102625E+03 0.  0.
    9000005    1    3    3    0    0 -0.44665332999E+02 -0.38413495821E+02  0.17713780536E+03  0.18667991515E+03  0.10000000000E+01 0.  0.
    9000005    1    3    3    0    0  0.44665332999E+02  0.38413495821E+02  0.81352389276E+02  0.10044799587E+03  0.10000000000E+01 0.  0.
<mgrwt>
<rscale>  0 0.12500103E+03</rscale>
<asrwt>0</asrwt>
<pdfrwt beam="2">  1        4 0.22029014E-02 0.12500103E+03</pdfrwt>
<pdfrwt beam="1">  1       -4 0.41970621E-01 0.12500103E+03</pdfrwt>
<totfact> 0.77240629E+03</totfact>
</mgrwt>
</event>
<event>
 5    1  0.3191162E-002  0.1250014E+03  0.7818608E-02  0.1235067E+00
         -4   -1    0    0    0  501 -0.00000000000E+00  0.00000000000E+00  0.13541882397E+02  0.13601304307E+02  0.12700000000E+01 0. -1.
          4   -1    0    0  501    0  0.00000000000E+00 -0.00000000000E+00 -0.28777098454E+03  0.28777378692E+03  0.12700000000E+01 0. -1.
         25    2    1    2    0    0  0.00000000000E+00  0.00000000000E+00 -0.27422910214E+03  0.30137509123E+03  0.12500138061E+03 0.  0.
    9000005    1    3    3    0    0  0.31078744387E+02 -0.22069966420E+02 -0.25650925340E+03  0.25932791761E+03  0.10000000000E+01 0.  0.
    9000005    1    3    3    0    0 -0.31078744387E+02  0.22069966420E+02 -0.17719848738E+02  0.42047173624E+02  0.10000000000E+01 0.  0.
<mgrwt>
<rscale>  0 0.12500138E+03</rscale>
<asrwt>0</asrwt>
<pdfrwt beam="2">  1        4 0.44277241E-01 0.12500138E+03</pdfrwt>
<pdfrwt beam="1">  1       -4 0.20881532E-02 0.12500138E+03</pdfrwt>
<totfact> 0.75424363E+03</totfact>
</mgrwt>
</event>
<event>
 5    1  0.3191162E-002  0.1249995E+03  0.7818608E-02  0.1235070E+00
          4   -1    0    0  501    0  0.00000000000E+00  0.00000000000E+00  0.37152052962E+03  0.37152270028E+03  0.12700000000E+01 0. -1.
         -4   -1    0    0    0  501 -0.00000000000E+00 -0.00000000000E+00 -0.10473573670E+02  0.10550291248E+02  0.12700000000E+01 0. -1.
         25    2    1    2    0    0  0.00000000000E+00  0.00000000000E+00  0.36104695595E+03  0.38207299153E+03  0.12499946584E+03 0.  0.
    9000005    1    3    3    0    0  0.41567040573E+01 -0.54936786953E+02  0.90372629596E+02  0.10584678044E+03  0.10000000000E+01 0.  0.
    9000005    1    3    3    0    0 -0.41567040573E+01  0.54936786953E+02  0.27067432635E+03  0.27622621109E+03  0.10000000000E+01 0.  0.
<mgrwt>
<rscale>  0 0.12499947E+03</rscale>
<asrwt>0</asrwt>
<pdfrwt beam="1">  1        4 0.57163070E-01 0.12499947E+03</pdfrwt>
<pdfrwt beam="2">  1       -4 0.16173874E-02 0.12499947E+03</pdfrwt>
<totfact> 0.66335291E+03</totfact>
</mgrwt>
</event>
<event>
 5    1  0.3191162E-002  0.1250007E+03  0.7818608E-02  0.1235068E+00
          4   -1    0    0  501    0  0.00000000000E+00  0.00000000000E+00  0.18816090334E+02  0.18858901226E+02  0.12700000000E+01 0. -1.
         -4   -1    0    0    0  501 -0.00000000000E+00 -0.00000000000E+00 -0.20732312484E+03  0.20732701463E+03  0.12700000000E+01 0. -1.
         25    2    1    2    0    0  0.00000000000E+00  0.00000000000E+00 -0.18850703451E+03  0.22618591585E+03  0.12500066588E+03 0.  0.
    9000005    1    3    3    0    0  0.96995237490E+01 -0.54421299261E+02 -0.14699391129E+03  0.15704766325E+03  0.10000000000E+01 0.  0.
    9000005    1    3    3    0    0 -0.96995237490E+01  0.54421299261E+02 -0.41513123215E+02  0.69138252605E+02  0.10000000000E+01 0.  0.
<mgrwt>
<rscale>  0 0.12500067E+03</rscale>
<asrwt>0</asrwt>
<pdfrwt beam="1">  1        4 0.28983756E-02 0.12500067E+03</pdfrwt>
<pdfrwt beam="2">  1       -4 0.31899456E-01 0.12500067E+03</pdfrwt>
<totfact> 0.85897439E+03</totfact>
</mgrwt>
</event>
<event>
 5    1  0.3191162E-002  0.1249988E+03  0.7818608E-02  0.1235071E+00
         -4   -1    0    0    0  501 -0.00000000000E+00  0.00000000000E+00  0.34789568497E+03  0.34789800304E+03  0.12700000000E+01 0. -1.
          4   -1    0    0  501    0  0.00000000000E+00 -0.00000000000E+00 -0.11189731722E+02  0.11261571649E+02  0.12700000000E+01 0. -1.
         25    2    1    2    0    0  0.00000000000E+00  0.00000000000E+00  0.33670595325E+03  0.35915957469E+03  0.12499880455E+03 0.  0.
    9000005    1    3    3    0    0  0.38913197480E+02  0.24613878121E+02  0.46954762356E+02  0.65771039540E+02  0.10000000000E+01 0.  0.
    9000005    1    3    3    0    0 -0.38913197480E+02 -0.24613878121E+02  0.28975119089E+03  0.29338853515E+03  0.10000000000E+01 0.  0.
<mgrwt>
<rscale>  0 0.12499880E+03</rscale>
<asrwt>0</asrwt>
<pdfrwt beam="2">  1        4 0.17272016E-02 0.12499880E+03</pdfrwt>
<pdfrwt beam="1">  1       -4 0.53528119E-01 0.12499880E+03</pdfrwt>
<totfact> 0.68730322E+03</totfact>
</mgrwt>
</event>
<event>
 5    1  0.3191162E-002  0.1250028E+03  0.7818608E-02  0.1235065E+00
          4   -1    0    0  501    0  0.00000000000E+00  0.00000000000E+00  0.24120138841E+02  0.24153550417E+02  0.12700000000E+01 0. -1.
         -4   -1    0    0    0  501 -0.00000000000E+00 -0.00000000000E+00 -0.16180899949E+03  0.16181398337E+03  0.12700000000E+01 0. -1.
         25    2    1    2    0    0  0.00000000000E+00  0.00000000000E+00 -0.13768886065E+03  0.18596753379E+03  0.12500280508E+03 0.  0.
    9000005    1    3    3    0    0  0.23294910159E+02  0.45746061684E+02 -0.12186339669E+03  0.13223858155E+03  0.10000000000E+01 0.  0.
    9000005    1    3    3    0    0 -0.23294910159E+02 -0.45746061684E+02 -0.15825463958E+02  0.53728952236E+02  0.10000000000E+01 0.  0.
<mgrwt>
<rscale>  0 0.12500281E+03</rscale>
<asrwt>0</asrwt>
<pdfrwt beam="1">  1        4 0.37137442E-02 0.12500281E+03</pdfrwt>
<pdfrwt beam="2">  1       -4 0.24896645E-01 0.12500281E+03</pdfrwt>
<totfact> 0.92547906E+03</totfact>
</mgrwt>
</event>
<event>
 5    1  0.3191162E-002  0.1249996E+03  0.7818608E-02  0.1235070E+00
         -4   -1    0    0    0  501 -0.00000000000E+00  0.00000000000E+00  0.11029055559E+03  0.11029786740E+03  0.12700000000E+01 0. -1.
          4   -1    0    0  501    0  0.00000000000E+00 -0.00000000000E+00 -0.35397705133E+02  0.35420480356E+02  0.12700000000E+01 0. -1.
         25    2    1    2    0    0  0.00000000000E+00  0.00000000000E+00  0.74892850456E+02  0.14571834775E+03  0.12499959129E+03 0.  0.
    9000005    1    3    3    0    0 -0.13718015897E+02  0.60067562721E+02  0.49613220938E+02  0.79112374147E+02  0.10000000000E+01 0.  0.
    9000005    1    3    3    0    0  0.13718015897E+02 -0.60067562721E+02  0.25279629518E+02  0.66605973606E+02  0.10000000000E+01 0.  0.
<mgrwt>
<rscale>  0 0.12499959E+03</rscale>
<asrwt>0</asrwt>
<pdfrwt beam="2">  1        4 0.54481152E-02 0.12499959E+03</pdfrwt>
<pdfrwt beam="1">  1       -4 0.16970092E-01 0.12499959E+03</pdfrwt>
<totfact> 0.10016506E+04</totfact>
</mgrwt>
</event>
<event>
 5    1  0.3191162E-002  0.1249447E+03  0.7818608E-02  0.1235156E+00
          4   -1    0    0  501    0  0.00000000000E+00  0.00000000000E+00  0.16626657784E+03  0.16627142812E+03  0.12700000000E+01 0.  1.
         -4   -1    0    0    0  501 -0.00000000000E+00 -0.00000000000E+00 -0.23450744018E+02  0.23485107941E+02  0.12700000000E+01 0.  1.
         25    2    1    2    0    0  0.00000000000E+00  0.00000000000E+00  0.14281583383E+03  0.18975653606E+03  0.12494471011E+03 0.  0.
    9000005    1    3    3    0    0 -0.14865760918E+02 -0.21559293551E+02 -0.14718616742E+02  0.30057139998E+02  0.10000000000E+01 0.  0.
    9000005    1    3    3    0    0  0.14865760918E+02  0.21559293551E+02  0.15753445057E+03  0.15969939606E+03  0.10000000000E+01 0.  0.
<mgrwt>
<rscale>  0 0.12494471E+03</rscale>
<asrwt>0</asrwt>
<pdfrwt beam="1">  1        4 0.25582490E-01 0.12494471E+03</pdfrwt>
<pdfrwt beam="2">  1       -4 0.36108232E-02 0.12494471E+03</pdfrwt>
<totfact> 0.92003592E+03</totfact>
</mgrwt>
</event>
<event>
 5    1  0.3191162E-002  0.1249979E+03  0.7818608E-02  0.1235073E+00
         -4   -1    0    0    0  501 -0.00000000000E+00  0.00000000000E+00  0.50569592855E+02  0.50585537672E+02  0.12700000000E+01 0. -1.
          4   -1    0    0  501    0  0.00000000000E+00 -0.00000000000E+00 -0.77209062106E+02  0.77219506417E+02  0.12700000000E+01 0. -1.
         25    2    1    2    0    0  0.00000000000E+00  0.00000000000E+00 -0.26639469251E+02  0.12780504409E+03  0.12499787187E+03 0.  0.
    9000005    1    3    3    0    0 -0.48811202985E+02 -0.32900763110E+02  0.81305237420E+01  0.59431466130E+02  0.10000000000E+01 0.  0.
    9000005    1    3    3    0    0  0.48811202985E+02  0.32900763110E+02 -0.34769992993E+02  0.68373577958E+02  0.10000000000E+01 0.  0.
<mgrwt>
<rscale>  0 0.12499787E+03</rscale>
<asrwt>0</asrwt>
<pdfrwt beam="2">  1        4 0.11880347E-01 0.12499787E+03</pdfrwt>
<pdfrwt beam="1">  1       -4 0.77819673E-02 0.12499787E+03</pdfrwt>
<totfact> 0.10392199E+04</totfact>
</mgrwt>
</event>
<event>
 5    1  0.3191162E-002  0.1250039E+03  0.7818608E-02  0.1235063E+00
          4   -1    0    0  501    0  0.00000000000E+00  0.00000000000E+00  0.11975844669E+03  0.11976518048E+03  0.12700000000E+01 0.  1.
         -4   -1    0    0    0  501 -0.00000000000E+00 -0.00000000000E+00 -0.32599758431E+02  0.32624486966E+02  0.12700000000E+01 0.  1.
         25    2    1    2    0    0  0.00000000000E+00  0.00000000000E+00  0.87158688264E+02  0.15238966744E+03  0.12500389515E+03 0.  0.
    9000005    1    3    3    0    0  0.39081599254E+02 -0.29916265502E+02 -0.33692853429E+01  0.49342744407E+02  0.10000000000E+01 0.  0.
    9000005    1    3    3    0    0 -0.39081599254E+02  0.29916265502E+02  0.90527973607E+02  0.10304692304E+03  0.10000000000E+01 0.  0.
<mgrwt>
<rscale>  0 0.12500390E+03</rscale>
<asrwt>0</asrwt>
<pdfrwt beam="1">  1        4 0.18426796E-01 0.12500390E+03</pdfrwt>
<pdfrwt beam="2">  1       -4 0.50177677E-02 0.12500390E+03</pdfrwt>
<totfact> 0.98820809E+03</totfact>
</mgrwt>
</event>
<event>
 5    1  0.3191162E-002  0.1250054E+03  0.7818608E-02  0.1235061E+00
         -4   -1    0    0    0  501 -0.00000000000E+00  0.00000000000E+00  0.79503068813E+02  0.79513211799E+02  0.12700000000E+01 0. -1.
          4   -1    0    0  501    0  0.00000000000E+00 -0.00000000000E+00 -0.49116102670E+02  0.49132519185E+02  0.12700000000E+01 0. -1.
         25    2    1    2    0    0  0.00000000000E+00  0.00000000000E+00  0.30386966143E+02  0.12864573098E+03  0.12500542544E+03 0.  0.
    9000005    1    3    3    0    0 -0.85620078728E+01 -0.61897123691E+02  0.16236505034E+02  0.64569234127E+02  0.10000000000E+01 0.  0.
    9000005    1    3    3    0    0  0.85620078728E+01  0.61897123691E+02  0.14150461109E+02  0.64076496858E+02  0.10000000000E+01 0.  0.
<mgrwt>
<rscale>  0 0.12500543E+03</rscale>
<asrwt>0</asrwt>
<pdfrwt beam="2">  1        4 0.75583666E-02 0.12500543E+03</pdfrwt>
<pdfrwt beam="1">  1       -4 0.12233284E-01 0.12500543E+03</pdfrwt>
<totfact> 0.10372295E+04</totfact>
</mgrwt>
</event>
<event>
 5    1  0.3191162E-002  0.1250016E+03  0.7818608E-02  0.1235067E+00
         -4   -1    0    0    0  501 -0.00000000000E+00  0.00000000000E+00  0.51089629049E+03  0.51089786899E+03  0.12700000000E+01 0.  1.
          4   -1    0    0  501    0  0.00000000000E+00 -0.00000000000E+00 -0.75917393447E+01  0.76972336770E+01  0.12700000000E+01 0.  1.
         25    2    1    2    0    0  0.00000000000E+00  0.00000000000E+00  0.50330455115E+03  0.51859510267E+03  0.12500163721E+03 0.  0.
    9000005    1    3    3    0    0 -0.50263911892E+02 -0.36559159282E+02  0.27864099360E+03  0.28549051872E+03  0.10000000000E+01 0.  0.
    9000005    1    3    3    0    0  0.50263911892E+02  0.36559159282E+02  0.22466355755E+03  0.23310458395E+03  0.10000000000E+01 0.  0.
<mgrwt>
<rscale>  0 0.12500164E+03</rscale>
<asrwt>0</asrwt>
<pdfrwt beam="2">  1        4 0.11761961E-02 0.12500164E+03</pdfrwt>
<pdfrwt beam="1">  1       -4 0.78607677E-01 0.12500164E+03</pdfrwt>
<totfact> 0.54447972E+03</totfact>
</mgrwt>
</event>
<event>
 5    1  0.3191162E-002  0.1249638E+03  0.7818608E-02  0.1235126E+00
          4   -1    0    0  501    0  0.00000000000E+00  0.00000000000E+00  0.15780673371E+03  0.15781184400E+03  0.12700000000E+01 0. -1.
         -4   -1    0    0    0  501 -0.00000000000E+00 -0.00000000000E+00 -0.24717241682E+02  0.24749847198E+02  0.12700000000E+01 0. -1.
         25    2    1    2    0    0  0.00000000000E+00  0.00000000000E+00  0.13308949203E+03  0.18256169120E+03  0.12496382758E+03 0.  0.
    9000005    1    3    3    0    0  0.21815017943E+01 -0.49701144110E+02  0.12175166642E+03  0.13152730117E+03  0.10000000000E+01 0.  0.
    9000005    1    3    3    0    0 -0.21815017943E+01  0.49701144110E+02  0.11337825612E+02  0.51034390028E+02  0.10000000000E+01 0.  0.
<mgrwt>
<rscale>  0 0.12496383E+03</rscale>
<asrwt>0</asrwt>
<pdfrwt beam="1">  1        4 0.24280861E-01 0.12496383E+03</pdfrwt>
<pdfrwt beam="2">  1       -4 0.38055537E-02 0.12496383E+03</pdfrwt>
<totfact> 0.93233489E+03</totfact>
</mgrwt>
</event>
<event>
 5    1  0.3191162E-002  0.1250032E+03  0.7818608E-02  0.1235064E+00
         -4   -1    0    0    0  501 -0.00000000000E+00  0.00000000000E+00  0.56920965180E+02  0.56935131307E+02  0.12700000000E+01 0.  1.
          4   -1    0    0  501    0  0.00000000000E+00 -0.00000000000E+00 -0.68600750296E+02  0.68612504992E+02  0.12700000000E+01 0.  1.
         25    2    1    2    0    0  0.00000000000E+00  0.00000000000E+00 -0.11679785117E+02  0.12554763630E+03  0.12500316636E+03 0.  0.
    9000005    1    3    3    0    0 -0.36384561574E+02 -0.22525308372E+02  0.39902107622E+02  0.58518407624E+02  0.10000000000E+01 0.  0.
    9000005    1    3    3    0    0  0.36384561574E+02  0.22525308372E+02 -0.51581892739E+02  0.67029228675E+02  0.10000000000E+01 0.  0.
<mgrwt>
<rscale>  0 0.12500317E+03</rscale>
<asrwt>0</asrwt>
<pdfrwt beam="2">  1        4 0.10555956E-01 0.12500317E+03</pdfrwt>
<pdfrwt beam="1">  1       -4 0.87590654E-02 0.12500317E+03</pdfrwt>
<totfact> 0.10440156E+04</totfact>
</mgrwt>
</event>
<event>
 5    1  0.3191162E-002  0.1250010E+03  0.7818608E-02  0.1235068E+00
          4   -1    0    0  501    0  0.00000000000E+00  0.00000000000E+00  0.26293122443E+03  0.26293429156E+03  0.12700000000E+01 0. -1.
         -4   -1    0    0    0  501 -0.00000000000E+00 -0.00000000000E+00 -0.14826478619E+02  0.14880771762E+02  0.12700000000E+01 0. -1.
         25    2    1    2    0    0  0.00000000000E+00  0.00000000000E+00  0.24810474581E+03  0.27781506333E+03  0.12500097806E+03 0.  0.
    9000005    1    3    3    0    0  0.42132969717E+02 -0.42849703447E+02  0.16216210678E+03  0.17294170433E+03  0.10000000000E+01 0.  0.
    9000005    1    3    3    0    0 -0.42132969717E+02  0.42849703447E+02  0.85942639031E+02  0.10487335899E+03  0.10000000000E+01 0.  0.
<mgrwt>
<rscale>  0 0.12500098E+03</rscale>
<asrwt>0</asrwt>
<pdfrwt beam="1">  1        4 0.40455368E-01 0.12500098E+03</pdfrwt>
<pdfrwt beam="2">  1       -4 0.22854091E-02 0.12500098E+03</pdfrwt>
<totfact> 0.78467000E+03</totfact>
</mgrwt>
</event>
<event>
 5    1  0.3191162E-002  0.1249975E+03  0.7818608E-02  0.1235073E+00
          4   -1    0    0  501    0  0.00000000000E+00  0.00000000000E+00  0.20173518313E+02  0.20213454458E+02  0.12700000000E+01 0.  1.
         -4   -1    0    0    0  501 -0.00000000000E+00 -0.00000000000E+00 -0.19339126139E+03  0.19339543139E+03  0.12700000000E+01 0.  1.
         25    2    1    2    0    0  0.00000000000E+00  0.00000000000E+00 -0.17321774308E+03  0.21360888585E+03  0.12499747836E+03 0.  0.
    9000005    1    3    3    0    0  0.24231978139E+02 -0.30955899249E+02 -0.16962081160E+03  0.17411971798E+03  0.10000000000E+01 0.  0.
    9000005    1    3    3    0    0 -0.24231978139E+02  0.30955899249E+02 -0.35969314817E+01  0.39489167868E+02  0.10000000000E+01 0.  0.
<mgrwt>
<rscale>  0 0.12499748E+03</rscale>
<asrwt>0</asrwt>
<pdfrwt beam="1">  1        4 0.31070111E-02 0.12499748E+03</pdfrwt>
<pdfrwt beam="2">  1       -4 0.29755893E-01 0.12499748E+03</pdfrwt>
<totfact> 0.87894828E+03</totfact>
</mgrwt>
</event>
<event>
 5    1  0.3191162E-002  0.1250028E+03  0.7818608E-02  0.1235065E+00
         -4   -1    0    0    0  501 -0.00000000000E+00  0.00000000000E+00  0.23418980011E+02  0.23453390474E+02  0.12700000000E+01 0. -1.
          4   -1    0    0  501    0  0.00000000000E+00 -0.00000000000E+00 -0.16664671736E+03  0.16665155656E+03  0.12700000000E+01 0. -1.
         25    2    1    2    0    0  0.00000000000E+00  0.00000000000E+00 -0.14322773734E+03  0.19010494704E+03  0.12500282454E+03 0.  0.
    9000005    1    3    3    0    0 -0.10056502432E+02  0.86346302690E+01  0.21264090686E+02  0.25076914359E+02  0.10000000000E+01 0.  0.
    9000005    1    3    3    0    0  0.10056502432E+02 -0.86346302690E+01 -0.16449182803E+03  0.16502803268E+03  0.10000000000E+01 0.  0.
<mgrwt>
<rscale>  0 0.12500282E+03</rscale>
<asrwt>0</asrwt>
<pdfrwt beam="2">  1        4 0.25640975E-01 0.12500282E+03</pdfrwt>
<pdfrwt beam="1">  1       -4 0.36059393E-02 0.12500282E+03</pdfrwt>
<totfact> 0.91823248E+03</totfact>
</mgrwt>
</event>
<event>
 5    1  0.3191162E-002  0.1250012E+03  0.7818608E-02  0.1235067E+00
          4   -1    0    0  501    0  0.00000000000E+00  0.00000000000E+00  0.12697025749E+02  0.12760382552E+02  0.12700000000E+01 0. -1.
         -4   -1    0    0    0  501 -0.00000000000E+00 -0.00000000000E+00 -0.30682658820E+03  0.30682921654E+03  0.12700000000E+01 0. -1.
         25    2    1    2    0    0  0.00000000000E+00  0.00000000000E+00 -0.29412956245E+03  0.31958959909E+03  0.12500124937E+03 0.  0.
    9000005    1    3    3    0    0  0.59116139819E+02 -0.20263227106E+01 -0.95516907448E+02  0.11235347604E+03  0.10000000000E+01 0.  0.
    9000005    1    3    3    0    0 -0.59116139819E+02  0.20263227106E+01 -0.19861265500E+03  0.20723612305E+03  0.10000000000E+01 0.  0.
<mgrwt>
<rscale>  0 0.12500125E+03</rscale>
<asrwt>0</asrwt>
<pdfrwt beam="1">  1        4 0.19584646E-02 0.12500125E+03</pdfrwt>
<pdfrwt beam="2">  1       -4 0.47209161E-01 0.12500125E+03</pdfrwt>
<totfact> 0.73202938E+03</totfact>
</mgrwt>
</event>
<event>
 5    1  0.3191162E-002  0.1250044E+03  0.7818608E-02  0.1235062E+00
         -4   -1    0    0    0  501 -0.00000000000E+00  0.00000000000E+00  0.19958204697E+02  0.19998570817E+02  0.12700000000E+01 0. -1.
          4   -1    0    0  501    0  0.00000000000E+00 -0.00000000000E+00 -0.19549521282E+03  0.19549933794E+03  0.12700000000E+01 0. -1.
         25    2    1    2    0    0  0.00000000000E+00  0.00000000000E+00 -0.17553700812E+03  0.21549790876E+03  0.12500442976E+03 0.  0.
    9000005    1    3    3    0    0 -0.69494947160E+01 -0.60951642149E+02 -0.10832071551E+03  0.12449006212E+03  0.10000000000E+01 0.  0.
    9000005    1    3    3    0    0  0.69494947160E+01  0.60951642149E+02 -0.67216292612E+02  0.91007846639E+02  0.10000000000E+01 0.  0.
<mgrwt>
<rscale>  0 0.12500443E+03</rscale>
<asrwt>0</asrwt>
<pdfrwt beam="2">  1        4 0.30079608E-01 0.12500443E+03</pdfrwt>
<pdfrwt beam="1">  1       -4 0.30739156E-02 0.12500443E+03</pdfrwt>
<totfact> 0.87577130E+03</totfact>
</mgrwt>
</event>
<event>
 5    1  0.3191162E-002  0.1249984E+03  0.7818608E-02  0.1235072E+00
          4   -1    0    0  501    0  0.00000000000E+00  0.00000000000E+00  0.14858109186E+03  0.14858651944E+03  0.12700000000E+01 0. -1.
         -4   -1    0    0    0  501 -0.00000000000E+00 -0.00000000000E+00 -0.26268417614E+02  0.26299100059E+02  0.12700000000E+01 0. -1.
         25    2    1    2    0    0  0.00000000000E+00  0.00000000000E+00  0.12231267425E+03  0.17488561950E+03  0.12499835849E+03 0.  0.
    9000005    1    3    3    0    0 -0.10545869915E+02 -0.26335587304E+02 -0.16747073964E+02  0.32958201062E+02  0.10000000000E+01 0.  0.
    9000005    1    3    3    0    0  0.10545869915E+02  0.26335587304E+02  0.13905974821E+03  0.14192741844E+03  0.10000000000E+01 0.  0.
<mgrwt>
<rscale>  0 0.12499836E+03</rscale>
<asrwt>0</asrwt>
<pdfrwt beam="1">  1        4 0.22861407E-01 0.12499836E+03</pdfrwt>
<pdfrwt beam="2">  1       -4 0.40440727E-02 0.12499836E+03</pdfrwt>
<totfact> 0.94549275E+03</totfact>
</mgrwt>
</event>
<event>
 5    1  0.3191162E-002  0.1250012E+03  0.7818608E-02  0.1235067E+00
          4   -1    0    0  501    0  0.00000000000E+00  0.00000000000E+00  0.41650855265E+03  0.41651048886E+03  0.12700000000E+01 0. -1.
         -4   -1    0    0    0  501 -0.00000000000E+00 -0.00000000000E+00 -0.93337760877E+01  0.94197811044E+01  0.12700000000E+01 0. -1.
         25    2    1    2    0    0  0.00000000000E+00  0.00000000000E+00  0.40717477656E+03  0.42593026996E+03  0.12500118481E+03 0.  0.
    9000005    1    3    3    0    0  0.13313023936E+02 -0.10184564730E+02 -0.15478005195E+01  0.16862907564E+02  0.10000000000E+01 0.  0.
    9000005    1    3    3    0    0 -0.13313023936E+02  0.10184564730E+02  0.40872257708E+03  0.40906736240E+03  0.10000000000E+01 0.  0.
<mgrwt>
<rscale>  0 0.12500118E+03</rscale>
<asrwt>0</asrwt>
<pdfrwt beam="1">  1        4 0.64085013E-01 0.12500118E+03</pdfrwt>
<pdfrwt beam="2">  1       -4 0.14427300E-02 0.12500118E+03</pdfrwt>
<totfact> 0.62104997E+03</totfact>
</mgrwt>
</event>
<event>
 5    1  0.3191162E-002  0.1249966E+03  0.7818608E-02  0.1235075E+00
          4   -1    0    0  501    0  0.00000000000E+00  0.00000000000E+00  0.79664768702E+01  0.80670721903E+01  0.12700000000E+01 0.  1.
         -4   -1    0    0    0  501 -0.00000000000E+00 -0.00000000000E+00 -0.48713125735E+03  0.48713291286E+03  0.12700000000E+01 0.  1.
         25    2    1    2    0    0  0.00000000000E+00  0.00000000000E+00 -0.47916478048E+03  0.49519998505E+03  0.12499655330E+03 0.  0.
    9000005    1    3    3    0    0  0.22550086694E+01  0.62016775942E+02 -0.21050522058E+03  0.21946437855E+03  0.10000000000E+01 0.  0.
    9000005    1    3    3    0    0 -0.22550086694E+01 -0.62016775942E+02 -0.26865955990E+03  0.27573560650E+03  0.10000000000E+01 0.  0.
<mgrwt>
<rscale>  0 0.12499655E+03</rscale>
<asrwt>0</asrwt>
<pdfrwt beam="1">  1        4 0.12334777E-02 0.12499655E+03</pdfrwt>
<pdfrwt beam="2">  1       -4 0.74951113E-01 0.12499655E+03</pdfrwt>
<totfact> 0.56242994E+03</totfact>
</mgrwt>
</event>
<event>
 5    1  0.3191162E-002  0.1249977E+03  0.7818608E-02  0.1235073E+00
          4   -1    0    0  501    0  0.00000000000E+00  0.00000000000E+00  0.70699034826E+01  0.71830658673E+01  0.12700000000E+01 0.  1.
         -4   -1    0    0    0  501 -0.00000000000E+00 -0.00000000000E+00 -0.54799695174E+03  0.54799842337E+03  0.12700000000E+01 0.  1.
         25    2    1    2    0    0  0.00000000000E+00  0.00000000000E+00 -0.54092704826E+03  0.55518148924E+03  0.12499765780E+03 0.  0.
    9000005    1    3    3    0    0 -0.44836707874E+01 -0.27019977078E+01 -0.54704314604E+03  0.54706910690E+03  0.10000000000E+01 0.  0.
    9000005    1    3    3    0    0  0.44836707874E+01  0.27019977078E+01  0.61160977741E+01  0.81123823458E+01  0.10000000000E+01 0.  0.
<mgrwt>
<rscale>  0 0.12499766E+03</rscale>
<asrwt>0</asrwt>
<pdfrwt beam="1">  1        4 0.10964959E-02 0.12499766E+03</pdfrwt>
<pdfrwt beam="2">  1       -4 0.84316008E-01 0.12499766E+03</pdfrwt>
<totfact> 0.51827354E+03</totfact>
</mgrwt>
</event>
<event>
 5    1  0.3191162E-002  0.1249998E+03  0.7818608E-02  0.1235070E+00
         -4   -1    0    0    0  501 -0.00000000000E+00  0.00000000000E+00  0.66537868128E+03  0.66537989330E+03  0.12700000000E+01 0.  1.
          4   -1    0    0  501    0  0.00000000000E+00 -0.00000000000E+00 -0.58007823077E+01  0.59381794669E+01  0.12700000000E+01 0.  1.
         25    2    1    2    0    0  0.00000000000E+00  0.00000000000E+00  0.65957789898E+03  0.67131807277E+03  0.12499980002E+03 0.  0.
    9000005    1    3    3    0    0 -0.57885974331E+02  0.23546550461E+02  0.32921456991E+03  0.33509470169E+03  0.10000000000E+01 0.  0.
    9000005    1    3    3    0    0  0.57885974331E+02 -0.23546550461E+02  0.33036332907E+03  0.33622337108E+03  0.10000000000E+01 0.  0.
<mgrwt>
<rscale>  0 0.12499980E+03</rscale>
<asrwt>0</asrwt>
<pdfrwt beam="2">  1        4 0.90309037E-03 0.12499980E+03</pdfrwt>
<pdfrwt beam="1">  1       -4 0.10237660E+00 0.12499980E+03</pdfrwt>
<totfact> 0.44644823E+03</totfact>
</mgrwt>
</event>
<event>
 5    1  0.3191162E-002  0.1250005E+03  0.7818608E-02  0.1235069E+00
          4   -1    0    0  501    0  0.00000000000E+00  0.00000000000E+00  0.41249587077E+02  0.41269132945E+02  0.12700000000E+01 0.  1.
         -4   -1    0    0    0  501 -0.00000000000E+00 -0.00000000000E+00 -0.94652377936E+02  0.94660897676E+02  0.12700000000E+01 0.  1.
         25    2    1    2    0    0  0.00000000000E+00  0.00000000000E+00 -0.53402790858E+02  0.13593003062E+03  0.12500046061E+03 0.  0.
    9000005    1    3    3    0    0  0.11032411796E+02  0.42933706511E+02  0.21198430716E+02  0.49146624804E+02  0.10000000000E+01 0.  0.
    9000005    1    3    3    0    0 -0.11032411796E+02 -0.42933706511E+02 -0.74601221575E+02  0.86783405817E+02  0.10000000000E+01 0.  0.
<mgrwt>
<rscale>  0 0.12500046E+03</rscale>
<asrwt>0</asrwt>
<pdfrwt beam="1">  1        4 0.63482493E-02 0.12500046E+03</pdfrwt>
<pdfrwt beam="2">  1       -4 0.14564063E-01 0.12500046E+03</pdfrwt>
<totfact> 0.10218399E+04</totfact>
</mgrwt>
</event>
<event>
 5    1  0.3191162E-002  0.1249998E+03  0.7818608E-02  0.1235070E+00
          4   -1    0    0  501    0  0.00000000000E+00  0.00000000000E+00  0.49940573322E+01  0.51530096679E+01  0.12700000000E+01 0.  1.
         -4   -1    0    0    0  501 -0.00000000000E+00 -0.00000000000E+00 -0.76976488177E+03  0.76976592942E+03  0.12700000000E+01 0.  1.
         25    2    1    2    0    0  0.00000000000E+00  0.00000000000E+00 -0.76477082443E+03  0.77491893909E+03  0.12499979303E+03 0.  0.
    9000005    1    3    3    0    0 -0.46738727998E+02  0.28823469525E+02 -0.56732349991E+03  0.56997566144E+03  0.10000000000E+01 0.  0.
    9000005    1    3    3    0    0  0.46738727998E+02 -0.28823469525E+02 -0.19744732453E+03  0.20494327765E+03  0.10000000000E+01 0.  0.
<mgrwt>
<rscale>  0 0.12499979E+03</rscale>
<asrwt>0</asrwt>
<pdfrwt beam="1">  1        4 0.78062482E-03 0.12499979E+03</pdfrwt>
<pdfrwt beam="2">  1       -4 0.11843758E+00 0.12499979E+03</pdfrwt>
<totfact> 0.39409414E+03</totfact>
</mgrwt>
</event>
<event>
 5    1  0.3191162E-002  0.1250051E+03  0.7818608E-02  0.1235061E+00
          4   -1    0    0  501    0  0.00000000000E+00  0.00000000000E+00  0.75998368553E+01  0.77052203231E+01  0.12700000000E+01 0. -1.
         -4   -1    0    0    0  501 -0.00000000000E+00 -0.00000000000E+00 -0.51038765450E+03  0.51038923457E+03  0.12700000000E+01 0. -1.
         25    2    1    2    0    0  0.00000000000E+00  0.00000000000E+00 -0.50278781765E+03  0.51809445490E+03  0.12500509838E+03 0.  0.
    9000005    1    3    3    0    0 -0.44952734860E+02 -0.43289033274E+02 -0.23772312838E+03  0.24578033799E+03  0.10000000000E+01 0.  0.
    9000005    1    3    3    0    0  0.44952734860E+02  0.43289033274E+02 -0.26506468927E+03  0.27231411691E+03  0.10000000000E+01 0.  0.
<mgrwt>
<rscale>  0 0.12500510E+03</rscale>
<asrwt>0</asrwt>
<pdfrwt beam="1">  1        4 0.11774340E-02 0.12500510E+03</pdfrwt>
<pdfrwt beam="2">  1       -4 0.78529379E-01 0.12500510E+03</pdfrwt>
<totfact> 0.54481198E+03</totfact>
</mgrwt>
</event>
<event>
 5    1  0.3191162E-002  0.1250001E+03  0.7818608E-02  0.1235069E+00
         -4   -1    0    0    0  501 -0.00000000000E+00  0.00000000000E+00  0.13183674030E+04  0.13183680147E+04  0.12700000000E+01 0.  1.
          4   -1    0    0  501    0  0.00000000000E+00 -0.00000000000E+00 -0.28262206198E+01  0.30984549362E+01  0.12700000000E+01 0.  1.
         25    2    1    2    0    0  0.00000000000E+00  0.00000000000E+00  0.13155411824E+04  0.13214664696E+04  0.12500011137E+03 0.  0.
    9000005    1    3    3    0    0 -0.11891116325E+02  0.58266792063E+02  0.45473867346E+03  0.45861168634E+03  0.10000000000E+01 0.  0.
    9000005    1    3    3    0    0  0.11891116325E+02 -0.58266792063E+02  0.86080250890E+03  0.86285478329E+03  0.10000000000E+01 0.  0.
<mgrwt>
<rscale>  0 0.12500011E+03</rscale>
<asrwt>0</asrwt>
<pdfrwt beam="2">  1        4 0.45579164E-03 0.12500011E+03</pdfrwt>
<pdfrwt beam="1">  1       -4 0.20284660E+00 0.12500011E+03</pdfrwt>
<totfact> 0.21727444E+03</totfact>
</mgrwt>
</event>
<event>
 5    1  0.3191162E-002  0.1249962E+03  0.7818608E-02  0.1235075E+00
         -4   -1    0    0    0  501 -0.00000000000E+00  0.00000000000E+00  0.40523778227E+02  0.40543674005E+02  0.12700000000E+01 0.  1.
          4   -1    0    0  501    0  0.00000000000E+00 -0.00000000000E+00 -0.96340371624E+02  0.96348742102E+02  0.12700000000E+01 0.  1.
         25    2    1    2    0    0  0.00000000000E+00  0.00000000000E+00 -0.55816593397E+02  0.13689241611E+03  0.12499616590E+03 0.  0.
    9000005    1    3    3    0    0  0.18426787043E+01 -0.29035911819E+01 -0.96242032707E+02  0.96308645335E+02  0.10000000000E+01 0.  0.
    9000005    1    3    3    0    0 -0.18426787043E+01  0.29035911819E+01  0.40425439311E+02  0.40583770771E+02  0.10000000000E+01 0.  0.
<mgrwt>
<rscale>  0 0.12499617E+03</rscale>
<asrwt>0</asrwt>
<pdfrwt beam="2">  1        4 0.14823770E-01 0.12499617E+03</pdfrwt>
<pdfrwt beam="1">  1       -4 0.62366018E-02 0.12499617E+03</pdfrwt>
<totfact> 0.10199217E+04</totfact>
</mgrwt>
</event>
<event>
 5    1  0.3191162E-002  0.1249993E+03  0.7818608E-02  0.1235070E+00
          4   -1    0    0  501    0  0.00000000000E+00  0.00000000000E+00  0.11877313974E+03  0.11877992938E+03  0.12700000000E+01 0.  1.
         -4   -1    0    0    0  501 -0.00000000000E+00 -0.00000000000E+00 -0.32867951879E+02  0.32892478786E+02  0.12700000000E+01 0.  1.
         25    2    1    2    0    0  0.00000000000E+00  0.00000000000E+00  0.85905187862E+02  0.15167240817E+03  0.12499927239E+03 0.  0.
    9000005    1    3    3    0    0  0.21240647111E+02  0.76767666757E+01 -0.27748447389E+02  0.35792096457E+02  0.10000000000E+01 0.  0.
    9000005    1    3    3    0    0 -0.21240647111E+02 -0.76767666757E+01  0.11365363525E+03  0.11588031171E+03  0.10000000000E+01 0.  0.
<mgrwt>
<rscale>  0 0.12499927E+03</rscale>
<asrwt>0</asrwt>
<pdfrwt beam="1">  1        4 0.18275199E-01 0.12499927E+03</pdfrwt>
<pdfrwt beam="2">  1       -4 0.50590170E-02 0.12499927E+03</pdfrwt>
<totfact> 0.98972988E+03</totfact>
</mgrwt>
</event>
<event>
 5    1  0.3191162E-002  0.1250059E+03  0.7818608E-02  0.1235060E+00
         -4   -1    0    0    0  501 -0.00000000000E+00  0.00000000000E+00  0.44863504322E+03  0.44863684078E+03  0.12700000000E+01 0.  1.
          4   -1    0    0  501    0  0.00000000000E+00 -0.00000000000E+00 -0.86596630969E+01  0.87522948391E+01  0.12700000000E+01 0.  1.
         25    2    1    2    0    0  0.00000000000E+00  0.00000000000E+00  0.43997538012E+03  0.45738913562E+03  0.12500594493E+03 0.  0.
    9000005    1    3    3    0    0 -0.59895795169E+02  0.14431174017E+02  0.25833792824E+03  0.26558473267E+03  0.10000000000E+01 0.  0.
    9000005    1    3    3    0    0  0.59895795169E+02 -0.14431174017E+02  0.18163745189E+03  0.19180440295E+03  0.10000000000E+01 0.  0.
<mgrwt>
<rscale>  0 0.12500594E+03</rscale>
<asrwt>0</asrwt>
<pdfrwt beam="2">  1        4 0.13395197E-02 0.12500594E+03</pdfrwt>
<pdfrwt beam="1">  1       -4 0.69028035E-01 0.12500594E+03</pdfrwt>
<totfact> 0.59321212E+03</totfact>
</mgrwt>
</event>
<event>
 5    1  0.3191162E-002  0.1249997E+03  0.7818608E-02  0.1235070E+00
         -4   -1    0    0    0  501 -0.00000000000E+00  0.00000000000E+00  0.18331701321E+02  0.18375640759E+02  0.12700000000E+01 0.  1.
          4   -1    0    0  501    0  0.00000000000E+00 -0.00000000000E+00 -0.21278518225E+03  0.21278897219E+03  0.12700000000E+01 0.  1.
         25    2    1    2    0    0  0.00000000000E+00  0.00000000000E+00 -0.19445348093E+03  0.23116461295E+03  0.12499968814E+03 0.  0.
    9000005    1    3    3    0    0 -0.83184345162E+01  0.11901384904E+02  0.15177802209E+02  0.21028670793E+02  0.10000000000E+01 0.  0.
    9000005    1    3    3    0    0  0.83184345162E+01 -0.11901384904E+02 -0.20963128314E+03  0.21013594216E+03  0.10000000000E+01 0.  0.
<mgrwt>
<rscale>  0 0.12499969E+03</rscale>
<asrwt>0</asrwt>
<pdfrwt beam="2">  1        4 0.32739852E-01 0.12499969E+03</pdfrwt>
<pdfrwt beam="1">  1       -4 0.28239334E-02 0.12499969E+03</pdfrwt>
<totfact> 0.85131683E+03</totfact>
</mgrwt>
</event>
<event>
 5    1  0.3191162E-002  0.1249988E+03  0.7818608E-02  0.1235071E+00
          4   -1    0    0  501    0  0.00000000000E+00  0.00000000000E+00  0.60744117430E+03  0.60744250192E+03  0.12700000000E+01 0.  1.
         -4   -1    0    0    0  501 -0.00000000000E+00 -0.00000000000E+00 -0.63664844348E+01  0.64919199054E+01  0.12700000000E+01 0.  1.
         25    2    1    2    0    0  0.00000000000E+00  0.00000000000E+00  0.60107468987E+03  0.61393442182E+03  0.12499876600E+03 0.  0.
    9000005    1    3    3    0    0  0.20579166707E+02  0.56702511792E+02  0.38071651347E+03  0.38546691242E+03  0.10000000000E+01 0.  0.
    9000005    1    3    3    0    0 -0.20579166707E+02 -0.56702511792E+02  0.22035817640E+03  0.22846750940E+03  0.10000000000E+01 0.  0.
<mgrwt>
<rscale>  0 0.12499877E+03</rscale>
<asrwt>0</asrwt>
<pdfrwt beam="1">  1        4 0.93462222E-01 0.12499877E+03</pdfrwt>
<pdfrwt beam="2">  1       -4 0.98921033E-03 0.12499877E+03</pdfrwt>
<totfact> 0.48000984E+03</totfact>
</mgrwt>
</event>
<event>
 5    1  0.3191162E-002  0.1250014E+03  0.7818608E-02  0.1235067E+00
         -4   -1    0    0    0  501 -0.00000000000E+00  0.00000000000E+00  0.74467948786E+02  0.74478777490E+02  0.12700000000E+01 0.  1.
          4   -1    0    0  501    0  0.00000000000E+00 -0.00000000000E+00 -0.52434258662E+02  0.52449636619E+02  0.12700000000E+01 0.  1.
         25    2    1    2    0    0  0.00000000000E+00  0.00000000000E+00  0.22033690124E+02  0.12692841411E+03  0.12500135522E+03 0.  0.
    9000005    1    3    3    0    0  0.62256300387E+02  0.25050122803E+01  0.61246163637E+01  0.62614957878E+02  0.10000000000E+01 0.  0.
    9000005    1    3    3    0    0 -0.62256300387E+02 -0.25050122803E+01  0.15909073760E+02  0.64313456231E+02  0.10000000000E+01 0.  0.
<mgrwt>
<rscale>  0 0.12500136E+03</rscale>
<asrwt>0</asrwt>
<pdfrwt beam="2">  1        4 0.80688249E-02 0.12500136E+03</pdfrwt>
<pdfrwt beam="1">  1       -4 0.11458623E-01 0.12500136E+03</pdfrwt>
<totfact> 0.10410383E+04</totfact>
</mgrwt>
</event>
<event>
 5    1  0.3191162E-002  0.1249990E+03  0.7818608E-02  0.1235071E+00
          4   -1    0    0  501    0  0.00000000000E+00  0.00000000000E+00  0.12822824730E+03  0.12823453632E+03  0.12700000000E+01 0. -1.
         -4   -1    0    0    0  501 -0.00000000000E+00 -0.00000000000E+00 -0.30442491674E+02  0.30468971090E+02  0.12700000000E+01 0. -1.
         25    2    1    2    0    0  0.00000000000E+00  0.00000000000E+00  0.97785755626E+02  0.15870350741E+03  0.12499899704E+03 0.  0.
    9000005    1    3    3    0    0  0.59527965601E+02  0.39088299996E+01  0.25264992776E+02  0.64793344570E+02  0.10000000000E+01 0.  0.
    9000005    1    3    3    0    0 -0.59527965601E+02 -0.39088299996E+01  0.72520762849E+02  0.93910162841E+02  0.10000000000E+01 0.  0.
<mgrwt>
<rscale>  0 0.12499900E+03</rscale>
<asrwt>0</asrwt>
<pdfrwt beam="1">  1        4 0.19729944E-01 0.12499900E+03</pdfrwt>
<pdfrwt beam="2">  1       -4 0.46859809E-02 0.12499900E+03</pdfrwt>
<totfact> 0.97595522E+03</totfact>
</mgrwt>
</event>
<event>
 5    1  0.3191162E-002  0.1250166E+03  0.7818608E-02  0.1235043E+00
         -4   -1    0    0    0  501 -0.00000000000E+00  0.00000000000E+00  0.46322062887E+03  0.46322236983E+03  0.12700000000E+01 0.  1.
          4   -1    0    0  501    0  0.00000000000E+00 -0.00000000000E+00 -0.83854701133E+01  0.84810971590E+01  0.12700000000E+01 0.  1.
         25    2    1    2    0    0  0.00000000000E+00  0.00000000000E+00  0.45483515875E+03  0.47170346699E+03  0.12501655542E+03 0.  0.
    9000005    1    3    3    0    0  0.20010716334E+02 -0.55737008469E+02  0.15202656323E+03  0.16315673081E+03  0.10000000000E+01 0.  0.
    9000005    1    3    3    0    0 -0.20010716334E+02  0.55737008469E+02  0.30280859552E+03  0.30854673618E+03  0.10000000000E+01 0.  0.
<mgrwt>
<rscale>  0 0.12501656E+03</rscale>
<asrwt>0</asrwt>
<pdfrwt beam="2">  1        4 0.12975621E-02 0.12501656E+03</pdfrwt>
<pdfrwt beam="1">  1       -4 0.71272205E-01 0.12501656E+03</pdfrwt>
<totfact> 0.58107494E+03</totfact>
</mgrwt>
</event>
<event>
 5    1  0.3191162E-002  0.1250029E+03  0.7818608E-02  0.1235065E+00
         -4   -1    0    0    0  501 -0.00000000000E+00  0.00000000000E+00  0.79289134140E+02  0.79299304490E+02  0.12700000000E+01 0. -1.
          4   -1    0    0  501    0  0.00000000000E+00 -0.00000000000E+00 -0.49246661187E+02  0.49263034194E+02  0.12700000000E+01 0. -1.
         25    2    1    2    0    0  0.00000000000E+00  0.00000000000E+00  0.30042472953E+02  0.12856233868E+03  0.12500289895E+03 0.  0.
    9000005    1    3    3    0    0 -0.84550996686E+00  0.39667962561E+02  0.64678246165E+02  0.75885029273E+02  0.10000000000E+01 0.  0.
    9000005    1    3    3    0    0  0.84550996686E+00 -0.39667962561E+02 -0.34635773212E+02  0.52677309411E+02  0.10000000000E+01 0.  0.
<mgrwt>
<rscale>  0 0.12500290E+03</rscale>
<asrwt>0</asrwt>
<pdfrwt beam="2">  1        4 0.75784513E-02 0.12500290E+03</pdfrwt>
<pdfrwt beam="1">  1       -4 0.12200370E-01 0.12500290E+03</pdfrwt>
<totfact> 0.10374682E+04</totfact>
</mgrwt>
</event>
<event>
 5    1  0.3191162E-002  0.1249994E+03  0.7818608E-02  0.1235070E+00
          4   -1    0    0  501    0  0.00000000000E+00  0.00000000000E+00  0.30327690614E+03  0.30327956525E+03  0.12700000000E+01 0. -1.
         -4   -1    0    0    0  501 -0.00000000000E+00 -0.00000000000E+00 -0.12845981141E+02  0.12908606876E+02  0.12700000000E+01 0. -1.
         25    2    1    2    0    0  0.00000000000E+00  0.00000000000E+00  0.29043092500E+03  0.31618817213E+03  0.12499935198E+03 0.  0.
    9000005    1    3    3    0    0  0.58352924109E+02 -0.28717527840E+00  0.20178079442E+03  0.21005150610E+03  0.10000000000E+01 0.  0.
    9000005    1    3    3    0    0 -0.58352924109E+02  0.28717527840E+00  0.88650130583E+02  0.10613666602E+03  0.10000000000E+01 0.  0.
<mgrwt>
<rscale>  0 0.12499935E+03</rscale>
<asrwt>0</asrwt>
<pdfrwt beam="1">  1        4 0.46663005E-01 0.12499935E+03</pdfrwt>
<pdfrwt beam="2">  1       -4 0.19813268E-02 0.12499935E+03</pdfrwt>
<totfact> 0.73612855E+03</totfact>
</mgrwt>
</event>
<event>
 5    1  0.3191162E-002  0.1249995E+03  0.7818608E-02  0.1235070E+00
          4   -1    0    0  501    0  0.00000000000E+00  0.00000000000E+00  0.23158711765E+02  0.23193508373E+02  0.12700000000E+01 0. -1.
         -4   -1    0    0    0  501 -0.00000000000E+00 -0.00000000000E+00 -0.16850777688E+03  0.16851256264E+03  0.12700000000E+01 0. -1.
         25    2    1    2    0    0  0.00000000000E+00  0.00000000000E+00 -0.14534906511E+03  0.19170607101E+03  0.12499946774E+03 0.  0.
    9000005    1    3    3    0    0  0.17648735049E+02  0.66217103584E+01 -0.16405118905E+03  0.16513363536E+03  0.10000000000E+01 0.  0.
    9000005    1    3    3    0    0 -0.17648735049E+02 -0.66217103584E+01  0.18702123940E+02  0.26572435658E+02  0.10000000000E+01 0.  0.
<mgrwt>
<rscale>  0 0.12499947E+03</rscale>
<asrwt>0</asrwt>
<pdfrwt beam="1">  1        4 0.35659236E-02 0.12499947E+03</pdfrwt>
<pdfrwt beam="2">  1       -4 0.25927317E-01 0.12499947E+03</pdfrwt>
<totfact> 0.91552400E+03</totfact>
</mgrwt>
</event>
<event>
 5    1  0.3191162E-002  0.1249971E+03  0.7818608E-02  0.1235074E+00
          4   -1    0    0  501    0  0.00000000000E+00  0.00000000000E+00  0.11829919393E+03  0.11830601077E+03  0.12700000000E+01 0.  1.
         -4   -1    0    0    0  501 -0.00000000000E+00 -0.00000000000E+00 -0.32998548612E+02  0.33022978522E+02  0.12700000000E+01 0.  1.
         25    2    1    2    0    0  0.00000000000E+00  0.00000000000E+00  0.85300645316E+02  0.15132898929E+03  0.12499705160E+03 0.  0.
    9000005    1    3    3    0    0 -0.57740422853E+02 -0.13418893905E+02  0.66590887265E+02  0.89159236266E+02  0.10000000000E+01 0.  0.
    9000005    1    3    3    0    0  0.57740422853E+02  0.13418893905E+02  0.18709758052E+02  0.62169753025E+02  0.10000000000E+01 0.  0.
<mgrwt>
<rscale>  0 0.12499705E+03</rscale>
<asrwt>0</asrwt>
<pdfrwt beam="1">  1        4 0.18202279E-01 0.12499705E+03</pdfrwt>
<pdfrwt beam="2">  1       -4 0.50791035E-02 0.12499705E+03</pdfrwt>
<totfact> 0.99046012E+03</totfact>
</mgrwt>
</event>
<event>
 5    1  0.3191162E-002  0.1249622E+03  0.7818608E-02  0.1235128E+00
         -4   -1    0    0    0  501 -0.00000000000E+00  0.00000000000E+00  0.34039874947E+02  0.34063558041E+02  0.12700000000E+01 0. -1.
          4   -1    0    0  501    0  0.00000000000E+00 -0.00000000000E+00 -0.11461856235E+03  0.11462559808E+03  0.12700000000E+01 0. -1.
         25    2    1    2    0    0  0.00000000000E+00  0.00000000000E+00 -0.80578687407E+02  0.14868915613E+03  0.12496215541E+03 0.  0.
    9000005    1    3    3    0    0 -0.19575393869E+02 -0.24786007596E+02 -0.10442499127E+03  0.10910142538E+03  0.10000000000E+01 0.  0.
    9000005    1    3    3    0    0  0.19575393869E+02  0.24786007596E+02  0.23846303864E+02  0.39587730747E+02  0.10000000000E+01 0.  0.
<mgrwt>
<rscale>  0 0.12496216E+03</rscale>
<asrwt>0</asrwt>
<pdfrwt beam="2">  1        4 0.17635988E-01 0.12496216E+03</pdfrwt>
<pdfrwt beam="1">  1       -4 0.52392669E-02 0.12496216E+03</pdfrwt>
<totfact> 0.99650500E+03</totfact>
</mgrwt>
</event>
<event>
 5    1  0.3191162E-002  0.1250011E+03  0.7818608E-02  0.1235068E+00
          4   -1    0    0  501    0  0.00000000000E+00  0.00000000000E+00  0.33961985611E+02  0.33985722982E+02  0.12700000000E+01 0. -1.
         -4   -1    0    0    0  501 -0.00000000000E+00 -0.00000000000E+00 -0.11495295983E+03  0.11495997509E+03  0.12700000000E+01 0. -1.
         25    2    1    2    0    0  0.00000000000E+00  0.00000000000E+00 -0.80990974216E+02  0.14894569807E+03  0.12500113228E+03 0.  0.
    9000005    1    3    3    0    0 -0.42255073884E+02 -0.24477371200E+01  0.14288025652E+02  0.44683669981E+02  0.10000000000E+01 0.  0.
    9000005    1    3    3    0    0  0.42255073884E+02  0.24477371200E+01 -0.95278999868E+02  0.10426202809E+03  0.10000000000E+01 0.  0.
<mgrwt>
<rscale>  0 0.12500113E+03</rscale>
<asrwt>0</asrwt>
<pdfrwt beam="1">  1        4 0.52272865E-02 0.12500113E+03</pdfrwt>
<pdfrwt beam="2">  1       -4 0.17687436E-01 0.12500113E+03</pdfrwt>
<totfact> 0.99511737E+03</totfact>
</mgrwt>
</event>
<event>
 5    1  0.3191162E-002  0.1249984E+03  0.7818608E-02  0.1235072E+00
         -4   -1    0    0    0  501 -0.00000000000E+00  0.00000000000E+00  0.20079939768E+02  0.20120061658E+02  0.12700000000E+01 0. -1.
          4   -1    0    0  501    0  0.00000000000E+00 -0.00000000000E+00 -0.19429376639E+03  0.19429791702E+03  0.12700000000E+01 0. -1.
         25    2    1    2    0    0  0.00000000000E+00  0.00000000000E+00 -0.17421382662E+03  0.21441797867E+03  0.12499844876E+03 0.  0.
    9000005    1    3    3    0    0  0.31377428125E+02  0.12177288258E+02  0.32119666438E+01  0.33825228377E+02  0.10000000000E+01 0.  0.
    9000005    1    3    3    0    0 -0.31377428125E+02 -0.12177288258E+02 -0.17742579326E+03  0.18059275030E+03  0.10000000000E+01 0.  0.
<mgrwt>
<rscale>  0 0.12499845E+03</rscale>
<asrwt>0</asrwt>
<pdfrwt beam="2">  1        4 0.29894753E-01 0.12499845E+03</pdfrwt>
<pdfrwt beam="1">  1       -4 0.30926272E-02 0.12499845E+03</pdfrwt>
<totfact> 0.87762455E+03</totfact>
</mgrwt>
</event>
<event>
 5    1  0.3191162E-002  0.1249999E+03  0.7818608E-02  0.1235069E+00
         -4   -1    0    0    0  501 -0.00000000000E+00  0.00000000000E+00  0.37823724499E+03  0.37823937711E+03  0.12700000000E+01 0. -1.
          4   -1    0    0  501    0  0.00000000000E+00 -0.00000000000E+00 -0.10286276520E+02  0.10364380572E+02  0.12700000000E+01 0. -1.
         25    2    1    2    0    0  0.00000000000E+00  0.00000000000E+00  0.36795096847E+03  0.38860375768E+03  0.12499986115E+03 0.  0.
    9000005    1    3    3    0    0  0.11138542171E+02 -0.60148124962E+02  0.22371231935E+03  0.23192685461E+03  0.10000000000E+01 0.  0.
    9000005    1    3    3    0    0 -0.11138542171E+02  0.60148124962E+02  0.14423864912E+03  0.15667690307E+03  0.10000000000E+01 0.  0.
<mgrwt>
<rscale>  0 0.12499986E+03</rscale>
<asrwt>0</asrwt>
<pdfrwt beam="2">  1        4 0.15886760E-02 0.12499986E+03</pdfrwt>
<pdfrwt beam="1">  1       -4 0.58196522E-01 0.12499986E+03</pdfrwt>
<totfact> 0.65676670E+03</totfact>
</mgrwt>
</event>
<event>
 5    1  0.3191162E-002  0.1250021E+03  0.7818608E-02  0.1235066E+00
          4   -1    0    0  501    0  0.00000000000E+00  0.00000000000E+00  0.78902496969E+02  0.78912717149E+02  0.12700000000E+01 0. -1.
         -4   -1    0    0    0  501 -0.00000000000E+00 -0.00000000000E+00 -0.49487363512E+02  0.49503656909E+02  0.12700000000E+01 0. -1.
         25    2    1    2    0    0  0.00000000000E+00  0.00000000000E+00  0.29415133457E+02  0.12841637406E+03  0.12500206018E+03 0.  0.
    9000005    1    3    3    0    0 -0.35927962726E+02 -0.29102983158E+02 -0.28483343586E+02  0.54314850605E+02  0.10000000000E+01 0.  0.
    9000005    1    3    3    0    0  0.35927962726E+02  0.29102983158E+02  0.57898477042E+02  0.74101523454E+02  0.10000000000E+01 0.  0.
<mgrwt>
<rscale>  0 0.12500206E+03</rscale>
<asrwt>0</asrwt>
<pdfrwt beam="1">  1        4 0.12140885E-01 0.12500206E+03</pdfrwt>
<pdfrwt beam="2">  1       -4 0.76154800E-02 0.12500206E+03</pdfrwt>
<totfact> 0.10378023E+04</totfact>
</mgrwt>
</event>
<event>
 5    1  0.3191162E-002  0.1249952E+03  0.7818608E-02  0.1235077E+00
          4   -1    0    0  501    0  0.00000000000E+00  0.00000000000E+00  0.31910419072E+03  0.31910671794E+03  0.12700000000E+01 0.  1.
         -4   -1    0    0    0  501 -0.00000000000E+00 -0.00000000000E+00 -0.12204839607E+02  0.12270737950E+02  0.12700000000E+01 0.  1.
         25    2    1    2    0    0  0.00000000000E+00  0.00000000000E+00  0.30689935111E+03  0.33137745589E+03  0.12499522615E+03 0.  0.
    9000005    1    3    3    0    0 -0.36647523096E+02 -0.41108335735E+02  0.23173702978E+03  0.23819317200E+03  0.10000000000E+01 0.  0.
    9000005    1    3    3    0    0  0.36647523096E+02  0.41108335735E+02  0.75162321326E+02  0.93184283884E+02  0.10000000000E+01 0.  0.
<mgrwt>
<rscale>  0 0.12499523E+03</rscale>
<asrwt>0</asrwt>
<pdfrwt beam="1">  1        4 0.49098224E-01 0.12499523E+03</pdfrwt>
<pdfrwt beam="2">  1       -4 0.18829308E-02 0.12499523E+03</pdfrwt>
<totfact> 0.71830642E+03</totfact>
</mgrwt>
</event>
<event>
 5    1  0.3191162E-002  0.1249964E+03  0.7818608E-02  0.1235075E+00
         -4   -1    0    0    0  501 -0.00000000000E+00  0.00000000000E+00  0.77331902694E+02  0.77342330417E+02  0.12700000000E+01 0.  1.
          4   -1    0    0  501    0  0.00000000000E+00 -0.00000000000E+00 -0.50488033189E+02  0.50504003755E+02  0.12700000000E+01 0.  1.
         25    2    1    2    0    0  0.00000000000E+00  0.00000000000E+00  0.26843869505E+02  0.12784633417E+03  0.12499636727E+03 0.  0.
    9000005    1    3    3    0    0 -0.54242634329E+01  0.24552598368E+01  0.77046137810E+02  0.77282328420E+02  0.10000000000E+01 0.  0.
    9000005    1    3    3    0    0  0.54242634329E+01 -0.24552598368E+01 -0.50202268305E+02  0.50564005752E+02  0.10000000000E+01 0.  0.
<mgrwt>
<rscale>  0 0.12499637E+03</rscale>
<asrwt>0</asrwt>
<pdfrwt beam="2">  1        4 0.77694204E-02 0.12499637E+03</pdfrwt>
<pdfrwt beam="1">  1       -4 0.11899246E-01 0.12499637E+03</pdfrwt>
<totfact> 0.10391660E+04</totfact>
</mgrwt>
</event>
<event>
 5    1  0.3191162E-002  0.1250013E+03  0.7818608E-02  0.1235067E+00
          4   -1    0    0  501    0  0.00000000000E+00  0.00000000000E+00  0.54719527305E+02  0.54734263204E+02  0.12700000000E+01 0.  1.
         -4   -1    0    0    0  501 -0.00000000000E+00 -0.00000000000E+00 -0.71358229705E+02  0.71369530240E+02  0.12700000000E+01 0.  1.
         25    2    1    2    0    0  0.00000000000E+00  0.00000000000E+00 -0.16638702400E+02  0.12610379344E+03  0.12500128121E+03 0.  0.
    9000005    1    3    3    0    0  0.40077467799E+02 -0.47286381323E+02 -0.30416406119E+00  0.61994336835E+02  0.10000000000E+01 0.  0.
    9000005    1    3    3    0    0 -0.40077467799E+02  0.47286381323E+02 -0.16334538339E+02  0.64109456608E+02  0.10000000000E+01 0.  0.
<mgrwt>
<rscale>  0 0.12500128E+03</rscale>
<asrwt>0</asrwt>
<pdfrwt beam="1">  1        4 0.84203916E-02 0.12500128E+03</pdfrwt>
<pdfrwt beam="2">  1       -4 0.10980192E-01 0.12500128E+03</pdfrwt>
<totfact> 0.10428382E+04</totfact>
</mgrwt>
</event>
<event>
 5    1  0.3191162E-002  0.1250017E+03  0.7818608E-02  0.1235067E+00
          4   -1    0    0  501    0  0.00000000000E+00  0.00000000000E+00  0.12768236416E+03  0.12768868007E+03  0.12700000000E+01 0.  1.
         -4   -1    0    0    0  501 -0.00000000000E+00 -0.00000000000E+00 -0.30574059697E+02  0.30600425264E+02  0.12700000000E+01 0.  1.
         25    2    1    2    0    0  0.00000000000E+00  0.00000000000E+00  0.97108304465E+02  0.15828910533E+03  0.12500167227E+03 0.  0.
    9000005    1    3    3    0    0 -0.47647301642E+02 -0.40419451077E+02  0.50029340052E+02  0.80049561181E+02  0.10000000000E+01 0.  0.
    9000005    1    3    3    0    0  0.47647301642E+02  0.40419451077E+02  0.47078964412E+02  0.78239544153E+02  0.10000000000E+01 0.  0.
<mgrwt>
<rscale>  0 0.12500167E+03</rscale>
<asrwt>0</asrwt>
<pdfrwt beam="1">  1        4 0.19645955E-01 0.12500167E+03</pdfrwt>
<pdfrwt beam="2">  1       -4 0.47062155E-02 0.12500167E+03</pdfrwt>
<totfact> 0.97669977E+03</totfact>
</mgrwt>
</event>
<event>
 5    1  0.3191162E-002  0.1249992E+03  0.7818608E-02  0.1235071E+00
         -4   -1    0    0    0  501 -0.00000000000E+00  0.00000000000E+00  0.12524617602E+02  0.12588842126E+02  0.12700000000E+01 0.  1.
          4   -1    0    0  501    0  0.00000000000E+00 -0.00000000000E+00 -0.31101863707E+03  0.31102122999E+03  0.12700000000E+01 0.  1.
         25    2    1    2    0    0  0.00000000000E+00  0.00000000000E+00 -0.29849401947E+03  0.32361007212E+03  0.12499919647E+03 0.  0.
    9000005    1    3    3    0    0  0.45148388274E+02  0.43119603592E+02 -0.14214634772E+03  0.15525547123E+03  0.10000000000E+01 0.  0.
    9000005    1    3    3    0    0 -0.45148388274E+02 -0.43119603592E+02 -0.15634767175E+03  0.16835460088E+03  0.10000000000E+01 0.  0.
<mgrwt>
<rscale>  0 0.12499920E+03</rscale>
<asrwt>0</asrwt>
<pdfrwt beam="2">  1        4 0.47854155E-01 0.12499920E+03</pdfrwt>
<pdfrwt beam="1">  1       -4 0.19320043E-02 0.12499920E+03</pdfrwt>
<totfact> 0.72730100E+03</totfact>
</mgrwt>
</event>
<event>
 5    1  0.3191162E-002  0.1249763E+03  0.7818608E-02  0.1235106E+00
         -4   -1    0    0    0  501 -0.00000000000E+00  0.00000000000E+00  0.21294803962E+02  0.21332641088E+02  0.12700000000E+01 0. -1.
          4   -1    0    0  501    0  0.00000000000E+00 -0.00000000000E+00 -0.18316449103E+03  0.18316889385E+03  0.12700000000E+01 0. -1.
         25    2    1    2    0    0  0.00000000000E+00  0.00000000000E+00 -0.16186968706E+03  0.20450153493E+03  0.12497632656E+03 0.  0.
    9000005    1    3    3    0    0 -0.29142956649E+02 -0.29037432306E+02 -0.39879148104E+01  0.41344744064E+02  0.10000000000E+01 0.  0.
    9000005    1    3    3    0    0  0.29142956649E+02  0.29037432306E+02 -0.15788177225E+03  0.16315679087E+03  0.10000000000E+01 0.  0.
<mgrwt>
<rscale>  0 0.12497633E+03</rscale>
<asrwt>0</asrwt>
<pdfrwt beam="2">  1        4 0.28182401E-01 0.12497633E+03</pdfrwt>
<pdfrwt beam="1">  1       -4 0.32793730E-02 0.12497633E+03</pdfrwt>
<totfact> 0.89429147E+03</totfact>
</mgrwt>
</event>
<event>
 5    1  0.3191162E-002  0.1249979E+03  0.7818608E-02  0.1235072E+00
          4   -1    0    0  501    0  0.00000000000E+00  0.00000000000E+00  0.70007219081E+02  0.70018737660E+02  0.12700000000E+01 0. -1.
         -4   -1    0    0    0  501 -0.00000000000E+00 -0.00000000000E+00 -0.55772648054E+02  0.55787105777E+02  0.12700000000E+01 0. -1.
         25    2    1    2    0    0  0.00000000000E+00  0.00000000000E+00  0.14234571027E+02  0.12580584344E+03  0.12499794891E+03 0.  0.
    9000005    1    3    3    0    0 -0.46336768102E+02 -0.25230759149E+02  0.40821552598E+02  0.66716463050E+02  0.10000000000E+01 0.  0.
    9000005    1    3    3    0    0  0.46336768102E+02  0.25230759149E+02 -0.26586981571E+02  0.59089380387E+02  0.10000000000E+01 0.  0.
<mgrwt>
<rscale>  0 0.12499795E+03</rscale>
<asrwt>0</asrwt>
<pdfrwt beam="1">  1        4 0.10772339E-01 0.12499795E+03</pdfrwt>
<pdfrwt beam="2">  1       -4 0.85824056E-02 0.12499795E+03</pdfrwt>
<totfact> 0.10435700E+04</totfact>
</mgrwt>
</event>
<event>
 5    1  0.3191162E-002  0.1250007E+03  0.7818608E-02  0.1235068E+00
          4   -1    0    0  501    0  0.00000000000E+00  0.00000000000E+00  0.41561010979E+02  0.41580410455E+02  0.12700000000E+01 0. -1.
         -4   -1    0    0    0  501 -0.00000000000E+00 -0.00000000000E+00 -0.93943725048E+02  0.93952309051E+02  0.12700000000E+01 0. -1.
         25    2    1    2    0    0  0.00000000000E+00  0.00000000000E+00 -0.52382714070E+02  0.13553271951E+03  0.12500067729E+03 0.  0.
    9000005    1    3    3    0    0  0.32344954405E+02 -0.44096478351E+02 -0.58981751237E+02  0.80439682106E+02  0.10000000000E+01 0.  0.
    9000005    1    3    3    0    0 -0.32344954405E+02  0.44096478351E+02  0.65990371672E+01  0.55093037400E+02  0.10000000000E+01 0.  0.
<mgrwt>
<rscale>  0 0.12500068E+03</rscale>
<asrwt>0</asrwt>
<pdfrwt beam="1">  1        4 0.63961543E-02 0.12500068E+03</pdfrwt>
<pdfrwt beam="2">  1       -4 0.14455033E-01 0.12500068E+03</pdfrwt>
<totfact> 0.10226699E+04</totfact>
</mgrwt>
</event>
<event>
 5    1  0.3191162E-002  0.1249997E+03  0.7818608E-02  0.1235070E+00
          4   -1    0    0  501    0  0.00000000000E+00  0.00000000000E+00  0.83374252551E+01  0.84335970905E+01  0.12700000000E+01 0. -1.
         -4   -1    0    0    0  501 -0.00000000000E+00 -0.00000000000E+00 -0.46573382073E+03  0.46573555229E+03  0.12700000000E+01 0. -1.
         25    2    1    2    0    0  0.00000000000E+00  0.00000000000E+00 -0.45739639547E+03  0.47416914938E+03  0.12499967854E+03 0.  0.
    9000005    1    3    3    0    0 -0.11497733113E+02 -0.48784141513E+02 -0.87111740997E+02  0.10050644631E+03  0.10000000000E+01 0.  0.
    9000005    1    3    3    0    0  0.11497733113E+02  0.48784141513E+02 -0.37028465447E+03  0.37366270307E+03  0.10000000000E+01 0.  0.
<mgrwt>
<rscale>  0 0.12499968E+03</rscale>
<asrwt>0</asrwt>
<pdfrwt beam="1">  1        4 0.12902122E-02 0.12499968E+03</pdfrwt>
<pdfrwt beam="2">  1       -4 0.71658868E-01 0.12499968E+03</pdfrwt>
<totfact> 0.57926160E+03</totfact>
</mgrwt>
</event>
<event>
 5    1  0.3191162E-002  0.1250083E+03  0.7818608E-02  0.1235056E+00
         -4   -1    0    0    0  501 -0.00000000000E+00  0.00000000000E+00  0.29597967153E+03  0.29598239620E+03  0.12700000000E+01 0. -1.
          4   -1    0    0  501    0  0.00000000000E+00 -0.00000000000E+00 -0.13166106435E+02  0.13227216587E+02  0.12700000000E+01 0. -1.
         25    2    1    2    0    0  0.00000000000E+00  0.00000000000E+00  0.28281356510E+03  0.30920961279E+03  0.12500828787E+03 0.  0.
    9000005    1    3    3    0    0 -0.73672141155E+01  0.55689276104E+02  0.20915560520E+03  0.21657016993E+03  0.10000000000E+01 0.  0.
    9000005    1    3    3    0    0  0.73672141155E+01 -0.55689276104E+02  0.73657959899E+02  0.92639442859E+02  0.10000000000E+01 0.  0.
<mgrwt>
<rscale>  0 0.12500829E+03</rscale>
<asrwt>0</asrwt>
<pdfrwt beam="2">  1        4 0.20304653E-02 0.12500829E+03</pdfrwt>
<pdfrwt beam="1">  1       -4 0.45540243E-01 0.12500829E+03</pdfrwt>
<totfact> 0.74444246E+03</totfact>
</mgrwt>
</event>
<event>
 5    1  0.3191162E-002  0.1250025E+03  0.7818608E-02  0.1235065E+00
         -4   -1    0    0    0  501 -0.00000000000E+00  0.00000000000E+00  0.48958013370E+03  0.48958178092E+03  0.12700000000E+01 0. -1.
          4   -1    0    0  501    0  0.00000000000E+00 -0.00000000000E+00 -0.79268873649E+01  0.80279787803E+01  0.12700000000E+01 0. -1.
         25    2    1    2    0    0  0.00000000000E+00  0.00000000000E+00  0.48165324633E+03  0.49760975970E+03  0.12500249297E+03 0.  0.
    9000005    1    3    3    0    0 -0.32222538779E+02 -0.42635042505E+02  0.36978035289E+03  0.37362353812E+03  0.10000000000E+01 0.  0.
    9000005    1    3    3    0    0  0.32222538779E+02  0.42635042505E+02  0.11187289344E+03  0.12398622158E+03  0.10000000000E+01 0.  0.
<mgrwt>
<rscale>  0 0.12500249E+03</rscale>
<asrwt>0</asrwt>
<pdfrwt beam="2">  1        4 0.12274239E-02 0.12500249E+03</pdfrwt>
<pdfrwt beam="1">  1       -4 0.75327936E-01 0.12500249E+03</pdfrwt>
<totfact> 0.56047217E+03</totfact>
</mgrwt>
</event>
<event>
 5    1  0.3191162E-002  0.1249849E+03  0.7818608E-02  0.1235093E+00
         -4   -1    0    0    0  501 -0.00000000000E+00  0.00000000000E+00  0.32901726366E+03  0.32901971474E+03  0.12700000000E+01 0.  1.
          4   -1    0    0  501    0  0.00000000000E+00 -0.00000000000E+00 -0.11833135992E+02  0.11901092698E+02  0.12700000000E+01 0.  1.
         25    2    1    2    0    0  0.00000000000E+00  0.00000000000E+00  0.31718412767E+03  0.34092080744E+03  0.12498490348E+03 0.  0.
    9000005    1    3    3    0    0 -0.45203236250E+02  0.11112920917E+02  0.27229075741E+03  0.27624280289E+03  0.10000000000E+01 0.  0.
    9000005    1    3    3    0    0  0.45203236250E+02 -0.11112920917E+02  0.44893370263E+02  0.64678004548E+02  0.10000000000E+01 0.  0.
<mgrwt>
<rscale>  0 0.12498490E+03</rscale>
<asrwt>0</asrwt>
<pdfrwt beam="2">  1        4 0.18258983E-02 0.12498490E+03</pdfrwt>
<pdfrwt beam="1">  1       -4 0.50623459E-01 0.12498490E+03</pdfrwt>
<totfact> 0.70758709E+03</totfact>
</mgrwt>
</event>
<event>
 5    1  0.3191162E-002  0.1250006E+03  0.7818608E-02  0.1235068E+00
         -4   -1    0    0    0  501 -0.00000000000E+00  0.00000000000E+00  0.22580622182E+03  0.22580979322E+03  0.12700000000E+01 0.  1.
          4   -1    0    0  501    0  0.00000000000E+00 -0.00000000000E+00 -0.17272270102E+02  0.17318897611E+02  0.12700000000E+01 0.  1.
         25    2    1    2    0    0  0.00000000000E+00  0.00000000000E+00  0.20853395172E+03  0.24312869083E+03  0.12500060514E+03 0.  0.
    9000005    1    3    3    0    0 -0.86196830520E+01 -0.23986117477E+02 -0.67126580886E+01  0.26375984269E+02  0.10000000000E+01 0.  0.
    9000005    1    3    3    0    0  0.86196830520E+01  0.23986117477E+02  0.21524660981E+03  0.21675270656E+03  0.10000000000E+01 0.  0.
<mgrwt>
<rscale>  0 0.12500061E+03</rscale>
<asrwt>0</asrwt>
<pdfrwt beam="2">  1        4 0.26611337E-02 0.12500061E+03</pdfrwt>
<pdfrwt beam="1">  1       -4 0.34743281E-01 0.12500061E+03</pdfrwt>
<totfact> 0.83332474E+03</totfact>
</mgrwt>
</event>
<event>
 5    1  0.3191162E-002  0.1249831E+03  0.7818608E-02  0.1235096E+00
         -4   -1    0    0    0  501 -0.00000000000E+00  0.00000000000E+00  0.32770439116E+03  0.32770685206E+03  0.12700000000E+01 0. -1.
          4   -1    0    0  501    0  0.00000000000E+00 -0.00000000000E+00 -0.11880472311E+02  0.11948159789E+02  0.12700000000E+01 0. -1.
         25    2    1    2    0    0  0.00000000000E+00  0.00000000000E+00  0.31582391885E+03  0.33965501185E+03  0.12498311628E+03 0.  0.
    9000005    1    3    3    0    0  0.36231058129E+00 -0.21222574437E+02  0.31762002147E+03  0.31833002839E+03  0.10000000000E+01 0.  0.
    9000005    1    3    3    0    0 -0.36231058129E+00  0.21222574437E+02 -0.17961026260E+01  0.21324983454E+02  0.10000000000E+01 0.  0.
<mgrwt>
<rscale>  0 0.12498312E+03</rscale>
<asrwt>0</asrwt>
<pdfrwt beam="2">  1        4 0.18331612E-02 0.12498312E+03</pdfrwt>
<pdfrwt beam="1">  1       -4 0.50421452E-01 0.12498312E+03</pdfrwt>
<totfact> 0.70904333E+03</totfact>
</mgrwt>
</event>
<event>
 5    1  0.3191162E-002  0.1249772E+03  0.7818608E-02  0.1235105E+00
         -4   -1    0    0    0  501 -0.00000000000E+00  0.00000000000E+00  0.18287947262E+03  0.18288388231E+03  0.12700000000E+01 0. -1.
          4   -1    0    0  501    0  0.00000000000E+00 -0.00000000000E+00 -0.21328355125E+02  0.21366132835E+02  0.12700000000E+01 0. -1.
         25    2    1    2    0    0  0.00000000000E+00  0.00000000000E+00  0.16155111750E+03  0.20425001514E+03  0.12497721840E+03 0.  0.
    9000005    1    3    3    0    0  0.54340022623E+02 -0.90818958978E+01  0.12893905458E+03  0.14021982273E+03  0.10000000000E+01 0.  0.
    9000005    1    3    3    0    0 -0.54340022623E+02  0.90818958978E+01  0.32612062920E+02  0.64030192407E+02  0.10000000000E+01 0.  0.
<mgrwt>
<rscale>  0 0.12497722E+03</rscale>
<asrwt>0</asrwt>
<pdfrwt beam="2">  1        4 0.32845305E-02 0.12497722E+03</pdfrwt>
<pdfrwt beam="1">  1       -4 0.28138550E-01 0.12497722E+03</pdfrwt>
<totfact> 0.89469207E+03</totfact>
</mgrwt>
</event>
<event>
 5    1  0.3191162E-002  0.1249988E+03  0.7818608E-02  0.1235071E+00
         -4   -1    0    0    0  501 -0.00000000000E+00  0.00000000000E+00  0.45712587550E+01  0.47443973912E+01  0.12700000000E+01 0. -1.
          4   -1    0    0  501    0  0.00000000000E+00 -0.00000000000E+00 -0.83845232457E+03  0.83845328640E+03  0.12700000000E+01 0. -1.
         25    2    1    2    0    0  0.00000000000E+00  0.00000000000E+00 -0.83388106581E+03  0.84319768379E+03  0.12499880811E+03 0.  0.
    9000005    1    3    3    0    0  0.51390579477E+02 -0.33085830031E+02 -0.50476658714E+03  0.50845449285E+03  0.10000000000E+01 0.  0.
    9000005    1    3    3    0    0 -0.51390579477E+02  0.33085830031E+02 -0.32911447868E+03  0.33474319094E+03  0.10000000000E+01 0.  0.
<mgrwt>
<rscale>  0 0.12499881E+03</rscale>
<asrwt>0</asrwt>
<pdfrwt beam="2">  1        4 0.12900594E+00 0.12499881E+03</pdfrwt>
<pdfrwt beam="1">  1       -4 0.71666359E-03 0.12499881E+03</pdfrwt>
<totfact> 0.36408288E+03</totfact>
</mgrwt>
</event>
<event>
 5    1  0.3191162E-002  0.1250034E+03  0.7818608E-02  0.1235064E+00
         -4   -1    0    0    0  501 -0.00000000000E+00  0.00000000000E+00  0.24287642665E+03  0.24287974704E+03  0.12700000000E+01 0. -1.
          4   -1    0    0  501    0  0.00000000000E+00 -0.00000000000E+00 -0.16055655655E+02  0.16105805739E+02  0.12700000000E+01 0. -1.
         25    2    1    2    0    0  0.00000000000E+00  0.00000000000E+00  0.22682077099E+03  0.25898555278E+03  0.12500341753E+03 0.  0.
    9000005    1    3    3    0    0 -0.37926735757E+01 -0.47491390593E+02  0.29619178141E+02  0.56108041020E+02  0.10000000000E+01 0.  0.
    9000005    1    3    3    0    0  0.37926735757E+01  0.47491390593E+02  0.19720159285E+03  0.20287751176E+03  0.10000000000E+01 0.  0.
<mgrwt>
<rscale>  0 0.12500342E+03</rscale>
<asrwt>0</asrwt>
<pdfrwt beam="2">  1        4 0.24742140E-02 0.12500342E+03</pdfrwt>
<pdfrwt beam="1">  1       -4 0.37369716E-01 0.12500342E+03</pdfrwt>
<totfact> 0.81042469E+03</totfact>
</mgrwt>
</event>
<event>
 5    1  0.3191162E-002  0.1250161E+03  0.7818608E-02  0.1235044E+00
         -4   -1    0    0    0  501 -0.00000000000E+00  0.00000000000E+00  0.88963652126E+02  0.88972716602E+02  0.12700000000E+01 0. -1.
          4   -1    0    0  501    0  0.00000000000E+00 -0.00000000000E+00 -0.43899203279E+02  0.43917569930E+02  0.12700000000E+01 0. -1.
         25    2    1    2    0    0  0.00000000000E+00  0.00000000000E+00  0.45064448847E+02  0.13289028653E+03  0.12501609378E+03 0.  0.
    9000005    1    3    3    0    0  0.26755386734E+02  0.25322925857E+02  0.76201459222E+02  0.84644927083E+02  0.10000000000E+01 0.  0.
    9000005    1    3    3    0    0 -0.26755386734E+02 -0.25322925857E+02 -0.31137010375E+02  0.48245359449E+02  0.10000000000E+01 0.  0.
<mgrwt>
<rscale>  0 0.12501609E+03</rscale>
<asrwt>0</asrwt>
<pdfrwt beam="2">  1        4 0.67558336E-02 0.12501609E+03</pdfrwt>
<pdfrwt beam="1">  1       -4 0.13688826E-01 0.12501609E+03</pdfrwt>
<totfact> 0.10279000E+04</totfact>
</mgrwt>
</event>
<event>
 5    1  0.3191162E-002  0.1250006E+03  0.7818608E-02  0.1235068E+00
         -4   -1    0    0    0  501 -0.00000000000E+00  0.00000000000E+00  0.65204936442E+01  0.66430217043E+01  0.12700000000E+01 0. -1.
          4   -1    0    0  501    0  0.00000000000E+00 -0.00000000000E+00 -0.59337907174E+03  0.59338043082E+03  0.12700000000E+01 0. -1.
         25    2    1    2    0    0  0.00000000000E+00  0.00000000000E+00 -0.58685857810E+03  0.60002345252E+03  0.12500061157E+03 0.  0.
    9000005    1    3    3    0    0 -0.95834457070E+01  0.25265970740E+02 -0.22950517366E+02  0.35467421057E+02  0.10000000000E+01 0.  0.
    9000005    1    3    3    0    0  0.95834457070E+01 -0.25265970740E+02 -0.56390806073E+03  0.56455603147E+03  0.10000000000E+01 0.  0.
<mgrwt>
<rscale>  0 0.12500061E+03</rscale>
<asrwt>0</asrwt>
<pdfrwt beam="2">  1        4 0.91298575E-01 0.12500061E+03</pdfrwt>
<pdfrwt beam="1">  1       -4 0.10126831E-02 0.12500061E+03</pdfrwt>
<totfact> 0.48865491E+03</totfact>
</mgrwt>
</event>
<event>
 5    1  0.3191162E-002  0.1250061E+03  0.7818608E-02  0.1235060E+00
         -4   -1    0    0    0  501 -0.00000000000E+00  0.00000000000E+00  0.59712368835E+02  0.59725872885E+02  0.12700000000E+01 0.  1.
          4   -1    0    0  501    0  0.00000000000E+00 -0.00000000000E+00 -0.65397127867E+02  0.65409458286E+02  0.12700000000E+01 0.  1.
         25    2    1    2    0    0  0.00000000000E+00  0.00000000000E+00 -0.56847590321E+01  0.12513533117E+03  0.12500613834E+03 0.  0.
    9000005    1    3    3    0    0 -0.57992605456E+02 -0.19549329475E+02  0.98322654442E+01  0.61991870550E+02  0.10000000000E+01 0.  0.
    9000005    1    3    3    0    0  0.57992605456E+02  0.19549329475E+02 -0.15517024476E+02  0.63143460621E+02  0.10000000000E+01 0.  0.
<mgrwt>
<rscale>  0 0.12500614E+03</rscale>
<asrwt>0</asrwt>
<pdfrwt beam="2">  1        4 0.10063084E-01 0.12500614E+03</pdfrwt>
<pdfrwt beam="1">  1       -4 0.91885056E-02 0.12500614E+03</pdfrwt>
<totfact> 0.10448474E+04</totfact>
</mgrwt>
</event>
<event>
 5    1  0.3191162E-002  0.1250051E+03  0.7818608E-02  0.1235061E+00
          4   -1    0    0  501    0  0.00000000000E+00  0.00000000000E+00  0.81995710744E+03  0.81995809097E+03  0.12700000000E+01 0. -1.
         -4   -1    0    0    0  501 -0.00000000000E+00 -0.00000000000E+00 -0.46787212373E+01  0.48480235577E+01  0.12700000000E+01 0. -1.
         25    2    1    2    0    0  0.00000000000E+00  0.00000000000E+00  0.81527838621E+03  0.82480611453E+03  0.12500511808E+03 0.  0.
    9000005    1    3    3    0    0  0.99630351053E+01 -0.27687750085E+02  0.77141949207E+03  0.77198115672E+03  0.10000000000E+01 0.  0.
    9000005    1    3    3    0    0 -0.99630351053E+01  0.27687750085E+02  0.43858894132E+02  0.52824957811E+02  0.10000000000E+01 0.  0.
<mgrwt>
<rscale>  0 0.12500512E+03</rscale>
<asrwt>0</asrwt>
<pdfrwt beam="1">  1        4 0.12616038E+00 0.12500512E+03</pdfrwt>
<pdfrwt beam="2">  1       -4 0.73290198E-03 0.12500512E+03</pdfrwt>
<totfact> 0.37176848E+03</totfact>
</mgrwt>
</event>
<event>
 5    1  0.3191162E-002  0.1249969E+03  0.7818608E-02  0.1235074E+00
          4   -1    0    0  501    0  0.00000000000E+00  0.00000000000E+00  0.10052570928E+03  0.10053373129E+03  0.12700000000E+01 0. -1.
         -4   -1    0    0    0  501 -0.00000000000E+00 -0.00000000000E+00 -0.38836315925E+02  0.38857075735E+02  0.12700000000E+01 0. -1.
         25    2    1    2    0    0  0.00000000000E+00  0.00000000000E+00  0.61689393355E+02  0.13939080702E+03  0.12499686328E+03 0.  0.
    9000005    1    3    3    0    0  0.11400670610E+02 -0.36868024058E+02 -0.23966334827E+02  0.45437998342E+02  0.10000000000E+01 0.  0.
    9000005    1    3    3    0    0 -0.11400670610E+02  0.36868024058E+02  0.85655728182E+02  0.93952808679E+02  0.10000000000E+01 0.  0.
<mgrwt>
<rscale>  0 0.12499686E+03</rscale>
<asrwt>0</asrwt>
<pdfrwt beam="1">  1        4 0.15467707E-01 0.12499686E+03</pdfrwt>
<pdfrwt beam="2">  1       -4 0.59770320E-02 0.12499686E+03</pdfrwt>
<totfact> 0.10146944E+04</totfact>
</mgrwt>
</event>
<event>
 5    1  0.3191162E-002  0.1250010E+03  0.7818608E-02  0.1235068E+00
         -4   -1    0    0    0  501 -0.00000000000E+00  0.00000000000E+00  0.15127097217E+03  0.15127630323E+03  0.12700000000E+01 0. -1.
          4   -1    0    0  501    0  0.00000000000E+00 -0.00000000000E+00 -0.25801888131E+02  0.25833124688E+02  0.12700000000E+01 0. -1.
         25    2    1    2    0    0  0.00000000000E+00  0.00000000000E+00  0.12546908404E+03  0.17710942792E+03  0.12500103364E+03 0.  0.
    9000005    1    3    3    0    0  0.61927536133E+02  0.41108608366E+01  0.52381184895E+02  0.81220117209E+02  0.10000000000E+01 0.  0.
    9000005    1    3    3    0    0 -0.61927536133E+02 -0.41108608366E+01  0.73087899141E+02  0.95889310714E+02  0.10000000000E+01 0.  0.
<mgrwt>
<rscale>  0 0.12500103E+03</rscale>
<asrwt>0</asrwt>
<pdfrwt beam="2">  1        4 0.39723342E-02 0.12500103E+03</pdfrwt>
<pdfrwt beam="1">  1       -4 0.23275270E-01 0.12500103E+03</pdfrwt>
<totfact> 0.94137736E+03</totfact>
</mgrwt>
</event>
<event>
 5    1  0.3191162E-002  0.1249995E+03  0.7818608E-02  0.1235070E+00
         -4   -1    0    0    0  501 -0.00000000000E+00  0.00000000000E+00  0.40728329801E+02  0.40748125704E+02  0.12700000000E+01 0. -1.
          4   -1    0    0  501    0  0.00000000000E+00 -0.00000000000E+00 -0.95861900541E+02  0.95870312795E+02  0.12700000000E+01 0. -1.
         25    2    1    2    0    0  0.00000000000E+00  0.00000000000E+00 -0.55133570740E+02  0.13661843850E+03  0.12499954846E+03 0.  0.
    9000005    1    3    3    0    0 -0.38286996770E+02 -0.18802657653E+02 -0.77482342905E+02  0.88453080888E+02  0.10000000000E+01 0.  0.
    9000005    1    3    3    0    0  0.38286996770E+02  0.18802657653E+02  0.22348772165E+02  0.48165357611E+02  0.10000000000E+01 0.  0.
<mgrwt>
<rscale>  0 0.12499955E+03</rscale>
<asrwt>0</asrwt>
<pdfrwt beam="2">  1        4 0.14750154E-01 0.12499955E+03</pdfrwt>
<pdfrwt beam="1">  1       -4 0.62680668E-02 0.12499955E+03</pdfrwt>
<totfact> 0.10204174E+04</totfact>
</mgrwt>
</event>
<event>
 5    1  0.3191162E-002  0.1250033E+03  0.7818608E-02  0.1235064E+00
          4   -1    0    0  501    0  0.00000000000E+00  0.00000000000E+00  0.47228742429E+03  0.47228913183E+03  0.12700000000E+01 0. -1.
         -4   -1    0    0    0  501 -0.00000000000E+00 -0.00000000000E+00 -0.82208655053E+01  0.83183850390E+01  0.12700000000E+01 0. -1.
         25    2    1    2    0    0  0.00000000000E+00  0.00000000000E+00  0.46406655878E+03  0.48060751687E+03  0.12500325710E+03 0.  0.
    9000005    1    3    3    0    0 -0.15145452978E+02  0.25719125569E+02  0.44313109838E+03  0.44413627246E+03  0.10000000000E+01 0.  0.
    9000005    1    3    3    0    0  0.15145452978E+02 -0.25719125569E+02  0.20935460403E+02  0.36471244402E+02  0.10000000000E+01 0.  0.
<mgrwt>
<rscale>  0 0.12500326E+03</rscale>
<asrwt>0</asrwt>
<pdfrwt beam="1">  1        4 0.72667244E-01 0.12500326E+03</pdfrwt>
<pdfrwt beam="2">  1       -4 0.12723813E-02 0.12500326E+03</pdfrwt>
<totfact> 0.57396897E+03</totfact>
</mgrwt>
</event>
<event>
 5    1  0.3191162E-002  0.1249920E+03  0.7818608E-02  0.1235082E+00
          4   -1    0    0  501    0  0.00000000000E+00  0.00000000000E+00  0.37229735182E+02  0.37251390333E+02  0.12700000000E+01 0. -1.
         -4   -1    0    0    0  501 -0.00000000000E+00 -0.00000000000E+00 -0.10485340577E+03  0.10486109670E+03  0.12700000000E+01 0. -1.
         25    2    1    2    0    0  0.00000000000E+00  0.00000000000E+00 -0.67623670591E+02  0.14211248704E+03  0.12499199233E+03 0.  0.
    9000005    1    3    3    0    0 -0.41255952717E+02 -0.32159733027E+02  0.50528044390E+01  0.52562656855E+02  0.10000000000E+01 0.  0.
    9000005    1    3    3    0    0  0.41255952717E+02  0.32159733027E+02 -0.72676475030E+02  0.89549830183E+02  0.10000000000E+01 0.  0.
<mgrwt>
<rscale>  0 0.12499199E+03</rscale>
<asrwt>0</asrwt>
<pdfrwt beam="1">  1        4 0.57299090E-02 0.12499199E+03</pdfrwt>
<pdfrwt beam="2">  1       -4 0.16133550E-01 0.12499199E+03</pdfrwt>
<totfact> 0.10091810E+04</totfact>
</mgrwt>
</event>
<event>
 5    1  0.3191162E-002  0.1250002E+03  0.7818608E-02  0.1235069E+00
         -4   -1    0    0    0  501 -0.00000000000E+00  0.00000000000E+00  0.15238044429E+02  0.15290876300E+02  0.12700000000E+01 0. -1.
          4   -1    0    0  501    0  0.00000000000E+00 -0.00000000000E+00 -0.25585142088E+03  0.25585457289E+03  0.12700000000E+01 0. -1.
         25    2    1    2    0    0  0.00000000000E+00  0.00000000000E+00 -0.24061337645E+03  0.27114544919E+03  0.12500023075E+03 0.  0.
    9000005    1    3    3    0    0 -0.36025935420E+02 -0.25324734443E+02 -0.24125696481E+02  0.50222100993E+02  0.10000000000E+01 0.  0.
    9000005    1    3    3    0    0  0.36025935420E+02  0.25324734443E+02 -0.21648767997E+03  0.22092334819E+03  0.10000000000E+01 0.  0.
<mgrwt>
<rscale>  0 0.12500023E+03</rscale>
<asrwt>0</asrwt>
<pdfrwt beam="2">  1        4 0.39366060E-01 0.12500023E+03</pdfrwt>
<pdfrwt beam="1">  1       -4 0.23486212E-02 0.12500023E+03</pdfrwt>
<totfact> 0.79366553E+03</totfact>
</mgrwt>
</event>
<event>
 5    1  0.3191162E-002  0.1249991E+03  0.7818608E-02  0.1235071E+00
          4   -1    0    0  501    0  0.00000000000E+00  0.00000000000E+00  0.15352486532E+03  0.15353011813E+03  0.12700000000E+01 0. -1.
         -4   -1    0    0    0  501 -0.00000000000E+00 -0.00000000000E+00 -0.25421868461E+02  0.25453571381E+02  0.12700000000E+01 0. -1.
         25    2    1    2    0    0  0.00000000000E+00  0.00000000000E+00  0.12810299686E+03  0.17898368951E+03  0.12499913322E+03 0.  0.
    9000005    1    3    3    0    0 -0.24931947140E+02  0.50666282547E+02  0.10237993580E+03  0.11692444325E+03  0.10000000000E+01 0.  0.
    9000005    1    3    3    0    0  0.24931947140E+02 -0.50666282547E+02  0.25723061058E+02  0.62059246253E+02  0.10000000000E+01 0.  0.
<mgrwt>
<rscale>  0 0.12499913E+03</rscale>
<asrwt>0</asrwt>
<pdfrwt beam="1">  1        4 0.23622053E-01 0.12499913E+03</pdfrwt>
<pdfrwt beam="2">  1       -4 0.39138994E-02 0.12499913E+03</pdfrwt>
<totfact> 0.93802085E+03</totfact>
</mgrwt>
</event>
<event>
 5    1  0.3191162E-002  0.1249985E+03  0.7818608E-02  0.1235072E+00
         -4   -1    0    0    0  501 -0.00000000000E+00  0.00000000000E+00  0.81992379729E+01  0.82970117112E+01  0.12700000000E+01 0. -1.
          4   -1    0    0  501    0  0.00000000000E+00 -0.00000000000E+00 -0.47348273217E+03  0.47348443540E+03  0.12700000000E+01 0. -1.
         25    2    1    2    0    0  0.00000000000E+00  0.00000000000E+00 -0.46528349420E+03  0.48178144711E+03  0.12499853121E+03 0.  0.
    9000005    1    3    3    0    0  0.46099942886E+02  0.20684573955E+02 -0.90915636731E+02  0.10401783182E+03  0.10000000000E+01 0.  0.
    9000005    1    3    3    0    0 -0.46099942886E+02 -0.20684573955E+02 -0.37436785747E+03  0.37776361529E+03  0.10000000000E+01 0.  0.
<mgrwt>
<rscale>  0 0.12499853E+03</rscale>
<asrwt>0</asrwt>
<pdfrwt beam="2">  1        4 0.72851128E-01 0.12499853E+03</pdfrwt>
<pdfrwt beam="1">  1       -4 0.12690737E-02 0.12499853E+03</pdfrwt>
<totfact> 0.57307999E+03</totfact>
</mgrwt>
</event>
<event>
 5    1  0.3191162E-002  0.1249974E+03  0.7818608E-02  0.1235073E+00
         -4   -1    0    0    0  501 -0.00000000000E+00  0.00000000000E+00  0.15938526522E+02  0.15989043990E+02  0.12700000000E+01 0. -1.
          4   -1    0    0  501    0  0.00000000000E+00 -0.00000000000E+00 -0.24463216151E+03  0.24463545807E+03  0.12700000000E+01 0. -1.
         25    2    1    2    0    0  0.00000000000E+00  0.00000000000E+00 -0.22869363499E+03  0.26062450206E+03  0.12499740953E+03 0.  0.
    9000005    1    3    3    0    0 -0.24171462388E+02 -0.47271641558E+02 -0.18306524437E+03  0.19061151955E+03  0.10000000000E+01 0.  0.
    9000005    1    3    3    0    0  0.24171462388E+02  0.47271641558E+02 -0.45628390624E+02  0.70012982514E+02  0.10000000000E+01 0.  0.
<mgrwt>
<rscale>  0 0.12499741E+03</rscale>
<asrwt>0</asrwt>
<pdfrwt beam="2">  1        4 0.37639854E-01 0.12499741E+03</pdfrwt>
<pdfrwt beam="1">  1       -4 0.24562207E-02 0.12499741E+03</pdfrwt>
<totfact> 0.80823162E+03</totfact>
</mgrwt>
</event>
<event>
 5    1  0.3191162E-002  0.1250021E+03  0.7818608E-02  0.1235066E+00
         -4   -1    0    0    0  501 -0.00000000000E+00  0.00000000000E+00  0.41078696287E+01  0.42997084653E+01  0.12700000000E+01 0.  1.
          4   -1    0    0  501    0  0.00000000000E+00 -0.00000000000E+00 -0.92906064407E+03  0.92906151210E+03  0.12700000000E+01 0.  1.
         25    2    1    2    0    0  0.00000000000E+00  0.00000000000E+00 -0.92495277445E+03  0.93336122057E+03  0.12500213239E+03 0.  0.
    9000005    1    3    3    0    0  0.30895703691E+02 -0.27670349390E+02 -0.81151782296E+03  0.81257760843E+03  0.10000000000E+01 0.  0.
    9000005    1    3    3    0    0 -0.30895703691E+02  0.27670349390E+02 -0.11343495149E+03  0.12078361214E+03  0.10000000000E+01 0.  0.
<mgrwt>
<rscale>  0 0.12500213E+03</rscale>
<asrwt>0</asrwt>
<pdfrwt beam="2">  1        4 0.14294707E+00 0.12500213E+03</pdfrwt>
<pdfrwt beam="1">  1       -4 0.64680429E-03 0.12500213E+03</pdfrwt>
<totfact> 0.32912685E+03</totfact>
</mgrwt>
</event>
<event>
 5    1  0.3191162E-002  0.1250040E+03  0.7818608E-02  0.1235063E+00
          4   -1    0    0  501    0  0.00000000000E+00  0.00000000000E+00  0.39521111724E+03  0.39521315779E+03  0.12700000000E+01 0.  1.
         -4   -1    0    0    0  501 -0.00000000000E+00 -0.00000000000E+00 -0.98417183815E+01  0.99233220597E+01  0.12700000000E+01 0.  1.
         25    2    1    2    0    0  0.00000000000E+00  0.00000000000E+00  0.38536939885E+03  0.40513647985E+03  0.12500397485E+03 0.  0.
    9000005    1    3    3    0    0  0.45388207513E+02 -0.12717004975E+01  0.33185080382E+03  0.33494426790E+03  0.10000000000E+01 0.  0.
    9000005    1    3    3    0    0 -0.45388207513E+02  0.12717004975E+01  0.53518595038E+02  0.70192211949E+02  0.10000000000E+01 0.  0.
<mgrwt>
<rscale>  0 0.12500397E+03</rscale>
<asrwt>0</asrwt>
<pdfrwt beam="1">  1        4 0.60808132E-01 0.12500397E+03</pdfrwt>
<pdfrwt beam="2">  1       -4 0.15205450E-02 0.12500397E+03</pdfrwt>
<totfact> 0.64050655E+03</totfact>
</mgrwt>
</event>
