<event>
 4    1  0.2191064E-006  0.1300000E+05  0.7957747E-01  0.1322471E+00
    9000001   -1    0    0    0    0  0.00000000000E+00  0.00000000000E+00  0.64999999231E+04  0.65000000000E+04  0.10000000000E+01 0.  0.
    9000001   -1    0    0    0    0 -0.00000000000E+00 -0.00000000000E+00 -0.64999999231E+04  0.65000000000E+04  0.10000000000E+01 0.  0.
    9000001    1    1    2    0    0  0.58312381083E+04  0.13922689192E+04 -0.25116226590E+04  0.65000000000E+04  0.10000000000E+01 0.  0.
    9000001    1    1    2    0    0 -0.58312381083E+04 -0.13922689192E+04  0.25116226590E+04  0.65000000000E+04  0.10000000000E+01 0.  0.
</event>
<event>
 4    1  0.2191064E-006  0.1300000E+05  0.7957747E-01  0.1322471E+00
    9000001   -1    0    0    0    0  0.00000000000E+00  0.00000000000E+00  0.64999999231E+04  0.65000000000E+04  0.10000000000E+01 0.  0.
    9000001   -1    0    0    0    0 -0.00000000000E+00 -0.00000000000E+00 -0.64999999231E+04  0.65000000000E+04  0.10000000000E+01 0.  0.
    9000001    1    1    2    0    0 -0.32315685025E+04  0.73572316550E+03  0.55915718217E+04  0.65000000000E+04  0.10000000000E+01 0.  0.
    9000001    1    1    2    0    0  0.32315685025E+04 -0.73572316550E+03 -0.55915718217E+04  0.65000000000E+04  0.10000000000E+01 0.  0.
</event>
<event>
 4    1  0.2191064E-006  0.1300000E+05  0.7957747E-01  0.1322471E+00
    9000001   -1    0    0    0    0  0.00000000000E+00  0.00000000000E+00  0.64999999231E+04  0.65000000000E+04  0.10000000000E+01 0.  0.
    9000001   -1    0    0    0    0 -0.00000000000E+00 -0.00000000000E+00 -0.64999999231E+04  0.65000000000E+04  0.10000000000E+01 0.  0.
    9000001    1    1    2    0    0 -0.30347300630E+04 -0.36895327599E+04  0.44076933263E+04  0.65000000000E+04  0.10000000000E+01 0.  0.
    9000001    1    1    2    0    0  0.30347300630E+04  0.36895327599E+04 -0.44076933263E+04  0.65000000000E+04  0.10000000000E+01 0.  0.
</event>
<event>
 4    1  0.2191064E-006  0.1300000E+05  0.7957747E-01  0.1322471E+00
    9000001   -1    0    0    0    0  0.00000000000E+00  0.00000000000E+00  0.64999999231E+04  0.65000000000E+04  0.10000000000E+01 0.  0.
    9000001   -1    0    0    0    0 -0.00000000000E+00 -0.00000000000E+00 -0.64999999231E+04  0.65000000000E+04  0.10000000000E+01 0.  0.
    9000001    1    1    2    0    0 -0.61177721378E+04 -0.17968018877E+04  0.12626820846E+04  0.65000000000E+04  0.10000000000E+01 0.  0.
    9000001    1    1    2    0    0  0.61177721378E+04  0.17968018877E+04 -0.12626820846E+04  0.65000000000E+04  0.10000000000E+01 0.  0.
</event>
<event>
 4    1  0.2191064E-006  0.1300000E+05  0.7957747E-01  0.1322471E+00
    9000001   -1    0    0    0    0  0.00000000000E+00  0.00000000000E+00  0.64999999231E+04  0.65000000000E+04  0.10000000000E+01 0.  0.
    9000001   -1    0    0    0    0 -0.00000000000E+00 -0.00000000000E+00 -0.64999999231E+04  0.65000000000E+04  0.10000000000E+01 0.  0.
    9000001    1    1    2    0    0  0.28524292033E+04  0.57073910275E+04  0.12406991174E+04  0.65000000000E+04  0.10000000000E+01 0.  0.
    9000001    1    1    2    0    0 -0.28524292033E+04 -0.57073910275E+04 -0.12406991174E+04  0.65000000000E+04  0.10000000000E+01 0.  0.
</event>
<event>
 4    1  0.2191064E-006  0.1300000E+05  0.7957747E-01  0.1322471E+00
    9000001   -1    0    0    0    0  0.00000000000E+00  0.00000000000E+00  0.64999999231E+04  0.65000000000E+04  0.10000000000E+01 0.  0.
    9000001   -1    0    0    0    0 -0.00000000000E+00 -0.00000000000E+00 -0.64999999231E+04  0.65000000000E+04  0.10000000000E+01 0.  0.
    9000001    1    1    2    0    0  0.57737875530E+04 -0.20710469975E+04 -0.21503815072E+04  0.65000000000E+04  0.10000000000E+01 0.  0.
    9000001    1    1    2    0    0 -0.57737875530E+04  0.20710469975E+04  0.21503815072E+04  0.65000000000E+04  0.10000000000E+01 0.  0.
</event>
<event>
 4    1  0.2191064E-006  0.1300000E+05  0.7957747E-01  0.1322471E+00
    9000001   -1    0    0    0    0  0.00000000000E+00  0.00000000000E+00  0.64999999231E+04  0.65000000000E+04  0.10000000000E+01 0.  0.
    9000001   -1    0    0    0    0 -0.00000000000E+00 -0.00000000000E+00 -0.64999999231E+04  0.65000000000E+04  0.10000000000E+01 0.  0.
    9000001    1    1    2    0    0 -0.54681529864E+04  0.76830891780E+03 -0.34291403185E+04  0.65000000000E+04  0.10000000000E+01 0.  0.
    9000001    1    1    2    0    0  0.54681529864E+04 -0.76830891780E+03  0.34291403185E+04  0.65000000000E+04  0.10000000000E+01 0.  0.
</event>
<event>
 4    1  0.2191064E-006  0.1300000E+05  0.7957747E-01  0.1322471E+00
    9000001   -1    0    0    0    0  0.00000000000E+00  0.00000000000E+00  0.64999999231E+04  0.65000000000E+04  0.10000000000E+01 0.  0.
    9000001   -1    0    0    0    0 -0.00000000000E+00 -0.00000000000E+00 -0.64999999231E+04  0.65000000000E+04  0.10000000000E+01 0.  0.
    9000001    1    1    2    0    0  0.59215442313E+04  0.22283475149E+04 -0.14898927039E+04  0.65000000000E+04  0.10000000000E+01 0.  0.
    9000001    1    1    2    0    0 -0.59215442313E+04 -0.22283475149E+04  0.14898927039E+04  0.65000000000E+04  0.10000000000E+01 0.  0.
</event>
<event>
 4    1  0.2191064E-006  0.1300000E+05  0.7957747E-01  0.1322471E+00
    9000001   -1    0    0    0    0  0.00000000000E+00  0.00000000000E+00  0.64999999231E+04  0.65000000000E+04  0.10000000000E+01 0.  0.
    9000001   -1    0    0    0    0 -0.00000000000E+00 -0.00000000000E+00 -0.64999999231E+04  0.65000000000E+04  0.10000000000E+01 0.  0.
    9000001    1    1    2    0    0  0.23014929398E+03 -0.11536706784E+04 -0.63926578407E+04  0.65000000000E+04  0.10000000000E+01 0.  0.
    9000001    1    1    2    0    0 -0.23014929398E+03  0.11536706784E+04  0.63926578407E+04  0.65000000000E+04  0.10000000000E+01 0.  0.
</event>
<event>
 4    1  0.2191064E-006  0.1300000E+05  0.7957747E-01  0.1322471E+00
    9000001   -1    0    0    0    0  0.00000000000E+00  0.00000000000E+00  0.64999999231E+04  0.65000000000E+04  0.10000000000E+01 0.  0.
    9000001   -1    0    0    0    0 -0.00000000000E+00 -0.00000000000E+00 -0.64999999231E+04  0.65000000000E+04  0.10000000000E+01 0.  0.
    9000001    1    1    2    0    0 -0.59520866687E+04  0.17201297785E+04 -0.19656593888E+04  0.65000000000E+04  0.10000000000E+01 0.  0.
    9000001    1    1    2    0    0  0.59520866687E+04 -0.17201297785E+04  0.19656593888E+04  0.65000000000E+04  0.10000000000E+01 0.  0.
</event>
<event>
 4    1  0.2191064E-006  0.1300000E+05  0.7957747E-01  0.1322471E+00
    9000001   -1    0    0    0    0  0.00000000000E+00  0.00000000000E+00  0.64999999231E+04  0.65000000000E+04  0.10000000000E+01 0.  0.
    9000001   -1    0    0    0    0 -0.00000000000E+00 -0.00000000000E+00 -0.64999999231E+04  0.65000000000E+04  0.10000000000E+01 0.  0.
    9000001    1    1    2    0    0 -0.63195491923E+04 -0.70508616211E+03  0.13476462854E+04  0.65000000000E+04  0.10000000000E+01 0.  0.
    9000001    1    1    2    0    0  0.63195491923E+04  0.70508616211E+03 -0.13476462854E+04  0.65000000000E+04  0.10000000000E+01 0.  0.
</event>
<event>
 4    1  0.2191064E-006  0.1300000E+05  0.7957747E-01  0.1322471E+00
    9000001   -1    0    0    0    0  0.00000000000E+00  0.00000000000E+00  0.64999999231E+04  0.65000000000E+04  0.10000000000E+01 0.  0.
    9000001   -1    0    0    0    0 -0.00000000000E+00 -0.00000000000E+00 -0.64999999231E+04  0.65000000000E+04  0.10000000000E+01 0.  0.
    9000001    1    1    2    0    0  0.23335474950E+04  0.46375038407E+04  0.39112802528E+04  0.65000000000E+04  0.10000000000E+01 0.  0.
    9000001    1    1    2    0    0 -0.23335474950E+04 -0.46375038407E+04 -0.39112802528E+04  0.65000000000E+04  0.10000000000E+01 0.  0.
</event>
<event>
 4    1  0.2191064E-006  0.1300000E+05  0.7957747E-01  0.1322471E+00
    9000001   -1    0    0    0    0  0.00000000000E+00  0.00000000000E+00  0.64999999231E+04  0.65000000000E+04  0.10000000000E+01 0.  0.
    9000001   -1    0    0    0    0 -0.00000000000E+00 -0.00000000000E+00 -0.64999999231E+04  0.65000000000E+04  0.10000000000E+01 0.  0.
    9000001    1    1    2    0    0 -0.10366761367E+04  0.18696765133E+04  0.61383720418E+04  0.65000000000E+04  0.10000000000E+01 0.  0.
    9000001    1    1    2    0    0  0.10366761367E+04 -0.18696765133E+04 -0.61383720418E+04  0.65000000000E+04  0.10000000000E+01 0.  0.
</event>
<event>
 4    1  0.2191064E-006  0.1300000E+05  0.7957747E-01  0.1322471E+00
    9000001   -1    0    0    0    0  0.00000000000E+00  0.00000000000E+00  0.64999999231E+04  0.65000000000E+04  0.10000000000E+01 0.  0.
    9000001   -1    0    0    0    0 -0.00000000000E+00 -0.00000000000E+00 -0.64999999231E+04  0.65000000000E+04  0.10000000000E+01 0.  0.
    9000001    1    1    2    0    0  0.10618576938E+04 -0.63402797111E+04 -0.96089043280E+03  0.65000000000E+04  0.10000000000E+01 0.  0.
    9000001    1    1    2    0    0 -0.10618576938E+04  0.63402797111E+04  0.96089043280E+03  0.65000000000E+04  0.10000000000E+01 0.  0.
</event>
<event>
 4    1  0.2191064E-006  0.1300000E+05  0.7957747E-01  0.1322471E+00
    9000001   -1    0    0    0    0  0.00000000000E+00  0.00000000000E+00  0.64999999231E+04  0.65000000000E+04  0.10000000000E+01 0.  0.
    9000001   -1    0    0    0    0 -0.00000000000E+00 -0.00000000000E+00 -0.64999999231E+04  0.65000000000E+04  0.10000000000E+01 0.  0.
    9000001    1    1    2    0    0 -0.36135257093E+04 -0.33763436376E+04  0.42181435003E+04  0.65000000000E+04  0.10000000000E+01 0.  0.
    9000001    1    1    2    0    0  0.36135257093E+04  0.33763436376E+04 -0.42181435003E+04  0.65000000000E+04  0.10000000000E+01 0.  0.
</event>
<event>
 4    1  0.2191064E-006  0.1300000E+05  0.7957747E-01  0.1322471E+00
    9000001   -1    0    0    0    0  0.00000000000E+00  0.00000000000E+00  0.64999999231E+04  0.65000000000E+04  0.10000000000E+01 0.  0.
    9000001   -1    0    0    0    0 -0.00000000000E+00 -0.00000000000E+00 -0.64999999231E+04  0.65000000000E+04  0.10000000000E+01 0.  0.
    9000001    1    1    2    0    0  0.19985294550E+04  0.61140929846E+04  0.93474381151E+03  0.65000000000E+04  0.10000000000E+01 0.  0.
    9000001    1    1    2    0    0 -0.19985294550E+04 -0.61140929846E+04 -0.93474381151E+03  0.65000000000E+04  0.10000000000E+01 0.  0.
</event>
<event>
 4    1  0.2191064E-006  0.1300000E+05  0.7957747E-01  0.1322471E+00
    9000001   -1    0    0    0    0  0.00000000000E+00  0.00000000000E+00  0.64999999231E+04  0.65000000000E+04  0.10000000000E+01 0.  0.
    9000001   -1    0    0    0    0 -0.00000000000E+00 -0.00000000000E+00 -0.64999999231E+04  0.65000000000E+04  0.10000000000E+01 0.  0.
    9000001    1    1    2    0    0 -0.80419228784E+03 -0.38912202880E+04  0.51440916044E+04  0.65000000000E+04  0.10000000000E+01 0.  0.
    9000001    1    1    2    0    0  0.80419228784E+03  0.38912202880E+04 -0.51440916044E+04  0.65000000000E+04  0.10000000000E+01 0.  0.
</event>
<event>
 4    1  0.2191064E-006  0.1300000E+05  0.7957747E-01  0.1322471E+00
    9000001   -1    0    0    0    0  0.00000000000E+00  0.00000000000E+00  0.64999999231E+04  0.65000000000E+04  0.10000000000E+01 0.  0.
    9000001   -1    0    0    0    0 -0.00000000000E+00 -0.00000000000E+00 -0.64999999231E+04  0.65000000000E+04  0.10000000000E+01 0.  0.
    9000001    1    1    2    0    0 -0.41161793474E+04  0.44532949686E+04 -0.23399210463E+04  0.65000000000E+04  0.10000000000E+01 0.  0.
    9000001    1    1    2    0    0  0.41161793474E+04 -0.44532949686E+04  0.23399210463E+04  0.65000000000E+04  0.10000000000E+01 0.  0.
</event>
<event>
 4    1  0.2191064E-006  0.1300000E+05  0.7957747E-01  0.1322471E+00
    9000001   -1    0    0    0    0  0.00000000000E+00  0.00000000000E+00  0.64999999231E+04  0.65000000000E+04  0.10000000000E+01 0.  0.
    9000001   -1    0    0    0    0 -0.00000000000E+00 -0.00000000000E+00 -0.64999999231E+04  0.65000000000E+04  0.10000000000E+01 0.  0.
    9000001    1    1    2    0    0 -0.42692199596E+04  0.33630767716E+02  0.49012884947E+04  0.65000000000E+04  0.10000000000E+01 0.  0.
    9000001    1    1    2    0    0  0.42692199596E+04 -0.33630767716E+02 -0.49012884947E+04  0.65000000000E+04  0.10000000000E+01 0.  0.
</event>
<event>
 4    1  0.2191064E-006  0.1300000E+05  0.7957747E-01  0.1322471E+00
    9000001   -1    0    0    0    0  0.00000000000E+00  0.00000000000E+00  0.64999999231E+04  0.65000000000E+04  0.10000000000E+01 0.  0.
    9000001   -1    0    0    0    0 -0.00000000000E+00 -0.00000000000E+00 -0.64999999231E+04  0.65000000000E+04  0.10000000000E+01 0.  0.
    9000001    1    1    2    0    0  0.27750890251E+04 -0.29280410309E+01 -0.58778287938E+04  0.65000000000E+04  0.10000000000E+01 0.  0.
    9000001    1    1    2    0    0 -0.27750890251E+04  0.29280410309E+01  0.58778287938E+04  0.65000000000E+04  0.10000000000E+01 0.  0.
</event>
<event>
 4    1  0.2191064E-006  0.1300000E+05  0.7957747E-01  0.1322471E+00
    9000001   -1    0    0    0    0  0.00000000000E+00  0.00000000000E+00  0.64999999231E+04  0.65000000000E+04  0.10000000000E+01 0.  0.
    9000001   -1    0    0    0    0 -0.00000000000E+00 -0.00000000000E+00 -0.64999999231E+04  0.65000000000E+04  0.10000000000E+01 0.  0.
    9000001    1    1    2    0    0 -0.94634368461E+03 -0.55004410580E+04  0.33316033375E+04  0.65000000000E+04  0.10000000000E+01 0.  0.
    9000001    1    1    2    0    0  0.94634368461E+03  0.55004410580E+04 -0.33316033375E+04  0.65000000000E+04  0.10000000000E+01 0.  0.
</event>
<event>
 4    1  0.2191064E-006  0.1300000E+05  0.7957747E-01  0.1322471E+00
    9000001   -1    0    0    0    0  0.00000000000E+00  0.00000000000E+00  0.64999999231E+04  0.65000000000E+04  0.10000000000E+01 0.  0.
    9000001   -1    0    0    0    0 -0.00000000000E+00 -0.00000000000E+00 -0.64999999231E+04  0.65000000000E+04  0.10000000000E+01 0.  0.
    9000001    1    1    2    0    0  0.74069083871E+03 -0.63695090134E+04  0.10633583638E+04  0.65000000000E+04  0.10000000000E+01 0.  0.
    9000001    1    1    2    0    0 -0.74069083871E+03  0.63695090134E+04 -0.10633583638E+04  0.65000000000E+04  0.10000000000E+01 0.  0.
</event>
<event>
 4    1  0.2191064E-006  0.1300000E+05  0.7957747E-01  0.1322471E+00
    9000001   -1    0    0    0    0  0.00000000000E+00  0.00000000000E+00  0.64999999231E+04  0.65000000000E+04  0.10000000000E+01 0.  0.
    9000001   -1    0    0    0    0 -0.00000000000E+00 -0.00000000000E+00 -0.64999999231E+04  0.65000000000E+04  0.10000000000E+01 0.  0.
    9000001    1    1    2    0    0 -0.90130948830E+03 -0.24058845205E+03 -0.64327099579E+04  0.65000000000E+04  0.10000000000E+01 0.  0.
    9000001    1    1    2    0    0  0.90130948830E+03  0.24058845205E+03  0.64327099579E+04  0.65000000000E+04  0.10000000000E+01 0.  0.
</event>
<event>
 4    1  0.2191064E-006  0.1300000E+05  0.7957747E-01  0.1322471E+00
    9000001   -1    0    0    0    0  0.00000000000E+00  0.00000000000E+00  0.64999999231E+04  0.65000000000E+04  0.10000000000E+01 0.  0.
    9000001   -1    0    0    0    0 -0.00000000000E+00 -0.00000000000E+00 -0.64999999231E+04  0.65000000000E+04  0.10000000000E+01 0.  0.
    9000001    1    1    2    0    0  0.47614253777E+04 -0.39891699738E+04  0.19145104577E+04  0.65000000000E+04  0.10000000000E+01 0.  0.
    9000001    1    1    2    0    0 -0.47614253777E+04  0.39891699738E+04 -0.19145104577E+04  0.65000000000E+04  0.10000000000E+01 0.  0.
</event>
<event>
 4    1  0.2191064E-006  0.1300000E+05  0.7957747E-01  0.1322471E+00
    9000001   -1    0    0    0    0  0.00000000000E+00  0.00000000000E+00  0.64999999231E+04  0.65000000000E+04  0.10000000000E+01 0.  0.
    9000001   -1    0    0    0    0 -0.00000000000E+00 -0.00000000000E+00 -0.64999999231E+04  0.65000000000E+04  0.10000000000E+01 0.  0.
    9000001    1    1    2    0    0 -0.44437669442E+04 -0.47422873997E+04  0.11680995098E+03  0.65000000000E+04  0.10000000000E+01 0.  0.
    9000001    1    1    2    0    0  0.44437669442E+04  0.47422873997E+04 -0.11680995098E+03  0.65000000000E+04  0.10000000000E+01 0.  0.
</event>
<event>
 4    1  0.2191064E-006  0.1300000E+05  0.7957747E-01  0.1322471E+00
    9000001   -1    0    0    0    0  0.00000000000E+00  0.00000000000E+00  0.64999999231E+04  0.65000000000E+04  0.10000000000E+01 0.  0.
    9000001   -1    0    0    0    0 -0.00000000000E+00 -0.00000000000E+00 -0.64999999231E+04  0.65000000000E+04  0.10000000000E+01 0.  0.
    9000001    1    1    2    0    0 -0.15878834783E+04 -0.58625550859E+04 -0.23149671541E+04  0.65000000000E+04  0.10000000000E+01 0.  0.
    9000001    1    1    2    0    0  0.15878834783E+04  0.58625550859E+04  0.23149671541E+04  0.65000000000E+04  0.10000000000E+01 0.  0.
</event>
<event>
 4    1  0.2191064E-006  0.1300000E+05  0.7957747E-01  0.1322471E+00
    9000001   -1    0    0    0    0  0.00000000000E+00  0.00000000000E+00  0.64999999231E+04  0.65000000000E+04  0.10000000000E+01 0.  0.
    9000001   -1    0    0    0    0 -0.00000000000E+00 -0.00000000000E+00 -0.64999999231E+04  0.65000000000E+04  0.10000000000E+01 0.  0.
    9000001    1    1    2    0    0 -0.45380775345E+04 -0.44929065304E+04 -0.12122880020E+04  0.65000000000E+04  0.10000000000E+01 0.  0.
    9000001    1    1    2    0    0  0.45380775345E+04  0.44929065304E+04  0.12122880020E+04  0.65000000000E+04  0.10000000000E+01 0.  0.
</event>
<event>
 4    1  0.2191064E-006  0.1300000E+05  0.7957747E-01  0.1322471E+00
    9000001   -1    0    0    0    0  0.00000000000E+00  0.00000000000E+00  0.64999999231E+04  0.65000000000E+04  0.10000000000E+01 0.  0.
    9000001   -1    0    0    0    0 -0.00000000000E+00 -0.00000000000E+00 -0.64999999231E+04  0.65000000000E+04  0.10000000000E+01 0.  0.
    9000001    1    1    2    0    0  0.53071218626E+04  0.18111117507E+04 -0.32869941835E+04  0.65000000000E+04  0.10000000000E+01 0.  0.
    9000001    1    1    2    0    0 -0.53071218626E+04 -0.18111117507E+04  0.32869941835E+04  0.65000000000E+04  0.10000000000E+01 0.  0.
</event>
<event>
 4    1  0.2191064E-006  0.1300000E+05  0.7957747E-01  0.1322471E+00
    9000001   -1    0    0    0    0  0.00000000000E+00  0.00000000000E+00  0.64999999231E+04  0.65000000000E+04  0.10000000000E+01 0.  0.
    9000001   -1    0    0    0    0 -0.00000000000E+00 -0.00000000000E+00 -0.64999999231E+04  0.65000000000E+04  0.10000000000E+01 0.  0.
    9000001    1    1    2    0    0 -0.82955884113E+03  0.43630414314E+04 -0.47461247979E+04  0.65000000000E+04  0.10000000000E+01 0.  0.
    9000001    1    1    2    0    0  0.82955884113E+03 -0.43630414314E+04  0.47461247979E+04  0.65000000000E+04  0.10000000000E+01 0.  0.
</event>
<event>
 4    1  0.2191064E-006  0.1300000E+05  0.7957747E-01  0.1322471E+00
    9000001   -1    0    0    0    0  0.00000000000E+00  0.00000000000E+00  0.64999999231E+04  0.65000000000E+04  0.10000000000E+01 0.  0.
    9000001   -1    0    0    0    0 -0.00000000000E+00 -0.00000000000E+00 -0.64999999231E+04  0.65000000000E+04  0.10000000000E+01 0.  0.
    9000001    1    1    2    0    0  0.47445084308E+04  0.16149473330E+04 -0.41390317542E+04  0.65000000000E+04  0.10000000000E+01 0.  0.
    9000001    1    1    2    0    0 -0.47445084308E+04 -0.16149473330E+04  0.41390317542E+04  0.65000000000E+04  0.10000000000E+01 0.  0.
</event>
<event>
 4    1  0.2191064E-006  0.1300000E+05  0.7957747E-01  0.1322471E+00
    9000001   -1    0    0    0    0  0.00000000000E+00  0.00000000000E+00  0.64999999231E+04  0.65000000000E+04  0.10000000000E+01 0.  0.
    9000001   -1    0    0    0    0 -0.00000000000E+00 -0.00000000000E+00 -0.64999999231E+04  0.65000000000E+04  0.10000000000E+01 0.  0.
    9000001    1    1    2    0    0 -0.17837307934E+04  0.56345589759E+04  0.27055588338E+04  0.65000000000E+04  0.10000000000E+01 0.  0.
    9000001    1    1    2    0    0  0.17837307934E+04 -0.56345589759E+04 -0.27055588338E+04  0.65000000000E+04  0.10000000000E+01 0.  0.
</event>
<event>
 4    1  0.2191064E-006  0.1300000E+05  0.7957747E-01  0.1322471E+00
    9000001   -1    0    0    0    0  0.00000000000E+00  0.00000000000E+00  0.64999999231E+04  0.65000000000E+04  0.10000000000E+01 0.  0.
    9000001   -1    0    0    0    0 -0.00000000000E+00 -0.00000000000E+00 -0.64999999231E+04  0.65000000000E+04  0.10000000000E+01 0.  0.
    9000001    1    1    2    0    0  0.59839968030E+04  0.17845775704E+04 -0.18047338190E+04  0.65000000000E+04  0.10000000000E+01 0.  0.
    9000001    1    1    2    0    0 -0.59839968030E+04 -0.17845775704E+04  0.18047338190E+04  0.65000000000E+04  0.10000000000E+01 0.  0.
</event>
<event>
 4    1  0.2191064E-006  0.1300000E+05  0.7957747E-01  0.1322471E+00
    9000001   -1    0    0    0    0  0.00000000000E+00  0.00000000000E+00  0.64999999231E+04  0.65000000000E+04  0.10000000000E+01 0.  0.
    9000001   -1    0    0    0    0 -0.00000000000E+00 -0.00000000000E+00 -0.64999999231E+04  0.65000000000E+04  0.10000000000E+01 0.  0.
    9000001    1    1    2    0    0 -0.10403229692E+04 -0.44520040949E+04 -0.46203232202E+04  0.65000000000E+04  0.10000000000E+01 0.  0.
    9000001    1    1    2    0    0  0.10403229692E+04  0.44520040949E+04  0.46203232202E+04  0.65000000000E+04  0.10000000000E+01 0.  0.
</event>
<event>
 4    1  0.2191064E-006  0.1300000E+05  0.7957747E-01  0.1322471E+00
    9000001   -1    0    0    0    0  0.00000000000E+00  0.00000000000E+00  0.64999999231E+04  0.65000000000E+04  0.10000000000E+01 0.  0.
    9000001   -1    0    0    0    0 -0.00000000000E+00 -0.00000000000E+00 -0.64999999231E+04  0.65000000000E+04  0.10000000000E+01 0.  0.
    9000001    1    1    2    0    0 -0.39702936777E+04 -0.54603847957E+03  0.51174807368E+04  0.65000000000E+04  0.10000000000E+01 0.  0.
    9000001    1    1    2    0    0  0.39702936777E+04  0.54603847957E+03 -0.51174807368E+04  0.65000000000E+04  0.10000000000E+01 0.  0.
</event>
<event>
 4    1  0.2191064E-006  0.1300000E+05  0.7957747E-01  0.1322471E+00
    9000001   -1    0    0    0    0  0.00000000000E+00  0.00000000000E+00  0.64999999231E+04  0.65000000000E+04  0.10000000000E+01 0.  0.
    9000001   -1    0    0    0    0 -0.00000000000E+00 -0.00000000000E+00 -0.64999999231E+04  0.65000000000E+04  0.10000000000E+01 0.  0.
    9000001    1    1    2    0    0  0.38946822185E+04 -0.50590890665E+04  0.12194536622E+04  0.65000000000E+04  0.10000000000E+01 0.  0.
    9000001    1    1    2    0    0 -0.38946822185E+04  0.50590890665E+04 -0.12194536622E+04  0.65000000000E+04  0.10000000000E+01 0.  0.
</event>
<event>
 4    1  0.2191064E-006  0.1300000E+05  0.7957747E-01  0.1322471E+00
    9000001   -1    0    0    0    0  0.00000000000E+00  0.00000000000E+00  0.64999999231E+04  0.65000000000E+04  0.10000000000E+01 0.  0.
    9000001   -1    0    0    0    0 -0.00000000000E+00 -0.00000000000E+00 -0.64999999231E+04  0.65000000000E+04  0.10000000000E+01 0.  0.
    9000001    1    1    2    0    0  0.24959690185E+04 -0.58527505266E+04  0.13287019728E+04  0.65000000000E+04  0.10000000000E+01 0.  0.
    9000001    1    1    2    0    0 -0.24959690185E+04  0.58527505266E+04 -0.13287019728E+04  0.65000000000E+04  0.10000000000E+01 0.  0.
</event>
<event>
 4    1  0.2191064E-006  0.1300000E+05  0.7957747E-01  0.1322471E+00
    9000001   -1    0    0    0    0  0.00000000000E+00  0.00000000000E+00  0.64999999231E+04  0.65000000000E+04  0.10000000000E+01 0.  0.
    9000001   -1    0    0    0    0 -0.00000000000E+00 -0.00000000000E+00 -0.64999999231E+04  0.65000000000E+04  0.10000000000E+01 0.  0.
    9000001    1    1    2    0    0  0.40344765903E+04  0.38082532439E+03  0.50821225600E+04  0.65000000000E+04  0.10000000000E+01 0.  0.
    9000001    1    1    2    0    0 -0.40344765903E+04 -0.38082532439E+03 -0.50821225600E+04  0.65000000000E+04  0.10000000000E+01 0.  0.
</event>
<event>
 4    1  0.2191064E-006  0.1300000E+05  0.7957747E-01  0.1322471E+00
    9000001   -1    0    0    0    0  0.00000000000E+00  0.00000000000E+00  0.64999999231E+04  0.65000000000E+04  0.10000000000E+01 0.  0.
    9000001   -1    0    0    0    0 -0.00000000000E+00 -0.00000000000E+00 -0.64999999231E+04  0.65000000000E+04  0.10000000000E+01 0.  0.
    9000001    1    1    2    0    0  0.38917912445E+04 -0.12426784790E+04 -0.50556611939E+04  0.65000000000E+04  0.10000000000E+01 0.  0.
    9000001    1    1    2    0    0 -0.38917912445E+04  0.12426784790E+04  0.50556611939E+04  0.65000000000E+04  0.10000000000E+01 0.  0.
</event>
<event>
 4    1  0.2191064E-006  0.1300000E+05  0.7957747E-01  0.1322471E+00
    9000001   -1    0    0    0    0  0.00000000000E+00  0.00000000000E+00  0.64999999231E+04  0.65000000000E+04  0.10000000000E+01 0.  0.
    9000001   -1    0    0    0    0 -0.00000000000E+00 -0.00000000000E+00 -0.64999999231E+04  0.65000000000E+04  0.10000000000E+01 0.  0.
    9000001    1    1    2    0    0  0.28994548896E+04 -0.82692146903E+03 -0.57584165555E+04  0.65000000000E+04  0.10000000000E+01 0.  0.
    9000001    1    1    2    0    0 -0.28994548896E+04  0.82692146903E+03  0.57584165555E+04  0.65000000000E+04  0.10000000000E+01 0.  0.
</event>
<event>
 4    1  0.2191064E-006  0.1300000E+05  0.7957747E-01  0.1322471E+00
    9000001   -1    0    0    0    0  0.00000000000E+00  0.00000000000E+00  0.64999999231E+04  0.65000000000E+04  0.10000000000E+01 0.  0.
    9000001   -1    0    0    0    0 -0.00000000000E+00 -0.00000000000E+00 -0.64999999231E+04  0.65000000000E+04  0.10000000000E+01 0.  0.
    9000001    1    1    2    0    0  0.46625506663E+04  0.44212014153E+04 -0.98163044411E+03  0.65000000000E+04  0.10000000000E+01 0.  0.
    9000001    1    1    2    0    0 -0.46625506663E+04 -0.44212014153E+04  0.98163044411E+03  0.65000000000E+04  0.10000000000E+01 0.  0.
</event>
<event>
 4    1  0.2191064E-006  0.1300000E+05  0.7957747E-01  0.1322471E+00
    9000001   -1    0    0    0    0  0.00000000000E+00  0.00000000000E+00  0.64999999231E+04  0.65000000000E+04  0.10000000000E+01 0.  0.
    9000001   -1    0    0    0    0 -0.00000000000E+00 -0.00000000000E+00 -0.64999999231E+04  0.65000000000E+04  0.10000000000E+01 0.  0.
    9000001    1    1    2    0    0 -0.15817356929E+04  0.42177906778E+04  0.46859740712E+04  0.65000000000E+04  0.10000000000E+01 0.  0.
    9000001    1    1    2    0    0  0.15817356929E+04 -0.42177906778E+04 -0.46859740712E+04  0.65000000000E+04  0.10000000000E+01 0.  0.
</event>
<event>
 4    1  0.2191064E-006  0.1300000E+05  0.7957747E-01  0.1322471E+00
    9000001   -1    0    0    0    0  0.00000000000E+00  0.00000000000E+00  0.64999999231E+04  0.65000000000E+04  0.10000000000E+01 0.  0.
    9000001   -1    0    0    0    0 -0.00000000000E+00 -0.00000000000E+00 -0.64999999231E+04  0.65000000000E+04  0.10000000000E+01 0.  0.
    9000001    1    1    2    0    0  0.55006581639E+04 -0.30534109839E+04 -0.16338421364E+04  0.65000000000E+04  0.10000000000E+01 0.  0.
    9000001    1    1    2    0    0 -0.55006581639E+04  0.30534109839E+04  0.16338421364E+04  0.65000000000E+04  0.10000000000E+01 0.  0.
</event>
<event>
 4    1  0.2191064E-006  0.1300000E+05  0.7957747E-01  0.1322471E+00
    9000001   -1    0    0    0    0  0.00000000000E+00  0.00000000000E+00  0.64999999231E+04  0.65000000000E+04  0.10000000000E+01 0.  0.
    9000001   -1    0    0    0    0 -0.00000000000E+00 -0.00000000000E+00 -0.64999999231E+04  0.65000000000E+04  0.10000000000E+01 0.  0.
    9000001    1    1    2    0    0 -0.60460463092E+04 -0.20344063842E+04 -0.12476031786E+04  0.65000000000E+04  0.10000000000E+01 0.  0.
    9000001    1    1    2    0    0  0.60460463092E+04  0.20344063842E+04  0.12476031786E+04  0.65000000000E+04  0.10000000000E+01 0.  0.
</event>
<event>
 4    1  0.2191064E-006  0.1300000E+05  0.7957747E-01  0.1322471E+00
    9000001   -1    0    0    0    0  0.00000000000E+00  0.00000000000E+00  0.64999999231E+04  0.65000000000E+04  0.10000000000E+01 0.  0.
    9000001   -1    0    0    0    0 -0.00000000000E+00 -0.00000000000E+00 -0.64999999231E+04  0.65000000000E+04  0.10000000000E+01 0.  0.
    9000001    1    1    2    0    0  0.61839367115E+04 -0.19142053884E+04 -0.58714860076E+03  0.65000000000E+04  0.10000000000E+01 0.  0.
    9000001    1    1    2    0    0 -0.61839367115E+04  0.19142053884E+04  0.58714860076E+03  0.65000000000E+04  0.10000000000E+01 0.  0.
</event>
<event>
 4    1  0.2191064E-006  0.1300000E+05  0.7957747E-01  0.1322471E+00
    9000001   -1    0    0    0    0  0.00000000000E+00  0.00000000000E+00  0.64999999231E+04  0.65000000000E+04  0.10000000000E+01 0.  0.
    9000001   -1    0    0    0    0 -0.00000000000E+00 -0.00000000000E+00 -0.64999999231E+04  0.65000000000E+04  0.10000000000E+01 0.  0.
    9000001    1    1    2    0    0 -0.28572151717E+04  0.75667664897E+03 -0.57891070910E+04  0.65000000000E+04  0.10000000000E+01 0.  0.
    9000001    1    1    2    0    0  0.28572151717E+04 -0.75667664897E+03  0.57891070910E+04  0.65000000000E+04  0.10000000000E+01 0.  0.
</event>
<event>
 4    1  0.2191064E-006  0.1300000E+05  0.7957747E-01  0.1322471E+00
    9000001   -1    0    0    0    0  0.00000000000E+00  0.00000000000E+00  0.64999999231E+04  0.65000000000E+04  0.10000000000E+01 0.  0.
    9000001   -1    0    0    0    0 -0.00000000000E+00 -0.00000000000E+00 -0.64999999231E+04  0.65000000000E+04  0.10000000000E+01 0.  0.
    9000001    1    1    2    0    0 -0.35985002612E+03 -0.26741962506E+04  0.59134745600E+04  0.65000000000E+04  0.10000000000E+01 0.  0.
    9000001    1    1    2    0    0  0.35985002612E+03  0.26741962506E+04 -0.59134745600E+04  0.65000000000E+04  0.10000000000E+01 0.  0.
</event>
<event>
 4    1  0.2191064E-006  0.1300000E+05  0.7957747E-01  0.1322471E+00
    9000001   -1    0    0    0    0  0.00000000000E+00  0.00000000000E+00  0.64999999231E+04  0.65000000000E+04  0.10000000000E+01 0.  0.
    9000001   -1    0    0    0    0 -0.00000000000E+00 -0.00000000000E+00 -0.64999999231E+04  0.65000000000E+04  0.10000000000E+01 0.  0.
    9000001    1    1    2    0    0  0.29550014917E+04 -0.43076595310E+04 -0.38680789222E+04  0.65000000000E+04  0.10000000000E+01 0.  0.
    9000001    1    1    2    0    0 -0.29550014917E+04  0.43076595310E+04  0.38680789222E+04  0.65000000000E+04  0.10000000000E+01 0.  0.
</event>
<event>
 4    1  0.2191064E-006  0.1300000E+05  0.7957747E-01  0.1322471E+00
    9000001   -1    0    0    0    0  0.00000000000E+00  0.00000000000E+00  0.64999999231E+04  0.65000000000E+04  0.10000000000E+01 0.  0.
    9000001   -1    0    0    0    0 -0.00000000000E+00 -0.00000000000E+00 -0.64999999231E+04  0.65000000000E+04  0.10000000000E+01 0.  0.
    9000001    1    1    2    0    0 -0.56194925704E+03 -0.19972554914E+04  0.61599661147E+04  0.65000000000E+04  0.10000000000E+01 0.  0.
    9000001    1    1    2    0    0  0.56194925704E+03  0.19972554914E+04 -0.61599661147E+04  0.65000000000E+04  0.10000000000E+01 0.  0.
</event>
<event>
 4    1  0.2191064E-006  0.1300000E+05  0.7957747E-01  0.1322471E+00
    9000001   -1    0    0    0    0  0.00000000000E+00  0.00000000000E+00  0.64999999231E+04  0.65000000000E+04  0.10000000000E+01 0.  0.
    9000001   -1    0    0    0    0 -0.00000000000E+00 -0.00000000000E+00 -0.64999999231E+04  0.65000000000E+04  0.10000000000E+01 0.  0.
    9000001    1    1    2    0    0  0.54384794243E+04  0.30488167302E+04  0.18378403350E+04  0.65000000000E+04  0.10000000000E+01 0.  0.
    9000001    1    1    2    0    0 -0.54384794243E+04 -0.30488167302E+04 -0.18378403350E+04  0.65000000000E+04  0.10000000000E+01 0.  0.
</event>
<event>
 4    1  0.2191064E-006  0.1300000E+05  0.7957747E-01  0.1322471E+00
    9000001   -1    0    0    0    0  0.00000000000E+00  0.00000000000E+00  0.64999999231E+04  0.65000000000E+04  0.10000000000E+01 0.  0.
    9000001   -1    0    0    0    0 -0.00000000000E+00 -0.00000000000E+00 -0.64999999231E+04  0.65000000000E+04  0.10000000000E+01 0.  0.
    9000001    1    1    2    0    0  0.56869139250E+04  0.24763911550E+04  0.19433208323E+04  0.65000000000E+04  0.10000000000E+01 0.  0.
    9000001    1    1    2    0    0 -0.56869139250E+04 -0.24763911550E+04 -0.19433208323E+04  0.65000000000E+04  0.10000000000E+01 0.  0.
</event>
<event>
 4    1  0.2191064E-006  0.1300000E+05  0.7957747E-01  0.1322471E+00
    9000001   -1    0    0    0    0  0.00000000000E+00  0.00000000000E+00  0.64999999231E+04  0.65000000000E+04  0.10000000000E+01 0.  0.
    9000001   -1    0    0    0    0 -0.00000000000E+00 -0.00000000000E+00 -0.64999999231E+04  0.65000000000E+04  0.10000000000E+01 0.  0.
    9000001    1    1    2    0    0 -0.52263956140E+04 -0.32585062106E+04 -0.20777211461E+04  0.65000000000E+04  0.10000000000E+01 0.  0.
    9000001    1    1    2    0    0  0.52263956140E+04  0.32585062106E+04  0.20777211461E+04  0.65000000000E+04  0.10000000000E+01 0.  0.
</event>
<event>
 4    1  0.2191064E-006  0.1300000E+05  0.7957747E-01  0.1322471E+00
    9000001   -1    0    0    0    0  0.00000000000E+00  0.00000000000E+00  0.64999999231E+04  0.65000000000E+04  0.10000000000E+01 0.  0.
    9000001   -1    0    0    0    0 -0.00000000000E+00 -0.00000000000E+00 -0.64999999231E+04  0.65000000000E+04  0.10000000000E+01 0.  0.
    9000001    1    1    2    0    0  0.34382732168E+04  0.12606167404E+04 -0.53702068601E+04  0.65000000000E+04  0.10000000000E+01 0.  0.
    9000001    1    1    2    0    0 -0.34382732168E+04 -0.12606167404E+04  0.53702068601E+04  0.65000000000E+04  0.10000000000E+01 0.  0.
</event>
<event>
 4    1  0.2191064E-006  0.1300000E+05  0.7957747E-01  0.1322471E+00
    9000001   -1    0    0    0    0  0.00000000000E+00  0.00000000000E+00  0.64999999231E+04  0.65000000000E+04  0.10000000000E+01 0.  0.
    9000001   -1    0    0    0    0 -0.00000000000E+00 -0.00000000000E+00 -0.64999999231E+04  0.65000000000E+04  0.10000000000E+01 0.  0.
    9000001    1    1    2    0    0 -0.33659803368E+04  0.90576658813E+03  0.54863250232E+04  0.65000000000E+04  0.10000000000E+01 0.  0.
    9000001    1    1    2    0    0  0.33659803368E+04 -0.90576658813E+03 -0.54863250232E+04  0.65000000000E+04  0.10000000000E+01 0.  0.
</event>
<event>
 4    1  0.2191064E-006  0.1300000E+05  0.7957747E-01  0.1322471E+00
    9000001   -1    0    0    0    0  0.00000000000E+00  0.00000000000E+00  0.64999999231E+04  0.65000000000E+04  0.10000000000E+01 0.  0.
    9000001   -1    0    0    0    0 -0.00000000000E+00 -0.00000000000E+00 -0.64999999231E+04  0.65000000000E+04  0.10000000000E+01 0.  0.
    9000001    1    1    2    0    0 -0.34413378597E+04 -0.27416144983E+04  0.47844271003E+04  0.65000000000E+04  0.10000000000E+01 0.  0.
    9000001    1    1    2    0    0  0.34413378597E+04  0.27416144983E+04 -0.47844271003E+04  0.65000000000E+04  0.10000000000E+01 0.  0.
</event>
<event>
 4    1  0.2191064E-006  0.1300000E+05  0.7957747E-01  0.1322471E+00
    9000001   -1    0    0    0    0  0.00000000000E+00  0.00000000000E+00  0.64999999231E+04  0.65000000000E+04  0.10000000000E+01 0.  0.
    9000001   -1    0    0    0    0 -0.00000000000E+00 -0.00000000000E+00 -0.64999999231E+04  0.65000000000E+04  0.10000000000E+01 0.  0.
    9000001    1    1    2    0    0 -0.61420094116E+03 -0.23118761398E+04  0.60438385913E+04  0.65000000000E+04  0.10000000000E+01 0.  0.
    9000001    1    1    2    0    0  0.61420094116E+03  0.23118761398E+04 -0.60438385913E+04  0.65000000000E+04  0.10000000000E+01 0.  0.
</event>
<event>
 4    1  0.2191064E-006  0.1300000E+05  0.7957747E-01  0.1322471E+00
    9000001   -1    0    0    0    0  0.00000000000E+00  0.00000000000E+00  0.64999999231E+04  0.65000000000E+04  0.10000000000E+01 0.  0.
    9000001   -1    0    0    0    0 -0.00000000000E+00 -0.00000000000E+00 -0.64999999231E+04  0.65000000000E+04  0.10000000000E+01 0.  0.
    9000001    1    1    2    0    0 -0.57702866197E+03 -0.36853099164E+04 -0.53231125992E+04  0.65000000000E+04  0.10000000000E+01 0.  0.
    9000001    1    1    2    0    0  0.57702866197E+03  0.36853099164E+04  0.53231125992E+04  0.65000000000E+04  0.10000000000E+01 0.  0.
</event>
<event>
 4    1  0.2191064E-006  0.1300000E+05  0.7957747E-01  0.1322471E+00
    9000001   -1    0    0    0    0  0.00000000000E+00  0.00000000000E+00  0.64999999231E+04  0.65000000000E+04  0.10000000000E+01 0.  0.
    9000001   -1    0    0    0    0 -0.00000000000E+00 -0.00000000000E+00 -0.64999999231E+04  0.65000000000E+04  0.10000000000E+01 0.  0.
    9000001    1    1    2    0    0  0.41241575913E+04 -0.13484888277E+04  0.48397211742E+04  0.65000000000E+04  0.10000000000E+01 0.  0.
    9000001    1    1    2    0    0 -0.41241575913E+04  0.13484888277E+04 -0.48397211742E+04  0.65000000000E+04  0.10000000000E+01 0.  0.
</event>
<event>
 4    1  0.2191064E-006  0.1300000E+05  0.7957747E-01  0.1322471E+00
    9000001   -1    0    0    0    0  0.00000000000E+00  0.00000000000E+00  0.64999999231E+04  0.65000000000E+04  0.10000000000E+01 0.  0.
    9000001   -1    0    0    0    0 -0.00000000000E+00 -0.00000000000E+00 -0.64999999231E+04  0.65000000000E+04  0.10000000000E+01 0.  0.
    9000001    1    1    2    0    0 -0.25079156622E+04  0.59090372172E+04  0.10215856290E+04  0.65000000000E+04  0.10000000000E+01 0.  0.
    9000001    1    1    2    0    0  0.25079156622E+04 -0.59090372172E+04 -0.10215856290E+04  0.65000000000E+04  0.10000000000E+01 0.  0.
</event>
<event>
 4    1  0.2191064E-006  0.1300000E+05  0.7957747E-01  0.1322471E+00
    9000001   -1    0    0    0    0  0.00000000000E+00  0.00000000000E+00  0.64999999231E+04  0.65000000000E+04  0.10000000000E+01 0.  0.
    9000001   -1    0    0    0    0 -0.00000000000E+00 -0.00000000000E+00 -0.64999999231E+04  0.65000000000E+04  0.10000000000E+01 0.  0.
    9000001    1    1    2    0    0  0.45123120348E+04 -0.10437416044E+04 -0.45606625137E+04  0.65000000000E+04  0.10000000000E+01 0.  0.
    9000001    1    1    2    0    0 -0.45123120348E+04  0.10437416044E+04  0.45606625137E+04  0.65000000000E+04  0.10000000000E+01 0.  0.
</event>
<event>
 4    1  0.2191064E-006  0.1300000E+05  0.7957747E-01  0.1322471E+00
    9000001   -1    0    0    0    0  0.00000000000E+00  0.00000000000E+00  0.64999999231E+04  0.65000000000E+04  0.10000000000E+01 0.  0.
    9000001   -1    0    0    0    0 -0.00000000000E+00 -0.00000000000E+00 -0.64999999231E+04  0.65000000000E+04  0.10000000000E+01 0.  0.
    9000001    1    1    2    0    0  0.60438374868E+04  0.22036787492E+04 -0.93049847024E+03  0.65000000000E+04  0.10000000000E+01 0.  0.
    9000001    1    1    2    0    0 -0.60438374868E+04 -0.22036787492E+04  0.93049847024E+03  0.65000000000E+04  0.10000000000E+01 0.  0.
</event>
<event>
 4    1  0.2191064E-006  0.1300000E+05  0.7957747E-01  0.1322471E+00
    9000001   -1    0    0    0    0  0.00000000000E+00  0.00000000000E+00  0.64999999231E+04  0.65000000000E+04  0.10000000000E+01 0.  0.
    9000001   -1    0    0    0    0 -0.00000000000E+00 -0.00000000000E+00 -0.64999999231E+04  0.65000000000E+04  0.10000000000E+01 0.  0.
    9000001    1    1    2    0    0  0.32967600998E+04 -0.45671193041E+04 -0.32438854953E+04  0.65000000000E+04  0.10000000000E+01 0.  0.
    9000001    1    1    2    0    0 -0.32967600998E+04  0.45671193041E+04  0.32438854953E+04  0.65000000000E+04  0.10000000000E+01 0.  0.
</event>
<event>
 4    1  0.2191064E-006  0.1300000E+05  0.7957747E-01  0.1322471E+00
    9000001   -1    0    0    0    0  0.00000000000E+00  0.00000000000E+00  0.64999999231E+04  0.65000000000E+04  0.10000000000E+01 0.  0.
    9000001   -1    0    0    0    0 -0.00000000000E+00 -0.00000000000E+00 -0.64999999231E+04  0.65000000000E+04  0.10000000000E+01 0.  0.
    9000001    1    1    2    0    0 -0.38836923275E+04 -0.50257226072E+04 -0.13816820115E+04  0.65000000000E+04  0.10000000000E+01 0.  0.
    9000001    1    1    2    0    0  0.38836923275E+04  0.50257226072E+04  0.13816820115E+04  0.65000000000E+04  0.10000000000E+01 0.  0.
</event>
<event>
 4    1  0.2191064E-006  0.1300000E+05  0.7957747E-01  0.1322471E+00
    9000001   -1    0    0    0    0  0.00000000000E+00  0.00000000000E+00  0.64999999231E+04  0.65000000000E+04  0.10000000000E+01 0.  0.
    9000001   -1    0    0    0    0 -0.00000000000E+00 -0.00000000000E+00 -0.64999999231E+04  0.65000000000E+04  0.10000000000E+01 0.  0.
    9000001    1    1    2    0    0  0.71660091571E+03 -0.62198984742E+04  0.17462374116E+04  0.65000000000E+04  0.10000000000E+01 0.  0.
    9000001    1    1    2    0    0 -0.71660091571E+03  0.62198984742E+04 -0.17462374116E+04  0.65000000000E+04  0.10000000000E+01 0.  0.
</event>
<event>
 4    1  0.2191064E-006  0.1300000E+05  0.7957747E-01  0.1322471E+00
    9000001   -1    0    0    0    0  0.00000000000E+00  0.00000000000E+00  0.64999999231E+04  0.65000000000E+04  0.10000000000E+01 0.  0.
    9000001   -1    0    0    0    0 -0.00000000000E+00 -0.00000000000E+00 -0.64999999231E+04  0.65000000000E+04  0.10000000000E+01 0.  0.
    9000001    1    1    2    0    0  0.25054300785E+04  0.48494884941E+04 -0.35292039424E+04  0.65000000000E+04  0.10000000000E+01 0.  0.
    9000001    1    1    2    0    0 -0.25054300785E+04 -0.48494884941E+04  0.35292039424E+04  0.65000000000E+04  0.10000000000E+01 0.  0.
</event>
<event>
 4    1  0.2191064E-006  0.1300000E+05  0.7957747E-01  0.1322471E+00
    9000001   -1    0    0    0    0  0.00000000000E+00  0.00000000000E+00  0.64999999231E+04  0.65000000000E+04  0.10000000000E+01 0.  0.
    9000001   -1    0    0    0    0 -0.00000000000E+00 -0.00000000000E+00 -0.64999999231E+04  0.65000000000E+04  0.10000000000E+01 0.  0.
    9000001    1    1    2    0    0  0.36890291879E+04  0.44126747070E+04  0.30280958672E+04  0.65000000000E+04  0.10000000000E+01 0.  0.
    9000001    1    1    2    0    0 -0.36890291879E+04 -0.44126747070E+04 -0.30280958672E+04  0.65000000000E+04  0.10000000000E+01 0.  0.
</event>
<event>
 4    1  0.2191064E-006  0.1300000E+05  0.7957747E-01  0.1322471E+00
    9000001   -1    0    0    0    0  0.00000000000E+00  0.00000000000E+00  0.64999999231E+04  0.65000000000E+04  0.10000000000E+01 0.  0.
    9000001   -1    0    0    0    0 -0.00000000000E+00 -0.00000000000E+00 -0.64999999231E+04  0.65000000000E+04  0.10000000000E+01 0.  0.
    9000001    1    1    2    0    0  0.21745850665E+04 -0.16945150838E+04  0.58864078536E+04  0.65000000000E+04  0.10000000000E+01 0.  0.
    9000001    1    1    2    0    0 -0.21745850665E+04  0.16945150838E+04 -0.58864078536E+04  0.65000000000E+04  0.10000000000E+01 0.  0.
</event>
<event>
 4    1  0.2191064E-006  0.1300000E+05  0.7957747E-01  0.1322471E+00
    9000001   -1    0    0    0    0  0.00000000000E+00  0.00000000000E+00  0.64999999231E+04  0.65000000000E+04  0.10000000000E+01 0.  0.
    9000001   -1    0    0    0    0 -0.00000000000E+00 -0.00000000000E+00 -0.64999999231E+04  0.65000000000E+04  0.10000000000E+01 0.  0.
    9000001    1    1    2    0    0  0.41786737372E+04  0.49398229453E+04 -0.62195985946E+03  0.65000000000E+04  0.10000000000E+01 0.  0.
    9000001    1    1    2    0    0 -0.41786737372E+04 -0.49398229453E+04  0.62195985946E+03  0.65000000000E+04  0.10000000000E+01 0.  0.
</event>
<event>
 4    1  0.2191064E-006  0.1300000E+05  0.7957747E-01  0.1322471E+00
    9000001   -1    0    0    0    0  0.00000000000E+00  0.00000000000E+00  0.64999999231E+04  0.65000000000E+04  0.10000000000E+01 0.  0.
    9000001   -1    0    0    0    0 -0.00000000000E+00 -0.00000000000E+00 -0.64999999231E+04  0.65000000000E+04  0.10000000000E+01 0.  0.
    9000001    1    1    2    0    0  0.57783807577E+04  0.24784853224E+04 -0.16484615028E+04  0.65000000000E+04  0.10000000000E+01 0.  0.
    9000001    1    1    2    0    0 -0.57783807577E+04 -0.24784853224E+04  0.16484615028E+04  0.65000000000E+04  0.10000000000E+01 0.  0.
</event>
<event>
 4    1  0.2191064E-006  0.1300000E+05  0.7957747E-01  0.1322471E+00
    9000001   -1    0    0    0    0  0.00000000000E+00  0.00000000000E+00  0.64999999231E+04  0.65000000000E+04  0.10000000000E+01 0.  0.
    9000001   -1    0    0    0    0 -0.00000000000E+00 -0.00000000000E+00 -0.64999999231E+04  0.65000000000E+04  0.10000000000E+01 0.  0.
    9000001    1    1    2    0    0  0.88986804634E+02 -0.64714972493E+04  0.60150120590E+03  0.65000000000E+04  0.10000000000E+01 0.  0.
    9000001    1    1    2    0    0 -0.88986804634E+02  0.64714972493E+04 -0.60150120590E+03  0.65000000000E+04  0.10000000000E+01 0.  0.
</event>
<event>
 4    1  0.2191064E-006  0.1300000E+05  0.7957747E-01  0.1322471E+00
    9000001   -1    0    0    0    0  0.00000000000E+00  0.00000000000E+00  0.64999999231E+04  0.65000000000E+04  0.10000000000E+01 0.  0.
    9000001   -1    0    0    0    0 -0.00000000000E+00 -0.00000000000E+00 -0.64999999231E+04  0.65000000000E+04  0.10000000000E+01 0.  0.
    9000001    1    1    2    0    0  0.24130603075E+03 -0.57758704772E+04 -0.29717150991E+04  0.65000000000E+04  0.10000000000E+01 0.  0.
    9000001    1    1    2    0    0 -0.24130603075E+03  0.57758704772E+04  0.29717150991E+04  0.65000000000E+04  0.10000000000E+01 0.  0.
</event>
<event>
 4    1  0.2191064E-006  0.1300000E+05  0.7957747E-01  0.1322471E+00
    9000001   -1    0    0    0    0  0.00000000000E+00  0.00000000000E+00  0.64999999231E+04  0.65000000000E+04  0.10000000000E+01 0.  0.
    9000001   -1    0    0    0    0 -0.00000000000E+00 -0.00000000000E+00 -0.64999999231E+04  0.65000000000E+04  0.10000000000E+01 0.  0.
    9000001    1    1    2    0    0 -0.10988406593E+04  0.52714907088E+04  0.36405952689E+04  0.65000000000E+04  0.10000000000E+01 0.  0.
    9000001    1    1    2    0    0  0.10988406593E+04 -0.52714907088E+04 -0.36405952689E+04  0.65000000000E+04  0.10000000000E+01 0.  0.
</event>
<event>
 4    1  0.2191064E-006  0.1300000E+05  0.7957747E-01  0.1322471E+00
    9000001   -1    0    0    0    0  0.00000000000E+00  0.00000000000E+00  0.64999999231E+04  0.65000000000E+04  0.10000000000E+01 0.  0.
    9000001   -1    0    0    0    0 -0.00000000000E+00 -0.00000000000E+00 -0.64999999231E+04  0.65000000000E+04  0.10000000000E+01 0.  0.
    9000001    1    1    2    0    0  0.23916882908E+04 -0.58509105651E+04  0.15154773767E+04  0.65000000000E+04  0.10000000000E+01 0.  0.
    9000001    1    1    2    0    0 -0.23916882908E+04  0.58509105651E+04 -0.15154773767E+04  0.65000000000E+04  0.10000000000E+01 0.  0.
</event>
<event>
 4    1  0.2191064E-006  0.1300000E+05  0.7957747E-01  0.1322471E+00
    9000001   -1    0    0    0    0  0.00000000000E+00  0.00000000000E+00  0.64999999231E+04  0.65000000000E+04  0.10000000000E+01 0.  0.
    9000001   -1    0    0    0    0 -0.00000000000E+00 -0.00000000000E+00 -0.64999999231E+04  0.65000000000E+04  0.10000000000E+01 0.  0.
    9000001    1    1    2    0    0 -0.39860405472E+04  0.51326099022E+04 -0.13339920271E+03  0.65000000000E+04  0.10000000000E+01 0.  0.
    9000001    1    1    2    0    0  0.39860405472E+04 -0.51326099022E+04  0.13339920271E+03  0.65000000000E+04  0.10000000000E+01 0.  0.
</event>
<event>
 4    1  0.2191064E-006  0.1300000E+05  0.7957747E-01  0.1322471E+00
    9000001   -1    0    0    0    0  0.00000000000E+00  0.00000000000E+00  0.64999999231E+04  0.65000000000E+04  0.10000000000E+01 0.  0.
    9000001   -1    0    0    0    0 -0.00000000000E+00 -0.00000000000E+00 -0.64999999231E+04  0.65000000000E+04  0.10000000000E+01 0.  0.
    9000001    1    1    2    0    0  0.58017195537E+04 -0.14728517975E+04  0.25339212306E+04  0.65000000000E+04  0.10000000000E+01 0.  0.
    9000001    1    1    2    0    0 -0.58017195537E+04  0.14728517975E+04 -0.25339212306E+04  0.65000000000E+04  0.10000000000E+01 0.  0.
</event>
<event>
 4    1  0.2191064E-006  0.1300000E+05  0.7957747E-01  0.1322471E+00
    9000001   -1    0    0    0    0  0.00000000000E+00  0.00000000000E+00  0.64999999231E+04  0.65000000000E+04  0.10000000000E+01 0.  0.
    9000001   -1    0    0    0    0 -0.00000000000E+00 -0.00000000000E+00 -0.64999999231E+04  0.65000000000E+04  0.10000000000E+01 0.  0.
    9000001    1    1    2    0    0 -0.22415059454E+04 -0.40418279787E+04  0.45704788248E+04  0.65000000000E+04  0.10000000000E+01 0.  0.
    9000001    1    1    2    0    0  0.22415059454E+04  0.40418279787E+04 -0.45704788248E+04  0.65000000000E+04  0.10000000000E+01 0.  0.
</event>
<event>
 4    1  0.2191064E-006  0.1300000E+05  0.7957747E-01  0.1322471E+00
    9000001   -1    0    0    0    0  0.00000000000E+00  0.00000000000E+00  0.64999999231E+04  0.65000000000E+04  0.10000000000E+01 0.  0.
    9000001   -1    0    0    0    0 -0.00000000000E+00 -0.00000000000E+00 -0.64999999231E+04  0.65000000000E+04  0.10000000000E+01 0.  0.
    9000001    1    1    2    0    0  0.21782900326E+04 -0.34935420062E+04  0.50299319861E+04  0.65000000000E+04  0.10000000000E+01 0.  0.
    9000001    1    1    2    0    0 -0.21782900326E+04  0.34935420062E+04 -0.50299319861E+04  0.65000000000E+04  0.10000000000E+01 0.  0.
</event>
<event>
 4    1  0.2191064E-006  0.1300000E+05  0.7957747E-01  0.1322471E+00
    9000001   -1    0    0    0    0  0.00000000000E+00  0.00000000000E+00  0.64999999231E+04  0.65000000000E+04  0.10000000000E+01 0.  0.
    9000001   -1    0    0    0    0 -0.00000000000E+00 -0.00000000000E+00 -0.64999999231E+04  0.65000000000E+04  0.10000000000E+01 0.  0.
    9000001    1    1    2    0    0 -0.28101664047E+04 -0.39077725424E+04  0.43683266287E+04  0.65000000000E+04  0.10000000000E+01 0.  0.
    9000001    1    1    2    0    0  0.28101664047E+04  0.39077725424E+04 -0.43683266287E+04  0.65000000000E+04  0.10000000000E+01 0.  0.
</event>
<event>
 4    1  0.2191064E-006  0.1300000E+05  0.7957747E-01  0.1322471E+00
    9000001   -1    0    0    0    0  0.00000000000E+00  0.00000000000E+00  0.64999999231E+04  0.65000000000E+04  0.10000000000E+01 0.  0.
    9000001   -1    0    0    0    0 -0.00000000000E+00 -0.00000000000E+00 -0.64999999231E+04  0.65000000000E+04  0.10000000000E+01 0.  0.
    9000001    1    1    2    0    0  0.29818577102E+04  0.16322180756E+04  0.55402515963E+04  0.65000000000E+04  0.10000000000E+01 0.  0.
    9000001    1    1    2    0    0 -0.29818577102E+04 -0.16322180756E+04 -0.55402515963E+04  0.65000000000E+04  0.10000000000E+01 0.  0.
</event>
<event>
 4    1  0.2191064E-006  0.1300000E+05  0.7957747E-01  0.1322471E+00
    9000001   -1    0    0    0    0  0.00000000000E+00  0.00000000000E+00  0.64999999231E+04  0.65000000000E+04  0.10000000000E+01 0.  0.
    9000001   -1    0    0    0    0 -0.00000000000E+00 -0.00000000000E+00 -0.64999999231E+04  0.65000000000E+04  0.10000000000E+01 0.  0.
    9000001    1    1    2    0    0 -0.10188163623E+04  0.57053662795E+04  0.29429250478E+04  0.65000000000E+04  0.10000000000E+01 0.  0.
    9000001    1    1    2    0    0  0.10188163623E+04 -0.57053662795E+04 -0.29429250478E+04  0.65000000000E+04  0.10000000000E+01 0.  0.
</event>
<event>
 4    1  0.2191064E-006  0.1300000E+05  0.7957747E-01  0.1322471E+00
    9000001   -1    0    0    0    0  0.00000000000E+00  0.00000000000E+00  0.64999999231E+04  0.65000000000E+04  0.10000000000E+01 0.  0.
    9000001   -1    0    0    0    0 -0.00000000000E+00 -0.00000000000E+00 -0.64999999231E+04  0.65000000000E+04  0.10000000000E+01 0.  0.
    9000001    1    1    2    0    0 -0.60323773884E+04  0.89056324304E+03  0.22510706684E+04  0.65000000000E+04  0.10000000000E+01 0.  0.
    9000001    1    1    2    0    0  0.60323773884E+04 -0.89056324304E+03 -0.22510706684E+04  0.65000000000E+04  0.10000000000E+01 0.  0.
</event>
<event>
 4    1  0.2191064E-006  0.1300000E+05  0.7957747E-01  0.1322471E+00
    9000001   -1    0    0    0    0  0.00000000000E+00  0.00000000000E+00  0.64999999231E+04  0.65000000000E+04  0.10000000000E+01 0.  0.
    9000001   -1    0    0    0    0 -0.00000000000E+00 -0.00000000000E+00 -0.64999999231E+04  0.65000000000E+04  0.10000000000E+01 0.  0.
    9000001    1    1    2    0    0 -0.16400285670E+04 -0.62896975606E+04 -0.31458031706E+01  0.65000000000E+04  0.10000000000E+01 0.  0.
    9000001    1    1    2    0    0  0.16400285670E+04  0.62896975606E+04  0.31458031706E+01  0.65000000000E+04  0.10000000000E+01 0.  0.
</event>
<event>
 4    1  0.2191064E-006  0.1300000E+05  0.7957747E-01  0.1322471E+00
    9000001   -1    0    0    0    0  0.00000000000E+00  0.00000000000E+00  0.64999999231E+04  0.65000000000E+04  0.10000000000E+01 0.  0.
    9000001   -1    0    0    0    0 -0.00000000000E+00 -0.00000000000E+00 -0.64999999231E+04  0.65000000000E+04  0.10000000000E+01 0.  0.
    9000001    1    1    2    0    0 -0.23864941654E+03 -0.37631174821E+04  0.52945247446E+04  0.65000000000E+04  0.10000000000E+01 0.  0.
    9000001    1    1    2    0    0  0.23864941654E+03  0.37631174821E+04 -0.52945247446E+04  0.65000000000E+04  0.10000000000E+01 0.  0.
</event>
<event>
 4    1  0.2191064E-006  0.1300000E+05  0.7957747E-01  0.1322471E+00
    9000001   -1    0    0    0    0  0.00000000000E+00  0.00000000000E+00  0.64999999231E+04  0.65000000000E+04  0.10000000000E+01 0.  0.
    9000001   -1    0    0    0    0 -0.00000000000E+00 -0.00000000000E+00 -0.64999999231E+04  0.65000000000E+04  0.10000000000E+01 0.  0.
    9000001    1    1    2    0    0 -0.64139214146E+04 -0.56861442402E+03 -0.88785625177E+03  0.65000000000E+04  0.10000000000E+01 0.  0.
    9000001    1    1    2    0    0  0.64139214146E+04  0.56861442402E+03  0.88785625177E+03  0.65000000000E+04  0.10000000000E+01 0.  0.
</event>
<event>
 4    1  0.2191064E-006  0.1300000E+05  0.7957747E-01  0.1322471E+00
    9000001   -1    0    0    0    0  0.00000000000E+00  0.00000000000E+00  0.64999999231E+04  0.65000000000E+04  0.10000000000E+01 0.  0.
    9000001   -1    0    0    0    0 -0.00000000000E+00 -0.00000000000E+00 -0.64999999231E+04  0.65000000000E+04  0.10000000000E+01 0.  0.
    9000001    1    1    2    0    0 -0.43380450989E+04 -0.45922895330E+04 -0.15304380304E+04  0.65000000000E+04  0.10000000000E+01 0.  0.
    9000001    1    1    2    0    0  0.43380450989E+04  0.45922895330E+04  0.15304380304E+04  0.65000000000E+04  0.10000000000E+01 0.  0.
</event>
<event>
 4    1  0.2191064E-006  0.1300000E+05  0.7957747E-01  0.1322471E+00
    9000001   -1    0    0    0    0  0.00000000000E+00  0.00000000000E+00  0.64999999231E+04  0.65000000000E+04  0.10000000000E+01 0.  0.
    9000001   -1    0    0    0    0 -0.00000000000E+00 -0.00000000000E+00 -0.64999999231E+04  0.65000000000E+04  0.10000000000E+01 0.  0.
    9000001    1    1    2    0    0 -0.36257815553E+04  0.44974106780E+04 -0.29794301984E+04  0.65000000000E+04  0.10000000000E+01 0.  0.
    9000001    1    1    2    0    0  0.36257815553E+04 -0.44974106780E+04  0.29794301984E+04  0.65000000000E+04  0.10000000000E+01 0.  0.
</event>
<event>
 4    1  0.2191064E-006  0.1300000E+05  0.7957747E-01  0.1322471E+00
    9000001   -1    0    0    0    0  0.00000000000E+00  0.00000000000E+00  0.64999999231E+04  0.65000000000E+04  0.10000000000E+01 0.  0.
    9000001   -1    0    0    0    0 -0.00000000000E+00 -0.00000000000E+00 -0.64999999231E+04  0.65000000000E+04  0.10000000000E+01 0.  0.
    9000001    1    1    2    0    0 -0.12103368304E+04 -0.63270651146E+04 -0.86794630764E+03  0.65000000000E+04  0.10000000000E+01 0.  0.
    9000001    1    1    2    0    0  0.12103368304E+04  0.63270651146E+04  0.86794630764E+03  0.65000000000E+04  0.10000000000E+01 0.  0.
</event>
<event>
 4    1  0.2191064E-006  0.1300000E+05  0.7957747E-01  0.1322471E+00
    9000001   -1    0    0    0    0  0.00000000000E+00  0.00000000000E+00  0.64999999231E+04  0.65000000000E+04  0.10000000000E+01 0.  0.
    9000001   -1    0    0    0    0 -0.00000000000E+00 -0.00000000000E+00 -0.64999999231E+04  0.65000000000E+04  0.10000000000E+01 0.  0.
    9000001    1    1    2    0    0  0.86283748658E+03 -0.39728489691E+04  0.50716842903E+04  0.65000000000E+04  0.10000000000E+01 0.  0.
    9000001    1    1    2    0    0 -0.86283748658E+03  0.39728489691E+04 -0.50716842903E+04  0.65000000000E+04  0.10000000000E+01 0.  0.
</event>
<event>
 4    1  0.2191064E-006  0.1300000E+05  0.7957747E-01  0.1322471E+00
    9000001   -1    0    0    0    0  0.00000000000E+00  0.00000000000E+00  0.64999999231E+04  0.65000000000E+04  0.10000000000E+01 0.  0.
    9000001   -1    0    0    0    0 -0.00000000000E+00 -0.00000000000E+00 -0.64999999231E+04  0.65000000000E+04  0.10000000000E+01 0.  0.
    9000001    1    1    2    0    0 -0.56600032711E+04  0.34715761467E+02 -0.31958029957E+04  0.65000000000E+04  0.10000000000E+01 0.  0.
    9000001    1    1    2    0    0  0.56600032711E+04 -0.34715761467E+02  0.31958029957E+04  0.65000000000E+04  0.10000000000E+01 0.  0.
</event>
<event>
 4    1  0.2191064E-006  0.1300000E+05  0.7957747E-01  0.1322471E+00
    9000001   -1    0    0    0    0  0.00000000000E+00  0.00000000000E+00  0.64999999231E+04  0.65000000000E+04  0.10000000000E+01 0.  0.
    9000001   -1    0    0    0    0 -0.00000000000E+00 -0.00000000000E+00 -0.64999999231E+04  0.65000000000E+04  0.10000000000E+01 0.  0.
    9000001    1    1    2    0    0 -0.27850660786E+04  0.44930757479E+04  0.37822845294E+04  0.65000000000E+04  0.10000000000E+01 0.  0.
    9000001    1    1    2    0    0  0.27850660786E+04 -0.44930757479E+04 -0.37822845294E+04  0.65000000000E+04  0.10000000000E+01 0.  0.
</event>
<event>
 4    1  0.2191064E-006  0.1300000E+05  0.7957747E-01  0.1322471E+00
    9000001   -1    0    0    0    0  0.00000000000E+00  0.00000000000E+00  0.64999999231E+04  0.65000000000E+04  0.10000000000E+01 0.  0.
    9000001   -1    0    0    0    0 -0.00000000000E+00 -0.00000000000E+00 -0.64999999231E+04  0.65000000000E+04  0.10000000000E+01 0.  0.
    9000001    1    1    2    0    0 -0.14957478606E+04  0.51721100535E+04  0.36417049485E+04  0.65000000000E+04  0.10000000000E+01 0.  0.
    9000001    1    1    2    0    0  0.14957478606E+04 -0.51721100535E+04 -0.36417049485E+04  0.65000000000E+04  0.10000000000E+01 0.  0.
</event>
<event>
 4    1  0.2191064E-006  0.1300000E+05  0.7957747E-01  0.1322471E+00
    9000001   -1    0    0    0    0  0.00000000000E+00  0.00000000000E+00  0.64999999231E+04  0.65000000000E+04  0.10000000000E+01 0.  0.
    9000001   -1    0    0    0    0 -0.00000000000E+00 -0.00000000000E+00 -0.64999999231E+04  0.65000000000E+04  0.10000000000E+01 0.  0.
    9000001    1    1    2    0    0  0.61093239862E+03 -0.34955080803E+04 -0.54459327819E+04  0.65000000000E+04  0.10000000000E+01 0.  0.
    9000001    1    1    2    0    0 -0.61093239862E+03  0.34955080803E+04  0.54459327819E+04  0.65000000000E+04  0.10000000000E+01 0.  0.
</event>
<event>
 4    1  0.2191064E-006  0.1300000E+05  0.7957747E-01  0.1322471E+00
    9000001   -1    0    0    0    0  0.00000000000E+00  0.00000000000E+00  0.64999999231E+04  0.65000000000E+04  0.10000000000E+01 0.  0.
    9000001   -1    0    0    0    0 -0.00000000000E+00 -0.00000000000E+00 -0.64999999231E+04  0.65000000000E+04  0.10000000000E+01 0.  0.
    9000001    1    1    2    0    0 -0.37872428252E+04  0.30448303645E+04  0.43169200635E+04  0.65000000000E+04  0.10000000000E+01 0.  0.
    9000001    1    1    2    0    0  0.37872428252E+04 -0.30448303645E+04 -0.43169200635E+04  0.65000000000E+04  0.10000000000E+01 0.  0.
</event>
<event>
 4    1  0.2191064E-006  0.1300000E+05  0.7957747E-01  0.1322471E+00
    9000001   -1    0    0    0    0  0.00000000000E+00  0.00000000000E+00  0.64999999231E+04  0.65000000000E+04  0.10000000000E+01 0.  0.
    9000001   -1    0    0    0    0 -0.00000000000E+00 -0.00000000000E+00 -0.64999999231E+04  0.65000000000E+04  0.10000000000E+01 0.  0.
    9000001    1    1    2    0    0 -0.33174463690E+04  0.10210903164E+04 -0.54956276397E+04  0.65000000000E+04  0.10000000000E+01 0.  0.
    9000001    1    1    2    0    0  0.33174463690E+04 -0.10210903164E+04  0.54956276397E+04  0.65000000000E+04  0.10000000000E+01 0.  0.
</event>
<event>
 4    1  0.2191064E-006  0.1300000E+05  0.7957747E-01  0.1322471E+00
    9000001   -1    0    0    0    0  0.00000000000E+00  0.00000000000E+00  0.64999999231E+04  0.65000000000E+04  0.10000000000E+01 0.  0.
    9000001   -1    0    0    0    0 -0.00000000000E+00 -0.00000000000E+00 -0.64999999231E+04  0.65000000000E+04  0.10000000000E+01 0.  0.
    9000001    1    1    2    0    0 -0.27077716427E+04 -0.21895579474E+04  0.54885159858E+04  0.65000000000E+04  0.10000000000E+01 0.  0.
    9000001    1    1    2    0    0  0.27077716427E+04  0.21895579474E+04 -0.54885159858E+04  0.65000000000E+04  0.10000000000E+01 0.  0.
</event>
<event>
 4    1  0.2191064E-006  0.1300000E+05  0.7957747E-01  0.1322471E+00
    9000001   -1    0    0    0    0  0.00000000000E+00  0.00000000000E+00  0.64999999231E+04  0.65000000000E+04  0.10000000000E+01 0.  0.
    9000001   -1    0    0    0    0 -0.00000000000E+00 -0.00000000000E+00 -0.64999999231E+04  0.65000000000E+04  0.10000000000E+01 0.  0.
    9000001    1    1    2    0    0 -0.32567233811E+04  0.22504860911E+04  0.51554887424E+04  0.65000000000E+04  0.10000000000E+01 0.  0.
    9000001    1    1    2    0    0  0.32567233811E+04 -0.22504860911E+04 -0.51554887424E+04  0.65000000000E+04  0.10000000000E+01 0.  0.
</event>
<event>
 4    1  0.2191064E-006  0.1300000E+05  0.7957747E-01  0.1322471E+00
    9000001   -1    0    0    0    0  0.00000000000E+00  0.00000000000E+00  0.64999999231E+04  0.65000000000E+04  0.10000000000E+01 0.  0.
    9000001   -1    0    0    0    0 -0.00000000000E+00 -0.00000000000E+00 -0.64999999231E+04  0.65000000000E+04  0.10000000000E+01 0.  0.
    9000001    1    1    2    0    0 -0.63385648783E+04  0.87253577801E+03  0.11451094268E+04  0.65000000000E+04  0.10000000000E+01 0.  0.
    9000001    1    1    2    0    0  0.63385648783E+04 -0.87253577801E+03 -0.11451094268E+04  0.65000000000E+04  0.10000000000E+01 0.  0.
</event>
<event>
 4    1  0.2191064E-006  0.1300000E+05  0.7957747E-01  0.1322471E+00
    9000001   -1    0    0    0    0  0.00000000000E+00  0.00000000000E+00  0.64999999231E+04  0.65000000000E+04  0.10000000000E+01 0.  0.
    9000001   -1    0    0    0    0 -0.00000000000E+00 -0.00000000000E+00 -0.64999999231E+04  0.65000000000E+04  0.10000000000E+01 0.  0.
    9000001    1    1    2    0    0 -0.64304527310E+01  0.60587130967E+04  0.23541353532E+04  0.65000000000E+04  0.10000000000E+01 0.  0.
    9000001    1    1    2    0    0  0.64304527310E+01 -0.60587130967E+04 -0.23541353532E+04  0.65000000000E+04  0.10000000000E+01 0.  0.
</event>
<event>
 4    1  0.2191064E-006  0.1300000E+05  0.7957747E-01  0.1322471E+00
    9000001   -1    0    0    0    0  0.00000000000E+00  0.00000000000E+00  0.64999999231E+04  0.65000000000E+04  0.10000000000E+01 0.  0.
    9000001   -1    0    0    0    0 -0.00000000000E+00 -0.00000000000E+00 -0.64999999231E+04  0.65000000000E+04  0.10000000000E+01 0.  0.
    9000001    1    1    2    0    0  0.48492250073E+03 -0.53371584643E+03  0.64598758938E+04  0.65000000000E+04  0.10000000000E+01 0.  0.
    9000001    1    1    2    0    0 -0.48492250073E+03  0.53371584643E+03 -0.64598758938E+04  0.65000000000E+04  0.10000000000E+01 0.  0.
</event>
<event>
 4    1  0.2191064E-006  0.1300000E+05  0.7957747E-01  0.1322471E+00
    9000001   -1    0    0    0    0  0.00000000000E+00  0.00000000000E+00  0.64999999231E+04  0.65000000000E+04  0.10000000000E+01 0.  0.
    9000001   -1    0    0    0    0 -0.00000000000E+00 -0.00000000000E+00 -0.64999999231E+04  0.65000000000E+04  0.10000000000E+01 0.  0.
    9000001    1    1    2    0    0  0.54862689495E+04  0.32132550974E+04  0.13512378372E+04  0.65000000000E+04  0.10000000000E+01 0.  0.
    9000001    1    1    2    0    0 -0.54862689495E+04 -0.32132550974E+04 -0.13512378372E+04  0.65000000000E+04  0.10000000000E+01 0.  0.
</event>
<event>
 4    1  0.2191064E-006  0.1300000E+05  0.7957747E-01  0.1322471E+00
    9000001   -1    0    0    0    0  0.00000000000E+00  0.00000000000E+00  0.64999999231E+04  0.65000000000E+04  0.10000000000E+01 0.  0.
    9000001   -1    0    0    0    0 -0.00000000000E+00 -0.00000000000E+00 -0.64999999231E+04  0.65000000000E+04  0.10000000000E+01 0.  0.
    9000001    1    1    2    0    0  0.54147173374E+04  0.37025976712E+01 -0.35959451396E+04  0.65000000000E+04  0.10000000000E+01 0.  0.
    9000001    1    1    2    0    0 -0.54147173374E+04 -0.37025976712E+01  0.35959451396E+04  0.65000000000E+04  0.10000000000E+01 0.  0.
</event>
<event>
 4    1  0.2191064E-006  0.1300000E+05  0.7957747E-01  0.1322471E+00
    9000001   -1    0    0    0    0  0.00000000000E+00  0.00000000000E+00  0.64999999231E+04  0.65000000000E+04  0.10000000000E+01 0.  0.
    9000001   -1    0    0    0    0 -0.00000000000E+00 -0.00000000000E+00 -0.64999999231E+04  0.65000000000E+04  0.10000000000E+01 0.  0.
    9000001    1    1    2    0    0  0.58165407365E+04 -0.16038240383E+04 -0.24177678372E+04  0.65000000000E+04  0.10000000000E+01 0.  0.
    9000001    1    1    2    0    0 -0.58165407365E+04  0.16038240383E+04  0.24177678372E+04  0.65000000000E+04  0.10000000000E+01 0.  0.
</event>
<event>
 4    1  0.2191064E-006  0.1300000E+05  0.7957747E-01  0.1322471E+00
    9000001   -1    0    0    0    0  0.00000000000E+00  0.00000000000E+00  0.64999999231E+04  0.65000000000E+04  0.10000000000E+01 0.  0.
    9000001   -1    0    0    0    0 -0.00000000000E+00 -0.00000000000E+00 -0.64999999231E+04  0.65000000000E+04  0.10000000000E+01 0.  0.
    9000001    1    1    2    0    0 -0.41968193354E+04 -0.46247448107E+04  0.18023434472E+04  0.65000000000E+04  0.10000000000E+01 0.  0.
    9000001    1    1    2    0    0  0.41968193354E+04  0.46247448107E+04 -0.18023434472E+04  0.65000000000E+04  0.10000000000E+01 0.  0.
</event>
<event>
 4    1  0.2191064E-006  0.1300000E+05  0.7957747E-01  0.1322471E+00
    9000001   -1    0    0    0    0  0.00000000000E+00  0.00000000000E+00  0.64999999231E+04  0.65000000000E+04  0.10000000000E+01 0.  0.
    9000001   -1    0    0    0    0 -0.00000000000E+00 -0.00000000000E+00 -0.64999999231E+04  0.65000000000E+04  0.10000000000E+01 0.  0.
    9000001    1    1    2    0    0 -0.17716256880E+04  0.29344459658E+04  0.55227138524E+04  0.65000000000E+04  0.10000000000E+01 0.  0.
    9000001    1    1    2    0    0  0.17716256880E+04 -0.29344459658E+04 -0.55227138524E+04  0.65000000000E+04  0.10000000000E+01 0.  0.
</event>
<event>
 4    1  0.2191064E-006  0.1300000E+05  0.7957747E-01  0.1322471E+00
    9000001   -1    0    0    0    0  0.00000000000E+00  0.00000000000E+00  0.64999999231E+04  0.65000000000E+04  0.10000000000E+01 0.  0.
    9000001   -1    0    0    0    0 -0.00000000000E+00 -0.00000000000E+00 -0.64999999231E+04  0.65000000000E+04  0.10000000000E+01 0.  0.
    9000001    1    1    2    0    0  0.50240849095E+04  0.41237270961E+04  0.58691220055E+02  0.65000000000E+04  0.10000000000E+01 0.  0.
    9000001    1    1    2    0    0 -0.50240849095E+04 -0.41237270961E+04 -0.58691220055E+02  0.65000000000E+04  0.10000000000E+01 0.  0.
</event>
<event>
 4    1  0.2191064E-006  0.1300000E+05  0.7957747E-01  0.1322471E+00
    9000001   -1    0    0    0    0  0.00000000000E+00  0.00000000000E+00  0.64999999231E+04  0.65000000000E+04  0.10000000000E+01 0.  0.
    9000001   -1    0    0    0    0 -0.00000000000E+00 -0.00000000000E+00 -0.64999999231E+04  0.65000000000E+04  0.10000000000E+01 0.  0.
    9000001    1    1    2    0    0  0.41167584245E+04  0.36098919143E+04  0.35029957809E+04  0.65000000000E+04  0.10000000000E+01 0.  0.
    9000001    1    1    2    0    0 -0.41167584245E+04 -0.36098919143E+04 -0.35029957809E+04  0.65000000000E+04  0.10000000000E+01 0.  0.
</event>
<event>
 4    1  0.2191064E-006  0.1300000E+05  0.7957747E-01  0.1322471E+00
    9000001   -1    0    0    0    0  0.00000000000E+00  0.00000000000E+00  0.64999999231E+04  0.65000000000E+04  0.10000000000E+01 0.  0.
    9000001   -1    0    0    0    0 -0.00000000000E+00 -0.00000000000E+00 -0.64999999231E+04  0.65000000000E+04  0.10000000000E+01 0.  0.
    9000001    1    1    2    0    0 -0.21784463006E+04  0.60159086571E+04 -0.11459553850E+04  0.65000000000E+04  0.10000000000E+01 0.  0.
    9000001    1    1    2    0    0  0.21784463006E+04 -0.60159086571E+04  0.11459553850E+04  0.65000000000E+04  0.10000000000E+01 0.  0.
</event>
<event>
 4    1  0.2191064E-006  0.1300000E+05  0.7957747E-01  0.1322471E+00
    9000001   -1    0    0    0    0  0.00000000000E+00  0.00000000000E+00  0.64999999231E+04  0.65000000000E+04  0.10000000000E+01 0.  0.
    9000001   -1    0    0    0    0 -0.00000000000E+00 -0.00000000000E+00 -0.64999999231E+04  0.65000000000E+04  0.10000000000E+01 0.  0.
    9000001    1    1    2    0    0  0.83143529819E+03  0.38104243526E+04  0.51999404418E+04  0.65000000000E+04  0.10000000000E+01 0.  0.
    9000001    1    1    2    0    0 -0.83143529819E+03 -0.38104243526E+04 -0.51999404418E+04  0.65000000000E+04  0.10000000000E+01 0.  0.
</event>
<event>
 4    1  0.2191064E-006  0.1300000E+05  0.7957747E-01  0.1322471E+00
    9000001   -1    0    0    0    0  0.00000000000E+00  0.00000000000E+00  0.64999999231E+04  0.65000000000E+04  0.10000000000E+01 0.  0.
    9000001   -1    0    0    0    0 -0.00000000000E+00 -0.00000000000E+00 -0.64999999231E+04  0.65000000000E+04  0.10000000000E+01 0.  0.
    9000001    1    1    2    0    0  0.58661987543E+04 -0.27928295820E+04 -0.19445848129E+03  0.65000000000E+04  0.10000000000E+01 0.  0.
    9000001    1    1    2    0    0 -0.58661987543E+04  0.27928295820E+04  0.19445848129E+03  0.65000000000E+04  0.10000000000E+01 0.  0.
</event>
<event>
 4    1  0.2191064E-006  0.1300000E+05  0.7957747E-01  0.1322471E+00
    9000001   -1    0    0    0    0  0.00000000000E+00  0.00000000000E+00  0.64999999231E+04  0.65000000000E+04  0.10000000000E+01 0.  0.
    9000001   -1    0    0    0    0 -0.00000000000E+00 -0.00000000000E+00 -0.64999999231E+04  0.65000000000E+04  0.10000000000E+01 0.  0.
    9000001    1    1    2    0    0 -0.44041830071E+04 -0.97915286559E+03  0.46791485022E+04  0.65000000000E+04  0.10000000000E+01 0.  0.
    9000001    1    1    2    0    0  0.44041830071E+04  0.97915286559E+03 -0.46791485022E+04  0.65000000000E+04  0.10000000000E+01 0.  0.
</event>
<event>
 4    1  0.2191064E-006  0.1300000E+05  0.7957747E-01  0.1322471E+00
    9000001   -1    0    0    0    0  0.00000000000E+00  0.00000000000E+00  0.64999999231E+04  0.65000000000E+04  0.10000000000E+01 0.  0.
    9000001   -1    0    0    0    0 -0.00000000000E+00 -0.00000000000E+00 -0.64999999231E+04  0.65000000000E+04  0.10000000000E+01 0.  0.
    9000001    1    1    2    0    0 -0.45501361126E+04 -0.66919448451E+03 -0.45933037238E+04  0.65000000000E+04  0.10000000000E+01 0.  0.
    9000001    1    1    2    0    0  0.45501361126E+04  0.66919448451E+03  0.45933037238E+04  0.65000000000E+04  0.10000000000E+01 0.  0.
</event>
<event>
 4    1  0.2191064E-006  0.1300000E+05  0.7957747E-01  0.1322471E+00
    9000001   -1    0    0    0    0  0.00000000000E+00  0.00000000000E+00  0.64999999231E+04  0.65000000000E+04  0.10000000000E+01 0.  0.
    9000001   -1    0    0    0    0 -0.00000000000E+00 -0.00000000000E+00 -0.64999999231E+04  0.65000000000E+04  0.10000000000E+01 0.  0.
    9000001    1    1    2    0    0  0.56993125610E+04  0.30008966429E+04 -0.87318650400E+03  0.65000000000E+04  0.10000000000E+01 0.  0.
    9000001    1    1    2    0    0 -0.56993125610E+04 -0.30008966429E+04  0.87318650400E+03  0.65000000000E+04  0.10000000000E+01 0.  0.
</event>
<event>
 4    1  0.2191064E-006  0.1300000E+05  0.7957747E-01  0.1322471E+00
    9000001   -1    0    0    0    0  0.00000000000E+00  0.00000000000E+00  0.64999999231E+04  0.65000000000E+04  0.10000000000E+01 0.  0.
    9000001   -1    0    0    0    0 -0.00000000000E+00 -0.00000000000E+00 -0.64999999231E+04  0.65000000000E+04  0.10000000000E+01 0.  0.
    9000001    1    1    2    0    0  0.64667868188E+04  0.56356137196E+03 -0.33625261449E+03  0.65000000000E+04  0.10000000000E+01 0.  0.
    9000001    1    1    2    0    0 -0.64667868188E+04 -0.56356137196E+03  0.33625261449E+03  0.65000000000E+04  0.10000000000E+01 0.  0.
</event>
<event>
 4    1  0.2191064E-006  0.1300000E+05  0.7957747E-01  0.1322471E+00
    9000001   -1    0    0    0    0  0.00000000000E+00  0.00000000000E+00  0.64999999231E+04  0.65000000000E+04  0.10000000000E+01 0.  0.
    9000001   -1    0    0    0    0 -0.00000000000E+00 -0.00000000000E+00 -0.64999999231E+04  0.65000000000E+04  0.10000000000E+01 0.  0.
    9000001    1    1    2    0    0  0.54251261795E+04 -0.27420086209E+04  0.23020411940E+04  0.65000000000E+04  0.10000000000E+01 0.  0.
    9000001    1    1    2    0    0 -0.54251261795E+04  0.27420086209E+04 -0.23020411940E+04  0.65000000000E+04  0.10000000000E+01 0.  0.
</event>
<event>
 4    1  0.2191064E-006  0.1300000E+05  0.7957747E-01  0.1322471E+00
    9000001   -1    0    0    0    0  0.00000000000E+00  0.00000000000E+00  0.64999999231E+04  0.65000000000E+04  0.10000000000E+01 0.  0.
    9000001   -1    0    0    0    0 -0.00000000000E+00 -0.00000000000E+00 -0.64999999231E+04  0.65000000000E+04  0.10000000000E+01 0.  0.
    9000001    1    1    2    0    0 -0.83490697296E+01 -0.40056755157E+04  0.51190324238E+04  0.65000000000E+04  0.10000000000E+01 0.  0.
    9000001    1    1    2    0    0  0.83490697296E+01  0.40056755157E+04 -0.51190324238E+04  0.65000000000E+04  0.10000000000E+01 0.  0.
</event>
<event>
 4    1  0.2191064E-006  0.1300000E+05  0.7957747E-01  0.1322471E+00
    9000001   -1    0    0    0    0  0.00000000000E+00  0.00000000000E+00  0.64999999231E+04  0.65000000000E+04  0.10000000000E+01 0.  0.
    9000001   -1    0    0    0    0 -0.00000000000E+00 -0.00000000000E+00 -0.64999999231E+04  0.65000000000E+04  0.10000000000E+01 0.  0.
    9000001    1    1    2    0    0 -0.37546063683E+04 -0.46387354812E+04 -0.25758616334E+04  0.65000000000E+04  0.10000000000E+01 0.  0.
    9000001    1    1    2    0    0  0.37546063683E+04  0.46387354812E+04  0.25758616334E+04  0.65000000000E+04  0.10000000000E+01 0.  0.
</event>
<event>
 4    1  0.2191064E-006  0.1300000E+05  0.7957747E-01  0.1322471E+00
    9000001   -1    0    0    0    0  0.00000000000E+00  0.00000000000E+00  0.64999999231E+04  0.65000000000E+04  0.10000000000E+01 0.  0.
    9000001   -1    0    0    0    0 -0.00000000000E+00 -0.00000000000E+00 -0.64999999231E+04  0.65000000000E+04  0.10000000000E+01 0.  0.
    9000001    1    1    2    0    0 -0.26331861709E+04 -0.56780063548E+04 -0.17540163696E+04  0.65000000000E+04  0.10000000000E+01 0.  0.
    9000001    1    1    2    0    0  0.26331861709E+04  0.56780063548E+04  0.17540163696E+04  0.65000000000E+04  0.10000000000E+01 0.  0.
</event>
<event>
 4    1  0.2191064E-006  0.1300000E+05  0.7957747E-01  0.1322471E+00
    9000001   -1    0    0    0    0  0.00000000000E+00  0.00000000000E+00  0.64999999231E+04  0.65000000000E+04  0.10000000000E+01 0.  0.
    9000001   -1    0    0    0    0 -0.00000000000E+00 -0.00000000000E+00 -0.64999999231E+04  0.65000000000E+04  0.10000000000E+01 0.  0.
    9000001    1    1    2    0    0 -0.64635378265E+04 -0.68530005836E+03  0.55150666625E+02  0.65000000000E+04  0.10000000000E+01 0.  0.
    9000001    1    1    2    0    0  0.64635378265E+04  0.68530005836E+03 -0.55150666625E+02  0.65000000000E+04  0.10000000000E+01 0.  0.
</event>
<event>
 4    1  0.2191064E-006  0.1300000E+05  0.7957747E-01  0.1322471E+00
    9000001   -1    0    0    0    0  0.00000000000E+00  0.00000000000E+00  0.64999999231E+04  0.65000000000E+04  0.10000000000E+01 0.  0.
    9000001   -1    0    0    0    0 -0.00000000000E+00 -0.00000000000E+00 -0.64999999231E+04  0.65000000000E+04  0.10000000000E+01 0.  0.
    9000001    1    1    2    0    0  0.56723052911E+04 -0.19844861534E+04  0.24772497636E+04  0.65000000000E+04  0.10000000000E+01 0.  0.
    9000001    1    1    2    0    0 -0.56723052911E+04  0.19844861534E+04 -0.24772497636E+04  0.65000000000E+04  0.10000000000E+01 0.  0.
</event>
<event>
 4    1  0.2191064E-006  0.1300000E+05  0.7957747E-01  0.1322471E+00
    9000001   -1    0    0    0    0  0.00000000000E+00  0.00000000000E+00  0.64999999231E+04  0.65000000000E+04  0.10000000000E+01 0.  0.
    9000001   -1    0    0    0    0 -0.00000000000E+00 -0.00000000000E+00 -0.64999999231E+04  0.65000000000E+04  0.10000000000E+01 0.  0.
    9000001    1    1    2    0    0  0.60602531691E+03 -0.55685028695E+04 -0.32976519082E+04  0.65000000000E+04  0.10000000000E+01 0.  0.
    9000001    1    1    2    0    0 -0.60602531691E+03  0.55685028695E+04  0.32976519082E+04  0.65000000000E+04  0.10000000000E+01 0.  0.
</event>
<event>
 4    1  0.2191064E-006  0.1300000E+05  0.7957747E-01  0.1322471E+00
    9000001   -1    0    0    0    0  0.00000000000E+00  0.00000000000E+00  0.64999999231E+04  0.65000000000E+04  0.10000000000E+01 0.  0.
    9000001   -1    0    0    0    0 -0.00000000000E+00 -0.00000000000E+00 -0.64999999231E+04  0.65000000000E+04  0.10000000000E+01 0.  0.
    9000001    1    1    2    0    0  0.43809049123E+04  0.23669869950E+04 -0.41779233735E+04  0.65000000000E+04  0.10000000000E+01 0.  0.
    9000001    1    1    2    0    0 -0.43809049123E+04 -0.23669869950E+04  0.41779233735E+04  0.65000000000E+04  0.10000000000E+01 0.  0.
</event>
<event>
 4    1  0.2191064E-006  0.1300000E+05  0.7957747E-01  0.1322471E+00
    9000001   -1    0    0    0    0  0.00000000000E+00  0.00000000000E+00  0.64999999231E+04  0.65000000000E+04  0.10000000000E+01 0.  0.
    9000001   -1    0    0    0    0 -0.00000000000E+00 -0.00000000000E+00 -0.64999999231E+04  0.65000000000E+04  0.10000000000E+01 0.  0.
    9000001    1    1    2    0    0  0.38082578370E+04  0.35286245927E+04 -0.39110075084E+04  0.65000000000E+04  0.10000000000E+01 0.  0.
    9000001    1    1    2    0    0 -0.38082578370E+04 -0.35286245927E+04  0.39110075084E+04  0.65000000000E+04  0.10000000000E+01 0.  0.
</event>
<event>
 4    1  0.2191064E-006  0.1300000E+05  0.7957747E-01  0.1322471E+00
    9000001   -1    0    0    0    0  0.00000000000E+00  0.00000000000E+00  0.64999999231E+04  0.65000000000E+04  0.10000000000E+01 0.  0.
    9000001   -1    0    0    0    0 -0.00000000000E+00 -0.00000000000E+00 -0.64999999231E+04  0.65000000000E+04  0.10000000000E+01 0.  0.
    9000001    1    1    2    0    0  0.18236700474E+04  0.43102691492E+04  0.45106325964E+04  0.65000000000E+04  0.10000000000E+01 0.  0.
    9000001    1    1    2    0    0 -0.18236700474E+04 -0.43102691492E+04 -0.45106325964E+04  0.65000000000E+04  0.10000000000E+01 0.  0.
</event>
<event>
 4    1  0.2191064E-006  0.1300000E+05  0.7957747E-01  0.1322471E+00
    9000001   -1    0    0    0    0  0.00000000000E+00  0.00000000000E+00  0.64999999231E+04  0.65000000000E+04  0.10000000000E+01 0.  0.
    9000001   -1    0    0    0    0 -0.00000000000E+00 -0.00000000000E+00 -0.64999999231E+04  0.65000000000E+04  0.10000000000E+01 0.  0.
    9000001    1    1    2    0    0  0.18146895698E+04  0.18998110843E+04 -0.59453863297E+04  0.65000000000E+04  0.10000000000E+01 0.  0.
    9000001    1    1    2    0    0 -0.18146895698E+04 -0.18998110843E+04  0.59453863297E+04  0.65000000000E+04  0.10000000000E+01 0.  0.
</event>
<event>
 4    1  0.2191064E-006  0.1300000E+05  0.7957747E-01  0.1322471E+00
    9000001   -1    0    0    0    0  0.00000000000E+00  0.00000000000E+00  0.64999999231E+04  0.65000000000E+04  0.10000000000E+01 0.  0.
    9000001   -1    0    0    0    0 -0.00000000000E+00 -0.00000000000E+00 -0.64999999231E+04  0.65000000000E+04  0.10000000000E+01 0.  0.
    9000001    1    1    2    0    0 -0.28974806304E+04 -0.84974352621E+03 -0.57560872940E+04  0.65000000000E+04  0.10000000000E+01 0.  0.
    9000001    1    1    2    0    0  0.28974806304E+04  0.84974352621E+03  0.57560872940E+04  0.65000000000E+04  0.10000000000E+01 0.  0.
</event>
<event>
 4    1  0.2191064E-006  0.1300000E+05  0.7957747E-01  0.1322471E+00
    9000001   -1    0    0    0    0  0.00000000000E+00  0.00000000000E+00  0.64999999231E+04  0.65000000000E+04  0.10000000000E+01 0.  0.
    9000001   -1    0    0    0    0 -0.00000000000E+00 -0.00000000000E+00 -0.64999999231E+04  0.65000000000E+04  0.10000000000E+01 0.  0.
    9000001    1    1    2    0    0  0.31217725769E+04 -0.17181710666E+04 -0.54362140469E+04  0.65000000000E+04  0.10000000000E+01 0.  0.
    9000001    1    1    2    0    0 -0.31217725769E+04  0.17181710666E+04  0.54362140469E+04  0.65000000000E+04  0.10000000000E+01 0.  0.
</event>
<event>
 4    1  0.2191064E-006  0.1300000E+05  0.7957747E-01  0.1322471E+00
    9000001   -1    0    0    0    0  0.00000000000E+00  0.00000000000E+00  0.64999999231E+04  0.65000000000E+04  0.10000000000E+01 0.  0.
    9000001   -1    0    0    0    0 -0.00000000000E+00 -0.00000000000E+00 -0.64999999231E+04  0.65000000000E+04  0.10000000000E+01 0.  0.
    9000001    1    1    2    0    0 -0.46713258361E+04 -0.35935198614E+04  0.27414100275E+04  0.65000000000E+04  0.10000000000E+01 0.  0.
    9000001    1    1    2    0    0  0.46713258361E+04  0.35935198614E+04 -0.27414100275E+04  0.65000000000E+04  0.10000000000E+01 0.  0.
</event>
<event>
 4    1  0.2191064E-006  0.1300000E+05  0.7957747E-01  0.1322471E+00
    9000001   -1    0    0    0    0  0.00000000000E+00  0.00000000000E+00  0.64999999231E+04  0.65000000000E+04  0.10000000000E+01 0.  0.
    9000001   -1    0    0    0    0 -0.00000000000E+00 -0.00000000000E+00 -0.64999999231E+04  0.65000000000E+04  0.10000000000E+01 0.  0.
    9000001    1    1    2    0    0  0.46757519920E+04  0.25616074914E+04 -0.37182669847E+04  0.65000000000E+04  0.10000000000E+01 0.  0.
    9000001    1    1    2    0    0 -0.46757519920E+04 -0.25616074914E+04  0.37182669847E+04  0.65000000000E+04  0.10000000000E+01 0.  0.
</event>
<event>
 4    1  0.2191064E-006  0.1300000E+05  0.7957747E-01  0.1322471E+00
    9000001   -1    0    0    0    0  0.00000000000E+00  0.00000000000E+00  0.64999999231E+04  0.65000000000E+04  0.10000000000E+01 0.  0.
    9000001   -1    0    0    0    0 -0.00000000000E+00 -0.00000000000E+00 -0.64999999231E+04  0.65000000000E+04  0.10000000000E+01 0.  0.
    9000001    1    1    2    0    0  0.15465826529E+04  0.54832247576E+04 -0.31292694602E+04  0.65000000000E+04  0.10000000000E+01 0.  0.
    9000001    1    1    2    0    0 -0.15465826529E+04 -0.54832247576E+04  0.31292694602E+04  0.65000000000E+04  0.10000000000E+01 0.  0.
</event>
<event>
 4    1  0.2191064E-006  0.1300000E+05  0.7957747E-01  0.1322471E+00
    9000001   -1    0    0    0    0  0.00000000000E+00  0.00000000000E+00  0.64999999231E+04  0.65000000000E+04  0.10000000000E+01 0.  0.
    9000001   -1    0    0    0    0 -0.00000000000E+00 -0.00000000000E+00 -0.64999999231E+04  0.65000000000E+04  0.10000000000E+01 0.  0.
    9000001    1    1    2    0    0 -0.44726901202E+04  0.35009966640E+04  0.31603899201E+04  0.65000000000E+04  0.10000000000E+01 0.  0.
    9000001    1    1    2    0    0  0.44726901202E+04 -0.35009966640E+04 -0.31603899201E+04  0.65000000000E+04  0.10000000000E+01 0.  0.
</event>
<event>
 4    1  0.2191064E-006  0.1300000E+05  0.7957747E-01  0.1322471E+00
    9000001   -1    0    0    0    0  0.00000000000E+00  0.00000000000E+00  0.64999999231E+04  0.65000000000E+04  0.10000000000E+01 0.  0.
    9000001   -1    0    0    0    0 -0.00000000000E+00 -0.00000000000E+00 -0.64999999231E+04  0.65000000000E+04  0.10000000000E+01 0.  0.
    9000001    1    1    2    0    0  0.60436337601E+04 -0.50694439966E+03  0.23382680235E+04  0.65000000000E+04  0.10000000000E+01 0.  0.
    9000001    1    1    2    0    0 -0.60436337601E+04  0.50694439966E+03 -0.23382680235E+04  0.65000000000E+04  0.10000000000E+01 0.  0.
</event>
<event>
 4    1  0.2191064E-006  0.1300000E+05  0.7957747E-01  0.1322471E+00
    9000001   -1    0    0    0    0  0.00000000000E+00  0.00000000000E+00  0.64999999231E+04  0.65000000000E+04  0.10000000000E+01 0.  0.
    9000001   -1    0    0    0    0 -0.00000000000E+00 -0.00000000000E+00 -0.64999999231E+04  0.65000000000E+04  0.10000000000E+01 0.  0.
    9000001    1    1    2    0    0 -0.45985965620E+04  0.22199983898E+04  0.40217553145E+04  0.65000000000E+04  0.10000000000E+01 0.  0.
    9000001    1    1    2    0    0  0.45985965620E+04 -0.22199983898E+04 -0.40217553145E+04  0.65000000000E+04  0.10000000000E+01 0.  0.
</event>
<event>
 4    1  0.2191064E-006  0.1300000E+05  0.7957747E-01  0.1322471E+00
    9000001   -1    0    0    0    0  0.00000000000E+00  0.00000000000E+00  0.64999999231E+04  0.65000000000E+04  0.10000000000E+01 0.  0.
    9000001   -1    0    0    0    0 -0.00000000000E+00 -0.00000000000E+00 -0.64999999231E+04  0.65000000000E+04  0.10000000000E+01 0.  0.
    9000001    1    1    2    0    0 -0.24831933125E+04 -0.54043298758E+04  0.26223974844E+04  0.65000000000E+04  0.10000000000E+01 0.  0.
    9000001    1    1    2    0    0  0.24831933125E+04  0.54043298758E+04 -0.26223974844E+04  0.65000000000E+04  0.10000000000E+01 0.  0.
</event>
<event>
 4    1  0.2191064E-006  0.1300000E+05  0.7957747E-01  0.1322471E+00
    9000001   -1    0    0    0    0  0.00000000000E+00  0.00000000000E+00  0.64999999231E+04  0.65000000000E+04  0.10000000000E+01 0.  0.
    9000001   -1    0    0    0    0 -0.00000000000E+00 -0.00000000000E+00 -0.64999999231E+04  0.65000000000E+04  0.10000000000E+01 0.  0.
    9000001    1    1    2    0    0 -0.44165978001E+04 -0.34517198355E+04  0.32907891226E+04  0.65000000000E+04  0.10000000000E+01 0.  0.
    9000001    1    1    2    0    0  0.44165978001E+04  0.34517198355E+04 -0.32907891226E+04  0.65000000000E+04  0.10000000000E+01 0.  0.
</event>
<event>
 4    1  0.2191064E-006  0.1300000E+05  0.7957747E-01  0.1322471E+00
    9000001   -1    0    0    0    0  0.00000000000E+00  0.00000000000E+00  0.64999999231E+04  0.65000000000E+04  0.10000000000E+01 0.  0.
    9000001   -1    0    0    0    0 -0.00000000000E+00 -0.00000000000E+00 -0.64999999231E+04  0.65000000000E+04  0.10000000000E+01 0.  0.
    9000001    1    1    2    0    0  0.12803857136E+03 -0.47135969016E+04 -0.44738807956E+04  0.65000000000E+04  0.10000000000E+01 0.  0.
    9000001    1    1    2    0    0 -0.12803857136E+03  0.47135969016E+04  0.44738807956E+04  0.65000000000E+04  0.10000000000E+01 0.  0.
</event>
<event>
 4    1  0.2191064E-006  0.1300000E+05  0.7957747E-01  0.1322471E+00
    9000001   -1    0    0    0    0  0.00000000000E+00  0.00000000000E+00  0.64999999231E+04  0.65000000000E+04  0.10000000000E+01 0.  0.
    9000001   -1    0    0    0    0 -0.00000000000E+00 -0.00000000000E+00 -0.64999999231E+04  0.65000000000E+04  0.10000000000E+01 0.  0.
    9000001    1    1    2    0    0 -0.17391806204E+04  0.62223043743E+04 -0.71286607656E+03  0.65000000000E+04  0.10000000000E+01 0.  0.
    9000001    1    1    2    0    0  0.17391806204E+04 -0.62223043743E+04  0.71286607656E+03  0.65000000000E+04  0.10000000000E+01 0.  0.
</event>
<event>
 4    1  0.2191064E-006  0.1300000E+05  0.7957747E-01  0.1322471E+00
    9000001   -1    0    0    0    0  0.00000000000E+00  0.00000000000E+00  0.64999999231E+04  0.65000000000E+04  0.10000000000E+01 0.  0.
    9000001   -1    0    0    0    0 -0.00000000000E+00 -0.00000000000E+00 -0.64999999231E+04  0.65000000000E+04  0.10000000000E+01 0.  0.
    9000001    1    1    2    0    0  0.61438116411E+04 -0.14177985782E+04 -0.15790581718E+04  0.65000000000E+04  0.10000000000E+01 0.  0.
    9000001    1    1    2    0    0 -0.61438116411E+04  0.14177985782E+04  0.15790581718E+04  0.65000000000E+04  0.10000000000E+01 0.  0.
</event>
<event>
 4    1  0.2191064E-006  0.1300000E+05  0.7957747E-01  0.1322471E+00
    9000001   -1    0    0    0    0  0.00000000000E+00  0.00000000000E+00  0.64999999231E+04  0.65000000000E+04  0.10000000000E+01 0.  0.
    9000001   -1    0    0    0    0 -0.00000000000E+00 -0.00000000000E+00 -0.64999999231E+04  0.65000000000E+04  0.10000000000E+01 0.  0.
    9000001    1    1    2    0    0  0.63062439518E+04 -0.11174972627E+04 -0.11101739000E+04  0.65000000000E+04  0.10000000000E+01 0.  0.
    9000001    1    1    2    0    0 -0.63062439518E+04  0.11174972627E+04  0.11101739000E+04  0.65000000000E+04  0.10000000000E+01 0.  0.
</event>
<event>
 4    1  0.2191064E-006  0.1300000E+05  0.7957747E-01  0.1322471E+00
    9000001   -1    0    0    0    0  0.00000000000E+00  0.00000000000E+00  0.64999999231E+04  0.65000000000E+04  0.10000000000E+01 0.  0.
    9000001   -1    0    0    0    0 -0.00000000000E+00 -0.00000000000E+00 -0.64999999231E+04  0.65000000000E+04  0.10000000000E+01 0.  0.
    9000001    1    1    2    0    0 -0.11072604570E+04  0.57424298036E+04 -0.28369831215E+04  0.65000000000E+04  0.10000000000E+01 0.  0.
    9000001    1    1    2    0    0  0.11072604570E+04 -0.57424298036E+04  0.28369831215E+04  0.65000000000E+04  0.10000000000E+01 0.  0.
</event>
<event>
 4    1  0.2191064E-006  0.1300000E+05  0.7957747E-01  0.1322471E+00
    9000001   -1    0    0    0    0  0.00000000000E+00  0.00000000000E+00  0.64999999231E+04  0.65000000000E+04  0.10000000000E+01 0.  0.
    9000001   -1    0    0    0    0 -0.00000000000E+00 -0.00000000000E+00 -0.64999999231E+04  0.65000000000E+04  0.10000000000E+01 0.  0.
    9000001    1    1    2    0    0 -0.56570296698E+04 -0.25740906565E+04  0.19031740873E+04  0.65000000000E+04  0.10000000000E+01 0.  0.
    9000001    1    1    2    0    0  0.56570296698E+04  0.25740906565E+04 -0.19031740873E+04  0.65000000000E+04  0.10000000000E+01 0.  0.
</event>
<event>
 4    1  0.2191064E-006  0.1300000E+05  0.7957747E-01  0.1322471E+00
    9000001   -1    0    0    0    0  0.00000000000E+00  0.00000000000E+00  0.64999999231E+04  0.65000000000E+04  0.10000000000E+01 0.  0.
    9000001   -1    0    0    0    0 -0.00000000000E+00 -0.00000000000E+00 -0.64999999231E+04  0.65000000000E+04  0.10000000000E+01 0.  0.
    9000001    1    1    2    0    0 -0.45480782673E+04  0.23253708875E+04  0.40196558696E+04  0.65000000000E+04  0.10000000000E+01 0.  0.
    9000001    1    1    2    0    0  0.45480782673E+04 -0.23253708875E+04 -0.40196558696E+04  0.65000000000E+04  0.10000000000E+01 0.  0.
</event>
<event>
 4    1  0.2191064E-006  0.1300000E+05  0.7957747E-01  0.1322471E+00
    9000001   -1    0    0    0    0  0.00000000000E+00  0.00000000000E+00  0.64999999231E+04  0.65000000000E+04  0.10000000000E+01 0.  0.
    9000001   -1    0    0    0    0 -0.00000000000E+00 -0.00000000000E+00 -0.64999999231E+04  0.65000000000E+04  0.10000000000E+01 0.  0.
    9000001    1    1    2    0    0  0.17008037345E+04  0.51224600986E+04  0.36218321600E+04  0.65000000000E+04  0.10000000000E+01 0.  0.
    9000001    1    1    2    0    0 -0.17008037345E+04 -0.51224600986E+04 -0.36218321600E+04  0.65000000000E+04  0.10000000000E+01 0.  0.
</event>
<event>
 4    1  0.2191064E-006  0.1300000E+05  0.7957747E-01  0.1322471E+00
    9000001   -1    0    0    0    0  0.00000000000E+00  0.00000000000E+00  0.64999999231E+04  0.65000000000E+04  0.10000000000E+01 0.  0.
    9000001   -1    0    0    0    0 -0.00000000000E+00 -0.00000000000E+00 -0.64999999231E+04  0.65000000000E+04  0.10000000000E+01 0.  0.
    9000001    1    1    2    0    0 -0.11529792052E+04 -0.37195681688E+04 -0.52043684141E+04  0.65000000000E+04  0.10000000000E+01 0.  0.
    9000001    1    1    2    0    0  0.11529792052E+04  0.37195681688E+04  0.52043684141E+04  0.65000000000E+04  0.10000000000E+01 0.  0.
</event>
<event>
 4    1  0.2191064E-006  0.1300000E+05  0.7957747E-01  0.1322471E+00
    9000001   -1    0    0    0    0  0.00000000000E+00  0.00000000000E+00  0.64999999231E+04  0.65000000000E+04  0.10000000000E+01 0.  0.
    9000001   -1    0    0    0    0 -0.00000000000E+00 -0.00000000000E+00 -0.64999999231E+04  0.65000000000E+04  0.10000000000E+01 0.  0.
    9000001    1    1    2    0    0 -0.19836845863E+03  0.48583301961E+04  0.43136152656E+04  0.65000000000E+04  0.10000000000E+01 0.  0.
    9000001    1    1    2    0    0  0.19836845863E+03 -0.48583301961E+04 -0.43136152656E+04  0.65000000000E+04  0.10000000000E+01 0.  0.
</event>
<event>
 4    1  0.2191064E-006  0.1300000E+05  0.7957747E-01  0.1322471E+00
    9000001   -1    0    0    0    0  0.00000000000E+00  0.00000000000E+00  0.64999999231E+04  0.65000000000E+04  0.10000000000E+01 0.  0.
    9000001   -1    0    0    0    0 -0.00000000000E+00 -0.00000000000E+00 -0.64999999231E+04  0.65000000000E+04  0.10000000000E+01 0.  0.
    9000001    1    1    2    0    0  0.61242154704E+04 -0.30832438398E+03 -0.21561354193E+04  0.65000000000E+04  0.10000000000E+01 0.  0.
    9000001    1    1    2    0    0 -0.61242154704E+04  0.30832438398E+03  0.21561354193E+04  0.65000000000E+04  0.10000000000E+01 0.  0.
</event>
<event>
 4    1  0.2191064E-006  0.1300000E+05  0.7957747E-01  0.1322471E+00
    9000001   -1    0    0    0    0  0.00000000000E+00  0.00000000000E+00  0.64999999231E+04  0.65000000000E+04  0.10000000000E+01 0.  0.
    9000001   -1    0    0    0    0 -0.00000000000E+00 -0.00000000000E+00 -0.64999999231E+04  0.65000000000E+04  0.10000000000E+01 0.  0.
    9000001    1    1    2    0    0 -0.10824051541E+04  0.61212164730E+04  0.18997649782E+04  0.65000000000E+04  0.10000000000E+01 0.  0.
    9000001    1    1    2    0    0  0.10824051541E+04 -0.61212164730E+04 -0.18997649782E+04  0.65000000000E+04  0.10000000000E+01 0.  0.
</event>
<event>
 4    1  0.2191064E-006  0.1300000E+05  0.7957747E-01  0.1322471E+00
    9000001   -1    0    0    0    0  0.00000000000E+00  0.00000000000E+00  0.64999999231E+04  0.65000000000E+04  0.10000000000E+01 0.  0.
    9000001   -1    0    0    0    0 -0.00000000000E+00 -0.00000000000E+00 -0.64999999231E+04  0.65000000000E+04  0.10000000000E+01 0.  0.
    9000001    1    1    2    0    0  0.17120205333E+04 -0.58492444581E+04  0.22594963958E+04  0.65000000000E+04  0.10000000000E+01 0.  0.
    9000001    1    1    2    0    0 -0.17120205333E+04  0.58492444581E+04 -0.22594963958E+04  0.65000000000E+04  0.10000000000E+01 0.  0.
</event>
<event>
 4    1  0.2191064E-006  0.1300000E+05  0.7957747E-01  0.1322471E+00
    9000001   -1    0    0    0    0  0.00000000000E+00  0.00000000000E+00  0.64999999231E+04  0.65000000000E+04  0.10000000000E+01 0.  0.
    9000001   -1    0    0    0    0 -0.00000000000E+00 -0.00000000000E+00 -0.64999999231E+04  0.65000000000E+04  0.10000000000E+01 0.  0.
    9000001    1    1    2    0    0 -0.51570521129E+04 -0.10476992421E+04  0.38153818686E+04  0.65000000000E+04  0.10000000000E+01 0.  0.
    9000001    1    1    2    0    0  0.51570521129E+04  0.10476992421E+04 -0.38153818686E+04  0.65000000000E+04  0.10000000000E+01 0.  0.
</event>
<event>
 4    1  0.2191064E-006  0.1300000E+05  0.7957747E-01  0.1322471E+00
    9000001   -1    0    0    0    0  0.00000000000E+00  0.00000000000E+00  0.64999999231E+04  0.65000000000E+04  0.10000000000E+01 0.  0.
    9000001   -1    0    0    0    0 -0.00000000000E+00 -0.00000000000E+00 -0.64999999231E+04  0.65000000000E+04  0.10000000000E+01 0.  0.
    9000001    1    1    2    0    0 -0.46563374612E+04  0.27718482639E+03 -0.45267746818E+04  0.65000000000E+04  0.10000000000E+01 0.  0.
    9000001    1    1    2    0    0  0.46563374612E+04 -0.27718482639E+03  0.45267746818E+04  0.65000000000E+04  0.10000000000E+01 0.  0.
</event>
<event>
 4    1  0.2191064E-006  0.1300000E+05  0.7957747E-01  0.1322471E+00
    9000001   -1    0    0    0    0  0.00000000000E+00  0.00000000000E+00  0.64999999231E+04  0.65000000000E+04  0.10000000000E+01 0.  0.
    9000001   -1    0    0    0    0 -0.00000000000E+00 -0.00000000000E+00 -0.64999999231E+04  0.65000000000E+04  0.10000000000E+01 0.  0.
    9000001    1    1    2    0    0 -0.29218040484E+04 -0.53100585332E+04 -0.23486886718E+04  0.65000000000E+04  0.10000000000E+01 0.  0.
    9000001    1    1    2    0    0  0.29218040484E+04  0.53100585332E+04  0.23486886718E+04  0.65000000000E+04  0.10000000000E+01 0.  0.
</event>
<event>
 4    1  0.2191064E-006  0.1300000E+05  0.7957747E-01  0.1322471E+00
    9000001   -1    0    0    0    0  0.00000000000E+00  0.00000000000E+00  0.64999999231E+04  0.65000000000E+04  0.10000000000E+01 0.  0.
    9000001   -1    0    0    0    0 -0.00000000000E+00 -0.00000000000E+00 -0.64999999231E+04  0.65000000000E+04  0.10000000000E+01 0.  0.
    9000001    1    1    2    0    0 -0.30250907897E+04  0.51950332474E+04  0.24719333065E+04  0.65000000000E+04  0.10000000000E+01 0.  0.
    9000001    1    1    2    0    0  0.30250907897E+04 -0.51950332474E+04 -0.24719333065E+04  0.65000000000E+04  0.10000000000E+01 0.  0.
</event>
<event>
 4    1  0.2191064E-006  0.1300000E+05  0.7957747E-01  0.1322471E+00
    9000001   -1    0    0    0    0  0.00000000000E+00  0.00000000000E+00  0.64999999231E+04  0.65000000000E+04  0.10000000000E+01 0.  0.
    9000001   -1    0    0    0    0 -0.00000000000E+00 -0.00000000000E+00 -0.64999999231E+04  0.65000000000E+04  0.10000000000E+01 0.  0.
    9000001    1    1    2    0    0  0.10964041661E+04 -0.57035993374E+04 -0.29183645255E+04  0.65000000000E+04  0.10000000000E+01 0.  0.
    9000001    1    1    2    0    0 -0.10964041661E+04  0.57035993374E+04  0.29183645255E+04  0.65000000000E+04  0.10000000000E+01 0.  0.
</event>
<event>
 4    1  0.2191064E-006  0.1300000E+05  0.7957747E-01  0.1322471E+00
    9000001   -1    0    0    0    0  0.00000000000E+00  0.00000000000E+00  0.64999999231E+04  0.65000000000E+04  0.10000000000E+01 0.  0.
    9000001   -1    0    0    0    0 -0.00000000000E+00 -0.00000000000E+00 -0.64999999231E+04  0.65000000000E+04  0.10000000000E+01 0.  0.
    9000001    1    1    2    0    0 -0.49878574516E+04 -0.40450715322E+04 -0.10043273085E+04  0.65000000000E+04  0.10000000000E+01 0.  0.
    9000001    1    1    2    0    0  0.49878574516E+04  0.40450715322E+04  0.10043273085E+04  0.65000000000E+04  0.10000000000E+01 0.  0.
</event>
<event>
 4    1  0.2191064E-006  0.1300000E+05  0.7957747E-01  0.1322471E+00
    9000001   -1    0    0    0    0  0.00000000000E+00  0.00000000000E+00  0.64999999231E+04  0.65000000000E+04  0.10000000000E+01 0.  0.
    9000001   -1    0    0    0    0 -0.00000000000E+00 -0.00000000000E+00 -0.64999999231E+04  0.65000000000E+04  0.10000000000E+01 0.  0.
    9000001    1    1    2    0    0 -0.36319014200E+04  0.24038406937E+04 -0.48250223828E+04  0.65000000000E+04  0.10000000000E+01 0.  0.
    9000001    1    1    2    0    0  0.36319014200E+04 -0.24038406937E+04  0.48250223828E+04  0.65000000000E+04  0.10000000000E+01 0.  0.
</event>
<event>
 4    1  0.2191064E-006  0.1300000E+05  0.7957747E-01  0.1322471E+00
    9000001   -1    0    0    0    0  0.00000000000E+00  0.00000000000E+00  0.64999999231E+04  0.65000000000E+04  0.10000000000E+01 0.  0.
    9000001   -1    0    0    0    0 -0.00000000000E+00 -0.00000000000E+00 -0.64999999231E+04  0.65000000000E+04  0.10000000000E+01 0.  0.
    9000001    1    1    2    0    0  0.39616131053E+04  0.16690351825E+04  0.48754427659E+04  0.65000000000E+04  0.10000000000E+01 0.  0.
    9000001    1    1    2    0    0 -0.39616131053E+04 -0.16690351825E+04 -0.48754427659E+04  0.65000000000E+04  0.10000000000E+01 0.  0.
</event>
<event>
 4    1  0.2191064E-006  0.1300000E+05  0.7957747E-01  0.1322471E+00
    9000001   -1    0    0    0    0  0.00000000000E+00  0.00000000000E+00  0.64999999231E+04  0.65000000000E+04  0.10000000000E+01 0.  0.
    9000001   -1    0    0    0    0 -0.00000000000E+00 -0.00000000000E+00 -0.64999999231E+04  0.65000000000E+04  0.10000000000E+01 0.  0.
    9000001    1    1    2    0    0 -0.40725822185E+04 -0.77045220960E+02  0.50653861756E+04  0.65000000000E+04  0.10000000000E+01 0.  0.
    9000001    1    1    2    0    0  0.40725822185E+04  0.77045220960E+02 -0.50653861756E+04  0.65000000000E+04  0.10000000000E+01 0.  0.
</event>
<event>
 4    1  0.2191064E-006  0.1300000E+05  0.7957747E-01  0.1322471E+00
    9000001   -1    0    0    0    0  0.00000000000E+00  0.00000000000E+00  0.64999999231E+04  0.65000000000E+04  0.10000000000E+01 0.  0.
    9000001   -1    0    0    0    0 -0.00000000000E+00 -0.00000000000E+00 -0.64999999231E+04  0.65000000000E+04  0.10000000000E+01 0.  0.
    9000001    1    1    2    0    0 -0.17021836043E+04  0.25292128531E+03  0.62680619653E+04  0.65000000000E+04  0.10000000000E+01 0.  0.
    9000001    1    1    2    0    0  0.17021836043E+04 -0.25292128531E+03 -0.62680619653E+04  0.65000000000E+04  0.10000000000E+01 0.  0.
</event>
<event>
 4    1  0.2191064E-006  0.1300000E+05  0.7957747E-01  0.1322471E+00
    9000001   -1    0    0    0    0  0.00000000000E+00  0.00000000000E+00  0.64999999231E+04  0.65000000000E+04  0.10000000000E+01 0.  0.
    9000001   -1    0    0    0    0 -0.00000000000E+00 -0.00000000000E+00 -0.64999999231E+04  0.65000000000E+04  0.10000000000E+01 0.  0.
    9000001    1    1    2    0    0 -0.39834170133E+04  0.51098878542E+04  0.52099329743E+03  0.65000000000E+04  0.10000000000E+01 0.  0.
    9000001    1    1    2    0    0  0.39834170133E+04 -0.51098878542E+04 -0.52099329743E+03  0.65000000000E+04  0.10000000000E+01 0.  0.
</event>
<event>
 4    1  0.2191064E-006  0.1300000E+05  0.7957747E-01  0.1322471E+00
    9000001   -1    0    0    0    0  0.00000000000E+00  0.00000000000E+00  0.64999999231E+04  0.65000000000E+04  0.10000000000E+01 0.  0.
    9000001   -1    0    0    0    0 -0.00000000000E+00 -0.00000000000E+00 -0.64999999231E+04  0.65000000000E+04  0.10000000000E+01 0.  0.
    9000001    1    1    2    0    0  0.34608315057E+04  0.53585256273E+04 -0.12485381013E+04  0.65000000000E+04  0.10000000000E+01 0.  0.
    9000001    1    1    2    0    0 -0.34608315057E+04 -0.53585256273E+04  0.12485381013E+04  0.65000000000E+04  0.10000000000E+01 0.  0.
</event>
<event>
 4    1  0.2191064E-006  0.1300000E+05  0.7957747E-01  0.1322471E+00
    9000001   -1    0    0    0    0  0.00000000000E+00  0.00000000000E+00  0.64999999231E+04  0.65000000000E+04  0.10000000000E+01 0.  0.
    9000001   -1    0    0    0    0 -0.00000000000E+00 -0.00000000000E+00 -0.64999999231E+04  0.65000000000E+04  0.10000000000E+01 0.  0.
    9000001    1    1    2    0    0  0.59604449274E+04  0.78888938230E+03 -0.24699693945E+04  0.65000000000E+04  0.10000000000E+01 0.  0.
    9000001    1    1    2    0    0 -0.59604449274E+04 -0.78888938230E+03  0.24699693945E+04  0.65000000000E+04  0.10000000000E+01 0.  0.
</event>
<event>
 4    1  0.2191064E-006  0.1300000E+05  0.7957747E-01  0.1322471E+00
    9000001   -1    0    0    0    0  0.00000000000E+00  0.00000000000E+00  0.64999999231E+04  0.65000000000E+04  0.10000000000E+01 0.  0.
    9000001   -1    0    0    0    0 -0.00000000000E+00 -0.00000000000E+00 -0.64999999231E+04  0.65000000000E+04  0.10000000000E+01 0.  0.
    9000001    1    1    2    0    0  0.33254579177E+04  0.55823024164E+04 -0.17096306417E+03  0.65000000000E+04  0.10000000000E+01 0.  0.
    9000001    1    1    2    0    0 -0.33254579177E+04 -0.55823024164E+04  0.17096306417E+03  0.65000000000E+04  0.10000000000E+01 0.  0.
</event>
<event>
 4    1  0.2191064E-006  0.1300000E+05  0.7957747E-01  0.1322471E+00
    9000001   -1    0    0    0    0  0.00000000000E+00  0.00000000000E+00  0.64999999231E+04  0.65000000000E+04  0.10000000000E+01 0.  0.
    9000001   -1    0    0    0    0 -0.00000000000E+00 -0.00000000000E+00 -0.64999999231E+04  0.65000000000E+04  0.10000000000E+01 0.  0.
    9000001    1    1    2    0    0 -0.50792440100E+03 -0.48678519854E+03 -0.64618149133E+04  0.65000000000E+04  0.10000000000E+01 0.  0.
    9000001    1    1    2    0    0  0.50792440100E+03  0.48678519854E+03  0.64618149133E+04  0.65000000000E+04  0.10000000000E+01 0.  0.
</event>
<event>
 4    1  0.2191064E-006  0.1300000E+05  0.7957747E-01  0.1322471E+00
    9000001   -1    0    0    0    0  0.00000000000E+00  0.00000000000E+00  0.64999999231E+04  0.65000000000E+04  0.10000000000E+01 0.  0.
    9000001   -1    0    0    0    0 -0.00000000000E+00 -0.00000000000E+00 -0.64999999231E+04  0.65000000000E+04  0.10000000000E+01 0.  0.
    9000001    1    1    2    0    0  0.18732726491E+04 -0.44226197340E+04 -0.43796441945E+04  0.65000000000E+04  0.10000000000E+01 0.  0.
    9000001    1    1    2    0    0 -0.18732726491E+04  0.44226197340E+04  0.43796441945E+04  0.65000000000E+04  0.10000000000E+01 0.  0.
</event>
<event>
 4    1  0.2191064E-006  0.1300000E+05  0.7957747E-01  0.1322471E+00
    9000001   -1    0    0    0    0  0.00000000000E+00  0.00000000000E+00  0.64999999231E+04  0.65000000000E+04  0.10000000000E+01 0.  0.
    9000001   -1    0    0    0    0 -0.00000000000E+00 -0.00000000000E+00 -0.64999999231E+04  0.65000000000E+04  0.10000000000E+01 0.  0.
    9000001    1    1    2    0    0  0.58562360942E+04  0.76486590206E+03  0.27146782426E+04  0.65000000000E+04  0.10000000000E+01 0.  0.
    9000001    1    1    2    0    0 -0.58562360942E+04 -0.76486590206E+03 -0.27146782426E+04  0.65000000000E+04  0.10000000000E+01 0.  0.
</event>
<event>
 4    1  0.2191064E-006  0.1300000E+05  0.7957747E-01  0.1322471E+00
    9000001   -1    0    0    0    0  0.00000000000E+00  0.00000000000E+00  0.64999999231E+04  0.65000000000E+04  0.10000000000E+01 0.  0.
    9000001   -1    0    0    0    0 -0.00000000000E+00 -0.00000000000E+00 -0.64999999231E+04  0.65000000000E+04  0.10000000000E+01 0.  0.
    9000001    1    1    2    0    0  0.60648674285E+02  0.22817695690E+04 -0.60860371649E+04  0.65000000000E+04  0.10000000000E+01 0.  0.
    9000001    1    1    2    0    0 -0.60648674285E+02 -0.22817695690E+04  0.60860371649E+04  0.65000000000E+04  0.10000000000E+01 0.  0.
</event>
<event>
 4    1  0.2191064E-006  0.1300000E+05  0.7957747E-01  0.1322471E+00
    9000001   -1    0    0    0    0  0.00000000000E+00  0.00000000000E+00  0.64999999231E+04  0.65000000000E+04  0.10000000000E+01 0.  0.
    9000001   -1    0    0    0    0 -0.00000000000E+00 -0.00000000000E+00 -0.64999999231E+04  0.65000000000E+04  0.10000000000E+01 0.  0.
    9000001    1    1    2    0    0  0.15394433125E+04 -0.61289690797E+04 -0.15217921366E+04  0.65000000000E+04  0.10000000000E+01 0.  0.
    9000001    1    1    2    0    0 -0.15394433125E+04  0.61289690797E+04  0.15217921366E+04  0.65000000000E+04  0.10000000000E+01 0.  0.
</event>
<event>
 4    1  0.2191064E-006  0.1300000E+05  0.7957747E-01  0.1322471E+00
    9000001   -1    0    0    0    0  0.00000000000E+00  0.00000000000E+00  0.64999999231E+04  0.65000000000E+04  0.10000000000E+01 0.  0.
    9000001   -1    0    0    0    0 -0.00000000000E+00 -0.00000000000E+00 -0.64999999231E+04  0.65000000000E+04  0.10000000000E+01 0.  0.
    9000001    1    1    2    0    0 -0.33925027468E+04 -0.33230480703E+04  0.44382739478E+04  0.65000000000E+04  0.10000000000E+01 0.  0.
    9000001    1    1    2    0    0  0.33925027468E+04  0.33230480703E+04 -0.44382739478E+04  0.65000000000E+04  0.10000000000E+01 0.  0.
</event>
<event>
 4    1  0.2191064E-006  0.1300000E+05  0.7957747E-01  0.1322471E+00
    9000001   -1    0    0    0    0  0.00000000000E+00  0.00000000000E+00  0.64999999231E+04  0.65000000000E+04  0.10000000000E+01 0.  0.
    9000001   -1    0    0    0    0 -0.00000000000E+00 -0.00000000000E+00 -0.64999999231E+04  0.65000000000E+04  0.10000000000E+01 0.  0.
    9000001    1    1    2    0    0  0.17134024335E+04 -0.60967980392E+04 -0.14640029952E+04  0.65000000000E+04  0.10000000000E+01 0.  0.
    9000001    1    1    2    0    0 -0.17134024335E+04  0.60967980392E+04  0.14640029952E+04  0.65000000000E+04  0.10000000000E+01 0.  0.
</event>
<event>
 4    1  0.2191064E-006  0.1300000E+05  0.7957747E-01  0.1322471E+00
    9000001   -1    0    0    0    0  0.00000000000E+00  0.00000000000E+00  0.64999999231E+04  0.65000000000E+04  0.10000000000E+01 0.  0.
    9000001   -1    0    0    0    0 -0.00000000000E+00 -0.00000000000E+00 -0.64999999231E+04  0.65000000000E+04  0.10000000000E+01 0.  0.
    9000001    1    1    2    0    0  0.61990586456E+04 -0.12727411897E+04 -0.14838466135E+04  0.65000000000E+04  0.10000000000E+01 0.  0.
    9000001    1    1    2    0    0 -0.61990586456E+04  0.12727411897E+04  0.14838466135E+04  0.65000000000E+04  0.10000000000E+01 0.  0.
</event>
<event>
 4    1  0.2191064E-006  0.1300000E+05  0.7957747E-01  0.1322471E+00
    9000001   -1    0    0    0    0  0.00000000000E+00  0.00000000000E+00  0.64999999231E+04  0.65000000000E+04  0.10000000000E+01 0.  0.
    9000001   -1    0    0    0    0 -0.00000000000E+00 -0.00000000000E+00 -0.64999999231E+04  0.65000000000E+04  0.10000000000E+01 0.  0.
    9000001    1    1    2    0    0 -0.60166330536E+04 -0.10093151705E+03  0.24576286391E+04  0.65000000000E+04  0.10000000000E+01 0.  0.
    9000001    1    1    2    0    0  0.60166330536E+04  0.10093151705E+03 -0.24576286391E+04  0.65000000000E+04  0.10000000000E+01 0.  0.
</event>
<event>
 4    1  0.2191064E-006  0.1300000E+05  0.7957747E-01  0.1322471E+00
    9000001   -1    0    0    0    0  0.00000000000E+00  0.00000000000E+00  0.64999999231E+04  0.65000000000E+04  0.10000000000E+01 0.  0.
    9000001   -1    0    0    0    0 -0.00000000000E+00 -0.00000000000E+00 -0.64999999231E+04  0.65000000000E+04  0.10000000000E+01 0.  0.
    9000001    1    1    2    0    0  0.41784791447E+04  0.37421081484E+04 -0.32843473693E+04  0.65000000000E+04  0.10000000000E+01 0.  0.
    9000001    1    1    2    0    0 -0.41784791447E+04 -0.37421081484E+04  0.32843473693E+04  0.65000000000E+04  0.10000000000E+01 0.  0.
</event>
<event>
 4    1  0.2191064E-006  0.1300000E+05  0.7957747E-01  0.1322471E+00
    9000001   -1    0    0    0    0  0.00000000000E+00  0.00000000000E+00  0.64999999231E+04  0.65000000000E+04  0.10000000000E+01 0.  0.
    9000001   -1    0    0    0    0 -0.00000000000E+00 -0.00000000000E+00 -0.64999999231E+04  0.65000000000E+04  0.10000000000E+01 0.  0.
    9000001    1    1    2    0    0  0.64143130979E+04 -0.53462274446E+03 -0.90596081769E+03  0.65000000000E+04  0.10000000000E+01 0.  0.
    9000001    1    1    2    0    0 -0.64143130979E+04  0.53462274446E+03  0.90596081769E+03  0.65000000000E+04  0.10000000000E+01 0.  0.
</event>
<event>
 4    1  0.2191064E-006  0.1300000E+05  0.7957747E-01  0.1322471E+00
    9000001   -1    0    0    0    0  0.00000000000E+00  0.00000000000E+00  0.64999999231E+04  0.65000000000E+04  0.10000000000E+01 0.  0.
    9000001   -1    0    0    0    0 -0.00000000000E+00 -0.00000000000E+00 -0.64999999231E+04  0.65000000000E+04  0.10000000000E+01 0.  0.
    9000001    1    1    2    0    0  0.55503364196E+04 -0.48361275630E+03 -0.33481163856E+04  0.65000000000E+04  0.10000000000E+01 0.  0.
    9000001    1    1    2    0    0 -0.55503364196E+04  0.48361275630E+03  0.33481163856E+04  0.65000000000E+04  0.10000000000E+01 0.  0.
</event>
<event>
 4    1  0.2191064E-006  0.1300000E+05  0.7957747E-01  0.1322471E+00
    9000001   -1    0    0    0    0  0.00000000000E+00  0.00000000000E+00  0.64999999231E+04  0.65000000000E+04  0.10000000000E+01 0.  0.
    9000001   -1    0    0    0    0 -0.00000000000E+00 -0.00000000000E+00 -0.64999999231E+04  0.65000000000E+04  0.10000000000E+01 0.  0.
    9000001    1    1    2    0    0 -0.22473447475E+04 -0.24765791625E+04  0.55736878489E+04  0.65000000000E+04  0.10000000000E+01 0.  0.
    9000001    1    1    2    0    0  0.22473447475E+04  0.24765791625E+04 -0.55736878489E+04  0.65000000000E+04  0.10000000000E+01 0.  0.
</event>
<event>
 4    1  0.2191064E-006  0.1300000E+05  0.7957747E-01  0.1322471E+00
    9000001   -1    0    0    0    0  0.00000000000E+00  0.00000000000E+00  0.64999999231E+04  0.65000000000E+04  0.10000000000E+01 0.  0.
    9000001   -1    0    0    0    0 -0.00000000000E+00 -0.00000000000E+00 -0.64999999231E+04  0.65000000000E+04  0.10000000000E+01 0.  0.
    9000001    1    1    2    0    0  0.24112858983E+04  0.26761313934E+04 -0.54105471148E+04  0.65000000000E+04  0.10000000000E+01 0.  0.
    9000001    1    1    2    0    0 -0.24112858983E+04 -0.26761313934E+04  0.54105471148E+04  0.65000000000E+04  0.10000000000E+01 0.  0.
</event>
<event>
 4    1  0.2191064E-006  0.1300000E+05  0.7957747E-01  0.1322471E+00
    9000001   -1    0    0    0    0  0.00000000000E+00  0.00000000000E+00  0.64999999231E+04  0.65000000000E+04  0.10000000000E+01 0.  0.
    9000001   -1    0    0    0    0 -0.00000000000E+00 -0.00000000000E+00 -0.64999999231E+04  0.65000000000E+04  0.10000000000E+01 0.  0.
    9000001    1    1    2    0    0 -0.14260391545E+04 -0.14520556440E+04 -0.61731633493E+04  0.65000000000E+04  0.10000000000E+01 0.  0.
    9000001    1    1    2    0    0  0.14260391545E+04  0.14520556440E+04  0.61731633493E+04  0.65000000000E+04  0.10000000000E+01 0.  0.
</event>
<event>
 4    1  0.2191064E-006  0.1300000E+05  0.7957747E-01  0.1322471E+00
    9000001   -1    0    0    0    0  0.00000000000E+00  0.00000000000E+00  0.64999999231E+04  0.65000000000E+04  0.10000000000E+01 0.  0.
    9000001   -1    0    0    0    0 -0.00000000000E+00 -0.00000000000E+00 -0.64999999231E+04  0.65000000000E+04  0.10000000000E+01 0.  0.
    9000001    1    1    2    0    0 -0.17028024774E+04  0.60897352737E+04  0.15051867060E+04  0.65000000000E+04  0.10000000000E+01 0.  0.
    9000001    1    1    2    0    0  0.17028024774E+04 -0.60897352737E+04 -0.15051867060E+04  0.65000000000E+04  0.10000000000E+01 0.  0.
</event>
<event>
 4    1  0.2191064E-006  0.1300000E+05  0.7957747E-01  0.1322471E+00
    9000001   -1    0    0    0    0  0.00000000000E+00  0.00000000000E+00  0.64999999231E+04  0.65000000000E+04  0.10000000000E+01 0.  0.
    9000001   -1    0    0    0    0 -0.00000000000E+00 -0.00000000000E+00 -0.64999999231E+04  0.65000000000E+04  0.10000000000E+01 0.  0.
    9000001    1    1    2    0    0  0.34262003312E+04 -0.12873923674E+04  0.53715706440E+04  0.65000000000E+04  0.10000000000E+01 0.  0.
    9000001    1    1    2    0    0 -0.34262003312E+04  0.12873923674E+04 -0.53715706440E+04  0.65000000000E+04  0.10000000000E+01 0.  0.
</event>
<event>
 4    1  0.2191064E-006  0.1300000E+05  0.7957747E-01  0.1322471E+00
    9000001   -1    0    0    0    0  0.00000000000E+00  0.00000000000E+00  0.64999999231E+04  0.65000000000E+04  0.10000000000E+01 0.  0.
    9000001   -1    0    0    0    0 -0.00000000000E+00 -0.00000000000E+00 -0.64999999231E+04  0.65000000000E+04  0.10000000000E+01 0.  0.
    9000001    1    1    2    0    0 -0.53993261207E+04 -0.26738641852E+03 -0.36091246785E+04  0.65000000000E+04  0.10000000000E+01 0.  0.
    9000001    1    1    2    0    0  0.53993261207E+04  0.26738641852E+03  0.36091246785E+04  0.65000000000E+04  0.10000000000E+01 0.  0.
</event>
<event>
 4    1  0.2191064E-006  0.1300000E+05  0.7957747E-01  0.1322471E+00
    9000001   -1    0    0    0    0  0.00000000000E+00  0.00000000000E+00  0.64999999231E+04  0.65000000000E+04  0.10000000000E+01 0.  0.
    9000001   -1    0    0    0    0 -0.00000000000E+00 -0.00000000000E+00 -0.64999999231E+04  0.65000000000E+04  0.10000000000E+01 0.  0.
    9000001    1    1    2    0    0 -0.14159414117E+04 -0.61352287325E+04  0.16137153771E+04  0.65000000000E+04  0.10000000000E+01 0.  0.
    9000001    1    1    2    0    0  0.14159414117E+04  0.61352287325E+04 -0.16137153771E+04  0.65000000000E+04  0.10000000000E+01 0.  0.
</event>
<event>
 4    1  0.2191064E-006  0.1300000E+05  0.7957747E-01  0.1322471E+00
    9000001   -1    0    0    0    0  0.00000000000E+00  0.00000000000E+00  0.64999999231E+04  0.65000000000E+04  0.10000000000E+01 0.  0.
    9000001   -1    0    0    0    0 -0.00000000000E+00 -0.00000000000E+00 -0.64999999231E+04  0.65000000000E+04  0.10000000000E+01 0.  0.
    9000001    1    1    2    0    0 -0.25264017318E+03  0.39128303873E+04  0.51842000639E+04  0.65000000000E+04  0.10000000000E+01 0.  0.
    9000001    1    1    2    0    0  0.25264017318E+03 -0.39128303873E+04 -0.51842000639E+04  0.65000000000E+04  0.10000000000E+01 0.  0.
</event>
<event>
 4    1  0.2191064E-006  0.1300000E+05  0.7957747E-01  0.1322471E+00
    9000001   -1    0    0    0    0  0.00000000000E+00  0.00000000000E+00  0.64999999231E+04  0.65000000000E+04  0.10000000000E+01 0.  0.
    9000001   -1    0    0    0    0 -0.00000000000E+00 -0.00000000000E+00 -0.64999999231E+04  0.65000000000E+04  0.10000000000E+01 0.  0.
    9000001    1    1    2    0    0  0.26391700323E+04  0.36869818695E+04  0.46573538876E+04  0.65000000000E+04  0.10000000000E+01 0.  0.
    9000001    1    1    2    0    0 -0.26391700323E+04 -0.36869818695E+04 -0.46573538876E+04  0.65000000000E+04  0.10000000000E+01 0.  0.
</event>
<event>
 4    1  0.2191064E-006  0.1300000E+05  0.7957747E-01  0.1322471E+00
    9000001   -1    0    0    0    0  0.00000000000E+00  0.00000000000E+00  0.64999999231E+04  0.65000000000E+04  0.10000000000E+01 0.  0.
    9000001   -1    0    0    0    0 -0.00000000000E+00 -0.00000000000E+00 -0.64999999231E+04  0.65000000000E+04  0.10000000000E+01 0.  0.
    9000001    1    1    2    0    0 -0.46653261995E+04  0.41170924282E+04 -0.18799681885E+04  0.65000000000E+04  0.10000000000E+01 0.  0.
    9000001    1    1    2    0    0  0.46653261995E+04 -0.41170924282E+04  0.18799681885E+04  0.65000000000E+04  0.10000000000E+01 0.  0.
</event>
<event>
 4    1  0.2191064E-006  0.1300000E+05  0.7957747E-01  0.1322471E+00
    9000001   -1    0    0    0    0  0.00000000000E+00  0.00000000000E+00  0.64999999231E+04  0.65000000000E+04  0.10000000000E+01 0.  0.
    9000001   -1    0    0    0    0 -0.00000000000E+00 -0.00000000000E+00 -0.64999999231E+04  0.65000000000E+04  0.10000000000E+01 0.  0.
    9000001    1    1    2    0    0  0.53014947612E+04  0.95432924278E+03 -0.36377751434E+04  0.65000000000E+04  0.10000000000E+01 0.  0.
    9000001    1    1    2    0    0 -0.53014947612E+04 -0.95432924278E+03  0.36377751434E+04  0.65000000000E+04  0.10000000000E+01 0.  0.
</event>
<event>
 4    1  0.2191064E-006  0.1300000E+05  0.7957747E-01  0.1322471E+00
    9000001   -1    0    0    0    0  0.00000000000E+00  0.00000000000E+00  0.64999999231E+04  0.65000000000E+04  0.10000000000E+01 0.  0.
    9000001   -1    0    0    0    0 -0.00000000000E+00 -0.00000000000E+00 -0.64999999231E+04  0.65000000000E+04  0.10000000000E+01 0.  0.
    9000001    1    1    2    0    0 -0.46251989824E+04  0.38311146514E+04  0.24859794651E+04  0.65000000000E+04  0.10000000000E+01 0.  0.
    9000001    1    1    2    0    0  0.46251989824E+04 -0.38311146514E+04 -0.24859794651E+04  0.65000000000E+04  0.10000000000E+01 0.  0.
</event>
<event>
 4    1  0.2191064E-006  0.1300000E+05  0.7957747E-01  0.1322471E+00
    9000001   -1    0    0    0    0  0.00000000000E+00  0.00000000000E+00  0.64999999231E+04  0.65000000000E+04  0.10000000000E+01 0.  0.
    9000001   -1    0    0    0    0 -0.00000000000E+00 -0.00000000000E+00 -0.64999999231E+04  0.65000000000E+04  0.10000000000E+01 0.  0.
    9000001    1    1    2    0    0  0.40122415754E+04 -0.48945765830E+04 -0.14815655956E+04  0.65000000000E+04  0.10000000000E+01 0.  0.
    9000001    1    1    2    0    0 -0.40122415754E+04  0.48945765830E+04  0.14815655956E+04  0.65000000000E+04  0.10000000000E+01 0.  0.
</event>
<event>
 4    1  0.2191064E-006  0.1300000E+05  0.7957747E-01  0.1322471E+00
    9000001   -1    0    0    0    0  0.00000000000E+00  0.00000000000E+00  0.64999999231E+04  0.65000000000E+04  0.10000000000E+01 0.  0.
    9000001   -1    0    0    0    0 -0.00000000000E+00 -0.00000000000E+00 -0.64999999231E+04  0.65000000000E+04  0.10000000000E+01 0.  0.
    9000001    1    1    2    0    0 -0.23734531033E+04 -0.52703485091E+04 -0.29732382950E+04  0.65000000000E+04  0.10000000000E+01 0.  0.
    9000001    1    1    2    0    0  0.23734531033E+04  0.52703485091E+04  0.29732382950E+04  0.65000000000E+04  0.10000000000E+01 0.  0.
</event>
<event>
 4    1  0.2191064E-006  0.1300000E+05  0.7957747E-01  0.1322471E+00
    9000001   -1    0    0    0    0  0.00000000000E+00  0.00000000000E+00  0.64999999231E+04  0.65000000000E+04  0.10000000000E+01 0.  0.
    9000001   -1    0    0    0    0 -0.00000000000E+00 -0.00000000000E+00 -0.64999999231E+04  0.65000000000E+04  0.10000000000E+01 0.  0.
    9000001    1    1    2    0    0  0.36164920592E+04  0.31696559066E+04 -0.43731299569E+04  0.65000000000E+04  0.10000000000E+01 0.  0.
    9000001    1    1    2    0    0 -0.36164920592E+04 -0.31696559066E+04  0.43731299569E+04  0.65000000000E+04  0.10000000000E+01 0.  0.
</event>
<event>
 4    1  0.2191064E-006  0.1300000E+05  0.7957747E-01  0.1322471E+00
    9000001   -1    0    0    0    0  0.00000000000E+00  0.00000000000E+00  0.64999999231E+04  0.65000000000E+04  0.10000000000E+01 0.  0.
    9000001   -1    0    0    0    0 -0.00000000000E+00 -0.00000000000E+00 -0.64999999231E+04  0.65000000000E+04  0.10000000000E+01 0.  0.
    9000001    1    1    2    0    0 -0.56813725012E+03 -0.32967974297E+04 -0.55730015048E+04  0.65000000000E+04  0.10000000000E+01 0.  0.
    9000001    1    1    2    0    0  0.56813725012E+03  0.32967974297E+04  0.55730015048E+04  0.65000000000E+04  0.10000000000E+01 0.  0.
</event>
<event>
 4    1  0.2191064E-006  0.1300000E+05  0.7957747E-01  0.1322471E+00
    9000001   -1    0    0    0    0  0.00000000000E+00  0.00000000000E+00  0.64999999231E+04  0.65000000000E+04  0.10000000000E+01 0.  0.
    9000001   -1    0    0    0    0 -0.00000000000E+00 -0.00000000000E+00 -0.64999999231E+04  0.65000000000E+04  0.10000000000E+01 0.  0.
    9000001    1    1    2    0    0  0.20838558967E+02  0.38567040414E+04  0.52321504844E+04  0.65000000000E+04  0.10000000000E+01 0.  0.
    9000001    1    1    2    0    0 -0.20838558967E+02 -0.38567040414E+04 -0.52321504844E+04  0.65000000000E+04  0.10000000000E+01 0.  0.
</event>
<event>
 4    1  0.2191064E-006  0.1300000E+05  0.7957747E-01  0.1322471E+00
    9000001   -1    0    0    0    0  0.00000000000E+00  0.00000000000E+00  0.64999999231E+04  0.65000000000E+04  0.10000000000E+01 0.  0.
    9000001   -1    0    0    0    0 -0.00000000000E+00 -0.00000000000E+00 -0.64999999231E+04  0.65000000000E+04  0.10000000000E+01 0.  0.
    9000001    1    1    2    0    0 -0.33206578667E+04 -0.55791435009E+04 -0.31046437456E+03  0.65000000000E+04  0.10000000000E+01 0.  0.
    9000001    1    1    2    0    0  0.33206578667E+04  0.55791435009E+04  0.31046437456E+03  0.65000000000E+04  0.10000000000E+01 0.  0.
</event>
<event>
 4    1  0.2191064E-006  0.1300000E+05  0.7957747E-01  0.1322471E+00
    9000001   -1    0    0    0    0  0.00000000000E+00  0.00000000000E+00  0.64999999231E+04  0.65000000000E+04  0.10000000000E+01 0.  0.
    9000001   -1    0    0    0    0 -0.00000000000E+00 -0.00000000000E+00 -0.64999999231E+04  0.65000000000E+04  0.10000000000E+01 0.  0.
    9000001    1    1    2    0    0 -0.32419032002E+04 -0.70001662933E+03  0.55901734641E+04  0.65000000000E+04  0.10000000000E+01 0.  0.
    9000001    1    1    2    0    0  0.32419032002E+04  0.70001662933E+03 -0.55901734641E+04  0.65000000000E+04  0.10000000000E+01 0.  0.
</event>
<event>
 4    1  0.2191064E-006  0.1300000E+05  0.7957747E-01  0.1322471E+00
    9000001   -1    0    0    0    0  0.00000000000E+00  0.00000000000E+00  0.64999999231E+04  0.65000000000E+04  0.10000000000E+01 0.  0.
    9000001   -1    0    0    0    0 -0.00000000000E+00 -0.00000000000E+00 -0.64999999231E+04  0.65000000000E+04  0.10000000000E+01 0.  0.
    9000001    1    1    2    0    0  0.25359777065E+04 -0.11921835474E+04 -0.58649394252E+04  0.65000000000E+04  0.10000000000E+01 0.  0.
    9000001    1    1    2    0    0 -0.25359777065E+04  0.11921835474E+04  0.58649394252E+04  0.65000000000E+04  0.10000000000E+01 0.  0.
</event>
<event>
 4    1  0.2191064E-006  0.1300000E+05  0.7957747E-01  0.1322471E+00
    9000001   -1    0    0    0    0  0.00000000000E+00  0.00000000000E+00  0.64999999231E+04  0.65000000000E+04  0.10000000000E+01 0.  0.
    9000001   -1    0    0    0    0 -0.00000000000E+00 -0.00000000000E+00 -0.64999999231E+04  0.65000000000E+04  0.10000000000E+01 0.  0.
    9000001    1    1    2    0    0 -0.26976535602E+04  0.75456967350E+03 -0.58654316872E+04  0.65000000000E+04  0.10000000000E+01 0.  0.
    9000001    1    1    2    0    0  0.26976535602E+04 -0.75456967350E+03  0.58654316872E+04  0.65000000000E+04  0.10000000000E+01 0.  0.
</event>
<event>
 4    1  0.2191064E-006  0.1300000E+05  0.7957747E-01  0.1322471E+00
    9000001   -1    0    0    0    0  0.00000000000E+00  0.00000000000E+00  0.64999999231E+04  0.65000000000E+04  0.10000000000E+01 0.  0.
    9000001   -1    0    0    0    0 -0.00000000000E+00 -0.00000000000E+00 -0.64999999231E+04  0.65000000000E+04  0.10000000000E+01 0.  0.
    9000001    1    1    2    0    0  0.57889006230E+04 -0.26173667503E+04 -0.13740523542E+04  0.65000000000E+04  0.10000000000E+01 0.  0.
    9000001    1    1    2    0    0 -0.57889006230E+04  0.26173667503E+04  0.13740523542E+04  0.65000000000E+04  0.10000000000E+01 0.  0.
</event>
<event>
 4    1  0.2191064E-006  0.1300000E+05  0.7957747E-01  0.1322471E+00
    9000001   -1    0    0    0    0  0.00000000000E+00  0.00000000000E+00  0.64999999231E+04  0.65000000000E+04  0.10000000000E+01 0.  0.
    9000001   -1    0    0    0    0 -0.00000000000E+00 -0.00000000000E+00 -0.64999999231E+04  0.65000000000E+04  0.10000000000E+01 0.  0.
    9000001    1    1    2    0    0  0.45777732271E+04 -0.43622804186E+04  0.15048258472E+04  0.65000000000E+04  0.10000000000E+01 0.  0.
    9000001    1    1    2    0    0 -0.45777732271E+04  0.43622804186E+04 -0.15048258472E+04  0.65000000000E+04  0.10000000000E+01 0.  0.
</event>
<event>
 4    1  0.2191064E-006  0.1300000E+05  0.7957747E-01  0.1322471E+00
    9000001   -1    0    0    0    0  0.00000000000E+00  0.00000000000E+00  0.64999999231E+04  0.65000000000E+04  0.10000000000E+01 0.  0.
    9000001   -1    0    0    0    0 -0.00000000000E+00 -0.00000000000E+00 -0.64999999231E+04  0.65000000000E+04  0.10000000000E+01 0.  0.
    9000001    1    1    2    0    0 -0.10628811710E+03 -0.11593229119E+04  0.63948942307E+04  0.65000000000E+04  0.10000000000E+01 0.  0.
    9000001    1    1    2    0    0  0.10628811710E+03  0.11593229119E+04 -0.63948942307E+04  0.65000000000E+04  0.10000000000E+01 0.  0.
</event>
<event>
 4    1  0.2191064E-006  0.1300000E+05  0.7957747E-01  0.1322471E+00
    9000001   -1    0    0    0    0  0.00000000000E+00  0.00000000000E+00  0.64999999231E+04  0.65000000000E+04  0.10000000000E+01 0.  0.
    9000001   -1    0    0    0    0 -0.00000000000E+00 -0.00000000000E+00 -0.64999999231E+04  0.65000000000E+04  0.10000000000E+01 0.  0.
    9000001    1    1    2    0    0  0.62862554834E+04  0.14065679023E+04  0.86865282714E+03  0.65000000000E+04  0.10000000000E+01 0.  0.
    9000001    1    1    2    0    0 -0.62862554834E+04 -0.14065679023E+04 -0.86865282714E+03  0.65000000000E+04  0.10000000000E+01 0.  0.
</event>
<event>
 4    1  0.2191064E-006  0.1300000E+05  0.7957747E-01  0.1322471E+00
    9000001   -1    0    0    0    0  0.00000000000E+00  0.00000000000E+00  0.64999999231E+04  0.65000000000E+04  0.10000000000E+01 0.  0.
    9000001   -1    0    0    0    0 -0.00000000000E+00 -0.00000000000E+00 -0.64999999231E+04  0.65000000000E+04  0.10000000000E+01 0.  0.
    9000001    1    1    2    0    0 -0.42615487614E+04  0.48919903929E+04 -0.39702789590E+03  0.65000000000E+04  0.10000000000E+01 0.  0.
    9000001    1    1    2    0    0  0.42615487614E+04 -0.48919903929E+04  0.39702789590E+03  0.65000000000E+04  0.10000000000E+01 0.  0.
</event>
<event>
 4    1  0.2191064E-006  0.1300000E+05  0.7957747E-01  0.1322471E+00
    9000001   -1    0    0    0    0  0.00000000000E+00  0.00000000000E+00  0.64999999231E+04  0.65000000000E+04  0.10000000000E+01 0.  0.
    9000001   -1    0    0    0    0 -0.00000000000E+00 -0.00000000000E+00 -0.64999999231E+04  0.65000000000E+04  0.10000000000E+01 0.  0.
    9000001    1    1    2    0    0 -0.50437004891E+01 -0.91590730146E+03  0.64351447052E+04  0.65000000000E+04  0.10000000000E+01 0.  0.
    9000001    1    1    2    0    0  0.50437004891E+01  0.91590730146E+03 -0.64351447052E+04  0.65000000000E+04  0.10000000000E+01 0.  0.
</event>
<event>
 4    1  0.2191064E-006  0.1300000E+05  0.7957747E-01  0.1322471E+00
    9000001   -1    0    0    0    0  0.00000000000E+00  0.00000000000E+00  0.64999999231E+04  0.65000000000E+04  0.10000000000E+01 0.  0.
    9000001   -1    0    0    0    0 -0.00000000000E+00 -0.00000000000E+00 -0.64999999231E+04  0.65000000000E+04  0.10000000000E+01 0.  0.
    9000001    1    1    2    0    0 -0.41246563226E+04  0.50044670178E+04  0.43876997219E+03  0.65000000000E+04  0.10000000000E+01 0.  0.
    9000001    1    1    2    0    0  0.41246563226E+04 -0.50044670178E+04 -0.43876997219E+03  0.65000000000E+04  0.10000000000E+01 0.  0.
</event>
<event>
 4    1  0.2191064E-006  0.1300000E+05  0.7957747E-01  0.1322471E+00
    9000001   -1    0    0    0    0  0.00000000000E+00  0.00000000000E+00  0.64999999231E+04  0.65000000000E+04  0.10000000000E+01 0.  0.
    9000001   -1    0    0    0    0 -0.00000000000E+00 -0.00000000000E+00 -0.64999999231E+04  0.65000000000E+04  0.10000000000E+01 0.  0.
    9000001    1    1    2    0    0  0.17821527201E+04 -0.28275279534E+04  0.55748557250E+04  0.65000000000E+04  0.10000000000E+01 0.  0.
    9000001    1    1    2    0    0 -0.17821527201E+04  0.28275279534E+04 -0.55748557250E+04  0.65000000000E+04  0.10000000000E+01 0.  0.
</event>
<event>
 4    1  0.2191064E-006  0.1300000E+05  0.7957747E-01  0.1322471E+00
    9000001   -1    0    0    0    0  0.00000000000E+00  0.00000000000E+00  0.64999999231E+04  0.65000000000E+04  0.10000000000E+01 0.  0.
    9000001   -1    0    0    0    0 -0.00000000000E+00 -0.00000000000E+00 -0.64999999231E+04  0.65000000000E+04  0.10000000000E+01 0.  0.
    9000001    1    1    2    0    0 -0.17622883930E+04 -0.58426845530E+04  0.22377166563E+04  0.65000000000E+04  0.10000000000E+01 0.  0.
    9000001    1    1    2    0    0  0.17622883930E+04  0.58426845530E+04 -0.22377166563E+04  0.65000000000E+04  0.10000000000E+01 0.  0.
</event>
<event>
 4    1  0.2191064E-006  0.1300000E+05  0.7957747E-01  0.1322471E+00
    9000001   -1    0    0    0    0  0.00000000000E+00  0.00000000000E+00  0.64999999231E+04  0.65000000000E+04  0.10000000000E+01 0.  0.
    9000001   -1    0    0    0    0 -0.00000000000E+00 -0.00000000000E+00 -0.64999999231E+04  0.65000000000E+04  0.10000000000E+01 0.  0.
    9000001    1    1    2    0    0 -0.18648075642E+04  0.56567473175E+04 -0.26026335767E+04  0.65000000000E+04  0.10000000000E+01 0.  0.
    9000001    1    1    2    0    0  0.18648075642E+04 -0.56567473175E+04  0.26026335767E+04  0.65000000000E+04  0.10000000000E+01 0.  0.
</event>
<event>
 4    1  0.2191064E-006  0.1300000E+05  0.7957747E-01  0.1322471E+00
    9000001   -1    0    0    0    0  0.00000000000E+00  0.00000000000E+00  0.64999999231E+04  0.65000000000E+04  0.10000000000E+01 0.  0.
    9000001   -1    0    0    0    0 -0.00000000000E+00 -0.00000000000E+00 -0.64999999231E+04  0.65000000000E+04  0.10000000000E+01 0.  0.
    9000001    1    1    2    0    0  0.38718341984E+04 -0.50457991211E+04  0.13411972895E+04  0.65000000000E+04  0.10000000000E+01 0.  0.
    9000001    1    1    2    0    0 -0.38718341984E+04  0.50457991211E+04 -0.13411972895E+04  0.65000000000E+04  0.10000000000E+01 0.  0.
</event>
<event>
 4    1  0.2191064E-006  0.1300000E+05  0.7957747E-01  0.1322471E+00
    9000001   -1    0    0    0    0  0.00000000000E+00  0.00000000000E+00  0.64999999231E+04  0.65000000000E+04  0.10000000000E+01 0.  0.
    9000001   -1    0    0    0    0 -0.00000000000E+00 -0.00000000000E+00 -0.64999999231E+04  0.65000000000E+04  0.10000000000E+01 0.  0.
    9000001    1    1    2    0    0  0.47033793245E+04 -0.33048437898E+04  0.30341768992E+04  0.65000000000E+04  0.10000000000E+01 0.  0.
    9000001    1    1    2    0    0 -0.47033793245E+04  0.33048437898E+04 -0.30341768992E+04  0.65000000000E+04  0.10000000000E+01 0.  0.
</event>
<event>
 4    1  0.2191064E-006  0.1300000E+05  0.7957747E-01  0.1322471E+00
    9000001   -1    0    0    0    0  0.00000000000E+00  0.00000000000E+00  0.64999999231E+04  0.65000000000E+04  0.10000000000E+01 0.  0.
    9000001   -1    0    0    0    0 -0.00000000000E+00 -0.00000000000E+00 -0.64999999231E+04  0.65000000000E+04  0.10000000000E+01 0.  0.
    9000001    1    1    2    0    0 -0.37347401361E+04  0.22352203884E+04  0.48275775428E+04  0.65000000000E+04  0.10000000000E+01 0.  0.
    9000001    1    1    2    0    0  0.37347401361E+04 -0.22352203884E+04 -0.48275775428E+04  0.65000000000E+04  0.10000000000E+01 0.  0.
</event>
<event>
 4    1  0.2191064E-006  0.1300000E+05  0.7957747E-01  0.1322471E+00
    9000001   -1    0    0    0    0  0.00000000000E+00  0.00000000000E+00  0.64999999231E+04  0.65000000000E+04  0.10000000000E+01 0.  0.
    9000001   -1    0    0    0    0 -0.00000000000E+00 -0.00000000000E+00 -0.64999999231E+04  0.65000000000E+04  0.10000000000E+01 0.  0.
    9000001    1    1    2    0    0 -0.12902661573E+04  0.71117853060E+03  0.63308322787E+04  0.65000000000E+04  0.10000000000E+01 0.  0.
    9000001    1    1    2    0    0  0.12902661573E+04 -0.71117853060E+03 -0.63308322787E+04  0.65000000000E+04  0.10000000000E+01 0.  0.
</event>
<event>
 4    1  0.2191064E-006  0.1300000E+05  0.7957747E-01  0.1322471E+00
    9000001   -1    0    0    0    0  0.00000000000E+00  0.00000000000E+00  0.64999999231E+04  0.65000000000E+04  0.10000000000E+01 0.  0.
    9000001   -1    0    0    0    0 -0.00000000000E+00 -0.00000000000E+00 -0.64999999231E+04  0.65000000000E+04  0.10000000000E+01 0.  0.
    9000001    1    1    2    0    0  0.88932137113E+03 -0.51857238580E+04  0.38167230143E+04  0.65000000000E+04  0.10000000000E+01 0.  0.
    9000001    1    1    2    0    0 -0.88932137113E+03  0.51857238580E+04 -0.38167230143E+04  0.65000000000E+04  0.10000000000E+01 0.  0.
</event>
<event>
 4    1  0.2191064E-006  0.1300000E+05  0.7957747E-01  0.1322471E+00
    9000001   -1    0    0    0    0  0.00000000000E+00  0.00000000000E+00  0.64999999231E+04  0.65000000000E+04  0.10000000000E+01 0.  0.
    9000001   -1    0    0    0    0 -0.00000000000E+00 -0.00000000000E+00 -0.64999999231E+04  0.65000000000E+04  0.10000000000E+01 0.  0.
    9000001    1    1    2    0    0 -0.15746658087E+04  0.59567303085E+04 -0.20706981003E+04  0.65000000000E+04  0.10000000000E+01 0.  0.
    9000001    1    1    2    0    0  0.15746658087E+04 -0.59567303085E+04  0.20706981003E+04  0.65000000000E+04  0.10000000000E+01 0.  0.
</event>
<event>
 4    1  0.2191064E-006  0.1300000E+05  0.7957747E-01  0.1322471E+00
    9000001   -1    0    0    0    0  0.00000000000E+00  0.00000000000E+00  0.64999999231E+04  0.65000000000E+04  0.10000000000E+01 0.  0.
    9000001   -1    0    0    0    0 -0.00000000000E+00 -0.00000000000E+00 -0.64999999231E+04  0.65000000000E+04  0.10000000000E+01 0.  0.
    9000001    1    1    2    0    0  0.37176498219E+04  0.42606959170E+03 -0.53148418137E+04  0.65000000000E+04  0.10000000000E+01 0.  0.
    9000001    1    1    2    0    0 -0.37176498219E+04 -0.42606959170E+03  0.53148418137E+04  0.65000000000E+04  0.10000000000E+01 0.  0.
</event>
<event>
 4    1  0.2191064E-006  0.1300000E+05  0.7957747E-01  0.1322471E+00
    9000001   -1    0    0    0    0  0.00000000000E+00  0.00000000000E+00  0.64999999231E+04  0.65000000000E+04  0.10000000000E+01 0.  0.
    9000001   -1    0    0    0    0 -0.00000000000E+00 -0.00000000000E+00 -0.64999999231E+04  0.65000000000E+04  0.10000000000E+01 0.  0.
    9000001    1    1    2    0    0  0.30684616862E+04  0.21867106944E+04  0.52964930113E+04  0.65000000000E+04  0.10000000000E+01 0.  0.
    9000001    1    1    2    0    0 -0.30684616862E+04 -0.21867106944E+04 -0.52964930113E+04  0.65000000000E+04  0.10000000000E+01 0.  0.
</event>
<event>
 4    1  0.2191064E-006  0.1300000E+05  0.7957747E-01  0.1322471E+00
    9000001   -1    0    0    0    0  0.00000000000E+00  0.00000000000E+00  0.64999999231E+04  0.65000000000E+04  0.10000000000E+01 0.  0.
    9000001   -1    0    0    0    0 -0.00000000000E+00 -0.00000000000E+00 -0.64999999231E+04  0.65000000000E+04  0.10000000000E+01 0.  0.
    9000001    1    1    2    0    0  0.12947993395E+04  0.41728834219E+04  0.48125396224E+04  0.65000000000E+04  0.10000000000E+01 0.  0.
    9000001    1    1    2    0    0 -0.12947993395E+04 -0.41728834219E+04 -0.48125396224E+04  0.65000000000E+04  0.10000000000E+01 0.  0.
</event>
<event>
 4    1  0.2191064E-006  0.1300000E+05  0.7957747E-01  0.1322471E+00
    9000001   -1    0    0    0    0  0.00000000000E+00  0.00000000000E+00  0.64999999231E+04  0.65000000000E+04  0.10000000000E+01 0.  0.
    9000001   -1    0    0    0    0 -0.00000000000E+00 -0.00000000000E+00 -0.64999999231E+04  0.65000000000E+04  0.10000000000E+01 0.  0.
    9000001    1    1    2    0    0  0.29674041493E+04  0.46147335981E+04 -0.34855050471E+04  0.65000000000E+04  0.10000000000E+01 0.  0.
    9000001    1    1    2    0    0 -0.29674041493E+04 -0.46147335981E+04  0.34855050471E+04  0.65000000000E+04  0.10000000000E+01 0.  0.
</event>
<event>
 4    1  0.2191064E-006  0.1300000E+05  0.7957747E-01  0.1322471E+00
    9000001   -1    0    0    0    0  0.00000000000E+00  0.00000000000E+00  0.64999999231E+04  0.65000000000E+04  0.10000000000E+01 0.  0.
    9000001   -1    0    0    0    0 -0.00000000000E+00 -0.00000000000E+00 -0.64999999231E+04  0.65000000000E+04  0.10000000000E+01 0.  0.
    9000001    1    1    2    0    0  0.24873250414E+04  0.42577160384E+04 -0.42349813783E+04  0.65000000000E+04  0.10000000000E+01 0.  0.
    9000001    1    1    2    0    0 -0.24873250414E+04 -0.42577160384E+04  0.42349813783E+04  0.65000000000E+04  0.10000000000E+01 0.  0.
</event>
<event>
 4    1  0.2191064E-006  0.1300000E+05  0.7957747E-01  0.1322471E+00
    9000001   -1    0    0    0    0  0.00000000000E+00  0.00000000000E+00  0.64999999231E+04  0.65000000000E+04  0.10000000000E+01 0.  0.
    9000001   -1    0    0    0    0 -0.00000000000E+00 -0.00000000000E+00 -0.64999999231E+04  0.65000000000E+04  0.10000000000E+01 0.  0.
    9000001    1    1    2    0    0 -0.48393827433E+04 -0.38558433024E+04 -0.19906898532E+04  0.65000000000E+04  0.10000000000E+01 0.  0.
    9000001    1    1    2    0    0  0.48393827433E+04  0.38558433024E+04  0.19906898532E+04  0.65000000000E+04  0.10000000000E+01 0.  0.
</event>
<event>
 4    1  0.2191064E-006  0.1300000E+05  0.7957747E-01  0.1322471E+00
    9000001   -1    0    0    0    0  0.00000000000E+00  0.00000000000E+00  0.64999999231E+04  0.65000000000E+04  0.10000000000E+01 0.  0.
    9000001   -1    0    0    0    0 -0.00000000000E+00 -0.00000000000E+00 -0.64999999231E+04  0.65000000000E+04  0.10000000000E+01 0.  0.
    9000001    1    1    2    0    0  0.28197176742E+04  0.45436641008E+04 -0.36951735787E+04  0.65000000000E+04  0.10000000000E+01 0.  0.
    9000001    1    1    2    0    0 -0.28197176742E+04 -0.45436641008E+04  0.36951735787E+04  0.65000000000E+04  0.10000000000E+01 0.  0.
</event>
<event>
 4    1  0.2191064E-006  0.1300000E+05  0.7957747E-01  0.1322471E+00
    9000001   -1    0    0    0    0  0.00000000000E+00  0.00000000000E+00  0.64999999231E+04  0.65000000000E+04  0.10000000000E+01 0.  0.
    9000001   -1    0    0    0    0 -0.00000000000E+00 -0.00000000000E+00 -0.64999999231E+04  0.65000000000E+04  0.10000000000E+01 0.  0.
    9000001    1    1    2    0    0 -0.52689675375E+04  0.31202831198E+03 -0.37934968592E+04  0.65000000000E+04  0.10000000000E+01 0.  0.
    9000001    1    1    2    0    0  0.52689675375E+04 -0.31202831198E+03  0.37934968592E+04  0.65000000000E+04  0.10000000000E+01 0.  0.
</event>
<event>
 4    1  0.2191064E-006  0.1300000E+05  0.7957747E-01  0.1322471E+00
    9000001   -1    0    0    0    0  0.00000000000E+00  0.00000000000E+00  0.64999999231E+04  0.65000000000E+04  0.10000000000E+01 0.  0.
    9000001   -1    0    0    0    0 -0.00000000000E+00 -0.00000000000E+00 -0.64999999231E+04  0.65000000000E+04  0.10000000000E+01 0.  0.
    9000001    1    1    2    0    0 -0.36567248833E+04  0.41675299925E+04  0.33926473277E+04  0.65000000000E+04  0.10000000000E+01 0.  0.
    9000001    1    1    2    0    0  0.36567248833E+04 -0.41675299925E+04 -0.33926473277E+04  0.65000000000E+04  0.10000000000E+01 0.  0.
</event>
<event>
 4    1  0.2191064E-006  0.1300000E+05  0.7957747E-01  0.1322471E+00
    9000001   -1    0    0    0    0  0.00000000000E+00  0.00000000000E+00  0.64999999231E+04  0.65000000000E+04  0.10000000000E+01 0.  0.
    9000001   -1    0    0    0    0 -0.00000000000E+00 -0.00000000000E+00 -0.64999999231E+04  0.65000000000E+04  0.10000000000E+01 0.  0.
    9000001    1    1    2    0    0 -0.15946004087E+04  0.18342029441E+03 -0.62986987174E+04  0.65000000000E+04  0.10000000000E+01 0.  0.
    9000001    1    1    2    0    0  0.15946004087E+04 -0.18342029441E+03  0.62986987174E+04  0.65000000000E+04  0.10000000000E+01 0.  0.
</event>
<event>
 4    1  0.2191064E-006  0.1300000E+05  0.7957747E-01  0.1322471E+00
    9000001   -1    0    0    0    0  0.00000000000E+00  0.00000000000E+00  0.64999999231E+04  0.65000000000E+04  0.10000000000E+01 0.  0.
    9000001   -1    0    0    0    0 -0.00000000000E+00 -0.00000000000E+00 -0.64999999231E+04  0.65000000000E+04  0.10000000000E+01 0.  0.
    9000001    1    1    2    0    0 -0.50318674220E+04 -0.38329918654E+04  0.14961559435E+04  0.65000000000E+04  0.10000000000E+01 0.  0.
    9000001    1    1    2    0    0  0.50318674220E+04  0.38329918654E+04 -0.14961559435E+04  0.65000000000E+04  0.10000000000E+01 0.  0.
</event>
<event>
 4    1  0.2191064E-006  0.1300000E+05  0.7957747E-01  0.1322471E+00
    9000001   -1    0    0    0    0  0.00000000000E+00  0.00000000000E+00  0.64999999231E+04  0.65000000000E+04  0.10000000000E+01 0.  0.
    9000001   -1    0    0    0    0 -0.00000000000E+00 -0.00000000000E+00 -0.64999999231E+04  0.65000000000E+04  0.10000000000E+01 0.  0.
    9000001    1    1    2    0    0 -0.31121194574E+04  0.51460609033E+04 -0.24663269577E+04  0.65000000000E+04  0.10000000000E+01 0.  0.
    9000001    1    1    2    0    0  0.31121194574E+04 -0.51460609033E+04  0.24663269577E+04  0.65000000000E+04  0.10000000000E+01 0.  0.
</event>
<event>
 4    1  0.2191064E-006  0.1300000E+05  0.7957747E-01  0.1322471E+00
    9000001   -1    0    0    0    0  0.00000000000E+00  0.00000000000E+00  0.64999999231E+04  0.65000000000E+04  0.10000000000E+01 0.  0.
    9000001   -1    0    0    0    0 -0.00000000000E+00 -0.00000000000E+00 -0.64999999231E+04  0.65000000000E+04  0.10000000000E+01 0.  0.
    9000001    1    1    2    0    0  0.29598675189E+04 -0.27872333403E+04 -0.50715395667E+04  0.65000000000E+04  0.10000000000E+01 0.  0.
    9000001    1    1    2    0    0 -0.29598675189E+04  0.27872333403E+04  0.50715395667E+04  0.65000000000E+04  0.10000000000E+01 0.  0.
</event>
<event>
 4    1  0.2191064E-006  0.1300000E+05  0.7957747E-01  0.1322471E+00
    9000001   -1    0    0    0    0  0.00000000000E+00  0.00000000000E+00  0.64999999231E+04  0.65000000000E+04  0.10000000000E+01 0.  0.
    9000001   -1    0    0    0    0 -0.00000000000E+00 -0.00000000000E+00 -0.64999999231E+04  0.65000000000E+04  0.10000000000E+01 0.  0.
    9000001    1    1    2    0    0  0.37032068789E+04  0.51318065657E+04  0.14835158186E+04  0.65000000000E+04  0.10000000000E+01 0.  0.
    9000001    1    1    2    0    0 -0.37032068789E+04 -0.51318065657E+04 -0.14835158186E+04  0.65000000000E+04  0.10000000000E+01 0.  0.
</event>
<event>
 4    1  0.2191064E-006  0.1300000E+05  0.7957747E-01  0.1322471E+00
    9000001   -1    0    0    0    0  0.00000000000E+00  0.00000000000E+00  0.64999999231E+04  0.65000000000E+04  0.10000000000E+01 0.  0.
    9000001   -1    0    0    0    0 -0.00000000000E+00 -0.00000000000E+00 -0.64999999231E+04  0.65000000000E+04  0.10000000000E+01 0.  0.
    9000001    1    1    2    0    0 -0.12994902260E+04 -0.48309703933E+04 -0.41500661696E+04  0.65000000000E+04  0.10000000000E+01 0.  0.
    9000001    1    1    2    0    0  0.12994902260E+04  0.48309703933E+04  0.41500661696E+04  0.65000000000E+04  0.10000000000E+01 0.  0.
</event>
<event>
 4    1  0.2191064E-006  0.1300000E+05  0.7957747E-01  0.1322471E+00
    9000001   -1    0    0    0    0  0.00000000000E+00  0.00000000000E+00  0.64999999231E+04  0.65000000000E+04  0.10000000000E+01 0.  0.
    9000001   -1    0    0    0    0 -0.00000000000E+00 -0.00000000000E+00 -0.64999999231E+04  0.65000000000E+04  0.10000000000E+01 0.  0.
    9000001    1    1    2    0    0  0.21062985729E+04 -0.61450376970E+04 -0.22807241156E+03  0.65000000000E+04  0.10000000000E+01 0.  0.
    9000001    1    1    2    0    0 -0.21062985729E+04  0.61450376970E+04  0.22807241156E+03  0.65000000000E+04  0.10000000000E+01 0.  0.
</event>
<event>
 4    1  0.2191064E-006  0.1300000E+05  0.7957747E-01  0.1322471E+00
    9000001   -1    0    0    0    0  0.00000000000E+00  0.00000000000E+00  0.64999999231E+04  0.65000000000E+04  0.10000000000E+01 0.  0.
    9000001   -1    0    0    0    0 -0.00000000000E+00 -0.00000000000E+00 -0.64999999231E+04  0.65000000000E+04  0.10000000000E+01 0.  0.
    9000001    1    1    2    0    0 -0.17687054811E+04  0.34290726005E+03  0.62453258147E+04  0.65000000000E+04  0.10000000000E+01 0.  0.
    9000001    1    1    2    0    0  0.17687054811E+04 -0.34290726005E+03 -0.62453258147E+04  0.65000000000E+04  0.10000000000E+01 0.  0.
</event>
<event>
 4    1  0.2191064E-006  0.1300000E+05  0.7957747E-01  0.1322471E+00
    9000001   -1    0    0    0    0  0.00000000000E+00  0.00000000000E+00  0.64999999231E+04  0.65000000000E+04  0.10000000000E+01 0.  0.
    9000001   -1    0    0    0    0 -0.00000000000E+00 -0.00000000000E+00 -0.64999999231E+04  0.65000000000E+04  0.10000000000E+01 0.  0.
    9000001    1    1    2    0    0 -0.31177081503E+04  0.46704045451E+04 -0.32737159734E+04  0.65000000000E+04  0.10000000000E+01 0.  0.
    9000001    1    1    2    0    0  0.31177081503E+04 -0.46704045451E+04  0.32737159734E+04  0.65000000000E+04  0.10000000000E+01 0.  0.
</event>
<event>
 4    1  0.2191064E-006  0.1300000E+05  0.7957747E-01  0.1322471E+00
    9000001   -1    0    0    0    0  0.00000000000E+00  0.00000000000E+00  0.64999999231E+04  0.65000000000E+04  0.10000000000E+01 0.  0.
    9000001   -1    0    0    0    0 -0.00000000000E+00 -0.00000000000E+00 -0.64999999231E+04  0.65000000000E+04  0.10000000000E+01 0.  0.
    9000001    1    1    2    0    0  0.30552185892E+04 -0.50562885791E+04 -0.27110116520E+04  0.65000000000E+04  0.10000000000E+01 0.  0.
    9000001    1    1    2    0    0 -0.30552185892E+04  0.50562885791E+04  0.27110116520E+04  0.65000000000E+04  0.10000000000E+01 0.  0.
</event>
<event>
 4    1  0.2191064E-006  0.1300000E+05  0.7957747E-01  0.1322471E+00
    9000001   -1    0    0    0    0  0.00000000000E+00  0.00000000000E+00  0.64999999231E+04  0.65000000000E+04  0.10000000000E+01 0.  0.
    9000001   -1    0    0    0    0 -0.00000000000E+00 -0.00000000000E+00 -0.64999999231E+04  0.65000000000E+04  0.10000000000E+01 0.  0.
    9000001    1    1    2    0    0  0.23819212552E+04 -0.57702670702E+04  0.18112062480E+04  0.65000000000E+04  0.10000000000E+01 0.  0.
    9000001    1    1    2    0    0 -0.23819212552E+04  0.57702670702E+04 -0.18112062480E+04  0.65000000000E+04  0.10000000000E+01 0.  0.
</event>
<event>
 4    1  0.2191064E-006  0.1300000E+05  0.7957747E-01  0.1322471E+00
    9000001   -1    0    0    0    0  0.00000000000E+00  0.00000000000E+00  0.64999999231E+04  0.65000000000E+04  0.10000000000E+01 0.  0.
    9000001   -1    0    0    0    0 -0.00000000000E+00 -0.00000000000E+00 -0.64999999231E+04  0.65000000000E+04  0.10000000000E+01 0.  0.
    9000001    1    1    2    0    0 -0.50431713341E+02  0.13070944425E+04  0.63670212628E+04  0.65000000000E+04  0.10000000000E+01 0.  0.
    9000001    1    1    2    0    0  0.50431713341E+02 -0.13070944425E+04 -0.63670212628E+04  0.65000000000E+04  0.10000000000E+01 0.  0.
</event>
<event>
 4    1  0.2191064E-006  0.1300000E+05  0.7957747E-01  0.1322471E+00
    9000001   -1    0    0    0    0  0.00000000000E+00  0.00000000000E+00  0.64999999231E+04  0.65000000000E+04  0.10000000000E+01 0.  0.
    9000001   -1    0    0    0    0 -0.00000000000E+00 -0.00000000000E+00 -0.64999999231E+04  0.65000000000E+04  0.10000000000E+01 0.  0.
    9000001    1    1    2    0    0 -0.43706466959E+04  0.42961150838E+04 -0.21658350921E+04  0.65000000000E+04  0.10000000000E+01 0.  0.
    9000001    1    1    2    0    0  0.43706466959E+04 -0.42961150838E+04  0.21658350921E+04  0.65000000000E+04  0.10000000000E+01 0.  0.
</event>
<event>
 4    1  0.2191064E-006  0.1300000E+05  0.7957747E-01  0.1322471E+00
    9000001   -1    0    0    0    0  0.00000000000E+00  0.00000000000E+00  0.64999999231E+04  0.65000000000E+04  0.10000000000E+01 0.  0.
    9000001   -1    0    0    0    0 -0.00000000000E+00 -0.00000000000E+00 -0.64999999231E+04  0.65000000000E+04  0.10000000000E+01 0.  0.
    9000001    1    1    2    0    0 -0.21623881716E+04 -0.51008105327E+04 -0.33993835183E+04  0.65000000000E+04  0.10000000000E+01 0.  0.
    9000001    1    1    2    0    0  0.21623881716E+04  0.51008105327E+04  0.33993835183E+04  0.65000000000E+04  0.10000000000E+01 0.  0.
</event>
<event>
 4    1  0.2191064E-006  0.1300000E+05  0.7957747E-01  0.1322471E+00
    9000001   -1    0    0    0    0  0.00000000000E+00  0.00000000000E+00  0.64999999231E+04  0.65000000000E+04  0.10000000000E+01 0.  0.
    9000001   -1    0    0    0    0 -0.00000000000E+00 -0.00000000000E+00 -0.64999999231E+04  0.65000000000E+04  0.10000000000E+01 0.  0.
    9000001    1    1    2    0    0  0.12747367611E+04 -0.63736748003E+04  0.36259202193E+02  0.65000000000E+04  0.10000000000E+01 0.  0.
    9000001    1    1    2    0    0 -0.12747367611E+04  0.63736748003E+04 -0.36259202193E+02  0.65000000000E+04  0.10000000000E+01 0.  0.
</event>
<event>
 4    1  0.2191064E-006  0.1300000E+05  0.7957747E-01  0.1322471E+00
    9000001   -1    0    0    0    0  0.00000000000E+00  0.00000000000E+00  0.64999999231E+04  0.65000000000E+04  0.10000000000E+01 0.  0.
    9000001   -1    0    0    0    0 -0.00000000000E+00 -0.00000000000E+00 -0.64999999231E+04  0.65000000000E+04  0.10000000000E+01 0.  0.
    9000001    1    1    2    0    0  0.10598290357E+04  0.43838186278E+04  0.46806939286E+04  0.65000000000E+04  0.10000000000E+01 0.  0.
    9000001    1    1    2    0    0 -0.10598290357E+04 -0.43838186278E+04 -0.46806939286E+04  0.65000000000E+04  0.10000000000E+01 0.  0.
</event>
<event>
 4    1  0.2191064E-006  0.1300000E+05  0.7957747E-01  0.1322471E+00
    9000001   -1    0    0    0    0  0.00000000000E+00  0.00000000000E+00  0.64999999231E+04  0.65000000000E+04  0.10000000000E+01 0.  0.
    9000001   -1    0    0    0    0 -0.00000000000E+00 -0.00000000000E+00 -0.64999999231E+04  0.65000000000E+04  0.10000000000E+01 0.  0.
    9000001    1    1    2    0    0  0.45940351299E+04 -0.44967624384E+04 -0.96123243716E+03  0.65000000000E+04  0.10000000000E+01 0.  0.
    9000001    1    1    2    0    0 -0.45940351299E+04  0.44967624384E+04  0.96123243716E+03  0.65000000000E+04  0.10000000000E+01 0.  0.
</event>
<event>
 4    1  0.2191064E-006  0.1300000E+05  0.7957747E-01  0.1322471E+00
    9000001   -1    0    0    0    0  0.00000000000E+00  0.00000000000E+00  0.64999999231E+04  0.65000000000E+04  0.10000000000E+01 0.  0.
    9000001   -1    0    0    0    0 -0.00000000000E+00 -0.00000000000E+00 -0.64999999231E+04  0.65000000000E+04  0.10000000000E+01 0.  0.
    9000001    1    1    2    0    0  0.60465142964E+04 -0.19250525027E+04  0.14084873889E+04  0.65000000000E+04  0.10000000000E+01 0.  0.
    9000001    1    1    2    0    0 -0.60465142964E+04  0.19250525027E+04 -0.14084873889E+04  0.65000000000E+04  0.10000000000E+01 0.  0.
</event>
<event>
 4    1  0.2191064E-006  0.1300000E+05  0.7957747E-01  0.1322471E+00
    9000001   -1    0    0    0    0  0.00000000000E+00  0.00000000000E+00  0.64999999231E+04  0.65000000000E+04  0.10000000000E+01 0.  0.
    9000001   -1    0    0    0    0 -0.00000000000E+00 -0.00000000000E+00 -0.64999999231E+04  0.65000000000E+04  0.10000000000E+01 0.  0.
    9000001    1    1    2    0    0 -0.55459638315E+04 -0.26634204456E+04  0.20972543265E+04  0.65000000000E+04  0.10000000000E+01 0.  0.
    9000001    1    1    2    0    0  0.55459638315E+04  0.26634204456E+04 -0.20972543265E+04  0.65000000000E+04  0.10000000000E+01 0.  0.
</event>
<event>
 4    1  0.2191064E-006  0.1300000E+05  0.7957747E-01  0.1322471E+00
    9000001   -1    0    0    0    0  0.00000000000E+00  0.00000000000E+00  0.64999999231E+04  0.65000000000E+04  0.10000000000E+01 0.  0.
    9000001   -1    0    0    0    0 -0.00000000000E+00 -0.00000000000E+00 -0.64999999231E+04  0.65000000000E+04  0.10000000000E+01 0.  0.
    9000001    1    1    2    0    0  0.46524854565E+04 -0.12362248316E+04 -0.43676224932E+04  0.65000000000E+04  0.10000000000E+01 0.  0.
    9000001    1    1    2    0    0 -0.46524854565E+04  0.12362248316E+04  0.43676224932E+04  0.65000000000E+04  0.10000000000E+01 0.  0.
</event>
<event>
 4    1  0.2191064E-006  0.1300000E+05  0.7957747E-01  0.1322471E+00
    9000001   -1    0    0    0    0  0.00000000000E+00  0.00000000000E+00  0.64999999231E+04  0.65000000000E+04  0.10000000000E+01 0.  0.
    9000001   -1    0    0    0    0 -0.00000000000E+00 -0.00000000000E+00 -0.64999999231E+04  0.65000000000E+04  0.10000000000E+01 0.  0.
    9000001    1    1    2    0    0 -0.34275952461E+04  0.28847151485E+04  0.47095656213E+04  0.65000000000E+04  0.10000000000E+01 0.  0.
    9000001    1    1    2    0    0  0.34275952461E+04 -0.28847151485E+04 -0.47095656213E+04  0.65000000000E+04  0.10000000000E+01 0.  0.
</event>
<event>
 4    1  0.2191064E-006  0.1300000E+05  0.7957747E-01  0.1322471E+00
    9000001   -1    0    0    0    0  0.00000000000E+00  0.00000000000E+00  0.64999999231E+04  0.65000000000E+04  0.10000000000E+01 0.  0.
    9000001   -1    0    0    0    0 -0.00000000000E+00 -0.00000000000E+00 -0.64999999231E+04  0.65000000000E+04  0.10000000000E+01 0.  0.
    9000001    1    1    2    0    0  0.82926325338E+03 -0.47748347734E+04 -0.43316595368E+04  0.65000000000E+04  0.10000000000E+01 0.  0.
    9000001    1    1    2    0    0 -0.82926325338E+03  0.47748347734E+04  0.43316595368E+04  0.65000000000E+04  0.10000000000E+01 0.  0.
</event>
<event>
 4    1  0.2191064E-006  0.1300000E+05  0.7957747E-01  0.1322471E+00
    9000001   -1    0    0    0    0  0.00000000000E+00  0.00000000000E+00  0.64999999231E+04  0.65000000000E+04  0.10000000000E+01 0.  0.
    9000001   -1    0    0    0    0 -0.00000000000E+00 -0.00000000000E+00 -0.64999999231E+04  0.65000000000E+04  0.10000000000E+01 0.  0.
    9000001    1    1    2    0    0  0.39249815407E+04 -0.15443852873E+04 -0.49456438397E+04  0.65000000000E+04  0.10000000000E+01 0.  0.
    9000001    1    1    2    0    0 -0.39249815407E+04  0.15443852873E+04  0.49456438397E+04  0.65000000000E+04  0.10000000000E+01 0.  0.
</event>
<event>
 4    1  0.2191064E-006  0.1300000E+05  0.7957747E-01  0.1322471E+00
    9000001   -1    0    0    0    0  0.00000000000E+00  0.00000000000E+00  0.64999999231E+04  0.65000000000E+04  0.10000000000E+01 0.  0.
    9000001   -1    0    0    0    0 -0.00000000000E+00 -0.00000000000E+00 -0.64999999231E+04  0.65000000000E+04  0.10000000000E+01 0.  0.
    9000001    1    1    2    0    0 -0.25764815178E+04 -0.35972125140E+04  0.47614917954E+04  0.65000000000E+04  0.10000000000E+01 0.  0.
    9000001    1    1    2    0    0  0.25764815178E+04  0.35972125140E+04 -0.47614917954E+04  0.65000000000E+04  0.10000000000E+01 0.  0.
</event>
<event>
 4    1  0.2191064E-006  0.1300000E+05  0.7957747E-01  0.1322471E+00
    9000001   -1    0    0    0    0  0.00000000000E+00  0.00000000000E+00  0.64999999231E+04  0.65000000000E+04  0.10000000000E+01 0.  0.
    9000001   -1    0    0    0    0 -0.00000000000E+00 -0.00000000000E+00 -0.64999999231E+04  0.65000000000E+04  0.10000000000E+01 0.  0.
    9000001    1    1    2    0    0 -0.44029869563E+04  0.19388021882E+04 -0.43708981843E+04  0.65000000000E+04  0.10000000000E+01 0.  0.
    9000001    1    1    2    0    0  0.44029869563E+04 -0.19388021882E+04  0.43708981843E+04  0.65000000000E+04  0.10000000000E+01 0.  0.
</event>
<event>
 4    1  0.2191064E-006  0.1300000E+05  0.7957747E-01  0.1322471E+00
    9000001   -1    0    0    0    0  0.00000000000E+00  0.00000000000E+00  0.64999999231E+04  0.65000000000E+04  0.10000000000E+01 0.  0.
    9000001   -1    0    0    0    0 -0.00000000000E+00 -0.00000000000E+00 -0.64999999231E+04  0.65000000000E+04  0.10000000000E+01 0.  0.
    9000001    1    1    2    0    0 -0.28472239910E+04  0.45732809765E+04  0.36370888984E+04  0.65000000000E+04  0.10000000000E+01 0.  0.
    9000001    1    1    2    0    0  0.28472239910E+04 -0.45732809765E+04 -0.36370888984E+04  0.65000000000E+04  0.10000000000E+01 0.  0.
</event>
<event>
 4    1  0.2191064E-006  0.1300000E+05  0.7957747E-01  0.1322471E+00
    9000001   -1    0    0    0    0  0.00000000000E+00  0.00000000000E+00  0.64999999231E+04  0.65000000000E+04  0.10000000000E+01 0.  0.
    9000001   -1    0    0    0    0 -0.00000000000E+00 -0.00000000000E+00 -0.64999999231E+04  0.65000000000E+04  0.10000000000E+01 0.  0.
    9000001    1    1    2    0    0  0.54386736378E+04  0.97594813721E+03  0.34232080414E+04  0.65000000000E+04  0.10000000000E+01 0.  0.
    9000001    1    1    2    0    0 -0.54386736378E+04 -0.97594813721E+03 -0.34232080414E+04  0.65000000000E+04  0.10000000000E+01 0.  0.
</event>
<event>
 4    1  0.2191064E-006  0.1300000E+05  0.7957747E-01  0.1322471E+00
    9000001   -1    0    0    0    0  0.00000000000E+00  0.00000000000E+00  0.64999999231E+04  0.65000000000E+04  0.10000000000E+01 0.  0.
    9000001   -1    0    0    0    0 -0.00000000000E+00 -0.00000000000E+00 -0.64999999231E+04  0.65000000000E+04  0.10000000000E+01 0.  0.
    9000001    1    1    2    0    0  0.20537137913E+04  0.17261993371E+04 -0.59205147168E+04  0.65000000000E+04  0.10000000000E+01 0.  0.
    9000001    1    1    2    0    0 -0.20537137913E+04 -0.17261993371E+04  0.59205147168E+04  0.65000000000E+04  0.10000000000E+01 0.  0.
</event>
<event>
 4    1  0.2191064E-006  0.1300000E+05  0.7957747E-01  0.1322471E+00
    9000001   -1    0    0    0    0  0.00000000000E+00  0.00000000000E+00  0.64999999231E+04  0.65000000000E+04  0.10000000000E+01 0.  0.
    9000001   -1    0    0    0    0 -0.00000000000E+00 -0.00000000000E+00 -0.64999999231E+04  0.65000000000E+04  0.10000000000E+01 0.  0.
    9000001    1    1    2    0    0  0.26851456919E+04  0.53567716528E+04  0.25189261745E+04  0.65000000000E+04  0.10000000000E+01 0.  0.
    9000001    1    1    2    0    0 -0.26851456919E+04 -0.53567716528E+04 -0.25189261745E+04  0.65000000000E+04  0.10000000000E+01 0.  0.
</event>
<event>
 4    1  0.2191064E-006  0.1300000E+05  0.7957747E-01  0.1322471E+00
    9000001   -1    0    0    0    0  0.00000000000E+00  0.00000000000E+00  0.64999999231E+04  0.65000000000E+04  0.10000000000E+01 0.  0.
    9000001   -1    0    0    0    0 -0.00000000000E+00 -0.00000000000E+00 -0.64999999231E+04  0.65000000000E+04  0.10000000000E+01 0.  0.
    9000001    1    1    2    0    0 -0.32388405639E+04  0.38108013415E+04  0.41518313956E+04  0.65000000000E+04  0.10000000000E+01 0.  0.
    9000001    1    1    2    0    0  0.32388405639E+04 -0.38108013415E+04 -0.41518313956E+04  0.65000000000E+04  0.10000000000E+01 0.  0.
</event>
<event>
 4    1  0.2191064E-006  0.1300000E+05  0.7957747E-01  0.1322471E+00
    9000001   -1    0    0    0    0  0.00000000000E+00  0.00000000000E+00  0.64999999231E+04  0.65000000000E+04  0.10000000000E+01 0.  0.
    9000001   -1    0    0    0    0 -0.00000000000E+00 -0.00000000000E+00 -0.64999999231E+04  0.65000000000E+04  0.10000000000E+01 0.  0.
    9000001    1    1    2    0    0  0.30436832048E+04  0.35726034434E+04 -0.44969429822E+04  0.65000000000E+04  0.10000000000E+01 0.  0.
    9000001    1    1    2    0    0 -0.30436832048E+04 -0.35726034434E+04  0.44969429822E+04  0.65000000000E+04  0.10000000000E+01 0.  0.
</event>
<event>
 4    1  0.2191064E-006  0.1300000E+05  0.7957747E-01  0.1322471E+00
    9000001   -1    0    0    0    0  0.00000000000E+00  0.00000000000E+00  0.64999999231E+04  0.65000000000E+04  0.10000000000E+01 0.  0.
    9000001   -1    0    0    0    0 -0.00000000000E+00 -0.00000000000E+00 -0.64999999231E+04  0.65000000000E+04  0.10000000000E+01 0.  0.
    9000001    1    1    2    0    0 -0.52745377952E+04  0.16016199515E+04 -0.34444249997E+04  0.65000000000E+04  0.10000000000E+01 0.  0.
    9000001    1    1    2    0    0  0.52745377952E+04 -0.16016199515E+04  0.34444249997E+04  0.65000000000E+04  0.10000000000E+01 0.  0.
</event>
<event>
 4    1  0.2191064E-006  0.1300000E+05  0.7957747E-01  0.1322471E+00
    9000001   -1    0    0    0    0  0.00000000000E+00  0.00000000000E+00  0.64999999231E+04  0.65000000000E+04  0.10000000000E+01 0.  0.
    9000001   -1    0    0    0    0 -0.00000000000E+00 -0.00000000000E+00 -0.64999999231E+04  0.65000000000E+04  0.10000000000E+01 0.  0.
    9000001    1    1    2    0    0  0.23919464274E+03  0.18511809059E+03  0.64929589723E+04  0.65000000000E+04  0.10000000000E+01 0.  0.
    9000001    1    1    2    0    0 -0.23919464274E+03 -0.18511809059E+03 -0.64929589723E+04  0.65000000000E+04  0.10000000000E+01 0.  0.
</event>
<event>
 4    1  0.2191064E-006  0.1300000E+05  0.7957747E-01  0.1322471E+00
    9000001   -1    0    0    0    0  0.00000000000E+00  0.00000000000E+00  0.64999999231E+04  0.65000000000E+04  0.10000000000E+01 0.  0.
    9000001   -1    0    0    0    0 -0.00000000000E+00 -0.00000000000E+00 -0.64999999231E+04  0.65000000000E+04  0.10000000000E+01 0.  0.
    9000001    1    1    2    0    0 -0.65776130215E+03  0.52888531029E+03  0.64449693093E+04  0.65000000000E+04  0.10000000000E+01 0.  0.
    9000001    1    1    2    0    0  0.65776130215E+03 -0.52888531029E+03 -0.64449693093E+04  0.65000000000E+04  0.10000000000E+01 0.  0.
</event>
<event>
 4    1  0.2191064E-006  0.1300000E+05  0.7957747E-01  0.1322471E+00
    9000001   -1    0    0    0    0  0.00000000000E+00  0.00000000000E+00  0.64999999231E+04  0.65000000000E+04  0.10000000000E+01 0.  0.
    9000001   -1    0    0    0    0 -0.00000000000E+00 -0.00000000000E+00 -0.64999999231E+04  0.65000000000E+04  0.10000000000E+01 0.  0.
    9000001    1    1    2    0    0 -0.21952125472E+04  0.58573879093E+04  0.17669317340E+04  0.65000000000E+04  0.10000000000E+01 0.  0.
    9000001    1    1    2    0    0  0.21952125472E+04 -0.58573879093E+04 -0.17669317340E+04  0.65000000000E+04  0.10000000000E+01 0.  0.
</event>
<event>
 4    1  0.2191064E-006  0.1300000E+05  0.7957747E-01  0.1322471E+00
    9000001   -1    0    0    0    0  0.00000000000E+00  0.00000000000E+00  0.64999999231E+04  0.65000000000E+04  0.10000000000E+01 0.  0.
    9000001   -1    0    0    0    0 -0.00000000000E+00 -0.00000000000E+00 -0.64999999231E+04  0.65000000000E+04  0.10000000000E+01 0.  0.
    9000001    1    1    2    0    0 -0.96121491419E+03  0.63333316424E+04  0.11022591330E+04  0.65000000000E+04  0.10000000000E+01 0.  0.
    9000001    1    1    2    0    0  0.96121491419E+03 -0.63333316424E+04 -0.11022591330E+04  0.65000000000E+04  0.10000000000E+01 0.  0.
</event>
<event>
 4    1  0.2191064E-006  0.1300000E+05  0.7957747E-01  0.1322471E+00
    9000001   -1    0    0    0    0  0.00000000000E+00  0.00000000000E+00  0.64999999231E+04  0.65000000000E+04  0.10000000000E+01 0.  0.
    9000001   -1    0    0    0    0 -0.00000000000E+00 -0.00000000000E+00 -0.64999999231E+04  0.65000000000E+04  0.10000000000E+01 0.  0.
    9000001    1    1    2    0    0 -0.54622019519E+04 -0.25385594088E+04 -0.24433716387E+04  0.65000000000E+04  0.10000000000E+01 0.  0.
    9000001    1    1    2    0    0  0.54622019519E+04  0.25385594088E+04  0.24433716387E+04  0.65000000000E+04  0.10000000000E+01 0.  0.
</event>
<event>
 4    1  0.2191064E-006  0.1300000E+05  0.7957747E-01  0.1322471E+00
    9000001   -1    0    0    0    0  0.00000000000E+00  0.00000000000E+00  0.64999999231E+04  0.65000000000E+04  0.10000000000E+01 0.  0.
    9000001   -1    0    0    0    0 -0.00000000000E+00 -0.00000000000E+00 -0.64999999231E+04  0.65000000000E+04  0.10000000000E+01 0.  0.
    9000001    1    1    2    0    0 -0.53036796313E+04  0.22560397326E+03  0.37510110925E+04  0.65000000000E+04  0.10000000000E+01 0.  0.
    9000001    1    1    2    0    0  0.53036796313E+04 -0.22560397326E+03 -0.37510110925E+04  0.65000000000E+04  0.10000000000E+01 0.  0.
</event>
<event>
 4    1  0.2191064E-006  0.1300000E+05  0.7957747E-01  0.1322471E+00
    9000001   -1    0    0    0    0  0.00000000000E+00  0.00000000000E+00  0.64999999231E+04  0.65000000000E+04  0.10000000000E+01 0.  0.
    9000001   -1    0    0    0    0 -0.00000000000E+00 -0.00000000000E+00 -0.64999999231E+04  0.65000000000E+04  0.10000000000E+01 0.  0.
    9000001    1    1    2    0    0  0.83916569367E+02  0.53877237440E+04  0.36352977688E+04  0.65000000000E+04  0.10000000000E+01 0.  0.
    9000001    1    1    2    0    0 -0.83916569367E+02 -0.53877237440E+04 -0.36352977688E+04  0.65000000000E+04  0.10000000000E+01 0.  0.
</event>
<event>
 4    1  0.2191064E-006  0.1300000E+05  0.7957747E-01  0.1322471E+00
    9000001   -1    0    0    0    0  0.00000000000E+00  0.00000000000E+00  0.64999999231E+04  0.65000000000E+04  0.10000000000E+01 0.  0.
    9000001   -1    0    0    0    0 -0.00000000000E+00 -0.00000000000E+00 -0.64999999231E+04  0.65000000000E+04  0.10000000000E+01 0.  0.
    9000001    1    1    2    0    0 -0.19558159596E+02  0.60898565033E+04  0.22722817273E+04  0.65000000000E+04  0.10000000000E+01 0.  0.
    9000001    1    1    2    0    0  0.19558159596E+02 -0.60898565033E+04 -0.22722817273E+04  0.65000000000E+04  0.10000000000E+01 0.  0.
</event>
<event>
 4    1  0.2191064E-006  0.1300000E+05  0.7957747E-01  0.1322471E+00
    9000001   -1    0    0    0    0  0.00000000000E+00  0.00000000000E+00  0.64999999231E+04  0.65000000000E+04  0.10000000000E+01 0.  0.
    9000001   -1    0    0    0    0 -0.00000000000E+00 -0.00000000000E+00 -0.64999999231E+04  0.65000000000E+04  0.10000000000E+01 0.  0.
    9000001    1    1    2    0    0  0.12081424962E+04 -0.60292016761E+04 -0.21069214170E+04  0.65000000000E+04  0.10000000000E+01 0.  0.
    9000001    1    1    2    0    0 -0.12081424962E+04  0.60292016761E+04  0.21069214170E+04  0.65000000000E+04  0.10000000000E+01 0.  0.
</event>
<event>
 4    1  0.2191064E-006  0.1300000E+05  0.7957747E-01  0.1322471E+00
    9000001   -1    0    0    0    0  0.00000000000E+00  0.00000000000E+00  0.64999999231E+04  0.65000000000E+04  0.10000000000E+01 0.  0.
    9000001   -1    0    0    0    0 -0.00000000000E+00 -0.00000000000E+00 -0.64999999231E+04  0.65000000000E+04  0.10000000000E+01 0.  0.
    9000001    1    1    2    0    0  0.29682506805E+04 -0.13833602871E+04 -0.56147841645E+04  0.65000000000E+04  0.10000000000E+01 0.  0.
    9000001    1    1    2    0    0 -0.29682506805E+04  0.13833602871E+04  0.56147841645E+04  0.65000000000E+04  0.10000000000E+01 0.  0.
</event>
<event>
 4    1  0.2191064E-006  0.1300000E+05  0.7957747E-01  0.1322471E+00
    9000001   -1    0    0    0    0  0.00000000000E+00  0.00000000000E+00  0.64999999231E+04  0.65000000000E+04  0.10000000000E+01 0.  0.
    9000001   -1    0    0    0    0 -0.00000000000E+00 -0.00000000000E+00 -0.64999999231E+04  0.65000000000E+04  0.10000000000E+01 0.  0.
    9000001    1    1    2    0    0  0.48815047052E+04  0.98212370685E+03  0.41780789649E+04  0.65000000000E+04  0.10000000000E+01 0.  0.
    9000001    1    1    2    0    0 -0.48815047052E+04 -0.98212370685E+03 -0.41780789649E+04  0.65000000000E+04  0.10000000000E+01 0.  0.
</event>
<event>
 4    1  0.2191064E-006  0.1300000E+05  0.7957747E-01  0.1322471E+00
    9000001   -1    0    0    0    0  0.00000000000E+00  0.00000000000E+00  0.64999999231E+04  0.65000000000E+04  0.10000000000E+01 0.  0.
    9000001   -1    0    0    0    0 -0.00000000000E+00 -0.00000000000E+00 -0.64999999231E+04  0.65000000000E+04  0.10000000000E+01 0.  0.
    9000001    1    1    2    0    0 -0.24699060661E+03 -0.64302389820E+04  0.91707212045E+03  0.65000000000E+04  0.10000000000E+01 0.  0.
    9000001    1    1    2    0    0  0.24699060661E+03  0.64302389820E+04 -0.91707212045E+03  0.65000000000E+04  0.10000000000E+01 0.  0.
</event>
<event>
 4    1  0.2191064E-006  0.1300000E+05  0.7957747E-01  0.1322471E+00
    9000001   -1    0    0    0    0  0.00000000000E+00  0.00000000000E+00  0.64999999231E+04  0.65000000000E+04  0.10000000000E+01 0.  0.
    9000001   -1    0    0    0    0 -0.00000000000E+00 -0.00000000000E+00 -0.64999999231E+04  0.65000000000E+04  0.10000000000E+01 0.  0.
    9000001    1    1    2    0    0  0.43156699464E+04 -0.43150048718E+04  0.22373477310E+04  0.65000000000E+04  0.10000000000E+01 0.  0.
    9000001    1    1    2    0    0 -0.43156699464E+04  0.43150048718E+04 -0.22373477310E+04  0.65000000000E+04  0.10000000000E+01 0.  0.
</event>
<event>
 4    1  0.2191064E-006  0.1300000E+05  0.7957747E-01  0.1322471E+00
    9000001   -1    0    0    0    0  0.00000000000E+00  0.00000000000E+00  0.64999999231E+04  0.65000000000E+04  0.10000000000E+01 0.  0.
    9000001   -1    0    0    0    0 -0.00000000000E+00 -0.00000000000E+00 -0.64999999231E+04  0.65000000000E+04  0.10000000000E+01 0.  0.
    9000001    1    1    2    0    0  0.29630865753E+04 -0.37793453805E+04  0.43802586044E+04  0.65000000000E+04  0.10000000000E+01 0.  0.
    9000001    1    1    2    0    0 -0.29630865753E+04  0.37793453805E+04 -0.43802586044E+04  0.65000000000E+04  0.10000000000E+01 0.  0.
</event>
<event>
 4    1  0.2191064E-006  0.1300000E+05  0.7957747E-01  0.1322471E+00
    9000001   -1    0    0    0    0  0.00000000000E+00  0.00000000000E+00  0.64999999231E+04  0.65000000000E+04  0.10000000000E+01 0.  0.
    9000001   -1    0    0    0    0 -0.00000000000E+00 -0.00000000000E+00 -0.64999999231E+04  0.65000000000E+04  0.10000000000E+01 0.  0.
    9000001    1    1    2    0    0 -0.17251736056E+04  0.70652317745E+03  0.62269254075E+04  0.65000000000E+04  0.10000000000E+01 0.  0.
    9000001    1    1    2    0    0  0.17251736056E+04 -0.70652317745E+03 -0.62269254075E+04  0.65000000000E+04  0.10000000000E+01 0.  0.
</event>
<event>
 4    1  0.2191064E-006  0.1300000E+05  0.7957747E-01  0.1322471E+00
    9000001   -1    0    0    0    0  0.00000000000E+00  0.00000000000E+00  0.64999999231E+04  0.65000000000E+04  0.10000000000E+01 0.  0.
    9000001   -1    0    0    0    0 -0.00000000000E+00 -0.00000000000E+00 -0.64999999231E+04  0.65000000000E+04  0.10000000000E+01 0.  0.
    9000001    1    1    2    0    0 -0.50928150381E+04  0.38923557452E+04  0.10783323886E+04  0.65000000000E+04  0.10000000000E+01 0.  0.
    9000001    1    1    2    0    0  0.50928150381E+04 -0.38923557452E+04 -0.10783323886E+04  0.65000000000E+04  0.10000000000E+01 0.  0.
</event>
<event>
 4    1  0.2191064E-006  0.1300000E+05  0.7957747E-01  0.1322471E+00
    9000001   -1    0    0    0    0  0.00000000000E+00  0.00000000000E+00  0.64999999231E+04  0.65000000000E+04  0.10000000000E+01 0.  0.
    9000001   -1    0    0    0    0 -0.00000000000E+00 -0.00000000000E+00 -0.64999999231E+04  0.65000000000E+04  0.10000000000E+01 0.  0.
    9000001    1    1    2    0    0 -0.32848489356E+03  0.11268226811E+04  0.63931500311E+04  0.65000000000E+04  0.10000000000E+01 0.  0.
    9000001    1    1    2    0    0  0.32848489356E+03 -0.11268226811E+04 -0.63931500311E+04  0.65000000000E+04  0.10000000000E+01 0.  0.
</event>
<event>
 4    1  0.2191064E-006  0.1300000E+05  0.7957747E-01  0.1322471E+00
    9000001   -1    0    0    0    0  0.00000000000E+00  0.00000000000E+00  0.64999999231E+04  0.65000000000E+04  0.10000000000E+01 0.  0.
    9000001   -1    0    0    0    0 -0.00000000000E+00 -0.00000000000E+00 -0.64999999231E+04  0.65000000000E+04  0.10000000000E+01 0.  0.
    9000001    1    1    2    0    0 -0.34801504881E+04 -0.46173818127E+04  0.29695684494E+04  0.65000000000E+04  0.10000000000E+01 0.  0.
    9000001    1    1    2    0    0  0.34801504881E+04  0.46173818127E+04 -0.29695684494E+04  0.65000000000E+04  0.10000000000E+01 0.  0.
</event>
<event>
 4    1  0.2191064E-006  0.1300000E+05  0.7957747E-01  0.1322471E+00
    9000001   -1    0    0    0    0  0.00000000000E+00  0.00000000000E+00  0.64999999231E+04  0.65000000000E+04  0.10000000000E+01 0.  0.
    9000001   -1    0    0    0    0 -0.00000000000E+00 -0.00000000000E+00 -0.64999999231E+04  0.65000000000E+04  0.10000000000E+01 0.  0.
    9000001    1    1    2    0    0  0.58293069794E+04  0.15885716437E+04  0.23970021428E+04  0.65000000000E+04  0.10000000000E+01 0.  0.
    9000001    1    1    2    0    0 -0.58293069794E+04 -0.15885716437E+04 -0.23970021428E+04  0.65000000000E+04  0.10000000000E+01 0.  0.
</event>
<event>
 4    1  0.2191064E-006  0.1300000E+05  0.7957747E-01  0.1322471E+00
    9000001   -1    0    0    0    0  0.00000000000E+00  0.00000000000E+00  0.64999999231E+04  0.65000000000E+04  0.10000000000E+01 0.  0.
    9000001   -1    0    0    0    0 -0.00000000000E+00 -0.00000000000E+00 -0.64999999231E+04  0.65000000000E+04  0.10000000000E+01 0.  0.
    9000001    1    1    2    0    0 -0.51814591260E+04 -0.39044899574E+04  0.39678520413E+03  0.65000000000E+04  0.10000000000E+01 0.  0.
    9000001    1    1    2    0    0  0.51814591260E+04  0.39044899574E+04 -0.39678520413E+03  0.65000000000E+04  0.10000000000E+01 0.  0.
</event>
<event>
 4    1  0.2191064E-006  0.1300000E+05  0.7957747E-01  0.1322471E+00
    9000001   -1    0    0    0    0  0.00000000000E+00  0.00000000000E+00  0.64999999231E+04  0.65000000000E+04  0.10000000000E+01 0.  0.
    9000001   -1    0    0    0    0 -0.00000000000E+00 -0.00000000000E+00 -0.64999999231E+04  0.65000000000E+04  0.10000000000E+01 0.  0.
    9000001    1    1    2    0    0 -0.52044805316E+04 -0.22952152480E+04  0.31456904427E+04  0.65000000000E+04  0.10000000000E+01 0.  0.
    9000001    1    1    2    0    0  0.52044805316E+04  0.22952152480E+04 -0.31456904427E+04  0.65000000000E+04  0.10000000000E+01 0.  0.
</event>
<event>
 4    1  0.2191064E-006  0.1300000E+05  0.7957747E-01  0.1322471E+00
    9000001   -1    0    0    0    0  0.00000000000E+00  0.00000000000E+00  0.64999999231E+04  0.65000000000E+04  0.10000000000E+01 0.  0.
    9000001   -1    0    0    0    0 -0.00000000000E+00 -0.00000000000E+00 -0.64999999231E+04  0.65000000000E+04  0.10000000000E+01 0.  0.
    9000001    1    1    2    0    0  0.32540551849E+04  0.30745207098E+04 -0.47125838198E+04  0.65000000000E+04  0.10000000000E+01 0.  0.
    9000001    1    1    2    0    0 -0.32540551849E+04 -0.30745207098E+04  0.47125838198E+04  0.65000000000E+04  0.10000000000E+01 0.  0.
</event>
<event>
 4    1  0.2191064E-006  0.1300000E+05  0.7957747E-01  0.1322471E+00
    9000001   -1    0    0    0    0  0.00000000000E+00  0.00000000000E+00  0.64999999231E+04  0.65000000000E+04  0.10000000000E+01 0.  0.
    9000001   -1    0    0    0    0 -0.00000000000E+00 -0.00000000000E+00 -0.64999999231E+04  0.65000000000E+04  0.10000000000E+01 0.  0.
    9000001    1    1    2    0    0 -0.23936710059E+04 -0.32968216294E+04  0.50647117647E+04  0.65000000000E+04  0.10000000000E+01 0.  0.
    9000001    1    1    2    0    0  0.23936710059E+04  0.32968216294E+04 -0.50647117647E+04  0.65000000000E+04  0.10000000000E+01 0.  0.
</event>
<event>
 4    1  0.2191064E-006  0.1300000E+05  0.7957747E-01  0.1322471E+00
    9000001   -1    0    0    0    0  0.00000000000E+00  0.00000000000E+00  0.64999999231E+04  0.65000000000E+04  0.10000000000E+01 0.  0.
    9000001   -1    0    0    0    0 -0.00000000000E+00 -0.00000000000E+00 -0.64999999231E+04  0.65000000000E+04  0.10000000000E+01 0.  0.
    9000001    1    1    2    0    0  0.50516248864E+04  0.17149176522E+04  0.37135081060E+04  0.65000000000E+04  0.10000000000E+01 0.  0.
    9000001    1    1    2    0    0 -0.50516248864E+04 -0.17149176522E+04 -0.37135081060E+04  0.65000000000E+04  0.10000000000E+01 0.  0.
</event>
<event>
 4    1  0.2191064E-006  0.1300000E+05  0.7957747E-01  0.1322471E+00
    9000001   -1    0    0    0    0  0.00000000000E+00  0.00000000000E+00  0.64999999231E+04  0.65000000000E+04  0.10000000000E+01 0.  0.
    9000001   -1    0    0    0    0 -0.00000000000E+00 -0.00000000000E+00 -0.64999999231E+04  0.65000000000E+04  0.10000000000E+01 0.  0.
    9000001    1    1    2    0    0 -0.26603345498E+04 -0.50533542681E+04 -0.31042277178E+04  0.65000000000E+04  0.10000000000E+01 0.  0.
    9000001    1    1    2    0    0  0.26603345498E+04  0.50533542681E+04  0.31042277178E+04  0.65000000000E+04  0.10000000000E+01 0.  0.
</event>
<event>
 4    1  0.2191064E-006  0.1300000E+05  0.7957747E-01  0.1322471E+00
    9000001   -1    0    0    0    0  0.00000000000E+00  0.00000000000E+00  0.64999999231E+04  0.65000000000E+04  0.10000000000E+01 0.  0.
    9000001   -1    0    0    0    0 -0.00000000000E+00 -0.00000000000E+00 -0.64999999231E+04  0.65000000000E+04  0.10000000000E+01 0.  0.
    9000001    1    1    2    0    0  0.57618568720E+04  0.29908354538E+04 -0.32543459420E+03  0.65000000000E+04  0.10000000000E+01 0.  0.
    9000001    1    1    2    0    0 -0.57618568720E+04 -0.29908354538E+04  0.32543459420E+03  0.65000000000E+04  0.10000000000E+01 0.  0.
</event>
<event>
 4    1  0.2191064E-006  0.1300000E+05  0.7957747E-01  0.1322471E+00
    9000001   -1    0    0    0    0  0.00000000000E+00  0.00000000000E+00  0.64999999231E+04  0.65000000000E+04  0.10000000000E+01 0.  0.
    9000001   -1    0    0    0    0 -0.00000000000E+00 -0.00000000000E+00 -0.64999999231E+04  0.65000000000E+04  0.10000000000E+01 0.  0.
    9000001    1    1    2    0    0  0.30689224734E+04 -0.57298943938E+04 -0.49079540252E+01  0.65000000000E+04  0.10000000000E+01 0.  0.
    9000001    1    1    2    0    0 -0.30689224734E+04  0.57298943938E+04  0.49079540252E+01  0.65000000000E+04  0.10000000000E+01 0.  0.
</event>
<event>
 4    1  0.2191064E-006  0.1300000E+05  0.7957747E-01  0.1322471E+00
    9000001   -1    0    0    0    0  0.00000000000E+00  0.00000000000E+00  0.64999999231E+04  0.65000000000E+04  0.10000000000E+01 0.  0.
    9000001   -1    0    0    0    0 -0.00000000000E+00 -0.00000000000E+00 -0.64999999231E+04  0.65000000000E+04  0.10000000000E+01 0.  0.
    9000001    1    1    2    0    0  0.34552956495E+04  0.46465369661E+04 -0.29530704694E+04  0.65000000000E+04  0.10000000000E+01 0.  0.
    9000001    1    1    2    0    0 -0.34552956495E+04 -0.46465369661E+04  0.29530704694E+04  0.65000000000E+04  0.10000000000E+01 0.  0.
</event>
<event>
 4    1  0.2191064E-006  0.1300000E+05  0.7957747E-01  0.1322471E+00
    9000001   -1    0    0    0    0  0.00000000000E+00  0.00000000000E+00  0.64999999231E+04  0.65000000000E+04  0.10000000000E+01 0.  0.
    9000001   -1    0    0    0    0 -0.00000000000E+00 -0.00000000000E+00 -0.64999999231E+04  0.65000000000E+04  0.10000000000E+01 0.  0.
    9000001    1    1    2    0    0  0.28798712720E+04  0.50719226486E+04 -0.28691359506E+04  0.65000000000E+04  0.10000000000E+01 0.  0.
    9000001    1    1    2    0    0 -0.28798712720E+04 -0.50719226486E+04  0.28691359506E+04  0.65000000000E+04  0.10000000000E+01 0.  0.
</event>
<event>
 4    1  0.2191064E-006  0.1300000E+05  0.7957747E-01  0.1322471E+00
    9000001   -1    0    0    0    0  0.00000000000E+00  0.00000000000E+00  0.64999999231E+04  0.65000000000E+04  0.10000000000E+01 0.  0.
    9000001   -1    0    0    0    0 -0.00000000000E+00 -0.00000000000E+00 -0.64999999231E+04  0.65000000000E+04  0.10000000000E+01 0.  0.
    9000001    1    1    2    0    0 -0.22669892627E+04  0.59810706864E+04 -0.11565258868E+04  0.65000000000E+04  0.10000000000E+01 0.  0.
    9000001    1    1    2    0    0  0.22669892627E+04 -0.59810706864E+04  0.11565258868E+04  0.65000000000E+04  0.10000000000E+01 0.  0.
</event>
<event>
 4    1  0.2191064E-006  0.1300000E+05  0.7957747E-01  0.1322471E+00
    9000001   -1    0    0    0    0  0.00000000000E+00  0.00000000000E+00  0.64999999231E+04  0.65000000000E+04  0.10000000000E+01 0.  0.
    9000001   -1    0    0    0    0 -0.00000000000E+00 -0.00000000000E+00 -0.64999999231E+04  0.65000000000E+04  0.10000000000E+01 0.  0.
    9000001    1    1    2    0    0  0.88911257948E+03  0.58692181980E+04 -0.26479719721E+04  0.65000000000E+04  0.10000000000E+01 0.  0.
    9000001    1    1    2    0    0 -0.88911257948E+03 -0.58692181980E+04  0.26479719721E+04  0.65000000000E+04  0.10000000000E+01 0.  0.
</event>
<event>
 4    1  0.2191064E-006  0.1300000E+05  0.7957747E-01  0.1322471E+00
    9000001   -1    0    0    0    0  0.00000000000E+00  0.00000000000E+00  0.64999999231E+04  0.65000000000E+04  0.10000000000E+01 0.  0.
    9000001   -1    0    0    0    0 -0.00000000000E+00 -0.00000000000E+00 -0.64999999231E+04  0.65000000000E+04  0.10000000000E+01 0.  0.
    9000001    1    1    2    0    0  0.33544254117E+04 -0.95423830336E+03 -0.54851853586E+04  0.65000000000E+04  0.10000000000E+01 0.  0.
    9000001    1    1    2    0    0 -0.33544254117E+04  0.95423830336E+03  0.54851853586E+04  0.65000000000E+04  0.10000000000E+01 0.  0.
</event>
<event>
 4    1  0.2191064E-006  0.1300000E+05  0.7957747E-01  0.1322471E+00
    9000001   -1    0    0    0    0  0.00000000000E+00  0.00000000000E+00  0.64999999231E+04  0.65000000000E+04  0.10000000000E+01 0.  0.
    9000001   -1    0    0    0    0 -0.00000000000E+00 -0.00000000000E+00 -0.64999999231E+04  0.65000000000E+04  0.10000000000E+01 0.  0.
    9000001    1    1    2    0    0 -0.13487158935E+04  0.44458912391E+04  0.45458789611E+04  0.65000000000E+04  0.10000000000E+01 0.  0.
    9000001    1    1    2    0    0  0.13487158935E+04 -0.44458912391E+04 -0.45458789611E+04  0.65000000000E+04  0.10000000000E+01 0.  0.
</event>
<event>
 4    1  0.2191064E-006  0.1300000E+05  0.7957747E-01  0.1322471E+00
    9000001   -1    0    0    0    0  0.00000000000E+00  0.00000000000E+00  0.64999999231E+04  0.65000000000E+04  0.10000000000E+01 0.  0.
    9000001   -1    0    0    0    0 -0.00000000000E+00 -0.00000000000E+00 -0.64999999231E+04  0.65000000000E+04  0.10000000000E+01 0.  0.
    9000001    1    1    2    0    0  0.48561564115E+04 -0.42993158003E+04 -0.42851785957E+03  0.65000000000E+04  0.10000000000E+01 0.  0.
    9000001    1    1    2    0    0 -0.48561564115E+04  0.42993158003E+04  0.42851785957E+03  0.65000000000E+04  0.10000000000E+01 0.  0.
</event>
<event>
 4    1  0.2191064E-006  0.1300000E+05  0.7957747E-01  0.1322471E+00
    9000001   -1    0    0    0    0  0.00000000000E+00  0.00000000000E+00  0.64999999231E+04  0.65000000000E+04  0.10000000000E+01 0.  0.
    9000001   -1    0    0    0    0 -0.00000000000E+00 -0.00000000000E+00 -0.64999999231E+04  0.65000000000E+04  0.10000000000E+01 0.  0.
    9000001    1    1    2    0    0  0.15245142705E+04 -0.62575090949E+04 -0.87717453581E+03  0.65000000000E+04  0.10000000000E+01 0.  0.
    9000001    1    1    2    0    0 -0.15245142705E+04  0.62575090949E+04  0.87717453581E+03  0.65000000000E+04  0.10000000000E+01 0.  0.
</event>
<event>
 4    1  0.2191064E-006  0.1300000E+05  0.7957747E-01  0.1322471E+00
    9000001   -1    0    0    0    0  0.00000000000E+00  0.00000000000E+00  0.64999999231E+04  0.65000000000E+04  0.10000000000E+01 0.  0.
    9000001   -1    0    0    0    0 -0.00000000000E+00 -0.00000000000E+00 -0.64999999231E+04  0.65000000000E+04  0.10000000000E+01 0.  0.
    9000001    1    1    2    0    0  0.28958316974E+04 -0.35914169426E+04  0.45788516164E+04  0.65000000000E+04  0.10000000000E+01 0.  0.
    9000001    1    1    2    0    0 -0.28958316974E+04  0.35914169426E+04 -0.45788516164E+04  0.65000000000E+04  0.10000000000E+01 0.  0.
</event>
<event>
 4    1  0.2191064E-006  0.1300000E+05  0.7957747E-01  0.1322471E+00
    9000001   -1    0    0    0    0  0.00000000000E+00  0.00000000000E+00  0.64999999231E+04  0.65000000000E+04  0.10000000000E+01 0.  0.
    9000001   -1    0    0    0    0 -0.00000000000E+00 -0.00000000000E+00 -0.64999999231E+04  0.65000000000E+04  0.10000000000E+01 0.  0.
    9000001    1    1    2    0    0 -0.33789963669E+04  0.40357323592E+04 -0.38138231313E+04  0.65000000000E+04  0.10000000000E+01 0.  0.
    9000001    1    1    2    0    0  0.33789963669E+04 -0.40357323592E+04  0.38138231313E+04  0.65000000000E+04  0.10000000000E+01 0.  0.
</event>
<event>
 4    1  0.2191064E-006  0.1300000E+05  0.7957747E-01  0.1322471E+00
    9000001   -1    0    0    0    0  0.00000000000E+00  0.00000000000E+00  0.64999999231E+04  0.65000000000E+04  0.10000000000E+01 0.  0.
    9000001   -1    0    0    0    0 -0.00000000000E+00 -0.00000000000E+00 -0.64999999231E+04  0.65000000000E+04  0.10000000000E+01 0.  0.
    9000001    1    1    2    0    0  0.10305446230E+04 -0.15379326403E+04  0.62307896750E+04  0.65000000000E+04  0.10000000000E+01 0.  0.
    9000001    1    1    2    0    0 -0.10305446230E+04  0.15379326403E+04 -0.62307896750E+04  0.65000000000E+04  0.10000000000E+01 0.  0.
</event>
<event>
 4    1  0.2191064E-006  0.1300000E+05  0.7957747E-01  0.1322471E+00
    9000001   -1    0    0    0    0  0.00000000000E+00  0.00000000000E+00  0.64999999231E+04  0.65000000000E+04  0.10000000000E+01 0.  0.
    9000001   -1    0    0    0    0 -0.00000000000E+00 -0.00000000000E+00 -0.64999999231E+04  0.65000000000E+04  0.10000000000E+01 0.  0.
    9000001    1    1    2    0    0 -0.57180458577E+04 -0.22083789515E+04 -0.21626402788E+04  0.65000000000E+04  0.10000000000E+01 0.  0.
    9000001    1    1    2    0    0  0.57180458577E+04  0.22083789515E+04  0.21626402788E+04  0.65000000000E+04  0.10000000000E+01 0.  0.
</event>
<event>
 4    1  0.2191064E-006  0.1300000E+05  0.7957747E-01  0.1322471E+00
    9000001   -1    0    0    0    0  0.00000000000E+00  0.00000000000E+00  0.64999999231E+04  0.65000000000E+04  0.10000000000E+01 0.  0.
    9000001   -1    0    0    0    0 -0.00000000000E+00 -0.00000000000E+00 -0.64999999231E+04  0.65000000000E+04  0.10000000000E+01 0.  0.
    9000001    1    1    2    0    0 -0.15406258411E+04 -0.52482733980E+04 -0.35117086094E+04  0.65000000000E+04  0.10000000000E+01 0.  0.
    9000001    1    1    2    0    0  0.15406258411E+04  0.52482733980E+04  0.35117086094E+04  0.65000000000E+04  0.10000000000E+01 0.  0.
</event>
<event>
 4    1  0.2191064E-006  0.1300000E+05  0.7957747E-01  0.1322471E+00
    9000001   -1    0    0    0    0  0.00000000000E+00  0.00000000000E+00  0.64999999231E+04  0.65000000000E+04  0.10000000000E+01 0.  0.
    9000001   -1    0    0    0    0 -0.00000000000E+00 -0.00000000000E+00 -0.64999999231E+04  0.65000000000E+04  0.10000000000E+01 0.  0.
    9000001    1    1    2    0    0 -0.28269480782E+04 -0.31888126858E+04 -0.49081398939E+04  0.65000000000E+04  0.10000000000E+01 0.  0.
    9000001    1    1    2    0    0  0.28269480782E+04  0.31888126858E+04  0.49081398939E+04  0.65000000000E+04  0.10000000000E+01 0.  0.
</event>
<event>
 4    1  0.2191064E-006  0.1300000E+05  0.7957747E-01  0.1322471E+00
    9000001   -1    0    0    0    0  0.00000000000E+00  0.00000000000E+00  0.64999999231E+04  0.65000000000E+04  0.10000000000E+01 0.  0.
    9000001   -1    0    0    0    0 -0.00000000000E+00 -0.00000000000E+00 -0.64999999231E+04  0.65000000000E+04  0.10000000000E+01 0.  0.
    9000001    1    1    2    0    0 -0.13242604149E+04  0.36785667068E+04  0.51927334167E+04  0.65000000000E+04  0.10000000000E+01 0.  0.
    9000001    1    1    2    0    0  0.13242604149E+04 -0.36785667068E+04 -0.51927334167E+04  0.65000000000E+04  0.10000000000E+01 0.  0.
</event>
<event>
 4    1  0.2191064E-006  0.1300000E+05  0.7957747E-01  0.1322471E+00
    9000001   -1    0    0    0    0  0.00000000000E+00  0.00000000000E+00  0.64999999231E+04  0.65000000000E+04  0.10000000000E+01 0.  0.
    9000001   -1    0    0    0    0 -0.00000000000E+00 -0.00000000000E+00 -0.64999999231E+04  0.65000000000E+04  0.10000000000E+01 0.  0.
    9000001    1    1    2    0    0  0.50877250505E+04 -0.59537352344E+03  0.40013226786E+04  0.65000000000E+04  0.10000000000E+01 0.  0.
    9000001    1    1    2    0    0 -0.50877250505E+04  0.59537352344E+03 -0.40013226786E+04  0.65000000000E+04  0.10000000000E+01 0.  0.
</event>
<event>
 4    1  0.2191064E-006  0.1300000E+05  0.7957747E-01  0.1322471E+00
    9000001   -1    0    0    0    0  0.00000000000E+00  0.00000000000E+00  0.64999999231E+04  0.65000000000E+04  0.10000000000E+01 0.  0.
    9000001   -1    0    0    0    0 -0.00000000000E+00 -0.00000000000E+00 -0.64999999231E+04  0.65000000000E+04  0.10000000000E+01 0.  0.
    9000001    1    1    2    0    0 -0.15401716743E+04  0.36726797873E+04  0.51370510406E+04  0.65000000000E+04  0.10000000000E+01 0.  0.
    9000001    1    1    2    0    0  0.15401716743E+04 -0.36726797873E+04 -0.51370510406E+04  0.65000000000E+04  0.10000000000E+01 0.  0.
</event>
<event>
 4    1  0.2191064E-006  0.1300000E+05  0.7957747E-01  0.1322471E+00
    9000001   -1    0    0    0    0  0.00000000000E+00  0.00000000000E+00  0.64999999231E+04  0.65000000000E+04  0.10000000000E+01 0.  0.
    9000001   -1    0    0    0    0 -0.00000000000E+00 -0.00000000000E+00 -0.64999999231E+04  0.65000000000E+04  0.10000000000E+01 0.  0.
    9000001    1    1    2    0    0  0.19665658579E+04 -0.61530870656E+04 -0.72259067917E+03  0.65000000000E+04  0.10000000000E+01 0.  0.
    9000001    1    1    2    0    0 -0.19665658579E+04  0.61530870656E+04  0.72259067917E+03  0.65000000000E+04  0.10000000000E+01 0.  0.
</event>
<event>
 4    1  0.2191064E-006  0.1300000E+05  0.7957747E-01  0.1322471E+00
    9000001   -1    0    0    0    0  0.00000000000E+00  0.00000000000E+00  0.64999999231E+04  0.65000000000E+04  0.10000000000E+01 0.  0.
    9000001   -1    0    0    0    0 -0.00000000000E+00 -0.00000000000E+00 -0.64999999231E+04  0.65000000000E+04  0.10000000000E+01 0.  0.
    9000001    1    1    2    0    0  0.19631853960E+04  0.44385311732E+04  0.43238111806E+04  0.65000000000E+04  0.10000000000E+01 0.  0.
    9000001    1    1    2    0    0 -0.19631853960E+04 -0.44385311732E+04 -0.43238111806E+04  0.65000000000E+04  0.10000000000E+01 0.  0.
</event>
<event>
 4    1  0.2191064E-006  0.1300000E+05  0.7957747E-01  0.1322471E+00
    9000001   -1    0    0    0    0  0.00000000000E+00  0.00000000000E+00  0.64999999231E+04  0.65000000000E+04  0.10000000000E+01 0.  0.
    9000001   -1    0    0    0    0 -0.00000000000E+00 -0.00000000000E+00 -0.64999999231E+04  0.65000000000E+04  0.10000000000E+01 0.  0.
    9000001    1    1    2    0    0  0.41180030794E+04  0.47270063166E+03  0.50068556750E+04  0.65000000000E+04  0.10000000000E+01 0.  0.
    9000001    1    1    2    0    0 -0.41180030794E+04 -0.47270063166E+03 -0.50068556750E+04  0.65000000000E+04  0.10000000000E+01 0.  0.
</event>
<event>
 4    1  0.2191064E-006  0.1300000E+05  0.7957747E-01  0.1322471E+00
    9000001   -1    0    0    0    0  0.00000000000E+00  0.00000000000E+00  0.64999999231E+04  0.65000000000E+04  0.10000000000E+01 0.  0.
    9000001   -1    0    0    0    0 -0.00000000000E+00 -0.00000000000E+00 -0.64999999231E+04  0.65000000000E+04  0.10000000000E+01 0.  0.
    9000001    1    1    2    0    0  0.54723442656E+04 -0.15112836120E+04  0.31653544956E+04  0.65000000000E+04  0.10000000000E+01 0.  0.
    9000001    1    1    2    0    0 -0.54723442656E+04  0.15112836120E+04 -0.31653544956E+04  0.65000000000E+04  0.10000000000E+01 0.  0.
</event>
<event>
 4    1  0.2191064E-006  0.1300000E+05  0.7957747E-01  0.1322471E+00
    9000001   -1    0    0    0    0  0.00000000000E+00  0.00000000000E+00  0.64999999231E+04  0.65000000000E+04  0.10000000000E+01 0.  0.
    9000001   -1    0    0    0    0 -0.00000000000E+00 -0.00000000000E+00 -0.64999999231E+04  0.65000000000E+04  0.10000000000E+01 0.  0.
    9000001    1    1    2    0    0 -0.50643876064E+04 -0.40506880340E+04 -0.44034489055E+03  0.65000000000E+04  0.10000000000E+01 0.  0.
    9000001    1    1    2    0    0  0.50643876064E+04  0.40506880340E+04  0.44034489055E+03  0.65000000000E+04  0.10000000000E+01 0.  0.
</event>
<event>
 4    1  0.2191064E-006  0.1300000E+05  0.7957747E-01  0.1322471E+00
    9000001   -1    0    0    0    0  0.00000000000E+00  0.00000000000E+00  0.64999999231E+04  0.65000000000E+04  0.10000000000E+01 0.  0.
    9000001   -1    0    0    0    0 -0.00000000000E+00 -0.00000000000E+00 -0.64999999231E+04  0.65000000000E+04  0.10000000000E+01 0.  0.
    9000001    1    1    2    0    0  0.30665987692E+04 -0.28054546246E+04 -0.49975389281E+04  0.65000000000E+04  0.10000000000E+01 0.  0.
    9000001    1    1    2    0    0 -0.30665987692E+04  0.28054546246E+04  0.49975389281E+04  0.65000000000E+04  0.10000000000E+01 0.  0.
</event>
<event>
 4    1  0.2191064E-006  0.1300000E+05  0.7957747E-01  0.1322471E+00
    9000001   -1    0    0    0    0  0.00000000000E+00  0.00000000000E+00  0.64999999231E+04  0.65000000000E+04  0.10000000000E+01 0.  0.
    9000001   -1    0    0    0    0 -0.00000000000E+00 -0.00000000000E+00 -0.64999999231E+04  0.65000000000E+04  0.10000000000E+01 0.  0.
    9000001    1    1    2    0    0  0.33971143179E+04 -0.49989213379E+04 -0.23917355138E+04  0.65000000000E+04  0.10000000000E+01 0.  0.
    9000001    1    1    2    0    0 -0.33971143179E+04  0.49989213379E+04  0.23917355138E+04  0.65000000000E+04  0.10000000000E+01 0.  0.
</event>
<event>
 4    1  0.2191064E-006  0.1300000E+05  0.7957747E-01  0.1322471E+00
    9000001   -1    0    0    0    0  0.00000000000E+00  0.00000000000E+00  0.64999999231E+04  0.65000000000E+04  0.10000000000E+01 0.  0.
    9000001   -1    0    0    0    0 -0.00000000000E+00 -0.00000000000E+00 -0.64999999231E+04  0.65000000000E+04  0.10000000000E+01 0.  0.
    9000001    1    1    2    0    0 -0.35195465491E+04 -0.15183036523E+04  0.52495280843E+04  0.65000000000E+04  0.10000000000E+01 0.  0.
    9000001    1    1    2    0    0  0.35195465491E+04  0.15183036523E+04 -0.52495280843E+04  0.65000000000E+04  0.10000000000E+01 0.  0.
</event>
<event>
 4    1  0.2191064E-006  0.1300000E+05  0.7957747E-01  0.1322471E+00
    9000001   -1    0    0    0    0  0.00000000000E+00  0.00000000000E+00  0.64999999231E+04  0.65000000000E+04  0.10000000000E+01 0.  0.
    9000001   -1    0    0    0    0 -0.00000000000E+00 -0.00000000000E+00 -0.64999999231E+04  0.65000000000E+04  0.10000000000E+01 0.  0.
    9000001    1    1    2    0    0  0.62779817220E+04 -0.12485352206E+04  0.11305327510E+04  0.65000000000E+04  0.10000000000E+01 0.  0.
    9000001    1    1    2    0    0 -0.62779817220E+04  0.12485352206E+04 -0.11305327510E+04  0.65000000000E+04  0.10000000000E+01 0.  0.
</event>
<event>
 4    1  0.2191064E-006  0.1300000E+05  0.7957747E-01  0.1322471E+00
    9000001   -1    0    0    0    0  0.00000000000E+00  0.00000000000E+00  0.64999999231E+04  0.65000000000E+04  0.10000000000E+01 0.  0.
    9000001   -1    0    0    0    0 -0.00000000000E+00 -0.00000000000E+00 -0.64999999231E+04  0.65000000000E+04  0.10000000000E+01 0.  0.
    9000001    1    1    2    0    0 -0.26588000796E+04 -0.51886239731E+04 -0.28738410538E+04  0.65000000000E+04  0.10000000000E+01 0.  0.
    9000001    1    1    2    0    0  0.26588000796E+04  0.51886239731E+04  0.28738410538E+04  0.65000000000E+04  0.10000000000E+01 0.  0.
</event>
<event>
 4    1  0.2191064E-006  0.1300000E+05  0.7957747E-01  0.1322471E+00
    9000001   -1    0    0    0    0  0.00000000000E+00  0.00000000000E+00  0.64999999231E+04  0.65000000000E+04  0.10000000000E+01 0.  0.
    9000001   -1    0    0    0    0 -0.00000000000E+00 -0.00000000000E+00 -0.64999999231E+04  0.65000000000E+04  0.10000000000E+01 0.  0.
    9000001    1    1    2    0    0 -0.35921433152E+04  0.39157426392E+04  0.37434562889E+04  0.65000000000E+04  0.10000000000E+01 0.  0.
    9000001    1    1    2    0    0  0.35921433152E+04 -0.39157426392E+04 -0.37434562889E+04  0.65000000000E+04  0.10000000000E+01 0.  0.
</event>
<event>
 4    1  0.2191064E-006  0.1300000E+05  0.7957747E-01  0.1322471E+00
    9000001   -1    0    0    0    0  0.00000000000E+00  0.00000000000E+00  0.64999999231E+04  0.65000000000E+04  0.10000000000E+01 0.  0.
    9000001   -1    0    0    0    0 -0.00000000000E+00 -0.00000000000E+00 -0.64999999231E+04  0.65000000000E+04  0.10000000000E+01 0.  0.
    9000001    1    1    2    0    0 -0.61017990178E+04  0.87801654611E+03  0.20608577562E+04  0.65000000000E+04  0.10000000000E+01 0.  0.
    9000001    1    1    2    0    0  0.61017990178E+04 -0.87801654611E+03 -0.20608577562E+04  0.65000000000E+04  0.10000000000E+01 0.  0.
</event>
<event>
 4    1  0.2191064E-006  0.1300000E+05  0.7957747E-01  0.1322471E+00
    9000001   -1    0    0    0    0  0.00000000000E+00  0.00000000000E+00  0.64999999231E+04  0.65000000000E+04  0.10000000000E+01 0.  0.
    9000001   -1    0    0    0    0 -0.00000000000E+00 -0.00000000000E+00 -0.64999999231E+04  0.65000000000E+04  0.10000000000E+01 0.  0.
    9000001    1    1    2    0    0 -0.40502857330E+04 -0.50724412165E+04 -0.33988907999E+03  0.65000000000E+04  0.10000000000E+01 0.  0.
    9000001    1    1    2    0    0  0.40502857330E+04  0.50724412165E+04  0.33988907999E+03  0.65000000000E+04  0.10000000000E+01 0.  0.
</event>
<event>
 4    1  0.2191064E-006  0.1300000E+05  0.7957747E-01  0.1322471E+00
    9000001   -1    0    0    0    0  0.00000000000E+00  0.00000000000E+00  0.64999999231E+04  0.65000000000E+04  0.10000000000E+01 0.  0.
    9000001   -1    0    0    0    0 -0.00000000000E+00 -0.00000000000E+00 -0.64999999231E+04  0.65000000000E+04  0.10000000000E+01 0.  0.
    9000001    1    1    2    0    0  0.36840361007E+04 -0.52961104310E+04  0.79315276692E+03  0.65000000000E+04  0.10000000000E+01 0.  0.
    9000001    1    1    2    0    0 -0.36840361007E+04  0.52961104310E+04 -0.79315276692E+03  0.65000000000E+04  0.10000000000E+01 0.  0.
</event>
<event>
 4    1  0.2191064E-006  0.1300000E+05  0.7957747E-01  0.1322471E+00
    9000001   -1    0    0    0    0  0.00000000000E+00  0.00000000000E+00  0.64999999231E+04  0.65000000000E+04  0.10000000000E+01 0.  0.
    9000001   -1    0    0    0    0 -0.00000000000E+00 -0.00000000000E+00 -0.64999999231E+04  0.65000000000E+04  0.10000000000E+01 0.  0.
    9000001    1    1    2    0    0  0.47802787237E+04  0.27624322879E+04  0.34304376074E+04  0.65000000000E+04  0.10000000000E+01 0.  0.
    9000001    1    1    2    0    0 -0.47802787237E+04 -0.27624322879E+04 -0.34304376074E+04  0.65000000000E+04  0.10000000000E+01 0.  0.
</event>
<event>
 4    1  0.2191064E-006  0.1300000E+05  0.7957747E-01  0.1322471E+00
    9000001   -1    0    0    0    0  0.00000000000E+00  0.00000000000E+00  0.64999999231E+04  0.65000000000E+04  0.10000000000E+01 0.  0.
    9000001   -1    0    0    0    0 -0.00000000000E+00 -0.00000000000E+00 -0.64999999231E+04  0.65000000000E+04  0.10000000000E+01 0.  0.
    9000001    1    1    2    0    0  0.36411018778E+04 -0.47908248687E+04 -0.24577170694E+04  0.65000000000E+04  0.10000000000E+01 0.  0.
    9000001    1    1    2    0    0 -0.36411018778E+04  0.47908248687E+04  0.24577170694E+04  0.65000000000E+04  0.10000000000E+01 0.  0.
</event>
<event>
 4    1  0.2191064E-006  0.1300000E+05  0.7957747E-01  0.1322471E+00
    9000001   -1    0    0    0    0  0.00000000000E+00  0.00000000000E+00  0.64999999231E+04  0.65000000000E+04  0.10000000000E+01 0.  0.
    9000001   -1    0    0    0    0 -0.00000000000E+00 -0.00000000000E+00 -0.64999999231E+04  0.65000000000E+04  0.10000000000E+01 0.  0.
    9000001    1    1    2    0    0 -0.21914208676E+03 -0.34543928488E+04 -0.55017402512E+04  0.65000000000E+04  0.10000000000E+01 0.  0.
    9000001    1    1    2    0    0  0.21914208676E+03  0.34543928488E+04  0.55017402512E+04  0.65000000000E+04  0.10000000000E+01 0.  0.
</event>
<event>
 4    1  0.2191064E-006  0.1300000E+05  0.7957747E-01  0.1322471E+00
    9000001   -1    0    0    0    0  0.00000000000E+00  0.00000000000E+00  0.64999999231E+04  0.65000000000E+04  0.10000000000E+01 0.  0.
    9000001   -1    0    0    0    0 -0.00000000000E+00 -0.00000000000E+00 -0.64999999231E+04  0.65000000000E+04  0.10000000000E+01 0.  0.
    9000001    1    1    2    0    0  0.14368161246E+04  0.21983053485E+04 -0.59458398918E+04  0.65000000000E+04  0.10000000000E+01 0.  0.
    9000001    1    1    2    0    0 -0.14368161246E+04 -0.21983053485E+04  0.59458398918E+04  0.65000000000E+04  0.10000000000E+01 0.  0.
</event>
<event>
 4    1  0.2191064E-006  0.1300000E+05  0.7957747E-01  0.1322471E+00
    9000001   -1    0    0    0    0  0.00000000000E+00  0.00000000000E+00  0.64999999231E+04  0.65000000000E+04  0.10000000000E+01 0.  0.
    9000001   -1    0    0    0    0 -0.00000000000E+00 -0.00000000000E+00 -0.64999999231E+04  0.65000000000E+04  0.10000000000E+01 0.  0.
    9000001    1    1    2    0    0  0.18321032160E+04 -0.61836155593E+04 -0.81012062080E+03  0.65000000000E+04  0.10000000000E+01 0.  0.
    9000001    1    1    2    0    0 -0.18321032160E+04  0.61836155593E+04  0.81012062080E+03  0.65000000000E+04  0.10000000000E+01 0.  0.
</event>
<event>
 4    1  0.2191064E-006  0.1300000E+05  0.7957747E-01  0.1322471E+00
    9000001   -1    0    0    0    0  0.00000000000E+00  0.00000000000E+00  0.64999999231E+04  0.65000000000E+04  0.10000000000E+01 0.  0.
    9000001   -1    0    0    0    0 -0.00000000000E+00 -0.00000000000E+00 -0.64999999231E+04  0.65000000000E+04  0.10000000000E+01 0.  0.
    9000001    1    1    2    0    0  0.44014165119E+04 -0.41859855303E+02  0.47828631008E+04  0.65000000000E+04  0.10000000000E+01 0.  0.
    9000001    1    1    2    0    0 -0.44014165119E+04  0.41859855303E+02 -0.47828631008E+04  0.65000000000E+04  0.10000000000E+01 0.  0.
</event>
<event>
 4    1  0.2191064E-006  0.1300000E+05  0.7957747E-01  0.1322471E+00
    9000001   -1    0    0    0    0  0.00000000000E+00  0.00000000000E+00  0.64999999231E+04  0.65000000000E+04  0.10000000000E+01 0.  0.
    9000001   -1    0    0    0    0 -0.00000000000E+00 -0.00000000000E+00 -0.64999999231E+04  0.65000000000E+04  0.10000000000E+01 0.  0.
    9000001    1    1    2    0    0 -0.12588183026E+04  0.56402858472E+04 -0.29753236872E+04  0.65000000000E+04  0.10000000000E+01 0.  0.
    9000001    1    1    2    0    0  0.12588183026E+04 -0.56402858472E+04  0.29753236872E+04  0.65000000000E+04  0.10000000000E+01 0.  0.
</event>
<event>
 4    1  0.2191064E-006  0.1300000E+05  0.7957747E-01  0.1322471E+00
    9000001   -1    0    0    0    0  0.00000000000E+00  0.00000000000E+00  0.64999999231E+04  0.65000000000E+04  0.10000000000E+01 0.  0.
    9000001   -1    0    0    0    0 -0.00000000000E+00 -0.00000000000E+00 -0.64999999231E+04  0.65000000000E+04  0.10000000000E+01 0.  0.
    9000001    1    1    2    0    0  0.48105790656E+04  0.24976195490E+04  0.35875095319E+04  0.65000000000E+04  0.10000000000E+01 0.  0.
    9000001    1    1    2    0    0 -0.48105790656E+04 -0.24976195490E+04 -0.35875095319E+04  0.65000000000E+04  0.10000000000E+01 0.  0.
</event>
<event>
 4    1  0.2191064E-006  0.1300000E+05  0.7957747E-01  0.1322471E+00
    9000001   -1    0    0    0    0  0.00000000000E+00  0.00000000000E+00  0.64999999231E+04  0.65000000000E+04  0.10000000000E+01 0.  0.
    9000001   -1    0    0    0    0 -0.00000000000E+00 -0.00000000000E+00 -0.64999999231E+04  0.65000000000E+04  0.10000000000E+01 0.  0.
    9000001    1    1    2    0    0  0.64011724136E+04  0.11002841856E+04 -0.25370345334E+03  0.65000000000E+04  0.10000000000E+01 0.  0.
    9000001    1    1    2    0    0 -0.64011724136E+04 -0.11002841856E+04  0.25370345334E+03  0.65000000000E+04  0.10000000000E+01 0.  0.
</event>
<event>
 4    1  0.2191064E-006  0.1300000E+05  0.7957747E-01  0.1322471E+00
    9000001   -1    0    0    0    0  0.00000000000E+00  0.00000000000E+00  0.64999999231E+04  0.65000000000E+04  0.10000000000E+01 0.  0.
    9000001   -1    0    0    0    0 -0.00000000000E+00 -0.00000000000E+00 -0.64999999231E+04  0.65000000000E+04  0.10000000000E+01 0.  0.
    9000001    1    1    2    0    0 -0.41349197540E+04  0.16544723076E+04  0.47344650185E+04  0.65000000000E+04  0.10000000000E+01 0.  0.
    9000001    1    1    2    0    0  0.41349197540E+04 -0.16544723076E+04 -0.47344650185E+04  0.65000000000E+04  0.10000000000E+01 0.  0.
</event>
<event>
 4    1  0.2191064E-006  0.1300000E+05  0.7957747E-01  0.1322471E+00
    9000001   -1    0    0    0    0  0.00000000000E+00  0.00000000000E+00  0.64999999231E+04  0.65000000000E+04  0.10000000000E+01 0.  0.
    9000001   -1    0    0    0    0 -0.00000000000E+00 -0.00000000000E+00 -0.64999999231E+04  0.65000000000E+04  0.10000000000E+01 0.  0.
    9000001    1    1    2    0    0 -0.22061751895E+04 -0.33259512180E+04 -0.51303838578E+04  0.65000000000E+04  0.10000000000E+01 0.  0.
    9000001    1    1    2    0    0  0.22061751895E+04  0.33259512180E+04  0.51303838578E+04  0.65000000000E+04  0.10000000000E+01 0.  0.
</event>
<event>
 4    1  0.2191064E-006  0.1300000E+05  0.7957747E-01  0.1322471E+00
    9000001   -1    0    0    0    0  0.00000000000E+00  0.00000000000E+00  0.64999999231E+04  0.65000000000E+04  0.10000000000E+01 0.  0.
    9000001   -1    0    0    0    0 -0.00000000000E+00 -0.00000000000E+00 -0.64999999231E+04  0.65000000000E+04  0.10000000000E+01 0.  0.
    9000001    1    1    2    0    0 -0.33882108959E+04  0.31520904509E+04 -0.45644662026E+04  0.65000000000E+04  0.10000000000E+01 0.  0.
    9000001    1    1    2    0    0  0.33882108959E+04 -0.31520904509E+04  0.45644662026E+04  0.65000000000E+04  0.10000000000E+01 0.  0.
</event>
<event>
 4    1  0.2191064E-006  0.1300000E+05  0.7957747E-01  0.1322471E+00
    9000001   -1    0    0    0    0  0.00000000000E+00  0.00000000000E+00  0.64999999231E+04  0.65000000000E+04  0.10000000000E+01 0.  0.
    9000001   -1    0    0    0    0 -0.00000000000E+00 -0.00000000000E+00 -0.64999999231E+04  0.65000000000E+04  0.10000000000E+01 0.  0.
    9000001    1    1    2    0    0  0.30449786647E+04  0.13029607603E+04 -0.55928880901E+04  0.65000000000E+04  0.10000000000E+01 0.  0.
    9000001    1    1    2    0    0 -0.30449786647E+04 -0.13029607603E+04  0.55928880901E+04  0.65000000000E+04  0.10000000000E+01 0.  0.
</event>
<event>
 4    1  0.2191064E-006  0.1300000E+05  0.7957747E-01  0.1322471E+00
    9000001   -1    0    0    0    0  0.00000000000E+00  0.00000000000E+00  0.64999999231E+04  0.65000000000E+04  0.10000000000E+01 0.  0.
    9000001   -1    0    0    0    0 -0.00000000000E+00 -0.00000000000E+00 -0.64999999231E+04  0.65000000000E+04  0.10000000000E+01 0.  0.
    9000001    1    1    2    0    0  0.39385191394E+04 -0.46877520622E+04  0.21824405128E+04  0.65000000000E+04  0.10000000000E+01 0.  0.
    9000001    1    1    2    0    0 -0.39385191394E+04  0.46877520622E+04 -0.21824405128E+04  0.65000000000E+04  0.10000000000E+01 0.  0.
</event>
<event>
 4    1  0.2191064E-006  0.1300000E+05  0.7957747E-01  0.1322471E+00
    9000001   -1    0    0    0    0  0.00000000000E+00  0.00000000000E+00  0.64999999231E+04  0.65000000000E+04  0.10000000000E+01 0.  0.
    9000001   -1    0    0    0    0 -0.00000000000E+00 -0.00000000000E+00 -0.64999999231E+04  0.65000000000E+04  0.10000000000E+01 0.  0.
    9000001    1    1    2    0    0  0.60863874165E+04  0.75669209269E+03  0.21525111598E+04  0.65000000000E+04  0.10000000000E+01 0.  0.
    9000001    1    1    2    0    0 -0.60863874165E+04 -0.75669209269E+03 -0.21525111598E+04  0.65000000000E+04  0.10000000000E+01 0.  0.
</event>
<event>
 4    1  0.2191064E-006  0.1300000E+05  0.7957747E-01  0.1322471E+00
    9000001   -1    0    0    0    0  0.00000000000E+00  0.00000000000E+00  0.64999999231E+04  0.65000000000E+04  0.10000000000E+01 0.  0.
    9000001   -1    0    0    0    0 -0.00000000000E+00 -0.00000000000E+00 -0.64999999231E+04  0.65000000000E+04  0.10000000000E+01 0.  0.
    9000001    1    1    2    0    0  0.15511134051E+04 -0.63000007512E+04  0.39247514556E+03  0.65000000000E+04  0.10000000000E+01 0.  0.
    9000001    1    1    2    0    0 -0.15511134051E+04  0.63000007512E+04 -0.39247514556E+03  0.65000000000E+04  0.10000000000E+01 0.  0.
</event>
<event>
 4    1  0.2191064E-006  0.1300000E+05  0.7957747E-01  0.1322471E+00
    9000001   -1    0    0    0    0  0.00000000000E+00  0.00000000000E+00  0.64999999231E+04  0.65000000000E+04  0.10000000000E+01 0.  0.
    9000001   -1    0    0    0    0 -0.00000000000E+00 -0.00000000000E+00 -0.64999999231E+04  0.65000000000E+04  0.10000000000E+01 0.  0.
    9000001    1    1    2    0    0 -0.44669430100E+04  0.47218254722E+04 -0.27988492930E+02  0.65000000000E+04  0.10000000000E+01 0.  0.
    9000001    1    1    2    0    0  0.44669430100E+04 -0.47218254722E+04  0.27988492930E+02  0.65000000000E+04  0.10000000000E+01 0.  0.
</event>
<event>
 4    1  0.2191064E-006  0.1300000E+05  0.7957747E-01  0.1322471E+00
    9000001   -1    0    0    0    0  0.00000000000E+00  0.00000000000E+00  0.64999999231E+04  0.65000000000E+04  0.10000000000E+01 0.  0.
    9000001   -1    0    0    0    0 -0.00000000000E+00 -0.00000000000E+00 -0.64999999231E+04  0.65000000000E+04  0.10000000000E+01 0.  0.
    9000001    1    1    2    0    0 -0.29809589697E+04 -0.46020534910E+04 -0.34906999710E+04  0.65000000000E+04  0.10000000000E+01 0.  0.
    9000001    1    1    2    0    0  0.29809589697E+04  0.46020534910E+04  0.34906999710E+04  0.65000000000E+04  0.10000000000E+01 0.  0.
</event>
<event>
 4    1  0.2191064E-006  0.1300000E+05  0.7957747E-01  0.1322471E+00
    9000001   -1    0    0    0    0  0.00000000000E+00  0.00000000000E+00  0.64999999231E+04  0.65000000000E+04  0.10000000000E+01 0.  0.
    9000001   -1    0    0    0    0 -0.00000000000E+00 -0.00000000000E+00 -0.64999999231E+04  0.65000000000E+04  0.10000000000E+01 0.  0.
    9000001    1    1    2    0    0  0.42137659457E+04  0.24158879835E+04  0.43194514473E+04  0.65000000000E+04  0.10000000000E+01 0.  0.
    9000001    1    1    2    0    0 -0.42137659457E+04 -0.24158879835E+04 -0.43194514473E+04  0.65000000000E+04  0.10000000000E+01 0.  0.
</event>
<event>
 4    1  0.2191064E-006  0.1300000E+05  0.7957747E-01  0.1322471E+00
    9000001   -1    0    0    0    0  0.00000000000E+00  0.00000000000E+00  0.64999999231E+04  0.65000000000E+04  0.10000000000E+01 0.  0.
    9000001   -1    0    0    0    0 -0.00000000000E+00 -0.00000000000E+00 -0.64999999231E+04  0.65000000000E+04  0.10000000000E+01 0.  0.
    9000001    1    1    2    0    0  0.11451877747E+04  0.99541026607E+03 -0.63204194768E+04  0.65000000000E+04  0.10000000000E+01 0.  0.
    9000001    1    1    2    0    0 -0.11451877747E+04 -0.99541026607E+03  0.63204194768E+04  0.65000000000E+04  0.10000000000E+01 0.  0.
</event>
<event>
 4    1  0.2191064E-006  0.1300000E+05  0.7957747E-01  0.1322471E+00
    9000001   -1    0    0    0    0  0.00000000000E+00  0.00000000000E+00  0.64999999231E+04  0.65000000000E+04  0.10000000000E+01 0.  0.
    9000001   -1    0    0    0    0 -0.00000000000E+00 -0.00000000000E+00 -0.64999999231E+04  0.65000000000E+04  0.10000000000E+01 0.  0.
    9000001    1    1    2    0    0  0.53708621894E+04  0.34045041463E+04 -0.13465473852E+04  0.65000000000E+04  0.10000000000E+01 0.  0.
    9000001    1    1    2    0    0 -0.53708621894E+04 -0.34045041463E+04  0.13465473852E+04  0.65000000000E+04  0.10000000000E+01 0.  0.
</event>
<event>
 4    1  0.2191064E-006  0.1300000E+05  0.7957747E-01  0.1322471E+00
    9000001   -1    0    0    0    0  0.00000000000E+00  0.00000000000E+00  0.64999999231E+04  0.65000000000E+04  0.10000000000E+01 0.  0.
    9000001   -1    0    0    0    0 -0.00000000000E+00 -0.00000000000E+00 -0.64999999231E+04  0.65000000000E+04  0.10000000000E+01 0.  0.
    9000001    1    1    2    0    0  0.26758139886E+04  0.46285629584E+04 -0.36968126054E+04  0.65000000000E+04  0.10000000000E+01 0.  0.
    9000001    1    1    2    0    0 -0.26758139886E+04 -0.46285629584E+04  0.36968126054E+04  0.65000000000E+04  0.10000000000E+01 0.  0.
</event>
<event>
 4    1  0.2191064E-006  0.1300000E+05  0.7957747E-01  0.1322471E+00
    9000001   -1    0    0    0    0  0.00000000000E+00  0.00000000000E+00  0.64999999231E+04  0.65000000000E+04  0.10000000000E+01 0.  0.
    9000001   -1    0    0    0    0 -0.00000000000E+00 -0.00000000000E+00 -0.64999999231E+04  0.65000000000E+04  0.10000000000E+01 0.  0.
    9000001    1    1    2    0    0  0.64939274596E+04  0.13427751300E+03  0.24672798640E+03  0.65000000000E+04  0.10000000000E+01 0.  0.
    9000001    1    1    2    0    0 -0.64939274596E+04 -0.13427751300E+03 -0.24672798640E+03  0.65000000000E+04  0.10000000000E+01 0.  0.
</event>
<event>
 4    1  0.2191064E-006  0.1300000E+05  0.7957747E-01  0.1322471E+00
    9000001   -1    0    0    0    0  0.00000000000E+00  0.00000000000E+00  0.64999999231E+04  0.65000000000E+04  0.10000000000E+01 0.  0.
    9000001   -1    0    0    0    0 -0.00000000000E+00 -0.00000000000E+00 -0.64999999231E+04  0.65000000000E+04  0.10000000000E+01 0.  0.
    9000001    1    1    2    0    0  0.12391584533E+04  0.17747162495E+04 -0.61290184827E+04  0.65000000000E+04  0.10000000000E+01 0.  0.
    9000001    1    1    2    0    0 -0.12391584533E+04 -0.17747162495E+04  0.61290184827E+04  0.65000000000E+04  0.10000000000E+01 0.  0.
</event>
<event>
 4    1  0.2191064E-006  0.1300000E+05  0.7957747E-01  0.1322471E+00
    9000001   -1    0    0    0    0  0.00000000000E+00  0.00000000000E+00  0.64999999231E+04  0.65000000000E+04  0.10000000000E+01 0.  0.
    9000001   -1    0    0    0    0 -0.00000000000E+00 -0.00000000000E+00 -0.64999999231E+04  0.65000000000E+04  0.10000000000E+01 0.  0.
    9000001    1    1    2    0    0 -0.53621963834E+04 -0.19971001992E+04  0.30835758042E+04  0.65000000000E+04  0.10000000000E+01 0.  0.
    9000001    1    1    2    0    0  0.53621963834E+04  0.19971001992E+04 -0.30835758042E+04  0.65000000000E+04  0.10000000000E+01 0.  0.
</event>
<event>
 4    1  0.2191064E-006  0.1300000E+05  0.7957747E-01  0.1322471E+00
    9000001   -1    0    0    0    0  0.00000000000E+00  0.00000000000E+00  0.64999999231E+04  0.65000000000E+04  0.10000000000E+01 0.  0.
    9000001   -1    0    0    0    0 -0.00000000000E+00 -0.00000000000E+00 -0.64999999231E+04  0.65000000000E+04  0.10000000000E+01 0.  0.
    9000001    1    1    2    0    0 -0.22967269637E+04 -0.48131216945E+04  0.37160333432E+04  0.65000000000E+04  0.10000000000E+01 0.  0.
    9000001    1    1    2    0    0  0.22967269637E+04  0.48131216945E+04 -0.37160333432E+04  0.65000000000E+04  0.10000000000E+01 0.  0.
</event>
<event>
 4    1  0.2191064E-006  0.1300000E+05  0.7957747E-01  0.1322471E+00
    9000001   -1    0    0    0    0  0.00000000000E+00  0.00000000000E+00  0.64999999231E+04  0.65000000000E+04  0.10000000000E+01 0.  0.
    9000001   -1    0    0    0    0 -0.00000000000E+00 -0.00000000000E+00 -0.64999999231E+04  0.65000000000E+04  0.10000000000E+01 0.  0.
    9000001    1    1    2    0    0 -0.50272774403E+04  0.41191414254E+04 -0.95678921956E+02  0.65000000000E+04  0.10000000000E+01 0.  0.
    9000001    1    1    2    0    0  0.50272774403E+04 -0.41191414254E+04  0.95678921956E+02  0.65000000000E+04  0.10000000000E+01 0.  0.
</event>
<event>
 4    1  0.2191064E-006  0.1300000E+05  0.7957747E-01  0.1322471E+00
    9000001   -1    0    0    0    0  0.00000000000E+00  0.00000000000E+00  0.64999999231E+04  0.65000000000E+04  0.10000000000E+01 0.  0.
    9000001   -1    0    0    0    0 -0.00000000000E+00 -0.00000000000E+00 -0.64999999231E+04  0.65000000000E+04  0.10000000000E+01 0.  0.
    9000001    1    1    2    0    0 -0.26497318866E+04  0.14986764046E+04  0.57430731288E+04  0.65000000000E+04  0.10000000000E+01 0.  0.
    9000001    1    1    2    0    0  0.26497318866E+04 -0.14986764046E+04 -0.57430731288E+04  0.65000000000E+04  0.10000000000E+01 0.  0.
</event>
<event>
 4    1  0.2191064E-006  0.1300000E+05  0.7957747E-01  0.1322471E+00
    9000001   -1    0    0    0    0  0.00000000000E+00  0.00000000000E+00  0.64999999231E+04  0.65000000000E+04  0.10000000000E+01 0.  0.
    9000001   -1    0    0    0    0 -0.00000000000E+00 -0.00000000000E+00 -0.64999999231E+04  0.65000000000E+04  0.10000000000E+01 0.  0.
    9000001    1    1    2    0    0  0.92396244440E+03  0.61446830352E+04  0.19076589837E+04  0.65000000000E+04  0.10000000000E+01 0.  0.
    9000001    1    1    2    0    0 -0.92396244440E+03 -0.61446830352E+04 -0.19076589837E+04  0.65000000000E+04  0.10000000000E+01 0.  0.
</event>
<event>
 4    1  0.2191064E-006  0.1300000E+05  0.7957747E-01  0.1322471E+00
    9000001   -1    0    0    0    0  0.00000000000E+00  0.00000000000E+00  0.64999999231E+04  0.65000000000E+04  0.10000000000E+01 0.  0.
    9000001   -1    0    0    0    0 -0.00000000000E+00 -0.00000000000E+00 -0.64999999231E+04  0.65000000000E+04  0.10000000000E+01 0.  0.
    9000001    1    1    2    0    0 -0.48581817633E+04  0.40878580477E+04  0.13919358954E+04  0.65000000000E+04  0.10000000000E+01 0.  0.
    9000001    1    1    2    0    0  0.48581817633E+04 -0.40878580477E+04 -0.13919358954E+04  0.65000000000E+04  0.10000000000E+01 0.  0.
</event>
<event>
 4    1  0.2191064E-006  0.1300000E+05  0.7957747E-01  0.1322471E+00
    9000001   -1    0    0    0    0  0.00000000000E+00  0.00000000000E+00  0.64999999231E+04  0.65000000000E+04  0.10000000000E+01 0.  0.
    9000001   -1    0    0    0    0 -0.00000000000E+00 -0.00000000000E+00 -0.64999999231E+04  0.65000000000E+04  0.10000000000E+01 0.  0.
    9000001    1    1    2    0    0 -0.39970068800E+04  0.44049013351E+04  0.26212171275E+04  0.65000000000E+04  0.10000000000E+01 0.  0.
    9000001    1    1    2    0    0  0.39970068800E+04 -0.44049013351E+04 -0.26212171275E+04  0.65000000000E+04  0.10000000000E+01 0.  0.
</event>
<event>
 4    1  0.2191064E-006  0.1300000E+05  0.7957747E-01  0.1322471E+00
    9000001   -1    0    0    0    0  0.00000000000E+00  0.00000000000E+00  0.64999999231E+04  0.65000000000E+04  0.10000000000E+01 0.  0.
    9000001   -1    0    0    0    0 -0.00000000000E+00 -0.00000000000E+00 -0.64999999231E+04  0.65000000000E+04  0.10000000000E+01 0.  0.
    9000001    1    1    2    0    0 -0.58279078904E+04  0.35580341103E+03  0.28563775230E+04  0.65000000000E+04  0.10000000000E+01 0.  0.
    9000001    1    1    2    0    0  0.58279078904E+04 -0.35580341103E+03 -0.28563775230E+04  0.65000000000E+04  0.10000000000E+01 0.  0.
</event>
<event>
 4    1  0.2191064E-006  0.1300000E+05  0.7957747E-01  0.1322471E+00
    9000001   -1    0    0    0    0  0.00000000000E+00  0.00000000000E+00  0.64999999231E+04  0.65000000000E+04  0.10000000000E+01 0.  0.
    9000001   -1    0    0    0    0 -0.00000000000E+00 -0.00000000000E+00 -0.64999999231E+04  0.65000000000E+04  0.10000000000E+01 0.  0.
    9000001    1    1    2    0    0 -0.70461122002E+03 -0.53891613158E+04 -0.35651735358E+04  0.65000000000E+04  0.10000000000E+01 0.  0.
    9000001    1    1    2    0    0  0.70461122002E+03  0.53891613158E+04  0.35651735358E+04  0.65000000000E+04  0.10000000000E+01 0.  0.
</event>
<event>
 4    1  0.2191064E-006  0.1300000E+05  0.7957747E-01  0.1322471E+00
    9000001   -1    0    0    0    0  0.00000000000E+00  0.00000000000E+00  0.64999999231E+04  0.65000000000E+04  0.10000000000E+01 0.  0.
    9000001   -1    0    0    0    0 -0.00000000000E+00 -0.00000000000E+00 -0.64999999231E+04  0.65000000000E+04  0.10000000000E+01 0.  0.
    9000001    1    1    2    0    0 -0.35272205347E+04  0.43918632911E+04 -0.32434936615E+04  0.65000000000E+04  0.10000000000E+01 0.  0.
    9000001    1    1    2    0    0  0.35272205347E+04 -0.43918632911E+04  0.32434936615E+04  0.65000000000E+04  0.10000000000E+01 0.  0.
</event>
<event>
 4    1  0.2191064E-006  0.1300000E+05  0.7957747E-01  0.1322471E+00
    9000001   -1    0    0    0    0  0.00000000000E+00  0.00000000000E+00  0.64999999231E+04  0.65000000000E+04  0.10000000000E+01 0.  0.
    9000001   -1    0    0    0    0 -0.00000000000E+00 -0.00000000000E+00 -0.64999999231E+04  0.65000000000E+04  0.10000000000E+01 0.  0.
    9000001    1    1    2    0    0  0.48290883465E+03 -0.30051552640E+04  0.57433300355E+04  0.65000000000E+04  0.10000000000E+01 0.  0.
    9000001    1    1    2    0    0 -0.48290883465E+03  0.30051552640E+04 -0.57433300355E+04  0.65000000000E+04  0.10000000000E+01 0.  0.
</event>
<event>
 4    1  0.2191064E-006  0.1300000E+05  0.7957747E-01  0.1322471E+00
    9000001   -1    0    0    0    0  0.00000000000E+00  0.00000000000E+00  0.64999999231E+04  0.65000000000E+04  0.10000000000E+01 0.  0.
    9000001   -1    0    0    0    0 -0.00000000000E+00 -0.00000000000E+00 -0.64999999231E+04  0.65000000000E+04  0.10000000000E+01 0.  0.
    9000001    1    1    2    0    0  0.39175584107E+04  0.51518057793E+04  0.60135872088E+03  0.65000000000E+04  0.10000000000E+01 0.  0.
    9000001    1    1    2    0    0 -0.39175584107E+04 -0.51518057793E+04 -0.60135872088E+03  0.65000000000E+04  0.10000000000E+01 0.  0.
</event>
<event>
 4    1  0.2191064E-006  0.1300000E+05  0.7957747E-01  0.1322471E+00
    9000001   -1    0    0    0    0  0.00000000000E+00  0.00000000000E+00  0.64999999231E+04  0.65000000000E+04  0.10000000000E+01 0.  0.
    9000001   -1    0    0    0    0 -0.00000000000E+00 -0.00000000000E+00 -0.64999999231E+04  0.65000000000E+04  0.10000000000E+01 0.  0.
    9000001    1    1    2    0    0  0.61579042095E+04  0.83378270535E+03  0.19065731423E+04  0.65000000000E+04  0.10000000000E+01 0.  0.
    9000001    1    1    2    0    0 -0.61579042095E+04 -0.83378270535E+03 -0.19065731423E+04  0.65000000000E+04  0.10000000000E+01 0.  0.
</event>
<event>
 4    1  0.2191064E-006  0.1300000E+05  0.7957747E-01  0.1322471E+00
    9000001   -1    0    0    0    0  0.00000000000E+00  0.00000000000E+00  0.64999999231E+04  0.65000000000E+04  0.10000000000E+01 0.  0.
    9000001   -1    0    0    0    0 -0.00000000000E+00 -0.00000000000E+00 -0.64999999231E+04  0.65000000000E+04  0.10000000000E+01 0.  0.
    9000001    1    1    2    0    0 -0.20647422992E+04 -0.26826319312E+03 -0.61575054281E+04  0.65000000000E+04  0.10000000000E+01 0.  0.
    9000001    1    1    2    0    0  0.20647422992E+04  0.26826319312E+03  0.61575054281E+04  0.65000000000E+04  0.10000000000E+01 0.  0.
</event>
<event>
 4    1  0.2191064E-006  0.1300000E+05  0.7957747E-01  0.1322471E+00
    9000001   -1    0    0    0    0  0.00000000000E+00  0.00000000000E+00  0.64999999231E+04  0.65000000000E+04  0.10000000000E+01 0.  0.
    9000001   -1    0    0    0    0 -0.00000000000E+00 -0.00000000000E+00 -0.64999999231E+04  0.65000000000E+04  0.10000000000E+01 0.  0.
    9000001    1    1    2    0    0 -0.12375623654E+04  0.23684968029E+04 -0.59252562211E+04  0.65000000000E+04  0.10000000000E+01 0.  0.
    9000001    1    1    2    0    0  0.12375623654E+04 -0.23684968029E+04  0.59252562211E+04  0.65000000000E+04  0.10000000000E+01 0.  0.
</event>
<event>
 4    1  0.2191064E-006  0.1300000E+05  0.7957747E-01  0.1322471E+00
    9000001   -1    0    0    0    0  0.00000000000E+00  0.00000000000E+00  0.64999999231E+04  0.65000000000E+04  0.10000000000E+01 0.  0.
    9000001   -1    0    0    0    0 -0.00000000000E+00 -0.00000000000E+00 -0.64999999231E+04  0.65000000000E+04  0.10000000000E+01 0.  0.
    9000001    1    1    2    0    0  0.43604578457E+04 -0.47951651903E+04 -0.49274453096E+03  0.65000000000E+04  0.10000000000E+01 0.  0.
    9000001    1    1    2    0    0 -0.43604578457E+04  0.47951651903E+04  0.49274453096E+03  0.65000000000E+04  0.10000000000E+01 0.  0.
</event>
<event>
 4    1  0.2191064E-006  0.1300000E+05  0.7957747E-01  0.1322471E+00
    9000001   -1    0    0    0    0  0.00000000000E+00  0.00000000000E+00  0.64999999231E+04  0.65000000000E+04  0.10000000000E+01 0.  0.
    9000001   -1    0    0    0    0 -0.00000000000E+00 -0.00000000000E+00 -0.64999999231E+04  0.65000000000E+04  0.10000000000E+01 0.  0.
    9000001    1    1    2    0    0  0.40071180680E+04  0.45264951148E+04 -0.23882725482E+04  0.65000000000E+04  0.10000000000E+01 0.  0.
    9000001    1    1    2    0    0 -0.40071180680E+04 -0.45264951148E+04  0.23882725482E+04  0.65000000000E+04  0.10000000000E+01 0.  0.
</event>
<event>
 4    1  0.2191064E-006  0.1300000E+05  0.7957747E-01  0.1322471E+00
    9000001   -1    0    0    0    0  0.00000000000E+00  0.00000000000E+00  0.64999999231E+04  0.65000000000E+04  0.10000000000E+01 0.  0.
    9000001   -1    0    0    0    0 -0.00000000000E+00 -0.00000000000E+00 -0.64999999231E+04  0.65000000000E+04  0.10000000000E+01 0.  0.
    9000001    1    1    2    0    0 -0.58223324708E+03 -0.12156987202E+04  0.63587011305E+04  0.65000000000E+04  0.10000000000E+01 0.  0.
    9000001    1    1    2    0    0  0.58223324708E+03  0.12156987202E+04 -0.63587011305E+04  0.65000000000E+04  0.10000000000E+01 0.  0.
</event>
<event>
 4    1  0.2191064E-006  0.1300000E+05  0.7957747E-01  0.1322471E+00
    9000001   -1    0    0    0    0  0.00000000000E+00  0.00000000000E+00  0.64999999231E+04  0.65000000000E+04  0.10000000000E+01 0.  0.
    9000001   -1    0    0    0    0 -0.00000000000E+00 -0.00000000000E+00 -0.64999999231E+04  0.65000000000E+04  0.10000000000E+01 0.  0.
    9000001    1    1    2    0    0  0.25746830836E+04  0.59513605368E+04 -0.44979304122E+03  0.65000000000E+04  0.10000000000E+01 0.  0.
    9000001    1    1    2    0    0 -0.25746830836E+04 -0.59513605368E+04  0.44979304122E+03  0.65000000000E+04  0.10000000000E+01 0.  0.
</event>
<event>
 4    1  0.2191064E-006  0.1300000E+05  0.7957747E-01  0.1322471E+00
    9000001   -1    0    0    0    0  0.00000000000E+00  0.00000000000E+00  0.64999999231E+04  0.65000000000E+04  0.10000000000E+01 0.  0.
    9000001   -1    0    0    0    0 -0.00000000000E+00 -0.00000000000E+00 -0.64999999231E+04  0.65000000000E+04  0.10000000000E+01 0.  0.
    9000001    1    1    2    0    0  0.62474864267E+04  0.17129470941E+04 -0.53359591557E+03  0.65000000000E+04  0.10000000000E+01 0.  0.
    9000001    1    1    2    0    0 -0.62474864267E+04 -0.17129470941E+04  0.53359591557E+03  0.65000000000E+04  0.10000000000E+01 0.  0.
</event>
<event>
 4    1  0.2191064E-006  0.1300000E+05  0.7957747E-01  0.1322471E+00
    9000001   -1    0    0    0    0  0.00000000000E+00  0.00000000000E+00  0.64999999231E+04  0.65000000000E+04  0.10000000000E+01 0.  0.
    9000001   -1    0    0    0    0 -0.00000000000E+00 -0.00000000000E+00 -0.64999999231E+04  0.65000000000E+04  0.10000000000E+01 0.  0.
    9000001    1    1    2    0    0  0.34946615014E+04  0.92349500583E+03 -0.54022677613E+04  0.65000000000E+04  0.10000000000E+01 0.  0.
    9000001    1    1    2    0    0 -0.34946615014E+04 -0.92349500583E+03  0.54022677613E+04  0.65000000000E+04  0.10000000000E+01 0.  0.
</event>
<event>
 4    1  0.2191064E-006  0.1300000E+05  0.7957747E-01  0.1322471E+00
    9000001   -1    0    0    0    0  0.00000000000E+00  0.00000000000E+00  0.64999999231E+04  0.65000000000E+04  0.10000000000E+01 0.  0.
    9000001   -1    0    0    0    0 -0.00000000000E+00 -0.00000000000E+00 -0.64999999231E+04  0.65000000000E+04  0.10000000000E+01 0.  0.
    9000001    1    1    2    0    0  0.57846672889E+04  0.26013286037E+04  0.14215177989E+04  0.65000000000E+04  0.10000000000E+01 0.  0.
    9000001    1    1    2    0    0 -0.57846672889E+04 -0.26013286037E+04 -0.14215177989E+04  0.65000000000E+04  0.10000000000E+01 0.  0.
</event>
<event>
 4    1  0.2191064E-006  0.1300000E+05  0.7957747E-01  0.1322471E+00
    9000001   -1    0    0    0    0  0.00000000000E+00  0.00000000000E+00  0.64999999231E+04  0.65000000000E+04  0.10000000000E+01 0.  0.
    9000001   -1    0    0    0    0 -0.00000000000E+00 -0.00000000000E+00 -0.64999999231E+04  0.65000000000E+04  0.10000000000E+01 0.  0.
    9000001    1    1    2    0    0  0.42312394679E+04  0.28990947705E+04  0.39927260208E+04  0.65000000000E+04  0.10000000000E+01 0.  0.
    9000001    1    1    2    0    0 -0.42312394679E+04 -0.28990947705E+04 -0.39927260208E+04  0.65000000000E+04  0.10000000000E+01 0.  0.
</event>
<event>
 4    1  0.2191064E-006  0.1300000E+05  0.7957747E-01  0.1322471E+00
    9000001   -1    0    0    0    0  0.00000000000E+00  0.00000000000E+00  0.64999999231E+04  0.65000000000E+04  0.10000000000E+01 0.  0.
    9000001   -1    0    0    0    0 -0.00000000000E+00 -0.00000000000E+00 -0.64999999231E+04  0.65000000000E+04  0.10000000000E+01 0.  0.
    9000001    1    1    2    0    0 -0.47154643545E+04 -0.15811669609E+04  0.41850096730E+04  0.65000000000E+04  0.10000000000E+01 0.  0.
    9000001    1    1    2    0    0  0.47154643545E+04  0.15811669609E+04 -0.41850096730E+04  0.65000000000E+04  0.10000000000E+01 0.  0.
</event>
<event>
 4    1  0.2191064E-006  0.1300000E+05  0.7957747E-01  0.1322471E+00
    9000001   -1    0    0    0    0  0.00000000000E+00  0.00000000000E+00  0.64999999231E+04  0.65000000000E+04  0.10000000000E+01 0.  0.
    9000001   -1    0    0    0    0 -0.00000000000E+00 -0.00000000000E+00 -0.64999999231E+04  0.65000000000E+04  0.10000000000E+01 0.  0.
    9000001    1    1    2    0    0 -0.53132022759E+04 -0.30054442326E+03  0.37322317217E+04  0.65000000000E+04  0.10000000000E+01 0.  0.
    9000001    1    1    2    0    0  0.53132022759E+04  0.30054442326E+03 -0.37322317217E+04  0.65000000000E+04  0.10000000000E+01 0.  0.
</event>
<event>
 4    1  0.2191064E-006  0.1300000E+05  0.7957747E-01  0.1322471E+00
    9000001   -1    0    0    0    0  0.00000000000E+00  0.00000000000E+00  0.64999999231E+04  0.65000000000E+04  0.10000000000E+01 0.  0.
    9000001   -1    0    0    0    0 -0.00000000000E+00 -0.00000000000E+00 -0.64999999231E+04  0.65000000000E+04  0.10000000000E+01 0.  0.
    9000001    1    1    2    0    0  0.25362552041E+03  0.38337841978E+04 -0.52428782000E+04  0.65000000000E+04  0.10000000000E+01 0.  0.
    9000001    1    1    2    0    0 -0.25362552041E+03 -0.38337841978E+04  0.52428782000E+04  0.65000000000E+04  0.10000000000E+01 0.  0.
</event>
<event>
 4    1  0.2191064E-006  0.1300000E+05  0.7957747E-01  0.1322471E+00
    9000001   -1    0    0    0    0  0.00000000000E+00  0.00000000000E+00  0.64999999231E+04  0.65000000000E+04  0.10000000000E+01 0.  0.
    9000001   -1    0    0    0    0 -0.00000000000E+00 -0.00000000000E+00 -0.64999999231E+04  0.65000000000E+04  0.10000000000E+01 0.  0.
    9000001    1    1    2    0    0  0.22557294637E+02  0.92173309424E+03 -0.64342752717E+04  0.65000000000E+04  0.10000000000E+01 0.  0.
    9000001    1    1    2    0    0 -0.22557294637E+02 -0.92173309424E+03  0.64342752717E+04  0.65000000000E+04  0.10000000000E+01 0.  0.
</event>
<event>
 4    1  0.2191064E-006  0.1300000E+05  0.7957747E-01  0.1322471E+00
    9000001   -1    0    0    0    0  0.00000000000E+00  0.00000000000E+00  0.64999999231E+04  0.65000000000E+04  0.10000000000E+01 0.  0.
    9000001   -1    0    0    0    0 -0.00000000000E+00 -0.00000000000E+00 -0.64999999231E+04  0.65000000000E+04  0.10000000000E+01 0.  0.
    9000001    1    1    2    0    0  0.41996473128E+04 -0.81444843921E+03  0.48938364488E+04  0.65000000000E+04  0.10000000000E+01 0.  0.
    9000001    1    1    2    0    0 -0.41996473128E+04  0.81444843921E+03 -0.48938364488E+04  0.65000000000E+04  0.10000000000E+01 0.  0.
</event>
<event>
 4    1  0.2191064E-006  0.1300000E+05  0.7957747E-01  0.1322471E+00
    9000001   -1    0    0    0    0  0.00000000000E+00  0.00000000000E+00  0.64999999231E+04  0.65000000000E+04  0.10000000000E+01 0.  0.
    9000001   -1    0    0    0    0 -0.00000000000E+00 -0.00000000000E+00 -0.64999999231E+04  0.65000000000E+04  0.10000000000E+01 0.  0.
    9000001    1    1    2    0    0 -0.62542876456E+04  0.15729261616E+04  0.81227355997E+03  0.65000000000E+04  0.10000000000E+01 0.  0.
    9000001    1    1    2    0    0  0.62542876456E+04 -0.15729261616E+04 -0.81227355997E+03  0.65000000000E+04  0.10000000000E+01 0.  0.
</event>
<event>
 4    1  0.2191064E-006  0.1300000E+05  0.7957747E-01  0.1322471E+00
    9000001   -1    0    0    0    0  0.00000000000E+00  0.00000000000E+00  0.64999999231E+04  0.65000000000E+04  0.10000000000E+01 0.  0.
    9000001   -1    0    0    0    0 -0.00000000000E+00 -0.00000000000E+00 -0.64999999231E+04  0.65000000000E+04  0.10000000000E+01 0.  0.
    9000001    1    1    2    0    0  0.11659511458E+04  0.17215887109E+04  0.61584648441E+04  0.65000000000E+04  0.10000000000E+01 0.  0.
    9000001    1    1    2    0    0 -0.11659511458E+04 -0.17215887109E+04 -0.61584648441E+04  0.65000000000E+04  0.10000000000E+01 0.  0.
</event>
<event>
 4    1  0.2191064E-006  0.1300000E+05  0.7957747E-01  0.1322471E+00
    9000001   -1    0    0    0    0  0.00000000000E+00  0.00000000000E+00  0.64999999231E+04  0.65000000000E+04  0.10000000000E+01 0.  0.
    9000001   -1    0    0    0    0 -0.00000000000E+00 -0.00000000000E+00 -0.64999999231E+04  0.65000000000E+04  0.10000000000E+01 0.  0.
    9000001    1    1    2    0    0  0.38638808763E+04 -0.26683430664E+04 -0.44944820451E+04  0.65000000000E+04  0.10000000000E+01 0.  0.
    9000001    1    1    2    0    0 -0.38638808763E+04  0.26683430664E+04  0.44944820451E+04  0.65000000000E+04  0.10000000000E+01 0.  0.
</event>
<event>
 4    1  0.2191064E-006  0.1300000E+05  0.7957747E-01  0.1322471E+00
    9000001   -1    0    0    0    0  0.00000000000E+00  0.00000000000E+00  0.64999999231E+04  0.65000000000E+04  0.10000000000E+01 0.  0.
    9000001   -1    0    0    0    0 -0.00000000000E+00 -0.00000000000E+00 -0.64999999231E+04  0.65000000000E+04  0.10000000000E+01 0.  0.
    9000001    1    1    2    0    0  0.22543727669E+04 -0.24173995503E+04 -0.55967831691E+04  0.65000000000E+04  0.10000000000E+01 0.  0.
    9000001    1    1    2    0    0 -0.22543727669E+04  0.24173995503E+04  0.55967831691E+04  0.65000000000E+04  0.10000000000E+01 0.  0.
</event>
<event>
 4    1  0.2191064E-006  0.1300000E+05  0.7957747E-01  0.1322471E+00
    9000001   -1    0    0    0    0  0.00000000000E+00  0.00000000000E+00  0.64999999231E+04  0.65000000000E+04  0.10000000000E+01 0.  0.
    9000001   -1    0    0    0    0 -0.00000000000E+00 -0.00000000000E+00 -0.64999999231E+04  0.65000000000E+04  0.10000000000E+01 0.  0.
    9000001    1    1    2    0    0  0.36270102252E+04 -0.33352476451E+04  0.42392120698E+04  0.65000000000E+04  0.10000000000E+01 0.  0.
    9000001    1    1    2    0    0 -0.36270102252E+04  0.33352476451E+04 -0.42392120698E+04  0.65000000000E+04  0.10000000000E+01 0.  0.
</event>
<event>
 4    1  0.2191064E-006  0.1300000E+05  0.7957747E-01  0.1322471E+00
    9000001   -1    0    0    0    0  0.00000000000E+00  0.00000000000E+00  0.64999999231E+04  0.65000000000E+04  0.10000000000E+01 0.  0.
    9000001   -1    0    0    0    0 -0.00000000000E+00 -0.00000000000E+00 -0.64999999231E+04  0.65000000000E+04  0.10000000000E+01 0.  0.
    9000001    1    1    2    0    0 -0.61339592955E+04  0.75530048394E+03  0.20134705214E+04  0.65000000000E+04  0.10000000000E+01 0.  0.
    9000001    1    1    2    0    0  0.61339592955E+04 -0.75530048394E+03 -0.20134705214E+04  0.65000000000E+04  0.10000000000E+01 0.  0.
</event>
<event>
 4    1  0.2191064E-006  0.1300000E+05  0.7957747E-01  0.1322471E+00
    9000001   -1    0    0    0    0  0.00000000000E+00  0.00000000000E+00  0.64999999231E+04  0.65000000000E+04  0.10000000000E+01 0.  0.
    9000001   -1    0    0    0    0 -0.00000000000E+00 -0.00000000000E+00 -0.64999999231E+04  0.65000000000E+04  0.10000000000E+01 0.  0.
    9000001    1    1    2    0    0  0.19966648582E+04  0.55456902964E+04 -0.27401911576E+04  0.65000000000E+04  0.10000000000E+01 0.  0.
    9000001    1    1    2    0    0 -0.19966648582E+04 -0.55456902964E+04  0.27401911576E+04  0.65000000000E+04  0.10000000000E+01 0.  0.
</event>
<event>
 4    1  0.2191064E-006  0.1300000E+05  0.7957747E-01  0.1322471E+00
    9000001   -1    0    0    0    0  0.00000000000E+00  0.00000000000E+00  0.64999999231E+04  0.65000000000E+04  0.10000000000E+01 0.  0.
    9000001   -1    0    0    0    0 -0.00000000000E+00 -0.00000000000E+00 -0.64999999231E+04  0.65000000000E+04  0.10000000000E+01 0.  0.
    9000001    1    1    2    0    0  0.41131493336E+03  0.18710141522E+04  0.62112901291E+04  0.65000000000E+04  0.10000000000E+01 0.  0.
    9000001    1    1    2    0    0 -0.41131493336E+03 -0.18710141522E+04 -0.62112901291E+04  0.65000000000E+04  0.10000000000E+01 0.  0.
</event>
<event>
 4    1  0.2191064E-006  0.1300000E+05  0.7957747E-01  0.1322471E+00
    9000001   -1    0    0    0    0  0.00000000000E+00  0.00000000000E+00  0.64999999231E+04  0.65000000000E+04  0.10000000000E+01 0.  0.
    9000001   -1    0    0    0    0 -0.00000000000E+00 -0.00000000000E+00 -0.64999999231E+04  0.65000000000E+04  0.10000000000E+01 0.  0.
    9000001    1    1    2    0    0 -0.24282150844E+04 -0.40402064635E+04 -0.44755449095E+04  0.65000000000E+04  0.10000000000E+01 0.  0.
    9000001    1    1    2    0    0  0.24282150844E+04  0.40402064635E+04  0.44755449095E+04  0.65000000000E+04  0.10000000000E+01 0.  0.
</event>
<event>
 4    1  0.2191064E-006  0.1300000E+05  0.7957747E-01  0.1322471E+00
    9000001   -1    0    0    0    0  0.00000000000E+00  0.00000000000E+00  0.64999999231E+04  0.65000000000E+04  0.10000000000E+01 0.  0.
    9000001   -1    0    0    0    0 -0.00000000000E+00 -0.00000000000E+00 -0.64999999231E+04  0.65000000000E+04  0.10000000000E+01 0.  0.
    9000001    1    1    2    0    0  0.52628176463E+04  0.95174279557E+03  0.36941758314E+04  0.65000000000E+04  0.10000000000E+01 0.  0.
    9000001    1    1    2    0    0 -0.52628176463E+04 -0.95174279557E+03 -0.36941758314E+04  0.65000000000E+04  0.10000000000E+01 0.  0.
</event>
<event>
 4    1  0.2191064E-006  0.1300000E+05  0.7957747E-01  0.1322471E+00
    9000001   -1    0    0    0    0  0.00000000000E+00  0.00000000000E+00  0.64999999231E+04  0.65000000000E+04  0.10000000000E+01 0.  0.
    9000001   -1    0    0    0    0 -0.00000000000E+00 -0.00000000000E+00 -0.64999999231E+04  0.65000000000E+04  0.10000000000E+01 0.  0.
    9000001    1    1    2    0    0  0.58009600416E+04  0.12020753000E+04 -0.26746731705E+04  0.65000000000E+04  0.10000000000E+01 0.  0.
    9000001    1    1    2    0    0 -0.58009600416E+04 -0.12020753000E+04  0.26746731705E+04  0.65000000000E+04  0.10000000000E+01 0.  0.
</event>
<event>
 4    1  0.2191064E-006  0.1300000E+05  0.7957747E-01  0.1322471E+00
    9000001   -1    0    0    0    0  0.00000000000E+00  0.00000000000E+00  0.64999999231E+04  0.65000000000E+04  0.10000000000E+01 0.  0.
    9000001   -1    0    0    0    0 -0.00000000000E+00 -0.00000000000E+00 -0.64999999231E+04  0.65000000000E+04  0.10000000000E+01 0.  0.
    9000001    1    1    2    0    0  0.46240595519E+04  0.23920464254E+04  0.38918101391E+04  0.65000000000E+04  0.10000000000E+01 0.  0.
    9000001    1    1    2    0    0 -0.46240595519E+04 -0.23920464254E+04 -0.38918101391E+04  0.65000000000E+04  0.10000000000E+01 0.  0.
</event>
<event>
 4    1  0.2191064E-006  0.1300000E+05  0.7957747E-01  0.1322471E+00
    9000001   -1    0    0    0    0  0.00000000000E+00  0.00000000000E+00  0.64999999231E+04  0.65000000000E+04  0.10000000000E+01 0.  0.
    9000001   -1    0    0    0    0 -0.00000000000E+00 -0.00000000000E+00 -0.64999999231E+04  0.65000000000E+04  0.10000000000E+01 0.  0.
    9000001    1    1    2    0    0  0.41545677756E+04 -0.49725247281E+04  0.51338428758E+03  0.65000000000E+04  0.10000000000E+01 0.  0.
    9000001    1    1    2    0    0 -0.41545677756E+04  0.49725247281E+04 -0.51338428758E+03  0.65000000000E+04  0.10000000000E+01 0.  0.
</event>
<event>
 4    1  0.2191064E-006  0.1300000E+05  0.7957747E-01  0.1322471E+00
    9000001   -1    0    0    0    0  0.00000000000E+00  0.00000000000E+00  0.64999999231E+04  0.65000000000E+04  0.10000000000E+01 0.  0.
    9000001   -1    0    0    0    0 -0.00000000000E+00 -0.00000000000E+00 -0.64999999231E+04  0.65000000000E+04  0.10000000000E+01 0.  0.
    9000001    1    1    2    0    0 -0.60871247466E+04  0.22640010454E+04 -0.26685311709E+03  0.65000000000E+04  0.10000000000E+01 0.  0.
    9000001    1    1    2    0    0  0.60871247466E+04 -0.22640010454E+04  0.26685311709E+03  0.65000000000E+04  0.10000000000E+01 0.  0.
</event>
<event>
 4    1  0.2191064E-006  0.1300000E+05  0.7957747E-01  0.1322471E+00
    9000001   -1    0    0    0    0  0.00000000000E+00  0.00000000000E+00  0.64999999231E+04  0.65000000000E+04  0.10000000000E+01 0.  0.
    9000001   -1    0    0    0    0 -0.00000000000E+00 -0.00000000000E+00 -0.64999999231E+04  0.65000000000E+04  0.10000000000E+01 0.  0.
    9000001    1    1    2    0    0 -0.52251512841E+04 -0.23438020538E+04 -0.30747983659E+04  0.65000000000E+04  0.10000000000E+01 0.  0.
    9000001    1    1    2    0    0  0.52251512841E+04  0.23438020538E+04  0.30747983659E+04  0.65000000000E+04  0.10000000000E+01 0.  0.
</event>
<event>
 4    1  0.2191064E-006  0.1300000E+05  0.7957747E-01  0.1322471E+00
    9000001   -1    0    0    0    0  0.00000000000E+00  0.00000000000E+00  0.64999999231E+04  0.65000000000E+04  0.10000000000E+01 0.  0.
    9000001   -1    0    0    0    0 -0.00000000000E+00 -0.00000000000E+00 -0.64999999231E+04  0.65000000000E+04  0.10000000000E+01 0.  0.
    9000001    1    1    2    0    0  0.19791441058E+04  0.60678142694E+04 -0.12306980136E+04  0.65000000000E+04  0.10000000000E+01 0.  0.
    9000001    1    1    2    0    0 -0.19791441058E+04 -0.60678142694E+04  0.12306980136E+04  0.65000000000E+04  0.10000000000E+01 0.  0.
</event>
<event>
 4    1  0.2191064E-006  0.1300000E+05  0.7957747E-01  0.1322471E+00
    9000001   -1    0    0    0    0  0.00000000000E+00  0.00000000000E+00  0.64999999231E+04  0.65000000000E+04  0.10000000000E+01 0.  0.
    9000001   -1    0    0    0    0 -0.00000000000E+00 -0.00000000000E+00 -0.64999999231E+04  0.65000000000E+04  0.10000000000E+01 0.  0.
    9000001    1    1    2    0    0 -0.64126856552E+04  0.10299216910E+04  0.25830795298E+03  0.65000000000E+04  0.10000000000E+01 0.  0.
    9000001    1    1    2    0    0  0.64126856552E+04 -0.10299216910E+04 -0.25830795298E+03  0.65000000000E+04  0.10000000000E+01 0.  0.
</event>
<event>
 4    1  0.2191064E-006  0.1300000E+05  0.7957747E-01  0.1322471E+00
    9000001   -1    0    0    0    0  0.00000000000E+00  0.00000000000E+00  0.64999999231E+04  0.65000000000E+04  0.10000000000E+01 0.  0.
    9000001   -1    0    0    0    0 -0.00000000000E+00 -0.00000000000E+00 -0.64999999231E+04  0.65000000000E+04  0.10000000000E+01 0.  0.
    9000001    1    1    2    0    0  0.49216504220E+04 -0.32959216093E+04 -0.26766129471E+04  0.65000000000E+04  0.10000000000E+01 0.  0.
    9000001    1    1    2    0    0 -0.49216504220E+04  0.32959216093E+04  0.26766129471E+04  0.65000000000E+04  0.10000000000E+01 0.  0.
</event>
<event>
 4    1  0.2191064E-006  0.1300000E+05  0.7957747E-01  0.1322471E+00
    9000001   -1    0    0    0    0  0.00000000000E+00  0.00000000000E+00  0.64999999231E+04  0.65000000000E+04  0.10000000000E+01 0.  0.
    9000001   -1    0    0    0    0 -0.00000000000E+00 -0.00000000000E+00 -0.64999999231E+04  0.65000000000E+04  0.10000000000E+01 0.  0.
    9000001    1    1    2    0    0  0.30793516405E+04  0.50667291879E+04 -0.26638032606E+04  0.65000000000E+04  0.10000000000E+01 0.  0.
    9000001    1    1    2    0    0 -0.30793516405E+04 -0.50667291879E+04  0.26638032606E+04  0.65000000000E+04  0.10000000000E+01 0.  0.
</event>
<event>
 4    1  0.2191064E-006  0.1300000E+05  0.7957747E-01  0.1322471E+00
    9000001   -1    0    0    0    0  0.00000000000E+00  0.00000000000E+00  0.64999999231E+04  0.65000000000E+04  0.10000000000E+01 0.  0.
    9000001   -1    0    0    0    0 -0.00000000000E+00 -0.00000000000E+00 -0.64999999231E+04  0.65000000000E+04  0.10000000000E+01 0.  0.
    9000001    1    1    2    0    0  0.45414070097E+04 -0.46401109818E+04  0.30820682859E+03  0.65000000000E+04  0.10000000000E+01 0.  0.
    9000001    1    1    2    0    0 -0.45414070097E+04  0.46401109818E+04 -0.30820682859E+03  0.65000000000E+04  0.10000000000E+01 0.  0.
</event>
<event>
 4    1  0.2191064E-006  0.1300000E+05  0.7957747E-01  0.1322471E+00
    9000001   -1    0    0    0    0  0.00000000000E+00  0.00000000000E+00  0.64999999231E+04  0.65000000000E+04  0.10000000000E+01 0.  0.
    9000001   -1    0    0    0    0 -0.00000000000E+00 -0.00000000000E+00 -0.64999999231E+04  0.65000000000E+04  0.10000000000E+01 0.  0.
    9000001    1    1    2    0    0  0.36182735270E+04 -0.31524690978E+04 -0.43840659519E+04  0.65000000000E+04  0.10000000000E+01 0.  0.
    9000001    1    1    2    0    0 -0.36182735270E+04  0.31524690978E+04  0.43840659519E+04  0.65000000000E+04  0.10000000000E+01 0.  0.
</event>
<event>
 4    1  0.2191064E-006  0.1300000E+05  0.7957747E-01  0.1322471E+00
    9000001   -1    0    0    0    0  0.00000000000E+00  0.00000000000E+00  0.64999999231E+04  0.65000000000E+04  0.10000000000E+01 0.  0.
    9000001   -1    0    0    0    0 -0.00000000000E+00 -0.00000000000E+00 -0.64999999231E+04  0.65000000000E+04  0.10000000000E+01 0.  0.
    9000001    1    1    2    0    0  0.61544033786E+04  0.22141874770E+03 -0.20794931575E+04  0.65000000000E+04  0.10000000000E+01 0.  0.
    9000001    1    1    2    0    0 -0.61544033786E+04 -0.22141874770E+03  0.20794931575E+04  0.65000000000E+04  0.10000000000E+01 0.  0.
</event>
<event>
 4    1  0.2191064E-006  0.1300000E+05  0.7957747E-01  0.1322471E+00
    9000001   -1    0    0    0    0  0.00000000000E+00  0.00000000000E+00  0.64999999231E+04  0.65000000000E+04  0.10000000000E+01 0.  0.
    9000001   -1    0    0    0    0 -0.00000000000E+00 -0.00000000000E+00 -0.64999999231E+04  0.65000000000E+04  0.10000000000E+01 0.  0.
    9000001    1    1    2    0    0  0.23319436751E+04  0.60658374523E+04 -0.13286722224E+03  0.65000000000E+04  0.10000000000E+01 0.  0.
    9000001    1    1    2    0    0 -0.23319436751E+04 -0.60658374523E+04  0.13286722224E+03  0.65000000000E+04  0.10000000000E+01 0.  0.
</event>
<event>
 4    1  0.2191064E-006  0.1300000E+05  0.7957747E-01  0.1322471E+00
    9000001   -1    0    0    0    0  0.00000000000E+00  0.00000000000E+00  0.64999999231E+04  0.65000000000E+04  0.10000000000E+01 0.  0.
    9000001   -1    0    0    0    0 -0.00000000000E+00 -0.00000000000E+00 -0.64999999231E+04  0.65000000000E+04  0.10000000000E+01 0.  0.
    9000001    1    1    2    0    0  0.11687676568E+04  0.63271282899E+04  0.92272897865E+03  0.65000000000E+04  0.10000000000E+01 0.  0.
    9000001    1    1    2    0    0 -0.11687676568E+04 -0.63271282899E+04 -0.92272897865E+03  0.65000000000E+04  0.10000000000E+01 0.  0.
</event>
<event>
 4    1  0.2191064E-006  0.1300000E+05  0.7957747E-01  0.1322471E+00
    9000001   -1    0    0    0    0  0.00000000000E+00  0.00000000000E+00  0.64999999231E+04  0.65000000000E+04  0.10000000000E+01 0.  0.
    9000001   -1    0    0    0    0 -0.00000000000E+00 -0.00000000000E+00 -0.64999999231E+04  0.65000000000E+04  0.10000000000E+01 0.  0.
    9000001    1    1    2    0    0 -0.55759367436E+04  0.11137029051E+04 -0.31493799820E+04  0.65000000000E+04  0.10000000000E+01 0.  0.
    9000001    1    1    2    0    0  0.55759367436E+04 -0.11137029051E+04  0.31493799820E+04  0.65000000000E+04  0.10000000000E+01 0.  0.
</event>
<event>
 4    1  0.2191064E-006  0.1300000E+05  0.7957747E-01  0.1322471E+00
    9000001   -1    0    0    0    0  0.00000000000E+00  0.00000000000E+00  0.64999999231E+04  0.65000000000E+04  0.10000000000E+01 0.  0.
    9000001   -1    0    0    0    0 -0.00000000000E+00 -0.00000000000E+00 -0.64999999231E+04  0.65000000000E+04  0.10000000000E+01 0.  0.
    9000001    1    1    2    0    0 -0.56925888387E+02 -0.54160474113E+03 -0.64771461885E+04  0.65000000000E+04  0.10000000000E+01 0.  0.
    9000001    1    1    2    0    0  0.56925888387E+02  0.54160474113E+03  0.64771461885E+04  0.65000000000E+04  0.10000000000E+01 0.  0.
</event>
<event>
 4    1  0.2191064E-006  0.1300000E+05  0.7957747E-01  0.1322471E+00
    9000001   -1    0    0    0    0  0.00000000000E+00  0.00000000000E+00  0.64999999231E+04  0.65000000000E+04  0.10000000000E+01 0.  0.
    9000001   -1    0    0    0    0 -0.00000000000E+00 -0.00000000000E+00 -0.64999999231E+04  0.65000000000E+04  0.10000000000E+01 0.  0.
    9000001    1    1    2    0    0 -0.62905849308E+04 -0.30454787334E+03 -0.16080394342E+04  0.65000000000E+04  0.10000000000E+01 0.  0.
    9000001    1    1    2    0    0  0.62905849308E+04  0.30454787334E+03  0.16080394342E+04  0.65000000000E+04  0.10000000000E+01 0.  0.
</event>
<event>
 4    1  0.2191064E-006  0.1300000E+05  0.7957747E-01  0.1322471E+00
    9000001   -1    0    0    0    0  0.00000000000E+00  0.00000000000E+00  0.64999999231E+04  0.65000000000E+04  0.10000000000E+01 0.  0.
    9000001   -1    0    0    0    0 -0.00000000000E+00 -0.00000000000E+00 -0.64999999231E+04  0.65000000000E+04  0.10000000000E+01 0.  0.
    9000001    1    1    2    0    0  0.24229685384E+04  0.59968449299E+04 -0.64581216155E+03  0.65000000000E+04  0.10000000000E+01 0.  0.
    9000001    1    1    2    0    0 -0.24229685384E+04 -0.59968449299E+04  0.64581216155E+03  0.65000000000E+04  0.10000000000E+01 0.  0.
</event>
<event>
 4    1  0.2191064E-006  0.1300000E+05  0.7957747E-01  0.1322471E+00
    9000001   -1    0    0    0    0  0.00000000000E+00  0.00000000000E+00  0.64999999231E+04  0.65000000000E+04  0.10000000000E+01 0.  0.
    9000001   -1    0    0    0    0 -0.00000000000E+00 -0.00000000000E+00 -0.64999999231E+04  0.65000000000E+04  0.10000000000E+01 0.  0.
    9000001    1    1    2    0    0  0.31617195210E+04  0.53521312149E+03  0.56539433659E+04  0.65000000000E+04  0.10000000000E+01 0.  0.
    9000001    1    1    2    0    0 -0.31617195210E+04 -0.53521312149E+03 -0.56539433659E+04  0.65000000000E+04  0.10000000000E+01 0.  0.
</event>
<event>
 4    1  0.2191064E-006  0.1300000E+05  0.7957747E-01  0.1322471E+00
    9000001   -1    0    0    0    0  0.00000000000E+00  0.00000000000E+00  0.64999999231E+04  0.65000000000E+04  0.10000000000E+01 0.  0.
    9000001   -1    0    0    0    0 -0.00000000000E+00 -0.00000000000E+00 -0.64999999231E+04  0.65000000000E+04  0.10000000000E+01 0.  0.
    9000001    1    1    2    0    0  0.31994888445E+04  0.67836307075E+03  0.56172140495E+04  0.65000000000E+04  0.10000000000E+01 0.  0.
    9000001    1    1    2    0    0 -0.31994888445E+04 -0.67836307075E+03 -0.56172140495E+04  0.65000000000E+04  0.10000000000E+01 0.  0.
</event>
<event>
 4    1  0.2191064E-006  0.1300000E+05  0.7957747E-01  0.1322471E+00
    9000001   -1    0    0    0    0  0.00000000000E+00  0.00000000000E+00  0.64999999231E+04  0.65000000000E+04  0.10000000000E+01 0.  0.
    9000001   -1    0    0    0    0 -0.00000000000E+00 -0.00000000000E+00 -0.64999999231E+04  0.65000000000E+04  0.10000000000E+01 0.  0.
    9000001    1    1    2    0    0  0.58734275987E+04 -0.26971896286E+04  0.69138654172E+03  0.65000000000E+04  0.10000000000E+01 0.  0.
    9000001    1    1    2    0    0 -0.58734275987E+04  0.26971896286E+04 -0.69138654172E+03  0.65000000000E+04  0.10000000000E+01 0.  0.
</event>
<event>
 4    1  0.2191064E-006  0.1300000E+05  0.7957747E-01  0.1322471E+00
    9000001   -1    0    0    0    0  0.00000000000E+00  0.00000000000E+00  0.64999999231E+04  0.65000000000E+04  0.10000000000E+01 0.  0.
    9000001   -1    0    0    0    0 -0.00000000000E+00 -0.00000000000E+00 -0.64999999231E+04  0.65000000000E+04  0.10000000000E+01 0.  0.
    9000001    1    1    2    0    0  0.41768866378E+04 -0.22190435741E+04  0.44586391008E+04  0.65000000000E+04  0.10000000000E+01 0.  0.
    9000001    1    1    2    0    0 -0.41768866378E+04  0.22190435741E+04 -0.44586391008E+04  0.65000000000E+04  0.10000000000E+01 0.  0.
</event>
<event>
 4    1  0.2191064E-006  0.1300000E+05  0.7957747E-01  0.1322471E+00
    9000001   -1    0    0    0    0  0.00000000000E+00  0.00000000000E+00  0.64999999231E+04  0.65000000000E+04  0.10000000000E+01 0.  0.
    9000001   -1    0    0    0    0 -0.00000000000E+00 -0.00000000000E+00 -0.64999999231E+04  0.65000000000E+04  0.10000000000E+01 0.  0.
    9000001    1    1    2    0    0 -0.36227171572E+04  0.15767412774E+04  0.51613764000E+04  0.65000000000E+04  0.10000000000E+01 0.  0.
    9000001    1    1    2    0    0  0.36227171572E+04 -0.15767412774E+04 -0.51613764000E+04  0.65000000000E+04  0.10000000000E+01 0.  0.
</event>
<event>
 4    1  0.2191064E-006  0.1300000E+05  0.7957747E-01  0.1322471E+00
    9000001   -1    0    0    0    0  0.00000000000E+00  0.00000000000E+00  0.64999999231E+04  0.65000000000E+04  0.10000000000E+01 0.  0.
    9000001   -1    0    0    0    0 -0.00000000000E+00 -0.00000000000E+00 -0.64999999231E+04  0.65000000000E+04  0.10000000000E+01 0.  0.
    9000001    1    1    2    0    0 -0.42035781578E+04  0.23546336815E+04 -0.43629840588E+04  0.65000000000E+04  0.10000000000E+01 0.  0.
    9000001    1    1    2    0    0  0.42035781578E+04 -0.23546336815E+04  0.43629840588E+04  0.65000000000E+04  0.10000000000E+01 0.  0.
</event>
<event>
 4    1  0.2191064E-006  0.1300000E+05  0.7957747E-01  0.1322471E+00
    9000001   -1    0    0    0    0  0.00000000000E+00  0.00000000000E+00  0.64999999231E+04  0.65000000000E+04  0.10000000000E+01 0.  0.
    9000001   -1    0    0    0    0 -0.00000000000E+00 -0.00000000000E+00 -0.64999999231E+04  0.65000000000E+04  0.10000000000E+01 0.  0.
    9000001    1    1    2    0    0  0.34266475264E+04 -0.16816274456E+04  0.52611989949E+04  0.65000000000E+04  0.10000000000E+01 0.  0.
    9000001    1    1    2    0    0 -0.34266475264E+04  0.16816274456E+04 -0.52611989949E+04  0.65000000000E+04  0.10000000000E+01 0.  0.
</event>
<event>
 4    1  0.2191064E-006  0.1300000E+05  0.7957747E-01  0.1322471E+00
    9000001   -1    0    0    0    0  0.00000000000E+00  0.00000000000E+00  0.64999999231E+04  0.65000000000E+04  0.10000000000E+01 0.  0.
    9000001   -1    0    0    0    0 -0.00000000000E+00 -0.00000000000E+00 -0.64999999231E+04  0.65000000000E+04  0.10000000000E+01 0.  0.
    9000001    1    1    2    0    0 -0.60120968728E+03 -0.56437098486E+04  0.31681358962E+04  0.65000000000E+04  0.10000000000E+01 0.  0.
    9000001    1    1    2    0    0  0.60120968728E+03  0.56437098486E+04 -0.31681358962E+04  0.65000000000E+04  0.10000000000E+01 0.  0.
</event>
<event>
 4    1  0.2191064E-006  0.1300000E+05  0.7957747E-01  0.1322471E+00
    9000001   -1    0    0    0    0  0.00000000000E+00  0.00000000000E+00  0.64999999231E+04  0.65000000000E+04  0.10000000000E+01 0.  0.
    9000001   -1    0    0    0    0 -0.00000000000E+00 -0.00000000000E+00 -0.64999999231E+04  0.65000000000E+04  0.10000000000E+01 0.  0.
    9000001    1    1    2    0    0 -0.22832044031E+04  0.26930338592E+04  0.54575218998E+04  0.65000000000E+04  0.10000000000E+01 0.  0.
    9000001    1    1    2    0    0  0.22832044031E+04 -0.26930338592E+04 -0.54575218998E+04  0.65000000000E+04  0.10000000000E+01 0.  0.
</event>
<event>
 4    1  0.2191064E-006  0.1300000E+05  0.7957747E-01  0.1322471E+00
    9000001   -1    0    0    0    0  0.00000000000E+00  0.00000000000E+00  0.64999999231E+04  0.65000000000E+04  0.10000000000E+01 0.  0.
    9000001   -1    0    0    0    0 -0.00000000000E+00 -0.00000000000E+00 -0.64999999231E+04  0.65000000000E+04  0.10000000000E+01 0.  0.
    9000001    1    1    2    0    0  0.30054329707E+03 -0.49600729844E+04  0.41901490088E+04  0.65000000000E+04  0.10000000000E+01 0.  0.
    9000001    1    1    2    0    0 -0.30054329707E+03  0.49600729844E+04 -0.41901490088E+04  0.65000000000E+04  0.10000000000E+01 0.  0.
</event>
<event>
 4    1  0.2191064E-006  0.1300000E+05  0.7957747E-01  0.1322471E+00
    9000001   -1    0    0    0    0  0.00000000000E+00  0.00000000000E+00  0.64999999231E+04  0.65000000000E+04  0.10000000000E+01 0.  0.
    9000001   -1    0    0    0    0 -0.00000000000E+00 -0.00000000000E+00 -0.64999999231E+04  0.65000000000E+04  0.10000000000E+01 0.  0.
    9000001    1    1    2    0    0  0.60273320846E+04  0.24254508686E+04  0.19609953130E+03  0.65000000000E+04  0.10000000000E+01 0.  0.
    9000001    1    1    2    0    0 -0.60273320846E+04 -0.24254508686E+04 -0.19609953130E+03  0.65000000000E+04  0.10000000000E+01 0.  0.
</event>
<event>
 4    1  0.2191064E-006  0.1300000E+05  0.7957747E-01  0.1322471E+00
    9000001   -1    0    0    0    0  0.00000000000E+00  0.00000000000E+00  0.64999999231E+04  0.65000000000E+04  0.10000000000E+01 0.  0.
    9000001   -1    0    0    0    0 -0.00000000000E+00 -0.00000000000E+00 -0.64999999231E+04  0.65000000000E+04  0.10000000000E+01 0.  0.
    9000001    1    1    2    0    0  0.59028977763E+04  0.14502177155E+04  0.23027517061E+04  0.65000000000E+04  0.10000000000E+01 0.  0.
    9000001    1    1    2    0    0 -0.59028977763E+04 -0.14502177155E+04 -0.23027517061E+04  0.65000000000E+04  0.10000000000E+01 0.  0.
</event>
<event>
 4    1  0.2191064E-006  0.1300000E+05  0.7957747E-01  0.1322471E+00
    9000001   -1    0    0    0    0  0.00000000000E+00  0.00000000000E+00  0.64999999231E+04  0.65000000000E+04  0.10000000000E+01 0.  0.
    9000001   -1    0    0    0    0 -0.00000000000E+00 -0.00000000000E+00 -0.64999999231E+04  0.65000000000E+04  0.10000000000E+01 0.  0.
    9000001    1    1    2    0    0 -0.12031407582E+04 -0.62313850099E+04  0.14043832009E+04  0.65000000000E+04  0.10000000000E+01 0.  0.
    9000001    1    1    2    0    0  0.12031407582E+04  0.62313850099E+04 -0.14043832009E+04  0.65000000000E+04  0.10000000000E+01 0.  0.
</event>
<event>
 4    1  0.2191064E-006  0.1300000E+05  0.7957747E-01  0.1322471E+00
    9000001   -1    0    0    0    0  0.00000000000E+00  0.00000000000E+00  0.64999999231E+04  0.65000000000E+04  0.10000000000E+01 0.  0.
    9000001   -1    0    0    0    0 -0.00000000000E+00 -0.00000000000E+00 -0.64999999231E+04  0.65000000000E+04  0.10000000000E+01 0.  0.
    9000001    1    1    2    0    0 -0.18500209151E+04 -0.41320844777E+04  0.46640432548E+04  0.65000000000E+04  0.10000000000E+01 0.  0.
    9000001    1    1    2    0    0  0.18500209151E+04  0.41320844777E+04 -0.46640432548E+04  0.65000000000E+04  0.10000000000E+01 0.  0.
</event>
<event>
 4    1  0.2191064E-006  0.1300000E+05  0.7957747E-01  0.1322471E+00
    9000001   -1    0    0    0    0  0.00000000000E+00  0.00000000000E+00  0.64999999231E+04  0.65000000000E+04  0.10000000000E+01 0.  0.
    9000001   -1    0    0    0    0 -0.00000000000E+00 -0.00000000000E+00 -0.64999999231E+04  0.65000000000E+04  0.10000000000E+01 0.  0.
    9000001    1    1    2    0    0  0.90237784942E+03  0.62934948723E+04  0.13519007023E+04  0.65000000000E+04  0.10000000000E+01 0.  0.
    9000001    1    1    2    0    0 -0.90237784942E+03 -0.62934948723E+04 -0.13519007023E+04  0.65000000000E+04  0.10000000000E+01 0.  0.
</event>
<event>
 4    1  0.2191064E-006  0.1300000E+05  0.7957747E-01  0.1322471E+00
    9000001   -1    0    0    0    0  0.00000000000E+00  0.00000000000E+00  0.64999999231E+04  0.65000000000E+04  0.10000000000E+01 0.  0.
    9000001   -1    0    0    0    0 -0.00000000000E+00 -0.00000000000E+00 -0.64999999231E+04  0.65000000000E+04  0.10000000000E+01 0.  0.
    9000001    1    1    2    0    0  0.44403156730E+04 -0.43601572354E+04  0.18768656337E+04  0.65000000000E+04  0.10000000000E+01 0.  0.
    9000001    1    1    2    0    0 -0.44403156730E+04  0.43601572354E+04 -0.18768656337E+04  0.65000000000E+04  0.10000000000E+01 0.  0.
</event>
<event>
 4    1  0.2191064E-006  0.1300000E+05  0.7957747E-01  0.1322471E+00
    9000001   -1    0    0    0    0  0.00000000000E+00  0.00000000000E+00  0.64999999231E+04  0.65000000000E+04  0.10000000000E+01 0.  0.
    9000001   -1    0    0    0    0 -0.00000000000E+00 -0.00000000000E+00 -0.64999999231E+04  0.65000000000E+04  0.10000000000E+01 0.  0.
    9000001    1    1    2    0    0 -0.35790419784E+04 -0.27057968500E+04 -0.47030969503E+04  0.65000000000E+04  0.10000000000E+01 0.  0.
    9000001    1    1    2    0    0  0.35790419784E+04  0.27057968500E+04  0.47030969503E+04  0.65000000000E+04  0.10000000000E+01 0.  0.
</event>
<event>
 4    1  0.2191064E-006  0.1300000E+05  0.7957747E-01  0.1322471E+00
    9000001   -1    0    0    0    0  0.00000000000E+00  0.00000000000E+00  0.64999999231E+04  0.65000000000E+04  0.10000000000E+01 0.  0.
    9000001   -1    0    0    0    0 -0.00000000000E+00 -0.00000000000E+00 -0.64999999231E+04  0.65000000000E+04  0.10000000000E+01 0.  0.
    9000001    1    1    2    0    0  0.43358071795E+04 -0.23506811714E+04 -0.42338012628E+04  0.65000000000E+04  0.10000000000E+01 0.  0.
    9000001    1    1    2    0    0 -0.43358071795E+04  0.23506811714E+04  0.42338012628E+04  0.65000000000E+04  0.10000000000E+01 0.  0.
</event>
<event>
 4    1  0.2191064E-006  0.1300000E+05  0.7957747E-01  0.1322471E+00
    9000001   -1    0    0    0    0  0.00000000000E+00  0.00000000000E+00  0.64999999231E+04  0.65000000000E+04  0.10000000000E+01 0.  0.
    9000001   -1    0    0    0    0 -0.00000000000E+00 -0.00000000000E+00 -0.64999999231E+04  0.65000000000E+04  0.10000000000E+01 0.  0.
    9000001    1    1    2    0    0 -0.54331980068E+04  0.17521671659E+04 -0.31080972702E+04  0.65000000000E+04  0.10000000000E+01 0.  0.
    9000001    1    1    2    0    0  0.54331980068E+04 -0.17521671659E+04  0.31080972702E+04  0.65000000000E+04  0.10000000000E+01 0.  0.
</event>
<event>
 4    1  0.2191064E-006  0.1300000E+05  0.7957747E-01  0.1322471E+00
    9000001   -1    0    0    0    0  0.00000000000E+00  0.00000000000E+00  0.64999999231E+04  0.65000000000E+04  0.10000000000E+01 0.  0.
    9000001   -1    0    0    0    0 -0.00000000000E+00 -0.00000000000E+00 -0.64999999231E+04  0.65000000000E+04  0.10000000000E+01 0.  0.
    9000001    1    1    2    0    0  0.58630840523E+04  0.19224312351E+04  0.20441385820E+04  0.65000000000E+04  0.10000000000E+01 0.  0.
    9000001    1    1    2    0    0 -0.58630840523E+04 -0.19224312351E+04 -0.20441385820E+04  0.65000000000E+04  0.10000000000E+01 0.  0.
</event>
<event>
 4    1  0.2191064E-006  0.1300000E+05  0.7957747E-01  0.1322471E+00
    9000001   -1    0    0    0    0  0.00000000000E+00  0.00000000000E+00  0.64999999231E+04  0.65000000000E+04  0.10000000000E+01 0.  0.
    9000001   -1    0    0    0    0 -0.00000000000E+00 -0.00000000000E+00 -0.64999999231E+04  0.65000000000E+04  0.10000000000E+01 0.  0.
    9000001    1    1    2    0    0 -0.56749737567E+04  0.26504060712E+04 -0.17378203354E+04  0.65000000000E+04  0.10000000000E+01 0.  0.
    9000001    1    1    2    0    0  0.56749737567E+04 -0.26504060712E+04  0.17378203354E+04  0.65000000000E+04  0.10000000000E+01 0.  0.
</event>
<event>
 4    1  0.2191064E-006  0.1300000E+05  0.7957747E-01  0.1322471E+00
    9000001   -1    0    0    0    0  0.00000000000E+00  0.00000000000E+00  0.64999999231E+04  0.65000000000E+04  0.10000000000E+01 0.  0.
    9000001   -1    0    0    0    0 -0.00000000000E+00 -0.00000000000E+00 -0.64999999231E+04  0.65000000000E+04  0.10000000000E+01 0.  0.
    9000001    1    1    2    0    0  0.18121619341E+04 -0.37204384092E+04  0.50124251783E+04  0.65000000000E+04  0.10000000000E+01 0.  0.
    9000001    1    1    2    0    0 -0.18121619341E+04  0.37204384092E+04 -0.50124251783E+04  0.65000000000E+04  0.10000000000E+01 0.  0.
</event>
<event>
 4    1  0.2191064E-006  0.1300000E+05  0.7957747E-01  0.1322471E+00
    9000001   -1    0    0    0    0  0.00000000000E+00  0.00000000000E+00  0.64999999231E+04  0.65000000000E+04  0.10000000000E+01 0.  0.
    9000001   -1    0    0    0    0 -0.00000000000E+00 -0.00000000000E+00 -0.64999999231E+04  0.65000000000E+04  0.10000000000E+01 0.  0.
    9000001    1    1    2    0    0  0.50549932490E+04 -0.40799595674E+04 -0.22577019436E+03  0.65000000000E+04  0.10000000000E+01 0.  0.
    9000001    1    1    2    0    0 -0.50549932490E+04  0.40799595674E+04  0.22577019436E+03  0.65000000000E+04  0.10000000000E+01 0.  0.
</event>
<event>
 4    1  0.2191064E-006  0.1300000E+05  0.7957747E-01  0.1322471E+00
    9000001   -1    0    0    0    0  0.00000000000E+00  0.00000000000E+00  0.64999999231E+04  0.65000000000E+04  0.10000000000E+01 0.  0.
    9000001   -1    0    0    0    0 -0.00000000000E+00 -0.00000000000E+00 -0.64999999231E+04  0.65000000000E+04  0.10000000000E+01 0.  0.
    9000001    1    1    2    0    0  0.36451709219E+04  0.22031623187E+03 -0.53771915261E+04  0.65000000000E+04  0.10000000000E+01 0.  0.
    9000001    1    1    2    0    0 -0.36451709219E+04 -0.22031623187E+03  0.53771915261E+04  0.65000000000E+04  0.10000000000E+01 0.  0.
</event>
<event>
 4    1  0.2191064E-006  0.1300000E+05  0.7957747E-01  0.1322471E+00
    9000001   -1    0    0    0    0  0.00000000000E+00  0.00000000000E+00  0.64999999231E+04  0.65000000000E+04  0.10000000000E+01 0.  0.
    9000001   -1    0    0    0    0 -0.00000000000E+00 -0.00000000000E+00 -0.64999999231E+04  0.65000000000E+04  0.10000000000E+01 0.  0.
    9000001    1    1    2    0    0 -0.47776844209E+04 -0.39378603858E+04 -0.19791377306E+04  0.65000000000E+04  0.10000000000E+01 0.  0.
    9000001    1    1    2    0    0  0.47776844209E+04  0.39378603858E+04  0.19791377306E+04  0.65000000000E+04  0.10000000000E+01 0.  0.
</event>
<event>
 4    1  0.2191064E-006  0.1300000E+05  0.7957747E-01  0.1322471E+00
    9000001   -1    0    0    0    0  0.00000000000E+00  0.00000000000E+00  0.64999999231E+04  0.65000000000E+04  0.10000000000E+01 0.  0.
    9000001   -1    0    0    0    0 -0.00000000000E+00 -0.00000000000E+00 -0.64999999231E+04  0.65000000000E+04  0.10000000000E+01 0.  0.
    9000001    1    1    2    0    0  0.41941291145E+04  0.49196692815E+04 -0.67537702882E+03  0.65000000000E+04  0.10000000000E+01 0.  0.
    9000001    1    1    2    0    0 -0.41941291145E+04 -0.49196692815E+04  0.67537702882E+03  0.65000000000E+04  0.10000000000E+01 0.  0.
</event>
<event>
 4    1  0.2191064E-006  0.1300000E+05  0.7957747E-01  0.1322471E+00
    9000001   -1    0    0    0    0  0.00000000000E+00  0.00000000000E+00  0.64999999231E+04  0.65000000000E+04  0.10000000000E+01 0.  0.
    9000001   -1    0    0    0    0 -0.00000000000E+00 -0.00000000000E+00 -0.64999999231E+04  0.65000000000E+04  0.10000000000E+01 0.  0.
    9000001    1    1    2    0    0  0.53868997243E+04 -0.33047294763E+04 -0.15198925779E+04  0.65000000000E+04  0.10000000000E+01 0.  0.
    9000001    1    1    2    0    0 -0.53868997243E+04  0.33047294763E+04  0.15198925779E+04  0.65000000000E+04  0.10000000000E+01 0.  0.
</event>
<event>
 4    1  0.2191064E-006  0.1300000E+05  0.7957747E-01  0.1322471E+00
    9000001   -1    0    0    0    0  0.00000000000E+00  0.00000000000E+00  0.64999999231E+04  0.65000000000E+04  0.10000000000E+01 0.  0.
    9000001   -1    0    0    0    0 -0.00000000000E+00 -0.00000000000E+00 -0.64999999231E+04  0.65000000000E+04  0.10000000000E+01 0.  0.
    9000001    1    1    2    0    0 -0.22683955568E+04 -0.32418791517E+04  0.51569952650E+04  0.65000000000E+04  0.10000000000E+01 0.  0.
    9000001    1    1    2    0    0  0.22683955568E+04  0.32418791517E+04 -0.51569952650E+04  0.65000000000E+04  0.10000000000E+01 0.  0.
</event>
<event>
 4    1  0.2191064E-006  0.1300000E+05  0.7957747E-01  0.1322471E+00
    9000001   -1    0    0    0    0  0.00000000000E+00  0.00000000000E+00  0.64999999231E+04  0.65000000000E+04  0.10000000000E+01 0.  0.
    9000001   -1    0    0    0    0 -0.00000000000E+00 -0.00000000000E+00 -0.64999999231E+04  0.65000000000E+04  0.10000000000E+01 0.  0.
    9000001    1    1    2    0    0  0.15865848906E+04  0.36570172388E+04 -0.51340989764E+04  0.65000000000E+04  0.10000000000E+01 0.  0.
    9000001    1    1    2    0    0 -0.15865848906E+04 -0.36570172388E+04  0.51340989764E+04  0.65000000000E+04  0.10000000000E+01 0.  0.
</event>
<event>
 4    1  0.2191064E-006  0.1300000E+05  0.7957747E-01  0.1322471E+00
    9000001   -1    0    0    0    0  0.00000000000E+00  0.00000000000E+00  0.64999999231E+04  0.65000000000E+04  0.10000000000E+01 0.  0.
    9000001   -1    0    0    0    0 -0.00000000000E+00 -0.00000000000E+00 -0.64999999231E+04  0.65000000000E+04  0.10000000000E+01 0.  0.
    9000001    1    1    2    0    0 -0.54434811617E+04  0.19348881230E+03 -0.35469809588E+04  0.65000000000E+04  0.10000000000E+01 0.  0.
    9000001    1    1    2    0    0  0.54434811617E+04 -0.19348881230E+03  0.35469809588E+04  0.65000000000E+04  0.10000000000E+01 0.  0.
</event>
<event>
 4    1  0.2191064E-006  0.1300000E+05  0.7957747E-01  0.1322471E+00
    9000001   -1    0    0    0    0  0.00000000000E+00  0.00000000000E+00  0.64999999231E+04  0.65000000000E+04  0.10000000000E+01 0.  0.
    9000001   -1    0    0    0    0 -0.00000000000E+00 -0.00000000000E+00 -0.64999999231E+04  0.65000000000E+04  0.10000000000E+01 0.  0.
    9000001    1    1    2    0    0 -0.10957968363E+02  0.34013204347E+04  0.55390340515E+04  0.65000000000E+04  0.10000000000E+01 0.  0.
    9000001    1    1    2    0    0  0.10957968363E+02 -0.34013204347E+04 -0.55390340515E+04  0.65000000000E+04  0.10000000000E+01 0.  0.
</event>
<event>
 4    1  0.2191064E-006  0.1300000E+05  0.7957747E-01  0.1322471E+00
    9000001   -1    0    0    0    0  0.00000000000E+00  0.00000000000E+00  0.64999999231E+04  0.65000000000E+04  0.10000000000E+01 0.  0.
    9000001   -1    0    0    0    0 -0.00000000000E+00 -0.00000000000E+00 -0.64999999231E+04  0.65000000000E+04  0.10000000000E+01 0.  0.
    9000001    1    1    2    0    0 -0.30555350135E+04  0.38741298172E+04  0.42314090964E+04  0.65000000000E+04  0.10000000000E+01 0.  0.
    9000001    1    1    2    0    0  0.30555350135E+04 -0.38741298172E+04 -0.42314090964E+04  0.65000000000E+04  0.10000000000E+01 0.  0.
</event>
<event>
 4    1  0.2191064E-006  0.1300000E+05  0.7957747E-01  0.1322471E+00
    9000001   -1    0    0    0    0  0.00000000000E+00  0.00000000000E+00  0.64999999231E+04  0.65000000000E+04  0.10000000000E+01 0.  0.
    9000001   -1    0    0    0    0 -0.00000000000E+00 -0.00000000000E+00 -0.64999999231E+04  0.65000000000E+04  0.10000000000E+01 0.  0.
    9000001    1    1    2    0    0 -0.37478631670E+04 -0.39167089437E+04 -0.35864901689E+04  0.65000000000E+04  0.10000000000E+01 0.  0.
    9000001    1    1    2    0    0  0.37478631670E+04  0.39167089437E+04  0.35864901689E+04  0.65000000000E+04  0.10000000000E+01 0.  0.
</event>
<event>
 4    1  0.2191064E-006  0.1300000E+05  0.7957747E-01  0.1322471E+00
    9000001   -1    0    0    0    0  0.00000000000E+00  0.00000000000E+00  0.64999999231E+04  0.65000000000E+04  0.10000000000E+01 0.  0.
    9000001   -1    0    0    0    0 -0.00000000000E+00 -0.00000000000E+00 -0.64999999231E+04  0.65000000000E+04  0.10000000000E+01 0.  0.
    9000001    1    1    2    0    0 -0.18935394618E+04 -0.48519124416E+04 -0.38888883972E+04  0.65000000000E+04  0.10000000000E+01 0.  0.
    9000001    1    1    2    0    0  0.18935394618E+04  0.48519124416E+04  0.38888883972E+04  0.65000000000E+04  0.10000000000E+01 0.  0.
</event>
<event>
 4    1  0.2191064E-006  0.1300000E+05  0.7957747E-01  0.1322471E+00
    9000001   -1    0    0    0    0  0.00000000000E+00  0.00000000000E+00  0.64999999231E+04  0.65000000000E+04  0.10000000000E+01 0.  0.
    9000001   -1    0    0    0    0 -0.00000000000E+00 -0.00000000000E+00 -0.64999999231E+04  0.65000000000E+04  0.10000000000E+01 0.  0.
    9000001    1    1    2    0    0 -0.17861055641E+03 -0.62513726909E+04 -0.17715633629E+04  0.65000000000E+04  0.10000000000E+01 0.  0.
    9000001    1    1    2    0    0  0.17861055641E+03  0.62513726909E+04  0.17715633629E+04  0.65000000000E+04  0.10000000000E+01 0.  0.
</event>
<event>
 4    1  0.2191064E-006  0.1300000E+05  0.7957747E-01  0.1322471E+00
    9000001   -1    0    0    0    0  0.00000000000E+00  0.00000000000E+00  0.64999999231E+04  0.65000000000E+04  0.10000000000E+01 0.  0.
    9000001   -1    0    0    0    0 -0.00000000000E+00 -0.00000000000E+00 -0.64999999231E+04  0.65000000000E+04  0.10000000000E+01 0.  0.
    9000001    1    1    2    0    0  0.47786251092E+04  0.43911900918E+04 -0.36358031197E+03  0.65000000000E+04  0.10000000000E+01 0.  0.
    9000001    1    1    2    0    0 -0.47786251092E+04 -0.43911900918E+04  0.36358031197E+03  0.65000000000E+04  0.10000000000E+01 0.  0.
</event>
<event>
 4    1  0.2191064E-006  0.1300000E+05  0.7957747E-01  0.1322471E+00
    9000001   -1    0    0    0    0  0.00000000000E+00  0.00000000000E+00  0.64999999231E+04  0.65000000000E+04  0.10000000000E+01 0.  0.
    9000001   -1    0    0    0    0 -0.00000000000E+00 -0.00000000000E+00 -0.64999999231E+04  0.65000000000E+04  0.10000000000E+01 0.  0.
    9000001    1    1    2    0    0  0.26787950808E+04  0.17240985949E+04 -0.56658220895E+04  0.65000000000E+04  0.10000000000E+01 0.  0.
    9000001    1    1    2    0    0 -0.26787950808E+04 -0.17240985949E+04  0.56658220895E+04  0.65000000000E+04  0.10000000000E+01 0.  0.
</event>
<event>
 4    1  0.2191064E-006  0.1300000E+05  0.7957747E-01  0.1322471E+00
    9000001   -1    0    0    0    0  0.00000000000E+00  0.00000000000E+00  0.64999999231E+04  0.65000000000E+04  0.10000000000E+01 0.  0.
    9000001   -1    0    0    0    0 -0.00000000000E+00 -0.00000000000E+00 -0.64999999231E+04  0.65000000000E+04  0.10000000000E+01 0.  0.
    9000001    1    1    2    0    0  0.87274053793E+02 -0.27355859688E+04  0.58956722812E+04  0.65000000000E+04  0.10000000000E+01 0.  0.
    9000001    1    1    2    0    0 -0.87274053793E+02  0.27355859688E+04 -0.58956722812E+04  0.65000000000E+04  0.10000000000E+01 0.  0.
</event>
<event>
 4    1  0.2191064E-006  0.1300000E+05  0.7957747E-01  0.1322471E+00
    9000001   -1    0    0    0    0  0.00000000000E+00  0.00000000000E+00  0.64999999231E+04  0.65000000000E+04  0.10000000000E+01 0.  0.
    9000001   -1    0    0    0    0 -0.00000000000E+00 -0.00000000000E+00 -0.64999999231E+04  0.65000000000E+04  0.10000000000E+01 0.  0.
    9000001    1    1    2    0    0  0.29043270354E+04 -0.92608642930E+03 -0.57408403041E+04  0.65000000000E+04  0.10000000000E+01 0.  0.
    9000001    1    1    2    0    0 -0.29043270354E+04  0.92608642930E+03  0.57408403041E+04  0.65000000000E+04  0.10000000000E+01 0.  0.
</event>
<event>
 4    1  0.2191064E-006  0.1300000E+05  0.7957747E-01  0.1322471E+00
    9000001   -1    0    0    0    0  0.00000000000E+00  0.00000000000E+00  0.64999999231E+04  0.65000000000E+04  0.10000000000E+01 0.  0.
    9000001   -1    0    0    0    0 -0.00000000000E+00 -0.00000000000E+00 -0.64999999231E+04  0.65000000000E+04  0.10000000000E+01 0.  0.
    9000001    1    1    2    0    0 -0.52512276881E+04  0.38124141498E+04 -0.37430618155E+03  0.65000000000E+04  0.10000000000E+01 0.  0.
    9000001    1    1    2    0    0  0.52512276881E+04 -0.38124141498E+04  0.37430618155E+03  0.65000000000E+04  0.10000000000E+01 0.  0.
</event>
<event>
 4    1  0.2191064E-006  0.1300000E+05  0.7957747E-01  0.1322471E+00
    9000001   -1    0    0    0    0  0.00000000000E+00  0.00000000000E+00  0.64999999231E+04  0.65000000000E+04  0.10000000000E+01 0.  0.
    9000001   -1    0    0    0    0 -0.00000000000E+00 -0.00000000000E+00 -0.64999999231E+04  0.65000000000E+04  0.10000000000E+01 0.  0.
    9000001    1    1    2    0    0 -0.81070685528E+03 -0.32026320391E+04 -0.55978479273E+04  0.65000000000E+04  0.10000000000E+01 0.  0.
    9000001    1    1    2    0    0  0.81070685528E+03  0.32026320391E+04  0.55978479273E+04  0.65000000000E+04  0.10000000000E+01 0.  0.
</event>
<event>
 4    1  0.2191064E-006  0.1300000E+05  0.7957747E-01  0.1322471E+00
    9000001   -1    0    0    0    0  0.00000000000E+00  0.00000000000E+00  0.64999999231E+04  0.65000000000E+04  0.10000000000E+01 0.  0.
    9000001   -1    0    0    0    0 -0.00000000000E+00 -0.00000000000E+00 -0.64999999231E+04  0.65000000000E+04  0.10000000000E+01 0.  0.
    9000001    1    1    2    0    0  0.25595413971E+04 -0.59727106711E+04  0.15960600162E+03  0.65000000000E+04  0.10000000000E+01 0.  0.
    9000001    1    1    2    0    0 -0.25595413971E+04  0.59727106711E+04 -0.15960600162E+03  0.65000000000E+04  0.10000000000E+01 0.  0.
</event>
<event>
 4    1  0.2191064E-006  0.1300000E+05  0.7957747E-01  0.1322471E+00
    9000001   -1    0    0    0    0  0.00000000000E+00  0.00000000000E+00  0.64999999231E+04  0.65000000000E+04  0.10000000000E+01 0.  0.
    9000001   -1    0    0    0    0 -0.00000000000E+00 -0.00000000000E+00 -0.64999999231E+04  0.65000000000E+04  0.10000000000E+01 0.  0.
    9000001    1    1    2    0    0 -0.44073311322E+04 -0.27158618176E+04  0.39305884901E+04  0.65000000000E+04  0.10000000000E+01 0.  0.
    9000001    1    1    2    0    0  0.44073311322E+04  0.27158618176E+04 -0.39305884901E+04  0.65000000000E+04  0.10000000000E+01 0.  0.
</event>
<event>
 4    1  0.2191064E-006  0.1300000E+05  0.7957747E-01  0.1322471E+00
    9000001   -1    0    0    0    0  0.00000000000E+00  0.00000000000E+00  0.64999999231E+04  0.65000000000E+04  0.10000000000E+01 0.  0.
    9000001   -1    0    0    0    0 -0.00000000000E+00 -0.00000000000E+00 -0.64999999231E+04  0.65000000000E+04  0.10000000000E+01 0.  0.
    9000001    1    1    2    0    0 -0.20097198743E+04 -0.30219417066E+04 -0.53924848955E+04  0.65000000000E+04  0.10000000000E+01 0.  0.
    9000001    1    1    2    0    0  0.20097198743E+04  0.30219417066E+04  0.53924848955E+04  0.65000000000E+04  0.10000000000E+01 0.  0.
</event>
<event>
 4    1  0.2191064E-006  0.1300000E+05  0.7957747E-01  0.1322471E+00
    9000001   -1    0    0    0    0  0.00000000000E+00  0.00000000000E+00  0.64999999231E+04  0.65000000000E+04  0.10000000000E+01 0.  0.
    9000001   -1    0    0    0    0 -0.00000000000E+00 -0.00000000000E+00 -0.64999999231E+04  0.65000000000E+04  0.10000000000E+01 0.  0.
    9000001    1    1    2    0    0 -0.56235523689E+04 -0.24967119170E+04  0.20957307455E+04  0.65000000000E+04  0.10000000000E+01 0.  0.
    9000001    1    1    2    0    0  0.56235523689E+04  0.24967119170E+04 -0.20957307455E+04  0.65000000000E+04  0.10000000000E+01 0.  0.
</event>
<event>
 4    1  0.2191064E-006  0.1300000E+05  0.7957747E-01  0.1322471E+00
    9000001   -1    0    0    0    0  0.00000000000E+00  0.00000000000E+00  0.64999999231E+04  0.65000000000E+04  0.10000000000E+01 0.  0.
    9000001   -1    0    0    0    0 -0.00000000000E+00 -0.00000000000E+00 -0.64999999231E+04  0.65000000000E+04  0.10000000000E+01 0.  0.
    9000001    1    1    2    0    0 -0.64018362544E+04  0.31305731225E+03 -0.10809656293E+04  0.65000000000E+04  0.10000000000E+01 0.  0.
    9000001    1    1    2    0    0  0.64018362544E+04 -0.31305731225E+03  0.10809656293E+04  0.65000000000E+04  0.10000000000E+01 0.  0.
</event>
<event>
 4    1  0.2191064E-006  0.1300000E+05  0.7957747E-01  0.1322471E+00
    9000001   -1    0    0    0    0  0.00000000000E+00  0.00000000000E+00  0.64999999231E+04  0.65000000000E+04  0.10000000000E+01 0.  0.
    9000001   -1    0    0    0    0 -0.00000000000E+00 -0.00000000000E+00 -0.64999999231E+04  0.65000000000E+04  0.10000000000E+01 0.  0.
    9000001    1    1    2    0    0 -0.41848773981E+04  0.27201275384E+04  0.41638571467E+04  0.65000000000E+04  0.10000000000E+01 0.  0.
    9000001    1    1    2    0    0  0.41848773981E+04 -0.27201275384E+04 -0.41638571467E+04  0.65000000000E+04  0.10000000000E+01 0.  0.
</event>
<event>
 4    1  0.2191064E-006  0.1300000E+05  0.7957747E-01  0.1322471E+00
    9000001   -1    0    0    0    0  0.00000000000E+00  0.00000000000E+00  0.64999999231E+04  0.65000000000E+04  0.10000000000E+01 0.  0.
    9000001   -1    0    0    0    0 -0.00000000000E+00 -0.00000000000E+00 -0.64999999231E+04  0.65000000000E+04  0.10000000000E+01 0.  0.
    9000001    1    1    2    0    0  0.37816824557E+04  0.72248489478E+03 -0.52370690640E+04  0.65000000000E+04  0.10000000000E+01 0.  0.
    9000001    1    1    2    0    0 -0.37816824557E+04 -0.72248489478E+03  0.52370690640E+04  0.65000000000E+04  0.10000000000E+01 0.  0.
</event>
<event>
 4    1  0.2191064E-006  0.1300000E+05  0.7957747E-01  0.1322471E+00
    9000001   -1    0    0    0    0  0.00000000000E+00  0.00000000000E+00  0.64999999231E+04  0.65000000000E+04  0.10000000000E+01 0.  0.
    9000001   -1    0    0    0    0 -0.00000000000E+00 -0.00000000000E+00 -0.64999999231E+04  0.65000000000E+04  0.10000000000E+01 0.  0.
    9000001    1    1    2    0    0 -0.50431404930E+04 -0.18122228723E+04 -0.36786656859E+04  0.65000000000E+04  0.10000000000E+01 0.  0.
    9000001    1    1    2    0    0  0.50431404930E+04  0.18122228723E+04  0.36786656859E+04  0.65000000000E+04  0.10000000000E+01 0.  0.
</event>
<event>
 4    1  0.2191064E-006  0.1300000E+05  0.7957747E-01  0.1322471E+00
    9000001   -1    0    0    0    0  0.00000000000E+00  0.00000000000E+00  0.64999999231E+04  0.65000000000E+04  0.10000000000E+01 0.  0.
    9000001   -1    0    0    0    0 -0.00000000000E+00 -0.00000000000E+00 -0.64999999231E+04  0.65000000000E+04  0.10000000000E+01 0.  0.
    9000001    1    1    2    0    0  0.26562355539E+04  0.59301440545E+04 -0.16674284061E+03  0.65000000000E+04  0.10000000000E+01 0.  0.
    9000001    1    1    2    0    0 -0.26562355539E+04 -0.59301440545E+04  0.16674284061E+03  0.65000000000E+04  0.10000000000E+01 0.  0.
</event>
<event>
 4    1  0.2191064E-006  0.1300000E+05  0.7957747E-01  0.1322471E+00
    9000001   -1    0    0    0    0  0.00000000000E+00  0.00000000000E+00  0.64999999231E+04  0.65000000000E+04  0.10000000000E+01 0.  0.
    9000001   -1    0    0    0    0 -0.00000000000E+00 -0.00000000000E+00 -0.64999999231E+04  0.65000000000E+04  0.10000000000E+01 0.  0.
    9000001    1    1    2    0    0 -0.64458120063E+04  0.82569029229E+03  0.14050665650E+03  0.65000000000E+04  0.10000000000E+01 0.  0.
    9000001    1    1    2    0    0  0.64458120063E+04 -0.82569029229E+03 -0.14050665650E+03  0.65000000000E+04  0.10000000000E+01 0.  0.
</event>
<event>
 4    1  0.2191064E-006  0.1300000E+05  0.7957747E-01  0.1322471E+00
    9000001   -1    0    0    0    0  0.00000000000E+00  0.00000000000E+00  0.64999999231E+04  0.65000000000E+04  0.10000000000E+01 0.  0.
    9000001   -1    0    0    0    0 -0.00000000000E+00 -0.00000000000E+00 -0.64999999231E+04  0.65000000000E+04  0.10000000000E+01 0.  0.
    9000001    1    1    2    0    0 -0.45589547567E+04  0.10120611687E+04 -0.45212457042E+04  0.65000000000E+04  0.10000000000E+01 0.  0.
    9000001    1    1    2    0    0  0.45589547567E+04 -0.10120611687E+04  0.45212457042E+04  0.65000000000E+04  0.10000000000E+01 0.  0.
</event>
<event>
 4    1  0.2191064E-006  0.1300000E+05  0.7957747E-01  0.1322471E+00
    9000001   -1    0    0    0    0  0.00000000000E+00  0.00000000000E+00  0.64999999231E+04  0.65000000000E+04  0.10000000000E+01 0.  0.
    9000001   -1    0    0    0    0 -0.00000000000E+00 -0.00000000000E+00 -0.64999999231E+04  0.65000000000E+04  0.10000000000E+01 0.  0.
    9000001    1    1    2    0    0  0.47145646548E+04 -0.27156218891E+04  0.35564416024E+04  0.65000000000E+04  0.10000000000E+01 0.  0.
    9000001    1    1    2    0    0 -0.47145646548E+04  0.27156218891E+04 -0.35564416024E+04  0.65000000000E+04  0.10000000000E+01 0.  0.
</event>
<event>
 4    1  0.2191064E-006  0.1300000E+05  0.7957747E-01  0.1322471E+00
    9000001   -1    0    0    0    0  0.00000000000E+00  0.00000000000E+00  0.64999999231E+04  0.65000000000E+04  0.10000000000E+01 0.  0.
    9000001   -1    0    0    0    0 -0.00000000000E+00 -0.00000000000E+00 -0.64999999231E+04  0.65000000000E+04  0.10000000000E+01 0.  0.
    9000001    1    1    2    0    0 -0.25280777295E+04 -0.39643477387E+04  0.44880696296E+04  0.65000000000E+04  0.10000000000E+01 0.  0.
    9000001    1    1    2    0    0  0.25280777295E+04  0.39643477387E+04 -0.44880696296E+04  0.65000000000E+04  0.10000000000E+01 0.  0.
</event>
<event>
 4    1  0.2191064E-006  0.1300000E+05  0.7957747E-01  0.1322471E+00
    9000001   -1    0    0    0    0  0.00000000000E+00  0.00000000000E+00  0.64999999231E+04  0.65000000000E+04  0.10000000000E+01 0.  0.
    9000001   -1    0    0    0    0 -0.00000000000E+00 -0.00000000000E+00 -0.64999999231E+04  0.65000000000E+04  0.10000000000E+01 0.  0.
    9000001    1    1    2    0    0 -0.16562304438E+04 -0.44293035659E+04 -0.44596154138E+04  0.65000000000E+04  0.10000000000E+01 0.  0.
    9000001    1    1    2    0    0  0.16562304438E+04  0.44293035659E+04  0.44596154138E+04  0.65000000000E+04  0.10000000000E+01 0.  0.
</event>
<event>
 4    1  0.2191064E-006  0.1300000E+05  0.7957747E-01  0.1322471E+00
    9000001   -1    0    0    0    0  0.00000000000E+00  0.00000000000E+00  0.64999999231E+04  0.65000000000E+04  0.10000000000E+01 0.  0.
    9000001   -1    0    0    0    0 -0.00000000000E+00 -0.00000000000E+00 -0.64999999231E+04  0.65000000000E+04  0.10000000000E+01 0.  0.
    9000001    1    1    2    0    0  0.32437230721E+04 -0.56320491053E+04  0.91008280799E+02  0.65000000000E+04  0.10000000000E+01 0.  0.
    9000001    1    1    2    0    0 -0.32437230721E+04  0.56320491053E+04 -0.91008280799E+02  0.65000000000E+04  0.10000000000E+01 0.  0.
</event>
<event>
 4    1  0.2191064E-006  0.1300000E+05  0.7957747E-01  0.1322471E+00
    9000001   -1    0    0    0    0  0.00000000000E+00  0.00000000000E+00  0.64999999231E+04  0.65000000000E+04  0.10000000000E+01 0.  0.
    9000001   -1    0    0    0    0 -0.00000000000E+00 -0.00000000000E+00 -0.64999999231E+04  0.65000000000E+04  0.10000000000E+01 0.  0.
    9000001    1    1    2    0    0  0.43531650733E+04 -0.48078448764E+04  0.42962831475E+03  0.65000000000E+04  0.10000000000E+01 0.  0.
    9000001    1    1    2    0    0 -0.43531650733E+04  0.48078448764E+04 -0.42962831475E+03  0.65000000000E+04  0.10000000000E+01 0.  0.
</event>
<event>
 4    1  0.2191064E-006  0.1300000E+05  0.7957747E-01  0.1322471E+00
    9000001   -1    0    0    0    0  0.00000000000E+00  0.00000000000E+00  0.64999999231E+04  0.65000000000E+04  0.10000000000E+01 0.  0.
    9000001   -1    0    0    0    0 -0.00000000000E+00 -0.00000000000E+00 -0.64999999231E+04  0.65000000000E+04  0.10000000000E+01 0.  0.
    9000001    1    1    2    0    0 -0.60595840564E+04  0.70950861405E+03  0.22423286089E+04  0.65000000000E+04  0.10000000000E+01 0.  0.
    9000001    1    1    2    0    0  0.60595840564E+04 -0.70950861405E+03 -0.22423286089E+04  0.65000000000E+04  0.10000000000E+01 0.  0.
</event>
<event>
 4    1  0.2191064E-006  0.1300000E+05  0.7957747E-01  0.1322471E+00
    9000001   -1    0    0    0    0  0.00000000000E+00  0.00000000000E+00  0.64999999231E+04  0.65000000000E+04  0.10000000000E+01 0.  0.
    9000001   -1    0    0    0    0 -0.00000000000E+00 -0.00000000000E+00 -0.64999999231E+04  0.65000000000E+04  0.10000000000E+01 0.  0.
    9000001    1    1    2    0    0 -0.64409605660E+04 -0.87299481371E+03 -0.43658247214E+02  0.65000000000E+04  0.10000000000E+01 0.  0.
    9000001    1    1    2    0    0  0.64409605660E+04  0.87299481371E+03  0.43658247214E+02  0.65000000000E+04  0.10000000000E+01 0.  0.
</event>
<event>
 4    1  0.2191064E-006  0.1300000E+05  0.7957747E-01  0.1322471E+00
    9000001   -1    0    0    0    0  0.00000000000E+00  0.00000000000E+00  0.64999999231E+04  0.65000000000E+04  0.10000000000E+01 0.  0.
    9000001   -1    0    0    0    0 -0.00000000000E+00 -0.00000000000E+00 -0.64999999231E+04  0.65000000000E+04  0.10000000000E+01 0.  0.
    9000001    1    1    2    0    0  0.62674341517E+04  0.10511750467E+04  0.13653934142E+04  0.65000000000E+04  0.10000000000E+01 0.  0.
    9000001    1    1    2    0    0 -0.62674341517E+04 -0.10511750467E+04 -0.13653934142E+04  0.65000000000E+04  0.10000000000E+01 0.  0.
</event>
<event>
 4    1  0.2191064E-006  0.1300000E+05  0.7957747E-01  0.1322471E+00
    9000001   -1    0    0    0    0  0.00000000000E+00  0.00000000000E+00  0.64999999231E+04  0.65000000000E+04  0.10000000000E+01 0.  0.
    9000001   -1    0    0    0    0 -0.00000000000E+00 -0.00000000000E+00 -0.64999999231E+04  0.65000000000E+04  0.10000000000E+01 0.  0.
    9000001    1    1    2    0    0 -0.51883646862E+04  0.37165410299E+04  0.12321500137E+04  0.65000000000E+04  0.10000000000E+01 0.  0.
    9000001    1    1    2    0    0  0.51883646862E+04 -0.37165410299E+04 -0.12321500137E+04  0.65000000000E+04  0.10000000000E+01 0.  0.
</event>
<event>
 4    1  0.2191064E-006  0.1300000E+05  0.7957747E-01  0.1322471E+00
    9000001   -1    0    0    0    0  0.00000000000E+00  0.00000000000E+00  0.64999999231E+04  0.65000000000E+04  0.10000000000E+01 0.  0.
    9000001   -1    0    0    0    0 -0.00000000000E+00 -0.00000000000E+00 -0.64999999231E+04  0.65000000000E+04  0.10000000000E+01 0.  0.
    9000001    1    1    2    0    0  0.41862825589E+04 -0.33423935225E+04  0.36815000853E+04  0.65000000000E+04  0.10000000000E+01 0.  0.
    9000001    1    1    2    0    0 -0.41862825589E+04  0.33423935225E+04 -0.36815000853E+04  0.65000000000E+04  0.10000000000E+01 0.  0.
</event>
<event>
 4    1  0.2191064E-006  0.1300000E+05  0.7957747E-01  0.1322471E+00
    9000001   -1    0    0    0    0  0.00000000000E+00  0.00000000000E+00  0.64999999231E+04  0.65000000000E+04  0.10000000000E+01 0.  0.
    9000001   -1    0    0    0    0 -0.00000000000E+00 -0.00000000000E+00 -0.64999999231E+04  0.65000000000E+04  0.10000000000E+01 0.  0.
    9000001    1    1    2    0    0 -0.38781577322E+04  0.24430830186E+03  0.52105858652E+04  0.65000000000E+04  0.10000000000E+01 0.  0.
    9000001    1    1    2    0    0  0.38781577322E+04 -0.24430830186E+03 -0.52105858652E+04  0.65000000000E+04  0.10000000000E+01 0.  0.
</event>
<event>
 4    1  0.2191064E-006  0.1300000E+05  0.7957747E-01  0.1322471E+00
    9000001   -1    0    0    0    0  0.00000000000E+00  0.00000000000E+00  0.64999999231E+04  0.65000000000E+04  0.10000000000E+01 0.  0.
    9000001   -1    0    0    0    0 -0.00000000000E+00 -0.00000000000E+00 -0.64999999231E+04  0.65000000000E+04  0.10000000000E+01 0.  0.
    9000001    1    1    2    0    0 -0.47093326133E+03 -0.56489571928E+04  0.31808023354E+04  0.65000000000E+04  0.10000000000E+01 0.  0.
    9000001    1    1    2    0    0  0.47093326133E+03  0.56489571928E+04 -0.31808023354E+04  0.65000000000E+04  0.10000000000E+01 0.  0.
</event>
<event>
 4    1  0.2191064E-006  0.1300000E+05  0.7957747E-01  0.1322471E+00
    9000001   -1    0    0    0    0  0.00000000000E+00  0.00000000000E+00  0.64999999231E+04  0.65000000000E+04  0.10000000000E+01 0.  0.
    9000001   -1    0    0    0    0 -0.00000000000E+00 -0.00000000000E+00 -0.64999999231E+04  0.65000000000E+04  0.10000000000E+01 0.  0.
    9000001    1    1    2    0    0  0.35007519931E+04  0.36782141207E+04  0.40577672882E+04  0.65000000000E+04  0.10000000000E+01 0.  0.
    9000001    1    1    2    0    0 -0.35007519931E+04 -0.36782141207E+04 -0.40577672882E+04  0.65000000000E+04  0.10000000000E+01 0.  0.
</event>
<event>
 4    1  0.2191064E-006  0.1300000E+05  0.7957747E-01  0.1322471E+00
    9000001   -1    0    0    0    0  0.00000000000E+00  0.00000000000E+00  0.64999999231E+04  0.65000000000E+04  0.10000000000E+01 0.  0.
    9000001   -1    0    0    0    0 -0.00000000000E+00 -0.00000000000E+00 -0.64999999231E+04  0.65000000000E+04  0.10000000000E+01 0.  0.
    9000001    1    1    2    0    0  0.14389950882E+04 -0.62996762123E+04 -0.70240426885E+03  0.65000000000E+04  0.10000000000E+01 0.  0.
    9000001    1    1    2    0    0 -0.14389950882E+04  0.62996762123E+04  0.70240426885E+03  0.65000000000E+04  0.10000000000E+01 0.  0.
</event>
<event>
 4    1  0.2191064E-006  0.1300000E+05  0.7957747E-01  0.1322471E+00
    9000001   -1    0    0    0    0  0.00000000000E+00  0.00000000000E+00  0.64999999231E+04  0.65000000000E+04  0.10000000000E+01 0.  0.
    9000001   -1    0    0    0    0 -0.00000000000E+00 -0.00000000000E+00 -0.64999999231E+04  0.65000000000E+04  0.10000000000E+01 0.  0.
    9000001    1    1    2    0    0 -0.48694600640E+04  0.36088421218E+04  0.23483220020E+04  0.65000000000E+04  0.10000000000E+01 0.  0.
    9000001    1    1    2    0    0  0.48694600640E+04 -0.36088421218E+04 -0.23483220020E+04  0.65000000000E+04  0.10000000000E+01 0.  0.
</event>
<event>
 4    1  0.2191064E-006  0.1300000E+05  0.7957747E-01  0.1322471E+00
    9000001   -1    0    0    0    0  0.00000000000E+00  0.00000000000E+00  0.64999999231E+04  0.65000000000E+04  0.10000000000E+01 0.  0.
    9000001   -1    0    0    0    0 -0.00000000000E+00 -0.00000000000E+00 -0.64999999231E+04  0.65000000000E+04  0.10000000000E+01 0.  0.
    9000001    1    1    2    0    0 -0.14755750462E+04 -0.41492078931E+04  0.47808734707E+04  0.65000000000E+04  0.10000000000E+01 0.  0.
    9000001    1    1    2    0    0  0.14755750462E+04  0.41492078931E+04 -0.47808734707E+04  0.65000000000E+04  0.10000000000E+01 0.  0.
</event>
<event>
 4    1  0.2191064E-006  0.1300000E+05  0.7957747E-01  0.1322471E+00
    9000001   -1    0    0    0    0  0.00000000000E+00  0.00000000000E+00  0.64999999231E+04  0.65000000000E+04  0.10000000000E+01 0.  0.
    9000001   -1    0    0    0    0 -0.00000000000E+00 -0.00000000000E+00 -0.64999999231E+04  0.65000000000E+04  0.10000000000E+01 0.  0.
    9000001    1    1    2    0    0  0.14068310485E+04  0.30119611185E+04 -0.55855989492E+04  0.65000000000E+04  0.10000000000E+01 0.  0.
    9000001    1    1    2    0    0 -0.14068310485E+04 -0.30119611185E+04  0.55855989492E+04  0.65000000000E+04  0.10000000000E+01 0.  0.
</event>
<event>
 4    1  0.2191064E-006  0.1300000E+05  0.7957747E-01  0.1322471E+00
    9000001   -1    0    0    0    0  0.00000000000E+00  0.00000000000E+00  0.64999999231E+04  0.65000000000E+04  0.10000000000E+01 0.  0.
    9000001   -1    0    0    0    0 -0.00000000000E+00 -0.00000000000E+00 -0.64999999231E+04  0.65000000000E+04  0.10000000000E+01 0.  0.
    9000001    1    1    2    0    0 -0.59816150923E+04  0.16217328912E+04  0.19596587246E+04  0.65000000000E+04  0.10000000000E+01 0.  0.
    9000001    1    1    2    0    0  0.59816150923E+04 -0.16217328912E+04 -0.19596587246E+04  0.65000000000E+04  0.10000000000E+01 0.  0.
</event>
<event>
 4    1  0.2191064E-006  0.1300000E+05  0.7957747E-01  0.1322471E+00
    9000001   -1    0    0    0    0  0.00000000000E+00  0.00000000000E+00  0.64999999231E+04  0.65000000000E+04  0.10000000000E+01 0.  0.
    9000001   -1    0    0    0    0 -0.00000000000E+00 -0.00000000000E+00 -0.64999999231E+04  0.65000000000E+04  0.10000000000E+01 0.  0.
    9000001    1    1    2    0    0  0.63202164215E+04 -0.15180205411E+04  0.21840830401E+02  0.65000000000E+04  0.10000000000E+01 0.  0.
    9000001    1    1    2    0    0 -0.63202164215E+04  0.15180205411E+04 -0.21840830401E+02  0.65000000000E+04  0.10000000000E+01 0.  0.
</event>
<event>
 4    1  0.2191064E-006  0.1300000E+05  0.7957747E-01  0.1322471E+00
    9000001   -1    0    0    0    0  0.00000000000E+00  0.00000000000E+00  0.64999999231E+04  0.65000000000E+04  0.10000000000E+01 0.  0.
    9000001   -1    0    0    0    0 -0.00000000000E+00 -0.00000000000E+00 -0.64999999231E+04  0.65000000000E+04  0.10000000000E+01 0.  0.
    9000001    1    1    2    0    0  0.50106360739E+03 -0.26372853798E+04 -0.59197685839E+04  0.65000000000E+04  0.10000000000E+01 0.  0.
    9000001    1    1    2    0    0 -0.50106360739E+03  0.26372853798E+04  0.59197685839E+04  0.65000000000E+04  0.10000000000E+01 0.  0.
</event>
<event>
 4    1  0.2191064E-006  0.1300000E+05  0.7957747E-01  0.1322471E+00
    9000001   -1    0    0    0    0  0.00000000000E+00  0.00000000000E+00  0.64999999231E+04  0.65000000000E+04  0.10000000000E+01 0.  0.
    9000001   -1    0    0    0    0 -0.00000000000E+00 -0.00000000000E+00 -0.64999999231E+04  0.65000000000E+04  0.10000000000E+01 0.  0.
    9000001    1    1    2    0    0  0.57999542011E+04 -0.21462311318E+04  0.20010552701E+04  0.65000000000E+04  0.10000000000E+01 0.  0.
    9000001    1    1    2    0    0 -0.57999542011E+04  0.21462311318E+04 -0.20010552701E+04  0.65000000000E+04  0.10000000000E+01 0.  0.
</event>
<event>
 4    1  0.2191064E-006  0.1300000E+05  0.7957747E-01  0.1322471E+00
    9000001   -1    0    0    0    0  0.00000000000E+00  0.00000000000E+00  0.64999999231E+04  0.65000000000E+04  0.10000000000E+01 0.  0.
    9000001   -1    0    0    0    0 -0.00000000000E+00 -0.00000000000E+00 -0.64999999231E+04  0.65000000000E+04  0.10000000000E+01 0.  0.
    9000001    1    1    2    0    0 -0.29698859944E+04  0.49798260828E+04  0.29378748042E+04  0.65000000000E+04  0.10000000000E+01 0.  0.
    9000001    1    1    2    0    0  0.29698859944E+04 -0.49798260828E+04 -0.29378748042E+04  0.65000000000E+04  0.10000000000E+01 0.  0.
</event>
<event>
 4    1  0.2191064E-006  0.1300000E+05  0.7957747E-01  0.1322471E+00
    9000001   -1    0    0    0    0  0.00000000000E+00  0.00000000000E+00  0.64999999231E+04  0.65000000000E+04  0.10000000000E+01 0.  0.
    9000001   -1    0    0    0    0 -0.00000000000E+00 -0.00000000000E+00 -0.64999999231E+04  0.65000000000E+04  0.10000000000E+01 0.  0.
    9000001    1    1    2    0    0 -0.10484749372E+04  0.53012269241E+04 -0.36121589673E+04  0.65000000000E+04  0.10000000000E+01 0.  0.
    9000001    1    1    2    0    0  0.10484749372E+04 -0.53012269241E+04  0.36121589673E+04  0.65000000000E+04  0.10000000000E+01 0.  0.
</event>
<event>
 4    1  0.2191064E-006  0.1300000E+05  0.7957747E-01  0.1322471E+00
    9000001   -1    0    0    0    0  0.00000000000E+00  0.00000000000E+00  0.64999999231E+04  0.65000000000E+04  0.10000000000E+01 0.  0.
    9000001   -1    0    0    0    0 -0.00000000000E+00 -0.00000000000E+00 -0.64999999231E+04  0.65000000000E+04  0.10000000000E+01 0.  0.
    9000001    1    1    2    0    0 -0.43742765721E+03  0.58919745063E+04  0.27098510036E+04  0.65000000000E+04  0.10000000000E+01 0.  0.
    9000001    1    1    2    0    0  0.43742765721E+03 -0.58919745063E+04 -0.27098510036E+04  0.65000000000E+04  0.10000000000E+01 0.  0.
</event>
<event>
 4    1  0.2191064E-006  0.1300000E+05  0.7957747E-01  0.1322471E+00
    9000001   -1    0    0    0    0  0.00000000000E+00  0.00000000000E+00  0.64999999231E+04  0.65000000000E+04  0.10000000000E+01 0.  0.
    9000001   -1    0    0    0    0 -0.00000000000E+00 -0.00000000000E+00 -0.64999999231E+04  0.65000000000E+04  0.10000000000E+01 0.  0.
    9000001    1    1    2    0    0 -0.19705592500E+04  0.36222099435E+04  0.50245885770E+04  0.65000000000E+04  0.10000000000E+01 0.  0.
    9000001    1    1    2    0    0  0.19705592500E+04 -0.36222099435E+04 -0.50245885770E+04  0.65000000000E+04  0.10000000000E+01 0.  0.
</event>
<event>
 4    1  0.2191064E-006  0.1300000E+05  0.7957747E-01  0.1322471E+00
    9000001   -1    0    0    0    0  0.00000000000E+00  0.00000000000E+00  0.64999999231E+04  0.65000000000E+04  0.10000000000E+01 0.  0.
    9000001   -1    0    0    0    0 -0.00000000000E+00 -0.00000000000E+00 -0.64999999231E+04  0.65000000000E+04  0.10000000000E+01 0.  0.
    9000001    1    1    2    0    0  0.16039572788E+04 -0.56929967123E+04 -0.26957574967E+04  0.65000000000E+04  0.10000000000E+01 0.  0.
    9000001    1    1    2    0    0 -0.16039572788E+04  0.56929967123E+04  0.26957574967E+04  0.65000000000E+04  0.10000000000E+01 0.  0.
</event>
<event>
 4    1  0.2191064E-006  0.1300000E+05  0.7957747E-01  0.1322471E+00
    9000001   -1    0    0    0    0  0.00000000000E+00  0.00000000000E+00  0.64999999231E+04  0.65000000000E+04  0.10000000000E+01 0.  0.
    9000001   -1    0    0    0    0 -0.00000000000E+00 -0.00000000000E+00 -0.64999999231E+04  0.65000000000E+04  0.10000000000E+01 0.  0.
    9000001    1    1    2    0    0 -0.20817236896E+04  0.59285138685E+04 -0.16640759572E+04  0.65000000000E+04  0.10000000000E+01 0.  0.
    9000001    1    1    2    0    0  0.20817236896E+04 -0.59285138685E+04  0.16640759572E+04  0.65000000000E+04  0.10000000000E+01 0.  0.
</event>
<event>
 4    1  0.2191064E-006  0.1300000E+05  0.7957747E-01  0.1322471E+00
    9000001   -1    0    0    0    0  0.00000000000E+00  0.00000000000E+00  0.64999999231E+04  0.65000000000E+04  0.10000000000E+01 0.  0.
    9000001   -1    0    0    0    0 -0.00000000000E+00 -0.00000000000E+00 -0.64999999231E+04  0.65000000000E+04  0.10000000000E+01 0.  0.
    9000001    1    1    2    0    0  0.95323164745E+02 -0.22641858319E+04  0.60921568441E+04  0.65000000000E+04  0.10000000000E+01 0.  0.
    9000001    1    1    2    0    0 -0.95323164745E+02  0.22641858319E+04 -0.60921568441E+04  0.65000000000E+04  0.10000000000E+01 0.  0.
</event>
<event>
 4    1  0.2191064E-006  0.1300000E+05  0.7957747E-01  0.1322471E+00
    9000001   -1    0    0    0    0  0.00000000000E+00  0.00000000000E+00  0.64999999231E+04  0.65000000000E+04  0.10000000000E+01 0.  0.
    9000001   -1    0    0    0    0 -0.00000000000E+00 -0.00000000000E+00 -0.64999999231E+04  0.65000000000E+04  0.10000000000E+01 0.  0.
    9000001    1    1    2    0    0  0.33830877165E+04  0.51890901862E+04  0.19692789396E+04  0.65000000000E+04  0.10000000000E+01 0.  0.
    9000001    1    1    2    0    0 -0.33830877165E+04 -0.51890901862E+04 -0.19692789396E+04  0.65000000000E+04  0.10000000000E+01 0.  0.
</event>
<event>
 4    1  0.2191064E-006  0.1300000E+05  0.7957747E-01  0.1322471E+00
    9000001   -1    0    0    0    0  0.00000000000E+00  0.00000000000E+00  0.64999999231E+04  0.65000000000E+04  0.10000000000E+01 0.  0.
    9000001   -1    0    0    0    0 -0.00000000000E+00 -0.00000000000E+00 -0.64999999231E+04  0.65000000000E+04  0.10000000000E+01 0.  0.
    9000001    1    1    2    0    0 -0.11745501615E+04 -0.26160313686E+04 -0.58332504486E+04  0.65000000000E+04  0.10000000000E+01 0.  0.
    9000001    1    1    2    0    0  0.11745501615E+04  0.26160313686E+04  0.58332504486E+04  0.65000000000E+04  0.10000000000E+01 0.  0.
</event>
<event>
 4    1  0.2191064E-006  0.1300000E+05  0.7957747E-01  0.1322471E+00
    9000001   -1    0    0    0    0  0.00000000000E+00  0.00000000000E+00  0.64999999231E+04  0.65000000000E+04  0.10000000000E+01 0.  0.
    9000001   -1    0    0    0    0 -0.00000000000E+00 -0.00000000000E+00 -0.64999999231E+04  0.65000000000E+04  0.10000000000E+01 0.  0.
    9000001    1    1    2    0    0 -0.49485589103E+04 -0.28954518223E+03 -0.42045127303E+04  0.65000000000E+04  0.10000000000E+01 0.  0.
    9000001    1    1    2    0    0  0.49485589103E+04  0.28954518223E+03  0.42045127303E+04  0.65000000000E+04  0.10000000000E+01 0.  0.
</event>
<event>
 4    1  0.2191064E-006  0.1300000E+05  0.7957747E-01  0.1322471E+00
    9000001   -1    0    0    0    0  0.00000000000E+00  0.00000000000E+00  0.64999999231E+04  0.65000000000E+04  0.10000000000E+01 0.  0.
    9000001   -1    0    0    0    0 -0.00000000000E+00 -0.00000000000E+00 -0.64999999231E+04  0.65000000000E+04  0.10000000000E+01 0.  0.
    9000001    1    1    2    0    0 -0.96612900802E+03  0.60189566264E+04 -0.22558268704E+04  0.65000000000E+04  0.10000000000E+01 0.  0.
    9000001    1    1    2    0    0  0.96612900802E+03 -0.60189566264E+04  0.22558268704E+04  0.65000000000E+04  0.10000000000E+01 0.  0.
</event>
<event>
 4    1  0.2191064E-006  0.1300000E+05  0.7957747E-01  0.1322471E+00
    9000001   -1    0    0    0    0  0.00000000000E+00  0.00000000000E+00  0.64999999231E+04  0.65000000000E+04  0.10000000000E+01 0.  0.
    9000001   -1    0    0    0    0 -0.00000000000E+00 -0.00000000000E+00 -0.64999999231E+04  0.65000000000E+04  0.10000000000E+01 0.  0.
    9000001    1    1    2    0    0 -0.55016987615E+04  0.34121735636E+04 -0.58170551810E+03  0.65000000000E+04  0.10000000000E+01 0.  0.
    9000001    1    1    2    0    0  0.55016987615E+04 -0.34121735636E+04  0.58170551810E+03  0.65000000000E+04  0.10000000000E+01 0.  0.
</event>
<event>
 4    1  0.2191064E-006  0.1300000E+05  0.7957747E-01  0.1322471E+00
    9000001   -1    0    0    0    0  0.00000000000E+00  0.00000000000E+00  0.64999999231E+04  0.65000000000E+04  0.10000000000E+01 0.  0.
    9000001   -1    0    0    0    0 -0.00000000000E+00 -0.00000000000E+00 -0.64999999231E+04  0.65000000000E+04  0.10000000000E+01 0.  0.
    9000001    1    1    2    0    0 -0.11687418773E+04  0.36182733048E+04  0.52718250840E+04  0.65000000000E+04  0.10000000000E+01 0.  0.
    9000001    1    1    2    0    0  0.11687418773E+04 -0.36182733048E+04 -0.52718250840E+04  0.65000000000E+04  0.10000000000E+01 0.  0.
</event>
<event>
 4    1  0.2191064E-006  0.1300000E+05  0.7957747E-01  0.1322471E+00
    9000001   -1    0    0    0    0  0.00000000000E+00  0.00000000000E+00  0.64999999231E+04  0.65000000000E+04  0.10000000000E+01 0.  0.
    9000001   -1    0    0    0    0 -0.00000000000E+00 -0.00000000000E+00 -0.64999999231E+04  0.65000000000E+04  0.10000000000E+01 0.  0.
    9000001    1    1    2    0    0 -0.33549422493E+04 -0.19576219340E+04  0.52117250376E+04  0.65000000000E+04  0.10000000000E+01 0.  0.
    9000001    1    1    2    0    0  0.33549422493E+04  0.19576219340E+04 -0.52117250376E+04  0.65000000000E+04  0.10000000000E+01 0.  0.
</event>
<event>
 4    1  0.2191064E-006  0.1300000E+05  0.7957747E-01  0.1322471E+00
    9000001   -1    0    0    0    0  0.00000000000E+00  0.00000000000E+00  0.64999999231E+04  0.65000000000E+04  0.10000000000E+01 0.  0.
    9000001   -1    0    0    0    0 -0.00000000000E+00 -0.00000000000E+00 -0.64999999231E+04  0.65000000000E+04  0.10000000000E+01 0.  0.
    9000001    1    1    2    0    0 -0.28750398992E+04  0.40738350173E+04  0.41698936233E+04  0.65000000000E+04  0.10000000000E+01 0.  0.
    9000001    1    1    2    0    0  0.28750398992E+04 -0.40738350173E+04 -0.41698936233E+04  0.65000000000E+04  0.10000000000E+01 0.  0.
</event>
<event>
 4    1  0.2191064E-006  0.1300000E+05  0.7957747E-01  0.1322471E+00
    9000001   -1    0    0    0    0  0.00000000000E+00  0.00000000000E+00  0.64999999231E+04  0.65000000000E+04  0.10000000000E+01 0.  0.
    9000001   -1    0    0    0    0 -0.00000000000E+00 -0.00000000000E+00 -0.64999999231E+04  0.65000000000E+04  0.10000000000E+01 0.  0.
    9000001    1    1    2    0    0 -0.17198770656E+04 -0.61924260747E+04 -0.97256423338E+03  0.65000000000E+04  0.10000000000E+01 0.  0.
    9000001    1    1    2    0    0  0.17198770656E+04  0.61924260747E+04  0.97256423338E+03  0.65000000000E+04  0.10000000000E+01 0.  0.
</event>
<event>
 4    1  0.2191064E-006  0.1300000E+05  0.7957747E-01  0.1322471E+00
    9000001   -1    0    0    0    0  0.00000000000E+00  0.00000000000E+00  0.64999999231E+04  0.65000000000E+04  0.10000000000E+01 0.  0.
    9000001   -1    0    0    0    0 -0.00000000000E+00 -0.00000000000E+00 -0.64999999231E+04  0.65000000000E+04  0.10000000000E+01 0.  0.
    9000001    1    1    2    0    0 -0.48949450353E+02 -0.52566419806E+04 -0.38229985665E+04  0.65000000000E+04  0.10000000000E+01 0.  0.
    9000001    1    1    2    0    0  0.48949450353E+02  0.52566419806E+04  0.38229985665E+04  0.65000000000E+04  0.10000000000E+01 0.  0.
</event>
<event>
 4    1  0.2191064E-006  0.1300000E+05  0.7957747E-01  0.1322471E+00
    9000001   -1    0    0    0    0  0.00000000000E+00  0.00000000000E+00  0.64999999231E+04  0.65000000000E+04  0.10000000000E+01 0.  0.
    9000001   -1    0    0    0    0 -0.00000000000E+00 -0.00000000000E+00 -0.64999999231E+04  0.65000000000E+04  0.10000000000E+01 0.  0.
    9000001    1    1    2    0    0 -0.48688265034E+04  0.27340913287E+04  0.33270515606E+04  0.65000000000E+04  0.10000000000E+01 0.  0.
    9000001    1    1    2    0    0  0.48688265034E+04 -0.27340913287E+04 -0.33270515606E+04  0.65000000000E+04  0.10000000000E+01 0.  0.
</event>
<event>
 4    1  0.2191064E-006  0.1300000E+05  0.7957747E-01  0.1322471E+00
    9000001   -1    0    0    0    0  0.00000000000E+00  0.00000000000E+00  0.64999999231E+04  0.65000000000E+04  0.10000000000E+01 0.  0.
    9000001   -1    0    0    0    0 -0.00000000000E+00 -0.00000000000E+00 -0.64999999231E+04  0.65000000000E+04  0.10000000000E+01 0.  0.
    9000001    1    1    2    0    0  0.51025346627E+04 -0.92912772404E+01  0.40266676903E+04  0.65000000000E+04  0.10000000000E+01 0.  0.
    9000001    1    1    2    0    0 -0.51025346627E+04  0.92912772404E+01 -0.40266676903E+04  0.65000000000E+04  0.10000000000E+01 0.  0.
</event>
<event>
 4    1  0.2191064E-006  0.1300000E+05  0.7957747E-01  0.1322471E+00
    9000001   -1    0    0    0    0  0.00000000000E+00  0.00000000000E+00  0.64999999231E+04  0.65000000000E+04  0.10000000000E+01 0.  0.
    9000001   -1    0    0    0    0 -0.00000000000E+00 -0.00000000000E+00 -0.64999999231E+04  0.65000000000E+04  0.10000000000E+01 0.  0.
    9000001    1    1    2    0    0 -0.20858125653E+04  0.55819710478E+04 -0.25963405331E+04  0.65000000000E+04  0.10000000000E+01 0.  0.
    9000001    1    1    2    0    0  0.20858125653E+04 -0.55819710478E+04  0.25963405331E+04  0.65000000000E+04  0.10000000000E+01 0.  0.
</event>
<event>
 4    1  0.2191064E-006  0.1300000E+05  0.7957747E-01  0.1322471E+00
    9000001   -1    0    0    0    0  0.00000000000E+00  0.00000000000E+00  0.64999999231E+04  0.65000000000E+04  0.10000000000E+01 0.  0.
    9000001   -1    0    0    0    0 -0.00000000000E+00 -0.00000000000E+00 -0.64999999231E+04  0.65000000000E+04  0.10000000000E+01 0.  0.
    9000001    1    1    2    0    0  0.58098137817E+04 -0.10509399144E+04 -0.27187475275E+04  0.65000000000E+04  0.10000000000E+01 0.  0.
    9000001    1    1    2    0    0 -0.58098137817E+04  0.10509399144E+04  0.27187475275E+04  0.65000000000E+04  0.10000000000E+01 0.  0.
</event>
<event>
 4    1  0.2191064E-006  0.1300000E+05  0.7957747E-01  0.1322471E+00
    9000001   -1    0    0    0    0  0.00000000000E+00  0.00000000000E+00  0.64999999231E+04  0.65000000000E+04  0.10000000000E+01 0.  0.
    9000001   -1    0    0    0    0 -0.00000000000E+00 -0.00000000000E+00 -0.64999999231E+04  0.65000000000E+04  0.10000000000E+01 0.  0.
    9000001    1    1    2    0    0  0.22051459710E+04 -0.17241382885E+03  0.61120866910E+04  0.65000000000E+04  0.10000000000E+01 0.  0.
    9000001    1    1    2    0    0 -0.22051459710E+04  0.17241382885E+03 -0.61120866910E+04  0.65000000000E+04  0.10000000000E+01 0.  0.
</event>
<event>
 4    1  0.2191064E-006  0.1300000E+05  0.7957747E-01  0.1322471E+00
    9000001   -1    0    0    0    0  0.00000000000E+00  0.00000000000E+00  0.64999999231E+04  0.65000000000E+04  0.10000000000E+01 0.  0.
    9000001   -1    0    0    0    0 -0.00000000000E+00 -0.00000000000E+00 -0.64999999231E+04  0.65000000000E+04  0.10000000000E+01 0.  0.
    9000001    1    1    2    0    0  0.53348221988E+04  0.36528466245E+04  0.66811873573E+03  0.65000000000E+04  0.10000000000E+01 0.  0.
    9000001    1    1    2    0    0 -0.53348221988E+04 -0.36528466245E+04 -0.66811873573E+03  0.65000000000E+04  0.10000000000E+01 0.  0.
</event>
<event>
 4    1  0.2191064E-006  0.1300000E+05  0.7957747E-01  0.1322471E+00
    9000001   -1    0    0    0    0  0.00000000000E+00  0.00000000000E+00  0.64999999231E+04  0.65000000000E+04  0.10000000000E+01 0.  0.
    9000001   -1    0    0    0    0 -0.00000000000E+00 -0.00000000000E+00 -0.64999999231E+04  0.65000000000E+04  0.10000000000E+01 0.  0.
    9000001    1    1    2    0    0  0.31898820156E+04 -0.54880838891E+04 -0.13984230234E+04  0.65000000000E+04  0.10000000000E+01 0.  0.
    9000001    1    1    2    0    0 -0.31898820156E+04  0.54880838891E+04  0.13984230234E+04  0.65000000000E+04  0.10000000000E+01 0.  0.
</event>
<event>
 4    1  0.2191064E-006  0.1300000E+05  0.7957747E-01  0.1322471E+00
    9000001   -1    0    0    0    0  0.00000000000E+00  0.00000000000E+00  0.64999999231E+04  0.65000000000E+04  0.10000000000E+01 0.  0.
    9000001   -1    0    0    0    0 -0.00000000000E+00 -0.00000000000E+00 -0.64999999231E+04  0.65000000000E+04  0.10000000000E+01 0.  0.
    9000001    1    1    2    0    0  0.50598831509E+04  0.17918974406E+04 -0.36656084163E+04  0.65000000000E+04  0.10000000000E+01 0.  0.
    9000001    1    1    2    0    0 -0.50598831509E+04 -0.17918974406E+04  0.36656084163E+04  0.65000000000E+04  0.10000000000E+01 0.  0.
</event>
<event>
 4    1  0.2191064E-006  0.1300000E+05  0.7957747E-01  0.1322471E+00
    9000001   -1    0    0    0    0  0.00000000000E+00  0.00000000000E+00  0.64999999231E+04  0.65000000000E+04  0.10000000000E+01 0.  0.
    9000001   -1    0    0    0    0 -0.00000000000E+00 -0.00000000000E+00 -0.64999999231E+04  0.65000000000E+04  0.10000000000E+01 0.  0.
    9000001    1    1    2    0    0 -0.44867223283E+04  0.39332596540E+04 -0.25785248191E+04  0.65000000000E+04  0.10000000000E+01 0.  0.
    9000001    1    1    2    0    0  0.44867223283E+04 -0.39332596540E+04  0.25785248191E+04  0.65000000000E+04  0.10000000000E+01 0.  0.
</event>
<event>
 4    1  0.2191064E-006  0.1300000E+05  0.7957747E-01  0.1322471E+00
    9000001   -1    0    0    0    0  0.00000000000E+00  0.00000000000E+00  0.64999999231E+04  0.65000000000E+04  0.10000000000E+01 0.  0.
    9000001   -1    0    0    0    0 -0.00000000000E+00 -0.00000000000E+00 -0.64999999231E+04  0.65000000000E+04  0.10000000000E+01 0.  0.
    9000001    1    1    2    0    0 -0.62227425120E+04  0.16996394967E+04 -0.79918721864E+03  0.65000000000E+04  0.10000000000E+01 0.  0.
    9000001    1    1    2    0    0  0.62227425120E+04 -0.16996394967E+04  0.79918721864E+03  0.65000000000E+04  0.10000000000E+01 0.  0.
</event>
<event>
 4    1  0.2191064E-006  0.1300000E+05  0.7957747E-01  0.1322471E+00
    9000001   -1    0    0    0    0  0.00000000000E+00  0.00000000000E+00  0.64999999231E+04  0.65000000000E+04  0.10000000000E+01 0.  0.
    9000001   -1    0    0    0    0 -0.00000000000E+00 -0.00000000000E+00 -0.64999999231E+04  0.65000000000E+04  0.10000000000E+01 0.  0.
    9000001    1    1    2    0    0 -0.44726996948E+04  0.17853484242E+04 -0.43654882252E+04  0.65000000000E+04  0.10000000000E+01 0.  0.
    9000001    1    1    2    0    0  0.44726996948E+04 -0.17853484242E+04  0.43654882252E+04  0.65000000000E+04  0.10000000000E+01 0.  0.
</event>
<event>
 4    1  0.2191064E-006  0.1300000E+05  0.7957747E-01  0.1322471E+00
    9000001   -1    0    0    0    0  0.00000000000E+00  0.00000000000E+00  0.64999999231E+04  0.65000000000E+04  0.10000000000E+01 0.  0.
    9000001   -1    0    0    0    0 -0.00000000000E+00 -0.00000000000E+00 -0.64999999231E+04  0.65000000000E+04  0.10000000000E+01 0.  0.
    9000001    1    1    2    0    0  0.58988414686E+04  0.18172320339E+04  0.20374827760E+04  0.65000000000E+04  0.10000000000E+01 0.  0.
    9000001    1    1    2    0    0 -0.58988414686E+04 -0.18172320339E+04 -0.20374827760E+04  0.65000000000E+04  0.10000000000E+01 0.  0.
</event>
<event>
 4    1  0.2191064E-006  0.1300000E+05  0.7957747E-01  0.1322471E+00
    9000001   -1    0    0    0    0  0.00000000000E+00  0.00000000000E+00  0.64999999231E+04  0.65000000000E+04  0.10000000000E+01 0.  0.
    9000001   -1    0    0    0    0 -0.00000000000E+00 -0.00000000000E+00 -0.64999999231E+04  0.65000000000E+04  0.10000000000E+01 0.  0.
    9000001    1    1    2    0    0  0.82716267271E+03 -0.60929563121E+04  0.21075303773E+04  0.65000000000E+04  0.10000000000E+01 0.  0.
    9000001    1    1    2    0    0 -0.82716267271E+03  0.60929563121E+04 -0.21075303773E+04  0.65000000000E+04  0.10000000000E+01 0.  0.
</event>
<event>
 4    1  0.2191064E-006  0.1300000E+05  0.7957747E-01  0.1322471E+00
    9000001   -1    0    0    0    0  0.00000000000E+00  0.00000000000E+00  0.64999999231E+04  0.65000000000E+04  0.10000000000E+01 0.  0.
    9000001   -1    0    0    0    0 -0.00000000000E+00 -0.00000000000E+00 -0.64999999231E+04  0.65000000000E+04  0.10000000000E+01 0.  0.
    9000001    1    1    2    0    0 -0.15143180958E+04  0.44868500714E+04 -0.44525291848E+04  0.65000000000E+04  0.10000000000E+01 0.  0.
    9000001    1    1    2    0    0  0.15143180958E+04 -0.44868500714E+04  0.44525291848E+04  0.65000000000E+04  0.10000000000E+01 0.  0.
</event>
<event>
 4    1  0.2191064E-006  0.1300000E+05  0.7957747E-01  0.1322471E+00
    9000001   -1    0    0    0    0  0.00000000000E+00  0.00000000000E+00  0.64999999231E+04  0.65000000000E+04  0.10000000000E+01 0.  0.
    9000001   -1    0    0    0    0 -0.00000000000E+00 -0.00000000000E+00 -0.64999999231E+04  0.65000000000E+04  0.10000000000E+01 0.  0.
    9000001    1    1    2    0    0 -0.30882109508E+04  0.52784235256E+04 -0.22025433498E+04  0.65000000000E+04  0.10000000000E+01 0.  0.
    9000001    1    1    2    0    0  0.30882109508E+04 -0.52784235256E+04  0.22025433498E+04  0.65000000000E+04  0.10000000000E+01 0.  0.
</event>
<event>
 4    1  0.2191064E-006  0.1300000E+05  0.7957747E-01  0.1322471E+00
    9000001   -1    0    0    0    0  0.00000000000E+00  0.00000000000E+00  0.64999999231E+04  0.65000000000E+04  0.10000000000E+01 0.  0.
    9000001   -1    0    0    0    0 -0.00000000000E+00 -0.00000000000E+00 -0.64999999231E+04  0.65000000000E+04  0.10000000000E+01 0.  0.
    9000001    1    1    2    0    0 -0.87891527036E+03 -0.32537376923E+04  0.55579400840E+04  0.65000000000E+04  0.10000000000E+01 0.  0.
    9000001    1    1    2    0    0  0.87891527036E+03  0.32537376923E+04 -0.55579400840E+04  0.65000000000E+04  0.10000000000E+01 0.  0.
</event>
<event>
 4    1  0.2191064E-006  0.1300000E+05  0.7957747E-01  0.1322471E+00
    9000001   -1    0    0    0    0  0.00000000000E+00  0.00000000000E+00  0.64999999231E+04  0.65000000000E+04  0.10000000000E+01 0.  0.
    9000001   -1    0    0    0    0 -0.00000000000E+00 -0.00000000000E+00 -0.64999999231E+04  0.65000000000E+04  0.10000000000E+01 0.  0.
    9000001    1    1    2    0    0  0.40001879710E+04 -0.36596021061E+04 -0.35854996335E+04  0.65000000000E+04  0.10000000000E+01 0.  0.
    9000001    1    1    2    0    0 -0.40001879710E+04  0.36596021061E+04  0.35854996335E+04  0.65000000000E+04  0.10000000000E+01 0.  0.
</event>
<event>
 4    1  0.2191064E-006  0.1300000E+05  0.7957747E-01  0.1322471E+00
    9000001   -1    0    0    0    0  0.00000000000E+00  0.00000000000E+00  0.64999999231E+04  0.65000000000E+04  0.10000000000E+01 0.  0.
    9000001   -1    0    0    0    0 -0.00000000000E+00 -0.00000000000E+00 -0.64999999231E+04  0.65000000000E+04  0.10000000000E+01 0.  0.
    9000001    1    1    2    0    0  0.18950653033E+04 -0.54951647074E+04  0.29089330234E+04  0.65000000000E+04  0.10000000000E+01 0.  0.
    9000001    1    1    2    0    0 -0.18950653033E+04  0.54951647074E+04 -0.29089330234E+04  0.65000000000E+04  0.10000000000E+01 0.  0.
</event>
<event>
 4    1  0.2191064E-006  0.1300000E+05  0.7957747E-01  0.1322471E+00
    9000001   -1    0    0    0    0  0.00000000000E+00  0.00000000000E+00  0.64999999231E+04  0.65000000000E+04  0.10000000000E+01 0.  0.
    9000001   -1    0    0    0    0 -0.00000000000E+00 -0.00000000000E+00 -0.64999999231E+04  0.65000000000E+04  0.10000000000E+01 0.  0.
    9000001    1    1    2    0    0  0.38292244434E+04 -0.41865379396E+04  0.31717407275E+04  0.65000000000E+04  0.10000000000E+01 0.  0.
    9000001    1    1    2    0    0 -0.38292244434E+04  0.41865379396E+04 -0.31717407275E+04  0.65000000000E+04  0.10000000000E+01 0.  0.
</event>
<event>
 4    1  0.2191064E-006  0.1300000E+05  0.7957747E-01  0.1322471E+00
    9000001   -1    0    0    0    0  0.00000000000E+00  0.00000000000E+00  0.64999999231E+04  0.65000000000E+04  0.10000000000E+01 0.  0.
    9000001   -1    0    0    0    0 -0.00000000000E+00 -0.00000000000E+00 -0.64999999231E+04  0.65000000000E+04  0.10000000000E+01 0.  0.
    9000001    1    1    2    0    0 -0.18145326966E+04 -0.24000052140E+04 -0.57617224044E+04  0.65000000000E+04  0.10000000000E+01 0.  0.
    9000001    1    1    2    0    0  0.18145326966E+04  0.24000052140E+04  0.57617224044E+04  0.65000000000E+04  0.10000000000E+01 0.  0.
</event>
<event>
 4    1  0.2191064E-006  0.1300000E+05  0.7957747E-01  0.1322471E+00
    9000001   -1    0    0    0    0  0.00000000000E+00  0.00000000000E+00  0.64999999231E+04  0.65000000000E+04  0.10000000000E+01 0.  0.
    9000001   -1    0    0    0    0 -0.00000000000E+00 -0.00000000000E+00 -0.64999999231E+04  0.65000000000E+04  0.10000000000E+01 0.  0.
    9000001    1    1    2    0    0 -0.62779123649E+04  0.31721680542E+03 -0.16544451751E+04  0.65000000000E+04  0.10000000000E+01 0.  0.
    9000001    1    1    2    0    0  0.62779123649E+04 -0.31721680542E+03  0.16544451751E+04  0.65000000000E+04  0.10000000000E+01 0.  0.
</event>
<event>
 4    1  0.2191064E-006  0.1300000E+05  0.7957747E-01  0.1322471E+00
    9000001   -1    0    0    0    0  0.00000000000E+00  0.00000000000E+00  0.64999999231E+04  0.65000000000E+04  0.10000000000E+01 0.  0.
    9000001   -1    0    0    0    0 -0.00000000000E+00 -0.00000000000E+00 -0.64999999231E+04  0.65000000000E+04  0.10000000000E+01 0.  0.
    9000001    1    1    2    0    0 -0.48879176619E+04  0.41485733610E+04 -0.10712604718E+04  0.65000000000E+04  0.10000000000E+01 0.  0.
    9000001    1    1    2    0    0  0.48879176619E+04 -0.41485733610E+04  0.10712604718E+04  0.65000000000E+04  0.10000000000E+01 0.  0.
</event>
<event>
 4    1  0.2191064E-006  0.1300000E+05  0.7957747E-01  0.1322471E+00
    9000001   -1    0    0    0    0  0.00000000000E+00  0.00000000000E+00  0.64999999231E+04  0.65000000000E+04  0.10000000000E+01 0.  0.
    9000001   -1    0    0    0    0 -0.00000000000E+00 -0.00000000000E+00 -0.64999999231E+04  0.65000000000E+04  0.10000000000E+01 0.  0.
    9000001    1    1    2    0    0 -0.24834697898E+04 -0.16543281714E+04  0.57745627631E+04  0.65000000000E+04  0.10000000000E+01 0.  0.
    9000001    1    1    2    0    0  0.24834697898E+04  0.16543281714E+04 -0.57745627631E+04  0.65000000000E+04  0.10000000000E+01 0.  0.
</event>
<event>
 4    1  0.2191064E-006  0.1300000E+05  0.7957747E-01  0.1322471E+00
    9000001   -1    0    0    0    0  0.00000000000E+00  0.00000000000E+00  0.64999999231E+04  0.65000000000E+04  0.10000000000E+01 0.  0.
    9000001   -1    0    0    0    0 -0.00000000000E+00 -0.00000000000E+00 -0.64999999231E+04  0.65000000000E+04  0.10000000000E+01 0.  0.
    9000001    1    1    2    0    0  0.14560418777E+04  0.63259061932E+04 -0.33593434632E+03  0.65000000000E+04  0.10000000000E+01 0.  0.
    9000001    1    1    2    0    0 -0.14560418777E+04 -0.63259061932E+04  0.33593434632E+03  0.65000000000E+04  0.10000000000E+01 0.  0.
</event>
<event>
 4    1  0.2191064E-006  0.1300000E+05  0.7957747E-01  0.1322471E+00
    9000001   -1    0    0    0    0  0.00000000000E+00  0.00000000000E+00  0.64999999231E+04  0.65000000000E+04  0.10000000000E+01 0.  0.
    9000001   -1    0    0    0    0 -0.00000000000E+00 -0.00000000000E+00 -0.64999999231E+04  0.65000000000E+04  0.10000000000E+01 0.  0.
    9000001    1    1    2    0    0 -0.56877145520E+04  0.63955686276E+03 -0.30807254331E+04  0.65000000000E+04  0.10000000000E+01 0.  0.
    9000001    1    1    2    0    0  0.56877145520E+04 -0.63955686276E+03  0.30807254331E+04  0.65000000000E+04  0.10000000000E+01 0.  0.
</event>
<event>
 4    1  0.2191064E-006  0.1300000E+05  0.7957747E-01  0.1322471E+00
    9000001   -1    0    0    0    0  0.00000000000E+00  0.00000000000E+00  0.64999999231E+04  0.65000000000E+04  0.10000000000E+01 0.  0.
    9000001   -1    0    0    0    0 -0.00000000000E+00 -0.00000000000E+00 -0.64999999231E+04  0.65000000000E+04  0.10000000000E+01 0.  0.
    9000001    1    1    2    0    0 -0.41905217519E+04 -0.48710364529E+04  0.98108629656E+03  0.65000000000E+04  0.10000000000E+01 0.  0.
    9000001    1    1    2    0    0  0.41905217519E+04  0.48710364529E+04 -0.98108629656E+03  0.65000000000E+04  0.10000000000E+01 0.  0.
</event>
<event>
 4    1  0.2191064E-006  0.1300000E+05  0.7957747E-01  0.1322471E+00
    9000001   -1    0    0    0    0  0.00000000000E+00  0.00000000000E+00  0.64999999231E+04  0.65000000000E+04  0.10000000000E+01 0.  0.
    9000001   -1    0    0    0    0 -0.00000000000E+00 -0.00000000000E+00 -0.64999999231E+04  0.65000000000E+04  0.10000000000E+01 0.  0.
    9000001    1    1    2    0    0  0.56892053651E+04  0.24280833414E+04  0.19968356469E+04  0.65000000000E+04  0.10000000000E+01 0.  0.
    9000001    1    1    2    0    0 -0.56892053651E+04 -0.24280833414E+04 -0.19968356469E+04  0.65000000000E+04  0.10000000000E+01 0.  0.
</event>
<event>
 4    1  0.2191064E-006  0.1300000E+05  0.7957747E-01  0.1322471E+00
    9000001   -1    0    0    0    0  0.00000000000E+00  0.00000000000E+00  0.64999999231E+04  0.65000000000E+04  0.10000000000E+01 0.  0.
    9000001   -1    0    0    0    0 -0.00000000000E+00 -0.00000000000E+00 -0.64999999231E+04  0.65000000000E+04  0.10000000000E+01 0.  0.
    9000001    1    1    2    0    0 -0.61469373918E+04  0.20224932573E+04  0.61211169368E+03  0.65000000000E+04  0.10000000000E+01 0.  0.
    9000001    1    1    2    0    0  0.61469373918E+04 -0.20224932573E+04 -0.61211169368E+03  0.65000000000E+04  0.10000000000E+01 0.  0.
</event>
<event>
 4    1  0.2191064E-006  0.1300000E+05  0.7957747E-01  0.1322471E+00
    9000001   -1    0    0    0    0  0.00000000000E+00  0.00000000000E+00  0.64999999231E+04  0.65000000000E+04  0.10000000000E+01 0.  0.
    9000001   -1    0    0    0    0 -0.00000000000E+00 -0.00000000000E+00 -0.64999999231E+04  0.65000000000E+04  0.10000000000E+01 0.  0.
    9000001    1    1    2    0    0 -0.40665595161E+04  0.49913021142E+04  0.89442490253E+03  0.65000000000E+04  0.10000000000E+01 0.  0.
    9000001    1    1    2    0    0  0.40665595161E+04 -0.49913021142E+04 -0.89442490253E+03  0.65000000000E+04  0.10000000000E+01 0.  0.
</event>
<event>
 4    1  0.2191064E-006  0.1300000E+05  0.7957747E-01  0.1322471E+00
    9000001   -1    0    0    0    0  0.00000000000E+00  0.00000000000E+00  0.64999999231E+04  0.65000000000E+04  0.10000000000E+01 0.  0.
    9000001   -1    0    0    0    0 -0.00000000000E+00 -0.00000000000E+00 -0.64999999231E+04  0.65000000000E+04  0.10000000000E+01 0.  0.
    9000001    1    1    2    0    0 -0.10054511941E+04 -0.36887711201E+04 -0.52566181638E+04  0.65000000000E+04  0.10000000000E+01 0.  0.
    9000001    1    1    2    0    0  0.10054511941E+04  0.36887711201E+04  0.52566181638E+04  0.65000000000E+04  0.10000000000E+01 0.  0.
</event>
<event>
 4    1  0.2191064E-006  0.1300000E+05  0.7957747E-01  0.1322471E+00
    9000001   -1    0    0    0    0  0.00000000000E+00  0.00000000000E+00  0.64999999231E+04  0.65000000000E+04  0.10000000000E+01 0.  0.
    9000001   -1    0    0    0    0 -0.00000000000E+00 -0.00000000000E+00 -0.64999999231E+04  0.65000000000E+04  0.10000000000E+01 0.  0.
    9000001    1    1    2    0    0 -0.25350450568E+04 -0.28533291491E+04 -0.52613741862E+04  0.65000000000E+04  0.10000000000E+01 0.  0.
    9000001    1    1    2    0    0  0.25350450568E+04  0.28533291491E+04  0.52613741862E+04  0.65000000000E+04  0.10000000000E+01 0.  0.
</event>
<event>
 4    1  0.2191064E-006  0.1300000E+05  0.7957747E-01  0.1322471E+00
    9000001   -1    0    0    0    0  0.00000000000E+00  0.00000000000E+00  0.64999999231E+04  0.65000000000E+04  0.10000000000E+01 0.  0.
    9000001   -1    0    0    0    0 -0.00000000000E+00 -0.00000000000E+00 -0.64999999231E+04  0.65000000000E+04  0.10000000000E+01 0.  0.
    9000001    1    1    2    0    0 -0.29759072918E+04  0.66769462910E+03 -0.57400486647E+04  0.65000000000E+04  0.10000000000E+01 0.  0.
    9000001    1    1    2    0    0  0.29759072918E+04 -0.66769462910E+03  0.57400486647E+04  0.65000000000E+04  0.10000000000E+01 0.  0.
</event>
<event>
 4    1  0.2191064E-006  0.1300000E+05  0.7957747E-01  0.1322471E+00
    9000001   -1    0    0    0    0  0.00000000000E+00  0.00000000000E+00  0.64999999231E+04  0.65000000000E+04  0.10000000000E+01 0.  0.
    9000001   -1    0    0    0    0 -0.00000000000E+00 -0.00000000000E+00 -0.64999999231E+04  0.65000000000E+04  0.10000000000E+01 0.  0.
    9000001    1    1    2    0    0 -0.18567042433E+03 -0.18964289889E+04  0.62144253623E+04  0.65000000000E+04  0.10000000000E+01 0.  0.
    9000001    1    1    2    0    0  0.18567042433E+03  0.18964289889E+04 -0.62144253623E+04  0.65000000000E+04  0.10000000000E+01 0.  0.
</event>
<event>
 4    1  0.2191064E-006  0.1300000E+05  0.7957747E-01  0.1322471E+00
    9000001   -1    0    0    0    0  0.00000000000E+00  0.00000000000E+00  0.64999999231E+04  0.65000000000E+04  0.10000000000E+01 0.  0.
    9000001   -1    0    0    0    0 -0.00000000000E+00 -0.00000000000E+00 -0.64999999231E+04  0.65000000000E+04  0.10000000000E+01 0.  0.
    9000001    1    1    2    0    0 -0.61284238400E+04 -0.15999528126E+04  0.14603325767E+04  0.65000000000E+04  0.10000000000E+01 0.  0.
    9000001    1    1    2    0    0  0.61284238400E+04  0.15999528126E+04 -0.14603325767E+04  0.65000000000E+04  0.10000000000E+01 0.  0.
</event>
<event>
 4    1  0.2191064E-006  0.1300000E+05  0.7957747E-01  0.1322471E+00
    9000001   -1    0    0    0    0  0.00000000000E+00  0.00000000000E+00  0.64999999231E+04  0.65000000000E+04  0.10000000000E+01 0.  0.
    9000001   -1    0    0    0    0 -0.00000000000E+00 -0.00000000000E+00 -0.64999999231E+04  0.65000000000E+04  0.10000000000E+01 0.  0.
    9000001    1    1    2    0    0  0.36959926784E+04  0.34272514652E+04  0.41040936290E+04  0.65000000000E+04  0.10000000000E+01 0.  0.
    9000001    1    1    2    0    0 -0.36959926784E+04 -0.34272514652E+04 -0.41040936290E+04  0.65000000000E+04  0.10000000000E+01 0.  0.
</event>
<event>
 4    1  0.2191064E-006  0.1300000E+05  0.7957747E-01  0.1322471E+00
    9000001   -1    0    0    0    0  0.00000000000E+00  0.00000000000E+00  0.64999999231E+04  0.65000000000E+04  0.10000000000E+01 0.  0.
    9000001   -1    0    0    0    0 -0.00000000000E+00 -0.00000000000E+00 -0.64999999231E+04  0.65000000000E+04  0.10000000000E+01 0.  0.
    9000001    1    1    2    0    0 -0.51913826942E+04  0.37069415398E+04 -0.12482504328E+04  0.65000000000E+04  0.10000000000E+01 0.  0.
    9000001    1    1    2    0    0  0.51913826942E+04 -0.37069415398E+04  0.12482504328E+04  0.65000000000E+04  0.10000000000E+01 0.  0.
</event>
<event>
 4    1  0.2191064E-006  0.1300000E+05  0.7957747E-01  0.1322471E+00
    9000001   -1    0    0    0    0  0.00000000000E+00  0.00000000000E+00  0.64999999231E+04  0.65000000000E+04  0.10000000000E+01 0.  0.
    9000001   -1    0    0    0    0 -0.00000000000E+00 -0.00000000000E+00 -0.64999999231E+04  0.65000000000E+04  0.10000000000E+01 0.  0.
    9000001    1    1    2    0    0  0.19072026304E+04 -0.59422771648E+04 -0.18171183844E+04  0.65000000000E+04  0.10000000000E+01 0.  0.
    9000001    1    1    2    0    0 -0.19072026304E+04  0.59422771648E+04  0.18171183844E+04  0.65000000000E+04  0.10000000000E+01 0.  0.
</event>
<event>
 4    1  0.2191064E-006  0.1300000E+05  0.7957747E-01  0.1322471E+00
    9000001   -1    0    0    0    0  0.00000000000E+00  0.00000000000E+00  0.64999999231E+04  0.65000000000E+04  0.10000000000E+01 0.  0.
    9000001   -1    0    0    0    0 -0.00000000000E+00 -0.00000000000E+00 -0.64999999231E+04  0.65000000000E+04  0.10000000000E+01 0.  0.
    9000001    1    1    2    0    0 -0.27737863203E+04  0.30055606725E+04  0.50520009395E+04  0.65000000000E+04  0.10000000000E+01 0.  0.
    9000001    1    1    2    0    0  0.27737863203E+04 -0.30055606725E+04 -0.50520009395E+04  0.65000000000E+04  0.10000000000E+01 0.  0.
</event>
<event>
 4    1  0.2191064E-006  0.1300000E+05  0.7957747E-01  0.1322471E+00
    9000001   -1    0    0    0    0  0.00000000000E+00  0.00000000000E+00  0.64999999231E+04  0.65000000000E+04  0.10000000000E+01 0.  0.
    9000001   -1    0    0    0    0 -0.00000000000E+00 -0.00000000000E+00 -0.64999999231E+04  0.65000000000E+04  0.10000000000E+01 0.  0.
    9000001    1    1    2    0    0  0.12533895408E+04 -0.11878820296E+04 -0.62664144407E+04  0.65000000000E+04  0.10000000000E+01 0.  0.
    9000001    1    1    2    0    0 -0.12533895408E+04  0.11878820296E+04  0.62664144407E+04  0.65000000000E+04  0.10000000000E+01 0.  0.
</event>
<event>
 4    1  0.2191064E-006  0.1300000E+05  0.7957747E-01  0.1322471E+00
    9000001   -1    0    0    0    0  0.00000000000E+00  0.00000000000E+00  0.64999999231E+04  0.65000000000E+04  0.10000000000E+01 0.  0.
    9000001   -1    0    0    0    0 -0.00000000000E+00 -0.00000000000E+00 -0.64999999231E+04  0.65000000000E+04  0.10000000000E+01 0.  0.
    9000001    1    1    2    0    0 -0.55734981918E+04 -0.21951008147E+04 -0.25234201630E+04  0.65000000000E+04  0.10000000000E+01 0.  0.
    9000001    1    1    2    0    0  0.55734981918E+04  0.21951008147E+04  0.25234201630E+04  0.65000000000E+04  0.10000000000E+01 0.  0.
</event>
<event>
 4    1  0.2191064E-006  0.1300000E+05  0.7957747E-01  0.1322471E+00
    9000001   -1    0    0    0    0  0.00000000000E+00  0.00000000000E+00  0.64999999231E+04  0.65000000000E+04  0.10000000000E+01 0.  0.
    9000001   -1    0    0    0    0 -0.00000000000E+00 -0.00000000000E+00 -0.64999999231E+04  0.65000000000E+04  0.10000000000E+01 0.  0.
    9000001    1    1    2    0    0 -0.26665059256E+04  0.59005173803E+04 -0.56889348189E+03  0.65000000000E+04  0.10000000000E+01 0.  0.
    9000001    1    1    2    0    0  0.26665059256E+04 -0.59005173803E+04  0.56889348189E+03  0.65000000000E+04  0.10000000000E+01 0.  0.
</event>
<event>
 4    1  0.2191064E-006  0.1300000E+05  0.7957747E-01  0.1322471E+00
    9000001   -1    0    0    0    0  0.00000000000E+00  0.00000000000E+00  0.64999999231E+04  0.65000000000E+04  0.10000000000E+01 0.  0.
    9000001   -1    0    0    0    0 -0.00000000000E+00 -0.00000000000E+00 -0.64999999231E+04  0.65000000000E+04  0.10000000000E+01 0.  0.
    9000001    1    1    2    0    0  0.23922673994E+04 -0.12232209565E+04 -0.59186811184E+04  0.65000000000E+04  0.10000000000E+01 0.  0.
    9000001    1    1    2    0    0 -0.23922673994E+04  0.12232209565E+04  0.59186811184E+04  0.65000000000E+04  0.10000000000E+01 0.  0.
</event>
<event>
 4    1  0.2191064E-006  0.1300000E+05  0.7957747E-01  0.1322471E+00
    9000001   -1    0    0    0    0  0.00000000000E+00  0.00000000000E+00  0.64999999231E+04  0.65000000000E+04  0.10000000000E+01 0.  0.
    9000001   -1    0    0    0    0 -0.00000000000E+00 -0.00000000000E+00 -0.64999999231E+04  0.65000000000E+04  0.10000000000E+01 0.  0.
    9000001    1    1    2    0    0 -0.28004618624E+04  0.44450923579E+04  0.38273445477E+04  0.65000000000E+04  0.10000000000E+01 0.  0.
    9000001    1    1    2    0    0  0.28004618624E+04 -0.44450923579E+04 -0.38273445477E+04  0.65000000000E+04  0.10000000000E+01 0.  0.
</event>
<event>
 4    1  0.2191064E-006  0.1300000E+05  0.7957747E-01  0.1322471E+00
    9000001   -1    0    0    0    0  0.00000000000E+00  0.00000000000E+00  0.64999999231E+04  0.65000000000E+04  0.10000000000E+01 0.  0.
    9000001   -1    0    0    0    0 -0.00000000000E+00 -0.00000000000E+00 -0.64999999231E+04  0.65000000000E+04  0.10000000000E+01 0.  0.
    9000001    1    1    2    0    0 -0.20961864640E+04 -0.86574846577E+03 -0.60915089183E+04  0.65000000000E+04  0.10000000000E+01 0.  0.
    9000001    1    1    2    0    0  0.20961864640E+04  0.86574846577E+03  0.60915089183E+04  0.65000000000E+04  0.10000000000E+01 0.  0.
</event>
<event>
 4    1  0.2191064E-006  0.1300000E+05  0.7957747E-01  0.1322471E+00
    9000001   -1    0    0    0    0  0.00000000000E+00  0.00000000000E+00  0.64999999231E+04  0.65000000000E+04  0.10000000000E+01 0.  0.
    9000001   -1    0    0    0    0 -0.00000000000E+00 -0.00000000000E+00 -0.64999999231E+04  0.65000000000E+04  0.10000000000E+01 0.  0.
    9000001    1    1    2    0    0  0.10885136042E+04  0.54693741241E+04  0.33393238574E+04  0.65000000000E+04  0.10000000000E+01 0.  0.
    9000001    1    1    2    0    0 -0.10885136042E+04 -0.54693741241E+04 -0.33393238574E+04  0.65000000000E+04  0.10000000000E+01 0.  0.
</event>
<event>
 4    1  0.2191064E-006  0.1300000E+05  0.7957747E-01  0.1322471E+00
    9000001   -1    0    0    0    0  0.00000000000E+00  0.00000000000E+00  0.64999999231E+04  0.65000000000E+04  0.10000000000E+01 0.  0.
    9000001   -1    0    0    0    0 -0.00000000000E+00 -0.00000000000E+00 -0.64999999231E+04  0.65000000000E+04  0.10000000000E+01 0.  0.
    9000001    1    1    2    0    0  0.30714122179E+04  0.36668021778E+04 -0.44012484339E+04  0.65000000000E+04  0.10000000000E+01 0.  0.
    9000001    1    1    2    0    0 -0.30714122179E+04 -0.36668021778E+04  0.44012484339E+04  0.65000000000E+04  0.10000000000E+01 0.  0.
</event>
<event>
 4    1  0.2191064E-006  0.1300000E+05  0.7957747E-01  0.1322471E+00
    9000001   -1    0    0    0    0  0.00000000000E+00  0.00000000000E+00  0.64999999231E+04  0.65000000000E+04  0.10000000000E+01 0.  0.
    9000001   -1    0    0    0    0 -0.00000000000E+00 -0.00000000000E+00 -0.64999999231E+04  0.65000000000E+04  0.10000000000E+01 0.  0.
    9000001    1    1    2    0    0  0.38547257189E+04 -0.49760758177E+04 -0.16216528879E+04  0.65000000000E+04  0.10000000000E+01 0.  0.
    9000001    1    1    2    0    0 -0.38547257189E+04  0.49760758177E+04  0.16216528879E+04  0.65000000000E+04  0.10000000000E+01 0.  0.
</event>
<event>
 4    1  0.2191064E-006  0.1300000E+05  0.7957747E-01  0.1322471E+00
    9000001   -1    0    0    0    0  0.00000000000E+00  0.00000000000E+00  0.64999999231E+04  0.65000000000E+04  0.10000000000E+01 0.  0.
    9000001   -1    0    0    0    0 -0.00000000000E+00 -0.00000000000E+00 -0.64999999231E+04  0.65000000000E+04  0.10000000000E+01 0.  0.
    9000001    1    1    2    0    0 -0.47533082662E+04 -0.39398626629E+04 -0.20331113407E+04  0.65000000000E+04  0.10000000000E+01 0.  0.
    9000001    1    1    2    0    0  0.47533082662E+04  0.39398626629E+04  0.20331113407E+04  0.65000000000E+04  0.10000000000E+01 0.  0.
</event>
<event>
 4    1  0.2191064E-006  0.1300000E+05  0.7957747E-01  0.1322471E+00
    9000001   -1    0    0    0    0  0.00000000000E+00  0.00000000000E+00  0.64999999231E+04  0.65000000000E+04  0.10000000000E+01 0.  0.
    9000001   -1    0    0    0    0 -0.00000000000E+00 -0.00000000000E+00 -0.64999999231E+04  0.65000000000E+04  0.10000000000E+01 0.  0.
    9000001    1    1    2    0    0 -0.53518657186E+03 -0.18995951541E+04 -0.61931504571E+04  0.65000000000E+04  0.10000000000E+01 0.  0.
    9000001    1    1    2    0    0  0.53518657186E+03  0.18995951541E+04  0.61931504571E+04  0.65000000000E+04  0.10000000000E+01 0.  0.
</event>
<event>
 4    1  0.2191064E-006  0.1300000E+05  0.7957747E-01  0.1322471E+00
    9000001   -1    0    0    0    0  0.00000000000E+00  0.00000000000E+00  0.64999999231E+04  0.65000000000E+04  0.10000000000E+01 0.  0.
    9000001   -1    0    0    0    0 -0.00000000000E+00 -0.00000000000E+00 -0.64999999231E+04  0.65000000000E+04  0.10000000000E+01 0.  0.
    9000001    1    1    2    0    0  0.32311592320E+04  0.49407267810E+04 -0.27200786556E+04  0.65000000000E+04  0.10000000000E+01 0.  0.
    9000001    1    1    2    0    0 -0.32311592320E+04 -0.49407267810E+04  0.27200786556E+04  0.65000000000E+04  0.10000000000E+01 0.  0.
</event>
<event>
 4    1  0.2191064E-006  0.1300000E+05  0.7957747E-01  0.1322471E+00
    9000001   -1    0    0    0    0  0.00000000000E+00  0.00000000000E+00  0.64999999231E+04  0.65000000000E+04  0.10000000000E+01 0.  0.
    9000001   -1    0    0    0    0 -0.00000000000E+00 -0.00000000000E+00 -0.64999999231E+04  0.65000000000E+04  0.10000000000E+01 0.  0.
    9000001    1    1    2    0    0  0.15916694208E+04 -0.62433021231E+04  0.85893309068E+03  0.65000000000E+04  0.10000000000E+01 0.  0.
    9000001    1    1    2    0    0 -0.15916694208E+04  0.62433021231E+04 -0.85893309068E+03  0.65000000000E+04  0.10000000000E+01 0.  0.
</event>
<event>
 4    1  0.2191064E-006  0.1300000E+05  0.7957747E-01  0.1322471E+00
    9000001   -1    0    0    0    0  0.00000000000E+00  0.00000000000E+00  0.64999999231E+04  0.65000000000E+04  0.10000000000E+01 0.  0.
    9000001   -1    0    0    0    0 -0.00000000000E+00 -0.00000000000E+00 -0.64999999231E+04  0.65000000000E+04  0.10000000000E+01 0.  0.
    9000001    1    1    2    0    0 -0.48457883575E+04 -0.43263134300E+04  0.22659721908E+03  0.65000000000E+04  0.10000000000E+01 0.  0.
    9000001    1    1    2    0    0  0.48457883575E+04  0.43263134300E+04 -0.22659721908E+03  0.65000000000E+04  0.10000000000E+01 0.  0.
</event>
<event>
 4    1  0.2191064E-006  0.1300000E+05  0.7957747E-01  0.1322471E+00
    9000001   -1    0    0    0    0  0.00000000000E+00  0.00000000000E+00  0.64999999231E+04  0.65000000000E+04  0.10000000000E+01 0.  0.
    9000001   -1    0    0    0    0 -0.00000000000E+00 -0.00000000000E+00 -0.64999999231E+04  0.65000000000E+04  0.10000000000E+01 0.  0.
    9000001    1    1    2    0    0  0.61015088725E+04 -0.13670776187E+04  0.17755808241E+04  0.65000000000E+04  0.10000000000E+01 0.  0.
    9000001    1    1    2    0    0 -0.61015088725E+04  0.13670776187E+04 -0.17755808241E+04  0.65000000000E+04  0.10000000000E+01 0.  0.
</event>
<event>
 4    1  0.2191064E-006  0.1300000E+05  0.7957747E-01  0.1322471E+00
    9000001   -1    0    0    0    0  0.00000000000E+00  0.00000000000E+00  0.64999999231E+04  0.65000000000E+04  0.10000000000E+01 0.  0.
    9000001   -1    0    0    0    0 -0.00000000000E+00 -0.00000000000E+00 -0.64999999231E+04  0.65000000000E+04  0.10000000000E+01 0.  0.
    9000001    1    1    2    0    0  0.21353373125E+04 -0.58349186783E+04 -0.19089414813E+04  0.65000000000E+04  0.10000000000E+01 0.  0.
    9000001    1    1    2    0    0 -0.21353373125E+04  0.58349186783E+04  0.19089414813E+04  0.65000000000E+04  0.10000000000E+01 0.  0.
</event>
<event>
 4    1  0.2191064E-006  0.1300000E+05  0.7957747E-01  0.1322471E+00
    9000001   -1    0    0    0    0  0.00000000000E+00  0.00000000000E+00  0.64999999231E+04  0.65000000000E+04  0.10000000000E+01 0.  0.
    9000001   -1    0    0    0    0 -0.00000000000E+00 -0.00000000000E+00 -0.64999999231E+04  0.65000000000E+04  0.10000000000E+01 0.  0.
    9000001    1    1    2    0    0  0.76743946129E+03 -0.47002176890E+03 -0.64373997243E+04  0.65000000000E+04  0.10000000000E+01 0.  0.
    9000001    1    1    2    0    0 -0.76743946129E+03  0.47002176890E+03  0.64373997243E+04  0.65000000000E+04  0.10000000000E+01 0.  0.
</event>
<event>
 4    1  0.2191064E-006  0.1300000E+05  0.7957747E-01  0.1322471E+00
    9000001   -1    0    0    0    0  0.00000000000E+00  0.00000000000E+00  0.64999999231E+04  0.65000000000E+04  0.10000000000E+01 0.  0.
    9000001   -1    0    0    0    0 -0.00000000000E+00 -0.00000000000E+00 -0.64999999231E+04  0.65000000000E+04  0.10000000000E+01 0.  0.
    9000001    1    1    2    0    0  0.60646188806E+04 -0.23280000692E+04 -0.22541630493E+03  0.65000000000E+04  0.10000000000E+01 0.  0.
    9000001    1    1    2    0    0 -0.60646188806E+04  0.23280000692E+04  0.22541630493E+03  0.65000000000E+04  0.10000000000E+01 0.  0.
</event>
<event>
 4    1  0.2191064E-006  0.1300000E+05  0.7957747E-01  0.1322471E+00
    9000001   -1    0    0    0    0  0.00000000000E+00  0.00000000000E+00  0.64999999231E+04  0.65000000000E+04  0.10000000000E+01 0.  0.
    9000001   -1    0    0    0    0 -0.00000000000E+00 -0.00000000000E+00 -0.64999999231E+04  0.65000000000E+04  0.10000000000E+01 0.  0.
    9000001    1    1    2    0    0 -0.19452266382E+04  0.12964544397E+04  0.60650884752E+04  0.65000000000E+04  0.10000000000E+01 0.  0.
    9000001    1    1    2    0    0  0.19452266382E+04 -0.12964544397E+04 -0.60650884752E+04  0.65000000000E+04  0.10000000000E+01 0.  0.
</event>
<event>
 4    1  0.2191064E-006  0.1300000E+05  0.7957747E-01  0.1322471E+00
    9000001   -1    0    0    0    0  0.00000000000E+00  0.00000000000E+00  0.64999999231E+04  0.65000000000E+04  0.10000000000E+01 0.  0.
    9000001   -1    0    0    0    0 -0.00000000000E+00 -0.00000000000E+00 -0.64999999231E+04  0.65000000000E+04  0.10000000000E+01 0.  0.
    9000001    1    1    2    0    0  0.64543575984E+04 -0.76222932386E+03 -0.10135802647E+03  0.65000000000E+04  0.10000000000E+01 0.  0.
    9000001    1    1    2    0    0 -0.64543575984E+04  0.76222932386E+03  0.10135802647E+03  0.65000000000E+04  0.10000000000E+01 0.  0.
</event>
<event>
 4    1  0.2191064E-006  0.1300000E+05  0.7957747E-01  0.1322471E+00
    9000001   -1    0    0    0    0  0.00000000000E+00  0.00000000000E+00  0.64999999231E+04  0.65000000000E+04  0.10000000000E+01 0.  0.
    9000001   -1    0    0    0    0 -0.00000000000E+00 -0.00000000000E+00 -0.64999999231E+04  0.65000000000E+04  0.10000000000E+01 0.  0.
    9000001    1    1    2    0    0  0.28727625064E+04 -0.51355563776E+04 -0.27610315597E+04  0.65000000000E+04  0.10000000000E+01 0.  0.
    9000001    1    1    2    0    0 -0.28727625064E+04  0.51355563776E+04  0.27610315597E+04  0.65000000000E+04  0.10000000000E+01 0.  0.
</event>
<event>
 4    1  0.2191064E-006  0.1300000E+05  0.7957747E-01  0.1322471E+00
    9000001   -1    0    0    0    0  0.00000000000E+00  0.00000000000E+00  0.64999999231E+04  0.65000000000E+04  0.10000000000E+01 0.  0.
    9000001   -1    0    0    0    0 -0.00000000000E+00 -0.00000000000E+00 -0.64999999231E+04  0.65000000000E+04  0.10000000000E+01 0.  0.
    9000001    1    1    2    0    0  0.41128489356E+04 -0.18872351352E+04  0.46661350363E+04  0.65000000000E+04  0.10000000000E+01 0.  0.
    9000001    1    1    2    0    0 -0.41128489356E+04  0.18872351352E+04 -0.46661350363E+04  0.65000000000E+04  0.10000000000E+01 0.  0.
</event>
<event>
 4    1  0.2191064E-006  0.1300000E+05  0.7957747E-01  0.1322471E+00
    9000001   -1    0    0    0    0  0.00000000000E+00  0.00000000000E+00  0.64999999231E+04  0.65000000000E+04  0.10000000000E+01 0.  0.
    9000001   -1    0    0    0    0 -0.00000000000E+00 -0.00000000000E+00 -0.64999999231E+04  0.65000000000E+04  0.10000000000E+01 0.  0.
    9000001    1    1    2    0    0 -0.46183803812E+04 -0.36579207368E+04  0.27459383711E+04  0.65000000000E+04  0.10000000000E+01 0.  0.
    9000001    1    1    2    0    0  0.46183803812E+04  0.36579207368E+04 -0.27459383711E+04  0.65000000000E+04  0.10000000000E+01 0.  0.
</event>
<event>
 4    1  0.2191064E-006  0.1300000E+05  0.7957747E-01  0.1322471E+00
    9000001   -1    0    0    0    0  0.00000000000E+00  0.00000000000E+00  0.64999999231E+04  0.65000000000E+04  0.10000000000E+01 0.  0.
    9000001   -1    0    0    0    0 -0.00000000000E+00 -0.00000000000E+00 -0.64999999231E+04  0.65000000000E+04  0.10000000000E+01 0.  0.
    9000001    1    1    2    0    0 -0.24791264956E+04 -0.39884902885E+04  0.44939822026E+04  0.65000000000E+04  0.10000000000E+01 0.  0.
    9000001    1    1    2    0    0  0.24791264956E+04  0.39884902885E+04 -0.44939822026E+04  0.65000000000E+04  0.10000000000E+01 0.  0.
</event>
<event>
 4    1  0.2191064E-006  0.1300000E+05  0.7957747E-01  0.1322471E+00
    9000001   -1    0    0    0    0  0.00000000000E+00  0.00000000000E+00  0.64999999231E+04  0.65000000000E+04  0.10000000000E+01 0.  0.
    9000001   -1    0    0    0    0 -0.00000000000E+00 -0.00000000000E+00 -0.64999999231E+04  0.65000000000E+04  0.10000000000E+01 0.  0.
    9000001    1    1    2    0    0  0.22500892931E+04 -0.64522906677E+03  0.60638912115E+04  0.65000000000E+04  0.10000000000E+01 0.  0.
    9000001    1    1    2    0    0 -0.22500892931E+04  0.64522906677E+03 -0.60638912115E+04  0.65000000000E+04  0.10000000000E+01 0.  0.
</event>
<event>
 4    1  0.2191064E-006  0.1300000E+05  0.7957747E-01  0.1322471E+00
    9000001   -1    0    0    0    0  0.00000000000E+00  0.00000000000E+00  0.64999999231E+04  0.65000000000E+04  0.10000000000E+01 0.  0.
    9000001   -1    0    0    0    0 -0.00000000000E+00 -0.00000000000E+00 -0.64999999231E+04  0.65000000000E+04  0.10000000000E+01 0.  0.
    9000001    1    1    2    0    0  0.61450099039E+04 -0.13734689938E+03 -0.21142346394E+04  0.65000000000E+04  0.10000000000E+01 0.  0.
    9000001    1    1    2    0    0 -0.61450099039E+04  0.13734689938E+03  0.21142346394E+04  0.65000000000E+04  0.10000000000E+01 0.  0.
</event>
<event>
 4    1  0.2191064E-006  0.1300000E+05  0.7957747E-01  0.1322471E+00
    9000001   -1    0    0    0    0  0.00000000000E+00  0.00000000000E+00  0.64999999231E+04  0.65000000000E+04  0.10000000000E+01 0.  0.
    9000001   -1    0    0    0    0 -0.00000000000E+00 -0.00000000000E+00 -0.64999999231E+04  0.65000000000E+04  0.10000000000E+01 0.  0.
    9000001    1    1    2    0    0  0.25338820990E+04  0.23006800322E+04 -0.55259670554E+04  0.65000000000E+04  0.10000000000E+01 0.  0.
    9000001    1    1    2    0    0 -0.25338820990E+04 -0.23006800322E+04  0.55259670554E+04  0.65000000000E+04  0.10000000000E+01 0.  0.
</event>
<event>
 4    1  0.2191064E-006  0.1300000E+05  0.7957747E-01  0.1322471E+00
    9000001   -1    0    0    0    0  0.00000000000E+00  0.00000000000E+00  0.64999999231E+04  0.65000000000E+04  0.10000000000E+01 0.  0.
    9000001   -1    0    0    0    0 -0.00000000000E+00 -0.00000000000E+00 -0.64999999231E+04  0.65000000000E+04  0.10000000000E+01 0.  0.
    9000001    1    1    2    0    0  0.51624592603E+04  0.34634048656E+04  0.18983782875E+04  0.65000000000E+04  0.10000000000E+01 0.  0.
    9000001    1    1    2    0    0 -0.51624592603E+04 -0.34634048656E+04 -0.18983782875E+04  0.65000000000E+04  0.10000000000E+01 0.  0.
</event>
<event>
 4    1  0.2191064E-006  0.1300000E+05  0.7957747E-01  0.1322471E+00
    9000001   -1    0    0    0    0  0.00000000000E+00  0.00000000000E+00  0.64999999231E+04  0.65000000000E+04  0.10000000000E+01 0.  0.
    9000001   -1    0    0    0    0 -0.00000000000E+00 -0.00000000000E+00 -0.64999999231E+04  0.65000000000E+04  0.10000000000E+01 0.  0.
    9000001    1    1    2    0    0 -0.25582056331E+04  0.32347929541E+04  0.50241116113E+04  0.65000000000E+04  0.10000000000E+01 0.  0.
    9000001    1    1    2    0    0  0.25582056331E+04 -0.32347929541E+04 -0.50241116113E+04  0.65000000000E+04  0.10000000000E+01 0.  0.
</event>
<event>
 4    1  0.2191064E-006  0.1300000E+05  0.7957747E-01  0.1322471E+00
    9000001   -1    0    0    0    0  0.00000000000E+00  0.00000000000E+00  0.64999999231E+04  0.65000000000E+04  0.10000000000E+01 0.  0.
    9000001   -1    0    0    0    0 -0.00000000000E+00 -0.00000000000E+00 -0.64999999231E+04  0.65000000000E+04  0.10000000000E+01 0.  0.
    9000001    1    1    2    0    0 -0.40844498586E+04 -0.50559061886E+04  0.71280886327E+02  0.65000000000E+04  0.10000000000E+01 0.  0.
    9000001    1    1    2    0    0  0.40844498586E+04  0.50559061886E+04 -0.71280886327E+02  0.65000000000E+04  0.10000000000E+01 0.  0.
</event>
<event>
 4    1  0.2191064E-006  0.1300000E+05  0.7957747E-01  0.1322471E+00
    9000001   -1    0    0    0    0  0.00000000000E+00  0.00000000000E+00  0.64999999231E+04  0.65000000000E+04  0.10000000000E+01 0.  0.
    9000001   -1    0    0    0    0 -0.00000000000E+00 -0.00000000000E+00 -0.64999999231E+04  0.65000000000E+04  0.10000000000E+01 0.  0.
    9000001    1    1    2    0    0  0.51159918928E+04 -0.11493665365E+04  0.38412995870E+04  0.65000000000E+04  0.10000000000E+01 0.  0.
    9000001    1    1    2    0    0 -0.51159918928E+04  0.11493665365E+04 -0.38412995870E+04  0.65000000000E+04  0.10000000000E+01 0.  0.
</event>
<event>
 4    1  0.2191064E-006  0.1300000E+05  0.7957747E-01  0.1322471E+00
    9000001   -1    0    0    0    0  0.00000000000E+00  0.00000000000E+00  0.64999999231E+04  0.65000000000E+04  0.10000000000E+01 0.  0.
    9000001   -1    0    0    0    0 -0.00000000000E+00 -0.00000000000E+00 -0.64999999231E+04  0.65000000000E+04  0.10000000000E+01 0.  0.
    9000001    1    1    2    0    0 -0.12406638205E+04 -0.48185789039E+04 -0.41823497740E+04  0.65000000000E+04  0.10000000000E+01 0.  0.
    9000001    1    1    2    0    0  0.12406638205E+04  0.48185789039E+04  0.41823497740E+04  0.65000000000E+04  0.10000000000E+01 0.  0.
</event>
<event>
 4    1  0.2191064E-006  0.1300000E+05  0.7957747E-01  0.1322471E+00
    9000001   -1    0    0    0    0  0.00000000000E+00  0.00000000000E+00  0.64999999231E+04  0.65000000000E+04  0.10000000000E+01 0.  0.
    9000001   -1    0    0    0    0 -0.00000000000E+00 -0.00000000000E+00 -0.64999999231E+04  0.65000000000E+04  0.10000000000E+01 0.  0.
    9000001    1    1    2    0    0  0.20414215668E+02 -0.84194709688E+02  0.64994225521E+04  0.65000000000E+04  0.10000000000E+01 0.  0.
    9000001    1    1    2    0    0 -0.20414215668E+02  0.84194709688E+02 -0.64994225521E+04  0.65000000000E+04  0.10000000000E+01 0.  0.
</event>
<event>
 4    1  0.2191064E-006  0.1300000E+05  0.7957747E-01  0.1322471E+00
    9000001   -1    0    0    0    0  0.00000000000E+00  0.00000000000E+00  0.64999999231E+04  0.65000000000E+04  0.10000000000E+01 0.  0.
    9000001   -1    0    0    0    0 -0.00000000000E+00 -0.00000000000E+00 -0.64999999231E+04  0.65000000000E+04  0.10000000000E+01 0.  0.
    9000001    1    1    2    0    0  0.18728546029E+04 -0.49626177405E+04 -0.37569721583E+04  0.65000000000E+04  0.10000000000E+01 0.  0.
    9000001    1    1    2    0    0 -0.18728546029E+04  0.49626177405E+04  0.37569721583E+04  0.65000000000E+04  0.10000000000E+01 0.  0.
</event>
<event>
 4    1  0.2191064E-006  0.1300000E+05  0.7957747E-01  0.1322471E+00
    9000001   -1    0    0    0    0  0.00000000000E+00  0.00000000000E+00  0.64999999231E+04  0.65000000000E+04  0.10000000000E+01 0.  0.
    9000001   -1    0    0    0    0 -0.00000000000E+00 -0.00000000000E+00 -0.64999999231E+04  0.65000000000E+04  0.10000000000E+01 0.  0.
    9000001    1    1    2    0    0  0.31125046771E+04 -0.51722832951E+04  0.24103524950E+04  0.65000000000E+04  0.10000000000E+01 0.  0.
    9000001    1    1    2    0    0 -0.31125046771E+04  0.51722832951E+04 -0.24103524950E+04  0.65000000000E+04  0.10000000000E+01 0.  0.
</event>
<event>
 4    1  0.2191064E-006  0.1300000E+05  0.7957747E-01  0.1322471E+00
    9000001   -1    0    0    0    0  0.00000000000E+00  0.00000000000E+00  0.64999999231E+04  0.65000000000E+04  0.10000000000E+01 0.  0.
    9000001   -1    0    0    0    0 -0.00000000000E+00 -0.00000000000E+00 -0.64999999231E+04  0.65000000000E+04  0.10000000000E+01 0.  0.
    9000001    1    1    2    0    0  0.46423592109E+04 -0.43335435526E+04  0.13852437457E+04  0.65000000000E+04  0.10000000000E+01 0.  0.
    9000001    1    1    2    0    0 -0.46423592109E+04  0.43335435526E+04 -0.13852437457E+04  0.65000000000E+04  0.10000000000E+01 0.  0.
</event>
<event>
 4    1  0.2191064E-006  0.1300000E+05  0.7957747E-01  0.1322471E+00
    9000001   -1    0    0    0    0  0.00000000000E+00  0.00000000000E+00  0.64999999231E+04  0.65000000000E+04  0.10000000000E+01 0.  0.
    9000001   -1    0    0    0    0 -0.00000000000E+00 -0.00000000000E+00 -0.64999999231E+04  0.65000000000E+04  0.10000000000E+01 0.  0.
    9000001    1    1    2    0    0 -0.11260113812E+04 -0.23919306515E+04  0.59380775616E+04  0.65000000000E+04  0.10000000000E+01 0.  0.
    9000001    1    1    2    0    0  0.11260113812E+04  0.23919306515E+04 -0.59380775616E+04  0.65000000000E+04  0.10000000000E+01 0.  0.
</event>
<event>
 4    1  0.2191064E-006  0.1300000E+05  0.7957747E-01  0.1322471E+00
    9000001   -1    0    0    0    0  0.00000000000E+00  0.00000000000E+00  0.64999999231E+04  0.65000000000E+04  0.10000000000E+01 0.  0.
    9000001   -1    0    0    0    0 -0.00000000000E+00 -0.00000000000E+00 -0.64999999231E+04  0.65000000000E+04  0.10000000000E+01 0.  0.
    9000001    1    1    2    0    0  0.24154880307E+04  0.53713032779E+04  0.27503668248E+04  0.65000000000E+04  0.10000000000E+01 0.  0.
    9000001    1    1    2    0    0 -0.24154880307E+04 -0.53713032779E+04 -0.27503668248E+04  0.65000000000E+04  0.10000000000E+01 0.  0.
</event>
<event>
 4    1  0.2191064E-006  0.1300000E+05  0.7957747E-01  0.1322471E+00
    9000001   -1    0    0    0    0  0.00000000000E+00  0.00000000000E+00  0.64999999231E+04  0.65000000000E+04  0.10000000000E+01 0.  0.
    9000001   -1    0    0    0    0 -0.00000000000E+00 -0.00000000000E+00 -0.64999999231E+04  0.65000000000E+04  0.10000000000E+01 0.  0.
    9000001    1    1    2    0    0  0.26948089755E+04  0.19183441984E+04  0.55953515637E+04  0.65000000000E+04  0.10000000000E+01 0.  0.
    9000001    1    1    2    0    0 -0.26948089755E+04 -0.19183441984E+04 -0.55953515637E+04  0.65000000000E+04  0.10000000000E+01 0.  0.
</event>
<event>
 4    1  0.2191064E-006  0.1300000E+05  0.7957747E-01  0.1322471E+00
    9000001   -1    0    0    0    0  0.00000000000E+00  0.00000000000E+00  0.64999999231E+04  0.65000000000E+04  0.10000000000E+01 0.  0.
    9000001   -1    0    0    0    0 -0.00000000000E+00 -0.00000000000E+00 -0.64999999231E+04  0.65000000000E+04  0.10000000000E+01 0.  0.
    9000001    1    1    2    0    0  0.55147958437E+04 -0.33129332595E+03 -0.34245102619E+04  0.65000000000E+04  0.10000000000E+01 0.  0.
    9000001    1    1    2    0    0 -0.55147958437E+04  0.33129332595E+03  0.34245102619E+04  0.65000000000E+04  0.10000000000E+01 0.  0.
</event>
<event>
 4    1  0.2191064E-006  0.1300000E+05  0.7957747E-01  0.1322471E+00
    9000001   -1    0    0    0    0  0.00000000000E+00  0.00000000000E+00  0.64999999231E+04  0.65000000000E+04  0.10000000000E+01 0.  0.
    9000001   -1    0    0    0    0 -0.00000000000E+00 -0.00000000000E+00 -0.64999999231E+04  0.65000000000E+04  0.10000000000E+01 0.  0.
    9000001    1    1    2    0    0  0.87734287106E+03 -0.23314431441E+04 -0.60037189601E+04  0.65000000000E+04  0.10000000000E+01 0.  0.
    9000001    1    1    2    0    0 -0.87734287106E+03  0.23314431441E+04  0.60037189601E+04  0.65000000000E+04  0.10000000000E+01 0.  0.
</event>
<event>
 4    1  0.2191064E-006  0.1300000E+05  0.7957747E-01  0.1322471E+00
    9000001   -1    0    0    0    0  0.00000000000E+00  0.00000000000E+00  0.64999999231E+04  0.65000000000E+04  0.10000000000E+01 0.  0.
    9000001   -1    0    0    0    0 -0.00000000000E+00 -0.00000000000E+00 -0.64999999231E+04  0.65000000000E+04  0.10000000000E+01 0.  0.
    9000001    1    1    2    0    0  0.60611429364E+04 -0.23443205165E+04 -0.12925409139E+03  0.65000000000E+04  0.10000000000E+01 0.  0.
    9000001    1    1    2    0    0 -0.60611429364E+04  0.23443205165E+04  0.12925409139E+03  0.65000000000E+04  0.10000000000E+01 0.  0.
</event>
<event>
 4    1  0.2191064E-006  0.1300000E+05  0.7957747E-01  0.1322471E+00
    9000001   -1    0    0    0    0  0.00000000000E+00  0.00000000000E+00  0.64999999231E+04  0.65000000000E+04  0.10000000000E+01 0.  0.
    9000001   -1    0    0    0    0 -0.00000000000E+00 -0.00000000000E+00 -0.64999999231E+04  0.65000000000E+04  0.10000000000E+01 0.  0.
    9000001    1    1    2    0    0 -0.13830752301E+04  0.55827901122E+04 -0.30281275520E+04  0.65000000000E+04  0.10000000000E+01 0.  0.
    9000001    1    1    2    0    0  0.13830752301E+04 -0.55827901122E+04  0.30281275520E+04  0.65000000000E+04  0.10000000000E+01 0.  0.
</event>
<event>
 4    1  0.2191064E-006  0.1300000E+05  0.7957747E-01  0.1322471E+00
    9000001   -1    0    0    0    0  0.00000000000E+00  0.00000000000E+00  0.64999999231E+04  0.65000000000E+04  0.10000000000E+01 0.  0.
    9000001   -1    0    0    0    0 -0.00000000000E+00 -0.00000000000E+00 -0.64999999231E+04  0.65000000000E+04  0.10000000000E+01 0.  0.
    9000001    1    1    2    0    0 -0.30716490819E+04 -0.57282846589E+04  0.41542559191E+02  0.65000000000E+04  0.10000000000E+01 0.  0.
    9000001    1    1    2    0    0  0.30716490819E+04  0.57282846589E+04 -0.41542559191E+02  0.65000000000E+04  0.10000000000E+01 0.  0.
</event>
<event>
 4    1  0.2191064E-006  0.1300000E+05  0.7957747E-01  0.1322471E+00
    9000001   -1    0    0    0    0  0.00000000000E+00  0.00000000000E+00  0.64999999231E+04  0.65000000000E+04  0.10000000000E+01 0.  0.
    9000001   -1    0    0    0    0 -0.00000000000E+00 -0.00000000000E+00 -0.64999999231E+04  0.65000000000E+04  0.10000000000E+01 0.  0.
    9000001    1    1    2    0    0  0.34858200469E+04  0.39920821436E+04 -0.37632881579E+04  0.65000000000E+04  0.10000000000E+01 0.  0.
    9000001    1    1    2    0    0 -0.34858200469E+04 -0.39920821436E+04  0.37632881579E+04  0.65000000000E+04  0.10000000000E+01 0.  0.
</event>
<event>
 4    1  0.2191064E-006  0.1300000E+05  0.7957747E-01  0.1322471E+00
    9000001   -1    0    0    0    0  0.00000000000E+00  0.00000000000E+00  0.64999999231E+04  0.65000000000E+04  0.10000000000E+01 0.  0.
    9000001   -1    0    0    0    0 -0.00000000000E+00 -0.00000000000E+00 -0.64999999231E+04  0.65000000000E+04  0.10000000000E+01 0.  0.
    9000001    1    1    2    0    0  0.47572208728E+04  0.68967688860E+03 -0.43752936309E+04  0.65000000000E+04  0.10000000000E+01 0.  0.
    9000001    1    1    2    0    0 -0.47572208728E+04 -0.68967688860E+03  0.43752936309E+04  0.65000000000E+04  0.10000000000E+01 0.  0.
</event>
<event>
 4    1  0.2191064E-006  0.1300000E+05  0.7957747E-01  0.1322471E+00
    9000001   -1    0    0    0    0  0.00000000000E+00  0.00000000000E+00  0.64999999231E+04  0.65000000000E+04  0.10000000000E+01 0.  0.
    9000001   -1    0    0    0    0 -0.00000000000E+00 -0.00000000000E+00 -0.64999999231E+04  0.65000000000E+04  0.10000000000E+01 0.  0.
    9000001    1    1    2    0    0 -0.29726437296E+03  0.51673937660E+04  0.39318792656E+04  0.65000000000E+04  0.10000000000E+01 0.  0.
    9000001    1    1    2    0    0  0.29726437296E+03 -0.51673937660E+04 -0.39318792656E+04  0.65000000000E+04  0.10000000000E+01 0.  0.
</event>
<event>
 4    1  0.2191064E-006  0.1300000E+05  0.7957747E-01  0.1322471E+00
    9000001   -1    0    0    0    0  0.00000000000E+00  0.00000000000E+00  0.64999999231E+04  0.65000000000E+04  0.10000000000E+01 0.  0.
    9000001   -1    0    0    0    0 -0.00000000000E+00 -0.00000000000E+00 -0.64999999231E+04  0.65000000000E+04  0.10000000000E+01 0.  0.
    9000001    1    1    2    0    0 -0.56492344031E+04 -0.14831459486E+04  0.28524424190E+04  0.65000000000E+04  0.10000000000E+01 0.  0.
    9000001    1    1    2    0    0  0.56492344031E+04  0.14831459486E+04 -0.28524424190E+04  0.65000000000E+04  0.10000000000E+01 0.  0.
</event>
<event>
 4    1  0.2191064E-006  0.1300000E+05  0.7957747E-01  0.1322471E+00
    9000001   -1    0    0    0    0  0.00000000000E+00  0.00000000000E+00  0.64999999231E+04  0.65000000000E+04  0.10000000000E+01 0.  0.
    9000001   -1    0    0    0    0 -0.00000000000E+00 -0.00000000000E+00 -0.64999999231E+04  0.65000000000E+04  0.10000000000E+01 0.  0.
    9000001    1    1    2    0    0  0.48675465769E+04 -0.41318157444E+04  0.12186418572E+04  0.65000000000E+04  0.10000000000E+01 0.  0.
    9000001    1    1    2    0    0 -0.48675465769E+04  0.41318157444E+04 -0.12186418572E+04  0.65000000000E+04  0.10000000000E+01 0.  0.
</event>
<event>
 4    1  0.2191064E-006  0.1300000E+05  0.7957747E-01  0.1322471E+00
    9000001   -1    0    0    0    0  0.00000000000E+00  0.00000000000E+00  0.64999999231E+04  0.65000000000E+04  0.10000000000E+01 0.  0.
    9000001   -1    0    0    0    0 -0.00000000000E+00 -0.00000000000E+00 -0.64999999231E+04  0.65000000000E+04  0.10000000000E+01 0.  0.
    9000001    1    1    2    0    0 -0.25828858233E+04  0.28405229302E+04 -0.52450099434E+04  0.65000000000E+04  0.10000000000E+01 0.  0.
    9000001    1    1    2    0    0  0.25828858233E+04 -0.28405229302E+04  0.52450099434E+04  0.65000000000E+04  0.10000000000E+01 0.  0.
</event>
<event>
 4    1  0.2191064E-006  0.1300000E+05  0.7957747E-01  0.1322471E+00
    9000001   -1    0    0    0    0  0.00000000000E+00  0.00000000000E+00  0.64999999231E+04  0.65000000000E+04  0.10000000000E+01 0.  0.
    9000001   -1    0    0    0    0 -0.00000000000E+00 -0.00000000000E+00 -0.64999999231E+04  0.65000000000E+04  0.10000000000E+01 0.  0.
    9000001    1    1    2    0    0 -0.63000543009E+04 -0.42508143419E+03  0.15422777247E+04  0.65000000000E+04  0.10000000000E+01 0.  0.
    9000001    1    1    2    0    0  0.63000543009E+04  0.42508143419E+03 -0.15422777247E+04  0.65000000000E+04  0.10000000000E+01 0.  0.
</event>
<event>
 4    1  0.2191064E-006  0.1300000E+05  0.7957747E-01  0.1322471E+00
    9000001   -1    0    0    0    0  0.00000000000E+00  0.00000000000E+00  0.64999999231E+04  0.65000000000E+04  0.10000000000E+01 0.  0.
    9000001   -1    0    0    0    0 -0.00000000000E+00 -0.00000000000E+00 -0.64999999231E+04  0.65000000000E+04  0.10000000000E+01 0.  0.
    9000001    1    1    2    0    0  0.33961018640E+04 -0.50072594883E+04  0.23756774920E+04  0.65000000000E+04  0.10000000000E+01 0.  0.
    9000001    1    1    2    0    0 -0.33961018640E+04  0.50072594883E+04 -0.23756774920E+04  0.65000000000E+04  0.10000000000E+01 0.  0.
</event>
<event>
 4    1  0.2191064E-006  0.1300000E+05  0.7957747E-01  0.1322471E+00
    9000001   -1    0    0    0    0  0.00000000000E+00  0.00000000000E+00  0.64999999231E+04  0.65000000000E+04  0.10000000000E+01 0.  0.
    9000001   -1    0    0    0    0 -0.00000000000E+00 -0.00000000000E+00 -0.64999999231E+04  0.65000000000E+04  0.10000000000E+01 0.  0.
    9000001    1    1    2    0    0  0.23669928239E+04 -0.60536465508E+04  0.26597167314E+02  0.65000000000E+04  0.10000000000E+01 0.  0.
    9000001    1    1    2    0    0 -0.23669928239E+04  0.60536465508E+04 -0.26597167314E+02  0.65000000000E+04  0.10000000000E+01 0.  0.
</event>
<event>
 4    1  0.2191064E-006  0.1300000E+05  0.7957747E-01  0.1322471E+00
    9000001   -1    0    0    0    0  0.00000000000E+00  0.00000000000E+00  0.64999999231E+04  0.65000000000E+04  0.10000000000E+01 0.  0.
    9000001   -1    0    0    0    0 -0.00000000000E+00 -0.00000000000E+00 -0.64999999231E+04  0.65000000000E+04  0.10000000000E+01 0.  0.
    9000001    1    1    2    0    0 -0.35787809965E+04 -0.13141924790E+04 -0.52645250220E+04  0.65000000000E+04  0.10000000000E+01 0.  0.
    9000001    1    1    2    0    0  0.35787809965E+04  0.13141924790E+04  0.52645250220E+04  0.65000000000E+04  0.10000000000E+01 0.  0.
</event>
<event>
 4    1  0.2191064E-006  0.1300000E+05  0.7957747E-01  0.1322471E+00
    9000001   -1    0    0    0    0  0.00000000000E+00  0.00000000000E+00  0.64999999231E+04  0.65000000000E+04  0.10000000000E+01 0.  0.
    9000001   -1    0    0    0    0 -0.00000000000E+00 -0.00000000000E+00 -0.64999999231E+04  0.65000000000E+04  0.10000000000E+01 0.  0.
    9000001    1    1    2    0    0 -0.26002830453E+03 -0.64327496543E+04 -0.89560938240E+03  0.65000000000E+04  0.10000000000E+01 0.  0.
    9000001    1    1    2    0    0  0.26002830453E+03  0.64327496543E+04  0.89560938240E+03  0.65000000000E+04  0.10000000000E+01 0.  0.
</event>
<event>
 4    1  0.2191064E-006  0.1300000E+05  0.7957747E-01  0.1322471E+00
    9000001   -1    0    0    0    0  0.00000000000E+00  0.00000000000E+00  0.64999999231E+04  0.65000000000E+04  0.10000000000E+01 0.  0.
    9000001   -1    0    0    0    0 -0.00000000000E+00 -0.00000000000E+00 -0.64999999231E+04  0.65000000000E+04  0.10000000000E+01 0.  0.
    9000001    1    1    2    0    0  0.19000259664E+04 -0.40086925948E+04  0.47508192985E+04  0.65000000000E+04  0.10000000000E+01 0.  0.
    9000001    1    1    2    0    0 -0.19000259664E+04  0.40086925948E+04 -0.47508192985E+04  0.65000000000E+04  0.10000000000E+01 0.  0.
</event>
<event>
 4    1  0.2191064E-006  0.1300000E+05  0.7957747E-01  0.1322471E+00
    9000001   -1    0    0    0    0  0.00000000000E+00  0.00000000000E+00  0.64999999231E+04  0.65000000000E+04  0.10000000000E+01 0.  0.
    9000001   -1    0    0    0    0 -0.00000000000E+00 -0.00000000000E+00 -0.64999999231E+04  0.65000000000E+04  0.10000000000E+01 0.  0.
    9000001    1    1    2    0    0 -0.23046993186E+04  0.60680107763E+04 -0.34293624603E+03  0.65000000000E+04  0.10000000000E+01 0.  0.
    9000001    1    1    2    0    0  0.23046993186E+04 -0.60680107763E+04  0.34293624603E+03  0.65000000000E+04  0.10000000000E+01 0.  0.
</event>
<event>
 4    1  0.2191064E-006  0.1300000E+05  0.7957747E-01  0.1322471E+00
    9000001   -1    0    0    0    0  0.00000000000E+00  0.00000000000E+00  0.64999999231E+04  0.65000000000E+04  0.10000000000E+01 0.  0.
    9000001   -1    0    0    0    0 -0.00000000000E+00 -0.00000000000E+00 -0.64999999231E+04  0.65000000000E+04  0.10000000000E+01 0.  0.
    9000001    1    1    2    0    0 -0.52200630203E+04  0.19079397225E+03 -0.38684026062E+04  0.65000000000E+04  0.10000000000E+01 0.  0.
    9000001    1    1    2    0    0  0.52200630203E+04 -0.19079397225E+03  0.38684026062E+04  0.65000000000E+04  0.10000000000E+01 0.  0.
</event>
<event>
 4    1  0.2191064E-006  0.1300000E+05  0.7957747E-01  0.1322471E+00
    9000001   -1    0    0    0    0  0.00000000000E+00  0.00000000000E+00  0.64999999231E+04  0.65000000000E+04  0.10000000000E+01 0.  0.
    9000001   -1    0    0    0    0 -0.00000000000E+00 -0.00000000000E+00 -0.64999999231E+04  0.65000000000E+04  0.10000000000E+01 0.  0.
    9000001    1    1    2    0    0 -0.24020763509E+04  0.43109847991E+04  0.42303000208E+04  0.65000000000E+04  0.10000000000E+01 0.  0.
    9000001    1    1    2    0    0  0.24020763509E+04 -0.43109847991E+04 -0.42303000208E+04  0.65000000000E+04  0.10000000000E+01 0.  0.
</event>
<event>
 4    1  0.2191064E-006  0.1300000E+05  0.7957747E-01  0.1322471E+00
    9000001   -1    0    0    0    0  0.00000000000E+00  0.00000000000E+00  0.64999999231E+04  0.65000000000E+04  0.10000000000E+01 0.  0.
    9000001   -1    0    0    0    0 -0.00000000000E+00 -0.00000000000E+00 -0.64999999231E+04  0.65000000000E+04  0.10000000000E+01 0.  0.
    9000001    1    1    2    0    0 -0.60626077246E+02  0.64629507345E+04  0.69035591009E+03  0.65000000000E+04  0.10000000000E+01 0.  0.
    9000001    1    1    2    0    0  0.60626077246E+02 -0.64629507345E+04 -0.69035591009E+03  0.65000000000E+04  0.10000000000E+01 0.  0.
</event>
<event>
 4    1  0.2191064E-006  0.1300000E+05  0.7957747E-01  0.1322471E+00
    9000001   -1    0    0    0    0  0.00000000000E+00  0.00000000000E+00  0.64999999231E+04  0.65000000000E+04  0.10000000000E+01 0.  0.
    9000001   -1    0    0    0    0 -0.00000000000E+00 -0.00000000000E+00 -0.64999999231E+04  0.65000000000E+04  0.10000000000E+01 0.  0.
    9000001    1    1    2    0    0  0.42529109491E+04  0.34760452863E+04 -0.34756088139E+04  0.65000000000E+04  0.10000000000E+01 0.  0.
    9000001    1    1    2    0    0 -0.42529109491E+04 -0.34760452863E+04  0.34756088139E+04  0.65000000000E+04  0.10000000000E+01 0.  0.
</event>
<event>
 4    1  0.2191064E-006  0.1300000E+05  0.7957747E-01  0.1322471E+00
    9000001   -1    0    0    0    0  0.00000000000E+00  0.00000000000E+00  0.64999999231E+04  0.65000000000E+04  0.10000000000E+01 0.  0.
    9000001   -1    0    0    0    0 -0.00000000000E+00 -0.00000000000E+00 -0.64999999231E+04  0.65000000000E+04  0.10000000000E+01 0.  0.
    9000001    1    1    2    0    0  0.17746733198E+04  0.41884731501E+04 -0.46429760153E+04  0.65000000000E+04  0.10000000000E+01 0.  0.
    9000001    1    1    2    0    0 -0.17746733198E+04 -0.41884731501E+04  0.46429760153E+04  0.65000000000E+04  0.10000000000E+01 0.  0.
</event>
<event>
 4    1  0.2191064E-006  0.1300000E+05  0.7957747E-01  0.1322471E+00
    9000001   -1    0    0    0    0  0.00000000000E+00  0.00000000000E+00  0.64999999231E+04  0.65000000000E+04  0.10000000000E+01 0.  0.
    9000001   -1    0    0    0    0 -0.00000000000E+00 -0.00000000000E+00 -0.64999999231E+04  0.65000000000E+04  0.10000000000E+01 0.  0.
    9000001    1    1    2    0    0 -0.94888150189E+03  0.42644454404E+04  0.48129126297E+04  0.65000000000E+04  0.10000000000E+01 0.  0.
    9000001    1    1    2    0    0  0.94888150189E+03 -0.42644454404E+04 -0.48129126297E+04  0.65000000000E+04  0.10000000000E+01 0.  0.
</event>
<event>
 4    1  0.2191064E-006  0.1300000E+05  0.7957747E-01  0.1322471E+00
    9000001   -1    0    0    0    0  0.00000000000E+00  0.00000000000E+00  0.64999999231E+04  0.65000000000E+04  0.10000000000E+01 0.  0.
    9000001   -1    0    0    0    0 -0.00000000000E+00 -0.00000000000E+00 -0.64999999231E+04  0.65000000000E+04  0.10000000000E+01 0.  0.
    9000001    1    1    2    0    0  0.35187157902E+04  0.54489594354E+04 -0.42128287296E+03  0.65000000000E+04  0.10000000000E+01 0.  0.
    9000001    1    1    2    0    0 -0.35187157902E+04 -0.54489594354E+04  0.42128287296E+03  0.65000000000E+04  0.10000000000E+01 0.  0.
</event>
<event>
 4    1  0.2191064E-006  0.1300000E+05  0.7957747E-01  0.1322471E+00
    9000001   -1    0    0    0    0  0.00000000000E+00  0.00000000000E+00  0.64999999231E+04  0.65000000000E+04  0.10000000000E+01 0.  0.
    9000001   -1    0    0    0    0 -0.00000000000E+00 -0.00000000000E+00 -0.64999999231E+04  0.65000000000E+04  0.10000000000E+01 0.  0.
    9000001    1    1    2    0    0  0.14396903419E+04 -0.63237512549E+04 -0.43296741892E+03  0.65000000000E+04  0.10000000000E+01 0.  0.
    9000001    1    1    2    0    0 -0.14396903419E+04  0.63237512549E+04  0.43296741892E+03  0.65000000000E+04  0.10000000000E+01 0.  0.
</event>
<event>
 4    1  0.2191064E-006  0.1300000E+05  0.7957747E-01  0.1322471E+00
    9000001   -1    0    0    0    0  0.00000000000E+00  0.00000000000E+00  0.64999999231E+04  0.65000000000E+04  0.10000000000E+01 0.  0.
    9000001   -1    0    0    0    0 -0.00000000000E+00 -0.00000000000E+00 -0.64999999231E+04  0.65000000000E+04  0.10000000000E+01 0.  0.
    9000001    1    1    2    0    0 -0.53685857822E+04 -0.22817154177E+03  0.36573519719E+04  0.65000000000E+04  0.10000000000E+01 0.  0.
    9000001    1    1    2    0    0  0.53685857822E+04  0.22817154177E+03 -0.36573519719E+04  0.65000000000E+04  0.10000000000E+01 0.  0.
</event>
<event>
 4    1  0.2191064E-006  0.1300000E+05  0.7957747E-01  0.1322471E+00
    9000001   -1    0    0    0    0  0.00000000000E+00  0.00000000000E+00  0.64999999231E+04  0.65000000000E+04  0.10000000000E+01 0.  0.
    9000001   -1    0    0    0    0 -0.00000000000E+00 -0.00000000000E+00 -0.64999999231E+04  0.65000000000E+04  0.10000000000E+01 0.  0.
    9000001    1    1    2    0    0  0.21114155413E+04 -0.47567794704E+04  0.38942229625E+04  0.65000000000E+04  0.10000000000E+01 0.  0.
    9000001    1    1    2    0    0 -0.21114155413E+04  0.47567794704E+04 -0.38942229625E+04  0.65000000000E+04  0.10000000000E+01 0.  0.
</event>
<event>
 4    1  0.2191064E-006  0.1300000E+05  0.7957747E-01  0.1322471E+00
    9000001   -1    0    0    0    0  0.00000000000E+00  0.00000000000E+00  0.64999999231E+04  0.65000000000E+04  0.10000000000E+01 0.  0.
    9000001   -1    0    0    0    0 -0.00000000000E+00 -0.00000000000E+00 -0.64999999231E+04  0.65000000000E+04  0.10000000000E+01 0.  0.
    9000001    1    1    2    0    0  0.11415644712E+04 -0.14022855808E+03  0.63974342911E+04  0.65000000000E+04  0.10000000000E+01 0.  0.
    9000001    1    1    2    0    0 -0.11415644712E+04  0.14022855808E+03 -0.63974342911E+04  0.65000000000E+04  0.10000000000E+01 0.  0.
</event>
<event>
 4    1  0.2191064E-006  0.1300000E+05  0.7957747E-01  0.1322471E+00
    9000001   -1    0    0    0    0  0.00000000000E+00  0.00000000000E+00  0.64999999231E+04  0.65000000000E+04  0.10000000000E+01 0.  0.
    9000001   -1    0    0    0    0 -0.00000000000E+00 -0.00000000000E+00 -0.64999999231E+04  0.65000000000E+04  0.10000000000E+01 0.  0.
    9000001    1    1    2    0    0 -0.61799145073E+04 -0.17809621118E+04  0.94171632599E+03  0.65000000000E+04  0.10000000000E+01 0.  0.
    9000001    1    1    2    0    0  0.61799145073E+04  0.17809621118E+04 -0.94171632599E+03  0.65000000000E+04  0.10000000000E+01 0.  0.
</event>
<event>
 4    1  0.2191064E-006  0.1300000E+05  0.7957747E-01  0.1322471E+00
    9000001   -1    0    0    0    0  0.00000000000E+00  0.00000000000E+00  0.64999999231E+04  0.65000000000E+04  0.10000000000E+01 0.  0.
    9000001   -1    0    0    0    0 -0.00000000000E+00 -0.00000000000E+00 -0.64999999231E+04  0.65000000000E+04  0.10000000000E+01 0.  0.
    9000001    1    1    2    0    0  0.27005490808E+04 -0.53035651044E+04  0.26132797106E+04  0.65000000000E+04  0.10000000000E+01 0.  0.
    9000001    1    1    2    0    0 -0.27005490808E+04  0.53035651044E+04 -0.26132797106E+04  0.65000000000E+04  0.10000000000E+01 0.  0.
</event>
<event>
 4    1  0.2191064E-006  0.1300000E+05  0.7957747E-01  0.1322471E+00
    9000001   -1    0    0    0    0  0.00000000000E+00  0.00000000000E+00  0.64999999231E+04  0.65000000000E+04  0.10000000000E+01 0.  0.
    9000001   -1    0    0    0    0 -0.00000000000E+00 -0.00000000000E+00 -0.64999999231E+04  0.65000000000E+04  0.10000000000E+01 0.  0.
    9000001    1    1    2    0    0  0.54564899628E+04 -0.31878829836E+04 -0.15212226559E+04  0.65000000000E+04  0.10000000000E+01 0.  0.
    9000001    1    1    2    0    0 -0.54564899628E+04  0.31878829836E+04  0.15212226559E+04  0.65000000000E+04  0.10000000000E+01 0.  0.
</event>
<event>
 4    1  0.2191064E-006  0.1300000E+05  0.7957747E-01  0.1322471E+00
    9000001   -1    0    0    0    0  0.00000000000E+00  0.00000000000E+00  0.64999999231E+04  0.65000000000E+04  0.10000000000E+01 0.  0.
    9000001   -1    0    0    0    0 -0.00000000000E+00 -0.00000000000E+00 -0.64999999231E+04  0.65000000000E+04  0.10000000000E+01 0.  0.
    9000001    1    1    2    0    0  0.25416392737E+04  0.59819102720E+04 -0.82572998328E+02  0.65000000000E+04  0.10000000000E+01 0.  0.
    9000001    1    1    2    0    0 -0.25416392737E+04 -0.59819102720E+04  0.82572998328E+02  0.65000000000E+04  0.10000000000E+01 0.  0.
</event>
<event>
 4    1  0.2191064E-006  0.1300000E+05  0.7957747E-01  0.1322471E+00
    9000001   -1    0    0    0    0  0.00000000000E+00  0.00000000000E+00  0.64999999231E+04  0.65000000000E+04  0.10000000000E+01 0.  0.
    9000001   -1    0    0    0    0 -0.00000000000E+00 -0.00000000000E+00 -0.64999999231E+04  0.65000000000E+04  0.10000000000E+01 0.  0.
    9000001    1    1    2    0    0  0.30168989453E+04 -0.52980817791E+04  0.22535858571E+04  0.65000000000E+04  0.10000000000E+01 0.  0.
    9000001    1    1    2    0    0 -0.30168989453E+04  0.52980817791E+04 -0.22535858571E+04  0.65000000000E+04  0.10000000000E+01 0.  0.
</event>
<event>
 4    1  0.2191064E-006  0.1300000E+05  0.7957747E-01  0.1322471E+00
    9000001   -1    0    0    0    0  0.00000000000E+00  0.00000000000E+00  0.64999999231E+04  0.65000000000E+04  0.10000000000E+01 0.  0.
    9000001   -1    0    0    0    0 -0.00000000000E+00 -0.00000000000E+00 -0.64999999231E+04  0.65000000000E+04  0.10000000000E+01 0.  0.
    9000001    1    1    2    0    0 -0.11149731012E+04 -0.27542700692E+04  0.57810751915E+04  0.65000000000E+04  0.10000000000E+01 0.  0.
    9000001    1    1    2    0    0  0.11149731012E+04  0.27542700692E+04 -0.57810751915E+04  0.65000000000E+04  0.10000000000E+01 0.  0.
</event>
<event>
 4    1  0.2191064E-006  0.1300000E+05  0.7957747E-01  0.1322471E+00
    9000001   -1    0    0    0    0  0.00000000000E+00  0.00000000000E+00  0.64999999231E+04  0.65000000000E+04  0.10000000000E+01 0.  0.
    9000001   -1    0    0    0    0 -0.00000000000E+00 -0.00000000000E+00 -0.64999999231E+04  0.65000000000E+04  0.10000000000E+01 0.  0.
    9000001    1    1    2    0    0  0.54190610489E+04 -0.33442099701E+04  0.13038542955E+04  0.65000000000E+04  0.10000000000E+01 0.  0.
    9000001    1    1    2    0    0 -0.54190610489E+04  0.33442099701E+04 -0.13038542955E+04  0.65000000000E+04  0.10000000000E+01 0.  0.
</event>
<event>
 4    1  0.2191064E-006  0.1300000E+05  0.7957747E-01  0.1322471E+00
    9000001   -1    0    0    0    0  0.00000000000E+00  0.00000000000E+00  0.64999999231E+04  0.65000000000E+04  0.10000000000E+01 0.  0.
    9000001   -1    0    0    0    0 -0.00000000000E+00 -0.00000000000E+00 -0.64999999231E+04  0.65000000000E+04  0.10000000000E+01 0.  0.
    9000001    1    1    2    0    0 -0.14589336102E+04 -0.13813270240E+04 -0.61817026274E+04  0.65000000000E+04  0.10000000000E+01 0.  0.
    9000001    1    1    2    0    0  0.14589336102E+04  0.13813270240E+04  0.61817026274E+04  0.65000000000E+04  0.10000000000E+01 0.  0.
</event>
<event>
 4    1  0.2191064E-006  0.1300000E+05  0.7957747E-01  0.1322471E+00
    9000001   -1    0    0    0    0  0.00000000000E+00  0.00000000000E+00  0.64999999231E+04  0.65000000000E+04  0.10000000000E+01 0.  0.
    9000001   -1    0    0    0    0 -0.00000000000E+00 -0.00000000000E+00 -0.64999999231E+04  0.65000000000E+04  0.10000000000E+01 0.  0.
    9000001    1    1    2    0    0 -0.29017552022E+04 -0.54026582741E+04 -0.21543210809E+04  0.65000000000E+04  0.10000000000E+01 0.  0.
    9000001    1    1    2    0    0  0.29017552022E+04  0.54026582741E+04  0.21543210809E+04  0.65000000000E+04  0.10000000000E+01 0.  0.
</event>
<event>
 4    1  0.2191064E-006  0.1300000E+05  0.7957747E-01  0.1322471E+00
    9000001   -1    0    0    0    0  0.00000000000E+00  0.00000000000E+00  0.64999999231E+04  0.65000000000E+04  0.10000000000E+01 0.  0.
    9000001   -1    0    0    0    0 -0.00000000000E+00 -0.00000000000E+00 -0.64999999231E+04  0.65000000000E+04  0.10000000000E+01 0.  0.
    9000001    1    1    2    0    0  0.23067009571E+04  0.58830904434E+04 -0.15226215977E+04  0.65000000000E+04  0.10000000000E+01 0.  0.
    9000001    1    1    2    0    0 -0.23067009571E+04 -0.58830904434E+04  0.15226215977E+04  0.65000000000E+04  0.10000000000E+01 0.  0.
</event>
<event>
 4    1  0.2191064E-006  0.1300000E+05  0.7957747E-01  0.1322471E+00
    9000001   -1    0    0    0    0  0.00000000000E+00  0.00000000000E+00  0.64999999231E+04  0.65000000000E+04  0.10000000000E+01 0.  0.
    9000001   -1    0    0    0    0 -0.00000000000E+00 -0.00000000000E+00 -0.64999999231E+04  0.65000000000E+04  0.10000000000E+01 0.  0.
    9000001    1    1    2    0    0 -0.48499998567E+04 -0.23570251986E+04  0.36293157211E+04  0.65000000000E+04  0.10000000000E+01 0.  0.
    9000001    1    1    2    0    0  0.48499998567E+04  0.23570251986E+04 -0.36293157211E+04  0.65000000000E+04  0.10000000000E+01 0.  0.
</event>
<event>
 4    1  0.2191064E-006  0.1300000E+05  0.7957747E-01  0.1322471E+00
    9000001   -1    0    0    0    0  0.00000000000E+00  0.00000000000E+00  0.64999999231E+04  0.65000000000E+04  0.10000000000E+01 0.  0.
    9000001   -1    0    0    0    0 -0.00000000000E+00 -0.00000000000E+00 -0.64999999231E+04  0.65000000000E+04  0.10000000000E+01 0.  0.
    9000001    1    1    2    0    0 -0.31120919056E+04 -0.56735640977E+04  0.61282411878E+03  0.65000000000E+04  0.10000000000E+01 0.  0.
    9000001    1    1    2    0    0  0.31120919056E+04  0.56735640977E+04 -0.61282411878E+03  0.65000000000E+04  0.10000000000E+01 0.  0.
</event>
<event>
 4    1  0.2191064E-006  0.1300000E+05  0.7957747E-01  0.1322471E+00
    9000001   -1    0    0    0    0  0.00000000000E+00  0.00000000000E+00  0.64999999231E+04  0.65000000000E+04  0.10000000000E+01 0.  0.
    9000001   -1    0    0    0    0 -0.00000000000E+00 -0.00000000000E+00 -0.64999999231E+04  0.65000000000E+04  0.10000000000E+01 0.  0.
    9000001    1    1    2    0    0 -0.50972801366E+04  0.36760408487E+04  0.16596559548E+04  0.65000000000E+04  0.10000000000E+01 0.  0.
    9000001    1    1    2    0    0  0.50972801366E+04 -0.36760408487E+04 -0.16596559548E+04  0.65000000000E+04  0.10000000000E+01 0.  0.
</event>
<event>
 4    1  0.2191064E-006  0.1300000E+05  0.7957747E-01  0.1322471E+00
    9000001   -1    0    0    0    0  0.00000000000E+00  0.00000000000E+00  0.64999999231E+04  0.65000000000E+04  0.10000000000E+01 0.  0.
    9000001   -1    0    0    0    0 -0.00000000000E+00 -0.00000000000E+00 -0.64999999231E+04  0.65000000000E+04  0.10000000000E+01 0.  0.
    9000001    1    1    2    0    0 -0.27480549492E+04 -0.42137310511E+02  0.58903664948E+04  0.65000000000E+04  0.10000000000E+01 0.  0.
    9000001    1    1    2    0    0  0.27480549492E+04  0.42137310511E+02 -0.58903664948E+04  0.65000000000E+04  0.10000000000E+01 0.  0.
</event>
<event>
 4    1  0.2191064E-006  0.1300000E+05  0.7957747E-01  0.1322471E+00
    9000001   -1    0    0    0    0  0.00000000000E+00  0.00000000000E+00  0.64999999231E+04  0.65000000000E+04  0.10000000000E+01 0.  0.
    9000001   -1    0    0    0    0 -0.00000000000E+00 -0.00000000000E+00 -0.64999999231E+04  0.65000000000E+04  0.10000000000E+01 0.  0.
    9000001    1    1    2    0    0  0.28003564683E+04  0.50832298599E+04  0.29272473148E+04  0.65000000000E+04  0.10000000000E+01 0.  0.
    9000001    1    1    2    0    0 -0.28003564683E+04 -0.50832298599E+04 -0.29272473148E+04  0.65000000000E+04  0.10000000000E+01 0.  0.
</event>
<event>
 4    1  0.2191064E-006  0.1300000E+05  0.7957747E-01  0.1322471E+00
    9000001   -1    0    0    0    0  0.00000000000E+00  0.00000000000E+00  0.64999999231E+04  0.65000000000E+04  0.10000000000E+01 0.  0.
    9000001   -1    0    0    0    0 -0.00000000000E+00 -0.00000000000E+00 -0.64999999231E+04  0.65000000000E+04  0.10000000000E+01 0.  0.
    9000001    1    1    2    0    0 -0.18672130824E+04  0.61386682380E+04 -0.10393587299E+04  0.65000000000E+04  0.10000000000E+01 0.  0.
    9000001    1    1    2    0    0  0.18672130824E+04 -0.61386682380E+04  0.10393587299E+04  0.65000000000E+04  0.10000000000E+01 0.  0.
</event>
<event>
 4    1  0.2191064E-006  0.1300000E+05  0.7957747E-01  0.1322471E+00
    9000001   -1    0    0    0    0  0.00000000000E+00  0.00000000000E+00  0.64999999231E+04  0.65000000000E+04  0.10000000000E+01 0.  0.
    9000001   -1    0    0    0    0 -0.00000000000E+00 -0.00000000000E+00 -0.64999999231E+04  0.65000000000E+04  0.10000000000E+01 0.  0.
    9000001    1    1    2    0    0 -0.17774219974E+04 -0.45820606102E+04 -0.42538794773E+04  0.65000000000E+04  0.10000000000E+01 0.  0.
    9000001    1    1    2    0    0  0.17774219974E+04  0.45820606102E+04  0.42538794773E+04  0.65000000000E+04  0.10000000000E+01 0.  0.
</event>
<event>
 4    1  0.2191064E-006  0.1300000E+05  0.7957747E-01  0.1322471E+00
    9000001   -1    0    0    0    0  0.00000000000E+00  0.00000000000E+00  0.64999999231E+04  0.65000000000E+04  0.10000000000E+01 0.  0.
    9000001   -1    0    0    0    0 -0.00000000000E+00 -0.00000000000E+00 -0.64999999231E+04  0.65000000000E+04  0.10000000000E+01 0.  0.
    9000001    1    1    2    0    0 -0.10517232823E+04 -0.53578067970E+04  0.35267241831E+04  0.65000000000E+04  0.10000000000E+01 0.  0.
    9000001    1    1    2    0    0  0.10517232823E+04  0.53578067970E+04 -0.35267241831E+04  0.65000000000E+04  0.10000000000E+01 0.  0.
</event>
<event>
 4    1  0.2191064E-006  0.1300000E+05  0.7957747E-01  0.1322471E+00
    9000001   -1    0    0    0    0  0.00000000000E+00  0.00000000000E+00  0.64999999231E+04  0.65000000000E+04  0.10000000000E+01 0.  0.
    9000001   -1    0    0    0    0 -0.00000000000E+00 -0.00000000000E+00 -0.64999999231E+04  0.65000000000E+04  0.10000000000E+01 0.  0.
    9000001    1    1    2    0    0  0.23800448221E+04 -0.48557624409E+03  0.60290630579E+04  0.65000000000E+04  0.10000000000E+01 0.  0.
    9000001    1    1    2    0    0 -0.23800448221E+04  0.48557624409E+03 -0.60290630579E+04  0.65000000000E+04  0.10000000000E+01 0.  0.
</event>
<event>
 4    1  0.2191064E-006  0.1300000E+05  0.7957747E-01  0.1322471E+00
    9000001   -1    0    0    0    0  0.00000000000E+00  0.00000000000E+00  0.64999999231E+04  0.65000000000E+04  0.10000000000E+01 0.  0.
    9000001   -1    0    0    0    0 -0.00000000000E+00 -0.00000000000E+00 -0.64999999231E+04  0.65000000000E+04  0.10000000000E+01 0.  0.
    9000001    1    1    2    0    0  0.31912491065E+03  0.48017601730E+04 -0.43693543610E+04  0.65000000000E+04  0.10000000000E+01 0.  0.
    9000001    1    1    2    0    0 -0.31912491065E+03 -0.48017601730E+04  0.43693543610E+04  0.65000000000E+04  0.10000000000E+01 0.  0.
</event>
<event>
 4    1  0.2191064E-006  0.1300000E+05  0.7957747E-01  0.1322471E+00
    9000001   -1    0    0    0    0  0.00000000000E+00  0.00000000000E+00  0.64999999231E+04  0.65000000000E+04  0.10000000000E+01 0.  0.
    9000001   -1    0    0    0    0 -0.00000000000E+00 -0.00000000000E+00 -0.64999999231E+04  0.65000000000E+04  0.10000000000E+01 0.  0.
    9000001    1    1    2    0    0  0.28439169394E+04  0.25530404931E+04  0.52577675569E+04  0.65000000000E+04  0.10000000000E+01 0.  0.
    9000001    1    1    2    0    0 -0.28439169394E+04 -0.25530404931E+04 -0.52577675569E+04  0.65000000000E+04  0.10000000000E+01 0.  0.
</event>
<event>
 4    1  0.2191064E-006  0.1300000E+05  0.7957747E-01  0.1322471E+00
    9000001   -1    0    0    0    0  0.00000000000E+00  0.00000000000E+00  0.64999999231E+04  0.65000000000E+04  0.10000000000E+01 0.  0.
    9000001   -1    0    0    0    0 -0.00000000000E+00 -0.00000000000E+00 -0.64999999231E+04  0.65000000000E+04  0.10000000000E+01 0.  0.
    9000001    1    1    2    0    0  0.10239787391E+04  0.35444188599E+04 -0.53515008631E+04  0.65000000000E+04  0.10000000000E+01 0.  0.
    9000001    1    1    2    0    0 -0.10239787391E+04 -0.35444188599E+04  0.53515008631E+04  0.65000000000E+04  0.10000000000E+01 0.  0.
</event>
<event>
 4    1  0.2191064E-006  0.1300000E+05  0.7957747E-01  0.1322471E+00
    9000001   -1    0    0    0    0  0.00000000000E+00  0.00000000000E+00  0.64999999231E+04  0.65000000000E+04  0.10000000000E+01 0.  0.
    9000001   -1    0    0    0    0 -0.00000000000E+00 -0.00000000000E+00 -0.64999999231E+04  0.65000000000E+04  0.10000000000E+01 0.  0.
    9000001    1    1    2    0    0  0.61277423039E+04  0.21124345775E+04 -0.48825547844E+03  0.65000000000E+04  0.10000000000E+01 0.  0.
    9000001    1    1    2    0    0 -0.61277423039E+04 -0.21124345775E+04  0.48825547844E+03  0.65000000000E+04  0.10000000000E+01 0.  0.
</event>
<event>
 4    1  0.2191064E-006  0.1300000E+05  0.7957747E-01  0.1322471E+00
    9000001   -1    0    0    0    0  0.00000000000E+00  0.00000000000E+00  0.64999999231E+04  0.65000000000E+04  0.10000000000E+01 0.  0.
    9000001   -1    0    0    0    0 -0.00000000000E+00 -0.00000000000E+00 -0.64999999231E+04  0.65000000000E+04  0.10000000000E+01 0.  0.
    9000001    1    1    2    0    0  0.12358100738E+04 -0.13332953272E+04  0.62406006147E+04  0.65000000000E+04  0.10000000000E+01 0.  0.
    9000001    1    1    2    0    0 -0.12358100738E+04  0.13332953272E+04 -0.62406006147E+04  0.65000000000E+04  0.10000000000E+01 0.  0.
</event>
<event>
 4    1  0.2191064E-006  0.1300000E+05  0.7957747E-01  0.1322471E+00
    9000001   -1    0    0    0    0  0.00000000000E+00  0.00000000000E+00  0.64999999231E+04  0.65000000000E+04  0.10000000000E+01 0.  0.
    9000001   -1    0    0    0    0 -0.00000000000E+00 -0.00000000000E+00 -0.64999999231E+04  0.65000000000E+04  0.10000000000E+01 0.  0.
    9000001    1    1    2    0    0 -0.61204053535E+04 -0.60042081643E+02  0.21879287596E+04  0.65000000000E+04  0.10000000000E+01 0.  0.
    9000001    1    1    2    0    0  0.61204053535E+04  0.60042081643E+02 -0.21879287596E+04  0.65000000000E+04  0.10000000000E+01 0.  0.
</event>
<event>
 4    1  0.2191064E-006  0.1300000E+05  0.7957747E-01  0.1322471E+00
    9000001   -1    0    0    0    0  0.00000000000E+00  0.00000000000E+00  0.64999999231E+04  0.65000000000E+04  0.10000000000E+01 0.  0.
    9000001   -1    0    0    0    0 -0.00000000000E+00 -0.00000000000E+00 -0.64999999231E+04  0.65000000000E+04  0.10000000000E+01 0.  0.
    9000001    1    1    2    0    0  0.62733048815E+04 -0.37029533625E+03 -0.16608811602E+04  0.65000000000E+04  0.10000000000E+01 0.  0.
    9000001    1    1    2    0    0 -0.62733048815E+04  0.37029533625E+03  0.16608811602E+04  0.65000000000E+04  0.10000000000E+01 0.  0.
</event>
<event>
 4    1  0.2191064E-006  0.1300000E+05  0.7957747E-01  0.1322471E+00
    9000001   -1    0    0    0    0  0.00000000000E+00  0.00000000000E+00  0.64999999231E+04  0.65000000000E+04  0.10000000000E+01 0.  0.
    9000001   -1    0    0    0    0 -0.00000000000E+00 -0.00000000000E+00 -0.64999999231E+04  0.65000000000E+04  0.10000000000E+01 0.  0.
    9000001    1    1    2    0    0 -0.49550115156E+04  0.40132252123E+03 -0.41876962776E+04  0.65000000000E+04  0.10000000000E+01 0.  0.
    9000001    1    1    2    0    0  0.49550115156E+04 -0.40132252123E+03  0.41876962776E+04  0.65000000000E+04  0.10000000000E+01 0.  0.
</event>
<event>
 4    1  0.2191064E-006  0.1300000E+05  0.7957747E-01  0.1322471E+00
    9000001   -1    0    0    0    0  0.00000000000E+00  0.00000000000E+00  0.64999999231E+04  0.65000000000E+04  0.10000000000E+01 0.  0.
    9000001   -1    0    0    0    0 -0.00000000000E+00 -0.00000000000E+00 -0.64999999231E+04  0.65000000000E+04  0.10000000000E+01 0.  0.
    9000001    1    1    2    0    0 -0.60046223153E+04  0.23677940033E+04  0.76685162105E+03  0.65000000000E+04  0.10000000000E+01 0.  0.
    9000001    1    1    2    0    0  0.60046223153E+04 -0.23677940033E+04 -0.76685162105E+03  0.65000000000E+04  0.10000000000E+01 0.  0.
</event>
<event>
 4    1  0.2191064E-006  0.1300000E+05  0.7957747E-01  0.1322471E+00
    9000001   -1    0    0    0    0  0.00000000000E+00  0.00000000000E+00  0.64999999231E+04  0.65000000000E+04  0.10000000000E+01 0.  0.
    9000001   -1    0    0    0    0 -0.00000000000E+00 -0.00000000000E+00 -0.64999999231E+04  0.65000000000E+04  0.10000000000E+01 0.  0.
    9000001    1    1    2    0    0  0.44745184025E+03 -0.32825204812E+04 -0.55923917192E+04  0.65000000000E+04  0.10000000000E+01 0.  0.
    9000001    1    1    2    0    0 -0.44745184025E+03  0.32825204812E+04  0.55923917192E+04  0.65000000000E+04  0.10000000000E+01 0.  0.
</event>
<event>
 4    1  0.2191064E-006  0.1300000E+05  0.7957747E-01  0.1322471E+00
    9000001   -1    0    0    0    0  0.00000000000E+00  0.00000000000E+00  0.64999999231E+04  0.65000000000E+04  0.10000000000E+01 0.  0.
    9000001   -1    0    0    0    0 -0.00000000000E+00 -0.00000000000E+00 -0.64999999231E+04  0.65000000000E+04  0.10000000000E+01 0.  0.
    9000001    1    1    2    0    0  0.41585497183E+04  0.83868603336E+03  0.49247404985E+04  0.65000000000E+04  0.10000000000E+01 0.  0.
    9000001    1    1    2    0    0 -0.41585497183E+04 -0.83868603336E+03 -0.49247404985E+04  0.65000000000E+04  0.10000000000E+01 0.  0.
</event>
<event>
 4    1  0.2191064E-006  0.1300000E+05  0.7957747E-01  0.1322471E+00
    9000001   -1    0    0    0    0  0.00000000000E+00  0.00000000000E+00  0.64999999231E+04  0.65000000000E+04  0.10000000000E+01 0.  0.
    9000001   -1    0    0    0    0 -0.00000000000E+00 -0.00000000000E+00 -0.64999999231E+04  0.65000000000E+04  0.10000000000E+01 0.  0.
    9000001    1    1    2    0    0 -0.32328238993E+04  0.49076565068E+04  0.27773649828E+04  0.65000000000E+04  0.10000000000E+01 0.  0.
    9000001    1    1    2    0    0  0.32328238993E+04 -0.49076565068E+04 -0.27773649828E+04  0.65000000000E+04  0.10000000000E+01 0.  0.
</event>
<event>
 4    1  0.2191064E-006  0.1300000E+05  0.7957747E-01  0.1322471E+00
    9000001   -1    0    0    0    0  0.00000000000E+00  0.00000000000E+00  0.64999999231E+04  0.65000000000E+04  0.10000000000E+01 0.  0.
    9000001   -1    0    0    0    0 -0.00000000000E+00 -0.00000000000E+00 -0.64999999231E+04  0.65000000000E+04  0.10000000000E+01 0.  0.
    9000001    1    1    2    0    0 -0.53279577570E+04  0.27529656075E+04 -0.25067998530E+04  0.65000000000E+04  0.10000000000E+01 0.  0.
    9000001    1    1    2    0    0  0.53279577570E+04 -0.27529656075E+04  0.25067998530E+04  0.65000000000E+04  0.10000000000E+01 0.  0.
</event>
<event>
 4    1  0.2191064E-006  0.1300000E+05  0.7957747E-01  0.1322471E+00
    9000001   -1    0    0    0    0  0.00000000000E+00  0.00000000000E+00  0.64999999231E+04  0.65000000000E+04  0.10000000000E+01 0.  0.
    9000001   -1    0    0    0    0 -0.00000000000E+00 -0.00000000000E+00 -0.64999999231E+04  0.65000000000E+04  0.10000000000E+01 0.  0.
    9000001    1    1    2    0    0  0.47933417307E+04  0.40282942096E+04  0.17454855525E+04  0.65000000000E+04  0.10000000000E+01 0.  0.
    9000001    1    1    2    0    0 -0.47933417307E+04 -0.40282942096E+04 -0.17454855525E+04  0.65000000000E+04  0.10000000000E+01 0.  0.
</event>
<event>
 4    1  0.2191064E-006  0.1300000E+05  0.7957747E-01  0.1322471E+00
    9000001   -1    0    0    0    0  0.00000000000E+00  0.00000000000E+00  0.64999999231E+04  0.65000000000E+04  0.10000000000E+01 0.  0.
    9000001   -1    0    0    0    0 -0.00000000000E+00 -0.00000000000E+00 -0.64999999231E+04  0.65000000000E+04  0.10000000000E+01 0.  0.
    9000001    1    1    2    0    0 -0.48775191399E+04  0.13802873832E+04  0.40687360174E+04  0.65000000000E+04  0.10000000000E+01 0.  0.
    9000001    1    1    2    0    0  0.48775191399E+04 -0.13802873832E+04 -0.40687360174E+04  0.65000000000E+04  0.10000000000E+01 0.  0.
</event>
<event>
 4    1  0.2191064E-006  0.1300000E+05  0.7957747E-01  0.1322471E+00
    9000001   -1    0    0    0    0  0.00000000000E+00  0.00000000000E+00  0.64999999231E+04  0.65000000000E+04  0.10000000000E+01 0.  0.
    9000001   -1    0    0    0    0 -0.00000000000E+00 -0.00000000000E+00 -0.64999999231E+04  0.65000000000E+04  0.10000000000E+01 0.  0.
    9000001    1    1    2    0    0 -0.64709749952E+04  0.17764732349E+03  0.58730148948E+03  0.65000000000E+04  0.10000000000E+01 0.  0.
    9000001    1    1    2    0    0  0.64709749952E+04 -0.17764732349E+03 -0.58730148948E+03  0.65000000000E+04  0.10000000000E+01 0.  0.
</event>
<event>
 4    1  0.2191064E-006  0.1300000E+05  0.7957747E-01  0.1322471E+00
    9000001   -1    0    0    0    0  0.00000000000E+00  0.00000000000E+00  0.64999999231E+04  0.65000000000E+04  0.10000000000E+01 0.  0.
    9000001   -1    0    0    0    0 -0.00000000000E+00 -0.00000000000E+00 -0.64999999231E+04  0.65000000000E+04  0.10000000000E+01 0.  0.
    9000001    1    1    2    0    0  0.44447989193E+04  0.25232030477E+04 -0.40158695132E+04  0.65000000000E+04  0.10000000000E+01 0.  0.
    9000001    1    1    2    0    0 -0.44447989193E+04 -0.25232030477E+04  0.40158695132E+04  0.65000000000E+04  0.10000000000E+01 0.  0.
</event>
<event>
 4    1  0.2191064E-006  0.1300000E+05  0.7957747E-01  0.1322471E+00
    9000001   -1    0    0    0    0  0.00000000000E+00  0.00000000000E+00  0.64999999231E+04  0.65000000000E+04  0.10000000000E+01 0.  0.
    9000001   -1    0    0    0    0 -0.00000000000E+00 -0.00000000000E+00 -0.64999999231E+04  0.65000000000E+04  0.10000000000E+01 0.  0.
    9000001    1    1    2    0    0 -0.56488247451E+04 -0.22365987614E+04 -0.23104986430E+04  0.65000000000E+04  0.10000000000E+01 0.  0.
    9000001    1    1    2    0    0  0.56488247451E+04  0.22365987614E+04  0.23104986430E+04  0.65000000000E+04  0.10000000000E+01 0.  0.
</event>
<event>
 4    1  0.2191064E-006  0.1300000E+05  0.7957747E-01  0.1322471E+00
    9000001   -1    0    0    0    0  0.00000000000E+00  0.00000000000E+00  0.64999999231E+04  0.65000000000E+04  0.10000000000E+01 0.  0.
    9000001   -1    0    0    0    0 -0.00000000000E+00 -0.00000000000E+00 -0.64999999231E+04  0.65000000000E+04  0.10000000000E+01 0.  0.
    9000001    1    1    2    0    0  0.29630023254E+04  0.20744353423E+04  0.54006790527E+04  0.65000000000E+04  0.10000000000E+01 0.  0.
    9000001    1    1    2    0    0 -0.29630023254E+04 -0.20744353423E+04 -0.54006790527E+04  0.65000000000E+04  0.10000000000E+01 0.  0.
</event>
<event>
 4    1  0.2191064E-006  0.1300000E+05  0.7957747E-01  0.1322471E+00
    9000001   -1    0    0    0    0  0.00000000000E+00  0.00000000000E+00  0.64999999231E+04  0.65000000000E+04  0.10000000000E+01 0.  0.
    9000001   -1    0    0    0    0 -0.00000000000E+00 -0.00000000000E+00 -0.64999999231E+04  0.65000000000E+04  0.10000000000E+01 0.  0.
    9000001    1    1    2    0    0  0.29281803369E+03  0.41693426790E+04 -0.49780355789E+04  0.65000000000E+04  0.10000000000E+01 0.  0.
    9000001    1    1    2    0    0 -0.29281803369E+03 -0.41693426790E+04  0.49780355789E+04  0.65000000000E+04  0.10000000000E+01 0.  0.
</event>
<event>
 4    1  0.2191064E-006  0.1300000E+05  0.7957747E-01  0.1322471E+00
    9000001   -1    0    0    0    0  0.00000000000E+00  0.00000000000E+00  0.64999999231E+04  0.65000000000E+04  0.10000000000E+01 0.  0.
    9000001   -1    0    0    0    0 -0.00000000000E+00 -0.00000000000E+00 -0.64999999231E+04  0.65000000000E+04  0.10000000000E+01 0.  0.
    9000001    1    1    2    0    0 -0.56201983560E+04 -0.10466949930E+04 -0.30931859030E+04  0.65000000000E+04  0.10000000000E+01 0.  0.
    9000001    1    1    2    0    0  0.56201983560E+04  0.10466949930E+04  0.30931859030E+04  0.65000000000E+04  0.10000000000E+01 0.  0.
</event>
<event>
 4    1  0.2191064E-006  0.1300000E+05  0.7957747E-01  0.1322471E+00
    9000001   -1    0    0    0    0  0.00000000000E+00  0.00000000000E+00  0.64999999231E+04  0.65000000000E+04  0.10000000000E+01 0.  0.
    9000001   -1    0    0    0    0 -0.00000000000E+00 -0.00000000000E+00 -0.64999999231E+04  0.65000000000E+04  0.10000000000E+01 0.  0.
    9000001    1    1    2    0    0  0.26085772720E+04  0.58094854724E+04  0.13019992940E+04  0.65000000000E+04  0.10000000000E+01 0.  0.
    9000001    1    1    2    0    0 -0.26085772720E+04 -0.58094854724E+04 -0.13019992940E+04  0.65000000000E+04  0.10000000000E+01 0.  0.
</event>
<event>
 4    1  0.2191064E-006  0.1300000E+05  0.7957747E-01  0.1322471E+00
    9000001   -1    0    0    0    0  0.00000000000E+00  0.00000000000E+00  0.64999999231E+04  0.65000000000E+04  0.10000000000E+01 0.  0.
    9000001   -1    0    0    0    0 -0.00000000000E+00 -0.00000000000E+00 -0.64999999231E+04  0.65000000000E+04  0.10000000000E+01 0.  0.
    9000001    1    1    2    0    0 -0.37963733505E+04  0.30787669860E+04 -0.42847102854E+04  0.65000000000E+04  0.10000000000E+01 0.  0.
    9000001    1    1    2    0    0  0.37963733505E+04 -0.30787669860E+04  0.42847102854E+04  0.65000000000E+04  0.10000000000E+01 0.  0.
</event>
<event>
 4    1  0.2191064E-006  0.1300000E+05  0.7957747E-01  0.1322471E+00
    9000001   -1    0    0    0    0  0.00000000000E+00  0.00000000000E+00  0.64999999231E+04  0.65000000000E+04  0.10000000000E+01 0.  0.
    9000001   -1    0    0    0    0 -0.00000000000E+00 -0.00000000000E+00 -0.64999999231E+04  0.65000000000E+04  0.10000000000E+01 0.  0.
    9000001    1    1    2    0    0  0.32612666272E+04 -0.34095153881E+04 -0.44709443974E+04  0.65000000000E+04  0.10000000000E+01 0.  0.
    9000001    1    1    2    0    0 -0.32612666272E+04  0.34095153881E+04  0.44709443974E+04  0.65000000000E+04  0.10000000000E+01 0.  0.
</event>
<event>
 4    1  0.2191064E-006  0.1300000E+05  0.7957747E-01  0.1322471E+00
    9000001   -1    0    0    0    0  0.00000000000E+00  0.00000000000E+00  0.64999999231E+04  0.65000000000E+04  0.10000000000E+01 0.  0.
    9000001   -1    0    0    0    0 -0.00000000000E+00 -0.00000000000E+00 -0.64999999231E+04  0.65000000000E+04  0.10000000000E+01 0.  0.
    9000001    1    1    2    0    0  0.16690145847E+04 -0.28930213801E+04  0.55762726449E+04  0.65000000000E+04  0.10000000000E+01 0.  0.
    9000001    1    1    2    0    0 -0.16690145847E+04  0.28930213801E+04 -0.55762726449E+04  0.65000000000E+04  0.10000000000E+01 0.  0.
</event>
<event>
 4    1  0.2191064E-006  0.1300000E+05  0.7957747E-01  0.1322471E+00
    9000001   -1    0    0    0    0  0.00000000000E+00  0.00000000000E+00  0.64999999231E+04  0.65000000000E+04  0.10000000000E+01 0.  0.
    9000001   -1    0    0    0    0 -0.00000000000E+00 -0.00000000000E+00 -0.64999999231E+04  0.65000000000E+04  0.10000000000E+01 0.  0.
    9000001    1    1    2    0    0  0.39615286129E+04 -0.18731442286E+04  0.48007937623E+04  0.65000000000E+04  0.10000000000E+01 0.  0.
    9000001    1    1    2    0    0 -0.39615286129E+04  0.18731442286E+04 -0.48007937623E+04  0.65000000000E+04  0.10000000000E+01 0.  0.
</event>
<event>
 4    1  0.2191064E-006  0.1300000E+05  0.7957747E-01  0.1322471E+00
    9000001   -1    0    0    0    0  0.00000000000E+00  0.00000000000E+00  0.64999999231E+04  0.65000000000E+04  0.10000000000E+01 0.  0.
    9000001   -1    0    0    0    0 -0.00000000000E+00 -0.00000000000E+00 -0.64999999231E+04  0.65000000000E+04  0.10000000000E+01 0.  0.
    9000001    1    1    2    0    0 -0.14605941146E+04 -0.22716672743E+04 -0.59123761406E+04  0.65000000000E+04  0.10000000000E+01 0.  0.
    9000001    1    1    2    0    0  0.14605941146E+04  0.22716672743E+04  0.59123761406E+04  0.65000000000E+04  0.10000000000E+01 0.  0.
</event>
<event>
 4    1  0.2191064E-006  0.1300000E+05  0.7957747E-01  0.1322471E+00
    9000001   -1    0    0    0    0  0.00000000000E+00  0.00000000000E+00  0.64999999231E+04  0.65000000000E+04  0.10000000000E+01 0.  0.
    9000001   -1    0    0    0    0 -0.00000000000E+00 -0.00000000000E+00 -0.64999999231E+04  0.65000000000E+04  0.10000000000E+01 0.  0.
    9000001    1    1    2    0    0 -0.47403974799E+04 -0.98350437688E+02  0.44462296301E+04  0.65000000000E+04  0.10000000000E+01 0.  0.
    9000001    1    1    2    0    0  0.47403974799E+04  0.98350437688E+02 -0.44462296301E+04  0.65000000000E+04  0.10000000000E+01 0.  0.
</event>
<event>
 4    1  0.2191064E-006  0.1300000E+05  0.7957747E-01  0.1322471E+00
    9000001   -1    0    0    0    0  0.00000000000E+00  0.00000000000E+00  0.64999999231E+04  0.65000000000E+04  0.10000000000E+01 0.  0.
    9000001   -1    0    0    0    0 -0.00000000000E+00 -0.00000000000E+00 -0.64999999231E+04  0.65000000000E+04  0.10000000000E+01 0.  0.
    9000001    1    1    2    0    0 -0.19569015518E+03 -0.27549631204E+04 -0.58840362481E+04  0.65000000000E+04  0.10000000000E+01 0.  0.
    9000001    1    1    2    0    0  0.19569015518E+03  0.27549631204E+04  0.58840362481E+04  0.65000000000E+04  0.10000000000E+01 0.  0.
</event>
<event>
 4    1  0.2191064E-006  0.1300000E+05  0.7957747E-01  0.1322471E+00
    9000001   -1    0    0    0    0  0.00000000000E+00  0.00000000000E+00  0.64999999231E+04  0.65000000000E+04  0.10000000000E+01 0.  0.
    9000001   -1    0    0    0    0 -0.00000000000E+00 -0.00000000000E+00 -0.64999999231E+04  0.65000000000E+04  0.10000000000E+01 0.  0.
    9000001    1    1    2    0    0 -0.45253076803E+04  0.49066929845E+03  0.46401328686E+04  0.65000000000E+04  0.10000000000E+01 0.  0.
    9000001    1    1    2    0    0  0.45253076803E+04 -0.49066929845E+03 -0.46401328686E+04  0.65000000000E+04  0.10000000000E+01 0.  0.
</event>
<event>
 4    1  0.2191064E-006  0.1300000E+05  0.7957747E-01  0.1322471E+00
    9000001   -1    0    0    0    0  0.00000000000E+00  0.00000000000E+00  0.64999999231E+04  0.65000000000E+04  0.10000000000E+01 0.  0.
    9000001   -1    0    0    0    0 -0.00000000000E+00 -0.00000000000E+00 -0.64999999231E+04  0.65000000000E+04  0.10000000000E+01 0.  0.
    9000001    1    1    2    0    0  0.91750247934E+03  0.20168841029E+04  0.61106764532E+04  0.65000000000E+04  0.10000000000E+01 0.  0.
    9000001    1    1    2    0    0 -0.91750247934E+03 -0.20168841029E+04 -0.61106764532E+04  0.65000000000E+04  0.10000000000E+01 0.  0.
</event>
<event>
 4    1  0.2191064E-006  0.1300000E+05  0.7957747E-01  0.1322471E+00
    9000001   -1    0    0    0    0  0.00000000000E+00  0.00000000000E+00  0.64999999231E+04  0.65000000000E+04  0.10000000000E+01 0.  0.
    9000001   -1    0    0    0    0 -0.00000000000E+00 -0.00000000000E+00 -0.64999999231E+04  0.65000000000E+04  0.10000000000E+01 0.  0.
    9000001    1    1    2    0    0 -0.42908001594E+04 -0.37744541649E+04  0.30971807744E+04  0.65000000000E+04  0.10000000000E+01 0.  0.
    9000001    1    1    2    0    0  0.42908001594E+04  0.37744541649E+04 -0.30971807744E+04  0.65000000000E+04  0.10000000000E+01 0.  0.
</event>
<event>
 4    1  0.2191064E-006  0.1300000E+05  0.7957747E-01  0.1322471E+00
    9000001   -1    0    0    0    0  0.00000000000E+00  0.00000000000E+00  0.64999999231E+04  0.65000000000E+04  0.10000000000E+01 0.  0.
    9000001   -1    0    0    0    0 -0.00000000000E+00 -0.00000000000E+00 -0.64999999231E+04  0.65000000000E+04  0.10000000000E+01 0.  0.
    9000001    1    1    2    0    0 -0.29118056978E+04 -0.32444090567E+04 -0.48213272499E+04  0.65000000000E+04  0.10000000000E+01 0.  0.
    9000001    1    1    2    0    0  0.29118056978E+04  0.32444090567E+04  0.48213272499E+04  0.65000000000E+04  0.10000000000E+01 0.  0.
</event>
<event>
 4    1  0.2191064E-006  0.1300000E+05  0.7957747E-01  0.1322471E+00
    9000001   -1    0    0    0    0  0.00000000000E+00  0.00000000000E+00  0.64999999231E+04  0.65000000000E+04  0.10000000000E+01 0.  0.
    9000001   -1    0    0    0    0 -0.00000000000E+00 -0.00000000000E+00 -0.64999999231E+04  0.65000000000E+04  0.10000000000E+01 0.  0.
    9000001    1    1    2    0    0 -0.22350372702E+04  0.27203280935E+04 -0.54639200639E+04  0.65000000000E+04  0.10000000000E+01 0.  0.
    9000001    1    1    2    0    0  0.22350372702E+04 -0.27203280935E+04  0.54639200639E+04  0.65000000000E+04  0.10000000000E+01 0.  0.
</event>
<event>
 4    1  0.2191064E-006  0.1300000E+05  0.7957747E-01  0.1322471E+00
    9000001   -1    0    0    0    0  0.00000000000E+00  0.00000000000E+00  0.64999999231E+04  0.65000000000E+04  0.10000000000E+01 0.  0.
    9000001   -1    0    0    0    0 -0.00000000000E+00 -0.00000000000E+00 -0.64999999231E+04  0.65000000000E+04  0.10000000000E+01 0.  0.
    9000001    1    1    2    0    0 -0.56096567320E+04  0.28175438030E+04  0.16861783022E+04  0.65000000000E+04  0.10000000000E+01 0.  0.
    9000001    1    1    2    0    0  0.56096567320E+04 -0.28175438030E+04 -0.16861783022E+04  0.65000000000E+04  0.10000000000E+01 0.  0.
</event>
<event>
 4    1  0.2191064E-006  0.1300000E+05  0.7957747E-01  0.1322471E+00
    9000001   -1    0    0    0    0  0.00000000000E+00  0.00000000000E+00  0.64999999231E+04  0.65000000000E+04  0.10000000000E+01 0.  0.
    9000001   -1    0    0    0    0 -0.00000000000E+00 -0.00000000000E+00 -0.64999999231E+04  0.65000000000E+04  0.10000000000E+01 0.  0.
    9000001    1    1    2    0    0 -0.11560214444E+04 -0.36926858038E+04  0.52228043209E+04  0.65000000000E+04  0.10000000000E+01 0.  0.
    9000001    1    1    2    0    0  0.11560214444E+04  0.36926858038E+04 -0.52228043209E+04  0.65000000000E+04  0.10000000000E+01 0.  0.
</event>
<event>
 4    1  0.2191064E-006  0.1300000E+05  0.7957747E-01  0.1322471E+00
    9000001   -1    0    0    0    0  0.00000000000E+00  0.00000000000E+00  0.64999999231E+04  0.65000000000E+04  0.10000000000E+01 0.  0.
    9000001   -1    0    0    0    0 -0.00000000000E+00 -0.00000000000E+00 -0.64999999231E+04  0.65000000000E+04  0.10000000000E+01 0.  0.
    9000001    1    1    2    0    0 -0.18535880101E+04  0.20370289006E+04 -0.58876755810E+04  0.65000000000E+04  0.10000000000E+01 0.  0.
    9000001    1    1    2    0    0  0.18535880101E+04 -0.20370289006E+04  0.58876755810E+04  0.65000000000E+04  0.10000000000E+01 0.  0.
</event>
<event>
 4    1  0.2191064E-006  0.1300000E+05  0.7957747E-01  0.1322471E+00
    9000001   -1    0    0    0    0  0.00000000000E+00  0.00000000000E+00  0.64999999231E+04  0.65000000000E+04  0.10000000000E+01 0.  0.
    9000001   -1    0    0    0    0 -0.00000000000E+00 -0.00000000000E+00 -0.64999999231E+04  0.65000000000E+04  0.10000000000E+01 0.  0.
    9000001    1    1    2    0    0  0.49272765593E+04 -0.42393309734E+04 -0.41959738819E+01  0.65000000000E+04  0.10000000000E+01 0.  0.
    9000001    1    1    2    0    0 -0.49272765593E+04  0.42393309734E+04  0.41959738819E+01  0.65000000000E+04  0.10000000000E+01 0.  0.
</event>
<event>
 4    1  0.2191064E-006  0.1300000E+05  0.7957747E-01  0.1322471E+00
    9000001   -1    0    0    0    0  0.00000000000E+00  0.00000000000E+00  0.64999999231E+04  0.65000000000E+04  0.10000000000E+01 0.  0.
    9000001   -1    0    0    0    0 -0.00000000000E+00 -0.00000000000E+00 -0.64999999231E+04  0.65000000000E+04  0.10000000000E+01 0.  0.
    9000001    1    1    2    0    0  0.49861284519E+04 -0.24984983167E+04 -0.33385667917E+04  0.65000000000E+04  0.10000000000E+01 0.  0.
    9000001    1    1    2    0    0 -0.49861284519E+04  0.24984983167E+04  0.33385667917E+04  0.65000000000E+04  0.10000000000E+01 0.  0.
</event>
<event>
 4    1  0.2191064E-006  0.1300000E+05  0.7957747E-01  0.1322471E+00
    9000001   -1    0    0    0    0  0.00000000000E+00  0.00000000000E+00  0.64999999231E+04  0.65000000000E+04  0.10000000000E+01 0.  0.
    9000001   -1    0    0    0    0 -0.00000000000E+00 -0.00000000000E+00 -0.64999999231E+04  0.65000000000E+04  0.10000000000E+01 0.  0.
    9000001    1    1    2    0    0  0.32267084886E+04  0.50408771550E+03 -0.56199863794E+04  0.65000000000E+04  0.10000000000E+01 0.  0.
    9000001    1    1    2    0    0 -0.32267084886E+04 -0.50408771550E+03  0.56199863794E+04  0.65000000000E+04  0.10000000000E+01 0.  0.
</event>
<event>
 4    1  0.2191064E-006  0.1300000E+05  0.7957747E-01  0.1322471E+00
    9000001   -1    0    0    0    0  0.00000000000E+00  0.00000000000E+00  0.64999999231E+04  0.65000000000E+04  0.10000000000E+01 0.  0.
    9000001   -1    0    0    0    0 -0.00000000000E+00 -0.00000000000E+00 -0.64999999231E+04  0.65000000000E+04  0.10000000000E+01 0.  0.
    9000001    1    1    2    0    0  0.63117980087E+04  0.15119957976E+04 -0.35365746937E+03  0.65000000000E+04  0.10000000000E+01 0.  0.
    9000001    1    1    2    0    0 -0.63117980087E+04 -0.15119957976E+04  0.35365746937E+03  0.65000000000E+04  0.10000000000E+01 0.  0.
</event>
<event>
 4    1  0.2191064E-006  0.1300000E+05  0.7957747E-01  0.1322471E+00
    9000001   -1    0    0    0    0  0.00000000000E+00  0.00000000000E+00  0.64999999231E+04  0.65000000000E+04  0.10000000000E+01 0.  0.
    9000001   -1    0    0    0    0 -0.00000000000E+00 -0.00000000000E+00 -0.64999999231E+04  0.65000000000E+04  0.10000000000E+01 0.  0.
    9000001    1    1    2    0    0 -0.90761232310E+02 -0.26899459501E+04 -0.59165828131E+04  0.65000000000E+04  0.10000000000E+01 0.  0.
    9000001    1    1    2    0    0  0.90761232310E+02  0.26899459501E+04  0.59165828131E+04  0.65000000000E+04  0.10000000000E+01 0.  0.
</event>
<event>
 4    1  0.2191064E-006  0.1300000E+05  0.7957747E-01  0.1322471E+00
    9000001   -1    0    0    0    0  0.00000000000E+00  0.00000000000E+00  0.64999999231E+04  0.65000000000E+04  0.10000000000E+01 0.  0.
    9000001   -1    0    0    0    0 -0.00000000000E+00 -0.00000000000E+00 -0.64999999231E+04  0.65000000000E+04  0.10000000000E+01 0.  0.
    9000001    1    1    2    0    0  0.46134086628E+04 -0.36137137322E+04 -0.28120335296E+04  0.65000000000E+04  0.10000000000E+01 0.  0.
    9000001    1    1    2    0    0 -0.46134086628E+04  0.36137137322E+04  0.28120335296E+04  0.65000000000E+04  0.10000000000E+01 0.  0.
</event>
<event>
 4    1  0.2191064E-006  0.1300000E+05  0.7957747E-01  0.1322471E+00
    9000001   -1    0    0    0    0  0.00000000000E+00  0.00000000000E+00  0.64999999231E+04  0.65000000000E+04  0.10000000000E+01 0.  0.
    9000001   -1    0    0    0    0 -0.00000000000E+00 -0.00000000000E+00 -0.64999999231E+04  0.65000000000E+04  0.10000000000E+01 0.  0.
    9000001    1    1    2    0    0 -0.59165967004E+03 -0.46251015333E+04  0.45286171886E+04  0.65000000000E+04  0.10000000000E+01 0.  0.
    9000001    1    1    2    0    0  0.59165967004E+03  0.46251015333E+04 -0.45286171886E+04  0.65000000000E+04  0.10000000000E+01 0.  0.
</event>
<event>
 4    1  0.2191064E-006  0.1300000E+05  0.7957747E-01  0.1322471E+00
    9000001   -1    0    0    0    0  0.00000000000E+00  0.00000000000E+00  0.64999999231E+04  0.65000000000E+04  0.10000000000E+01 0.  0.
    9000001   -1    0    0    0    0 -0.00000000000E+00 -0.00000000000E+00 -0.64999999231E+04  0.65000000000E+04  0.10000000000E+01 0.  0.
    9000001    1    1    2    0    0  0.41098427706E+04 -0.46250300253E+04 -0.19920563913E+04  0.65000000000E+04  0.10000000000E+01 0.  0.
    9000001    1    1    2    0    0 -0.41098427706E+04  0.46250300253E+04  0.19920563913E+04  0.65000000000E+04  0.10000000000E+01 0.  0.
</event>
<event>
 4    1  0.2191064E-006  0.1300000E+05  0.7957747E-01  0.1322471E+00
    9000001   -1    0    0    0    0  0.00000000000E+00  0.00000000000E+00  0.64999999231E+04  0.65000000000E+04  0.10000000000E+01 0.  0.
    9000001   -1    0    0    0    0 -0.00000000000E+00 -0.00000000000E+00 -0.64999999231E+04  0.65000000000E+04  0.10000000000E+01 0.  0.
    9000001    1    1    2    0    0 -0.71620118681E+03  0.49792503358E+04 -0.41163237182E+04  0.65000000000E+04  0.10000000000E+01 0.  0.
    9000001    1    1    2    0    0  0.71620118681E+03 -0.49792503358E+04  0.41163237182E+04  0.65000000000E+04  0.10000000000E+01 0.  0.
</event>
<event>
 4    1  0.2191064E-006  0.1300000E+05  0.7957747E-01  0.1322471E+00
    9000001   -1    0    0    0    0  0.00000000000E+00  0.00000000000E+00  0.64999999231E+04  0.65000000000E+04  0.10000000000E+01 0.  0.
    9000001   -1    0    0    0    0 -0.00000000000E+00 -0.00000000000E+00 -0.64999999231E+04  0.65000000000E+04  0.10000000000E+01 0.  0.
    9000001    1    1    2    0    0 -0.36792222953E+04 -0.53526347627E+04  0.25024667533E+03  0.65000000000E+04  0.10000000000E+01 0.  0.
    9000001    1    1    2    0    0  0.36792222953E+04  0.53526347627E+04 -0.25024667533E+03  0.65000000000E+04  0.10000000000E+01 0.  0.
</event>
<event>
 4    1  0.2191064E-006  0.1300000E+05  0.7957747E-01  0.1322471E+00
    9000001   -1    0    0    0    0  0.00000000000E+00  0.00000000000E+00  0.64999999231E+04  0.65000000000E+04  0.10000000000E+01 0.  0.
    9000001   -1    0    0    0    0 -0.00000000000E+00 -0.00000000000E+00 -0.64999999231E+04  0.65000000000E+04  0.10000000000E+01 0.  0.
    9000001    1    1    2    0    0  0.79409941044E+03  0.40742237053E+04 -0.50020102284E+04  0.65000000000E+04  0.10000000000E+01 0.  0.
    9000001    1    1    2    0    0 -0.79409941044E+03 -0.40742237053E+04  0.50020102284E+04  0.65000000000E+04  0.10000000000E+01 0.  0.
</event>
<event>
 4    1  0.2191064E-006  0.1300000E+05  0.7957747E-01  0.1322471E+00
    9000001   -1    0    0    0    0  0.00000000000E+00  0.00000000000E+00  0.64999999231E+04  0.65000000000E+04  0.10000000000E+01 0.  0.
    9000001   -1    0    0    0    0 -0.00000000000E+00 -0.00000000000E+00 -0.64999999231E+04  0.65000000000E+04  0.10000000000E+01 0.  0.
    9000001    1    1    2    0    0 -0.20796100591E+04  0.61545396720E+04  0.21647731507E+03  0.65000000000E+04  0.10000000000E+01 0.  0.
    9000001    1    1    2    0    0  0.20796100591E+04 -0.61545396720E+04 -0.21647731507E+03  0.65000000000E+04  0.10000000000E+01 0.  0.
</event>
<event>
 4    1  0.2191064E-006  0.1300000E+05  0.7957747E-01  0.1322471E+00
    9000001   -1    0    0    0    0  0.00000000000E+00  0.00000000000E+00  0.64999999231E+04  0.65000000000E+04  0.10000000000E+01 0.  0.
    9000001   -1    0    0    0    0 -0.00000000000E+00 -0.00000000000E+00 -0.64999999231E+04  0.65000000000E+04  0.10000000000E+01 0.  0.
    9000001    1    1    2    0    0 -0.44309504382E+04  0.17259886783E+04 -0.44314377234E+04  0.65000000000E+04  0.10000000000E+01 0.  0.
    9000001    1    1    2    0    0  0.44309504382E+04 -0.17259886783E+04  0.44314377234E+04  0.65000000000E+04  0.10000000000E+01 0.  0.
</event>
<event>
 4    1  0.2191064E-006  0.1300000E+05  0.7957747E-01  0.1322471E+00
    9000001   -1    0    0    0    0  0.00000000000E+00  0.00000000000E+00  0.64999999231E+04  0.65000000000E+04  0.10000000000E+01 0.  0.
    9000001   -1    0    0    0    0 -0.00000000000E+00 -0.00000000000E+00 -0.64999999231E+04  0.65000000000E+04  0.10000000000E+01 0.  0.
    9000001    1    1    2    0    0 -0.34361708873E+02  0.14397765859E+03  0.64983142973E+04  0.65000000000E+04  0.10000000000E+01 0.  0.
    9000001    1    1    2    0    0  0.34361708873E+02 -0.14397765859E+03 -0.64983142973E+04  0.65000000000E+04  0.10000000000E+01 0.  0.
</event>
<event>
 4    1  0.2191064E-006  0.1300000E+05  0.7957747E-01  0.1322471E+00
    9000001   -1    0    0    0    0  0.00000000000E+00  0.00000000000E+00  0.64999999231E+04  0.65000000000E+04  0.10000000000E+01 0.  0.
    9000001   -1    0    0    0    0 -0.00000000000E+00 -0.00000000000E+00 -0.64999999231E+04  0.65000000000E+04  0.10000000000E+01 0.  0.
    9000001    1    1    2    0    0 -0.55343151088E+04 -0.33454355958E+03  0.33925559514E+04  0.65000000000E+04  0.10000000000E+01 0.  0.
    9000001    1    1    2    0    0  0.55343151088E+04  0.33454355958E+03 -0.33925559514E+04  0.65000000000E+04  0.10000000000E+01 0.  0.
</event>
<event>
 4    1  0.2191064E-006  0.1300000E+05  0.7957747E-01  0.1322471E+00
    9000001   -1    0    0    0    0  0.00000000000E+00  0.00000000000E+00  0.64999999231E+04  0.65000000000E+04  0.10000000000E+01 0.  0.
    9000001   -1    0    0    0    0 -0.00000000000E+00 -0.00000000000E+00 -0.64999999231E+04  0.65000000000E+04  0.10000000000E+01 0.  0.
    9000001    1    1    2    0    0 -0.29677411784E+04 -0.54623782204E+04  0.18986667625E+04  0.65000000000E+04  0.10000000000E+01 0.  0.
    9000001    1    1    2    0    0  0.29677411784E+04  0.54623782204E+04 -0.18986667625E+04  0.65000000000E+04  0.10000000000E+01 0.  0.
</event>
<event>
 4    1  0.2191064E-006  0.1300000E+05  0.7957747E-01  0.1322471E+00
    9000001   -1    0    0    0    0  0.00000000000E+00  0.00000000000E+00  0.64999999231E+04  0.65000000000E+04  0.10000000000E+01 0.  0.
    9000001   -1    0    0    0    0 -0.00000000000E+00 -0.00000000000E+00 -0.64999999231E+04  0.65000000000E+04  0.10000000000E+01 0.  0.
    9000001    1    1    2    0    0 -0.62161621059E+04  0.18500006420E+04  0.43223292106E+03  0.65000000000E+04  0.10000000000E+01 0.  0.
    9000001    1    1    2    0    0  0.62161621059E+04 -0.18500006420E+04 -0.43223292106E+03  0.65000000000E+04  0.10000000000E+01 0.  0.
</event>
<event>
 4    1  0.2191064E-006  0.1300000E+05  0.7957747E-01  0.1322471E+00
    9000001   -1    0    0    0    0  0.00000000000E+00  0.00000000000E+00  0.64999999231E+04  0.65000000000E+04  0.10000000000E+01 0.  0.
    9000001   -1    0    0    0    0 -0.00000000000E+00 -0.00000000000E+00 -0.64999999231E+04  0.65000000000E+04  0.10000000000E+01 0.  0.
    9000001    1    1    2    0    0  0.42127147197E+03 -0.13072436984E+04 -0.63532388008E+04  0.65000000000E+04  0.10000000000E+01 0.  0.
    9000001    1    1    2    0    0 -0.42127147197E+03  0.13072436984E+04  0.63532388008E+04  0.65000000000E+04  0.10000000000E+01 0.  0.
</event>
<event>
 4    1  0.2191064E-006  0.1300000E+05  0.7957747E-01  0.1322471E+00
    9000001   -1    0    0    0    0  0.00000000000E+00  0.00000000000E+00  0.64999999231E+04  0.65000000000E+04  0.10000000000E+01 0.  0.
    9000001   -1    0    0    0    0 -0.00000000000E+00 -0.00000000000E+00 -0.64999999231E+04  0.65000000000E+04  0.10000000000E+01 0.  0.
    9000001    1    1    2    0    0  0.17582312566E+04 -0.49331057837E+04 -0.38500765155E+04  0.65000000000E+04  0.10000000000E+01 0.  0.
    9000001    1    1    2    0    0 -0.17582312566E+04  0.49331057837E+04  0.38500765155E+04  0.65000000000E+04  0.10000000000E+01 0.  0.
</event>
<event>
 4    1  0.2191064E-006  0.1300000E+05  0.7957747E-01  0.1322471E+00
    9000001   -1    0    0    0    0  0.00000000000E+00  0.00000000000E+00  0.64999999231E+04  0.65000000000E+04  0.10000000000E+01 0.  0.
    9000001   -1    0    0    0    0 -0.00000000000E+00 -0.00000000000E+00 -0.64999999231E+04  0.65000000000E+04  0.10000000000E+01 0.  0.
    9000001    1    1    2    0    0 -0.31072385916E+04 -0.49150721529E+04 -0.29046743478E+04  0.65000000000E+04  0.10000000000E+01 0.  0.
    9000001    1    1    2    0    0  0.31072385916E+04  0.49150721529E+04  0.29046743478E+04  0.65000000000E+04  0.10000000000E+01 0.  0.
</event>
<event>
 4    1  0.2191064E-006  0.1300000E+05  0.7957747E-01  0.1322471E+00
    9000001   -1    0    0    0    0  0.00000000000E+00  0.00000000000E+00  0.64999999231E+04  0.65000000000E+04  0.10000000000E+01 0.  0.
    9000001   -1    0    0    0    0 -0.00000000000E+00 -0.00000000000E+00 -0.64999999231E+04  0.65000000000E+04  0.10000000000E+01 0.  0.
    9000001    1    1    2    0    0 -0.82454869308E+03  0.59627605526E+04 -0.24526730408E+04  0.65000000000E+04  0.10000000000E+01 0.  0.
    9000001    1    1    2    0    0  0.82454869308E+03 -0.59627605526E+04  0.24526730408E+04  0.65000000000E+04  0.10000000000E+01 0.  0.
</event>
<event>
 4    1  0.2191064E-006  0.1300000E+05  0.7957747E-01  0.1322471E+00
    9000001   -1    0    0    0    0  0.00000000000E+00  0.00000000000E+00  0.64999999231E+04  0.65000000000E+04  0.10000000000E+01 0.  0.
    9000001   -1    0    0    0    0 -0.00000000000E+00 -0.00000000000E+00 -0.64999999231E+04  0.65000000000E+04  0.10000000000E+01 0.  0.
    9000001    1    1    2    0    0 -0.21686798202E+04  0.50135151869E+04  0.35229947926E+04  0.65000000000E+04  0.10000000000E+01 0.  0.
    9000001    1    1    2    0    0  0.21686798202E+04 -0.50135151869E+04 -0.35229947926E+04  0.65000000000E+04  0.10000000000E+01 0.  0.
</event>
<event>
 4    1  0.2191064E-006  0.1300000E+05  0.7957747E-01  0.1322471E+00
    9000001   -1    0    0    0    0  0.00000000000E+00  0.00000000000E+00  0.64999999231E+04  0.65000000000E+04  0.10000000000E+01 0.  0.
    9000001   -1    0    0    0    0 -0.00000000000E+00 -0.00000000000E+00 -0.64999999231E+04  0.65000000000E+04  0.10000000000E+01 0.  0.
    9000001    1    1    2    0    0  0.53599648691E+04 -0.13068092329E+04  0.34370081802E+04  0.65000000000E+04  0.10000000000E+01 0.  0.
    9000001    1    1    2    0    0 -0.53599648691E+04  0.13068092329E+04 -0.34370081802E+04  0.65000000000E+04  0.10000000000E+01 0.  0.
</event>
<event>
 4    1  0.2191064E-006  0.1300000E+05  0.7957747E-01  0.1322471E+00
    9000001   -1    0    0    0    0  0.00000000000E+00  0.00000000000E+00  0.64999999231E+04  0.65000000000E+04  0.10000000000E+01 0.  0.
    9000001   -1    0    0    0    0 -0.00000000000E+00 -0.00000000000E+00 -0.64999999231E+04  0.65000000000E+04  0.10000000000E+01 0.  0.
    9000001    1    1    2    0    0 -0.45837063267E+03  0.26221382391E+04  0.59299482644E+04  0.65000000000E+04  0.10000000000E+01 0.  0.
    9000001    1    1    2    0    0  0.45837063267E+03 -0.26221382391E+04 -0.59299482644E+04  0.65000000000E+04  0.10000000000E+01 0.  0.
</event>
<event>
 4    1  0.2191064E-006  0.1300000E+05  0.7957747E-01  0.1322471E+00
    9000001   -1    0    0    0    0  0.00000000000E+00  0.00000000000E+00  0.64999999231E+04  0.65000000000E+04  0.10000000000E+01 0.  0.
    9000001   -1    0    0    0    0 -0.00000000000E+00 -0.00000000000E+00 -0.64999999231E+04  0.65000000000E+04  0.10000000000E+01 0.  0.
    9000001    1    1    2    0    0  0.58884008476E+04  0.27129081652E+04 -0.46568631588E+03  0.65000000000E+04  0.10000000000E+01 0.  0.
    9000001    1    1    2    0    0 -0.58884008476E+04 -0.27129081652E+04  0.46568631588E+03  0.65000000000E+04  0.10000000000E+01 0.  0.
</event>
<event>
 4    1  0.2191064E-006  0.1300000E+05  0.7957747E-01  0.1322471E+00
    9000001   -1    0    0    0    0  0.00000000000E+00  0.00000000000E+00  0.64999999231E+04  0.65000000000E+04  0.10000000000E+01 0.  0.
    9000001   -1    0    0    0    0 -0.00000000000E+00 -0.00000000000E+00 -0.64999999231E+04  0.65000000000E+04  0.10000000000E+01 0.  0.
    9000001    1    1    2    0    0  0.42714144483E+03 -0.62092121607E+04  0.18743621659E+04  0.65000000000E+04  0.10000000000E+01 0.  0.
    9000001    1    1    2    0    0 -0.42714144483E+03  0.62092121607E+04 -0.18743621659E+04  0.65000000000E+04  0.10000000000E+01 0.  0.
</event>
<event>
 4    1  0.2191064E-006  0.1300000E+05  0.7957747E-01  0.1322471E+00
    9000001   -1    0    0    0    0  0.00000000000E+00  0.00000000000E+00  0.64999999231E+04  0.65000000000E+04  0.10000000000E+01 0.  0.
    9000001   -1    0    0    0    0 -0.00000000000E+00 -0.00000000000E+00 -0.64999999231E+04  0.65000000000E+04  0.10000000000E+01 0.  0.
    9000001    1    1    2    0    0 -0.29845572039E+04  0.18626530857E+04  0.54656144009E+04  0.65000000000E+04  0.10000000000E+01 0.  0.
    9000001    1    1    2    0    0  0.29845572039E+04 -0.18626530857E+04 -0.54656144009E+04  0.65000000000E+04  0.10000000000E+01 0.  0.
</event>
<event>
 4    1  0.2191064E-006  0.1300000E+05  0.7957747E-01  0.1322471E+00
    9000001   -1    0    0    0    0  0.00000000000E+00  0.00000000000E+00  0.64999999231E+04  0.65000000000E+04  0.10000000000E+01 0.  0.
    9000001   -1    0    0    0    0 -0.00000000000E+00 -0.00000000000E+00 -0.64999999231E+04  0.65000000000E+04  0.10000000000E+01 0.  0.
    9000001    1    1    2    0    0  0.10256505836E+04 -0.63610502852E+04 -0.85736756928E+03  0.65000000000E+04  0.10000000000E+01 0.  0.
    9000001    1    1    2    0    0 -0.10256505836E+04  0.63610502852E+04  0.85736756928E+03  0.65000000000E+04  0.10000000000E+01 0.  0.
</event>
<event>
 4    1  0.2191064E-006  0.1300000E+05  0.7957747E-01  0.1322471E+00
    9000001   -1    0    0    0    0  0.00000000000E+00  0.00000000000E+00  0.64999999231E+04  0.65000000000E+04  0.10000000000E+01 0.  0.
    9000001   -1    0    0    0    0 -0.00000000000E+00 -0.00000000000E+00 -0.64999999231E+04  0.65000000000E+04  0.10000000000E+01 0.  0.
    9000001    1    1    2    0    0 -0.63257451254E+04  0.29972110505E+03  0.14646210661E+04  0.65000000000E+04  0.10000000000E+01 0.  0.
    9000001    1    1    2    0    0  0.63257451254E+04 -0.29972110505E+03 -0.14646210661E+04  0.65000000000E+04  0.10000000000E+01 0.  0.
</event>
<event>
 4    1  0.2191064E-006  0.1300000E+05  0.7957747E-01  0.1322471E+00
    9000001   -1    0    0    0    0  0.00000000000E+00  0.00000000000E+00  0.64999999231E+04  0.65000000000E+04  0.10000000000E+01 0.  0.
    9000001   -1    0    0    0    0 -0.00000000000E+00 -0.00000000000E+00 -0.64999999231E+04  0.65000000000E+04  0.10000000000E+01 0.  0.
    9000001    1    1    2    0    0  0.64013245936E+04  0.76599240842E+03  0.82843109420E+03  0.65000000000E+04  0.10000000000E+01 0.  0.
    9000001    1    1    2    0    0 -0.64013245936E+04 -0.76599240842E+03 -0.82843109420E+03  0.65000000000E+04  0.10000000000E+01 0.  0.
</event>
<event>
 4    1  0.2191064E-006  0.1300000E+05  0.7957747E-01  0.1322471E+00
    9000001   -1    0    0    0    0  0.00000000000E+00  0.00000000000E+00  0.64999999231E+04  0.65000000000E+04  0.10000000000E+01 0.  0.
    9000001   -1    0    0    0    0 -0.00000000000E+00 -0.00000000000E+00 -0.64999999231E+04  0.65000000000E+04  0.10000000000E+01 0.  0.
    9000001    1    1    2    0    0 -0.38608829710E+04 -0.29104762123E+04 -0.43442732305E+04  0.65000000000E+04  0.10000000000E+01 0.  0.
    9000001    1    1    2    0    0  0.38608829710E+04  0.29104762123E+04  0.43442732305E+04  0.65000000000E+04  0.10000000000E+01 0.  0.
</event>
<event>
 4    1  0.2191064E-006  0.1300000E+05  0.7957747E-01  0.1322471E+00
    9000001   -1    0    0    0    0  0.00000000000E+00  0.00000000000E+00  0.64999999231E+04  0.65000000000E+04  0.10000000000E+01 0.  0.
    9000001   -1    0    0    0    0 -0.00000000000E+00 -0.00000000000E+00 -0.64999999231E+04  0.65000000000E+04  0.10000000000E+01 0.  0.
    9000001    1    1    2    0    0 -0.34733770238E+04 -0.10362185823E+04 -0.53955446528E+04  0.65000000000E+04  0.10000000000E+01 0.  0.
    9000001    1    1    2    0    0  0.34733770238E+04  0.10362185823E+04  0.53955446528E+04  0.65000000000E+04  0.10000000000E+01 0.  0.
</event>
<event>
 4    1  0.2191064E-006  0.1300000E+05  0.7957747E-01  0.1322471E+00
    9000001   -1    0    0    0    0  0.00000000000E+00  0.00000000000E+00  0.64999999231E+04  0.65000000000E+04  0.10000000000E+01 0.  0.
    9000001   -1    0    0    0    0 -0.00000000000E+00 -0.00000000000E+00 -0.64999999231E+04  0.65000000000E+04  0.10000000000E+01 0.  0.
    9000001    1    1    2    0    0 -0.45850349681E+04  0.16464438501E+04 -0.43031007413E+04  0.65000000000E+04  0.10000000000E+01 0.  0.
    9000001    1    1    2    0    0  0.45850349681E+04 -0.16464438501E+04  0.43031007413E+04  0.65000000000E+04  0.10000000000E+01 0.  0.
</event>
<event>
 4    1  0.2191064E-006  0.1300000E+05  0.7957747E-01  0.1322471E+00
    9000001   -1    0    0    0    0  0.00000000000E+00  0.00000000000E+00  0.64999999231E+04  0.65000000000E+04  0.10000000000E+01 0.  0.
    9000001   -1    0    0    0    0 -0.00000000000E+00 -0.00000000000E+00 -0.64999999231E+04  0.65000000000E+04  0.10000000000E+01 0.  0.
    9000001    1    1    2    0    0 -0.27823011688E+04 -0.33642771462E+04  0.48156451790E+04  0.65000000000E+04  0.10000000000E+01 0.  0.
    9000001    1    1    2    0    0  0.27823011688E+04  0.33642771462E+04 -0.48156451790E+04  0.65000000000E+04  0.10000000000E+01 0.  0.
</event>
<event>
 4    1  0.2191064E-006  0.1300000E+05  0.7957747E-01  0.1322471E+00
    9000001   -1    0    0    0    0  0.00000000000E+00  0.00000000000E+00  0.64999999231E+04  0.65000000000E+04  0.10000000000E+01 0.  0.
    9000001   -1    0    0    0    0 -0.00000000000E+00 -0.00000000000E+00 -0.64999999231E+04  0.65000000000E+04  0.10000000000E+01 0.  0.
    9000001    1    1    2    0    0  0.33713708990E+04  0.23526906370E+04  0.50347496490E+04  0.65000000000E+04  0.10000000000E+01 0.  0.
    9000001    1    1    2    0    0 -0.33713708990E+04 -0.23526906370E+04 -0.50347496490E+04  0.65000000000E+04  0.10000000000E+01 0.  0.
</event>
<event>
 4    1  0.2191064E-006  0.1300000E+05  0.7957747E-01  0.1322471E+00
    9000001   -1    0    0    0    0  0.00000000000E+00  0.00000000000E+00  0.64999999231E+04  0.65000000000E+04  0.10000000000E+01 0.  0.
    9000001   -1    0    0    0    0 -0.00000000000E+00 -0.00000000000E+00 -0.64999999231E+04  0.65000000000E+04  0.10000000000E+01 0.  0.
    9000001    1    1    2    0    0  0.14131593903E+04  0.22221369896E+04  0.59426498077E+04  0.65000000000E+04  0.10000000000E+01 0.  0.
    9000001    1    1    2    0    0 -0.14131593903E+04 -0.22221369896E+04 -0.59426498077E+04  0.65000000000E+04  0.10000000000E+01 0.  0.
</event>
<event>
 4    1  0.2191064E-006  0.1300000E+05  0.7957747E-01  0.1322471E+00
    9000001   -1    0    0    0    0  0.00000000000E+00  0.00000000000E+00  0.64999999231E+04  0.65000000000E+04  0.10000000000E+01 0.  0.
    9000001   -1    0    0    0    0 -0.00000000000E+00 -0.00000000000E+00 -0.64999999231E+04  0.65000000000E+04  0.10000000000E+01 0.  0.
    9000001    1    1    2    0    0  0.47592773101E+04 -0.63252394513E+02 -0.44266553536E+04  0.65000000000E+04  0.10000000000E+01 0.  0.
    9000001    1    1    2    0    0 -0.47592773101E+04  0.63252394513E+02  0.44266553536E+04  0.65000000000E+04  0.10000000000E+01 0.  0.
</event>
<event>
 4    1  0.2191064E-006  0.1300000E+05  0.7957747E-01  0.1322471E+00
    9000001   -1    0    0    0    0  0.00000000000E+00  0.00000000000E+00  0.64999999231E+04  0.65000000000E+04  0.10000000000E+01 0.  0.
    9000001   -1    0    0    0    0 -0.00000000000E+00 -0.00000000000E+00 -0.64999999231E+04  0.65000000000E+04  0.10000000000E+01 0.  0.
    9000001    1    1    2    0    0 -0.12527975567E+04 -0.60570056398E+04  0.19982942630E+04  0.65000000000E+04  0.10000000000E+01 0.  0.
    9000001    1    1    2    0    0  0.12527975567E+04  0.60570056398E+04 -0.19982942630E+04  0.65000000000E+04  0.10000000000E+01 0.  0.
</event>
<event>
 4    1  0.2191064E-006  0.1300000E+05  0.7957747E-01  0.1322471E+00
    9000001   -1    0    0    0    0  0.00000000000E+00  0.00000000000E+00  0.64999999231E+04  0.65000000000E+04  0.10000000000E+01 0.  0.
    9000001   -1    0    0    0    0 -0.00000000000E+00 -0.00000000000E+00 -0.64999999231E+04  0.65000000000E+04  0.10000000000E+01 0.  0.
    9000001    1    1    2    0    0  0.39882338618E+04 -0.36140414694E+04  0.36445430332E+04  0.65000000000E+04  0.10000000000E+01 0.  0.
    9000001    1    1    2    0    0 -0.39882338618E+04  0.36140414694E+04 -0.36445430332E+04  0.65000000000E+04  0.10000000000E+01 0.  0.
</event>
<event>
 4    1  0.2191064E-006  0.1300000E+05  0.7957747E-01  0.1322471E+00
    9000001   -1    0    0    0    0  0.00000000000E+00  0.00000000000E+00  0.64999999231E+04  0.65000000000E+04  0.10000000000E+01 0.  0.
    9000001   -1    0    0    0    0 -0.00000000000E+00 -0.00000000000E+00 -0.64999999231E+04  0.65000000000E+04  0.10000000000E+01 0.  0.
    9000001    1    1    2    0    0 -0.25421486886E+04 -0.59444443327E+04 -0.67161046829E+03  0.65000000000E+04  0.10000000000E+01 0.  0.
    9000001    1    1    2    0    0  0.25421486886E+04  0.59444443327E+04  0.67161046829E+03  0.65000000000E+04  0.10000000000E+01 0.  0.
</event>
<event>
 4    1  0.2191064E-006  0.1300000E+05  0.7957747E-01  0.1322471E+00
    9000001   -1    0    0    0    0  0.00000000000E+00  0.00000000000E+00  0.64999999231E+04  0.65000000000E+04  0.10000000000E+01 0.  0.
    9000001   -1    0    0    0    0 -0.00000000000E+00 -0.00000000000E+00 -0.64999999231E+04  0.65000000000E+04  0.10000000000E+01 0.  0.
    9000001    1    1    2    0    0  0.31787084919E+04  0.29577874147E+04  0.48370760727E+04  0.65000000000E+04  0.10000000000E+01 0.  0.
    9000001    1    1    2    0    0 -0.31787084919E+04 -0.29577874147E+04 -0.48370760727E+04  0.65000000000E+04  0.10000000000E+01 0.  0.
</event>
<event>
 4    1  0.2191064E-006  0.1300000E+05  0.7957747E-01  0.1322471E+00
    9000001   -1    0    0    0    0  0.00000000000E+00  0.00000000000E+00  0.64999999231E+04  0.65000000000E+04  0.10000000000E+01 0.  0.
    9000001   -1    0    0    0    0 -0.00000000000E+00 -0.00000000000E+00 -0.64999999231E+04  0.65000000000E+04  0.10000000000E+01 0.  0.
    9000001    1    1    2    0    0 -0.43883482638E+04 -0.14345828825E+04  0.45754093225E+04  0.65000000000E+04  0.10000000000E+01 0.  0.
    9000001    1    1    2    0    0  0.43883482638E+04  0.14345828825E+04 -0.45754093225E+04  0.65000000000E+04  0.10000000000E+01 0.  0.
</event>
<event>
 4    1  0.2191064E-006  0.1300000E+05  0.7957747E-01  0.1322471E+00
    9000001   -1    0    0    0    0  0.00000000000E+00  0.00000000000E+00  0.64999999231E+04  0.65000000000E+04  0.10000000000E+01 0.  0.
    9000001   -1    0    0    0    0 -0.00000000000E+00 -0.00000000000E+00 -0.64999999231E+04  0.65000000000E+04  0.10000000000E+01 0.  0.
    9000001    1    1    2    0    0 -0.78131525779E+03 -0.62732911571E+04 -0.15117418848E+04  0.65000000000E+04  0.10000000000E+01 0.  0.
    9000001    1    1    2    0    0  0.78131525779E+03  0.62732911571E+04  0.15117418848E+04  0.65000000000E+04  0.10000000000E+01 0.  0.
</event>
<event>
 4    1  0.2191064E-006  0.1300000E+05  0.7957747E-01  0.1322471E+00
    9000001   -1    0    0    0    0  0.00000000000E+00  0.00000000000E+00  0.64999999231E+04  0.65000000000E+04  0.10000000000E+01 0.  0.
    9000001   -1    0    0    0    0 -0.00000000000E+00 -0.00000000000E+00 -0.64999999231E+04  0.65000000000E+04  0.10000000000E+01 0.  0.
    9000001    1    1    2    0    0 -0.48701264122E+04 -0.42711096095E+04 -0.53804315183E+03  0.65000000000E+04  0.10000000000E+01 0.  0.
    9000001    1    1    2    0    0  0.48701264122E+04  0.42711096095E+04  0.53804315183E+03  0.65000000000E+04  0.10000000000E+01 0.  0.
</event>
<event>
 4    1  0.2191064E-006  0.1300000E+05  0.7957747E-01  0.1322471E+00
    9000001   -1    0    0    0    0  0.00000000000E+00  0.00000000000E+00  0.64999999231E+04  0.65000000000E+04  0.10000000000E+01 0.  0.
    9000001   -1    0    0    0    0 -0.00000000000E+00 -0.00000000000E+00 -0.64999999231E+04  0.65000000000E+04  0.10000000000E+01 0.  0.
    9000001    1    1    2    0    0  0.12135525089E+04 -0.61151033730E+04 -0.18392389855E+04  0.65000000000E+04  0.10000000000E+01 0.  0.
    9000001    1    1    2    0    0 -0.12135525089E+04  0.61151033730E+04  0.18392389855E+04  0.65000000000E+04  0.10000000000E+01 0.  0.
</event>
<event>
 4    1  0.2191064E-006  0.1300000E+05  0.7957747E-01  0.1322471E+00
    9000001   -1    0    0    0    0  0.00000000000E+00  0.00000000000E+00  0.64999999231E+04  0.65000000000E+04  0.10000000000E+01 0.  0.
    9000001   -1    0    0    0    0 -0.00000000000E+00 -0.00000000000E+00 -0.64999999231E+04  0.65000000000E+04  0.10000000000E+01 0.  0.
    9000001    1    1    2    0    0  0.30109107207E+04 -0.46846692641E+04  0.33523558162E+04  0.65000000000E+04  0.10000000000E+01 0.  0.
    9000001    1    1    2    0    0 -0.30109107207E+04  0.46846692641E+04 -0.33523558162E+04  0.65000000000E+04  0.10000000000E+01 0.  0.
</event>
<event>
 4    1  0.2191064E-006  0.1300000E+05  0.7957747E-01  0.1322471E+00
    9000001   -1    0    0    0    0  0.00000000000E+00  0.00000000000E+00  0.64999999231E+04  0.65000000000E+04  0.10000000000E+01 0.  0.
    9000001   -1    0    0    0    0 -0.00000000000E+00 -0.00000000000E+00 -0.64999999231E+04  0.65000000000E+04  0.10000000000E+01 0.  0.
    9000001    1    1    2    0    0  0.62314081179E+04  0.16301898882E+04 -0.87294489896E+03  0.65000000000E+04  0.10000000000E+01 0.  0.
    9000001    1    1    2    0    0 -0.62314081179E+04 -0.16301898882E+04  0.87294489896E+03  0.65000000000E+04  0.10000000000E+01 0.  0.
</event>
<event>
 4    1  0.2191064E-006  0.1300000E+05  0.7957747E-01  0.1322471E+00
    9000001   -1    0    0    0    0  0.00000000000E+00  0.00000000000E+00  0.64999999231E+04  0.65000000000E+04  0.10000000000E+01 0.  0.
    9000001   -1    0    0    0    0 -0.00000000000E+00 -0.00000000000E+00 -0.64999999231E+04  0.65000000000E+04  0.10000000000E+01 0.  0.
    9000001    1    1    2    0    0  0.15138240891E+03  0.20911035936E+03  0.64948714555E+04  0.65000000000E+04  0.10000000000E+01 0.  0.
    9000001    1    1    2    0    0 -0.15138240891E+03 -0.20911035936E+03 -0.64948714555E+04  0.65000000000E+04  0.10000000000E+01 0.  0.
</event>
<event>
 4    1  0.2191064E-006  0.1300000E+05  0.7957747E-01  0.1322471E+00
    9000001   -1    0    0    0    0  0.00000000000E+00  0.00000000000E+00  0.64999999231E+04  0.65000000000E+04  0.10000000000E+01 0.  0.
    9000001   -1    0    0    0    0 -0.00000000000E+00 -0.00000000000E+00 -0.64999999231E+04  0.65000000000E+04  0.10000000000E+01 0.  0.
    9000001    1    1    2    0    0 -0.42319259067E+04  0.11820937383E+03  0.49322235011E+04  0.65000000000E+04  0.10000000000E+01 0.  0.
    9000001    1    1    2    0    0  0.42319259067E+04 -0.11820937383E+03 -0.49322235011E+04  0.65000000000E+04  0.10000000000E+01 0.  0.
</event>
<event>
 4    1  0.2191064E-006  0.1300000E+05  0.7957747E-01  0.1322471E+00
    9000001   -1    0    0    0    0  0.00000000000E+00  0.00000000000E+00  0.64999999231E+04  0.65000000000E+04  0.10000000000E+01 0.  0.
    9000001   -1    0    0    0    0 -0.00000000000E+00 -0.00000000000E+00 -0.64999999231E+04  0.65000000000E+04  0.10000000000E+01 0.  0.
    9000001    1    1    2    0    0 -0.46024682009E+04 -0.41168586509E+04 -0.20294729139E+04  0.65000000000E+04  0.10000000000E+01 0.  0.
    9000001    1    1    2    0    0  0.46024682009E+04  0.41168586509E+04  0.20294729139E+04  0.65000000000E+04  0.10000000000E+01 0.  0.
</event>
<event>
 4    1  0.2191064E-006  0.1300000E+05  0.7957747E-01  0.1322471E+00
    9000001   -1    0    0    0    0  0.00000000000E+00  0.00000000000E+00  0.64999999231E+04  0.65000000000E+04  0.10000000000E+01 0.  0.
    9000001   -1    0    0    0    0 -0.00000000000E+00 -0.00000000000E+00 -0.64999999231E+04  0.65000000000E+04  0.10000000000E+01 0.  0.
    9000001    1    1    2    0    0  0.32018301446E+04  0.54384887477E+04  0.15559957797E+04  0.65000000000E+04  0.10000000000E+01 0.  0.
    9000001    1    1    2    0    0 -0.32018301446E+04 -0.54384887477E+04 -0.15559957797E+04  0.65000000000E+04  0.10000000000E+01 0.  0.
</event>
<event>
 4    1  0.2191064E-006  0.1300000E+05  0.7957747E-01  0.1322471E+00
    9000001   -1    0    0    0    0  0.00000000000E+00  0.00000000000E+00  0.64999999231E+04  0.65000000000E+04  0.10000000000E+01 0.  0.
    9000001   -1    0    0    0    0 -0.00000000000E+00 -0.00000000000E+00 -0.64999999231E+04  0.65000000000E+04  0.10000000000E+01 0.  0.
    9000001    1    1    2    0    0  0.15132545498E+04  0.50999950747E+04 -0.37349845924E+04  0.65000000000E+04  0.10000000000E+01 0.  0.
    9000001    1    1    2    0    0 -0.15132545498E+04 -0.50999950747E+04  0.37349845924E+04  0.65000000000E+04  0.10000000000E+01 0.  0.
</event>
<event>
 4    1  0.2191064E-006  0.1300000E+05  0.7957747E-01  0.1322471E+00
    9000001   -1    0    0    0    0  0.00000000000E+00  0.00000000000E+00  0.64999999231E+04  0.65000000000E+04  0.10000000000E+01 0.  0.
    9000001   -1    0    0    0    0 -0.00000000000E+00 -0.00000000000E+00 -0.64999999231E+04  0.65000000000E+04  0.10000000000E+01 0.  0.
    9000001    1    1    2    0    0 -0.88732375243E+03 -0.39662984434E+04  0.50725863439E+04  0.65000000000E+04  0.10000000000E+01 0.  0.
    9000001    1    1    2    0    0  0.88732375243E+03  0.39662984434E+04 -0.50725863439E+04  0.65000000000E+04  0.10000000000E+01 0.  0.
</event>
<event>
 4    1  0.2191064E-006  0.1300000E+05  0.7957747E-01  0.1322471E+00
    9000001   -1    0    0    0    0  0.00000000000E+00  0.00000000000E+00  0.64999999231E+04  0.65000000000E+04  0.10000000000E+01 0.  0.
    9000001   -1    0    0    0    0 -0.00000000000E+00 -0.00000000000E+00 -0.64999999231E+04  0.65000000000E+04  0.10000000000E+01 0.  0.
    9000001    1    1    2    0    0 -0.36639017807E+04 -0.51633177758E+04 -0.14717242565E+04  0.65000000000E+04  0.10000000000E+01 0.  0.
    9000001    1    1    2    0    0  0.36639017807E+04  0.51633177758E+04  0.14717242565E+04  0.65000000000E+04  0.10000000000E+01 0.  0.
</event>
<event>
 4    1  0.2191064E-006  0.1300000E+05  0.7957747E-01  0.1322471E+00
    9000001   -1    0    0    0    0  0.00000000000E+00  0.00000000000E+00  0.64999999231E+04  0.65000000000E+04  0.10000000000E+01 0.  0.
    9000001   -1    0    0    0    0 -0.00000000000E+00 -0.00000000000E+00 -0.64999999231E+04  0.65000000000E+04  0.10000000000E+01 0.  0.
    9000001    1    1    2    0    0 -0.29329396608E+04  0.55270554285E+04 -0.17605460052E+04  0.65000000000E+04  0.10000000000E+01 0.  0.
    9000001    1    1    2    0    0  0.29329396608E+04 -0.55270554285E+04  0.17605460052E+04  0.65000000000E+04  0.10000000000E+01 0.  0.
</event>
<event>
 4    1  0.2191064E-006  0.1300000E+05  0.7957747E-01  0.1322471E+00
    9000001   -1    0    0    0    0  0.00000000000E+00  0.00000000000E+00  0.64999999231E+04  0.65000000000E+04  0.10000000000E+01 0.  0.
    9000001   -1    0    0    0    0 -0.00000000000E+00 -0.00000000000E+00 -0.64999999231E+04  0.65000000000E+04  0.10000000000E+01 0.  0.
    9000001    1    1    2    0    0  0.34677968384E+04 -0.22025868675E+04 -0.50371614208E+04  0.65000000000E+04  0.10000000000E+01 0.  0.
    9000001    1    1    2    0    0 -0.34677968384E+04  0.22025868675E+04  0.50371614208E+04  0.65000000000E+04  0.10000000000E+01 0.  0.
</event>
<event>
 4    1  0.2191064E-006  0.1300000E+05  0.7957747E-01  0.1322471E+00
    9000001   -1    0    0    0    0  0.00000000000E+00  0.00000000000E+00  0.64999999231E+04  0.65000000000E+04  0.10000000000E+01 0.  0.
    9000001   -1    0    0    0    0 -0.00000000000E+00 -0.00000000000E+00 -0.64999999231E+04  0.65000000000E+04  0.10000000000E+01 0.  0.
    9000001    1    1    2    0    0  0.55391526933E+04  0.75071529801E+03 -0.33172598604E+04  0.65000000000E+04  0.10000000000E+01 0.  0.
    9000001    1    1    2    0    0 -0.55391526933E+04 -0.75071529801E+03  0.33172598604E+04  0.65000000000E+04  0.10000000000E+01 0.  0.
</event>
<event>
 4    1  0.2191064E-006  0.1300000E+05  0.7957747E-01  0.1322471E+00
    9000001   -1    0    0    0    0  0.00000000000E+00  0.00000000000E+00  0.64999999231E+04  0.65000000000E+04  0.10000000000E+01 0.  0.
    9000001   -1    0    0    0    0 -0.00000000000E+00 -0.00000000000E+00 -0.64999999231E+04  0.65000000000E+04  0.10000000000E+01 0.  0.
    9000001    1    1    2    0    0  0.82564601455E+03  0.49321342061E+03  0.64284561273E+04  0.65000000000E+04  0.10000000000E+01 0.  0.
    9000001    1    1    2    0    0 -0.82564601455E+03 -0.49321342061E+03 -0.64284561273E+04  0.65000000000E+04  0.10000000000E+01 0.  0.
</event>
<event>
 4    1  0.2191064E-006  0.1300000E+05  0.7957747E-01  0.1322471E+00
    9000001   -1    0    0    0    0  0.00000000000E+00  0.00000000000E+00  0.64999999231E+04  0.65000000000E+04  0.10000000000E+01 0.  0.
    9000001   -1    0    0    0    0 -0.00000000000E+00 -0.00000000000E+00 -0.64999999231E+04  0.65000000000E+04  0.10000000000E+01 0.  0.
    9000001    1    1    2    0    0  0.48884019523E+04 -0.15133275482E+04 -0.40079128090E+04  0.65000000000E+04  0.10000000000E+01 0.  0.
    9000001    1    1    2    0    0 -0.48884019523E+04  0.15133275482E+04  0.40079128090E+04  0.65000000000E+04  0.10000000000E+01 0.  0.
</event>
<event>
 4    1  0.2191064E-006  0.1300000E+05  0.7957747E-01  0.1322471E+00
    9000001   -1    0    0    0    0  0.00000000000E+00  0.00000000000E+00  0.64999999231E+04  0.65000000000E+04  0.10000000000E+01 0.  0.
    9000001   -1    0    0    0    0 -0.00000000000E+00 -0.00000000000E+00 -0.64999999231E+04  0.65000000000E+04  0.10000000000E+01 0.  0.
    9000001    1    1    2    0    0  0.47687883685E+04 -0.21812279541E+04  0.38406901865E+04  0.65000000000E+04  0.10000000000E+01 0.  0.
    9000001    1    1    2    0    0 -0.47687883685E+04  0.21812279541E+04 -0.38406901865E+04  0.65000000000E+04  0.10000000000E+01 0.  0.
</event>
<event>
 4    1  0.2191064E-006  0.1300000E+05  0.7957747E-01  0.1322471E+00
    9000001   -1    0    0    0    0  0.00000000000E+00  0.00000000000E+00  0.64999999231E+04  0.65000000000E+04  0.10000000000E+01 0.  0.
    9000001   -1    0    0    0    0 -0.00000000000E+00 -0.00000000000E+00 -0.64999999231E+04  0.65000000000E+04  0.10000000000E+01 0.  0.
    9000001    1    1    2    0    0  0.31172793739E+04  0.42499750893E+04  0.38039821300E+04  0.65000000000E+04  0.10000000000E+01 0.  0.
    9000001    1    1    2    0    0 -0.31172793739E+04 -0.42499750893E+04 -0.38039821300E+04  0.65000000000E+04  0.10000000000E+01 0.  0.
</event>
<event>
 4    1  0.2191064E-006  0.1300000E+05  0.7957747E-01  0.1322471E+00
    9000001   -1    0    0    0    0  0.00000000000E+00  0.00000000000E+00  0.64999999231E+04  0.65000000000E+04  0.10000000000E+01 0.  0.
    9000001   -1    0    0    0    0 -0.00000000000E+00 -0.00000000000E+00 -0.64999999231E+04  0.65000000000E+04  0.10000000000E+01 0.  0.
    9000001    1    1    2    0    0 -0.40279624865E+04  0.12636031877E+04 -0.49425523964E+04  0.65000000000E+04  0.10000000000E+01 0.  0.
    9000001    1    1    2    0    0  0.40279624865E+04 -0.12636031877E+04  0.49425523964E+04  0.65000000000E+04  0.10000000000E+01 0.  0.
</event>
<event>
 4    1  0.2191064E-006  0.1300000E+05  0.7957747E-01  0.1322471E+00
    9000001   -1    0    0    0    0  0.00000000000E+00  0.00000000000E+00  0.64999999231E+04  0.65000000000E+04  0.10000000000E+01 0.  0.
    9000001   -1    0    0    0    0 -0.00000000000E+00 -0.00000000000E+00 -0.64999999231E+04  0.65000000000E+04  0.10000000000E+01 0.  0.
    9000001    1    1    2    0    0  0.24652987933E+04 -0.39400259710E+04 -0.45440616422E+04  0.65000000000E+04  0.10000000000E+01 0.  0.
    9000001    1    1    2    0    0 -0.24652987933E+04  0.39400259710E+04  0.45440616422E+04  0.65000000000E+04  0.10000000000E+01 0.  0.
</event>
<event>
 4    1  0.2191064E-006  0.1300000E+05  0.7957747E-01  0.1322471E+00
    9000001   -1    0    0    0    0  0.00000000000E+00  0.00000000000E+00  0.64999999231E+04  0.65000000000E+04  0.10000000000E+01 0.  0.
    9000001   -1    0    0    0    0 -0.00000000000E+00 -0.00000000000E+00 -0.64999999231E+04  0.65000000000E+04  0.10000000000E+01 0.  0.
    9000001    1    1    2    0    0  0.51869598211E+04 -0.19990743234E+04 -0.33688497539E+04  0.65000000000E+04  0.10000000000E+01 0.  0.
    9000001    1    1    2    0    0 -0.51869598211E+04  0.19990743234E+04  0.33688497539E+04  0.65000000000E+04  0.10000000000E+01 0.  0.
</event>
<event>
 4    1  0.2191064E-006  0.1300000E+05  0.7957747E-01  0.1322471E+00
    9000001   -1    0    0    0    0  0.00000000000E+00  0.00000000000E+00  0.64999999231E+04  0.65000000000E+04  0.10000000000E+01 0.  0.
    9000001   -1    0    0    0    0 -0.00000000000E+00 -0.00000000000E+00 -0.64999999231E+04  0.65000000000E+04  0.10000000000E+01 0.  0.
    9000001    1    1    2    0    0  0.28651598551E+04  0.49972836696E+04 -0.30113143195E+04  0.65000000000E+04  0.10000000000E+01 0.  0.
    9000001    1    1    2    0    0 -0.28651598551E+04 -0.49972836696E+04  0.30113143195E+04  0.65000000000E+04  0.10000000000E+01 0.  0.
</event>
<event>
 4    1  0.2191064E-006  0.1300000E+05  0.7957747E-01  0.1322471E+00
    9000001   -1    0    0    0    0  0.00000000000E+00  0.00000000000E+00  0.64999999231E+04  0.65000000000E+04  0.10000000000E+01 0.  0.
    9000001   -1    0    0    0    0 -0.00000000000E+00 -0.00000000000E+00 -0.64999999231E+04  0.65000000000E+04  0.10000000000E+01 0.  0.
    9000001    1    1    2    0    0 -0.44843980909E+04  0.39108105222E+04  0.26164353273E+04  0.65000000000E+04  0.10000000000E+01 0.  0.
    9000001    1    1    2    0    0  0.44843980909E+04 -0.39108105222E+04 -0.26164353273E+04  0.65000000000E+04  0.10000000000E+01 0.  0.
</event>
<event>
 4    1  0.2191064E-006  0.1300000E+05  0.7957747E-01  0.1322471E+00
    9000001   -1    0    0    0    0  0.00000000000E+00  0.00000000000E+00  0.64999999231E+04  0.65000000000E+04  0.10000000000E+01 0.  0.
    9000001   -1    0    0    0    0 -0.00000000000E+00 -0.00000000000E+00 -0.64999999231E+04  0.65000000000E+04  0.10000000000E+01 0.  0.
    9000001    1    1    2    0    0 -0.25190057694E+04  0.59413341055E+04 -0.77791900629E+03  0.65000000000E+04  0.10000000000E+01 0.  0.
    9000001    1    1    2    0    0  0.25190057694E+04 -0.59413341055E+04  0.77791900629E+03  0.65000000000E+04  0.10000000000E+01 0.  0.
</event>
<event>
 4    1  0.2191064E-006  0.1300000E+05  0.7957747E-01  0.1322471E+00
    9000001   -1    0    0    0    0  0.00000000000E+00  0.00000000000E+00  0.64999999231E+04  0.65000000000E+04  0.10000000000E+01 0.  0.
    9000001   -1    0    0    0    0 -0.00000000000E+00 -0.00000000000E+00 -0.64999999231E+04  0.65000000000E+04  0.10000000000E+01 0.  0.
    9000001    1    1    2    0    0  0.20985155705E+04  0.57436922851E+04 -0.22036856251E+04  0.65000000000E+04  0.10000000000E+01 0.  0.
    9000001    1    1    2    0    0 -0.20985155705E+04 -0.57436922851E+04  0.22036856251E+04  0.65000000000E+04  0.10000000000E+01 0.  0.
</event>
<event>
 4    1  0.2191064E-006  0.1300000E+05  0.7957747E-01  0.1322471E+00
    9000001   -1    0    0    0    0  0.00000000000E+00  0.00000000000E+00  0.64999999231E+04  0.65000000000E+04  0.10000000000E+01 0.  0.
    9000001   -1    0    0    0    0 -0.00000000000E+00 -0.00000000000E+00 -0.64999999231E+04  0.65000000000E+04  0.10000000000E+01 0.  0.
    9000001    1    1    2    0    0 -0.12479332698E+04 -0.20474155520E+04 -0.60415851489E+04  0.65000000000E+04  0.10000000000E+01 0.  0.
    9000001    1    1    2    0    0  0.12479332698E+04  0.20474155520E+04  0.60415851489E+04  0.65000000000E+04  0.10000000000E+01 0.  0.
</event>
<event>
 4    1  0.2191064E-006  0.1300000E+05  0.7957747E-01  0.1322471E+00
    9000001   -1    0    0    0    0  0.00000000000E+00  0.00000000000E+00  0.64999999231E+04  0.65000000000E+04  0.10000000000E+01 0.  0.
    9000001   -1    0    0    0    0 -0.00000000000E+00 -0.00000000000E+00 -0.64999999231E+04  0.65000000000E+04  0.10000000000E+01 0.  0.
    9000001    1    1    2    0    0 -0.59807939862E+04  0.16101398812E+04 -0.19716875658E+04  0.65000000000E+04  0.10000000000E+01 0.  0.
    9000001    1    1    2    0    0  0.59807939862E+04 -0.16101398812E+04  0.19716875658E+04  0.65000000000E+04  0.10000000000E+01 0.  0.
</event>
<event>
 4    1  0.2191064E-006  0.1300000E+05  0.7957747E-01  0.1322471E+00
    9000001   -1    0    0    0    0  0.00000000000E+00  0.00000000000E+00  0.64999999231E+04  0.65000000000E+04  0.10000000000E+01 0.  0.
    9000001   -1    0    0    0    0 -0.00000000000E+00 -0.00000000000E+00 -0.64999999231E+04  0.65000000000E+04  0.10000000000E+01 0.  0.
    9000001    1    1    2    0    0 -0.92386657009E+03  0.58467757315E+04 -0.26854577089E+04  0.65000000000E+04  0.10000000000E+01 0.  0.
    9000001    1    1    2    0    0  0.92386657009E+03 -0.58467757315E+04  0.26854577089E+04  0.65000000000E+04  0.10000000000E+01 0.  0.
</event>
<event>
 4    1  0.2191064E-006  0.1300000E+05  0.7957747E-01  0.1322471E+00
    9000001   -1    0    0    0    0  0.00000000000E+00  0.00000000000E+00  0.64999999231E+04  0.65000000000E+04  0.10000000000E+01 0.  0.
    9000001   -1    0    0    0    0 -0.00000000000E+00 -0.00000000000E+00 -0.64999999231E+04  0.65000000000E+04  0.10000000000E+01 0.  0.
    9000001    1    1    2    0    0  0.64142366635E+04  0.97905938824E+03  0.38601779569E+03  0.65000000000E+04  0.10000000000E+01 0.  0.
    9000001    1    1    2    0    0 -0.64142366635E+04 -0.97905938824E+03 -0.38601779569E+03  0.65000000000E+04  0.10000000000E+01 0.  0.
</event>
<event>
 4    1  0.2191064E-006  0.1300000E+05  0.7957747E-01  0.1322471E+00
    9000001   -1    0    0    0    0  0.00000000000E+00  0.00000000000E+00  0.64999999231E+04  0.65000000000E+04  0.10000000000E+01 0.  0.
    9000001   -1    0    0    0    0 -0.00000000000E+00 -0.00000000000E+00 -0.64999999231E+04  0.65000000000E+04  0.10000000000E+01 0.  0.
    9000001    1    1    2    0    0  0.31084895506E+04 -0.30518415889E+04 -0.48242672635E+04  0.65000000000E+04  0.10000000000E+01 0.  0.
    9000001    1    1    2    0    0 -0.31084895506E+04  0.30518415889E+04  0.48242672635E+04  0.65000000000E+04  0.10000000000E+01 0.  0.
</event>
<event>
 4    1  0.2191064E-006  0.1300000E+05  0.7957747E-01  0.1322471E+00
    9000001   -1    0    0    0    0  0.00000000000E+00  0.00000000000E+00  0.64999999231E+04  0.65000000000E+04  0.10000000000E+01 0.  0.
    9000001   -1    0    0    0    0 -0.00000000000E+00 -0.00000000000E+00 -0.64999999231E+04  0.65000000000E+04  0.10000000000E+01 0.  0.
    9000001    1    1    2    0    0  0.22255105059E+04 -0.54972164339E+04  0.26603972386E+04  0.65000000000E+04  0.10000000000E+01 0.  0.
    9000001    1    1    2    0    0 -0.22255105059E+04  0.54972164339E+04 -0.26603972386E+04  0.65000000000E+04  0.10000000000E+01 0.  0.
</event>
<event>
 4    1  0.2191064E-006  0.1300000E+05  0.7957747E-01  0.1322471E+00
    9000001   -1    0    0    0    0  0.00000000000E+00  0.00000000000E+00  0.64999999231E+04  0.65000000000E+04  0.10000000000E+01 0.  0.
    9000001   -1    0    0    0    0 -0.00000000000E+00 -0.00000000000E+00 -0.64999999231E+04  0.65000000000E+04  0.10000000000E+01 0.  0.
    9000001    1    1    2    0    0  0.48361738942E+04  0.37405436147E+03 -0.43268353793E+04  0.65000000000E+04  0.10000000000E+01 0.  0.
    9000001    1    1    2    0    0 -0.48361738942E+04 -0.37405436147E+03  0.43268353793E+04  0.65000000000E+04  0.10000000000E+01 0.  0.
</event>
<event>
 4    1  0.2191064E-006  0.1300000E+05  0.7957747E-01  0.1322471E+00
    9000001   -1    0    0    0    0  0.00000000000E+00  0.00000000000E+00  0.64999999231E+04  0.65000000000E+04  0.10000000000E+01 0.  0.
    9000001   -1    0    0    0    0 -0.00000000000E+00 -0.00000000000E+00 -0.64999999231E+04  0.65000000000E+04  0.10000000000E+01 0.  0.
    9000001    1    1    2    0    0  0.29318394456E+04 -0.34692513448E+04  0.46495818706E+04  0.65000000000E+04  0.10000000000E+01 0.  0.
    9000001    1    1    2    0    0 -0.29318394456E+04  0.34692513448E+04 -0.46495818706E+04  0.65000000000E+04  0.10000000000E+01 0.  0.
</event>
<event>
 4    1  0.2191064E-006  0.1300000E+05  0.7957747E-01  0.1322471E+00
    9000001   -1    0    0    0    0  0.00000000000E+00  0.00000000000E+00  0.64999999231E+04  0.65000000000E+04  0.10000000000E+01 0.  0.
    9000001   -1    0    0    0    0 -0.00000000000E+00 -0.00000000000E+00 -0.64999999231E+04  0.65000000000E+04  0.10000000000E+01 0.  0.
    9000001    1    1    2    0    0 -0.22364989930E+04 -0.61028305537E+04  0.59417904136E+02  0.65000000000E+04  0.10000000000E+01 0.  0.
    9000001    1    1    2    0    0  0.22364989930E+04  0.61028305537E+04 -0.59417904136E+02  0.65000000000E+04  0.10000000000E+01 0.  0.
</event>
<event>
 4    1  0.2191064E-006  0.1300000E+05  0.7957747E-01  0.1322471E+00
    9000001   -1    0    0    0    0  0.00000000000E+00  0.00000000000E+00  0.64999999231E+04  0.65000000000E+04  0.10000000000E+01 0.  0.
    9000001   -1    0    0    0    0 -0.00000000000E+00 -0.00000000000E+00 -0.64999999231E+04  0.65000000000E+04  0.10000000000E+01 0.  0.
    9000001    1    1    2    0    0 -0.54454029134E+04  0.26783652791E+04 -0.23289365689E+04  0.65000000000E+04  0.10000000000E+01 0.  0.
    9000001    1    1    2    0    0  0.54454029134E+04 -0.26783652791E+04  0.23289365689E+04  0.65000000000E+04  0.10000000000E+01 0.  0.
</event>
<event>
 4    1  0.2191064E-006  0.1300000E+05  0.7957747E-01  0.1322471E+00
    9000001   -1    0    0    0    0  0.00000000000E+00  0.00000000000E+00  0.64999999231E+04  0.65000000000E+04  0.10000000000E+01 0.  0.
    9000001   -1    0    0    0    0 -0.00000000000E+00 -0.00000000000E+00 -0.64999999231E+04  0.65000000000E+04  0.10000000000E+01 0.  0.
    9000001    1    1    2    0    0 -0.25402832208E+04 -0.37777133495E+04  0.46395950262E+04  0.65000000000E+04  0.10000000000E+01 0.  0.
    9000001    1    1    2    0    0  0.25402832208E+04  0.37777133495E+04 -0.46395950262E+04  0.65000000000E+04  0.10000000000E+01 0.  0.
</event>
<event>
 4    1  0.2191064E-006  0.1300000E+05  0.7957747E-01  0.1322471E+00
    9000001   -1    0    0    0    0  0.00000000000E+00  0.00000000000E+00  0.64999999231E+04  0.65000000000E+04  0.10000000000E+01 0.  0.
    9000001   -1    0    0    0    0 -0.00000000000E+00 -0.00000000000E+00 -0.64999999231E+04  0.65000000000E+04  0.10000000000E+01 0.  0.
    9000001    1    1    2    0    0 -0.20212355807E+04 -0.56467442694E+04 -0.25057703174E+04  0.65000000000E+04  0.10000000000E+01 0.  0.
    9000001    1    1    2    0    0  0.20212355807E+04  0.56467442694E+04  0.25057703174E+04  0.65000000000E+04  0.10000000000E+01 0.  0.
</event>
<event>
 4    1  0.2191064E-006  0.1300000E+05  0.7957747E-01  0.1322471E+00
    9000001   -1    0    0    0    0  0.00000000000E+00  0.00000000000E+00  0.64999999231E+04  0.65000000000E+04  0.10000000000E+01 0.  0.
    9000001   -1    0    0    0    0 -0.00000000000E+00 -0.00000000000E+00 -0.64999999231E+04  0.65000000000E+04  0.10000000000E+01 0.  0.
    9000001    1    1    2    0    0  0.21941703516E+04 -0.24954897186E+04 -0.55864252015E+04  0.65000000000E+04  0.10000000000E+01 0.  0.
    9000001    1    1    2    0    0 -0.21941703516E+04  0.24954897186E+04  0.55864252015E+04  0.65000000000E+04  0.10000000000E+01 0.  0.
</event>
<event>
 4    1  0.2191064E-006  0.1300000E+05  0.7957747E-01  0.1322471E+00
    9000001   -1    0    0    0    0  0.00000000000E+00  0.00000000000E+00  0.64999999231E+04  0.65000000000E+04  0.10000000000E+01 0.  0.
    9000001   -1    0    0    0    0 -0.00000000000E+00 -0.00000000000E+00 -0.64999999231E+04  0.65000000000E+04  0.10000000000E+01 0.  0.
    9000001    1    1    2    0    0 -0.63386301028E+04  0.41338279508E+03 -0.13787248040E+04  0.65000000000E+04  0.10000000000E+01 0.  0.
    9000001    1    1    2    0    0  0.63386301028E+04 -0.41338279508E+03  0.13787248040E+04  0.65000000000E+04  0.10000000000E+01 0.  0.
</event>
<event>
 4    1  0.2191064E-006  0.1300000E+05  0.7957747E-01  0.1322471E+00
    9000001   -1    0    0    0    0  0.00000000000E+00  0.00000000000E+00  0.64999999231E+04  0.65000000000E+04  0.10000000000E+01 0.  0.
    9000001   -1    0    0    0    0 -0.00000000000E+00 -0.00000000000E+00 -0.64999999231E+04  0.65000000000E+04  0.10000000000E+01 0.  0.
    9000001    1    1    2    0    0 -0.54605910344E+04  0.33271530486E+04  0.11670463344E+04  0.65000000000E+04  0.10000000000E+01 0.  0.
    9000001    1    1    2    0    0  0.54605910344E+04 -0.33271530486E+04 -0.11670463344E+04  0.65000000000E+04  0.10000000000E+01 0.  0.
</event>
<event>
 4    1  0.2191064E-006  0.1300000E+05  0.7957747E-01  0.1322471E+00
    9000001   -1    0    0    0    0  0.00000000000E+00  0.00000000000E+00  0.64999999231E+04  0.65000000000E+04  0.10000000000E+01 0.  0.
    9000001   -1    0    0    0    0 -0.00000000000E+00 -0.00000000000E+00 -0.64999999231E+04  0.65000000000E+04  0.10000000000E+01 0.  0.
    9000001    1    1    2    0    0 -0.34730985645E+04  0.46929550280E+04 -0.28572291589E+04  0.65000000000E+04  0.10000000000E+01 0.  0.
    9000001    1    1    2    0    0  0.34730985645E+04 -0.46929550280E+04  0.28572291589E+04  0.65000000000E+04  0.10000000000E+01 0.  0.
</event>
<event>
 4    1  0.2191064E-006  0.1300000E+05  0.7957747E-01  0.1322471E+00
    9000001   -1    0    0    0    0  0.00000000000E+00  0.00000000000E+00  0.64999999231E+04  0.65000000000E+04  0.10000000000E+01 0.  0.
    9000001   -1    0    0    0    0 -0.00000000000E+00 -0.00000000000E+00 -0.64999999231E+04  0.65000000000E+04  0.10000000000E+01 0.  0.
    9000001    1    1    2    0    0 -0.54553658639E+04 -0.55779441524E+03  0.34896773034E+04  0.65000000000E+04  0.10000000000E+01 0.  0.
    9000001    1    1    2    0    0  0.54553658639E+04  0.55779441524E+03 -0.34896773034E+04  0.65000000000E+04  0.10000000000E+01 0.  0.
</event>
<event>
 4    1  0.2191064E-006  0.1300000E+05  0.7957747E-01  0.1322471E+00
    9000001   -1    0    0    0    0  0.00000000000E+00  0.00000000000E+00  0.64999999231E+04  0.65000000000E+04  0.10000000000E+01 0.  0.
    9000001   -1    0    0    0    0 -0.00000000000E+00 -0.00000000000E+00 -0.64999999231E+04  0.65000000000E+04  0.10000000000E+01 0.  0.
    9000001    1    1    2    0    0  0.12076331638E+04 -0.63096504764E+04 -0.98991515166E+03  0.65000000000E+04  0.10000000000E+01 0.  0.
    9000001    1    1    2    0    0 -0.12076331638E+04  0.63096504764E+04  0.98991515166E+03  0.65000000000E+04  0.10000000000E+01 0.  0.
</event>
<event>
 4    1  0.2191064E-006  0.1300000E+05  0.7957747E-01  0.1322471E+00
    9000001   -1    0    0    0    0  0.00000000000E+00  0.00000000000E+00  0.64999999231E+04  0.65000000000E+04  0.10000000000E+01 0.  0.
    9000001   -1    0    0    0    0 -0.00000000000E+00 -0.00000000000E+00 -0.64999999231E+04  0.65000000000E+04  0.10000000000E+01 0.  0.
    9000001    1    1    2    0    0 -0.28322343032E+04 -0.40678667735E+04 -0.42048671519E+04  0.65000000000E+04  0.10000000000E+01 0.  0.
    9000001    1    1    2    0    0  0.28322343032E+04  0.40678667735E+04  0.42048671519E+04  0.65000000000E+04  0.10000000000E+01 0.  0.
</event>
<event>
 4    1  0.2191064E-006  0.1300000E+05  0.7957747E-01  0.1322471E+00
    9000001   -1    0    0    0    0  0.00000000000E+00  0.00000000000E+00  0.64999999231E+04  0.65000000000E+04  0.10000000000E+01 0.  0.
    9000001   -1    0    0    0    0 -0.00000000000E+00 -0.00000000000E+00 -0.64999999231E+04  0.65000000000E+04  0.10000000000E+01 0.  0.
    9000001    1    1    2    0    0 -0.30217647359E+04 -0.31242291460E+04  0.48330248421E+04  0.65000000000E+04  0.10000000000E+01 0.  0.
    9000001    1    1    2    0    0  0.30217647359E+04  0.31242291460E+04 -0.48330248421E+04  0.65000000000E+04  0.10000000000E+01 0.  0.
</event>
<event>
 4    1  0.2191064E-006  0.1300000E+05  0.7957747E-01  0.1322471E+00
    9000001   -1    0    0    0    0  0.00000000000E+00  0.00000000000E+00  0.64999999231E+04  0.65000000000E+04  0.10000000000E+01 0.  0.
    9000001   -1    0    0    0    0 -0.00000000000E+00 -0.00000000000E+00 -0.64999999231E+04  0.65000000000E+04  0.10000000000E+01 0.  0.
    9000001    1    1    2    0    0 -0.56204454399E+04  0.23135331842E+04  0.23039436327E+04  0.65000000000E+04  0.10000000000E+01 0.  0.
    9000001    1    1    2    0    0  0.56204454399E+04 -0.23135331842E+04 -0.23039436327E+04  0.65000000000E+04  0.10000000000E+01 0.  0.
</event>
<event>
 4    1  0.2191064E-006  0.1300000E+05  0.7957747E-01  0.1322471E+00
    9000001   -1    0    0    0    0  0.00000000000E+00  0.00000000000E+00  0.64999999231E+04  0.65000000000E+04  0.10000000000E+01 0.  0.
    9000001   -1    0    0    0    0 -0.00000000000E+00 -0.00000000000E+00 -0.64999999231E+04  0.65000000000E+04  0.10000000000E+01 0.  0.
    9000001    1    1    2    0    0  0.38269165534E+03 -0.46184230750E+04 -0.45578190395E+04  0.65000000000E+04  0.10000000000E+01 0.  0.
    9000001    1    1    2    0    0 -0.38269165534E+03  0.46184230750E+04  0.45578190395E+04  0.65000000000E+04  0.10000000000E+01 0.  0.
</event>
<event>
 4    1  0.2191064E-006  0.1300000E+05  0.7957747E-01  0.1322471E+00
    9000001   -1    0    0    0    0  0.00000000000E+00  0.00000000000E+00  0.64999999231E+04  0.65000000000E+04  0.10000000000E+01 0.  0.
    9000001   -1    0    0    0    0 -0.00000000000E+00 -0.00000000000E+00 -0.64999999231E+04  0.65000000000E+04  0.10000000000E+01 0.  0.
    9000001    1    1    2    0    0  0.12994865436E+04  0.62493255510E+03  0.63380433120E+04  0.65000000000E+04  0.10000000000E+01 0.  0.
    9000001    1    1    2    0    0 -0.12994865436E+04 -0.62493255510E+03 -0.63380433120E+04  0.65000000000E+04  0.10000000000E+01 0.  0.
</event>
<event>
 4    1  0.2191064E-006  0.1300000E+05  0.7957747E-01  0.1322471E+00
    9000001   -1    0    0    0    0  0.00000000000E+00  0.00000000000E+00  0.64999999231E+04  0.65000000000E+04  0.10000000000E+01 0.  0.
    9000001   -1    0    0    0    0 -0.00000000000E+00 -0.00000000000E+00 -0.64999999231E+04  0.65000000000E+04  0.10000000000E+01 0.  0.
    9000001    1    1    2    0    0  0.18099275024E+04 -0.33081867478E+04  0.52943424405E+04  0.65000000000E+04  0.10000000000E+01 0.  0.
    9000001    1    1    2    0    0 -0.18099275024E+04  0.33081867478E+04 -0.52943424405E+04  0.65000000000E+04  0.10000000000E+01 0.  0.
</event>
<event>
 4    1  0.2191064E-006  0.1300000E+05  0.7957747E-01  0.1322471E+00
    9000001   -1    0    0    0    0  0.00000000000E+00  0.00000000000E+00  0.64999999231E+04  0.65000000000E+04  0.10000000000E+01 0.  0.
    9000001   -1    0    0    0    0 -0.00000000000E+00 -0.00000000000E+00 -0.64999999231E+04  0.65000000000E+04  0.10000000000E+01 0.  0.
    9000001    1    1    2    0    0  0.40152295120E+04  0.50805162657E+04 -0.56239260283E+03  0.65000000000E+04  0.10000000000E+01 0.  0.
    9000001    1    1    2    0    0 -0.40152295120E+04 -0.50805162657E+04  0.56239260283E+03  0.65000000000E+04  0.10000000000E+01 0.  0.
</event>
<event>
 4    1  0.2191064E-006  0.1300000E+05  0.7957747E-01  0.1322471E+00
    9000001   -1    0    0    0    0  0.00000000000E+00  0.00000000000E+00  0.64999999231E+04  0.65000000000E+04  0.10000000000E+01 0.  0.
    9000001   -1    0    0    0    0 -0.00000000000E+00 -0.00000000000E+00 -0.64999999231E+04  0.65000000000E+04  0.10000000000E+01 0.  0.
    9000001    1    1    2    0    0  0.36678391315E+04 -0.11164891655E+04 -0.52488481640E+04  0.65000000000E+04  0.10000000000E+01 0.  0.
    9000001    1    1    2    0    0 -0.36678391315E+04  0.11164891655E+04  0.52488481640E+04  0.65000000000E+04  0.10000000000E+01 0.  0.
</event>
<event>
 4    1  0.2191064E-006  0.1300000E+05  0.7957747E-01  0.1322471E+00
    9000001   -1    0    0    0    0  0.00000000000E+00  0.00000000000E+00  0.64999999231E+04  0.65000000000E+04  0.10000000000E+01 0.  0.
    9000001   -1    0    0    0    0 -0.00000000000E+00 -0.00000000000E+00 -0.64999999231E+04  0.65000000000E+04  0.10000000000E+01 0.  0.
    9000001    1    1    2    0    0  0.43087127091E+04  0.21269042628E+04 -0.43773590266E+04  0.65000000000E+04  0.10000000000E+01 0.  0.
    9000001    1    1    2    0    0 -0.43087127091E+04 -0.21269042628E+04  0.43773590266E+04  0.65000000000E+04  0.10000000000E+01 0.  0.
</event>
<event>
 4    1  0.2191064E-006  0.1300000E+05  0.7957747E-01  0.1322471E+00
    9000001   -1    0    0    0    0  0.00000000000E+00  0.00000000000E+00  0.64999999231E+04  0.65000000000E+04  0.10000000000E+01 0.  0.
    9000001   -1    0    0    0    0 -0.00000000000E+00 -0.00000000000E+00 -0.64999999231E+04  0.65000000000E+04  0.10000000000E+01 0.  0.
    9000001    1    1    2    0    0 -0.36190640285E+04  0.12213695847E+04  0.52593374959E+04  0.65000000000E+04  0.10000000000E+01 0.  0.
    9000001    1    1    2    0    0  0.36190640285E+04 -0.12213695847E+04 -0.52593374959E+04  0.65000000000E+04  0.10000000000E+01 0.  0.
</event>
<event>
 4    1  0.2191064E-006  0.1300000E+05  0.7957747E-01  0.1322471E+00
    9000001   -1    0    0    0    0  0.00000000000E+00  0.00000000000E+00  0.64999999231E+04  0.65000000000E+04  0.10000000000E+01 0.  0.
    9000001   -1    0    0    0    0 -0.00000000000E+00 -0.00000000000E+00 -0.64999999231E+04  0.65000000000E+04  0.10000000000E+01 0.  0.
    9000001    1    1    2    0    0  0.35035260110E+04  0.50529341323E+04  0.21078807236E+04  0.65000000000E+04  0.10000000000E+01 0.  0.
    9000001    1    1    2    0    0 -0.35035260110E+04 -0.50529341323E+04 -0.21078807236E+04  0.65000000000E+04  0.10000000000E+01 0.  0.
</event>
<event>
 4    1  0.2191064E-006  0.1300000E+05  0.7957747E-01  0.1322471E+00
    9000001   -1    0    0    0    0  0.00000000000E+00  0.00000000000E+00  0.64999999231E+04  0.65000000000E+04  0.10000000000E+01 0.  0.
    9000001   -1    0    0    0    0 -0.00000000000E+00 -0.00000000000E+00 -0.64999999231E+04  0.65000000000E+04  0.10000000000E+01 0.  0.
    9000001    1    1    2    0    0 -0.34291094724E+04  0.29075183878E+04  0.46944162631E+04  0.65000000000E+04  0.10000000000E+01 0.  0.
    9000001    1    1    2    0    0  0.34291094724E+04 -0.29075183878E+04 -0.46944162631E+04  0.65000000000E+04  0.10000000000E+01 0.  0.
</event>
<event>
 4    1  0.2191064E-006  0.1300000E+05  0.7957747E-01  0.1322471E+00
    9000001   -1    0    0    0    0  0.00000000000E+00  0.00000000000E+00  0.64999999231E+04  0.65000000000E+04  0.10000000000E+01 0.  0.
    9000001   -1    0    0    0    0 -0.00000000000E+00 -0.00000000000E+00 -0.64999999231E+04  0.65000000000E+04  0.10000000000E+01 0.  0.
    9000001    1    1    2    0    0 -0.11818522876E+04  0.59782810475E+04  0.22612783745E+04  0.65000000000E+04  0.10000000000E+01 0.  0.
    9000001    1    1    2    0    0  0.11818522876E+04 -0.59782810475E+04 -0.22612783745E+04  0.65000000000E+04  0.10000000000E+01 0.  0.
</event>
<event>
 4    1  0.2191064E-006  0.1300000E+05  0.7957747E-01  0.1322471E+00
    9000001   -1    0    0    0    0  0.00000000000E+00  0.00000000000E+00  0.64999999231E+04  0.65000000000E+04  0.10000000000E+01 0.  0.
    9000001   -1    0    0    0    0 -0.00000000000E+00 -0.00000000000E+00 -0.64999999231E+04  0.65000000000E+04  0.10000000000E+01 0.  0.
    9000001    1    1    2    0    0  0.34363333303E+04 -0.55129708125E+04 -0.22082813241E+03  0.65000000000E+04  0.10000000000E+01 0.  0.
    9000001    1    1    2    0    0 -0.34363333303E+04  0.55129708125E+04  0.22082813241E+03  0.65000000000E+04  0.10000000000E+01 0.  0.
</event>
<event>
 4    1  0.2191064E-006  0.1300000E+05  0.7957747E-01  0.1322471E+00
    9000001   -1    0    0    0    0  0.00000000000E+00  0.00000000000E+00  0.64999999231E+04  0.65000000000E+04  0.10000000000E+01 0.  0.
    9000001   -1    0    0    0    0 -0.00000000000E+00 -0.00000000000E+00 -0.64999999231E+04  0.65000000000E+04  0.10000000000E+01 0.  0.
    9000001    1    1    2    0    0  0.32414858456E+04 -0.24307799616E+04  0.50827234128E+04  0.65000000000E+04  0.10000000000E+01 0.  0.
    9000001    1    1    2    0    0 -0.32414858456E+04  0.24307799616E+04 -0.50827234128E+04  0.65000000000E+04  0.10000000000E+01 0.  0.
</event>
<event>
 4    1  0.2191064E-006  0.1300000E+05  0.7957747E-01  0.1322471E+00
    9000001   -1    0    0    0    0  0.00000000000E+00  0.00000000000E+00  0.64999999231E+04  0.65000000000E+04  0.10000000000E+01 0.  0.
    9000001   -1    0    0    0    0 -0.00000000000E+00 -0.00000000000E+00 -0.64999999231E+04  0.65000000000E+04  0.10000000000E+01 0.  0.
    9000001    1    1    2    0    0  0.25226499216E+04  0.39787546881E+04 -0.44783643783E+04  0.65000000000E+04  0.10000000000E+01 0.  0.
    9000001    1    1    2    0    0 -0.25226499216E+04 -0.39787546881E+04  0.44783643783E+04  0.65000000000E+04  0.10000000000E+01 0.  0.
</event>
<event>
 4    1  0.2191064E-006  0.1300000E+05  0.7957747E-01  0.1322471E+00
    9000001   -1    0    0    0    0  0.00000000000E+00  0.00000000000E+00  0.64999999231E+04  0.65000000000E+04  0.10000000000E+01 0.  0.
    9000001   -1    0    0    0    0 -0.00000000000E+00 -0.00000000000E+00 -0.64999999231E+04  0.65000000000E+04  0.10000000000E+01 0.  0.
    9000001    1    1    2    0    0 -0.25610297900E+04 -0.49180345640E+04  0.33917637657E+04  0.65000000000E+04  0.10000000000E+01 0.  0.
    9000001    1    1    2    0    0  0.25610297900E+04  0.49180345640E+04 -0.33917637657E+04  0.65000000000E+04  0.10000000000E+01 0.  0.
</event>
<event>
 4    1  0.2191064E-006  0.1300000E+05  0.7957747E-01  0.1322471E+00
    9000001   -1    0    0    0    0  0.00000000000E+00  0.00000000000E+00  0.64999999231E+04  0.65000000000E+04  0.10000000000E+01 0.  0.
    9000001   -1    0    0    0    0 -0.00000000000E+00 -0.00000000000E+00 -0.64999999231E+04  0.65000000000E+04  0.10000000000E+01 0.  0.
    9000001    1    1    2    0    0 -0.37744009242E+04 -0.11763865084E+04  0.51594584451E+04  0.65000000000E+04  0.10000000000E+01 0.  0.
    9000001    1    1    2    0    0  0.37744009242E+04  0.11763865084E+04 -0.51594584451E+04  0.65000000000E+04  0.10000000000E+01 0.  0.
</event>
<event>
 4    1  0.2191064E-006  0.1300000E+05  0.7957747E-01  0.1322471E+00
    9000001   -1    0    0    0    0  0.00000000000E+00  0.00000000000E+00  0.64999999231E+04  0.65000000000E+04  0.10000000000E+01 0.  0.
    9000001   -1    0    0    0    0 -0.00000000000E+00 -0.00000000000E+00 -0.64999999231E+04  0.65000000000E+04  0.10000000000E+01 0.  0.
    9000001    1    1    2    0    0 -0.27001870352E+04 -0.43972159168E+04 -0.39526549503E+04  0.65000000000E+04  0.10000000000E+01 0.  0.
    9000001    1    1    2    0    0  0.27001870352E+04  0.43972159168E+04  0.39526549503E+04  0.65000000000E+04  0.10000000000E+01 0.  0.
</event>
<event>
 4    1  0.2191064E-006  0.1300000E+05  0.7957747E-01  0.1322471E+00
    9000001   -1    0    0    0    0  0.00000000000E+00  0.00000000000E+00  0.64999999231E+04  0.65000000000E+04  0.10000000000E+01 0.  0.
    9000001   -1    0    0    0    0 -0.00000000000E+00 -0.00000000000E+00 -0.64999999231E+04  0.65000000000E+04  0.10000000000E+01 0.  0.
    9000001    1    1    2    0    0 -0.22471230088E+04 -0.39829897418E+03 -0.60861970976E+04  0.65000000000E+04  0.10000000000E+01 0.  0.
    9000001    1    1    2    0    0  0.22471230088E+04  0.39829897418E+03  0.60861970976E+04  0.65000000000E+04  0.10000000000E+01 0.  0.
</event>
<event>
 4    1  0.2191064E-006  0.1300000E+05  0.7957747E-01  0.1322471E+00
    9000001   -1    0    0    0    0  0.00000000000E+00  0.00000000000E+00  0.64999999231E+04  0.65000000000E+04  0.10000000000E+01 0.  0.
    9000001   -1    0    0    0    0 -0.00000000000E+00 -0.00000000000E+00 -0.64999999231E+04  0.65000000000E+04  0.10000000000E+01 0.  0.
    9000001    1    1    2    0    0  0.51425220487E+04 -0.17377642303E+04  0.35755616983E+04  0.65000000000E+04  0.10000000000E+01 0.  0.
    9000001    1    1    2    0    0 -0.51425220487E+04  0.17377642303E+04 -0.35755616983E+04  0.65000000000E+04  0.10000000000E+01 0.  0.
</event>
<event>
 4    1  0.2191064E-006  0.1300000E+05  0.7957747E-01  0.1322471E+00
    9000001   -1    0    0    0    0  0.00000000000E+00  0.00000000000E+00  0.64999999231E+04  0.65000000000E+04  0.10000000000E+01 0.  0.
    9000001   -1    0    0    0    0 -0.00000000000E+00 -0.00000000000E+00 -0.64999999231E+04  0.65000000000E+04  0.10000000000E+01 0.  0.
    9000001    1    1    2    0    0 -0.57656988777E+04 -0.11644843415E+04  0.27659883713E+04  0.65000000000E+04  0.10000000000E+01 0.  0.
    9000001    1    1    2    0    0  0.57656988777E+04  0.11644843415E+04 -0.27659883713E+04  0.65000000000E+04  0.10000000000E+01 0.  0.
</event>
<event>
 4    1  0.2191064E-006  0.1300000E+05  0.7957747E-01  0.1322471E+00
    9000001   -1    0    0    0    0  0.00000000000E+00  0.00000000000E+00  0.64999999231E+04  0.65000000000E+04  0.10000000000E+01 0.  0.
    9000001   -1    0    0    0    0 -0.00000000000E+00 -0.00000000000E+00 -0.64999999231E+04  0.65000000000E+04  0.10000000000E+01 0.  0.
    9000001    1    1    2    0    0 -0.51295581852E+04  0.22316742027E+03 -0.39859538542E+04  0.65000000000E+04  0.10000000000E+01 0.  0.
    9000001    1    1    2    0    0  0.51295581852E+04 -0.22316742027E+03  0.39859538542E+04  0.65000000000E+04  0.10000000000E+01 0.  0.
</event>
<event>
 4    1  0.2191064E-006  0.1300000E+05  0.7957747E-01  0.1322471E+00
    9000001   -1    0    0    0    0  0.00000000000E+00  0.00000000000E+00  0.64999999231E+04  0.65000000000E+04  0.10000000000E+01 0.  0.
    9000001   -1    0    0    0    0 -0.00000000000E+00 -0.00000000000E+00 -0.64999999231E+04  0.65000000000E+04  0.10000000000E+01 0.  0.
    9000001    1    1    2    0    0 -0.26274813845E+04  0.28795908506E+04 -0.52013745402E+04  0.65000000000E+04  0.10000000000E+01 0.  0.
    9000001    1    1    2    0    0  0.26274813845E+04 -0.28795908506E+04  0.52013745402E+04  0.65000000000E+04  0.10000000000E+01 0.  0.
</event>
<event>
 4    1  0.2191064E-006  0.1300000E+05  0.7957747E-01  0.1322471E+00
    9000001   -1    0    0    0    0  0.00000000000E+00  0.00000000000E+00  0.64999999231E+04  0.65000000000E+04  0.10000000000E+01 0.  0.
    9000001   -1    0    0    0    0 -0.00000000000E+00 -0.00000000000E+00 -0.64999999231E+04  0.65000000000E+04  0.10000000000E+01 0.  0.
    9000001    1    1    2    0    0  0.29828453541E+04  0.42611012364E+04  0.38981596743E+04  0.65000000000E+04  0.10000000000E+01 0.  0.
    9000001    1    1    2    0    0 -0.29828453541E+04 -0.42611012364E+04 -0.38981596743E+04  0.65000000000E+04  0.10000000000E+01 0.  0.
</event>
<event>
 4    1  0.2191064E-006  0.1300000E+05  0.7957747E-01  0.1322471E+00
    9000001   -1    0    0    0    0  0.00000000000E+00  0.00000000000E+00  0.64999999231E+04  0.65000000000E+04  0.10000000000E+01 0.  0.
    9000001   -1    0    0    0    0 -0.00000000000E+00 -0.00000000000E+00 -0.64999999231E+04  0.65000000000E+04  0.10000000000E+01 0.  0.
    9000001    1    1    2    0    0  0.40696004745E+04 -0.42812197147E+02 -0.50681868645E+04  0.65000000000E+04  0.10000000000E+01 0.  0.
    9000001    1    1    2    0    0 -0.40696004745E+04  0.42812197147E+02  0.50681868645E+04  0.65000000000E+04  0.10000000000E+01 0.  0.
</event>
<event>
 4    1  0.2191064E-006  0.1300000E+05  0.7957747E-01  0.1322471E+00
    9000001   -1    0    0    0    0  0.00000000000E+00  0.00000000000E+00  0.64999999231E+04  0.65000000000E+04  0.10000000000E+01 0.  0.
    9000001   -1    0    0    0    0 -0.00000000000E+00 -0.00000000000E+00 -0.64999999231E+04  0.65000000000E+04  0.10000000000E+01 0.  0.
    9000001    1    1    2    0    0 -0.39921927678E+04 -0.58091680375E+03 -0.50965607592E+04  0.65000000000E+04  0.10000000000E+01 0.  0.
    9000001    1    1    2    0    0  0.39921927678E+04  0.58091680375E+03  0.50965607592E+04  0.65000000000E+04  0.10000000000E+01 0.  0.
</event>
<event>
 4    1  0.2191064E-006  0.1300000E+05  0.7957747E-01  0.1322471E+00
    9000001   -1    0    0    0    0  0.00000000000E+00  0.00000000000E+00  0.64999999231E+04  0.65000000000E+04  0.10000000000E+01 0.  0.
    9000001   -1    0    0    0    0 -0.00000000000E+00 -0.00000000000E+00 -0.64999999231E+04  0.65000000000E+04  0.10000000000E+01 0.  0.
    9000001    1    1    2    0    0 -0.24664995491E+04  0.79355629406E+03  0.59612622307E+04  0.65000000000E+04  0.10000000000E+01 0.  0.
    9000001    1    1    2    0    0  0.24664995491E+04 -0.79355629406E+03 -0.59612622307E+04  0.65000000000E+04  0.10000000000E+01 0.  0.
</event>
<event>
 4    1  0.2191064E-006  0.1300000E+05  0.7957747E-01  0.1322471E+00
    9000001   -1    0    0    0    0  0.00000000000E+00  0.00000000000E+00  0.64999999231E+04  0.65000000000E+04  0.10000000000E+01 0.  0.
    9000001   -1    0    0    0    0 -0.00000000000E+00 -0.00000000000E+00 -0.64999999231E+04  0.65000000000E+04  0.10000000000E+01 0.  0.
    9000001    1    1    2    0    0  0.62493853730E+04  0.82850986840E+02 -0.17855859469E+04  0.65000000000E+04  0.10000000000E+01 0.  0.
    9000001    1    1    2    0    0 -0.62493853730E+04 -0.82850986840E+02  0.17855859469E+04  0.65000000000E+04  0.10000000000E+01 0.  0.
</event>
<event>
 4    1  0.2191064E-006  0.1300000E+05  0.7957747E-01  0.1322471E+00
    9000001   -1    0    0    0    0  0.00000000000E+00  0.00000000000E+00  0.64999999231E+04  0.65000000000E+04  0.10000000000E+01 0.  0.
    9000001   -1    0    0    0    0 -0.00000000000E+00 -0.00000000000E+00 -0.64999999231E+04  0.65000000000E+04  0.10000000000E+01 0.  0.
    9000001    1    1    2    0    0  0.43765162755E+03 -0.40638889331E+04 -0.50540347043E+04  0.65000000000E+04  0.10000000000E+01 0.  0.
    9000001    1    1    2    0    0 -0.43765162755E+03  0.40638889331E+04  0.50540347043E+04  0.65000000000E+04  0.10000000000E+01 0.  0.
</event>
<event>
 4    1  0.2191064E-006  0.1300000E+05  0.7957747E-01  0.1322471E+00
    9000001   -1    0    0    0    0  0.00000000000E+00  0.00000000000E+00  0.64999999231E+04  0.65000000000E+04  0.10000000000E+01 0.  0.
    9000001   -1    0    0    0    0 -0.00000000000E+00 -0.00000000000E+00 -0.64999999231E+04  0.65000000000E+04  0.10000000000E+01 0.  0.
    9000001    1    1    2    0    0 -0.50109726561E+04 -0.38669998350E+04  0.14786697792E+04  0.65000000000E+04  0.10000000000E+01 0.  0.
    9000001    1    1    2    0    0  0.50109726561E+04  0.38669998350E+04 -0.14786697792E+04  0.65000000000E+04  0.10000000000E+01 0.  0.
</event>
<event>
 4    1  0.2191064E-006  0.1300000E+05  0.7957747E-01  0.1322471E+00
    9000001   -1    0    0    0    0  0.00000000000E+00  0.00000000000E+00  0.64999999231E+04  0.65000000000E+04  0.10000000000E+01 0.  0.
    9000001   -1    0    0    0    0 -0.00000000000E+00 -0.00000000000E+00 -0.64999999231E+04  0.65000000000E+04  0.10000000000E+01 0.  0.
    9000001    1    1    2    0    0 -0.60846599085E+03  0.59677404411E+04  0.25031664278E+04  0.65000000000E+04  0.10000000000E+01 0.  0.
    9000001    1    1    2    0    0  0.60846599085E+03 -0.59677404411E+04 -0.25031664278E+04  0.65000000000E+04  0.10000000000E+01 0.  0.
</event>
<event>
 4    1  0.2191064E-006  0.1300000E+05  0.7957747E-01  0.1322471E+00
    9000001   -1    0    0    0    0  0.00000000000E+00  0.00000000000E+00  0.64999999231E+04  0.65000000000E+04  0.10000000000E+01 0.  0.
    9000001   -1    0    0    0    0 -0.00000000000E+00 -0.00000000000E+00 -0.64999999231E+04  0.65000000000E+04  0.10000000000E+01 0.  0.
    9000001    1    1    2    0    0  0.15470052514E+04  0.46870035992E+04  0.42295119120E+04  0.65000000000E+04  0.10000000000E+01 0.  0.
    9000001    1    1    2    0    0 -0.15470052514E+04 -0.46870035992E+04 -0.42295119120E+04  0.65000000000E+04  0.10000000000E+01 0.  0.
</event>
<event>
 4    1  0.2191064E-006  0.1300000E+05  0.7957747E-01  0.1322471E+00
    9000001   -1    0    0    0    0  0.00000000000E+00  0.00000000000E+00  0.64999999231E+04  0.65000000000E+04  0.10000000000E+01 0.  0.
    9000001   -1    0    0    0    0 -0.00000000000E+00 -0.00000000000E+00 -0.64999999231E+04  0.65000000000E+04  0.10000000000E+01 0.  0.
    9000001    1    1    2    0    0  0.50555385971E+04  0.32866052864E+04  0.24268815761E+04  0.65000000000E+04  0.10000000000E+01 0.  0.
    9000001    1    1    2    0    0 -0.50555385971E+04 -0.32866052864E+04 -0.24268815761E+04  0.65000000000E+04  0.10000000000E+01 0.  0.
</event>
<event>
 4    1  0.2191064E-006  0.1300000E+05  0.7957747E-01  0.1322471E+00
    9000001   -1    0    0    0    0  0.00000000000E+00  0.00000000000E+00  0.64999999231E+04  0.65000000000E+04  0.10000000000E+01 0.  0.
    9000001   -1    0    0    0    0 -0.00000000000E+00 -0.00000000000E+00 -0.64999999231E+04  0.65000000000E+04  0.10000000000E+01 0.  0.
    9000001    1    1    2    0    0 -0.27654453067E+04  0.58769899530E+04 -0.25159560429E+03  0.65000000000E+04  0.10000000000E+01 0.  0.
    9000001    1    1    2    0    0  0.27654453067E+04 -0.58769899530E+04  0.25159560429E+03  0.65000000000E+04  0.10000000000E+01 0.  0.
</event>
<event>
 4    1  0.2191064E-006  0.1300000E+05  0.7957747E-01  0.1322471E+00
    9000001   -1    0    0    0    0  0.00000000000E+00  0.00000000000E+00  0.64999999231E+04  0.65000000000E+04  0.10000000000E+01 0.  0.
    9000001   -1    0    0    0    0 -0.00000000000E+00 -0.00000000000E+00 -0.64999999231E+04  0.65000000000E+04  0.10000000000E+01 0.  0.
    9000001    1    1    2    0    0 -0.94903032860E+03 -0.48149025036E+04  0.42621654491E+04  0.65000000000E+04  0.10000000000E+01 0.  0.
    9000001    1    1    2    0    0  0.94903032860E+03  0.48149025036E+04 -0.42621654491E+04  0.65000000000E+04  0.10000000000E+01 0.  0.
</event>
<event>
 4    1  0.2191064E-006  0.1300000E+05  0.7957747E-01  0.1322471E+00
    9000001   -1    0    0    0    0  0.00000000000E+00  0.00000000000E+00  0.64999999231E+04  0.65000000000E+04  0.10000000000E+01 0.  0.
    9000001   -1    0    0    0    0 -0.00000000000E+00 -0.00000000000E+00 -0.64999999231E+04  0.65000000000E+04  0.10000000000E+01 0.  0.
    9000001    1    1    2    0    0  0.64445637791E+02 -0.63847980141E+04 -0.12166347352E+04  0.65000000000E+04  0.10000000000E+01 0.  0.
    9000001    1    1    2    0    0 -0.64445637791E+02  0.63847980141E+04  0.12166347352E+04  0.65000000000E+04  0.10000000000E+01 0.  0.
</event>
<event>
 4    1  0.2191064E-006  0.1300000E+05  0.7957747E-01  0.1322471E+00
    9000001   -1    0    0    0    0  0.00000000000E+00  0.00000000000E+00  0.64999999231E+04  0.65000000000E+04  0.10000000000E+01 0.  0.
    9000001   -1    0    0    0    0 -0.00000000000E+00 -0.00000000000E+00 -0.64999999231E+04  0.65000000000E+04  0.10000000000E+01 0.  0.
    9000001    1    1    2    0    0 -0.59179650348E+04  0.44343422725E+02 -0.26880704060E+04  0.65000000000E+04  0.10000000000E+01 0.  0.
    9000001    1    1    2    0    0  0.59179650348E+04 -0.44343422725E+02  0.26880704060E+04  0.65000000000E+04  0.10000000000E+01 0.  0.
</event>
<event>
 4    1  0.2191064E-006  0.1300000E+05  0.7957747E-01  0.1322471E+00
    9000001   -1    0    0    0    0  0.00000000000E+00  0.00000000000E+00  0.64999999231E+04  0.65000000000E+04  0.10000000000E+01 0.  0.
    9000001   -1    0    0    0    0 -0.00000000000E+00 -0.00000000000E+00 -0.64999999231E+04  0.65000000000E+04  0.10000000000E+01 0.  0.
    9000001    1    1    2    0    0 -0.61251410284E+04  0.12724050687E+04 -0.17645485891E+04  0.65000000000E+04  0.10000000000E+01 0.  0.
    9000001    1    1    2    0    0  0.61251410284E+04 -0.12724050687E+04  0.17645485891E+04  0.65000000000E+04  0.10000000000E+01 0.  0.
</event>
<event>
 4    1  0.2191064E-006  0.1300000E+05  0.7957747E-01  0.1322471E+00
    9000001   -1    0    0    0    0  0.00000000000E+00  0.00000000000E+00  0.64999999231E+04  0.65000000000E+04  0.10000000000E+01 0.  0.
    9000001   -1    0    0    0    0 -0.00000000000E+00 -0.00000000000E+00 -0.64999999231E+04  0.65000000000E+04  0.10000000000E+01 0.  0.
    9000001    1    1    2    0    0  0.53999026031E+04  0.33763098460E+04 -0.13006085887E+04  0.65000000000E+04  0.10000000000E+01 0.  0.
    9000001    1    1    2    0    0 -0.53999026031E+04 -0.33763098460E+04  0.13006085887E+04  0.65000000000E+04  0.10000000000E+01 0.  0.
</event>
<event>
 4    1  0.2191064E-006  0.1300000E+05  0.7957747E-01  0.1322471E+00
    9000001   -1    0    0    0    0  0.00000000000E+00  0.00000000000E+00  0.64999999231E+04  0.65000000000E+04  0.10000000000E+01 0.  0.
    9000001   -1    0    0    0    0 -0.00000000000E+00 -0.00000000000E+00 -0.64999999231E+04  0.65000000000E+04  0.10000000000E+01 0.  0.
    9000001    1    1    2    0    0  0.55396081373E+04  0.28558489751E+04 -0.18457701149E+04  0.65000000000E+04  0.10000000000E+01 0.  0.
    9000001    1    1    2    0    0 -0.55396081373E+04 -0.28558489751E+04  0.18457701149E+04  0.65000000000E+04  0.10000000000E+01 0.  0.
</event>
<event>
 4    1  0.2191064E-006  0.1300000E+05  0.7957747E-01  0.1322471E+00
    9000001   -1    0    0    0    0  0.00000000000E+00  0.00000000000E+00  0.64999999231E+04  0.65000000000E+04  0.10000000000E+01 0.  0.
    9000001   -1    0    0    0    0 -0.00000000000E+00 -0.00000000000E+00 -0.64999999231E+04  0.65000000000E+04  0.10000000000E+01 0.  0.
    9000001    1    1    2    0    0 -0.40296598861E+04  0.60674726596E+03  0.50639606986E+04  0.65000000000E+04  0.10000000000E+01 0.  0.
    9000001    1    1    2    0    0  0.40296598861E+04 -0.60674726596E+03 -0.50639606986E+04  0.65000000000E+04  0.10000000000E+01 0.  0.
</event>
<event>
 4    1  0.2191064E-006  0.1300000E+05  0.7957747E-01  0.1322471E+00
    9000001   -1    0    0    0    0  0.00000000000E+00  0.00000000000E+00  0.64999999231E+04  0.65000000000E+04  0.10000000000E+01 0.  0.
    9000001   -1    0    0    0    0 -0.00000000000E+00 -0.00000000000E+00 -0.64999999231E+04  0.65000000000E+04  0.10000000000E+01 0.  0.
    9000001    1    1    2    0    0  0.28909668387E+04 -0.18922517194E+04 -0.55056056132E+04  0.65000000000E+04  0.10000000000E+01 0.  0.
    9000001    1    1    2    0    0 -0.28909668387E+04  0.18922517194E+04  0.55056056132E+04  0.65000000000E+04  0.10000000000E+01 0.  0.
</event>
<event>
 4    1  0.2191064E-006  0.1300000E+05  0.7957747E-01  0.1322471E+00
    9000001   -1    0    0    0    0  0.00000000000E+00  0.00000000000E+00  0.64999999231E+04  0.65000000000E+04  0.10000000000E+01 0.  0.
    9000001   -1    0    0    0    0 -0.00000000000E+00 -0.00000000000E+00 -0.64999999231E+04  0.65000000000E+04  0.10000000000E+01 0.  0.
    9000001    1    1    2    0    0 -0.40046150561E+04  0.48365753947E+04  0.16794629213E+04  0.65000000000E+04  0.10000000000E+01 0.  0.
    9000001    1    1    2    0    0  0.40046150561E+04 -0.48365753947E+04 -0.16794629213E+04  0.65000000000E+04  0.10000000000E+01 0.  0.
</event>
<event>
 4    1  0.2191064E-006  0.1300000E+05  0.7957747E-01  0.1322471E+00
    9000001   -1    0    0    0    0  0.00000000000E+00  0.00000000000E+00  0.64999999231E+04  0.65000000000E+04  0.10000000000E+01 0.  0.
    9000001   -1    0    0    0    0 -0.00000000000E+00 -0.00000000000E+00 -0.64999999231E+04  0.65000000000E+04  0.10000000000E+01 0.  0.
    9000001    1    1    2    0    0  0.38978374756E+04  0.14793427610E+04  0.49868233384E+04  0.65000000000E+04  0.10000000000E+01 0.  0.
    9000001    1    1    2    0    0 -0.38978374756E+04 -0.14793427610E+04 -0.49868233384E+04  0.65000000000E+04  0.10000000000E+01 0.  0.
</event>
<event>
 4    1  0.2191064E-006  0.1300000E+05  0.7957747E-01  0.1322471E+00
    9000001   -1    0    0    0    0  0.00000000000E+00  0.00000000000E+00  0.64999999231E+04  0.65000000000E+04  0.10000000000E+01 0.  0.
    9000001   -1    0    0    0    0 -0.00000000000E+00 -0.00000000000E+00 -0.64999999231E+04  0.65000000000E+04  0.10000000000E+01 0.  0.
    9000001    1    1    2    0    0 -0.53776670344E+04 -0.21107447992E+04  0.29791697938E+04  0.65000000000E+04  0.10000000000E+01 0.  0.
    9000001    1    1    2    0    0  0.53776670344E+04  0.21107447992E+04 -0.29791697938E+04  0.65000000000E+04  0.10000000000E+01 0.  0.
</event>
<event>
 4    1  0.2191064E-006  0.1300000E+05  0.7957747E-01  0.1322471E+00
    9000001   -1    0    0    0    0  0.00000000000E+00  0.00000000000E+00  0.64999999231E+04  0.65000000000E+04  0.10000000000E+01 0.  0.
    9000001   -1    0    0    0    0 -0.00000000000E+00 -0.00000000000E+00 -0.64999999231E+04  0.65000000000E+04  0.10000000000E+01 0.  0.
    9000001    1    1    2    0    0  0.19422188013E+04  0.22374372885E+04  0.57854696878E+04  0.65000000000E+04  0.10000000000E+01 0.  0.
    9000001    1    1    2    0    0 -0.19422188013E+04 -0.22374372885E+04 -0.57854696878E+04  0.65000000000E+04  0.10000000000E+01 0.  0.
</event>
<event>
 4    1  0.2191064E-006  0.1300000E+05  0.7957747E-01  0.1322471E+00
    9000001   -1    0    0    0    0  0.00000000000E+00  0.00000000000E+00  0.64999999231E+04  0.65000000000E+04  0.10000000000E+01 0.  0.
    9000001   -1    0    0    0    0 -0.00000000000E+00 -0.00000000000E+00 -0.64999999231E+04  0.65000000000E+04  0.10000000000E+01 0.  0.
    9000001    1    1    2    0    0  0.33069022294E+04 -0.54963290023E+04 -0.10510776108E+04  0.65000000000E+04  0.10000000000E+01 0.  0.
    9000001    1    1    2    0    0 -0.33069022294E+04  0.54963290023E+04  0.10510776108E+04  0.65000000000E+04  0.10000000000E+01 0.  0.
</event>
<event>
 4    1  0.2191064E-006  0.1300000E+05  0.7957747E-01  0.1322471E+00
    9000001   -1    0    0    0    0  0.00000000000E+00  0.00000000000E+00  0.64999999231E+04  0.65000000000E+04  0.10000000000E+01 0.  0.
    9000001   -1    0    0    0    0 -0.00000000000E+00 -0.00000000000E+00 -0.64999999231E+04  0.65000000000E+04  0.10000000000E+01 0.  0.
    9000001    1    1    2    0    0  0.64748521536E+04 -0.39694766215E+03 -0.41075679215E+03  0.65000000000E+04  0.10000000000E+01 0.  0.
    9000001    1    1    2    0    0 -0.64748521536E+04  0.39694766215E+03  0.41075679215E+03  0.65000000000E+04  0.10000000000E+01 0.  0.
</event>
<event>
 4    1  0.2191064E-006  0.1300000E+05  0.7957747E-01  0.1322471E+00
    9000001   -1    0    0    0    0  0.00000000000E+00  0.00000000000E+00  0.64999999231E+04  0.65000000000E+04  0.10000000000E+01 0.  0.
    9000001   -1    0    0    0    0 -0.00000000000E+00 -0.00000000000E+00 -0.64999999231E+04  0.65000000000E+04  0.10000000000E+01 0.  0.
    9000001    1    1    2    0    0  0.18631931052E+04  0.11117094572E+04 -0.61272026681E+04  0.65000000000E+04  0.10000000000E+01 0.  0.
    9000001    1    1    2    0    0 -0.18631931052E+04 -0.11117094572E+04  0.61272026681E+04  0.65000000000E+04  0.10000000000E+01 0.  0.
</event>
<event>
 4    1  0.2191064E-006  0.1300000E+05  0.7957747E-01  0.1322471E+00
    9000001   -1    0    0    0    0  0.00000000000E+00  0.00000000000E+00  0.64999999231E+04  0.65000000000E+04  0.10000000000E+01 0.  0.
    9000001   -1    0    0    0    0 -0.00000000000E+00 -0.00000000000E+00 -0.64999999231E+04  0.65000000000E+04  0.10000000000E+01 0.  0.
    9000001    1    1    2    0    0  0.49795647872E+04  0.39387695435E+04  0.13928488836E+04  0.65000000000E+04  0.10000000000E+01 0.  0.
    9000001    1    1    2    0    0 -0.49795647872E+04 -0.39387695435E+04 -0.13928488836E+04  0.65000000000E+04  0.10000000000E+01 0.  0.
</event>
<event>
 4    1  0.2191064E-006  0.1300000E+05  0.7957747E-01  0.1322471E+00
    9000001   -1    0    0    0    0  0.00000000000E+00  0.00000000000E+00  0.64999999231E+04  0.65000000000E+04  0.10000000000E+01 0.  0.
    9000001   -1    0    0    0    0 -0.00000000000E+00 -0.00000000000E+00 -0.64999999231E+04  0.65000000000E+04  0.10000000000E+01 0.  0.
    9000001    1    1    2    0    0  0.24456135066E+04  0.26628833319E+04 -0.54016688104E+04  0.65000000000E+04  0.10000000000E+01 0.  0.
    9000001    1    1    2    0    0 -0.24456135066E+04 -0.26628833319E+04  0.54016688104E+04  0.65000000000E+04  0.10000000000E+01 0.  0.
</event>
<event>
 4    1  0.2191064E-006  0.1300000E+05  0.7957747E-01  0.1322471E+00
    9000001   -1    0    0    0    0  0.00000000000E+00  0.00000000000E+00  0.64999999231E+04  0.65000000000E+04  0.10000000000E+01 0.  0.
    9000001   -1    0    0    0    0 -0.00000000000E+00 -0.00000000000E+00 -0.64999999231E+04  0.65000000000E+04  0.10000000000E+01 0.  0.
    9000001    1    1    2    0    0 -0.27687993368E+04 -0.39406001066E+04 -0.43652514283E+04  0.65000000000E+04  0.10000000000E+01 0.  0.
    9000001    1    1    2    0    0  0.27687993368E+04  0.39406001066E+04  0.43652514283E+04  0.65000000000E+04  0.10000000000E+01 0.  0.
</event>
<event>
 4    1  0.2191064E-006  0.1300000E+05  0.7957747E-01  0.1322471E+00
    9000001   -1    0    0    0    0  0.00000000000E+00  0.00000000000E+00  0.64999999231E+04  0.65000000000E+04  0.10000000000E+01 0.  0.
    9000001   -1    0    0    0    0 -0.00000000000E+00 -0.00000000000E+00 -0.64999999231E+04  0.65000000000E+04  0.10000000000E+01 0.  0.
    9000001    1    1    2    0    0 -0.40183260968E+04  0.72624654198E+02 -0.51085986376E+04  0.65000000000E+04  0.10000000000E+01 0.  0.
    9000001    1    1    2    0    0  0.40183260968E+04 -0.72624654198E+02  0.51085986376E+04  0.65000000000E+04  0.10000000000E+01 0.  0.
</event>
<event>
 4    1  0.2191064E-006  0.1300000E+05  0.7957747E-01  0.1322471E+00
    9000001   -1    0    0    0    0  0.00000000000E+00  0.00000000000E+00  0.64999999231E+04  0.65000000000E+04  0.10000000000E+01 0.  0.
    9000001   -1    0    0    0    0 -0.00000000000E+00 -0.00000000000E+00 -0.64999999231E+04  0.65000000000E+04  0.10000000000E+01 0.  0.
    9000001    1    1    2    0    0  0.51488259003E+04 -0.89024310309E+03  0.38661425305E+04  0.65000000000E+04  0.10000000000E+01 0.  0.
    9000001    1    1    2    0    0 -0.51488259003E+04  0.89024310309E+03 -0.38661425305E+04  0.65000000000E+04  0.10000000000E+01 0.  0.
</event>
<event>
 4    1  0.2191064E-006  0.1300000E+05  0.7957747E-01  0.1322471E+00
    9000001   -1    0    0    0    0  0.00000000000E+00  0.00000000000E+00  0.64999999231E+04  0.65000000000E+04  0.10000000000E+01 0.  0.
    9000001   -1    0    0    0    0 -0.00000000000E+00 -0.00000000000E+00 -0.64999999231E+04  0.65000000000E+04  0.10000000000E+01 0.  0.
    9000001    1    1    2    0    0 -0.33503669264E+04 -0.51418151150E+04 -0.21416763951E+04  0.65000000000E+04  0.10000000000E+01 0.  0.
    9000001    1    1    2    0    0  0.33503669264E+04  0.51418151150E+04  0.21416763951E+04  0.65000000000E+04  0.10000000000E+01 0.  0.
</event>
<event>
 4    1  0.2191064E-006  0.1300000E+05  0.7957747E-01  0.1322471E+00
    9000001   -1    0    0    0    0  0.00000000000E+00  0.00000000000E+00  0.64999999231E+04  0.65000000000E+04  0.10000000000E+01 0.  0.
    9000001   -1    0    0    0    0 -0.00000000000E+00 -0.00000000000E+00 -0.64999999231E+04  0.65000000000E+04  0.10000000000E+01 0.  0.
    9000001    1    1    2    0    0  0.13018739707E+03 -0.28652920624E+04  0.58329367936E+04  0.65000000000E+04  0.10000000000E+01 0.  0.
    9000001    1    1    2    0    0 -0.13018739707E+03  0.28652920624E+04 -0.58329367936E+04  0.65000000000E+04  0.10000000000E+01 0.  0.
</event>
<event>
 4    1  0.2191064E-006  0.1300000E+05  0.7957747E-01  0.1322471E+00
    9000001   -1    0    0    0    0  0.00000000000E+00  0.00000000000E+00  0.64999999231E+04  0.65000000000E+04  0.10000000000E+01 0.  0.
    9000001   -1    0    0    0    0 -0.00000000000E+00 -0.00000000000E+00 -0.64999999231E+04  0.65000000000E+04  0.10000000000E+01 0.  0.
    9000001    1    1    2    0    0 -0.40490078106E+04  0.41782869919E+04 -0.28978358412E+04  0.65000000000E+04  0.10000000000E+01 0.  0.
    9000001    1    1    2    0    0  0.40490078106E+04 -0.41782869919E+04  0.28978358412E+04  0.65000000000E+04  0.10000000000E+01 0.  0.
</event>
<event>
 4    1  0.2191064E-006  0.1300000E+05  0.7957747E-01  0.1322471E+00
    9000001   -1    0    0    0    0  0.00000000000E+00  0.00000000000E+00  0.64999999231E+04  0.65000000000E+04  0.10000000000E+01 0.  0.
    9000001   -1    0    0    0    0 -0.00000000000E+00 -0.00000000000E+00 -0.64999999231E+04  0.65000000000E+04  0.10000000000E+01 0.  0.
    9000001    1    1    2    0    0  0.41064385295E+04 -0.29469382033E+04  0.40868957449E+04  0.65000000000E+04  0.10000000000E+01 0.  0.
    9000001    1    1    2    0    0 -0.41064385295E+04  0.29469382033E+04 -0.40868957449E+04  0.65000000000E+04  0.10000000000E+01 0.  0.
</event>
<event>
 4    1  0.2191064E-006  0.1300000E+05  0.7957747E-01  0.1322471E+00
    9000001   -1    0    0    0    0  0.00000000000E+00  0.00000000000E+00  0.64999999231E+04  0.65000000000E+04  0.10000000000E+01 0.  0.
    9000001   -1    0    0    0    0 -0.00000000000E+00 -0.00000000000E+00 -0.64999999231E+04  0.65000000000E+04  0.10000000000E+01 0.  0.
    9000001    1    1    2    0    0  0.67090837435E+03 -0.58445863193E+04 -0.27641801153E+04  0.65000000000E+04  0.10000000000E+01 0.  0.
    9000001    1    1    2    0    0 -0.67090837435E+03  0.58445863193E+04  0.27641801153E+04  0.65000000000E+04  0.10000000000E+01 0.  0.
</event>
<event>
 4    1  0.2191064E-006  0.1300000E+05  0.7957747E-01  0.1322471E+00
    9000001   -1    0    0    0    0  0.00000000000E+00  0.00000000000E+00  0.64999999231E+04  0.65000000000E+04  0.10000000000E+01 0.  0.
    9000001   -1    0    0    0    0 -0.00000000000E+00 -0.00000000000E+00 -0.64999999231E+04  0.65000000000E+04  0.10000000000E+01 0.  0.
    9000001    1    1    2    0    0  0.87447925377E+03  0.41608943839E+04 -0.49165275307E+04  0.65000000000E+04  0.10000000000E+01 0.  0.
    9000001    1    1    2    0    0 -0.87447925377E+03 -0.41608943839E+04  0.49165275307E+04  0.65000000000E+04  0.10000000000E+01 0.  0.
</event>
<event>
 4    1  0.2191064E-006  0.1300000E+05  0.7957747E-01  0.1322471E+00
    9000001   -1    0    0    0    0  0.00000000000E+00  0.00000000000E+00  0.64999999231E+04  0.65000000000E+04  0.10000000000E+01 0.  0.
    9000001   -1    0    0    0    0 -0.00000000000E+00 -0.00000000000E+00 -0.64999999231E+04  0.65000000000E+04  0.10000000000E+01 0.  0.
    9000001    1    1    2    0    0 -0.60767824457E+04 -0.20706887106E+04  0.10173310037E+04  0.65000000000E+04  0.10000000000E+01 0.  0.
    9000001    1    1    2    0    0  0.60767824457E+04  0.20706887106E+04 -0.10173310037E+04  0.65000000000E+04  0.10000000000E+01 0.  0.
</event>
<event>
 4    1  0.2191064E-006  0.1300000E+05  0.7957747E-01  0.1322471E+00
    9000001   -1    0    0    0    0  0.00000000000E+00  0.00000000000E+00  0.64999999231E+04  0.65000000000E+04  0.10000000000E+01 0.  0.
    9000001   -1    0    0    0    0 -0.00000000000E+00 -0.00000000000E+00 -0.64999999231E+04  0.65000000000E+04  0.10000000000E+01 0.  0.
    9000001    1    1    2    0    0  0.42070841561E+04 -0.48534176983E+04 -0.99738585787E+03  0.65000000000E+04  0.10000000000E+01 0.  0.
    9000001    1    1    2    0    0 -0.42070841561E+04  0.48534176983E+04  0.99738585787E+03  0.65000000000E+04  0.10000000000E+01 0.  0.
</event>
<event>
 4    1  0.2191064E-006  0.1300000E+05  0.7957747E-01  0.1322471E+00
    9000001   -1    0    0    0    0  0.00000000000E+00  0.00000000000E+00  0.64999999231E+04  0.65000000000E+04  0.10000000000E+01 0.  0.
    9000001   -1    0    0    0    0 -0.00000000000E+00 -0.00000000000E+00 -0.64999999231E+04  0.65000000000E+04  0.10000000000E+01 0.  0.
    9000001    1    1    2    0    0 -0.34565817164E+04 -0.20074076429E+04 -0.51256566792E+04  0.65000000000E+04  0.10000000000E+01 0.  0.
    9000001    1    1    2    0    0  0.34565817164E+04  0.20074076429E+04  0.51256566792E+04  0.65000000000E+04  0.10000000000E+01 0.  0.
</event>
<event>
 4    1  0.2191064E-006  0.1300000E+05  0.7957747E-01  0.1322471E+00
    9000001   -1    0    0    0    0  0.00000000000E+00  0.00000000000E+00  0.64999999231E+04  0.65000000000E+04  0.10000000000E+01 0.  0.
    9000001   -1    0    0    0    0 -0.00000000000E+00 -0.00000000000E+00 -0.64999999231E+04  0.65000000000E+04  0.10000000000E+01 0.  0.
    9000001    1    1    2    0    0  0.44410827444E+04  0.33920950288E+04 -0.33197099833E+04  0.65000000000E+04  0.10000000000E+01 0.  0.
    9000001    1    1    2    0    0 -0.44410827444E+04 -0.33920950288E+04  0.33197099833E+04  0.65000000000E+04  0.10000000000E+01 0.  0.
</event>
<event>
 4    1  0.2191064E-006  0.1300000E+05  0.7957747E-01  0.1322471E+00
    9000001   -1    0    0    0    0  0.00000000000E+00  0.00000000000E+00  0.64999999231E+04  0.65000000000E+04  0.10000000000E+01 0.  0.
    9000001   -1    0    0    0    0 -0.00000000000E+00 -0.00000000000E+00 -0.64999999231E+04  0.65000000000E+04  0.10000000000E+01 0.  0.
    9000001    1    1    2    0    0 -0.57895067144E+04  0.27224309881E+04 -0.11489040515E+04  0.65000000000E+04  0.10000000000E+01 0.  0.
    9000001    1    1    2    0    0  0.57895067144E+04 -0.27224309881E+04  0.11489040515E+04  0.65000000000E+04  0.10000000000E+01 0.  0.
</event>
<event>
 4    1  0.2191064E-006  0.1300000E+05  0.7957747E-01  0.1322471E+00
    9000001   -1    0    0    0    0  0.00000000000E+00  0.00000000000E+00  0.64999999231E+04  0.65000000000E+04  0.10000000000E+01 0.  0.
    9000001   -1    0    0    0    0 -0.00000000000E+00 -0.00000000000E+00 -0.64999999231E+04  0.65000000000E+04  0.10000000000E+01 0.  0.
    9000001    1    1    2    0    0  0.49022162051E+04  0.64575231110E+03 -0.42191562227E+04  0.65000000000E+04  0.10000000000E+01 0.  0.
    9000001    1    1    2    0    0 -0.49022162051E+04 -0.64575231110E+03  0.42191562227E+04  0.65000000000E+04  0.10000000000E+01 0.  0.
</event>
<event>
 4    1  0.2191064E-006  0.1300000E+05  0.7957747E-01  0.1322471E+00
    9000001   -1    0    0    0    0  0.00000000000E+00  0.00000000000E+00  0.64999999231E+04  0.65000000000E+04  0.10000000000E+01 0.  0.
    9000001   -1    0    0    0    0 -0.00000000000E+00 -0.00000000000E+00 -0.64999999231E+04  0.65000000000E+04  0.10000000000E+01 0.  0.
    9000001    1    1    2    0    0 -0.28090583883E+03 -0.64061794184E+04  0.10639342879E+04  0.65000000000E+04  0.10000000000E+01 0.  0.
    9000001    1    1    2    0    0  0.28090583883E+03  0.64061794184E+04 -0.10639342879E+04  0.65000000000E+04  0.10000000000E+01 0.  0.
</event>
<event>
 4    1  0.2191064E-006  0.1300000E+05  0.7957747E-01  0.1322471E+00
    9000001   -1    0    0    0    0  0.00000000000E+00  0.00000000000E+00  0.64999999231E+04  0.65000000000E+04  0.10000000000E+01 0.  0.
    9000001   -1    0    0    0    0 -0.00000000000E+00 -0.00000000000E+00 -0.64999999231E+04  0.65000000000E+04  0.10000000000E+01 0.  0.
    9000001    1    1    2    0    0  0.35634085158E+04 -0.27316510174E+04  0.47000214328E+04  0.65000000000E+04  0.10000000000E+01 0.  0.
    9000001    1    1    2    0    0 -0.35634085158E+04  0.27316510174E+04 -0.47000214328E+04  0.65000000000E+04  0.10000000000E+01 0.  0.
</event>
<event>
 4    1  0.2191064E-006  0.1300000E+05  0.7957747E-01  0.1322471E+00
    9000001   -1    0    0    0    0  0.00000000000E+00  0.00000000000E+00  0.64999999231E+04  0.65000000000E+04  0.10000000000E+01 0.  0.
    9000001   -1    0    0    0    0 -0.00000000000E+00 -0.00000000000E+00 -0.64999999231E+04  0.65000000000E+04  0.10000000000E+01 0.  0.
    9000001    1    1    2    0    0 -0.30866191165E+04  0.46366328203E+04 -0.33502861846E+04  0.65000000000E+04  0.10000000000E+01 0.  0.
    9000001    1    1    2    0    0  0.30866191165E+04 -0.46366328203E+04  0.33502861846E+04  0.65000000000E+04  0.10000000000E+01 0.  0.
</event>
<event>
 4    1  0.2191064E-006  0.1300000E+05  0.7957747E-01  0.1322471E+00
    9000001   -1    0    0    0    0  0.00000000000E+00  0.00000000000E+00  0.64999999231E+04  0.65000000000E+04  0.10000000000E+01 0.  0.
    9000001   -1    0    0    0    0 -0.00000000000E+00 -0.00000000000E+00 -0.64999999231E+04  0.65000000000E+04  0.10000000000E+01 0.  0.
    9000001    1    1    2    0    0  0.47978368688E+04  0.43274301174E+04 -0.71000630929E+03  0.65000000000E+04  0.10000000000E+01 0.  0.
    9000001    1    1    2    0    0 -0.47978368688E+04 -0.43274301174E+04  0.71000630929E+03  0.65000000000E+04  0.10000000000E+01 0.  0.
</event>
<event>
 4    1  0.2191064E-006  0.1300000E+05  0.7957747E-01  0.1322471E+00
    9000001   -1    0    0    0    0  0.00000000000E+00  0.00000000000E+00  0.64999999231E+04  0.65000000000E+04  0.10000000000E+01 0.  0.
    9000001   -1    0    0    0    0 -0.00000000000E+00 -0.00000000000E+00 -0.64999999231E+04  0.65000000000E+04  0.10000000000E+01 0.  0.
    9000001    1    1    2    0    0 -0.50547239347E+04 -0.39672289295E+04  0.98023444391E+03  0.65000000000E+04  0.10000000000E+01 0.  0.
    9000001    1    1    2    0    0  0.50547239347E+04  0.39672289295E+04 -0.98023444391E+03  0.65000000000E+04  0.10000000000E+01 0.  0.
</event>
<event>
 4    1  0.2191064E-006  0.1300000E+05  0.7957747E-01  0.1322471E+00
    9000001   -1    0    0    0    0  0.00000000000E+00  0.00000000000E+00  0.64999999231E+04  0.65000000000E+04  0.10000000000E+01 0.  0.
    9000001   -1    0    0    0    0 -0.00000000000E+00 -0.00000000000E+00 -0.64999999231E+04  0.65000000000E+04  0.10000000000E+01 0.  0.
    9000001    1    1    2    0    0  0.43206350857E+04  0.47845059857E+04 -0.83103184622E+03  0.65000000000E+04  0.10000000000E+01 0.  0.
    9000001    1    1    2    0    0 -0.43206350857E+04 -0.47845059857E+04  0.83103184622E+03  0.65000000000E+04  0.10000000000E+01 0.  0.
</event>
<event>
 4    1  0.2191064E-006  0.1300000E+05  0.7957747E-01  0.1322471E+00
    9000001   -1    0    0    0    0  0.00000000000E+00  0.00000000000E+00  0.64999999231E+04  0.65000000000E+04  0.10000000000E+01 0.  0.
    9000001   -1    0    0    0    0 -0.00000000000E+00 -0.00000000000E+00 -0.64999999231E+04  0.65000000000E+04  0.10000000000E+01 0.  0.
    9000001    1    1    2    0    0  0.51947569269E+04 -0.31961016717E+04  0.22470944738E+04  0.65000000000E+04  0.10000000000E+01 0.  0.
    9000001    1    1    2    0    0 -0.51947569269E+04  0.31961016717E+04 -0.22470944738E+04  0.65000000000E+04  0.10000000000E+01 0.  0.
</event>
<event>
 4    1  0.2191064E-006  0.1300000E+05  0.7957747E-01  0.1322471E+00
    9000001   -1    0    0    0    0  0.00000000000E+00  0.00000000000E+00  0.64999999231E+04  0.65000000000E+04  0.10000000000E+01 0.  0.
    9000001   -1    0    0    0    0 -0.00000000000E+00 -0.00000000000E+00 -0.64999999231E+04  0.65000000000E+04  0.10000000000E+01 0.  0.
    9000001    1    1    2    0    0  0.40715785146E+04 -0.42484605183E+04  0.27609474142E+04  0.65000000000E+04  0.10000000000E+01 0.  0.
    9000001    1    1    2    0    0 -0.40715785146E+04  0.42484605183E+04 -0.27609474142E+04  0.65000000000E+04  0.10000000000E+01 0.  0.
</event>
<event>
 4    1  0.2191064E-006  0.1300000E+05  0.7957747E-01  0.1322471E+00
    9000001   -1    0    0    0    0  0.00000000000E+00  0.00000000000E+00  0.64999999231E+04  0.65000000000E+04  0.10000000000E+01 0.  0.
    9000001   -1    0    0    0    0 -0.00000000000E+00 -0.00000000000E+00 -0.64999999231E+04  0.65000000000E+04  0.10000000000E+01 0.  0.
    9000001    1    1    2    0    0  0.56828374353E+04 -0.17472062026E+04  0.26272853233E+04  0.65000000000E+04  0.10000000000E+01 0.  0.
    9000001    1    1    2    0    0 -0.56828374353E+04  0.17472062026E+04 -0.26272853233E+04  0.65000000000E+04  0.10000000000E+01 0.  0.
</event>
<event>
 4    1  0.2191064E-006  0.1300000E+05  0.7957747E-01  0.1322471E+00
    9000001   -1    0    0    0    0  0.00000000000E+00  0.00000000000E+00  0.64999999231E+04  0.65000000000E+04  0.10000000000E+01 0.  0.
    9000001   -1    0    0    0    0 -0.00000000000E+00 -0.00000000000E+00 -0.64999999231E+04  0.65000000000E+04  0.10000000000E+01 0.  0.
    9000001    1    1    2    0    0  0.48885961028E+04 -0.41568008354E+03 -0.42636647631E+04  0.65000000000E+04  0.10000000000E+01 0.  0.
    9000001    1    1    2    0    0 -0.48885961028E+04  0.41568008354E+03  0.42636647631E+04  0.65000000000E+04  0.10000000000E+01 0.  0.
</event>
<event>
 4    1  0.2191064E-006  0.1300000E+05  0.7957747E-01  0.1322471E+00
    9000001   -1    0    0    0    0  0.00000000000E+00  0.00000000000E+00  0.64999999231E+04  0.65000000000E+04  0.10000000000E+01 0.  0.
    9000001   -1    0    0    0    0 -0.00000000000E+00 -0.00000000000E+00 -0.64999999231E+04  0.65000000000E+04  0.10000000000E+01 0.  0.
    9000001    1    1    2    0    0 -0.50615802206E+04  0.25884815831E+04  0.31512168705E+04  0.65000000000E+04  0.10000000000E+01 0.  0.
    9000001    1    1    2    0    0  0.50615802206E+04 -0.25884815831E+04 -0.31512168705E+04  0.65000000000E+04  0.10000000000E+01 0.  0.
</event>
<event>
 4    1  0.2191064E-006  0.1300000E+05  0.7957747E-01  0.1322471E+00
    9000001   -1    0    0    0    0  0.00000000000E+00  0.00000000000E+00  0.64999999231E+04  0.65000000000E+04  0.10000000000E+01 0.  0.
    9000001   -1    0    0    0    0 -0.00000000000E+00 -0.00000000000E+00 -0.64999999231E+04  0.65000000000E+04  0.10000000000E+01 0.  0.
    9000001    1    1    2    0    0  0.33884816075E+04  0.34903916472E+04  0.43110738274E+04  0.65000000000E+04  0.10000000000E+01 0.  0.
    9000001    1    1    2    0    0 -0.33884816075E+04 -0.34903916472E+04 -0.43110738274E+04  0.65000000000E+04  0.10000000000E+01 0.  0.
</event>
<event>
 4    1  0.2191064E-006  0.1300000E+05  0.7957747E-01  0.1322471E+00
    9000001   -1    0    0    0    0  0.00000000000E+00  0.00000000000E+00  0.64999999231E+04  0.65000000000E+04  0.10000000000E+01 0.  0.
    9000001   -1    0    0    0    0 -0.00000000000E+00 -0.00000000000E+00 -0.64999999231E+04  0.65000000000E+04  0.10000000000E+01 0.  0.
    9000001    1    1    2    0    0 -0.40722744977E+03  0.64871587684E+04  0.30592768923E+02  0.65000000000E+04  0.10000000000E+01 0.  0.
    9000001    1    1    2    0    0  0.40722744977E+03 -0.64871587684E+04 -0.30592768923E+02  0.65000000000E+04  0.10000000000E+01 0.  0.
</event>
<event>
 4    1  0.2191064E-006  0.1300000E+05  0.7957747E-01  0.1322471E+00
    9000001   -1    0    0    0    0  0.00000000000E+00  0.00000000000E+00  0.64999999231E+04  0.65000000000E+04  0.10000000000E+01 0.  0.
    9000001   -1    0    0    0    0 -0.00000000000E+00 -0.00000000000E+00 -0.64999999231E+04  0.65000000000E+04  0.10000000000E+01 0.  0.
    9000001    1    1    2    0    0 -0.48512898592E+04 -0.38013968073E+04 -0.20650346282E+04  0.65000000000E+04  0.10000000000E+01 0.  0.
    9000001    1    1    2    0    0  0.48512898592E+04  0.38013968073E+04  0.20650346282E+04  0.65000000000E+04  0.10000000000E+01 0.  0.
</event>
<event>
 4    1  0.2191064E-006  0.1300000E+05  0.7957747E-01  0.1322471E+00
    9000001   -1    0    0    0    0  0.00000000000E+00  0.00000000000E+00  0.64999999231E+04  0.65000000000E+04  0.10000000000E+01 0.  0.
    9000001   -1    0    0    0    0 -0.00000000000E+00 -0.00000000000E+00 -0.64999999231E+04  0.65000000000E+04  0.10000000000E+01 0.  0.
    9000001    1    1    2    0    0 -0.30491239717E+04  0.76062959897E+03  0.56898404739E+04  0.65000000000E+04  0.10000000000E+01 0.  0.
    9000001    1    1    2    0    0  0.30491239717E+04 -0.76062959897E+03 -0.56898404739E+04  0.65000000000E+04  0.10000000000E+01 0.  0.
</event>
<event>
 4    1  0.2191064E-006  0.1300000E+05  0.7957747E-01  0.1322471E+00
    9000001   -1    0    0    0    0  0.00000000000E+00  0.00000000000E+00  0.64999999231E+04  0.65000000000E+04  0.10000000000E+01 0.  0.
    9000001   -1    0    0    0    0 -0.00000000000E+00 -0.00000000000E+00 -0.64999999231E+04  0.65000000000E+04  0.10000000000E+01 0.  0.
    9000001    1    1    2    0    0 -0.24550486653E+04  0.14123857084E+03 -0.60168751622E+04  0.65000000000E+04  0.10000000000E+01 0.  0.
    9000001    1    1    2    0    0  0.24550486653E+04 -0.14123857084E+03  0.60168751622E+04  0.65000000000E+04  0.10000000000E+01 0.  0.
</event>
<event>
 4    1  0.2191064E-006  0.1300000E+05  0.7957747E-01  0.1322471E+00
    9000001   -1    0    0    0    0  0.00000000000E+00  0.00000000000E+00  0.64999999231E+04  0.65000000000E+04  0.10000000000E+01 0.  0.
    9000001   -1    0    0    0    0 -0.00000000000E+00 -0.00000000000E+00 -0.64999999231E+04  0.65000000000E+04  0.10000000000E+01 0.  0.
    9000001    1    1    2    0    0  0.62633895212E+04  0.84685345363E+03  0.15174946239E+04  0.65000000000E+04  0.10000000000E+01 0.  0.
    9000001    1    1    2    0    0 -0.62633895212E+04 -0.84685345363E+03 -0.15174946239E+04  0.65000000000E+04  0.10000000000E+01 0.  0.
</event>
<event>
 4    1  0.2191064E-006  0.1300000E+05  0.7957747E-01  0.1322471E+00
    9000001   -1    0    0    0    0  0.00000000000E+00  0.00000000000E+00  0.64999999231E+04  0.65000000000E+04  0.10000000000E+01 0.  0.
    9000001   -1    0    0    0    0 -0.00000000000E+00 -0.00000000000E+00 -0.64999999231E+04  0.65000000000E+04  0.10000000000E+01 0.  0.
    9000001    1    1    2    0    0  0.49046242017E+04  0.26525701328E+03 -0.42572642808E+04  0.65000000000E+04  0.10000000000E+01 0.  0.
    9000001    1    1    2    0    0 -0.49046242017E+04 -0.26525701328E+03  0.42572642808E+04  0.65000000000E+04  0.10000000000E+01 0.  0.
</event>
<event>
 4    1  0.2191064E-006  0.1300000E+05  0.7957747E-01  0.1322471E+00
    9000001   -1    0    0    0    0  0.00000000000E+00  0.00000000000E+00  0.64999999231E+04  0.65000000000E+04  0.10000000000E+01 0.  0.
    9000001   -1    0    0    0    0 -0.00000000000E+00 -0.00000000000E+00 -0.64999999231E+04  0.65000000000E+04  0.10000000000E+01 0.  0.
    9000001    1    1    2    0    0 -0.50327932029E+04  0.38176656964E+04 -0.15318029271E+04  0.65000000000E+04  0.10000000000E+01 0.  0.
    9000001    1    1    2    0    0  0.50327932029E+04 -0.38176656964E+04  0.15318029271E+04  0.65000000000E+04  0.10000000000E+01 0.  0.
</event>
<event>
 4    1  0.2191064E-006  0.1300000E+05  0.7957747E-01  0.1322471E+00
    9000001   -1    0    0    0    0  0.00000000000E+00  0.00000000000E+00  0.64999999231E+04  0.65000000000E+04  0.10000000000E+01 0.  0.
    9000001   -1    0    0    0    0 -0.00000000000E+00 -0.00000000000E+00 -0.64999999231E+04  0.65000000000E+04  0.10000000000E+01 0.  0.
    9000001    1    1    2    0    0 -0.16068314927E+04 -0.22722733983E+04 -0.58740841973E+04  0.65000000000E+04  0.10000000000E+01 0.  0.
    9000001    1    1    2    0    0  0.16068314927E+04  0.22722733983E+04  0.58740841973E+04  0.65000000000E+04  0.10000000000E+01 0.  0.
</event>
<event>
 4    1  0.2191064E-006  0.1300000E+05  0.7957747E-01  0.1322471E+00
    9000001   -1    0    0    0    0  0.00000000000E+00  0.00000000000E+00  0.64999999231E+04  0.65000000000E+04  0.10000000000E+01 0.  0.
    9000001   -1    0    0    0    0 -0.00000000000E+00 -0.00000000000E+00 -0.64999999231E+04  0.65000000000E+04  0.10000000000E+01 0.  0.
    9000001    1    1    2    0    0  0.25809603183E+03  0.64603339317E+04 -0.66893267916E+03  0.65000000000E+04  0.10000000000E+01 0.  0.
    9000001    1    1    2    0    0 -0.25809603183E+03 -0.64603339317E+04  0.66893267916E+03  0.65000000000E+04  0.10000000000E+01 0.  0.
</event>
<event>
 4    1  0.2191064E-006  0.1300000E+05  0.7957747E-01  0.1322471E+00
    9000001   -1    0    0    0    0  0.00000000000E+00  0.00000000000E+00  0.64999999231E+04  0.65000000000E+04  0.10000000000E+01 0.  0.
    9000001   -1    0    0    0    0 -0.00000000000E+00 -0.00000000000E+00 -0.64999999231E+04  0.65000000000E+04  0.10000000000E+01 0.  0.
    9000001    1    1    2    0    0  0.11800794295E+03 -0.24172886347E+04 -0.60326435981E+04  0.65000000000E+04  0.10000000000E+01 0.  0.
    9000001    1    1    2    0    0 -0.11800794295E+03  0.24172886347E+04  0.60326435981E+04  0.65000000000E+04  0.10000000000E+01 0.  0.
</event>
<event>
 4    1  0.2191064E-006  0.1300000E+05  0.7957747E-01  0.1322471E+00
    9000001   -1    0    0    0    0  0.00000000000E+00  0.00000000000E+00  0.64999999231E+04  0.65000000000E+04  0.10000000000E+01 0.  0.
    9000001   -1    0    0    0    0 -0.00000000000E+00 -0.00000000000E+00 -0.64999999231E+04  0.65000000000E+04  0.10000000000E+01 0.  0.
    9000001    1    1    2    0    0 -0.21749304362E+04 -0.18983740672E+04 -0.58237318361E+04  0.65000000000E+04  0.10000000000E+01 0.  0.
    9000001    1    1    2    0    0  0.21749304362E+04  0.18983740672E+04  0.58237318361E+04  0.65000000000E+04  0.10000000000E+01 0.  0.
</event>
<event>
 4    1  0.2191064E-006  0.1300000E+05  0.7957747E-01  0.1322471E+00
    9000001   -1    0    0    0    0  0.00000000000E+00  0.00000000000E+00  0.64999999231E+04  0.65000000000E+04  0.10000000000E+01 0.  0.
    9000001   -1    0    0    0    0 -0.00000000000E+00 -0.00000000000E+00 -0.64999999231E+04  0.65000000000E+04  0.10000000000E+01 0.  0.
    9000001    1    1    2    0    0 -0.33404973147E+04  0.51894022469E+04  0.20398973038E+04  0.65000000000E+04  0.10000000000E+01 0.  0.
    9000001    1    1    2    0    0  0.33404973147E+04 -0.51894022469E+04 -0.20398973038E+04  0.65000000000E+04  0.10000000000E+01 0.  0.
</event>
<event>
 4    1  0.2191064E-006  0.1300000E+05  0.7957747E-01  0.1322471E+00
    9000001   -1    0    0    0    0  0.00000000000E+00  0.00000000000E+00  0.64999999231E+04  0.65000000000E+04  0.10000000000E+01 0.  0.
    9000001   -1    0    0    0    0 -0.00000000000E+00 -0.00000000000E+00 -0.64999999231E+04  0.65000000000E+04  0.10000000000E+01 0.  0.
    9000001    1    1    2    0    0  0.30077535062E+04  0.50850297344E+04  0.27103303204E+04  0.65000000000E+04  0.10000000000E+01 0.  0.
    9000001    1    1    2    0    0 -0.30077535062E+04 -0.50850297344E+04 -0.27103303204E+04  0.65000000000E+04  0.10000000000E+01 0.  0.
</event>
<event>
 4    1  0.2191064E-006  0.1300000E+05  0.7957747E-01  0.1322471E+00
    9000001   -1    0    0    0    0  0.00000000000E+00  0.00000000000E+00  0.64999999231E+04  0.65000000000E+04  0.10000000000E+01 0.  0.
    9000001   -1    0    0    0    0 -0.00000000000E+00 -0.00000000000E+00 -0.64999999231E+04  0.65000000000E+04  0.10000000000E+01 0.  0.
    9000001    1    1    2    0    0 -0.17946278810E+03 -0.62667547892E+04  0.17162681958E+04  0.65000000000E+04  0.10000000000E+01 0.  0.
    9000001    1    1    2    0    0  0.17946278810E+03  0.62667547892E+04 -0.17162681958E+04  0.65000000000E+04  0.10000000000E+01 0.  0.
</event>
<event>
 4    1  0.2191064E-006  0.1300000E+05  0.7957747E-01  0.1322471E+00
    9000001   -1    0    0    0    0  0.00000000000E+00  0.00000000000E+00  0.64999999231E+04  0.65000000000E+04  0.10000000000E+01 0.  0.
    9000001   -1    0    0    0    0 -0.00000000000E+00 -0.00000000000E+00 -0.64999999231E+04  0.65000000000E+04  0.10000000000E+01 0.  0.
    9000001    1    1    2    0    0 -0.96836443218E+03 -0.39140770814E+04 -0.50982614612E+04  0.65000000000E+04  0.10000000000E+01 0.  0.
    9000001    1    1    2    0    0  0.96836443218E+03  0.39140770814E+04  0.50982614612E+04  0.65000000000E+04  0.10000000000E+01 0.  0.
</event>
<event>
 4    1  0.2191064E-006  0.1300000E+05  0.7957747E-01  0.1322471E+00
    9000001   -1    0    0    0    0  0.00000000000E+00  0.00000000000E+00  0.64999999231E+04  0.65000000000E+04  0.10000000000E+01 0.  0.
    9000001   -1    0    0    0    0 -0.00000000000E+00 -0.00000000000E+00 -0.64999999231E+04  0.65000000000E+04  0.10000000000E+01 0.  0.
    9000001    1    1    2    0    0  0.59699501468E+04  0.19408198083E+04 -0.16860939229E+04  0.65000000000E+04  0.10000000000E+01 0.  0.
    9000001    1    1    2    0    0 -0.59699501468E+04 -0.19408198083E+04  0.16860939229E+04  0.65000000000E+04  0.10000000000E+01 0.  0.
</event>
<event>
 4    1  0.2191064E-006  0.1300000E+05  0.7957747E-01  0.1322471E+00
    9000001   -1    0    0    0    0  0.00000000000E+00  0.00000000000E+00  0.64999999231E+04  0.65000000000E+04  0.10000000000E+01 0.  0.
    9000001   -1    0    0    0    0 -0.00000000000E+00 -0.00000000000E+00 -0.64999999231E+04  0.65000000000E+04  0.10000000000E+01 0.  0.
    9000001    1    1    2    0    0 -0.38574004766E+04 -0.37880184765E+04  0.36085144568E+04  0.65000000000E+04  0.10000000000E+01 0.  0.
    9000001    1    1    2    0    0  0.38574004766E+04  0.37880184765E+04 -0.36085144568E+04  0.65000000000E+04  0.10000000000E+01 0.  0.
</event>
<event>
 4    1  0.2191064E-006  0.1300000E+05  0.7957747E-01  0.1322471E+00
    9000001   -1    0    0    0    0  0.00000000000E+00  0.00000000000E+00  0.64999999231E+04  0.65000000000E+04  0.10000000000E+01 0.  0.
    9000001   -1    0    0    0    0 -0.00000000000E+00 -0.00000000000E+00 -0.64999999231E+04  0.65000000000E+04  0.10000000000E+01 0.  0.
    9000001    1    1    2    0    0  0.49349327371E+04  0.40811884509E+04  0.11137049466E+04  0.65000000000E+04  0.10000000000E+01 0.  0.
    9000001    1    1    2    0    0 -0.49349327371E+04 -0.40811884509E+04 -0.11137049466E+04  0.65000000000E+04  0.10000000000E+01 0.  0.
</event>
<event>
 4    1  0.2191064E-006  0.1300000E+05  0.7957747E-01  0.1322471E+00
    9000001   -1    0    0    0    0  0.00000000000E+00  0.00000000000E+00  0.64999999231E+04  0.65000000000E+04  0.10000000000E+01 0.  0.
    9000001   -1    0    0    0    0 -0.00000000000E+00 -0.00000000000E+00 -0.64999999231E+04  0.65000000000E+04  0.10000000000E+01 0.  0.
    9000001    1    1    2    0    0 -0.59550794749E+04 -0.14182242633E+04  0.21853300407E+04  0.65000000000E+04  0.10000000000E+01 0.  0.
    9000001    1    1    2    0    0  0.59550794749E+04  0.14182242633E+04 -0.21853300407E+04  0.65000000000E+04  0.10000000000E+01 0.  0.
</event>
<event>
 4    1  0.2191064E-006  0.1300000E+05  0.7957747E-01  0.1322471E+00
    9000001   -1    0    0    0    0  0.00000000000E+00  0.00000000000E+00  0.64999999231E+04  0.65000000000E+04  0.10000000000E+01 0.  0.
    9000001   -1    0    0    0    0 -0.00000000000E+00 -0.00000000000E+00 -0.64999999231E+04  0.65000000000E+04  0.10000000000E+01 0.  0.
    9000001    1    1    2    0    0 -0.47435420065E+04 -0.23309738826E+04 -0.37835656451E+04  0.65000000000E+04  0.10000000000E+01 0.  0.
    9000001    1    1    2    0    0  0.47435420065E+04  0.23309738826E+04  0.37835656451E+04  0.65000000000E+04  0.10000000000E+01 0.  0.
</event>
<event>
 4    1  0.2191064E-006  0.1300000E+05  0.7957747E-01  0.1322471E+00
    9000001   -1    0    0    0    0  0.00000000000E+00  0.00000000000E+00  0.64999999231E+04  0.65000000000E+04  0.10000000000E+01 0.  0.
    9000001   -1    0    0    0    0 -0.00000000000E+00 -0.00000000000E+00 -0.64999999231E+04  0.65000000000E+04  0.10000000000E+01 0.  0.
    9000001    1    1    2    0    0  0.35488796513E+04 -0.40666729437E+04 -0.36218259745E+04  0.65000000000E+04  0.10000000000E+01 0.  0.
    9000001    1    1    2    0    0 -0.35488796513E+04  0.40666729437E+04  0.36218259745E+04  0.65000000000E+04  0.10000000000E+01 0.  0.
</event>
<event>
 4    1  0.2191064E-006  0.1300000E+05  0.7957747E-01  0.1322471E+00
    9000001   -1    0    0    0    0  0.00000000000E+00  0.00000000000E+00  0.64999999231E+04  0.65000000000E+04  0.10000000000E+01 0.  0.
    9000001   -1    0    0    0    0 -0.00000000000E+00 -0.00000000000E+00 -0.64999999231E+04  0.65000000000E+04  0.10000000000E+01 0.  0.
    9000001    1    1    2    0    0 -0.25455217392E+04 -0.59793818877E+04  0.13156867646E+03  0.65000000000E+04  0.10000000000E+01 0.  0.
    9000001    1    1    2    0    0  0.25455217392E+04  0.59793818877E+04 -0.13156867646E+03  0.65000000000E+04  0.10000000000E+01 0.  0.
</event>
<event>
 4    1  0.2191064E-006  0.1300000E+05  0.7957747E-01  0.1322471E+00
    9000001   -1    0    0    0    0  0.00000000000E+00  0.00000000000E+00  0.64999999231E+04  0.65000000000E+04  0.10000000000E+01 0.  0.
    9000001   -1    0    0    0    0 -0.00000000000E+00 -0.00000000000E+00 -0.64999999231E+04  0.65000000000E+04  0.10000000000E+01 0.  0.
    9000001    1    1    2    0    0 -0.47512335569E+04  0.42938446399E+04 -0.11129586229E+04  0.65000000000E+04  0.10000000000E+01 0.  0.
    9000001    1    1    2    0    0  0.47512335569E+04 -0.42938446399E+04  0.11129586229E+04  0.65000000000E+04  0.10000000000E+01 0.  0.
</event>
<event>
 4    1  0.2191064E-006  0.1300000E+05  0.7957747E-01  0.1322471E+00
    9000001   -1    0    0    0    0  0.00000000000E+00  0.00000000000E+00  0.64999999231E+04  0.65000000000E+04  0.10000000000E+01 0.  0.
    9000001   -1    0    0    0    0 -0.00000000000E+00 -0.00000000000E+00 -0.64999999231E+04  0.65000000000E+04  0.10000000000E+01 0.  0.
    9000001    1    1    2    0    0  0.54242724731E+04  0.34400528512E+04  0.99664613512E+03  0.65000000000E+04  0.10000000000E+01 0.  0.
    9000001    1    1    2    0    0 -0.54242724731E+04 -0.34400528512E+04 -0.99664613512E+03  0.65000000000E+04  0.10000000000E+01 0.  0.
</event>
<event>
 4    1  0.2191064E-006  0.1300000E+05  0.7957747E-01  0.1322471E+00
    9000001   -1    0    0    0    0  0.00000000000E+00  0.00000000000E+00  0.64999999231E+04  0.65000000000E+04  0.10000000000E+01 0.  0.
    9000001   -1    0    0    0    0 -0.00000000000E+00 -0.00000000000E+00 -0.64999999231E+04  0.65000000000E+04  0.10000000000E+01 0.  0.
    9000001    1    1    2    0    0 -0.53908712116E+04 -0.35720417858E+04  0.65499928295E+03  0.65000000000E+04  0.10000000000E+01 0.  0.
    9000001    1    1    2    0    0  0.53908712116E+04  0.35720417858E+04 -0.65499928295E+03  0.65000000000E+04  0.10000000000E+01 0.  0.
</event>
<event>
 4    1  0.2191064E-006  0.1300000E+05  0.7957747E-01  0.1322471E+00
    9000001   -1    0    0    0    0  0.00000000000E+00  0.00000000000E+00  0.64999999231E+04  0.65000000000E+04  0.10000000000E+01 0.  0.
    9000001   -1    0    0    0    0 -0.00000000000E+00 -0.00000000000E+00 -0.64999999231E+04  0.65000000000E+04  0.10000000000E+01 0.  0.
    9000001    1    1    2    0    0  0.26688132873E+03  0.61198152931E+04 -0.21740823661E+04  0.65000000000E+04  0.10000000000E+01 0.  0.
    9000001    1    1    2    0    0 -0.26688132873E+03 -0.61198152931E+04  0.21740823661E+04  0.65000000000E+04  0.10000000000E+01 0.  0.
</event>
<event>
 4    1  0.2191064E-006  0.1300000E+05  0.7957747E-01  0.1322471E+00
    9000001   -1    0    0    0    0  0.00000000000E+00  0.00000000000E+00  0.64999999231E+04  0.65000000000E+04  0.10000000000E+01 0.  0.
    9000001   -1    0    0    0    0 -0.00000000000E+00 -0.00000000000E+00 -0.64999999231E+04  0.65000000000E+04  0.10000000000E+01 0.  0.
    9000001    1    1    2    0    0  0.25065343514E+04  0.59352874540E+04 -0.86002754778E+03  0.65000000000E+04  0.10000000000E+01 0.  0.
    9000001    1    1    2    0    0 -0.25065343514E+04 -0.59352874540E+04  0.86002754778E+03  0.65000000000E+04  0.10000000000E+01 0.  0.
</event>
<event>
 4    1  0.2191064E-006  0.1300000E+05  0.7957747E-01  0.1322471E+00
    9000001   -1    0    0    0    0  0.00000000000E+00  0.00000000000E+00  0.64999999231E+04  0.65000000000E+04  0.10000000000E+01 0.  0.
    9000001   -1    0    0    0    0 -0.00000000000E+00 -0.00000000000E+00 -0.64999999231E+04  0.65000000000E+04  0.10000000000E+01 0.  0.
    9000001    1    1    2    0    0 -0.53182280557E+04  0.35035508516E+04  0.13006078494E+04  0.65000000000E+04  0.10000000000E+01 0.  0.
    9000001    1    1    2    0    0  0.53182280557E+04 -0.35035508516E+04 -0.13006078494E+04  0.65000000000E+04  0.10000000000E+01 0.  0.
</event>
<event>
 4    1  0.2191064E-006  0.1300000E+05  0.7957747E-01  0.1322471E+00
    9000001   -1    0    0    0    0  0.00000000000E+00  0.00000000000E+00  0.64999999231E+04  0.65000000000E+04  0.10000000000E+01 0.  0.
    9000001   -1    0    0    0    0 -0.00000000000E+00 -0.00000000000E+00 -0.64999999231E+04  0.65000000000E+04  0.10000000000E+01 0.  0.
    9000001    1    1    2    0    0 -0.12690475967E+04  0.54931952218E+04  0.32348606543E+04  0.65000000000E+04  0.10000000000E+01 0.  0.
    9000001    1    1    2    0    0  0.12690475967E+04 -0.54931952218E+04 -0.32348606543E+04  0.65000000000E+04  0.10000000000E+01 0.  0.
</event>
<event>
 4    1  0.2191064E-006  0.1300000E+05  0.7957747E-01  0.1322471E+00
    9000001   -1    0    0    0    0  0.00000000000E+00  0.00000000000E+00  0.64999999231E+04  0.65000000000E+04  0.10000000000E+01 0.  0.
    9000001   -1    0    0    0    0 -0.00000000000E+00 -0.00000000000E+00 -0.64999999231E+04  0.65000000000E+04  0.10000000000E+01 0.  0.
    9000001    1    1    2    0    0 -0.49649277060E+03  0.13908645291E+04 -0.63300070924E+04  0.65000000000E+04  0.10000000000E+01 0.  0.
    9000001    1    1    2    0    0  0.49649277060E+03 -0.13908645291E+04  0.63300070924E+04  0.65000000000E+04  0.10000000000E+01 0.  0.
</event>
<event>
 4    1  0.2191064E-006  0.1300000E+05  0.7957747E-01  0.1322471E+00
    9000001   -1    0    0    0    0  0.00000000000E+00  0.00000000000E+00  0.64999999231E+04  0.65000000000E+04  0.10000000000E+01 0.  0.
    9000001   -1    0    0    0    0 -0.00000000000E+00 -0.00000000000E+00 -0.64999999231E+04  0.65000000000E+04  0.10000000000E+01 0.  0.
    9000001    1    1    2    0    0  0.64967239567E+04 -0.71350399569E+02 -0.19361288787E+03  0.65000000000E+04  0.10000000000E+01 0.  0.
    9000001    1    1    2    0    0 -0.64967239567E+04  0.71350399569E+02  0.19361288787E+03  0.65000000000E+04  0.10000000000E+01 0.  0.
</event>
<event>
 4    1  0.2191064E-006  0.1300000E+05  0.7957747E-01  0.1322471E+00
    9000001   -1    0    0    0    0  0.00000000000E+00  0.00000000000E+00  0.64999999231E+04  0.65000000000E+04  0.10000000000E+01 0.  0.
    9000001   -1    0    0    0    0 -0.00000000000E+00 -0.00000000000E+00 -0.64999999231E+04  0.65000000000E+04  0.10000000000E+01 0.  0.
    9000001    1    1    2    0    0 -0.54669016789E+04  0.33501163305E+04  0.10675699532E+04  0.65000000000E+04  0.10000000000E+01 0.  0.
    9000001    1    1    2    0    0  0.54669016789E+04 -0.33501163305E+04 -0.10675699532E+04  0.65000000000E+04  0.10000000000E+01 0.  0.
</event>
<event>
 4    1  0.2191064E-006  0.1300000E+05  0.7957747E-01  0.1322471E+00
    9000001   -1    0    0    0    0  0.00000000000E+00  0.00000000000E+00  0.64999999231E+04  0.65000000000E+04  0.10000000000E+01 0.  0.
    9000001   -1    0    0    0    0 -0.00000000000E+00 -0.00000000000E+00 -0.64999999231E+04  0.65000000000E+04  0.10000000000E+01 0.  0.
    9000001    1    1    2    0    0  0.59484307477E+04  0.40974613845E+03 -0.25881033098E+04  0.65000000000E+04  0.10000000000E+01 0.  0.
    9000001    1    1    2    0    0 -0.59484307477E+04 -0.40974613845E+03  0.25881033098E+04  0.65000000000E+04  0.10000000000E+01 0.  0.
</event>
<event>
 4    1  0.2191064E-006  0.1300000E+05  0.7957747E-01  0.1322471E+00
    9000001   -1    0    0    0    0  0.00000000000E+00  0.00000000000E+00  0.64999999231E+04  0.65000000000E+04  0.10000000000E+01 0.  0.
    9000001   -1    0    0    0    0 -0.00000000000E+00 -0.00000000000E+00 -0.64999999231E+04  0.65000000000E+04  0.10000000000E+01 0.  0.
    9000001    1    1    2    0    0 -0.53926810761E+04  0.21252060277E+04 -0.29415113721E+04  0.65000000000E+04  0.10000000000E+01 0.  0.
    9000001    1    1    2    0    0  0.53926810761E+04 -0.21252060277E+04  0.29415113721E+04  0.65000000000E+04  0.10000000000E+01 0.  0.
</event>
<event>
 4    1  0.2191064E-006  0.1300000E+05  0.7957747E-01  0.1322471E+00
    9000001   -1    0    0    0    0  0.00000000000E+00  0.00000000000E+00  0.64999999231E+04  0.65000000000E+04  0.10000000000E+01 0.  0.
    9000001   -1    0    0    0    0 -0.00000000000E+00 -0.00000000000E+00 -0.64999999231E+04  0.65000000000E+04  0.10000000000E+01 0.  0.
    9000001    1    1    2    0    0 -0.47888939840E+04  0.28234998907E+04 -0.33681362469E+04  0.65000000000E+04  0.10000000000E+01 0.  0.
    9000001    1    1    2    0    0  0.47888939840E+04 -0.28234998907E+04  0.33681362469E+04  0.65000000000E+04  0.10000000000E+01 0.  0.
</event>
<event>
 4    1  0.2191064E-006  0.1300000E+05  0.7957747E-01  0.1322471E+00
    9000001   -1    0    0    0    0  0.00000000000E+00  0.00000000000E+00  0.64999999231E+04  0.65000000000E+04  0.10000000000E+01 0.  0.
    9000001   -1    0    0    0    0 -0.00000000000E+00 -0.00000000000E+00 -0.64999999231E+04  0.65000000000E+04  0.10000000000E+01 0.  0.
    9000001    1    1    2    0    0 -0.51015950295E+04 -0.39777694352E+04 -0.63330677793E+03  0.65000000000E+04  0.10000000000E+01 0.  0.
    9000001    1    1    2    0    0  0.51015950295E+04  0.39777694352E+04  0.63330677793E+03  0.65000000000E+04  0.10000000000E+01 0.  0.
</event>
<event>
 4    1  0.2191064E-006  0.1300000E+05  0.7957747E-01  0.1322471E+00
    9000001   -1    0    0    0    0  0.00000000000E+00  0.00000000000E+00  0.64999999231E+04  0.65000000000E+04  0.10000000000E+01 0.  0.
    9000001   -1    0    0    0    0 -0.00000000000E+00 -0.00000000000E+00 -0.64999999231E+04  0.65000000000E+04  0.10000000000E+01 0.  0.
    9000001    1    1    2    0    0  0.22826364876E+04  0.13898391112E+04  0.59251934070E+04  0.65000000000E+04  0.10000000000E+01 0.  0.
    9000001    1    1    2    0    0 -0.22826364876E+04 -0.13898391112E+04 -0.59251934070E+04  0.65000000000E+04  0.10000000000E+01 0.  0.
</event>
<event>
 4    1  0.2191064E-006  0.1300000E+05  0.7957747E-01  0.1322471E+00
    9000001   -1    0    0    0    0  0.00000000000E+00  0.00000000000E+00  0.64999999231E+04  0.65000000000E+04  0.10000000000E+01 0.  0.
    9000001   -1    0    0    0    0 -0.00000000000E+00 -0.00000000000E+00 -0.64999999231E+04  0.65000000000E+04  0.10000000000E+01 0.  0.
    9000001    1    1    2    0    0  0.16805011087E+04 -0.61315323224E+04  0.13528586043E+04  0.65000000000E+04  0.10000000000E+01 0.  0.
    9000001    1    1    2    0    0 -0.16805011087E+04  0.61315323224E+04 -0.13528586043E+04  0.65000000000E+04  0.10000000000E+01 0.  0.
</event>
<event>
 4    1  0.2191064E-006  0.1300000E+05  0.7957747E-01  0.1322471E+00
    9000001   -1    0    0    0    0  0.00000000000E+00  0.00000000000E+00  0.64999999231E+04  0.65000000000E+04  0.10000000000E+01 0.  0.
    9000001   -1    0    0    0    0 -0.00000000000E+00 -0.00000000000E+00 -0.64999999231E+04  0.65000000000E+04  0.10000000000E+01 0.  0.
    9000001    1    1    2    0    0  0.11850690849E+04 -0.21927369289E+04  0.60031254380E+04  0.65000000000E+04  0.10000000000E+01 0.  0.
    9000001    1    1    2    0    0 -0.11850690849E+04  0.21927369289E+04 -0.60031254380E+04  0.65000000000E+04  0.10000000000E+01 0.  0.
</event>
<event>
 4    1  0.2191064E-006  0.1300000E+05  0.7957747E-01  0.1322471E+00
    9000001   -1    0    0    0    0  0.00000000000E+00  0.00000000000E+00  0.64999999231E+04  0.65000000000E+04  0.10000000000E+01 0.  0.
    9000001   -1    0    0    0    0 -0.00000000000E+00 -0.00000000000E+00 -0.64999999231E+04  0.65000000000E+04  0.10000000000E+01 0.  0.
    9000001    1    1    2    0    0 -0.14348190486E+04 -0.26445200771E+04  0.57617538007E+04  0.65000000000E+04  0.10000000000E+01 0.  0.
    9000001    1    1    2    0    0  0.14348190486E+04  0.26445200771E+04 -0.57617538007E+04  0.65000000000E+04  0.10000000000E+01 0.  0.
</event>
<event>
 4    1  0.2191064E-006  0.1300000E+05  0.7957747E-01  0.1322471E+00
    9000001   -1    0    0    0    0  0.00000000000E+00  0.00000000000E+00  0.64999999231E+04  0.65000000000E+04  0.10000000000E+01 0.  0.
    9000001   -1    0    0    0    0 -0.00000000000E+00 -0.00000000000E+00 -0.64999999231E+04  0.65000000000E+04  0.10000000000E+01 0.  0.
    9000001    1    1    2    0    0 -0.30942536479E+04 -0.37304271232E+04 -0.43312246352E+04  0.65000000000E+04  0.10000000000E+01 0.  0.
    9000001    1    1    2    0    0  0.30942536479E+04  0.37304271232E+04  0.43312246352E+04  0.65000000000E+04  0.10000000000E+01 0.  0.
</event>
<event>
 4    1  0.2191064E-006  0.1300000E+05  0.7957747E-01  0.1322471E+00
    9000001   -1    0    0    0    0  0.00000000000E+00  0.00000000000E+00  0.64999999231E+04  0.65000000000E+04  0.10000000000E+01 0.  0.
    9000001   -1    0    0    0    0 -0.00000000000E+00 -0.00000000000E+00 -0.64999999231E+04  0.65000000000E+04  0.10000000000E+01 0.  0.
    9000001    1    1    2    0    0  0.53200219549E+04  0.37291153974E+04 -0.20264193294E+03  0.65000000000E+04  0.10000000000E+01 0.  0.
    9000001    1    1    2    0    0 -0.53200219549E+04 -0.37291153974E+04  0.20264193294E+03  0.65000000000E+04  0.10000000000E+01 0.  0.
</event>
<event>
 4    1  0.2191064E-006  0.1300000E+05  0.7957747E-01  0.1322471E+00
    9000001   -1    0    0    0    0  0.00000000000E+00  0.00000000000E+00  0.64999999231E+04  0.65000000000E+04  0.10000000000E+01 0.  0.
    9000001   -1    0    0    0    0 -0.00000000000E+00 -0.00000000000E+00 -0.64999999231E+04  0.65000000000E+04  0.10000000000E+01 0.  0.
    9000001    1    1    2    0    0 -0.27026732238E+04  0.53013290324E+04 -0.26156197996E+04  0.65000000000E+04  0.10000000000E+01 0.  0.
    9000001    1    1    2    0    0  0.27026732238E+04 -0.53013290324E+04  0.26156197996E+04  0.65000000000E+04  0.10000000000E+01 0.  0.
</event>
<event>
 4    1  0.2191064E-006  0.1300000E+05  0.7957747E-01  0.1322471E+00
    9000001   -1    0    0    0    0  0.00000000000E+00  0.00000000000E+00  0.64999999231E+04  0.65000000000E+04  0.10000000000E+01 0.  0.
    9000001   -1    0    0    0    0 -0.00000000000E+00 -0.00000000000E+00 -0.64999999231E+04  0.65000000000E+04  0.10000000000E+01 0.  0.
    9000001    1    1    2    0    0 -0.33929681521E+04  0.48659425202E+04  0.26571355834E+04  0.65000000000E+04  0.10000000000E+01 0.  0.
    9000001    1    1    2    0    0  0.33929681521E+04 -0.48659425202E+04 -0.26571355834E+04  0.65000000000E+04  0.10000000000E+01 0.  0.
</event>
<event>
 4    1  0.2191064E-006  0.1300000E+05  0.7957747E-01  0.1322471E+00
    9000001   -1    0    0    0    0  0.00000000000E+00  0.00000000000E+00  0.64999999231E+04  0.65000000000E+04  0.10000000000E+01 0.  0.
    9000001   -1    0    0    0    0 -0.00000000000E+00 -0.00000000000E+00 -0.64999999231E+04  0.65000000000E+04  0.10000000000E+01 0.  0.
    9000001    1    1    2    0    0 -0.13146627679E+04  0.63203114082E+04  0.75850149008E+03  0.65000000000E+04  0.10000000000E+01 0.  0.
    9000001    1    1    2    0    0  0.13146627679E+04 -0.63203114082E+04 -0.75850149008E+03  0.65000000000E+04  0.10000000000E+01 0.  0.
</event>
<event>
 4    1  0.2191064E-006  0.1300000E+05  0.7957747E-01  0.1322471E+00
    9000001   -1    0    0    0    0  0.00000000000E+00  0.00000000000E+00  0.64999999231E+04  0.65000000000E+04  0.10000000000E+01 0.  0.
    9000001   -1    0    0    0    0 -0.00000000000E+00 -0.00000000000E+00 -0.64999999231E+04  0.65000000000E+04  0.10000000000E+01 0.  0.
    9000001    1    1    2    0    0 -0.64803758303E+04 -0.13637116195E+03 -0.48593312748E+03  0.65000000000E+04  0.10000000000E+01 0.  0.
    9000001    1    1    2    0    0  0.64803758303E+04  0.13637116195E+03  0.48593312748E+03  0.65000000000E+04  0.10000000000E+01 0.  0.
</event>
<event>
 4    1  0.2191064E-006  0.1300000E+05  0.7957747E-01  0.1322471E+00
    9000001   -1    0    0    0    0  0.00000000000E+00  0.00000000000E+00  0.64999999231E+04  0.65000000000E+04  0.10000000000E+01 0.  0.
    9000001   -1    0    0    0    0 -0.00000000000E+00 -0.00000000000E+00 -0.64999999231E+04  0.65000000000E+04  0.10000000000E+01 0.  0.
    9000001    1    1    2    0    0 -0.25161418781E+04  0.15835153203E+04  0.57802688761E+04  0.65000000000E+04  0.10000000000E+01 0.  0.
    9000001    1    1    2    0    0  0.25161418781E+04 -0.15835153203E+04 -0.57802688761E+04  0.65000000000E+04  0.10000000000E+01 0.  0.
</event>
<event>
 4    1  0.2191064E-006  0.1300000E+05  0.7957747E-01  0.1322471E+00
    9000001   -1    0    0    0    0  0.00000000000E+00  0.00000000000E+00  0.64999999231E+04  0.65000000000E+04  0.10000000000E+01 0.  0.
    9000001   -1    0    0    0    0 -0.00000000000E+00 -0.00000000000E+00 -0.64999999231E+04  0.65000000000E+04  0.10000000000E+01 0.  0.
    9000001    1    1    2    0    0  0.63012433445E+04  0.94674079663E+03 -0.12837496554E+04  0.65000000000E+04  0.10000000000E+01 0.  0.
    9000001    1    1    2    0    0 -0.63012433445E+04 -0.94674079663E+03  0.12837496554E+04  0.65000000000E+04  0.10000000000E+01 0.  0.
</event>
<event>
 4    1  0.2191064E-006  0.1300000E+05  0.7957747E-01  0.1322471E+00
    9000001   -1    0    0    0    0  0.00000000000E+00  0.00000000000E+00  0.64999999231E+04  0.65000000000E+04  0.10000000000E+01 0.  0.
    9000001   -1    0    0    0    0 -0.00000000000E+00 -0.00000000000E+00 -0.64999999231E+04  0.65000000000E+04  0.10000000000E+01 0.  0.
    9000001    1    1    2    0    0  0.15545015415E+04  0.42687557055E+04 -0.46487900237E+04  0.65000000000E+04  0.10000000000E+01 0.  0.
    9000001    1    1    2    0    0 -0.15545015415E+04 -0.42687557055E+04  0.46487900237E+04  0.65000000000E+04  0.10000000000E+01 0.  0.
</event>
<event>
 4    1  0.2191064E-006  0.1300000E+05  0.7957747E-01  0.1322471E+00
    9000001   -1    0    0    0    0  0.00000000000E+00  0.00000000000E+00  0.64999999231E+04  0.65000000000E+04  0.10000000000E+01 0.  0.
    9000001   -1    0    0    0    0 -0.00000000000E+00 -0.00000000000E+00 -0.64999999231E+04  0.65000000000E+04  0.10000000000E+01 0.  0.
    9000001    1    1    2    0    0 -0.82664986607E+03 -0.64132640526E+04  0.66082765579E+03  0.65000000000E+04  0.10000000000E+01 0.  0.
    9000001    1    1    2    0    0  0.82664986607E+03  0.64132640526E+04 -0.66082765579E+03  0.65000000000E+04  0.10000000000E+01 0.  0.
</event>
<event>
 4    1  0.2191064E-006  0.1300000E+05  0.7957747E-01  0.1322471E+00
    9000001   -1    0    0    0    0  0.00000000000E+00  0.00000000000E+00  0.64999999231E+04  0.65000000000E+04  0.10000000000E+01 0.  0.
    9000001   -1    0    0    0    0 -0.00000000000E+00 -0.00000000000E+00 -0.64999999231E+04  0.65000000000E+04  0.10000000000E+01 0.  0.
    9000001    1    1    2    0    0  0.32266227190E+04 -0.10553862139E+04 -0.55430194632E+04  0.65000000000E+04  0.10000000000E+01 0.  0.
    9000001    1    1    2    0    0 -0.32266227190E+04  0.10553862139E+04  0.55430194632E+04  0.65000000000E+04  0.10000000000E+01 0.  0.
</event>
<event>
 4    1  0.2191064E-006  0.1300000E+05  0.7957747E-01  0.1322471E+00
    9000001   -1    0    0    0    0  0.00000000000E+00  0.00000000000E+00  0.64999999231E+04  0.65000000000E+04  0.10000000000E+01 0.  0.
    9000001   -1    0    0    0    0 -0.00000000000E+00 -0.00000000000E+00 -0.64999999231E+04  0.65000000000E+04  0.10000000000E+01 0.  0.
    9000001    1    1    2    0    0  0.37133189862E+04 -0.52807532258E+04 -0.75822587291E+03  0.65000000000E+04  0.10000000000E+01 0.  0.
    9000001    1    1    2    0    0 -0.37133189862E+04  0.52807532258E+04  0.75822587291E+03  0.65000000000E+04  0.10000000000E+01 0.  0.
</event>
<event>
 4    1  0.2191064E-006  0.1300000E+05  0.7957747E-01  0.1322471E+00
    9000001   -1    0    0    0    0  0.00000000000E+00  0.00000000000E+00  0.64999999231E+04  0.65000000000E+04  0.10000000000E+01 0.  0.
    9000001   -1    0    0    0    0 -0.00000000000E+00 -0.00000000000E+00 -0.64999999231E+04  0.65000000000E+04  0.10000000000E+01 0.  0.
    9000001    1    1    2    0    0  0.35537990666E+04 -0.10014532497E+04 -0.53495422779E+04  0.65000000000E+04  0.10000000000E+01 0.  0.
    9000001    1    1    2    0    0 -0.35537990666E+04  0.10014532497E+04  0.53495422779E+04  0.65000000000E+04  0.10000000000E+01 0.  0.
</event>
<event>
 4    1  0.2191064E-006  0.1300000E+05  0.7957747E-01  0.1322471E+00
    9000001   -1    0    0    0    0  0.00000000000E+00  0.00000000000E+00  0.64999999231E+04  0.65000000000E+04  0.10000000000E+01 0.  0.
    9000001   -1    0    0    0    0 -0.00000000000E+00 -0.00000000000E+00 -0.64999999231E+04  0.65000000000E+04  0.10000000000E+01 0.  0.
    9000001    1    1    2    0    0 -0.17949864072E+04 -0.42578963878E+04 -0.45714703486E+04  0.65000000000E+04  0.10000000000E+01 0.  0.
    9000001    1    1    2    0    0  0.17949864072E+04  0.42578963878E+04  0.45714703486E+04  0.65000000000E+04  0.10000000000E+01 0.  0.
</event>
<event>
 4    1  0.2191064E-006  0.1300000E+05  0.7957747E-01  0.1322471E+00
    9000001   -1    0    0    0    0  0.00000000000E+00  0.00000000000E+00  0.64999999231E+04  0.65000000000E+04  0.10000000000E+01 0.  0.
    9000001   -1    0    0    0    0 -0.00000000000E+00 -0.00000000000E+00 -0.64999999231E+04  0.65000000000E+04  0.10000000000E+01 0.  0.
    9000001    1    1    2    0    0  0.46947171614E+04  0.40479295247E+04  0.19554785444E+04  0.65000000000E+04  0.10000000000E+01 0.  0.
    9000001    1    1    2    0    0 -0.46947171614E+04 -0.40479295247E+04 -0.19554785444E+04  0.65000000000E+04  0.10000000000E+01 0.  0.
</event>
<event>
 4    1  0.2191064E-006  0.1300000E+05  0.7957747E-01  0.1322471E+00
    9000001   -1    0    0    0    0  0.00000000000E+00  0.00000000000E+00  0.64999999231E+04  0.65000000000E+04  0.10000000000E+01 0.  0.
    9000001   -1    0    0    0    0 -0.00000000000E+00 -0.00000000000E+00 -0.64999999231E+04  0.65000000000E+04  0.10000000000E+01 0.  0.
    9000001    1    1    2    0    0  0.38647661848E+04  0.33050088745E+04  0.40485179605E+04  0.65000000000E+04  0.10000000000E+01 0.  0.
    9000001    1    1    2    0    0 -0.38647661848E+04 -0.33050088745E+04 -0.40485179605E+04  0.65000000000E+04  0.10000000000E+01 0.  0.
</event>
<event>
 4    1  0.2191064E-006  0.1300000E+05  0.7957747E-01  0.1322471E+00
    9000001   -1    0    0    0    0  0.00000000000E+00  0.00000000000E+00  0.64999999231E+04  0.65000000000E+04  0.10000000000E+01 0.  0.
    9000001   -1    0    0    0    0 -0.00000000000E+00 -0.00000000000E+00 -0.64999999231E+04  0.65000000000E+04  0.10000000000E+01 0.  0.
    9000001    1    1    2    0    0  0.26356047569E+03 -0.60661419603E+04  0.23200121967E+04  0.65000000000E+04  0.10000000000E+01 0.  0.
    9000001    1    1    2    0    0 -0.26356047569E+03  0.60661419603E+04 -0.23200121967E+04  0.65000000000E+04  0.10000000000E+01 0.  0.
</event>
<event>
 4    1  0.2191064E-006  0.1300000E+05  0.7957747E-01  0.1322471E+00
    9000001   -1    0    0    0    0  0.00000000000E+00  0.00000000000E+00  0.64999999231E+04  0.65000000000E+04  0.10000000000E+01 0.  0.
    9000001   -1    0    0    0    0 -0.00000000000E+00 -0.00000000000E+00 -0.64999999231E+04  0.65000000000E+04  0.10000000000E+01 0.  0.
    9000001    1    1    2    0    0 -0.21110649762E+04 -0.18492738917E+03 -0.61448519532E+04  0.65000000000E+04  0.10000000000E+01 0.  0.
    9000001    1    1    2    0    0  0.21110649762E+04  0.18492738917E+03  0.61448519532E+04  0.65000000000E+04  0.10000000000E+01 0.  0.
</event>
<event>
 4    1  0.2191064E-006  0.1300000E+05  0.7957747E-01  0.1322471E+00
    9000001   -1    0    0    0    0  0.00000000000E+00  0.00000000000E+00  0.64999999231E+04  0.65000000000E+04  0.10000000000E+01 0.  0.
    9000001   -1    0    0    0    0 -0.00000000000E+00 -0.00000000000E+00 -0.64999999231E+04  0.65000000000E+04  0.10000000000E+01 0.  0.
    9000001    1    1    2    0    0 -0.60417482571E+04 -0.13741750242E+03  0.23934062395E+04  0.65000000000E+04  0.10000000000E+01 0.  0.
    9000001    1    1    2    0    0  0.60417482571E+04  0.13741750242E+03 -0.23934062395E+04  0.65000000000E+04  0.10000000000E+01 0.  0.
</event>
<event>
 4    1  0.2191064E-006  0.1300000E+05  0.7957747E-01  0.1322471E+00
    9000001   -1    0    0    0    0  0.00000000000E+00  0.00000000000E+00  0.64999999231E+04  0.65000000000E+04  0.10000000000E+01 0.  0.
    9000001   -1    0    0    0    0 -0.00000000000E+00 -0.00000000000E+00 -0.64999999231E+04  0.65000000000E+04  0.10000000000E+01 0.  0.
    9000001    1    1    2    0    0 -0.31617247775E+04 -0.38972436257E+04 -0.41309790067E+04  0.65000000000E+04  0.10000000000E+01 0.  0.
    9000001    1    1    2    0    0  0.31617247775E+04  0.38972436257E+04  0.41309790067E+04  0.65000000000E+04  0.10000000000E+01 0.  0.
</event>
<event>
 4    1  0.2191064E-006  0.1300000E+05  0.7957747E-01  0.1322471E+00
    9000001   -1    0    0    0    0  0.00000000000E+00  0.00000000000E+00  0.64999999231E+04  0.65000000000E+04  0.10000000000E+01 0.  0.
    9000001   -1    0    0    0    0 -0.00000000000E+00 -0.00000000000E+00 -0.64999999231E+04  0.65000000000E+04  0.10000000000E+01 0.  0.
    9000001    1    1    2    0    0  0.55993032103E+03  0.63750772341E+04  0.11379223587E+04  0.65000000000E+04  0.10000000000E+01 0.  0.
    9000001    1    1    2    0    0 -0.55993032103E+03 -0.63750772341E+04 -0.11379223587E+04  0.65000000000E+04  0.10000000000E+01 0.  0.
</event>
<event>
 4    1  0.2191064E-006  0.1300000E+05  0.7957747E-01  0.1322471E+00
    9000001   -1    0    0    0    0  0.00000000000E+00  0.00000000000E+00  0.64999999231E+04  0.65000000000E+04  0.10000000000E+01 0.  0.
    9000001   -1    0    0    0    0 -0.00000000000E+00 -0.00000000000E+00 -0.64999999231E+04  0.65000000000E+04  0.10000000000E+01 0.  0.
    9000001    1    1    2    0    0 -0.64817642052E+04  0.45793063881E+03 -0.16441203824E+03  0.65000000000E+04  0.10000000000E+01 0.  0.
    9000001    1    1    2    0    0  0.64817642052E+04 -0.45793063881E+03  0.16441203824E+03  0.65000000000E+04  0.10000000000E+01 0.  0.
</event>
<event>
 4    1  0.2191064E-006  0.1300000E+05  0.7957747E-01  0.1322471E+00
    9000001   -1    0    0    0    0  0.00000000000E+00  0.00000000000E+00  0.64999999231E+04  0.65000000000E+04  0.10000000000E+01 0.  0.
    9000001   -1    0    0    0    0 -0.00000000000E+00 -0.00000000000E+00 -0.64999999231E+04  0.65000000000E+04  0.10000000000E+01 0.  0.
    9000001    1    1    2    0    0  0.97102786684E+03 -0.60584554644E+04  0.21452788323E+04  0.65000000000E+04  0.10000000000E+01 0.  0.
    9000001    1    1    2    0    0 -0.97102786684E+03  0.60584554644E+04 -0.21452788323E+04  0.65000000000E+04  0.10000000000E+01 0.  0.
</event>
<event>
 4    1  0.2191064E-006  0.1300000E+05  0.7957747E-01  0.1322471E+00
    9000001   -1    0    0    0    0  0.00000000000E+00  0.00000000000E+00  0.64999999231E+04  0.65000000000E+04  0.10000000000E+01 0.  0.
    9000001   -1    0    0    0    0 -0.00000000000E+00 -0.00000000000E+00 -0.64999999231E+04  0.65000000000E+04  0.10000000000E+01 0.  0.
    9000001    1    1    2    0    0  0.56863959812E+04 -0.30302174939E+04 -0.85596827346E+03  0.65000000000E+04  0.10000000000E+01 0.  0.
    9000001    1    1    2    0    0 -0.56863959812E+04  0.30302174939E+04  0.85596827346E+03  0.65000000000E+04  0.10000000000E+01 0.  0.
</event>
<event>
 4    1  0.2191064E-006  0.1300000E+05  0.7957747E-01  0.1322471E+00
    9000001   -1    0    0    0    0  0.00000000000E+00  0.00000000000E+00  0.64999999231E+04  0.65000000000E+04  0.10000000000E+01 0.  0.
    9000001   -1    0    0    0    0 -0.00000000000E+00 -0.00000000000E+00 -0.64999999231E+04  0.65000000000E+04  0.10000000000E+01 0.  0.
    9000001    1    1    2    0    0  0.20160048200E+04 -0.58721548438E+04 -0.19244534435E+04  0.65000000000E+04  0.10000000000E+01 0.  0.
    9000001    1    1    2    0    0 -0.20160048200E+04  0.58721548438E+04  0.19244534435E+04  0.65000000000E+04  0.10000000000E+01 0.  0.
</event>
<event>
 4    1  0.2191064E-006  0.1300000E+05  0.7957747E-01  0.1322471E+00
    9000001   -1    0    0    0    0  0.00000000000E+00  0.00000000000E+00  0.64999999231E+04  0.65000000000E+04  0.10000000000E+01 0.  0.
    9000001   -1    0    0    0    0 -0.00000000000E+00 -0.00000000000E+00 -0.64999999231E+04  0.65000000000E+04  0.10000000000E+01 0.  0.
    9000001    1    1    2    0    0 -0.64881639186E+04  0.35319897249E+03  0.17023058267E+03  0.65000000000E+04  0.10000000000E+01 0.  0.
    9000001    1    1    2    0    0  0.64881639186E+04 -0.35319897249E+03 -0.17023058267E+03  0.65000000000E+04  0.10000000000E+01 0.  0.
</event>
<event>
 4    1  0.2191064E-006  0.1300000E+05  0.7957747E-01  0.1322471E+00
    9000001   -1    0    0    0    0  0.00000000000E+00  0.00000000000E+00  0.64999999231E+04  0.65000000000E+04  0.10000000000E+01 0.  0.
    9000001   -1    0    0    0    0 -0.00000000000E+00 -0.00000000000E+00 -0.64999999231E+04  0.65000000000E+04  0.10000000000E+01 0.  0.
    9000001    1    1    2    0    0  0.14643878314E+04 -0.21596652719E+04  0.59532691181E+04  0.65000000000E+04  0.10000000000E+01 0.  0.
    9000001    1    1    2    0    0 -0.14643878314E+04  0.21596652719E+04 -0.59532691181E+04  0.65000000000E+04  0.10000000000E+01 0.  0.
</event>
<event>
 4    1  0.2191064E-006  0.1300000E+05  0.7957747E-01  0.1322471E+00
    9000001   -1    0    0    0    0  0.00000000000E+00  0.00000000000E+00  0.64999999231E+04  0.65000000000E+04  0.10000000000E+01 0.  0.
    9000001   -1    0    0    0    0 -0.00000000000E+00 -0.00000000000E+00 -0.64999999231E+04  0.65000000000E+04  0.10000000000E+01 0.  0.
    9000001    1    1    2    0    0  0.12166056088E+02  0.44937355298E+03 -0.64844363207E+04  0.65000000000E+04  0.10000000000E+01 0.  0.
    9000001    1    1    2    0    0 -0.12166056088E+02 -0.44937355298E+03  0.64844363207E+04  0.65000000000E+04  0.10000000000E+01 0.  0.
</event>
<event>
 4    1  0.2191064E-006  0.1300000E+05  0.7957747E-01  0.1322471E+00
    9000001   -1    0    0    0    0  0.00000000000E+00  0.00000000000E+00  0.64999999231E+04  0.65000000000E+04  0.10000000000E+01 0.  0.
    9000001   -1    0    0    0    0 -0.00000000000E+00 -0.00000000000E+00 -0.64999999231E+04  0.65000000000E+04  0.10000000000E+01 0.  0.
    9000001    1    1    2    0    0  0.61597584986E+04 -0.32935083735E+03  0.20491223158E+04  0.65000000000E+04  0.10000000000E+01 0.  0.
    9000001    1    1    2    0    0 -0.61597584986E+04  0.32935083735E+03 -0.20491223158E+04  0.65000000000E+04  0.10000000000E+01 0.  0.
</event>
<event>
 4    1  0.2191064E-006  0.1300000E+05  0.7957747E-01  0.1322471E+00
    9000001   -1    0    0    0    0  0.00000000000E+00  0.00000000000E+00  0.64999999231E+04  0.65000000000E+04  0.10000000000E+01 0.  0.
    9000001   -1    0    0    0    0 -0.00000000000E+00 -0.00000000000E+00 -0.64999999231E+04  0.65000000000E+04  0.10000000000E+01 0.  0.
    9000001    1    1    2    0    0 -0.24168372731E+04  0.12369906602E+04  0.59058234567E+04  0.65000000000E+04  0.10000000000E+01 0.  0.
    9000001    1    1    2    0    0  0.24168372731E+04 -0.12369906602E+04 -0.59058234567E+04  0.65000000000E+04  0.10000000000E+01 0.  0.
</event>
<event>
 4    1  0.2191064E-006  0.1300000E+05  0.7957747E-01  0.1322471E+00
    9000001   -1    0    0    0    0  0.00000000000E+00  0.00000000000E+00  0.64999999231E+04  0.65000000000E+04  0.10000000000E+01 0.  0.
    9000001   -1    0    0    0    0 -0.00000000000E+00 -0.00000000000E+00 -0.64999999231E+04  0.65000000000E+04  0.10000000000E+01 0.  0.
    9000001    1    1    2    0    0  0.31269917343E+04  0.25623336727E+04 -0.50898298443E+04  0.65000000000E+04  0.10000000000E+01 0.  0.
    9000001    1    1    2    0    0 -0.31269917343E+04 -0.25623336727E+04  0.50898298443E+04  0.65000000000E+04  0.10000000000E+01 0.  0.
</event>
<event>
 4    1  0.2191064E-006  0.1300000E+05  0.7957747E-01  0.1322471E+00
    9000001   -1    0    0    0    0  0.00000000000E+00  0.00000000000E+00  0.64999999231E+04  0.65000000000E+04  0.10000000000E+01 0.  0.
    9000001   -1    0    0    0    0 -0.00000000000E+00 -0.00000000000E+00 -0.64999999231E+04  0.65000000000E+04  0.10000000000E+01 0.  0.
    9000001    1    1    2    0    0  0.36742501147E+04 -0.52814517950E+04 -0.92528483808E+03  0.65000000000E+04  0.10000000000E+01 0.  0.
    9000001    1    1    2    0    0 -0.36742501147E+04  0.52814517950E+04  0.92528483808E+03  0.65000000000E+04  0.10000000000E+01 0.  0.
</event>
<event>
 4    1  0.2191064E-006  0.1300000E+05  0.7957747E-01  0.1322471E+00
    9000001   -1    0    0    0    0  0.00000000000E+00  0.00000000000E+00  0.64999999231E+04  0.65000000000E+04  0.10000000000E+01 0.  0.
    9000001   -1    0    0    0    0 -0.00000000000E+00 -0.00000000000E+00 -0.64999999231E+04  0.65000000000E+04  0.10000000000E+01 0.  0.
    9000001    1    1    2    0    0 -0.36981936147E+04  0.36509053829E+04 -0.39043889244E+04  0.65000000000E+04  0.10000000000E+01 0.  0.
    9000001    1    1    2    0    0  0.36981936147E+04 -0.36509053829E+04  0.39043889244E+04  0.65000000000E+04  0.10000000000E+01 0.  0.
</event>
<event>
 4    1  0.2191064E-006  0.1300000E+05  0.7957747E-01  0.1322471E+00
    9000001   -1    0    0    0    0  0.00000000000E+00  0.00000000000E+00  0.64999999231E+04  0.65000000000E+04  0.10000000000E+01 0.  0.
    9000001   -1    0    0    0    0 -0.00000000000E+00 -0.00000000000E+00 -0.64999999231E+04  0.65000000000E+04  0.10000000000E+01 0.  0.
    9000001    1    1    2    0    0  0.62675359563E+04 -0.10485650566E+04  0.13669320975E+04  0.65000000000E+04  0.10000000000E+01 0.  0.
    9000001    1    1    2    0    0 -0.62675359563E+04  0.10485650566E+04 -0.13669320975E+04  0.65000000000E+04  0.10000000000E+01 0.  0.
</event>
<event>
 4    1  0.2191064E-006  0.1300000E+05  0.7957747E-01  0.1322471E+00
    9000001   -1    0    0    0    0  0.00000000000E+00  0.00000000000E+00  0.64999999231E+04  0.65000000000E+04  0.10000000000E+01 0.  0.
    9000001   -1    0    0    0    0 -0.00000000000E+00 -0.00000000000E+00 -0.64999999231E+04  0.65000000000E+04  0.10000000000E+01 0.  0.
    9000001    1    1    2    0    0 -0.18967872000E+04  0.29987985783E+04  0.54460448405E+04  0.65000000000E+04  0.10000000000E+01 0.  0.
    9000001    1    1    2    0    0  0.18967872000E+04 -0.29987985783E+04 -0.54460448405E+04  0.65000000000E+04  0.10000000000E+01 0.  0.
</event>
<event>
 4    1  0.2191064E-006  0.1300000E+05  0.7957747E-01  0.1322471E+00
    9000001   -1    0    0    0    0  0.00000000000E+00  0.00000000000E+00  0.64999999231E+04  0.65000000000E+04  0.10000000000E+01 0.  0.
    9000001   -1    0    0    0    0 -0.00000000000E+00 -0.00000000000E+00 -0.64999999231E+04  0.65000000000E+04  0.10000000000E+01 0.  0.
    9000001    1    1    2    0    0 -0.35257378960E+04 -0.52371657796E+04  0.15463718459E+04  0.65000000000E+04  0.10000000000E+01 0.  0.
    9000001    1    1    2    0    0  0.35257378960E+04  0.52371657796E+04 -0.15463718459E+04  0.65000000000E+04  0.10000000000E+01 0.  0.
</event>
<event>
 4    1  0.2191064E-006  0.1300000E+05  0.7957747E-01  0.1322471E+00
    9000001   -1    0    0    0    0  0.00000000000E+00  0.00000000000E+00  0.64999999231E+04  0.65000000000E+04  0.10000000000E+01 0.  0.
    9000001   -1    0    0    0    0 -0.00000000000E+00 -0.00000000000E+00 -0.64999999231E+04  0.65000000000E+04  0.10000000000E+01 0.  0.
    9000001    1    1    2    0    0  0.40217936353E+04 -0.47415355101E+04  0.18955252468E+04  0.65000000000E+04  0.10000000000E+01 0.  0.
    9000001    1    1    2    0    0 -0.40217936353E+04  0.47415355101E+04 -0.18955252468E+04  0.65000000000E+04  0.10000000000E+01 0.  0.
</event>
<event>
 4    1  0.2191064E-006  0.1300000E+05  0.7957747E-01  0.1322471E+00
    9000001   -1    0    0    0    0  0.00000000000E+00  0.00000000000E+00  0.64999999231E+04  0.65000000000E+04  0.10000000000E+01 0.  0.
    9000001   -1    0    0    0    0 -0.00000000000E+00 -0.00000000000E+00 -0.64999999231E+04  0.65000000000E+04  0.10000000000E+01 0.  0.
    9000001    1    1    2    0    0  0.37020663282E+04 -0.39856772898E+04  0.35579601520E+04  0.65000000000E+04  0.10000000000E+01 0.  0.
    9000001    1    1    2    0    0 -0.37020663282E+04  0.39856772898E+04 -0.35579601520E+04  0.65000000000E+04  0.10000000000E+01 0.  0.
</event>
<event>
 4    1  0.2191064E-006  0.1300000E+05  0.7957747E-01  0.1322471E+00
    9000001   -1    0    0    0    0  0.00000000000E+00  0.00000000000E+00  0.64999999231E+04  0.65000000000E+04  0.10000000000E+01 0.  0.
    9000001   -1    0    0    0    0 -0.00000000000E+00 -0.00000000000E+00 -0.64999999231E+04  0.65000000000E+04  0.10000000000E+01 0.  0.
    9000001    1    1    2    0    0 -0.50825766076E+04  0.35545706712E+04 -0.19448499612E+04  0.65000000000E+04  0.10000000000E+01 0.  0.
    9000001    1    1    2    0    0  0.50825766076E+04 -0.35545706712E+04  0.19448499612E+04  0.65000000000E+04  0.10000000000E+01 0.  0.
</event>
<event>
 4    1  0.2191064E-006  0.1300000E+05  0.7957747E-01  0.1322471E+00
    9000001   -1    0    0    0    0  0.00000000000E+00  0.00000000000E+00  0.64999999231E+04  0.65000000000E+04  0.10000000000E+01 0.  0.
    9000001   -1    0    0    0    0 -0.00000000000E+00 -0.00000000000E+00 -0.64999999231E+04  0.65000000000E+04  0.10000000000E+01 0.  0.
    9000001    1    1    2    0    0 -0.27594468259E+04 -0.58222340772E+03 -0.58563186490E+04  0.65000000000E+04  0.10000000000E+01 0.  0.
    9000001    1    1    2    0    0  0.27594468259E+04  0.58222340772E+03  0.58563186490E+04  0.65000000000E+04  0.10000000000E+01 0.  0.
</event>
<event>
 4    1  0.2191064E-006  0.1300000E+05  0.7957747E-01  0.1322471E+00
    9000001   -1    0    0    0    0  0.00000000000E+00  0.00000000000E+00  0.64999999231E+04  0.65000000000E+04  0.10000000000E+01 0.  0.
    9000001   -1    0    0    0    0 -0.00000000000E+00 -0.00000000000E+00 -0.64999999231E+04  0.65000000000E+04  0.10000000000E+01 0.  0.
    9000001    1    1    2    0    0 -0.57183784599E+04 -0.30741126603E+04 -0.31619320163E+03  0.65000000000E+04  0.10000000000E+01 0.  0.
    9000001    1    1    2    0    0  0.57183784599E+04  0.30741126603E+04  0.31619320163E+03  0.65000000000E+04  0.10000000000E+01 0.  0.
</event>
<event>
 4    1  0.2191064E-006  0.1300000E+05  0.7957747E-01  0.1322471E+00
    9000001   -1    0    0    0    0  0.00000000000E+00  0.00000000000E+00  0.64999999231E+04  0.65000000000E+04  0.10000000000E+01 0.  0.
    9000001   -1    0    0    0    0 -0.00000000000E+00 -0.00000000000E+00 -0.64999999231E+04  0.65000000000E+04  0.10000000000E+01 0.  0.
    9000001    1    1    2    0    0 -0.52293445505E+04 -0.36148145219E+04 -0.13553857548E+04  0.65000000000E+04  0.10000000000E+01 0.  0.
    9000001    1    1    2    0    0  0.52293445505E+04  0.36148145219E+04  0.13553857548E+04  0.65000000000E+04  0.10000000000E+01 0.  0.
</event>
<event>
 4    1  0.2191064E-006  0.1300000E+05  0.7957747E-01  0.1322471E+00
    9000001   -1    0    0    0    0  0.00000000000E+00  0.00000000000E+00  0.64999999231E+04  0.65000000000E+04  0.10000000000E+01 0.  0.
    9000001   -1    0    0    0    0 -0.00000000000E+00 -0.00000000000E+00 -0.64999999231E+04  0.65000000000E+04  0.10000000000E+01 0.  0.
    9000001    1    1    2    0    0 -0.24183222914E+04  0.24626529138E+04 -0.55079085796E+04  0.65000000000E+04  0.10000000000E+01 0.  0.
    9000001    1    1    2    0    0  0.24183222914E+04 -0.24626529138E+04  0.55079085796E+04  0.65000000000E+04  0.10000000000E+01 0.  0.
</event>
<event>
 4    1  0.2191064E-006  0.1300000E+05  0.7957747E-01  0.1322471E+00
    9000001   -1    0    0    0    0  0.00000000000E+00  0.00000000000E+00  0.64999999231E+04  0.65000000000E+04  0.10000000000E+01 0.  0.
    9000001   -1    0    0    0    0 -0.00000000000E+00 -0.00000000000E+00 -0.64999999231E+04  0.65000000000E+04  0.10000000000E+01 0.  0.
    9000001    1    1    2    0    0  0.19170690806E+04 -0.51953603837E+04  0.34033917823E+04  0.65000000000E+04  0.10000000000E+01 0.  0.
    9000001    1    1    2    0    0 -0.19170690806E+04  0.51953603837E+04 -0.34033917823E+04  0.65000000000E+04  0.10000000000E+01 0.  0.
</event>
<event>
 4    1  0.2191064E-006  0.1300000E+05  0.7957747E-01  0.1322471E+00
    9000001   -1    0    0    0    0  0.00000000000E+00  0.00000000000E+00  0.64999999231E+04  0.65000000000E+04  0.10000000000E+01 0.  0.
    9000001   -1    0    0    0    0 -0.00000000000E+00 -0.00000000000E+00 -0.64999999231E+04  0.65000000000E+04  0.10000000000E+01 0.  0.
    9000001    1    1    2    0    0  0.25401818707E+04  0.54592397804E+04  0.24483006523E+04  0.65000000000E+04  0.10000000000E+01 0.  0.
    9000001    1    1    2    0    0 -0.25401818707E+04 -0.54592397804E+04 -0.24483006523E+04  0.65000000000E+04  0.10000000000E+01 0.  0.
</event>
<event>
 4    1  0.2191064E-006  0.1300000E+05  0.7957747E-01  0.1322471E+00
    9000001   -1    0    0    0    0  0.00000000000E+00  0.00000000000E+00  0.64999999231E+04  0.65000000000E+04  0.10000000000E+01 0.  0.
    9000001   -1    0    0    0    0 -0.00000000000E+00 -0.00000000000E+00 -0.64999999231E+04  0.65000000000E+04  0.10000000000E+01 0.  0.
    9000001    1    1    2    0    0 -0.19977755923E+03  0.55158970143E+04  0.34329241259E+04  0.65000000000E+04  0.10000000000E+01 0.  0.
    9000001    1    1    2    0    0  0.19977755923E+03 -0.55158970143E+04 -0.34329241259E+04  0.65000000000E+04  0.10000000000E+01 0.  0.
</event>
<event>
 4    1  0.2191064E-006  0.1300000E+05  0.7957747E-01  0.1322471E+00
    9000001   -1    0    0    0    0  0.00000000000E+00  0.00000000000E+00  0.64999999231E+04  0.65000000000E+04  0.10000000000E+01 0.  0.
    9000001   -1    0    0    0    0 -0.00000000000E+00 -0.00000000000E+00 -0.64999999231E+04  0.65000000000E+04  0.10000000000E+01 0.  0.
    9000001    1    1    2    0    0  0.17222707172E+04  0.99526066249E+03 -0.61881531001E+04  0.65000000000E+04  0.10000000000E+01 0.  0.
    9000001    1    1    2    0    0 -0.17222707172E+04 -0.99526066249E+03  0.61881531001E+04  0.65000000000E+04  0.10000000000E+01 0.  0.
</event>
<event>
 4    1  0.2191064E-006  0.1300000E+05  0.7957747E-01  0.1322471E+00
    9000001   -1    0    0    0    0  0.00000000000E+00  0.00000000000E+00  0.64999999231E+04  0.65000000000E+04  0.10000000000E+01 0.  0.
    9000001   -1    0    0    0    0 -0.00000000000E+00 -0.00000000000E+00 -0.64999999231E+04  0.65000000000E+04  0.10000000000E+01 0.  0.
    9000001    1    1    2    0    0  0.42211694500E+04 -0.47661012051E+04  0.13099644183E+04  0.65000000000E+04  0.10000000000E+01 0.  0.
    9000001    1    1    2    0    0 -0.42211694500E+04  0.47661012051E+04 -0.13099644183E+04  0.65000000000E+04  0.10000000000E+01 0.  0.
</event>
<event>
 4    1  0.2191064E-006  0.1300000E+05  0.7957747E-01  0.1322471E+00
    9000001   -1    0    0    0    0  0.00000000000E+00  0.00000000000E+00  0.64999999231E+04  0.65000000000E+04  0.10000000000E+01 0.  0.
    9000001   -1    0    0    0    0 -0.00000000000E+00 -0.00000000000E+00 -0.64999999231E+04  0.65000000000E+04  0.10000000000E+01 0.  0.
    9000001    1    1    2    0    0 -0.52716344910E+04 -0.98411239919E+03 -0.36730629696E+04  0.65000000000E+04  0.10000000000E+01 0.  0.
    9000001    1    1    2    0    0  0.52716344910E+04  0.98411239919E+03  0.36730629696E+04  0.65000000000E+04  0.10000000000E+01 0.  0.
</event>
<event>
 4    1  0.2191064E-006  0.1300000E+05  0.7957747E-01  0.1322471E+00
    9000001   -1    0    0    0    0  0.00000000000E+00  0.00000000000E+00  0.64999999231E+04  0.65000000000E+04  0.10000000000E+01 0.  0.
    9000001   -1    0    0    0    0 -0.00000000000E+00 -0.00000000000E+00 -0.64999999231E+04  0.65000000000E+04  0.10000000000E+01 0.  0.
    9000001    1    1    2    0    0  0.38216132283E+04 -0.30745142984E+04  0.42652823074E+04  0.65000000000E+04  0.10000000000E+01 0.  0.
    9000001    1    1    2    0    0 -0.38216132283E+04  0.30745142984E+04 -0.42652823074E+04  0.65000000000E+04  0.10000000000E+01 0.  0.
</event>
<event>
 4    1  0.2191064E-006  0.1300000E+05  0.7957747E-01  0.1322471E+00
    9000001   -1    0    0    0    0  0.00000000000E+00  0.00000000000E+00  0.64999999231E+04  0.65000000000E+04  0.10000000000E+01 0.  0.
    9000001   -1    0    0    0    0 -0.00000000000E+00 -0.00000000000E+00 -0.64999999231E+04  0.65000000000E+04  0.10000000000E+01 0.  0.
    9000001    1    1    2    0    0 -0.39534970076E+04  0.24301451012E+04  0.45512915966E+04  0.65000000000E+04  0.10000000000E+01 0.  0.
    9000001    1    1    2    0    0  0.39534970076E+04 -0.24301451012E+04 -0.45512915966E+04  0.65000000000E+04  0.10000000000E+01 0.  0.
</event>
<event>
 4    1  0.2191064E-006  0.1300000E+05  0.7957747E-01  0.1322471E+00
    9000001   -1    0    0    0    0  0.00000000000E+00  0.00000000000E+00  0.64999999231E+04  0.65000000000E+04  0.10000000000E+01 0.  0.
    9000001   -1    0    0    0    0 -0.00000000000E+00 -0.00000000000E+00 -0.64999999231E+04  0.65000000000E+04  0.10000000000E+01 0.  0.
    9000001    1    1    2    0    0  0.34038941359E+04  0.51023174877E+04 -0.21517109393E+04  0.65000000000E+04  0.10000000000E+01 0.  0.
    9000001    1    1    2    0    0 -0.34038941359E+04 -0.51023174877E+04  0.21517109393E+04  0.65000000000E+04  0.10000000000E+01 0.  0.
</event>
<event>
 4    1  0.2191064E-006  0.1300000E+05  0.7957747E-01  0.1322471E+00
    9000001   -1    0    0    0    0  0.00000000000E+00  0.00000000000E+00  0.64999999231E+04  0.65000000000E+04  0.10000000000E+01 0.  0.
    9000001   -1    0    0    0    0 -0.00000000000E+00 -0.00000000000E+00 -0.64999999231E+04  0.65000000000E+04  0.10000000000E+01 0.  0.
    9000001    1    1    2    0    0 -0.19293053061E+04  0.18730135775E+04 -0.59177360683E+04  0.65000000000E+04  0.10000000000E+01 0.  0.
    9000001    1    1    2    0    0  0.19293053061E+04 -0.18730135775E+04  0.59177360683E+04  0.65000000000E+04  0.10000000000E+01 0.  0.
</event>
<event>
 4    1  0.2191064E-006  0.1300000E+05  0.7957747E-01  0.1322471E+00
    9000001   -1    0    0    0    0  0.00000000000E+00  0.00000000000E+00  0.64999999231E+04  0.65000000000E+04  0.10000000000E+01 0.  0.
    9000001   -1    0    0    0    0 -0.00000000000E+00 -0.00000000000E+00 -0.64999999231E+04  0.65000000000E+04  0.10000000000E+01 0.  0.
    9000001    1    1    2    0    0 -0.62637107326E+04 -0.34691068229E+03 -0.17016403371E+04  0.65000000000E+04  0.10000000000E+01 0.  0.
    9000001    1    1    2    0    0  0.62637107326E+04  0.34691068229E+03  0.17016403371E+04  0.65000000000E+04  0.10000000000E+01 0.  0.
</event>
<event>
 4    1  0.2191064E-006  0.1300000E+05  0.7957747E-01  0.1322471E+00
    9000001   -1    0    0    0    0  0.00000000000E+00  0.00000000000E+00  0.64999999231E+04  0.65000000000E+04  0.10000000000E+01 0.  0.
    9000001   -1    0    0    0    0 -0.00000000000E+00 -0.00000000000E+00 -0.64999999231E+04  0.65000000000E+04  0.10000000000E+01 0.  0.
    9000001    1    1    2    0    0  0.23606899538E+04  0.56824740923E+04  0.20944283545E+04  0.65000000000E+04  0.10000000000E+01 0.  0.
    9000001    1    1    2    0    0 -0.23606899538E+04 -0.56824740923E+04 -0.20944283545E+04  0.65000000000E+04  0.10000000000E+01 0.  0.
</event>
<event>
 4    1  0.2191064E-006  0.1300000E+05  0.7957747E-01  0.1322471E+00
    9000001   -1    0    0    0    0  0.00000000000E+00  0.00000000000E+00  0.64999999231E+04  0.65000000000E+04  0.10000000000E+01 0.  0.
    9000001   -1    0    0    0    0 -0.00000000000E+00 -0.00000000000E+00 -0.64999999231E+04  0.65000000000E+04  0.10000000000E+01 0.  0.
    9000001    1    1    2    0    0  0.10594530070E+04  0.56676381187E+04 -0.30009059435E+04  0.65000000000E+04  0.10000000000E+01 0.  0.
    9000001    1    1    2    0    0 -0.10594530070E+04 -0.56676381187E+04  0.30009059435E+04  0.65000000000E+04  0.10000000000E+01 0.  0.
</event>
<event>
 4    1  0.2191064E-006  0.1300000E+05  0.7957747E-01  0.1322471E+00
    9000001   -1    0    0    0    0  0.00000000000E+00  0.00000000000E+00  0.64999999231E+04  0.65000000000E+04  0.10000000000E+01 0.  0.
    9000001   -1    0    0    0    0 -0.00000000000E+00 -0.00000000000E+00 -0.64999999231E+04  0.65000000000E+04  0.10000000000E+01 0.  0.
    9000001    1    1    2    0    0  0.57577882432E+04 -0.46184915049E+03 -0.29806993992E+04  0.65000000000E+04  0.10000000000E+01 0.  0.
    9000001    1    1    2    0    0 -0.57577882432E+04  0.46184915049E+03  0.29806993992E+04  0.65000000000E+04  0.10000000000E+01 0.  0.
</event>
<event>
 4    1  0.2191064E-006  0.1300000E+05  0.7957747E-01  0.1322471E+00
    9000001   -1    0    0    0    0  0.00000000000E+00  0.00000000000E+00  0.64999999231E+04  0.65000000000E+04  0.10000000000E+01 0.  0.
    9000001   -1    0    0    0    0 -0.00000000000E+00 -0.00000000000E+00 -0.64999999231E+04  0.65000000000E+04  0.10000000000E+01 0.  0.
    9000001    1    1    2    0    0 -0.49737976549E+04  0.33646780150E+04 -0.24880268775E+04  0.65000000000E+04  0.10000000000E+01 0.  0.
    9000001    1    1    2    0    0  0.49737976549E+04 -0.33646780150E+04  0.24880268775E+04  0.65000000000E+04  0.10000000000E+01 0.  0.
</event>
<event>
 4    1  0.2191064E-006  0.1300000E+05  0.7957747E-01  0.1322471E+00
    9000001   -1    0    0    0    0  0.00000000000E+00  0.00000000000E+00  0.64999999231E+04  0.65000000000E+04  0.10000000000E+01 0.  0.
    9000001   -1    0    0    0    0 -0.00000000000E+00 -0.00000000000E+00 -0.64999999231E+04  0.65000000000E+04  0.10000000000E+01 0.  0.
    9000001    1    1    2    0    0 -0.62887991175E+04 -0.52541017597E+03  0.15572247130E+04  0.65000000000E+04  0.10000000000E+01 0.  0.
    9000001    1    1    2    0    0  0.62887991175E+04  0.52541017597E+03 -0.15572247130E+04  0.65000000000E+04  0.10000000000E+01 0.  0.
</event>
<event>
 4    1  0.2191064E-006  0.1300000E+05  0.7957747E-01  0.1322471E+00
    9000001   -1    0    0    0    0  0.00000000000E+00  0.00000000000E+00  0.64999999231E+04  0.65000000000E+04  0.10000000000E+01 0.  0.
    9000001   -1    0    0    0    0 -0.00000000000E+00 -0.00000000000E+00 -0.64999999231E+04  0.65000000000E+04  0.10000000000E+01 0.  0.
    9000001    1    1    2    0    0 -0.17413550426E+04  0.35798044945E+04 -0.51383539579E+04  0.65000000000E+04  0.10000000000E+01 0.  0.
    9000001    1    1    2    0    0  0.17413550426E+04 -0.35798044945E+04  0.51383539579E+04  0.65000000000E+04  0.10000000000E+01 0.  0.
</event>
<event>
 4    1  0.2191064E-006  0.1300000E+05  0.7957747E-01  0.1322471E+00
    9000001   -1    0    0    0    0  0.00000000000E+00  0.00000000000E+00  0.64999999231E+04  0.65000000000E+04  0.10000000000E+01 0.  0.
    9000001   -1    0    0    0    0 -0.00000000000E+00 -0.00000000000E+00 -0.64999999231E+04  0.65000000000E+04  0.10000000000E+01 0.  0.
    9000001    1    1    2    0    0 -0.18006417254E+04  0.25193787952E+04  0.57149294714E+04  0.65000000000E+04  0.10000000000E+01 0.  0.
    9000001    1    1    2    0    0  0.18006417254E+04 -0.25193787952E+04 -0.57149294714E+04  0.65000000000E+04  0.10000000000E+01 0.  0.
</event>
<event>
 4    1  0.2191064E-006  0.1300000E+05  0.7957747E-01  0.1322471E+00
    9000001   -1    0    0    0    0  0.00000000000E+00  0.00000000000E+00  0.64999999231E+04  0.65000000000E+04  0.10000000000E+01 0.  0.
    9000001   -1    0    0    0    0 -0.00000000000E+00 -0.00000000000E+00 -0.64999999231E+04  0.65000000000E+04  0.10000000000E+01 0.  0.
    9000001    1    1    2    0    0 -0.17162650210E+04 -0.43788006915E+04  0.44867067970E+04  0.65000000000E+04  0.10000000000E+01 0.  0.
    9000001    1    1    2    0    0  0.17162650210E+04  0.43788006915E+04 -0.44867067970E+04  0.65000000000E+04  0.10000000000E+01 0.  0.
</event>
<event>
 4    1  0.2191064E-006  0.1300000E+05  0.7957747E-01  0.1322471E+00
    9000001   -1    0    0    0    0  0.00000000000E+00  0.00000000000E+00  0.64999999231E+04  0.65000000000E+04  0.10000000000E+01 0.  0.
    9000001   -1    0    0    0    0 -0.00000000000E+00 -0.00000000000E+00 -0.64999999231E+04  0.65000000000E+04  0.10000000000E+01 0.  0.
    9000001    1    1    2    0    0 -0.27372093984E+04 -0.91533458589E+03 -0.58240747167E+04  0.65000000000E+04  0.10000000000E+01 0.  0.
    9000001    1    1    2    0    0  0.27372093984E+04  0.91533458589E+03  0.58240747167E+04  0.65000000000E+04  0.10000000000E+01 0.  0.
</event>
<event>
 4    1  0.2191064E-006  0.1300000E+05  0.7957747E-01  0.1322471E+00
    9000001   -1    0    0    0    0  0.00000000000E+00  0.00000000000E+00  0.64999999231E+04  0.65000000000E+04  0.10000000000E+01 0.  0.
    9000001   -1    0    0    0    0 -0.00000000000E+00 -0.00000000000E+00 -0.64999999231E+04  0.65000000000E+04  0.10000000000E+01 0.  0.
    9000001    1    1    2    0    0 -0.62174937504E+04  0.16975909942E+04  0.84318164126E+03  0.65000000000E+04  0.10000000000E+01 0.  0.
    9000001    1    1    2    0    0  0.62174937504E+04 -0.16975909942E+04 -0.84318164126E+03  0.65000000000E+04  0.10000000000E+01 0.  0.
</event>
<event>
 4    1  0.2191064E-006  0.1300000E+05  0.7957747E-01  0.1322471E+00
    9000001   -1    0    0    0    0  0.00000000000E+00  0.00000000000E+00  0.64999999231E+04  0.65000000000E+04  0.10000000000E+01 0.  0.
    9000001   -1    0    0    0    0 -0.00000000000E+00 -0.00000000000E+00 -0.64999999231E+04  0.65000000000E+04  0.10000000000E+01 0.  0.
    9000001    1    1    2    0    0 -0.19478392206E+04 -0.34672106231E+04 -0.51414367511E+04  0.65000000000E+04  0.10000000000E+01 0.  0.
    9000001    1    1    2    0    0  0.19478392206E+04  0.34672106231E+04  0.51414367511E+04  0.65000000000E+04  0.10000000000E+01 0.  0.
</event>
<event>
 4    1  0.2191064E-006  0.1300000E+05  0.7957747E-01  0.1322471E+00
    9000001   -1    0    0    0    0  0.00000000000E+00  0.00000000000E+00  0.64999999231E+04  0.65000000000E+04  0.10000000000E+01 0.  0.
    9000001   -1    0    0    0    0 -0.00000000000E+00 -0.00000000000E+00 -0.64999999231E+04  0.65000000000E+04  0.10000000000E+01 0.  0.
    9000001    1    1    2    0    0 -0.16317099827E+04  0.55278958231E+04  0.30049774211E+04  0.65000000000E+04  0.10000000000E+01 0.  0.
    9000001    1    1    2    0    0  0.16317099827E+04 -0.55278958231E+04 -0.30049774211E+04  0.65000000000E+04  0.10000000000E+01 0.  0.
</event>
<event>
 4    1  0.2191064E-006  0.1300000E+05  0.7957747E-01  0.1322471E+00
    9000001   -1    0    0    0    0  0.00000000000E+00  0.00000000000E+00  0.64999999231E+04  0.65000000000E+04  0.10000000000E+01 0.  0.
    9000001   -1    0    0    0    0 -0.00000000000E+00 -0.00000000000E+00 -0.64999999231E+04  0.65000000000E+04  0.10000000000E+01 0.  0.
    9000001    1    1    2    0    0  0.53455943806E+04  0.74420818609E+03 -0.36222608815E+04  0.65000000000E+04  0.10000000000E+01 0.  0.
    9000001    1    1    2    0    0 -0.53455943806E+04 -0.74420818609E+03  0.36222608815E+04  0.65000000000E+04  0.10000000000E+01 0.  0.
</event>
<event>
 4    1  0.2191064E-006  0.1300000E+05  0.7957747E-01  0.1322471E+00
    9000001   -1    0    0    0    0  0.00000000000E+00  0.00000000000E+00  0.64999999231E+04  0.65000000000E+04  0.10000000000E+01 0.  0.
    9000001   -1    0    0    0    0 -0.00000000000E+00 -0.00000000000E+00 -0.64999999231E+04  0.65000000000E+04  0.10000000000E+01 0.  0.
    9000001    1    1    2    0    0 -0.50657907761E+04 -0.34858438161E+04  0.21063370345E+04  0.65000000000E+04  0.10000000000E+01 0.  0.
    9000001    1    1    2    0    0  0.50657907761E+04  0.34858438161E+04 -0.21063370345E+04  0.65000000000E+04  0.10000000000E+01 0.  0.
</event>
<event>
 4    1  0.2191064E-006  0.1300000E+05  0.7957747E-01  0.1322471E+00
    9000001   -1    0    0    0    0  0.00000000000E+00  0.00000000000E+00  0.64999999231E+04  0.65000000000E+04  0.10000000000E+01 0.  0.
    9000001   -1    0    0    0    0 -0.00000000000E+00 -0.00000000000E+00 -0.64999999231E+04  0.65000000000E+04  0.10000000000E+01 0.  0.
    9000001    1    1    2    0    0  0.62474130689E+04 -0.15789120834E+04 -0.85256412049E+03  0.65000000000E+04  0.10000000000E+01 0.  0.
    9000001    1    1    2    0    0 -0.62474130689E+04  0.15789120834E+04  0.85256412049E+03  0.65000000000E+04  0.10000000000E+01 0.  0.
</event>
<event>
 4    1  0.2191064E-006  0.1300000E+05  0.7957747E-01  0.1322471E+00
    9000001   -1    0    0    0    0  0.00000000000E+00  0.00000000000E+00  0.64999999231E+04  0.65000000000E+04  0.10000000000E+01 0.  0.
    9000001   -1    0    0    0    0 -0.00000000000E+00 -0.00000000000E+00 -0.64999999231E+04  0.65000000000E+04  0.10000000000E+01 0.  0.
    9000001    1    1    2    0    0 -0.35414604212E+04 -0.43257776351E+04  0.33159772220E+04  0.65000000000E+04  0.10000000000E+01 0.  0.
    9000001    1    1    2    0    0  0.35414604212E+04  0.43257776351E+04 -0.33159772220E+04  0.65000000000E+04  0.10000000000E+01 0.  0.
</event>
<event>
 4    1  0.2191064E-006  0.1300000E+05  0.7957747E-01  0.1322471E+00
    9000001   -1    0    0    0    0  0.00000000000E+00  0.00000000000E+00  0.64999999231E+04  0.65000000000E+04  0.10000000000E+01 0.  0.
    9000001   -1    0    0    0    0 -0.00000000000E+00 -0.00000000000E+00 -0.64999999231E+04  0.65000000000E+04  0.10000000000E+01 0.  0.
    9000001    1    1    2    0    0  0.60669401435E+04  0.12454493057E+04  0.19725851877E+04  0.65000000000E+04  0.10000000000E+01 0.  0.
    9000001    1    1    2    0    0 -0.60669401435E+04 -0.12454493057E+04 -0.19725851877E+04  0.65000000000E+04  0.10000000000E+01 0.  0.
</event>
<event>
 4    1  0.2191064E-006  0.1300000E+05  0.7957747E-01  0.1322471E+00
    9000001   -1    0    0    0    0  0.00000000000E+00  0.00000000000E+00  0.64999999231E+04  0.65000000000E+04  0.10000000000E+01 0.  0.
    9000001   -1    0    0    0    0 -0.00000000000E+00 -0.00000000000E+00 -0.64999999231E+04  0.65000000000E+04  0.10000000000E+01 0.  0.
    9000001    1    1    2    0    0 -0.51060273392E+04  0.39229014788E+04 -0.88844121851E+03  0.65000000000E+04  0.10000000000E+01 0.  0.
    9000001    1    1    2    0    0  0.51060273392E+04 -0.39229014788E+04  0.88844121851E+03  0.65000000000E+04  0.10000000000E+01 0.  0.
</event>
<event>
 4    1  0.2191064E-006  0.1300000E+05  0.7957747E-01  0.1322471E+00
    9000001   -1    0    0    0    0  0.00000000000E+00  0.00000000000E+00  0.64999999231E+04  0.65000000000E+04  0.10000000000E+01 0.  0.
    9000001   -1    0    0    0    0 -0.00000000000E+00 -0.00000000000E+00 -0.64999999231E+04  0.65000000000E+04  0.10000000000E+01 0.  0.
    9000001    1    1    2    0    0 -0.47820533497E+03 -0.14821261955E+04 -0.63106751301E+04  0.65000000000E+04  0.10000000000E+01 0.  0.
    9000001    1    1    2    0    0  0.47820533497E+03  0.14821261955E+04  0.63106751301E+04  0.65000000000E+04  0.10000000000E+01 0.  0.
</event>
<event>
 4    1  0.2191064E-006  0.1300000E+05  0.7957747E-01  0.1322471E+00
    9000001   -1    0    0    0    0  0.00000000000E+00  0.00000000000E+00  0.64999999231E+04  0.65000000000E+04  0.10000000000E+01 0.  0.
    9000001   -1    0    0    0    0 -0.00000000000E+00 -0.00000000000E+00 -0.64999999231E+04  0.65000000000E+04  0.10000000000E+01 0.  0.
    9000001    1    1    2    0    0  0.27295911779E+04 -0.85706078055E+03  0.58365039039E+04  0.65000000000E+04  0.10000000000E+01 0.  0.
    9000001    1    1    2    0    0 -0.27295911779E+04  0.85706078055E+03 -0.58365039039E+04  0.65000000000E+04  0.10000000000E+01 0.  0.
</event>
<event>
 4    1  0.2191064E-006  0.1300000E+05  0.7957747E-01  0.1322471E+00
    9000001   -1    0    0    0    0  0.00000000000E+00  0.00000000000E+00  0.64999999231E+04  0.65000000000E+04  0.10000000000E+01 0.  0.
    9000001   -1    0    0    0    0 -0.00000000000E+00 -0.00000000000E+00 -0.64999999231E+04  0.65000000000E+04  0.10000000000E+01 0.  0.
    9000001    1    1    2    0    0 -0.34235196723E+04  0.26708778042E+04 -0.48369333061E+04  0.65000000000E+04  0.10000000000E+01 0.  0.
    9000001    1    1    2    0    0  0.34235196723E+04 -0.26708778042E+04  0.48369333061E+04  0.65000000000E+04  0.10000000000E+01 0.  0.
</event>
<event>
 4    1  0.2191064E-006  0.1300000E+05  0.7957747E-01  0.1322471E+00
    9000001   -1    0    0    0    0  0.00000000000E+00  0.00000000000E+00  0.64999999231E+04  0.65000000000E+04  0.10000000000E+01 0.  0.
    9000001   -1    0    0    0    0 -0.00000000000E+00 -0.00000000000E+00 -0.64999999231E+04  0.65000000000E+04  0.10000000000E+01 0.  0.
    9000001    1    1    2    0    0 -0.55721188514E+03  0.50845326084E+04 -0.40108655013E+04  0.65000000000E+04  0.10000000000E+01 0.  0.
    9000001    1    1    2    0    0  0.55721188514E+03 -0.50845326084E+04  0.40108655013E+04  0.65000000000E+04  0.10000000000E+01 0.  0.
</event>
<event>
 4    1  0.2191064E-006  0.1300000E+05  0.7957747E-01  0.1322471E+00
    9000001   -1    0    0    0    0  0.00000000000E+00  0.00000000000E+00  0.64999999231E+04  0.65000000000E+04  0.10000000000E+01 0.  0.
    9000001   -1    0    0    0    0 -0.00000000000E+00 -0.00000000000E+00 -0.64999999231E+04  0.65000000000E+04  0.10000000000E+01 0.  0.
    9000001    1    1    2    0    0 -0.74515996827E+03 -0.37479149911E+04  0.52581240800E+04  0.65000000000E+04  0.10000000000E+01 0.  0.
    9000001    1    1    2    0    0  0.74515996827E+03  0.37479149911E+04 -0.52581240800E+04  0.65000000000E+04  0.10000000000E+01 0.  0.
</event>
<event>
 4    1  0.2191064E-006  0.1300000E+05  0.7957747E-01  0.1322471E+00
    9000001   -1    0    0    0    0  0.00000000000E+00  0.00000000000E+00  0.64999999231E+04  0.65000000000E+04  0.10000000000E+01 0.  0.
    9000001   -1    0    0    0    0 -0.00000000000E+00 -0.00000000000E+00 -0.64999999231E+04  0.65000000000E+04  0.10000000000E+01 0.  0.
    9000001    1    1    2    0    0 -0.30988545470E+04 -0.55180830835E+04  0.14825176491E+04  0.65000000000E+04  0.10000000000E+01 0.  0.
    9000001    1    1    2    0    0  0.30988545470E+04  0.55180830835E+04 -0.14825176491E+04  0.65000000000E+04  0.10000000000E+01 0.  0.
</event>
<event>
 4    1  0.2191064E-006  0.1300000E+05  0.7957747E-01  0.1322471E+00
    9000001   -1    0    0    0    0  0.00000000000E+00  0.00000000000E+00  0.64999999231E+04  0.65000000000E+04  0.10000000000E+01 0.  0.
    9000001   -1    0    0    0    0 -0.00000000000E+00 -0.00000000000E+00 -0.64999999231E+04  0.65000000000E+04  0.10000000000E+01 0.  0.
    9000001    1    1    2    0    0 -0.33897193670E+04  0.36900419313E+04  0.41404579648E+04  0.65000000000E+04  0.10000000000E+01 0.  0.
    9000001    1    1    2    0    0  0.33897193670E+04 -0.36900419313E+04 -0.41404579648E+04  0.65000000000E+04  0.10000000000E+01 0.  0.
</event>
<event>
 4    1  0.2191064E-006  0.1300000E+05  0.7957747E-01  0.1322471E+00
    9000001   -1    0    0    0    0  0.00000000000E+00  0.00000000000E+00  0.64999999231E+04  0.65000000000E+04  0.10000000000E+01 0.  0.
    9000001   -1    0    0    0    0 -0.00000000000E+00 -0.00000000000E+00 -0.64999999231E+04  0.65000000000E+04  0.10000000000E+01 0.  0.
    9000001    1    1    2    0    0  0.50628521314E+04  0.35742979460E+04 -0.19600820107E+04  0.65000000000E+04  0.10000000000E+01 0.  0.
    9000001    1    1    2    0    0 -0.50628521314E+04 -0.35742979460E+04  0.19600820107E+04  0.65000000000E+04  0.10000000000E+01 0.  0.
</event>
<event>
 4    1  0.2191064E-006  0.1300000E+05  0.7957747E-01  0.1322471E+00
    9000001   -1    0    0    0    0  0.00000000000E+00  0.00000000000E+00  0.64999999231E+04  0.65000000000E+04  0.10000000000E+01 0.  0.
    9000001   -1    0    0    0    0 -0.00000000000E+00 -0.00000000000E+00 -0.64999999231E+04  0.65000000000E+04  0.10000000000E+01 0.  0.
    9000001    1    1    2    0    0 -0.56512252777E+04 -0.70665592990E+03 -0.31327766051E+04  0.65000000000E+04  0.10000000000E+01 0.  0.
    9000001    1    1    2    0    0  0.56512252777E+04  0.70665592990E+03  0.31327766051E+04  0.65000000000E+04  0.10000000000E+01 0.  0.
</event>
<event>
 4    1  0.2191064E-006  0.1300000E+05  0.7957747E-01  0.1322471E+00
    9000001   -1    0    0    0    0  0.00000000000E+00  0.00000000000E+00  0.64999999231E+04  0.65000000000E+04  0.10000000000E+01 0.  0.
    9000001   -1    0    0    0    0 -0.00000000000E+00 -0.00000000000E+00 -0.64999999231E+04  0.65000000000E+04  0.10000000000E+01 0.  0.
    9000001    1    1    2    0    0  0.17190705154E+04  0.57992830739E+04  0.23797292685E+04  0.65000000000E+04  0.10000000000E+01 0.  0.
    9000001    1    1    2    0    0 -0.17190705154E+04 -0.57992830739E+04 -0.23797292685E+04  0.65000000000E+04  0.10000000000E+01 0.  0.
</event>
<event>
 4    1  0.2191064E-006  0.1300000E+05  0.7957747E-01  0.1322471E+00
    9000001   -1    0    0    0    0  0.00000000000E+00  0.00000000000E+00  0.64999999231E+04  0.65000000000E+04  0.10000000000E+01 0.  0.
    9000001   -1    0    0    0    0 -0.00000000000E+00 -0.00000000000E+00 -0.64999999231E+04  0.65000000000E+04  0.10000000000E+01 0.  0.
    9000001    1    1    2    0    0 -0.53843059770E+04  0.36347774439E+04  0.21826836640E+03  0.65000000000E+04  0.10000000000E+01 0.  0.
    9000001    1    1    2    0    0  0.53843059770E+04 -0.36347774439E+04 -0.21826836640E+03  0.65000000000E+04  0.10000000000E+01 0.  0.
</event>
<event>
 4    1  0.2191064E-006  0.1300000E+05  0.7957747E-01  0.1322471E+00
    9000001   -1    0    0    0    0  0.00000000000E+00  0.00000000000E+00  0.64999999231E+04  0.65000000000E+04  0.10000000000E+01 0.  0.
    9000001   -1    0    0    0    0 -0.00000000000E+00 -0.00000000000E+00 -0.64999999231E+04  0.65000000000E+04  0.10000000000E+01 0.  0.
    9000001    1    1    2    0    0 -0.46301489989E+04  0.44584250916E+04  0.96652208978E+03  0.65000000000E+04  0.10000000000E+01 0.  0.
    9000001    1    1    2    0    0  0.46301489989E+04 -0.44584250916E+04 -0.96652208978E+03  0.65000000000E+04  0.10000000000E+01 0.  0.
</event>
<event>
 4    1  0.2191064E-006  0.1300000E+05  0.7957747E-01  0.1322471E+00
    9000001   -1    0    0    0    0  0.00000000000E+00  0.00000000000E+00  0.64999999231E+04  0.65000000000E+04  0.10000000000E+01 0.  0.
    9000001   -1    0    0    0    0 -0.00000000000E+00 -0.00000000000E+00 -0.64999999231E+04  0.65000000000E+04  0.10000000000E+01 0.  0.
    9000001    1    1    2    0    0  0.63299177270E+04  0.11760131947E+04 -0.89394269145E+03  0.65000000000E+04  0.10000000000E+01 0.  0.
    9000001    1    1    2    0    0 -0.63299177270E+04 -0.11760131947E+04  0.89394269145E+03  0.65000000000E+04  0.10000000000E+01 0.  0.
</event>
<event>
 4    1  0.2191064E-006  0.1300000E+05  0.7957747E-01  0.1322471E+00
    9000001   -1    0    0    0    0  0.00000000000E+00  0.00000000000E+00  0.64999999231E+04  0.65000000000E+04  0.10000000000E+01 0.  0.
    9000001   -1    0    0    0    0 -0.00000000000E+00 -0.00000000000E+00 -0.64999999231E+04  0.65000000000E+04  0.10000000000E+01 0.  0.
    9000001    1    1    2    0    0  0.60747036653E+04 -0.19754237496E+04  0.12023624198E+04  0.65000000000E+04  0.10000000000E+01 0.  0.
    9000001    1    1    2    0    0 -0.60747036653E+04  0.19754237496E+04 -0.12023624198E+04  0.65000000000E+04  0.10000000000E+01 0.  0.
</event>
<event>
 4    1  0.2191064E-006  0.1300000E+05  0.7957747E-01  0.1322471E+00
    9000001   -1    0    0    0    0  0.00000000000E+00  0.00000000000E+00  0.64999999231E+04  0.65000000000E+04  0.10000000000E+01 0.  0.
    9000001   -1    0    0    0    0 -0.00000000000E+00 -0.00000000000E+00 -0.64999999231E+04  0.65000000000E+04  0.10000000000E+01 0.  0.
    9000001    1    1    2    0    0 -0.20350589805E+04 -0.51595845463E+04  0.33892803447E+04  0.65000000000E+04  0.10000000000E+01 0.  0.
    9000001    1    1    2    0    0  0.20350589805E+04  0.51595845463E+04 -0.33892803447E+04  0.65000000000E+04  0.10000000000E+01 0.  0.
</event>
<event>
 4    1  0.2191064E-006  0.1300000E+05  0.7957747E-01  0.1322471E+00
    9000001   -1    0    0    0    0  0.00000000000E+00  0.00000000000E+00  0.64999999231E+04  0.65000000000E+04  0.10000000000E+01 0.  0.
    9000001   -1    0    0    0    0 -0.00000000000E+00 -0.00000000000E+00 -0.64999999231E+04  0.65000000000E+04  0.10000000000E+01 0.  0.
    9000001    1    1    2    0    0  0.57752114204E+04 -0.14090589226E+04  0.26289703312E+04  0.65000000000E+04  0.10000000000E+01 0.  0.
    9000001    1    1    2    0    0 -0.57752114204E+04  0.14090589226E+04 -0.26289703312E+04  0.65000000000E+04  0.10000000000E+01 0.  0.
</event>
<event>
 4    1  0.2191064E-006  0.1300000E+05  0.7957747E-01  0.1322471E+00
    9000001   -1    0    0    0    0  0.00000000000E+00  0.00000000000E+00  0.64999999231E+04  0.65000000000E+04  0.10000000000E+01 0.  0.
    9000001   -1    0    0    0    0 -0.00000000000E+00 -0.00000000000E+00 -0.64999999231E+04  0.65000000000E+04  0.10000000000E+01 0.  0.
    9000001    1    1    2    0    0 -0.10707835773E+04 -0.64045898666E+04 -0.29094702428E+03  0.65000000000E+04  0.10000000000E+01 0.  0.
    9000001    1    1    2    0    0  0.10707835773E+04  0.64045898666E+04  0.29094702428E+03  0.65000000000E+04  0.10000000000E+01 0.  0.
</event>
<event>
 4    1  0.2191064E-006  0.1300000E+05  0.7957747E-01  0.1322471E+00
    9000001   -1    0    0    0    0  0.00000000000E+00  0.00000000000E+00  0.64999999231E+04  0.65000000000E+04  0.10000000000E+01 0.  0.
    9000001   -1    0    0    0    0 -0.00000000000E+00 -0.00000000000E+00 -0.64999999231E+04  0.65000000000E+04  0.10000000000E+01 0.  0.
    9000001    1    1    2    0    0  0.62467377617E+04 -0.17230022695E+04  0.50944039514E+03  0.65000000000E+04  0.10000000000E+01 0.  0.
    9000001    1    1    2    0    0 -0.62467377617E+04  0.17230022695E+04 -0.50944039514E+03  0.65000000000E+04  0.10000000000E+01 0.  0.
</event>
<event>
 4    1  0.2191064E-006  0.1300000E+05  0.7957747E-01  0.1322471E+00
    9000001   -1    0    0    0    0  0.00000000000E+00  0.00000000000E+00  0.64999999231E+04  0.65000000000E+04  0.10000000000E+01 0.  0.
    9000001   -1    0    0    0    0 -0.00000000000E+00 -0.00000000000E+00 -0.64999999231E+04  0.65000000000E+04  0.10000000000E+01 0.  0.
    9000001    1    1    2    0    0  0.35058182038E+04  0.43119723580E+04 -0.33713694704E+04  0.65000000000E+04  0.10000000000E+01 0.  0.
    9000001    1    1    2    0    0 -0.35058182038E+04 -0.43119723580E+04  0.33713694704E+04  0.65000000000E+04  0.10000000000E+01 0.  0.
</event>
<event>
 4    1  0.2191064E-006  0.1300000E+05  0.7957747E-01  0.1322471E+00
    9000001   -1    0    0    0    0  0.00000000000E+00  0.00000000000E+00  0.64999999231E+04  0.65000000000E+04  0.10000000000E+01 0.  0.
    9000001   -1    0    0    0    0 -0.00000000000E+00 -0.00000000000E+00 -0.64999999231E+04  0.65000000000E+04  0.10000000000E+01 0.  0.
    9000001    1    1    2    0    0  0.58588970045E+04 -0.24685067444E+04 -0.13527007588E+04  0.65000000000E+04  0.10000000000E+01 0.  0.
    9000001    1    1    2    0    0 -0.58588970045E+04  0.24685067444E+04  0.13527007588E+04  0.65000000000E+04  0.10000000000E+01 0.  0.
</event>
<event>
 4    1  0.2191064E-006  0.1300000E+05  0.7957747E-01  0.1322471E+00
    9000001   -1    0    0    0    0  0.00000000000E+00  0.00000000000E+00  0.64999999231E+04  0.65000000000E+04  0.10000000000E+01 0.  0.
    9000001   -1    0    0    0    0 -0.00000000000E+00 -0.00000000000E+00 -0.64999999231E+04  0.65000000000E+04  0.10000000000E+01 0.  0.
    9000001    1    1    2    0    0  0.59564022414E+04  0.15664747414E+04  0.20778422036E+04  0.65000000000E+04  0.10000000000E+01 0.  0.
    9000001    1    1    2    0    0 -0.59564022414E+04 -0.15664747414E+04 -0.20778422036E+04  0.65000000000E+04  0.10000000000E+01 0.  0.
</event>
<event>
 4    1  0.2191064E-006  0.1300000E+05  0.7957747E-01  0.1322471E+00
    9000001   -1    0    0    0    0  0.00000000000E+00  0.00000000000E+00  0.64999999231E+04  0.65000000000E+04  0.10000000000E+01 0.  0.
    9000001   -1    0    0    0    0 -0.00000000000E+00 -0.00000000000E+00 -0.64999999231E+04  0.65000000000E+04  0.10000000000E+01 0.  0.
    9000001    1    1    2    0    0  0.34376045458E+04  0.66427831386E+03 -0.54764594684E+04  0.65000000000E+04  0.10000000000E+01 0.  0.
    9000001    1    1    2    0    0 -0.34376045458E+04 -0.66427831386E+03  0.54764594684E+04  0.65000000000E+04  0.10000000000E+01 0.  0.
</event>
<event>
 4    1  0.2191064E-006  0.1300000E+05  0.7957747E-01  0.1322471E+00
    9000001   -1    0    0    0    0  0.00000000000E+00  0.00000000000E+00  0.64999999231E+04  0.65000000000E+04  0.10000000000E+01 0.  0.
    9000001   -1    0    0    0    0 -0.00000000000E+00 -0.00000000000E+00 -0.64999999231E+04  0.65000000000E+04  0.10000000000E+01 0.  0.
    9000001    1    1    2    0    0 -0.20387245085E+04 -0.49206740465E+04  0.37256634721E+04  0.65000000000E+04  0.10000000000E+01 0.  0.
    9000001    1    1    2    0    0  0.20387245085E+04  0.49206740465E+04 -0.37256634721E+04  0.65000000000E+04  0.10000000000E+01 0.  0.
</event>
<event>
 4    1  0.2191064E-006  0.1300000E+05  0.7957747E-01  0.1322471E+00
    9000001   -1    0    0    0    0  0.00000000000E+00  0.00000000000E+00  0.64999999231E+04  0.65000000000E+04  0.10000000000E+01 0.  0.
    9000001   -1    0    0    0    0 -0.00000000000E+00 -0.00000000000E+00 -0.64999999231E+04  0.65000000000E+04  0.10000000000E+01 0.  0.
    9000001    1    1    2    0    0  0.24751922627E+04  0.24769566787E+04 -0.54761398699E+04  0.65000000000E+04  0.10000000000E+01 0.  0.
    9000001    1    1    2    0    0 -0.24751922627E+04 -0.24769566787E+04  0.54761398699E+04  0.65000000000E+04  0.10000000000E+01 0.  0.
</event>
<event>
 4    1  0.2191064E-006  0.1300000E+05  0.7957747E-01  0.1322471E+00
    9000001   -1    0    0    0    0  0.00000000000E+00  0.00000000000E+00  0.64999999231E+04  0.65000000000E+04  0.10000000000E+01 0.  0.
    9000001   -1    0    0    0    0 -0.00000000000E+00 -0.00000000000E+00 -0.64999999231E+04  0.65000000000E+04  0.10000000000E+01 0.  0.
    9000001    1    1    2    0    0  0.56945760272E+04  0.19737478011E+04  0.24343628506E+04  0.65000000000E+04  0.10000000000E+01 0.  0.
    9000001    1    1    2    0    0 -0.56945760272E+04 -0.19737478011E+04 -0.24343628506E+04  0.65000000000E+04  0.10000000000E+01 0.  0.
</event>
<event>
 4    1  0.2191064E-006  0.1300000E+05  0.7957747E-01  0.1322471E+00
    9000001   -1    0    0    0    0  0.00000000000E+00  0.00000000000E+00  0.64999999231E+04  0.65000000000E+04  0.10000000000E+01 0.  0.
    9000001   -1    0    0    0    0 -0.00000000000E+00 -0.00000000000E+00 -0.64999999231E+04  0.65000000000E+04  0.10000000000E+01 0.  0.
    9000001    1    1    2    0    0  0.23494526441E+04 -0.19790612518E+04 -0.57282971147E+04  0.65000000000E+04  0.10000000000E+01 0.  0.
    9000001    1    1    2    0    0 -0.23494526441E+04  0.19790612518E+04  0.57282971147E+04  0.65000000000E+04  0.10000000000E+01 0.  0.
</event>
<event>
 4    1  0.2191064E-006  0.1300000E+05  0.7957747E-01  0.1322471E+00
    9000001   -1    0    0    0    0  0.00000000000E+00  0.00000000000E+00  0.64999999231E+04  0.65000000000E+04  0.10000000000E+01 0.  0.
    9000001   -1    0    0    0    0 -0.00000000000E+00 -0.00000000000E+00 -0.64999999231E+04  0.65000000000E+04  0.10000000000E+01 0.  0.
    9000001    1    1    2    0    0 -0.51107988928E+04  0.39244289548E+04 -0.85357545438E+03  0.65000000000E+04  0.10000000000E+01 0.  0.
    9000001    1    1    2    0    0  0.51107988928E+04 -0.39244289548E+04  0.85357545438E+03  0.65000000000E+04  0.10000000000E+01 0.  0.
</event>
<event>
 4    1  0.2191064E-006  0.1300000E+05  0.7957747E-01  0.1322471E+00
    9000001   -1    0    0    0    0  0.00000000000E+00  0.00000000000E+00  0.64999999231E+04  0.65000000000E+04  0.10000000000E+01 0.  0.
    9000001   -1    0    0    0    0 -0.00000000000E+00 -0.00000000000E+00 -0.64999999231E+04  0.65000000000E+04  0.10000000000E+01 0.  0.
    9000001    1    1    2    0    0 -0.36939066920E+04 -0.40076349888E+04 -0.35417388593E+04  0.65000000000E+04  0.10000000000E+01 0.  0.
    9000001    1    1    2    0    0  0.36939066920E+04  0.40076349888E+04  0.35417388593E+04  0.65000000000E+04  0.10000000000E+01 0.  0.
</event>
<event>
 4    1  0.2191064E-006  0.1300000E+05  0.7957747E-01  0.1322471E+00
    9000001   -1    0    0    0    0  0.00000000000E+00  0.00000000000E+00  0.64999999231E+04  0.65000000000E+04  0.10000000000E+01 0.  0.
    9000001   -1    0    0    0    0 -0.00000000000E+00 -0.00000000000E+00 -0.64999999231E+04  0.65000000000E+04  0.10000000000E+01 0.  0.
    9000001    1    1    2    0    0  0.33372615647E+04 -0.52558579829E+04 -0.18677904360E+04  0.65000000000E+04  0.10000000000E+01 0.  0.
    9000001    1    1    2    0    0 -0.33372615647E+04  0.52558579829E+04  0.18677904360E+04  0.65000000000E+04  0.10000000000E+01 0.  0.
</event>
<event>
 4    1  0.2191064E-006  0.1300000E+05  0.7957747E-01  0.1322471E+00
    9000001   -1    0    0    0    0  0.00000000000E+00  0.00000000000E+00  0.64999999231E+04  0.65000000000E+04  0.10000000000E+01 0.  0.
    9000001   -1    0    0    0    0 -0.00000000000E+00 -0.00000000000E+00 -0.64999999231E+04  0.65000000000E+04  0.10000000000E+01 0.  0.
    9000001    1    1    2    0    0  0.39298177156E+02  0.16531784455E+01  0.64998809159E+04  0.65000000000E+04  0.10000000000E+01 0.  0.
    9000001    1    1    2    0    0 -0.39298177156E+02 -0.16531784455E+01 -0.64998809159E+04  0.65000000000E+04  0.10000000000E+01 0.  0.
</event>
<event>
 4    1  0.2191064E-006  0.1300000E+05  0.7957747E-01  0.1322471E+00
    9000001   -1    0    0    0    0  0.00000000000E+00  0.00000000000E+00  0.64999999231E+04  0.65000000000E+04  0.10000000000E+01 0.  0.
    9000001   -1    0    0    0    0 -0.00000000000E+00 -0.00000000000E+00 -0.64999999231E+04  0.65000000000E+04  0.10000000000E+01 0.  0.
    9000001    1    1    2    0    0  0.55483247197E+04  0.31985151800E+04 -0.11115720613E+04  0.65000000000E+04  0.10000000000E+01 0.  0.
    9000001    1    1    2    0    0 -0.55483247197E+04 -0.31985151800E+04  0.11115720613E+04  0.65000000000E+04  0.10000000000E+01 0.  0.
</event>
<event>
 4    1  0.2191064E-006  0.1300000E+05  0.7957747E-01  0.1322471E+00
    9000001   -1    0    0    0    0  0.00000000000E+00  0.00000000000E+00  0.64999999231E+04  0.65000000000E+04  0.10000000000E+01 0.  0.
    9000001   -1    0    0    0    0 -0.00000000000E+00 -0.00000000000E+00 -0.64999999231E+04  0.65000000000E+04  0.10000000000E+01 0.  0.
    9000001    1    1    2    0    0 -0.43005233039E+04 -0.48702725870E+04 -0.18958702690E+03  0.65000000000E+04  0.10000000000E+01 0.  0.
    9000001    1    1    2    0    0  0.43005233039E+04  0.48702725870E+04  0.18958702690E+03  0.65000000000E+04  0.10000000000E+01 0.  0.
</event>
<event>
 4    1  0.2191064E-006  0.1300000E+05  0.7957747E-01  0.1322471E+00
    9000001   -1    0    0    0    0  0.00000000000E+00  0.00000000000E+00  0.64999999231E+04  0.65000000000E+04  0.10000000000E+01 0.  0.
    9000001   -1    0    0    0    0 -0.00000000000E+00 -0.00000000000E+00 -0.64999999231E+04  0.65000000000E+04  0.10000000000E+01 0.  0.
    9000001    1    1    2    0    0 -0.55294033077E+04  0.21922328431E+04 -0.26210328542E+04  0.65000000000E+04  0.10000000000E+01 0.  0.
    9000001    1    1    2    0    0  0.55294033077E+04 -0.21922328431E+04  0.26210328542E+04  0.65000000000E+04  0.10000000000E+01 0.  0.
</event>
<event>
 4    1  0.2191064E-006  0.1300000E+05  0.7957747E-01  0.1322471E+00
    9000001   -1    0    0    0    0  0.00000000000E+00  0.00000000000E+00  0.64999999231E+04  0.65000000000E+04  0.10000000000E+01 0.  0.
    9000001   -1    0    0    0    0 -0.00000000000E+00 -0.00000000000E+00 -0.64999999231E+04  0.65000000000E+04  0.10000000000E+01 0.  0.
    9000001    1    1    2    0    0  0.52799905010E+04 -0.88030032874E+03  0.36873799155E+04  0.65000000000E+04  0.10000000000E+01 0.  0.
    9000001    1    1    2    0    0 -0.52799905010E+04  0.88030032874E+03 -0.36873799155E+04  0.65000000000E+04  0.10000000000E+01 0.  0.
</event>
<event>
 4    1  0.2191064E-006  0.1300000E+05  0.7957747E-01  0.1322471E+00
    9000001   -1    0    0    0    0  0.00000000000E+00  0.00000000000E+00  0.64999999231E+04  0.65000000000E+04  0.10000000000E+01 0.  0.
    9000001   -1    0    0    0    0 -0.00000000000E+00 -0.00000000000E+00 -0.64999999231E+04  0.65000000000E+04  0.10000000000E+01 0.  0.
    9000001    1    1    2    0    0  0.37250591750E+04  0.14636496757E+04 -0.51216855399E+04  0.65000000000E+04  0.10000000000E+01 0.  0.
    9000001    1    1    2    0    0 -0.37250591750E+04 -0.14636496757E+04  0.51216855399E+04  0.65000000000E+04  0.10000000000E+01 0.  0.
</event>
<event>
 4    1  0.2191064E-006  0.1300000E+05  0.7957747E-01  0.1322471E+00
    9000001   -1    0    0    0    0  0.00000000000E+00  0.00000000000E+00  0.64999999231E+04  0.65000000000E+04  0.10000000000E+01 0.  0.
    9000001   -1    0    0    0    0 -0.00000000000E+00 -0.00000000000E+00 -0.64999999231E+04  0.65000000000E+04  0.10000000000E+01 0.  0.
    9000001    1    1    2    0    0 -0.11728784386E+03 -0.45515547810E+04 -0.46389213872E+04  0.65000000000E+04  0.10000000000E+01 0.  0.
    9000001    1    1    2    0    0  0.11728784386E+03  0.45515547810E+04  0.46389213872E+04  0.65000000000E+04  0.10000000000E+01 0.  0.
</event>
<event>
 4    1  0.2191064E-006  0.1300000E+05  0.7957747E-01  0.1322471E+00
    9000001   -1    0    0    0    0  0.00000000000E+00  0.00000000000E+00  0.64999999231E+04  0.65000000000E+04  0.10000000000E+01 0.  0.
    9000001   -1    0    0    0    0 -0.00000000000E+00 -0.00000000000E+00 -0.64999999231E+04  0.65000000000E+04  0.10000000000E+01 0.  0.
    9000001    1    1    2    0    0  0.11058591342E+04 -0.57867114071E+04 -0.27460964415E+04  0.65000000000E+04  0.10000000000E+01 0.  0.
    9000001    1    1    2    0    0 -0.11058591342E+04  0.57867114071E+04  0.27460964415E+04  0.65000000000E+04  0.10000000000E+01 0.  0.
</event>
<event>
 4    1  0.2191064E-006  0.1300000E+05  0.7957747E-01  0.1322471E+00
    9000001   -1    0    0    0    0  0.00000000000E+00  0.00000000000E+00  0.64999999231E+04  0.65000000000E+04  0.10000000000E+01 0.  0.
    9000001   -1    0    0    0    0 -0.00000000000E+00 -0.00000000000E+00 -0.64999999231E+04  0.65000000000E+04  0.10000000000E+01 0.  0.
    9000001    1    1    2    0    0  0.84543918495E+03  0.59233556342E+04 -0.25395057818E+04  0.65000000000E+04  0.10000000000E+01 0.  0.
    9000001    1    1    2    0    0 -0.84543918495E+03 -0.59233556342E+04  0.25395057818E+04  0.65000000000E+04  0.10000000000E+01 0.  0.
</event>
<event>
 4    1  0.2191064E-006  0.1300000E+05  0.7957747E-01  0.1322471E+00
    9000001   -1    0    0    0    0  0.00000000000E+00  0.00000000000E+00  0.64999999231E+04  0.65000000000E+04  0.10000000000E+01 0.  0.
    9000001   -1    0    0    0    0 -0.00000000000E+00 -0.00000000000E+00 -0.64999999231E+04  0.65000000000E+04  0.10000000000E+01 0.  0.
    9000001    1    1    2    0    0 -0.17722089717E+04  0.56403883329E+04  0.27009801581E+04  0.65000000000E+04  0.10000000000E+01 0.  0.
    9000001    1    1    2    0    0  0.17722089717E+04 -0.56403883329E+04 -0.27009801581E+04  0.65000000000E+04  0.10000000000E+01 0.  0.
</event>
<event>
 4    1  0.2191064E-006  0.1300000E+05  0.7957747E-01  0.1322471E+00
    9000001   -1    0    0    0    0  0.00000000000E+00  0.00000000000E+00  0.64999999231E+04  0.65000000000E+04  0.10000000000E+01 0.  0.
    9000001   -1    0    0    0    0 -0.00000000000E+00 -0.00000000000E+00 -0.64999999231E+04  0.65000000000E+04  0.10000000000E+01 0.  0.
    9000001    1    1    2    0    0 -0.97751587720E+03 -0.55555867017E+04  0.32295383741E+04  0.65000000000E+04  0.10000000000E+01 0.  0.
    9000001    1    1    2    0    0  0.97751587720E+03  0.55555867017E+04 -0.32295383741E+04  0.65000000000E+04  0.10000000000E+01 0.  0.
</event>
<event>
 4    1  0.2191064E-006  0.1300000E+05  0.7957747E-01  0.1322471E+00
    9000001   -1    0    0    0    0  0.00000000000E+00  0.00000000000E+00  0.64999999231E+04  0.65000000000E+04  0.10000000000E+01 0.  0.
    9000001   -1    0    0    0    0 -0.00000000000E+00 -0.00000000000E+00 -0.64999999231E+04  0.65000000000E+04  0.10000000000E+01 0.  0.
    9000001    1    1    2    0    0 -0.53264494439E+04  0.13601849232E+03 -0.37229604203E+04  0.65000000000E+04  0.10000000000E+01 0.  0.
    9000001    1    1    2    0    0  0.53264494439E+04 -0.13601849232E+03  0.37229604203E+04  0.65000000000E+04  0.10000000000E+01 0.  0.
</event>
<event>
 4    1  0.2191064E-006  0.1300000E+05  0.7957747E-01  0.1322471E+00
    9000001   -1    0    0    0    0  0.00000000000E+00  0.00000000000E+00  0.64999999231E+04  0.65000000000E+04  0.10000000000E+01 0.  0.
    9000001   -1    0    0    0    0 -0.00000000000E+00 -0.00000000000E+00 -0.64999999231E+04  0.65000000000E+04  0.10000000000E+01 0.  0.
    9000001    1    1    2    0    0  0.14524933389E+04 -0.15054366843E+04 -0.61541792702E+04  0.65000000000E+04  0.10000000000E+01 0.  0.
    9000001    1    1    2    0    0 -0.14524933389E+04  0.15054366843E+04  0.61541792702E+04  0.65000000000E+04  0.10000000000E+01 0.  0.
</event>
<event>
 4    1  0.2191064E-006  0.1300000E+05  0.7957747E-01  0.1322471E+00
    9000001   -1    0    0    0    0  0.00000000000E+00  0.00000000000E+00  0.64999999231E+04  0.65000000000E+04  0.10000000000E+01 0.  0.
    9000001   -1    0    0    0    0 -0.00000000000E+00 -0.00000000000E+00 -0.64999999231E+04  0.65000000000E+04  0.10000000000E+01 0.  0.
    9000001    1    1    2    0    0  0.49071684133E+04  0.29896994811E+04  0.30383209468E+04  0.65000000000E+04  0.10000000000E+01 0.  0.
    9000001    1    1    2    0    0 -0.49071684133E+04 -0.29896994811E+04 -0.30383209468E+04  0.65000000000E+04  0.10000000000E+01 0.  0.
</event>
<event>
 4    1  0.2191064E-006  0.1300000E+05  0.7957747E-01  0.1322471E+00
    9000001   -1    0    0    0    0  0.00000000000E+00  0.00000000000E+00  0.64999999231E+04  0.65000000000E+04  0.10000000000E+01 0.  0.
    9000001   -1    0    0    0    0 -0.00000000000E+00 -0.00000000000E+00 -0.64999999231E+04  0.65000000000E+04  0.10000000000E+01 0.  0.
    9000001    1    1    2    0    0  0.52427270805E+04 -0.31577518315E+04 -0.21891585438E+04  0.65000000000E+04  0.10000000000E+01 0.  0.
    9000001    1    1    2    0    0 -0.52427270805E+04  0.31577518315E+04  0.21891585438E+04  0.65000000000E+04  0.10000000000E+01 0.  0.
</event>
<event>
 4    1  0.2191064E-006  0.1300000E+05  0.7957747E-01  0.1322471E+00
    9000001   -1    0    0    0    0  0.00000000000E+00  0.00000000000E+00  0.64999999231E+04  0.65000000000E+04  0.10000000000E+01 0.  0.
    9000001   -1    0    0    0    0 -0.00000000000E+00 -0.00000000000E+00 -0.64999999231E+04  0.65000000000E+04  0.10000000000E+01 0.  0.
    9000001    1    1    2    0    0 -0.72867335713E+03  0.36936311363E+04  0.52986907031E+04  0.65000000000E+04  0.10000000000E+01 0.  0.
    9000001    1    1    2    0    0  0.72867335713E+03 -0.36936311363E+04 -0.52986907031E+04  0.65000000000E+04  0.10000000000E+01 0.  0.
</event>
<event>
 4    1  0.2191064E-006  0.1300000E+05  0.7957747E-01  0.1322471E+00
    9000001   -1    0    0    0    0  0.00000000000E+00  0.00000000000E+00  0.64999999231E+04  0.65000000000E+04  0.10000000000E+01 0.  0.
    9000001   -1    0    0    0    0 -0.00000000000E+00 -0.00000000000E+00 -0.64999999231E+04  0.65000000000E+04  0.10000000000E+01 0.  0.
    9000001    1    1    2    0    0  0.38726880254E+04 -0.23143548830E+04 -0.46793213112E+04  0.65000000000E+04  0.10000000000E+01 0.  0.
    9000001    1    1    2    0    0 -0.38726880254E+04  0.23143548830E+04  0.46793213112E+04  0.65000000000E+04  0.10000000000E+01 0.  0.
</event>
<event>
 4    1  0.2191064E-006  0.1300000E+05  0.7957747E-01  0.1322471E+00
    9000001   -1    0    0    0    0  0.00000000000E+00  0.00000000000E+00  0.64999999231E+04  0.65000000000E+04  0.10000000000E+01 0.  0.
    9000001   -1    0    0    0    0 -0.00000000000E+00 -0.00000000000E+00 -0.64999999231E+04  0.65000000000E+04  0.10000000000E+01 0.  0.
    9000001    1    1    2    0    0 -0.64728417333E+04 -0.31389475524E+03 -0.50377473004E+03  0.65000000000E+04  0.10000000000E+01 0.  0.
    9000001    1    1    2    0    0  0.64728417333E+04  0.31389475524E+03  0.50377473004E+03  0.65000000000E+04  0.10000000000E+01 0.  0.
</event>
<event>
 4    1  0.2191064E-006  0.1300000E+05  0.7957747E-01  0.1322471E+00
    9000001   -1    0    0    0    0  0.00000000000E+00  0.00000000000E+00  0.64999999231E+04  0.65000000000E+04  0.10000000000E+01 0.  0.
    9000001   -1    0    0    0    0 -0.00000000000E+00 -0.00000000000E+00 -0.64999999231E+04  0.65000000000E+04  0.10000000000E+01 0.  0.
    9000001    1    1    2    0    0  0.63924405635E+04 -0.11298648497E+04  0.33182535132E+03  0.65000000000E+04  0.10000000000E+01 0.  0.
    9000001    1    1    2    0    0 -0.63924405635E+04  0.11298648497E+04 -0.33182535132E+03  0.65000000000E+04  0.10000000000E+01 0.  0.
</event>
<event>
 4    1  0.2191064E-006  0.1300000E+05  0.7957747E-01  0.1322471E+00
    9000001   -1    0    0    0    0  0.00000000000E+00  0.00000000000E+00  0.64999999231E+04  0.65000000000E+04  0.10000000000E+01 0.  0.
    9000001   -1    0    0    0    0 -0.00000000000E+00 -0.00000000000E+00 -0.64999999231E+04  0.65000000000E+04  0.10000000000E+01 0.  0.
    9000001    1    1    2    0    0  0.23131799208E+04  0.33542320595E+04  0.50644175326E+04  0.65000000000E+04  0.10000000000E+01 0.  0.
    9000001    1    1    2    0    0 -0.23131799208E+04 -0.33542320595E+04 -0.50644175326E+04  0.65000000000E+04  0.10000000000E+01 0.  0.
</event>
<event>
 4    1  0.2191064E-006  0.1300000E+05  0.7957747E-01  0.1322471E+00
    9000001   -1    0    0    0    0  0.00000000000E+00  0.00000000000E+00  0.64999999231E+04  0.65000000000E+04  0.10000000000E+01 0.  0.
    9000001   -1    0    0    0    0 -0.00000000000E+00 -0.00000000000E+00 -0.64999999231E+04  0.65000000000E+04  0.10000000000E+01 0.  0.
    9000001    1    1    2    0    0 -0.96036379831E+00  0.14375923464E+03 -0.64984099101E+04  0.65000000000E+04  0.10000000000E+01 0.  0.
    9000001    1    1    2    0    0  0.96036379831E+00 -0.14375923464E+03  0.64984099101E+04  0.65000000000E+04  0.10000000000E+01 0.  0.
</event>
<event>
 4    1  0.2191064E-006  0.1300000E+05  0.7957747E-01  0.1322471E+00
    9000001   -1    0    0    0    0  0.00000000000E+00  0.00000000000E+00  0.64999999231E+04  0.65000000000E+04  0.10000000000E+01 0.  0.
    9000001   -1    0    0    0    0 -0.00000000000E+00 -0.00000000000E+00 -0.64999999231E+04  0.65000000000E+04  0.10000000000E+01 0.  0.
    9000001    1    1    2    0    0 -0.27201428539E+04  0.17594416242E+04 -0.56351740901E+04  0.65000000000E+04  0.10000000000E+01 0.  0.
    9000001    1    1    2    0    0  0.27201428539E+04 -0.17594416242E+04  0.56351740901E+04  0.65000000000E+04  0.10000000000E+01 0.  0.
</event>
<event>
 4    1  0.2191064E-006  0.1300000E+05  0.7957747E-01  0.1322471E+00
    9000001   -1    0    0    0    0  0.00000000000E+00  0.00000000000E+00  0.64999999231E+04  0.65000000000E+04  0.10000000000E+01 0.  0.
    9000001   -1    0    0    0    0 -0.00000000000E+00 -0.00000000000E+00 -0.64999999231E+04  0.65000000000E+04  0.10000000000E+01 0.  0.
    9000001    1    1    2    0    0  0.60428340099E+04  0.20230589943E+04 -0.12811668252E+04  0.65000000000E+04  0.10000000000E+01 0.  0.
    9000001    1    1    2    0    0 -0.60428340099E+04 -0.20230589943E+04  0.12811668252E+04  0.65000000000E+04  0.10000000000E+01 0.  0.
</event>
<event>
 4    1  0.2191064E-006  0.1300000E+05  0.7957747E-01  0.1322471E+00
    9000001   -1    0    0    0    0  0.00000000000E+00  0.00000000000E+00  0.64999999231E+04  0.65000000000E+04  0.10000000000E+01 0.  0.
    9000001   -1    0    0    0    0 -0.00000000000E+00 -0.00000000000E+00 -0.64999999231E+04  0.65000000000E+04  0.10000000000E+01 0.  0.
    9000001    1    1    2    0    0  0.44757202671E+04  0.39677748739E+04 -0.25445411454E+04  0.65000000000E+04  0.10000000000E+01 0.  0.
    9000001    1    1    2    0    0 -0.44757202671E+04 -0.39677748739E+04  0.25445411454E+04  0.65000000000E+04  0.10000000000E+01 0.  0.
</event>
<event>
 4    1  0.2191064E-006  0.1300000E+05  0.7957747E-01  0.1322471E+00
    9000001   -1    0    0    0    0  0.00000000000E+00  0.00000000000E+00  0.64999999231E+04  0.65000000000E+04  0.10000000000E+01 0.  0.
    9000001   -1    0    0    0    0 -0.00000000000E+00 -0.00000000000E+00 -0.64999999231E+04  0.65000000000E+04  0.10000000000E+01 0.  0.
    9000001    1    1    2    0    0  0.42005191400E+04 -0.43250041727E+04  0.24289867971E+04  0.65000000000E+04  0.10000000000E+01 0.  0.
    9000001    1    1    2    0    0 -0.42005191400E+04  0.43250041727E+04 -0.24289867971E+04  0.65000000000E+04  0.10000000000E+01 0.  0.
</event>
<event>
 4    1  0.2191064E-006  0.1300000E+05  0.7957747E-01  0.1322471E+00
    9000001   -1    0    0    0    0  0.00000000000E+00  0.00000000000E+00  0.64999999231E+04  0.65000000000E+04  0.10000000000E+01 0.  0.
    9000001   -1    0    0    0    0 -0.00000000000E+00 -0.00000000000E+00 -0.64999999231E+04  0.65000000000E+04  0.10000000000E+01 0.  0.
    9000001    1    1    2    0    0  0.47003672977E+04  0.34843398680E+04 -0.28312403556E+04  0.65000000000E+04  0.10000000000E+01 0.  0.
    9000001    1    1    2    0    0 -0.47003672977E+04 -0.34843398680E+04  0.28312403556E+04  0.65000000000E+04  0.10000000000E+01 0.  0.
</event>
<event>
 4    1  0.2191064E-006  0.1300000E+05  0.7957747E-01  0.1322471E+00
    9000001   -1    0    0    0    0  0.00000000000E+00  0.00000000000E+00  0.64999999231E+04  0.65000000000E+04  0.10000000000E+01 0.  0.
    9000001   -1    0    0    0    0 -0.00000000000E+00 -0.00000000000E+00 -0.64999999231E+04  0.65000000000E+04  0.10000000000E+01 0.  0.
    9000001    1    1    2    0    0 -0.14487532583E+04 -0.14729419320E+04  0.61629177393E+04  0.65000000000E+04  0.10000000000E+01 0.  0.
    9000001    1    1    2    0    0  0.14487532583E+04  0.14729419320E+04 -0.61629177393E+04  0.65000000000E+04  0.10000000000E+01 0.  0.
</event>
<event>
 4    1  0.2191064E-006  0.1300000E+05  0.7957747E-01  0.1322471E+00
    9000001   -1    0    0    0    0  0.00000000000E+00  0.00000000000E+00  0.64999999231E+04  0.65000000000E+04  0.10000000000E+01 0.  0.
    9000001   -1    0    0    0    0 -0.00000000000E+00 -0.00000000000E+00 -0.64999999231E+04  0.65000000000E+04  0.10000000000E+01 0.  0.
    9000001    1    1    2    0    0 -0.48846655317E+04 -0.22343565613E+04 -0.36602858359E+04  0.65000000000E+04  0.10000000000E+01 0.  0.
    9000001    1    1    2    0    0  0.48846655317E+04  0.22343565613E+04  0.36602858359E+04  0.65000000000E+04  0.10000000000E+01 0.  0.
</event>
<event>
 4    1  0.2191064E-006  0.1300000E+05  0.7957747E-01  0.1322471E+00
    9000001   -1    0    0    0    0  0.00000000000E+00  0.00000000000E+00  0.64999999231E+04  0.65000000000E+04  0.10000000000E+01 0.  0.
    9000001   -1    0    0    0    0 -0.00000000000E+00 -0.00000000000E+00 -0.64999999231E+04  0.65000000000E+04  0.10000000000E+01 0.  0.
    9000001    1    1    2    0    0  0.24711454206E+04  0.60059669353E+04  0.26795612067E+03  0.65000000000E+04  0.10000000000E+01 0.  0.
    9000001    1    1    2    0    0 -0.24711454206E+04 -0.60059669353E+04 -0.26795612067E+03  0.65000000000E+04  0.10000000000E+01 0.  0.
</event>
<event>
 4    1  0.2191064E-006  0.1300000E+05  0.7957747E-01  0.1322471E+00
    9000001   -1    0    0    0    0  0.00000000000E+00  0.00000000000E+00  0.64999999231E+04  0.65000000000E+04  0.10000000000E+01 0.  0.
    9000001   -1    0    0    0    0 -0.00000000000E+00 -0.00000000000E+00 -0.64999999231E+04  0.65000000000E+04  0.10000000000E+01 0.  0.
    9000001    1    1    2    0    0  0.96140846529E+03  0.64158731878E+04  0.40282005994E+03  0.65000000000E+04  0.10000000000E+01 0.  0.
    9000001    1    1    2    0    0 -0.96140846529E+03 -0.64158731878E+04 -0.40282005994E+03  0.65000000000E+04  0.10000000000E+01 0.  0.
</event>
<event>
 4    1  0.2191064E-006  0.1300000E+05  0.7957747E-01  0.1322471E+00
    9000001   -1    0    0    0    0  0.00000000000E+00  0.00000000000E+00  0.64999999231E+04  0.65000000000E+04  0.10000000000E+01 0.  0.
    9000001   -1    0    0    0    0 -0.00000000000E+00 -0.00000000000E+00 -0.64999999231E+04  0.65000000000E+04  0.10000000000E+01 0.  0.
    9000001    1    1    2    0    0 -0.14611000823E+04  0.57888476044E+04 -0.25699083569E+04  0.65000000000E+04  0.10000000000E+01 0.  0.
    9000001    1    1    2    0    0  0.14611000823E+04 -0.57888476044E+04  0.25699083569E+04  0.65000000000E+04  0.10000000000E+01 0.  0.
</event>
<event>
 4    1  0.2191064E-006  0.1300000E+05  0.7957747E-01  0.1322471E+00
    9000001   -1    0    0    0    0  0.00000000000E+00  0.00000000000E+00  0.64999999231E+04  0.65000000000E+04  0.10000000000E+01 0.  0.
    9000001   -1    0    0    0    0 -0.00000000000E+00 -0.00000000000E+00 -0.64999999231E+04  0.65000000000E+04  0.10000000000E+01 0.  0.
    9000001    1    1    2    0    0 -0.45357004357E+03  0.63568976335E+04  0.12783292583E+04  0.65000000000E+04  0.10000000000E+01 0.  0.
    9000001    1    1    2    0    0  0.45357004357E+03 -0.63568976335E+04 -0.12783292583E+04  0.65000000000E+04  0.10000000000E+01 0.  0.
</event>
<event>
 4    1  0.2191064E-006  0.1300000E+05  0.7957747E-01  0.1322471E+00
    9000001   -1    0    0    0    0  0.00000000000E+00  0.00000000000E+00  0.64999999231E+04  0.65000000000E+04  0.10000000000E+01 0.  0.
    9000001   -1    0    0    0    0 -0.00000000000E+00 -0.00000000000E+00 -0.64999999231E+04  0.65000000000E+04  0.10000000000E+01 0.  0.
    9000001    1    1    2    0    0  0.25444728505E+04 -0.56348253327E+04  0.20060908212E+04  0.65000000000E+04  0.10000000000E+01 0.  0.
    9000001    1    1    2    0    0 -0.25444728505E+04  0.56348253327E+04 -0.20060908212E+04  0.65000000000E+04  0.10000000000E+01 0.  0.
</event>
<event>
 4    1  0.2191064E-006  0.1300000E+05  0.7957747E-01  0.1322471E+00
    9000001   -1    0    0    0    0  0.00000000000E+00  0.00000000000E+00  0.64999999231E+04  0.65000000000E+04  0.10000000000E+01 0.  0.
    9000001   -1    0    0    0    0 -0.00000000000E+00 -0.00000000000E+00 -0.64999999231E+04  0.65000000000E+04  0.10000000000E+01 0.  0.
    9000001    1    1    2    0    0  0.27729079669E+04  0.21549780408E+04 -0.54696480738E+04  0.65000000000E+04  0.10000000000E+01 0.  0.
    9000001    1    1    2    0    0 -0.27729079669E+04 -0.21549780408E+04  0.54696480738E+04  0.65000000000E+04  0.10000000000E+01 0.  0.
</event>
<event>
 4    1  0.2191064E-006  0.1300000E+05  0.7957747E-01  0.1322471E+00
    9000001   -1    0    0    0    0  0.00000000000E+00  0.00000000000E+00  0.64999999231E+04  0.65000000000E+04  0.10000000000E+01 0.  0.
    9000001   -1    0    0    0    0 -0.00000000000E+00 -0.00000000000E+00 -0.64999999231E+04  0.65000000000E+04  0.10000000000E+01 0.  0.
    9000001    1    1    2    0    0  0.32238689246E+04  0.51107528611E+04  0.23951771019E+04  0.65000000000E+04  0.10000000000E+01 0.  0.
    9000001    1    1    2    0    0 -0.32238689246E+04 -0.51107528611E+04 -0.23951771019E+04  0.65000000000E+04  0.10000000000E+01 0.  0.
</event>
<event>
 4    1  0.2191064E-006  0.1300000E+05  0.7957747E-01  0.1322471E+00
    9000001   -1    0    0    0    0  0.00000000000E+00  0.00000000000E+00  0.64999999231E+04  0.65000000000E+04  0.10000000000E+01 0.  0.
    9000001   -1    0    0    0    0 -0.00000000000E+00 -0.00000000000E+00 -0.64999999231E+04  0.65000000000E+04  0.10000000000E+01 0.  0.
    9000001    1    1    2    0    0 -0.32016718898E+02  0.56262918427E+04  0.32548139779E+04  0.65000000000E+04  0.10000000000E+01 0.  0.
    9000001    1    1    2    0    0  0.32016718898E+02 -0.56262918427E+04 -0.32548139779E+04  0.65000000000E+04  0.10000000000E+01 0.  0.
</event>
<event>
 4    1  0.2191064E-006  0.1300000E+05  0.7957747E-01  0.1322471E+00
    9000001   -1    0    0    0    0  0.00000000000E+00  0.00000000000E+00  0.64999999231E+04  0.65000000000E+04  0.10000000000E+01 0.  0.
    9000001   -1    0    0    0    0 -0.00000000000E+00 -0.00000000000E+00 -0.64999999231E+04  0.65000000000E+04  0.10000000000E+01 0.  0.
    9000001    1    1    2    0    0 -0.10025961803E+04 -0.61059238619E+04  0.19906013392E+04  0.65000000000E+04  0.10000000000E+01 0.  0.
    9000001    1    1    2    0    0  0.10025961803E+04  0.61059238619E+04 -0.19906013392E+04  0.65000000000E+04  0.10000000000E+01 0.  0.
</event>
<event>
 4    1  0.2191064E-006  0.1300000E+05  0.7957747E-01  0.1322471E+00
    9000001   -1    0    0    0    0  0.00000000000E+00  0.00000000000E+00  0.64999999231E+04  0.65000000000E+04  0.10000000000E+01 0.  0.
    9000001   -1    0    0    0    0 -0.00000000000E+00 -0.00000000000E+00 -0.64999999231E+04  0.65000000000E+04  0.10000000000E+01 0.  0.
    9000001    1    1    2    0    0  0.30780185939E+03 -0.63435717074E+04 -0.13836021858E+04  0.65000000000E+04  0.10000000000E+01 0.  0.
    9000001    1    1    2    0    0 -0.30780185939E+03  0.63435717074E+04  0.13836021858E+04  0.65000000000E+04  0.10000000000E+01 0.  0.
</event>
<event>
 4    1  0.2191064E-006  0.1300000E+05  0.7957747E-01  0.1322471E+00
    9000001   -1    0    0    0    0  0.00000000000E+00  0.00000000000E+00  0.64999999231E+04  0.65000000000E+04  0.10000000000E+01 0.  0.
    9000001   -1    0    0    0    0 -0.00000000000E+00 -0.00000000000E+00 -0.64999999231E+04  0.65000000000E+04  0.10000000000E+01 0.  0.
    9000001    1    1    2    0    0  0.39595326079E+04 -0.22390045173E+04 -0.46431626397E+04  0.65000000000E+04  0.10000000000E+01 0.  0.
    9000001    1    1    2    0    0 -0.39595326079E+04  0.22390045173E+04  0.46431626397E+04  0.65000000000E+04  0.10000000000E+01 0.  0.
</event>
<event>
 4    1  0.2191064E-006  0.1300000E+05  0.7957747E-01  0.1322471E+00
    9000001   -1    0    0    0    0  0.00000000000E+00  0.00000000000E+00  0.64999999231E+04  0.65000000000E+04  0.10000000000E+01 0.  0.
    9000001   -1    0    0    0    0 -0.00000000000E+00 -0.00000000000E+00 -0.64999999231E+04  0.65000000000E+04  0.10000000000E+01 0.  0.
    9000001    1    1    2    0    0  0.18688963048E+04  0.56779522188E+04 -0.25530538974E+04  0.65000000000E+04  0.10000000000E+01 0.  0.
    9000001    1    1    2    0    0 -0.18688963048E+04 -0.56779522188E+04  0.25530538974E+04  0.65000000000E+04  0.10000000000E+01 0.  0.
</event>
<event>
 4    1  0.2191064E-006  0.1300000E+05  0.7957747E-01  0.1322471E+00
    9000001   -1    0    0    0    0  0.00000000000E+00  0.00000000000E+00  0.64999999231E+04  0.65000000000E+04  0.10000000000E+01 0.  0.
    9000001   -1    0    0    0    0 -0.00000000000E+00 -0.00000000000E+00 -0.64999999231E+04  0.65000000000E+04  0.10000000000E+01 0.  0.
    9000001    1    1    2    0    0  0.16398740756E+04 -0.56954869397E+04  0.26687526179E+04  0.65000000000E+04  0.10000000000E+01 0.  0.
    9000001    1    1    2    0    0 -0.16398740756E+04  0.56954869397E+04 -0.26687526179E+04  0.65000000000E+04  0.10000000000E+01 0.  0.
</event>
<event>
 4    1  0.2191064E-006  0.1300000E+05  0.7957747E-01  0.1322471E+00
    9000001   -1    0    0    0    0  0.00000000000E+00  0.00000000000E+00  0.64999999231E+04  0.65000000000E+04  0.10000000000E+01 0.  0.
    9000001   -1    0    0    0    0 -0.00000000000E+00 -0.00000000000E+00 -0.64999999231E+04  0.65000000000E+04  0.10000000000E+01 0.  0.
    9000001    1    1    2    0    0  0.17435181024E+04  0.60410329717E+04 -0.16480486224E+04  0.65000000000E+04  0.10000000000E+01 0.  0.
    9000001    1    1    2    0    0 -0.17435181024E+04 -0.60410329717E+04  0.16480486224E+04  0.65000000000E+04  0.10000000000E+01 0.  0.
</event>
<event>
 4    1  0.2191064E-006  0.1300000E+05  0.7957747E-01  0.1322471E+00
    9000001   -1    0    0    0    0  0.00000000000E+00  0.00000000000E+00  0.64999999231E+04  0.65000000000E+04  0.10000000000E+01 0.  0.
    9000001   -1    0    0    0    0 -0.00000000000E+00 -0.00000000000E+00 -0.64999999231E+04  0.65000000000E+04  0.10000000000E+01 0.  0.
    9000001    1    1    2    0    0 -0.64754963150E+04  0.48345179135E+03 -0.29020827043E+03  0.65000000000E+04  0.10000000000E+01 0.  0.
    9000001    1    1    2    0    0  0.64754963150E+04 -0.48345179135E+03  0.29020827043E+03  0.65000000000E+04  0.10000000000E+01 0.  0.
</event>
<event>
 4    1  0.2191064E-006  0.1300000E+05  0.7957747E-01  0.1322471E+00
    9000001   -1    0    0    0    0  0.00000000000E+00  0.00000000000E+00  0.64999999231E+04  0.65000000000E+04  0.10000000000E+01 0.  0.
    9000001   -1    0    0    0    0 -0.00000000000E+00 -0.00000000000E+00 -0.64999999231E+04  0.65000000000E+04  0.10000000000E+01 0.  0.
    9000001    1    1    2    0    0  0.22093196582E+04  0.56595237658E+04  0.23105619213E+04  0.65000000000E+04  0.10000000000E+01 0.  0.
    9000001    1    1    2    0    0 -0.22093196582E+04 -0.56595237658E+04 -0.23105619213E+04  0.65000000000E+04  0.10000000000E+01 0.  0.
</event>
<event>
 4    1  0.2191064E-006  0.1300000E+05  0.7957747E-01  0.1322471E+00
    9000001   -1    0    0    0    0  0.00000000000E+00  0.00000000000E+00  0.64999999231E+04  0.65000000000E+04  0.10000000000E+01 0.  0.
    9000001   -1    0    0    0    0 -0.00000000000E+00 -0.00000000000E+00 -0.64999999231E+04  0.65000000000E+04  0.10000000000E+01 0.  0.
    9000001    1    1    2    0    0 -0.66734478045E+02 -0.63380821915E+04  0.14402290246E+04  0.65000000000E+04  0.10000000000E+01 0.  0.
    9000001    1    1    2    0    0  0.66734478045E+02  0.63380821915E+04 -0.14402290246E+04  0.65000000000E+04  0.10000000000E+01 0.  0.
</event>
<event>
 4    1  0.2191064E-006  0.1300000E+05  0.7957747E-01  0.1322471E+00
    9000001   -1    0    0    0    0  0.00000000000E+00  0.00000000000E+00  0.64999999231E+04  0.65000000000E+04  0.10000000000E+01 0.  0.
    9000001   -1    0    0    0    0 -0.00000000000E+00 -0.00000000000E+00 -0.64999999231E+04  0.65000000000E+04  0.10000000000E+01 0.  0.
    9000001    1    1    2    0    0 -0.59084011211E+04 -0.13958048338E+04  0.23221808840E+04  0.65000000000E+04  0.10000000000E+01 0.  0.
    9000001    1    1    2    0    0  0.59084011211E+04  0.13958048338E+04 -0.23221808840E+04  0.65000000000E+04  0.10000000000E+01 0.  0.
</event>
<event>
 4    1  0.2191064E-006  0.1300000E+05  0.7957747E-01  0.1322471E+00
    9000001   -1    0    0    0    0  0.00000000000E+00  0.00000000000E+00  0.64999999231E+04  0.65000000000E+04  0.10000000000E+01 0.  0.
    9000001   -1    0    0    0    0 -0.00000000000E+00 -0.00000000000E+00 -0.64999999231E+04  0.65000000000E+04  0.10000000000E+01 0.  0.
    9000001    1    1    2    0    0 -0.58991866386E+04  0.27184521385E+04  0.24415973016E+03  0.65000000000E+04  0.10000000000E+01 0.  0.
    9000001    1    1    2    0    0  0.58991866386E+04 -0.27184521385E+04 -0.24415973016E+03  0.65000000000E+04  0.10000000000E+01 0.  0.
</event>
<event>
 4    1  0.2191064E-006  0.1300000E+05  0.7957747E-01  0.1322471E+00
    9000001   -1    0    0    0    0  0.00000000000E+00  0.00000000000E+00  0.64999999231E+04  0.65000000000E+04  0.10000000000E+01 0.  0.
    9000001   -1    0    0    0    0 -0.00000000000E+00 -0.00000000000E+00 -0.64999999231E+04  0.65000000000E+04  0.10000000000E+01 0.  0.
    9000001    1    1    2    0    0 -0.56122885296E+04  0.15973990215E+04 -0.28636572467E+04  0.65000000000E+04  0.10000000000E+01 0.  0.
    9000001    1    1    2    0    0  0.56122885296E+04 -0.15973990215E+04  0.28636572467E+04  0.65000000000E+04  0.10000000000E+01 0.  0.
</event>
<event>
 4    1  0.2191064E-006  0.1300000E+05  0.7957747E-01  0.1322471E+00
    9000001   -1    0    0    0    0  0.00000000000E+00  0.00000000000E+00  0.64999999231E+04  0.65000000000E+04  0.10000000000E+01 0.  0.
    9000001   -1    0    0    0    0 -0.00000000000E+00 -0.00000000000E+00 -0.64999999231E+04  0.65000000000E+04  0.10000000000E+01 0.  0.
    9000001    1    1    2    0    0  0.11636039153E+04  0.57924731944E+04 -0.27098485604E+04  0.65000000000E+04  0.10000000000E+01 0.  0.
    9000001    1    1    2    0    0 -0.11636039153E+04 -0.57924731944E+04  0.27098485604E+04  0.65000000000E+04  0.10000000000E+01 0.  0.
</event>
<event>
 4    1  0.2191064E-006  0.1300000E+05  0.7957747E-01  0.1322471E+00
    9000001   -1    0    0    0    0  0.00000000000E+00  0.00000000000E+00  0.64999999231E+04  0.65000000000E+04  0.10000000000E+01 0.  0.
    9000001   -1    0    0    0    0 -0.00000000000E+00 -0.00000000000E+00 -0.64999999231E+04  0.65000000000E+04  0.10000000000E+01 0.  0.
    9000001    1    1    2    0    0  0.37188670790E+04 -0.46736683806E+04 -0.25645370960E+04  0.65000000000E+04  0.10000000000E+01 0.  0.
    9000001    1    1    2    0    0 -0.37188670790E+04  0.46736683806E+04  0.25645370960E+04  0.65000000000E+04  0.10000000000E+01 0.  0.
</event>
<event>
 4    1  0.2191064E-006  0.1300000E+05  0.7957747E-01  0.1322471E+00
    9000001   -1    0    0    0    0  0.00000000000E+00  0.00000000000E+00  0.64999999231E+04  0.65000000000E+04  0.10000000000E+01 0.  0.
    9000001   -1    0    0    0    0 -0.00000000000E+00 -0.00000000000E+00 -0.64999999231E+04  0.65000000000E+04  0.10000000000E+01 0.  0.
    9000001    1    1    2    0    0  0.34411829777E+04  0.15129692452E+04  0.53027523775E+04  0.65000000000E+04  0.10000000000E+01 0.  0.
    9000001    1    1    2    0    0 -0.34411829777E+04 -0.15129692452E+04 -0.53027523775E+04  0.65000000000E+04  0.10000000000E+01 0.  0.
</event>
<event>
 4    1  0.2191064E-006  0.1300000E+05  0.7957747E-01  0.1322471E+00
    9000001   -1    0    0    0    0  0.00000000000E+00  0.00000000000E+00  0.64999999231E+04  0.65000000000E+04  0.10000000000E+01 0.  0.
    9000001   -1    0    0    0    0 -0.00000000000E+00 -0.00000000000E+00 -0.64999999231E+04  0.65000000000E+04  0.10000000000E+01 0.  0.
    9000001    1    1    2    0    0  0.43574420030E+04 -0.25350441504E+04 -0.41031998911E+04  0.65000000000E+04  0.10000000000E+01 0.  0.
    9000001    1    1    2    0    0 -0.43574420030E+04  0.25350441504E+04  0.41031998911E+04  0.65000000000E+04  0.10000000000E+01 0.  0.
</event>
<event>
 4    1  0.2191064E-006  0.1300000E+05  0.7957747E-01  0.1322471E+00
    9000001   -1    0    0    0    0  0.00000000000E+00  0.00000000000E+00  0.64999999231E+04  0.65000000000E+04  0.10000000000E+01 0.  0.
    9000001   -1    0    0    0    0 -0.00000000000E+00 -0.00000000000E+00 -0.64999999231E+04  0.65000000000E+04  0.10000000000E+01 0.  0.
    9000001    1    1    2    0    0 -0.28139590780E+04  0.13128915486E+04 -0.57103370381E+04  0.65000000000E+04  0.10000000000E+01 0.  0.
    9000001    1    1    2    0    0  0.28139590780E+04 -0.13128915486E+04  0.57103370381E+04  0.65000000000E+04  0.10000000000E+01 0.  0.
</event>
<event>
 4    1  0.2191064E-006  0.1300000E+05  0.7957747E-01  0.1322471E+00
    9000001   -1    0    0    0    0  0.00000000000E+00  0.00000000000E+00  0.64999999231E+04  0.65000000000E+04  0.10000000000E+01 0.  0.
    9000001   -1    0    0    0    0 -0.00000000000E+00 -0.00000000000E+00 -0.64999999231E+04  0.65000000000E+04  0.10000000000E+01 0.  0.
    9000001    1    1    2    0    0 -0.34711015675E+04 -0.14804243169E+04  0.52924282471E+04  0.65000000000E+04  0.10000000000E+01 0.  0.
    9000001    1    1    2    0    0  0.34711015675E+04  0.14804243169E+04 -0.52924282471E+04  0.65000000000E+04  0.10000000000E+01 0.  0.
</event>
<event>
 4    1  0.2191064E-006  0.1300000E+05  0.7957747E-01  0.1322471E+00
    9000001   -1    0    0    0    0  0.00000000000E+00  0.00000000000E+00  0.64999999231E+04  0.65000000000E+04  0.10000000000E+01 0.  0.
    9000001   -1    0    0    0    0 -0.00000000000E+00 -0.00000000000E+00 -0.64999999231E+04  0.65000000000E+04  0.10000000000E+01 0.  0.
    9000001    1    1    2    0    0 -0.83430749038E+03  0.60295040322E+03  0.64179732644E+04  0.65000000000E+04  0.10000000000E+01 0.  0.
    9000001    1    1    2    0    0  0.83430749038E+03 -0.60295040322E+03 -0.64179732644E+04  0.65000000000E+04  0.10000000000E+01 0.  0.
</event>
<event>
 4    1  0.2191064E-006  0.1300000E+05  0.7957747E-01  0.1322471E+00
    9000001   -1    0    0    0    0  0.00000000000E+00  0.00000000000E+00  0.64999999231E+04  0.65000000000E+04  0.10000000000E+01 0.  0.
    9000001   -1    0    0    0    0 -0.00000000000E+00 -0.00000000000E+00 -0.64999999231E+04  0.65000000000E+04  0.10000000000E+01 0.  0.
    9000001    1    1    2    0    0  0.29715822654E+04  0.56018867349E+04  0.14277824935E+04  0.65000000000E+04  0.10000000000E+01 0.  0.
    9000001    1    1    2    0    0 -0.29715822654E+04 -0.56018867349E+04 -0.14277824935E+04  0.65000000000E+04  0.10000000000E+01 0.  0.
</event>
<event>
 4    1  0.2191064E-006  0.1300000E+05  0.7957747E-01  0.1322471E+00
    9000001   -1    0    0    0    0  0.00000000000E+00  0.00000000000E+00  0.64999999231E+04  0.65000000000E+04  0.10000000000E+01 0.  0.
    9000001   -1    0    0    0    0 -0.00000000000E+00 -0.00000000000E+00 -0.64999999231E+04  0.65000000000E+04  0.10000000000E+01 0.  0.
    9000001    1    1    2    0    0  0.55326597403E+04 -0.20512793727E+04  0.27261562928E+04  0.65000000000E+04  0.10000000000E+01 0.  0.
    9000001    1    1    2    0    0 -0.55326597403E+04  0.20512793727E+04 -0.27261562928E+04  0.65000000000E+04  0.10000000000E+01 0.  0.
</event>
<event>
 4    1  0.2191064E-006  0.1300000E+05  0.7957747E-01  0.1322471E+00
    9000001   -1    0    0    0    0  0.00000000000E+00  0.00000000000E+00  0.64999999231E+04  0.65000000000E+04  0.10000000000E+01 0.  0.
    9000001   -1    0    0    0    0 -0.00000000000E+00 -0.00000000000E+00 -0.64999999231E+04  0.65000000000E+04  0.10000000000E+01 0.  0.
    9000001    1    1    2    0    0  0.36187079233E+04  0.53828651809E+04 -0.42392736394E+03  0.65000000000E+04  0.10000000000E+01 0.  0.
    9000001    1    1    2    0    0 -0.36187079233E+04 -0.53828651809E+04  0.42392736394E+03  0.65000000000E+04  0.10000000000E+01 0.  0.
</event>
<event>
 4    1  0.2191064E-006  0.1300000E+05  0.7957747E-01  0.1322471E+00
    9000001   -1    0    0    0    0  0.00000000000E+00  0.00000000000E+00  0.64999999231E+04  0.65000000000E+04  0.10000000000E+01 0.  0.
    9000001   -1    0    0    0    0 -0.00000000000E+00 -0.00000000000E+00 -0.64999999231E+04  0.65000000000E+04  0.10000000000E+01 0.  0.
    9000001    1    1    2    0    0 -0.45270487922E+04  0.14115487625E+04 -0.44455998834E+04  0.65000000000E+04  0.10000000000E+01 0.  0.
    9000001    1    1    2    0    0  0.45270487922E+04 -0.14115487625E+04  0.44455998834E+04  0.65000000000E+04  0.10000000000E+01 0.  0.
</event>
<event>
 4    1  0.2191064E-006  0.1300000E+05  0.7957747E-01  0.1322471E+00
    9000001   -1    0    0    0    0  0.00000000000E+00  0.00000000000E+00  0.64999999231E+04  0.65000000000E+04  0.10000000000E+01 0.  0.
    9000001   -1    0    0    0    0 -0.00000000000E+00 -0.00000000000E+00 -0.64999999231E+04  0.65000000000E+04  0.10000000000E+01 0.  0.
    9000001    1    1    2    0    0 -0.45174605711E+04  0.38761908058E+03  0.46574993759E+04  0.65000000000E+04  0.10000000000E+01 0.  0.
    9000001    1    1    2    0    0  0.45174605711E+04 -0.38761908058E+03 -0.46574993759E+04  0.65000000000E+04  0.10000000000E+01 0.  0.
</event>
<event>
 4    1  0.2191064E-006  0.1300000E+05  0.7957747E-01  0.1322471E+00
    9000001   -1    0    0    0    0  0.00000000000E+00  0.00000000000E+00  0.64999999231E+04  0.65000000000E+04  0.10000000000E+01 0.  0.
    9000001   -1    0    0    0    0 -0.00000000000E+00 -0.00000000000E+00 -0.64999999231E+04  0.65000000000E+04  0.10000000000E+01 0.  0.
    9000001    1    1    2    0    0 -0.39987732270E+04  0.26871355200E+04 -0.43633833634E+04  0.65000000000E+04  0.10000000000E+01 0.  0.
    9000001    1    1    2    0    0  0.39987732270E+04 -0.26871355200E+04  0.43633833634E+04  0.65000000000E+04  0.10000000000E+01 0.  0.
</event>
<event>
 4    1  0.2191064E-006  0.1300000E+05  0.7957747E-01  0.1322471E+00
    9000001   -1    0    0    0    0  0.00000000000E+00  0.00000000000E+00  0.64999999231E+04  0.65000000000E+04  0.10000000000E+01 0.  0.
    9000001   -1    0    0    0    0 -0.00000000000E+00 -0.00000000000E+00 -0.64999999231E+04  0.65000000000E+04  0.10000000000E+01 0.  0.
    9000001    1    1    2    0    0  0.60038017314E+04  0.24735723570E+04 -0.29292245519E+03  0.65000000000E+04  0.10000000000E+01 0.  0.
    9000001    1    1    2    0    0 -0.60038017314E+04 -0.24735723570E+04  0.29292245519E+03  0.65000000000E+04  0.10000000000E+01 0.  0.
</event>
<event>
 4    1  0.2191064E-006  0.1300000E+05  0.7957747E-01  0.1322471E+00
    9000001   -1    0    0    0    0  0.00000000000E+00  0.00000000000E+00  0.64999999231E+04  0.65000000000E+04  0.10000000000E+01 0.  0.
    9000001   -1    0    0    0    0 -0.00000000000E+00 -0.00000000000E+00 -0.64999999231E+04  0.65000000000E+04  0.10000000000E+01 0.  0.
    9000001    1    1    2    0    0  0.25706278308E+04  0.45737320118E+04 -0.38370362312E+04  0.65000000000E+04  0.10000000000E+01 0.  0.
    9000001    1    1    2    0    0 -0.25706278308E+04 -0.45737320118E+04  0.38370362312E+04  0.65000000000E+04  0.10000000000E+01 0.  0.
</event>
<event>
 4    1  0.2191064E-006  0.1300000E+05  0.7957747E-01  0.1322471E+00
    9000001   -1    0    0    0    0  0.00000000000E+00  0.00000000000E+00  0.64999999231E+04  0.65000000000E+04  0.10000000000E+01 0.  0.
    9000001   -1    0    0    0    0 -0.00000000000E+00 -0.00000000000E+00 -0.64999999231E+04  0.65000000000E+04  0.10000000000E+01 0.  0.
    9000001    1    1    2    0    0 -0.27824658014E+04  0.35959956163E+04  0.46450725066E+04  0.65000000000E+04  0.10000000000E+01 0.  0.
    9000001    1    1    2    0    0  0.27824658014E+04 -0.35959956163E+04 -0.46450725066E+04  0.65000000000E+04  0.10000000000E+01 0.  0.
</event>
<event>
 4    1  0.2191064E-006  0.1300000E+05  0.7957747E-01  0.1322471E+00
    9000001   -1    0    0    0    0  0.00000000000E+00  0.00000000000E+00  0.64999999231E+04  0.65000000000E+04  0.10000000000E+01 0.  0.
    9000001   -1    0    0    0    0 -0.00000000000E+00 -0.00000000000E+00 -0.64999999231E+04  0.65000000000E+04  0.10000000000E+01 0.  0.
    9000001    1    1    2    0    0 -0.48945633548E+04 -0.32775804645E+04  0.27478564127E+04  0.65000000000E+04  0.10000000000E+01 0.  0.
    9000001    1    1    2    0    0  0.48945633548E+04  0.32775804645E+04 -0.27478564127E+04  0.65000000000E+04  0.10000000000E+01 0.  0.
</event>
<event>
 4    1  0.2191064E-006  0.1300000E+05  0.7957747E-01  0.1322471E+00
    9000001   -1    0    0    0    0  0.00000000000E+00  0.00000000000E+00  0.64999999231E+04  0.65000000000E+04  0.10000000000E+01 0.  0.
    9000001   -1    0    0    0    0 -0.00000000000E+00 -0.00000000000E+00 -0.64999999231E+04  0.65000000000E+04  0.10000000000E+01 0.  0.
    9000001    1    1    2    0    0  0.58751403601E+04  0.16224914737E+04 -0.22583724598E+04  0.65000000000E+04  0.10000000000E+01 0.  0.
    9000001    1    1    2    0    0 -0.58751403601E+04 -0.16224914737E+04  0.22583724598E+04  0.65000000000E+04  0.10000000000E+01 0.  0.
</event>
<event>
 4    1  0.2191064E-006  0.1300000E+05  0.7957747E-01  0.1322471E+00
    9000001   -1    0    0    0    0  0.00000000000E+00  0.00000000000E+00  0.64999999231E+04  0.65000000000E+04  0.10000000000E+01 0.  0.
    9000001   -1    0    0    0    0 -0.00000000000E+00 -0.00000000000E+00 -0.64999999231E+04  0.65000000000E+04  0.10000000000E+01 0.  0.
    9000001    1    1    2    0    0  0.14667009114E+04 -0.63237664782E+04  0.32979533848E+03  0.65000000000E+04  0.10000000000E+01 0.  0.
    9000001    1    1    2    0    0 -0.14667009114E+04  0.63237664782E+04 -0.32979533848E+03  0.65000000000E+04  0.10000000000E+01 0.  0.
</event>
<event>
 4    1  0.2191064E-006  0.1300000E+05  0.7957747E-01  0.1322471E+00
    9000001   -1    0    0    0    0  0.00000000000E+00  0.00000000000E+00  0.64999999231E+04  0.65000000000E+04  0.10000000000E+01 0.  0.
    9000001   -1    0    0    0    0 -0.00000000000E+00 -0.00000000000E+00 -0.64999999231E+04  0.65000000000E+04  0.10000000000E+01 0.  0.
    9000001    1    1    2    0    0 -0.62628388854E+04 -0.13164018756E+04 -0.11375122846E+04  0.65000000000E+04  0.10000000000E+01 0.  0.
    9000001    1    1    2    0    0  0.62628388854E+04  0.13164018756E+04  0.11375122846E+04  0.65000000000E+04  0.10000000000E+01 0.  0.
</event>
<event>
 4    1  0.2191064E-006  0.1300000E+05  0.7957747E-01  0.1322471E+00
    9000001   -1    0    0    0    0  0.00000000000E+00  0.00000000000E+00  0.64999999231E+04  0.65000000000E+04  0.10000000000E+01 0.  0.
    9000001   -1    0    0    0    0 -0.00000000000E+00 -0.00000000000E+00 -0.64999999231E+04  0.65000000000E+04  0.10000000000E+01 0.  0.
    9000001    1    1    2    0    0  0.16832147356E+03 -0.58044460807E+04 -0.29206287983E+04  0.65000000000E+04  0.10000000000E+01 0.  0.
    9000001    1    1    2    0    0 -0.16832147356E+03  0.58044460807E+04  0.29206287983E+04  0.65000000000E+04  0.10000000000E+01 0.  0.
</event>
<event>
 4    1  0.2191064E-006  0.1300000E+05  0.7957747E-01  0.1322471E+00
    9000001   -1    0    0    0    0  0.00000000000E+00  0.00000000000E+00  0.64999999231E+04  0.65000000000E+04  0.10000000000E+01 0.  0.
    9000001   -1    0    0    0    0 -0.00000000000E+00 -0.00000000000E+00 -0.64999999231E+04  0.65000000000E+04  0.10000000000E+01 0.  0.
    9000001    1    1    2    0    0  0.52686485147E+04 -0.25553510618E+04  0.28216170506E+04  0.65000000000E+04  0.10000000000E+01 0.  0.
    9000001    1    1    2    0    0 -0.52686485147E+04  0.25553510618E+04 -0.28216170506E+04  0.65000000000E+04  0.10000000000E+01 0.  0.
</event>
<event>
 4    1  0.2191064E-006  0.1300000E+05  0.7957747E-01  0.1322471E+00
    9000001   -1    0    0    0    0  0.00000000000E+00  0.00000000000E+00  0.64999999231E+04  0.65000000000E+04  0.10000000000E+01 0.  0.
    9000001   -1    0    0    0    0 -0.00000000000E+00 -0.00000000000E+00 -0.64999999231E+04  0.65000000000E+04  0.10000000000E+01 0.  0.
    9000001    1    1    2    0    0  0.37589365287E+04 -0.42187614291E+04  0.32128565448E+04  0.65000000000E+04  0.10000000000E+01 0.  0.
    9000001    1    1    2    0    0 -0.37589365287E+04  0.42187614291E+04 -0.32128565448E+04  0.65000000000E+04  0.10000000000E+01 0.  0.
</event>
<event>
 4    1  0.2191064E-006  0.1300000E+05  0.7957747E-01  0.1322471E+00
    9000001   -1    0    0    0    0  0.00000000000E+00  0.00000000000E+00  0.64999999231E+04  0.65000000000E+04  0.10000000000E+01 0.  0.
    9000001   -1    0    0    0    0 -0.00000000000E+00 -0.00000000000E+00 -0.64999999231E+04  0.65000000000E+04  0.10000000000E+01 0.  0.
    9000001    1    1    2    0    0 -0.12732205221E+04  0.10977385022E+04  0.62788437377E+04  0.65000000000E+04  0.10000000000E+01 0.  0.
    9000001    1    1    2    0    0  0.12732205221E+04 -0.10977385022E+04 -0.62788437377E+04  0.65000000000E+04  0.10000000000E+01 0.  0.
</event>
<event>
 4    1  0.2191064E-006  0.1300000E+05  0.7957747E-01  0.1322471E+00
    9000001   -1    0    0    0    0  0.00000000000E+00  0.00000000000E+00  0.64999999231E+04  0.65000000000E+04  0.10000000000E+01 0.  0.
    9000001   -1    0    0    0    0 -0.00000000000E+00 -0.00000000000E+00 -0.64999999231E+04  0.65000000000E+04  0.10000000000E+01 0.  0.
    9000001    1    1    2    0    0  0.43481387870E+04 -0.47665343377E+04  0.78983447396E+03  0.65000000000E+04  0.10000000000E+01 0.  0.
    9000001    1    1    2    0    0 -0.43481387870E+04  0.47665343377E+04 -0.78983447396E+03  0.65000000000E+04  0.10000000000E+01 0.  0.
</event>
<event>
 4    1  0.2191064E-006  0.1300000E+05  0.7957747E-01  0.1322471E+00
    9000001   -1    0    0    0    0  0.00000000000E+00  0.00000000000E+00  0.64999999231E+04  0.65000000000E+04  0.10000000000E+01 0.  0.
    9000001   -1    0    0    0    0 -0.00000000000E+00 -0.00000000000E+00 -0.64999999231E+04  0.65000000000E+04  0.10000000000E+01 0.  0.
    9000001    1    1    2    0    0  0.48070119950E+04  0.23940435859E+04 -0.36621291605E+04  0.65000000000E+04  0.10000000000E+01 0.  0.
    9000001    1    1    2    0    0 -0.48070119950E+04 -0.23940435859E+04  0.36621291605E+04  0.65000000000E+04  0.10000000000E+01 0.  0.
</event>
<event>
 4    1  0.2191064E-006  0.1300000E+05  0.7957747E-01  0.1322471E+00
    9000001   -1    0    0    0    0  0.00000000000E+00  0.00000000000E+00  0.64999999231E+04  0.65000000000E+04  0.10000000000E+01 0.  0.
    9000001   -1    0    0    0    0 -0.00000000000E+00 -0.00000000000E+00 -0.64999999231E+04  0.65000000000E+04  0.10000000000E+01 0.  0.
    9000001    1    1    2    0    0 -0.63124412331E+04 -0.14030412339E+04  0.65921163160E+03  0.65000000000E+04  0.10000000000E+01 0.  0.
    9000001    1    1    2    0    0  0.63124412331E+04  0.14030412339E+04 -0.65921163160E+03  0.65000000000E+04  0.10000000000E+01 0.  0.
</event>
<event>
 4    1  0.2191064E-006  0.1300000E+05  0.7957747E-01  0.1322471E+00
    9000001   -1    0    0    0    0  0.00000000000E+00  0.00000000000E+00  0.64999999231E+04  0.65000000000E+04  0.10000000000E+01 0.  0.
    9000001   -1    0    0    0    0 -0.00000000000E+00 -0.00000000000E+00 -0.64999999231E+04  0.65000000000E+04  0.10000000000E+01 0.  0.
    9000001    1    1    2    0    0  0.57905933287E+04 -0.47034647434E+03 -0.29150989856E+04  0.65000000000E+04  0.10000000000E+01 0.  0.
    9000001    1    1    2    0    0 -0.57905933287E+04  0.47034647434E+03  0.29150989856E+04  0.65000000000E+04  0.10000000000E+01 0.  0.
</event>
<event>
 4    1  0.2191064E-006  0.1300000E+05  0.7957747E-01  0.1322471E+00
    9000001   -1    0    0    0    0  0.00000000000E+00  0.00000000000E+00  0.64999999231E+04  0.65000000000E+04  0.10000000000E+01 0.  0.
    9000001   -1    0    0    0    0 -0.00000000000E+00 -0.00000000000E+00 -0.64999999231E+04  0.65000000000E+04  0.10000000000E+01 0.  0.
    9000001    1    1    2    0    0 -0.50236324167E+04 -0.31143190092E+04  0.27044654650E+04  0.65000000000E+04  0.10000000000E+01 0.  0.
    9000001    1    1    2    0    0  0.50236324167E+04  0.31143190092E+04 -0.27044654650E+04  0.65000000000E+04  0.10000000000E+01 0.  0.
</event>
<event>
 4    1  0.2191064E-006  0.1300000E+05  0.7957747E-01  0.1322471E+00
    9000001   -1    0    0    0    0  0.00000000000E+00  0.00000000000E+00  0.64999999231E+04  0.65000000000E+04  0.10000000000E+01 0.  0.
    9000001   -1    0    0    0    0 -0.00000000000E+00 -0.00000000000E+00 -0.64999999231E+04  0.65000000000E+04  0.10000000000E+01 0.  0.
    9000001    1    1    2    0    0 -0.14332477015E+04 -0.33490443981E+04  0.53832798223E+04  0.65000000000E+04  0.10000000000E+01 0.  0.
    9000001    1    1    2    0    0  0.14332477015E+04  0.33490443981E+04 -0.53832798223E+04  0.65000000000E+04  0.10000000000E+01 0.  0.
</event>
<event>
 4    1  0.2191064E-006  0.1300000E+05  0.7957747E-01  0.1322471E+00
    9000001   -1    0    0    0    0  0.00000000000E+00  0.00000000000E+00  0.64999999231E+04  0.65000000000E+04  0.10000000000E+01 0.  0.
    9000001   -1    0    0    0    0 -0.00000000000E+00 -0.00000000000E+00 -0.64999999231E+04  0.65000000000E+04  0.10000000000E+01 0.  0.
    9000001    1    1    2    0    0 -0.23388122786E+04  0.95195614822E+03 -0.59894687258E+04  0.65000000000E+04  0.10000000000E+01 0.  0.
    9000001    1    1    2    0    0  0.23388122786E+04 -0.95195614822E+03  0.59894687258E+04  0.65000000000E+04  0.10000000000E+01 0.  0.
</event>
<event>
 4    1  0.2191064E-006  0.1300000E+05  0.7957747E-01  0.1322471E+00
    9000001   -1    0    0    0    0  0.00000000000E+00  0.00000000000E+00  0.64999999231E+04  0.65000000000E+04  0.10000000000E+01 0.  0.
    9000001   -1    0    0    0    0 -0.00000000000E+00 -0.00000000000E+00 -0.64999999231E+04  0.65000000000E+04  0.10000000000E+01 0.  0.
    9000001    1    1    2    0    0 -0.15734414613E+04 -0.55561890743E+04 -0.29837968997E+04  0.65000000000E+04  0.10000000000E+01 0.  0.
    9000001    1    1    2    0    0  0.15734414613E+04  0.55561890743E+04  0.29837968997E+04  0.65000000000E+04  0.10000000000E+01 0.  0.
</event>
<event>
 4    1  0.2191064E-006  0.1300000E+05  0.7957747E-01  0.1322471E+00
    9000001   -1    0    0    0    0  0.00000000000E+00  0.00000000000E+00  0.64999999231E+04  0.65000000000E+04  0.10000000000E+01 0.  0.
    9000001   -1    0    0    0    0 -0.00000000000E+00 -0.00000000000E+00 -0.64999999231E+04  0.65000000000E+04  0.10000000000E+01 0.  0.
    9000001    1    1    2    0    0  0.47630814000E+04 -0.27326754485E+04  0.34778642111E+04  0.65000000000E+04  0.10000000000E+01 0.  0.
    9000001    1    1    2    0    0 -0.47630814000E+04  0.27326754485E+04 -0.34778642111E+04  0.65000000000E+04  0.10000000000E+01 0.  0.
</event>
<event>
 4    1  0.2191064E-006  0.1300000E+05  0.7957747E-01  0.1322471E+00
    9000001   -1    0    0    0    0  0.00000000000E+00  0.00000000000E+00  0.64999999231E+04  0.65000000000E+04  0.10000000000E+01 0.  0.
    9000001   -1    0    0    0    0 -0.00000000000E+00 -0.00000000000E+00 -0.64999999231E+04  0.65000000000E+04  0.10000000000E+01 0.  0.
    9000001    1    1    2    0    0 -0.44668946720E+04 -0.38895375164E+04 -0.26773772423E+04  0.65000000000E+04  0.10000000000E+01 0.  0.
    9000001    1    1    2    0    0  0.44668946720E+04  0.38895375164E+04  0.26773772423E+04  0.65000000000E+04  0.10000000000E+01 0.  0.
</event>
<event>
 4    1  0.2191064E-006  0.1300000E+05  0.7957747E-01  0.1322471E+00
    9000001   -1    0    0    0    0  0.00000000000E+00  0.00000000000E+00  0.64999999231E+04  0.65000000000E+04  0.10000000000E+01 0.  0.
    9000001   -1    0    0    0    0 -0.00000000000E+00 -0.00000000000E+00 -0.64999999231E+04  0.65000000000E+04  0.10000000000E+01 0.  0.
    9000001    1    1    2    0    0  0.55528480507E+04  0.33778503449E+04  0.77489180000E+02  0.65000000000E+04  0.10000000000E+01 0.  0.
    9000001    1    1    2    0    0 -0.55528480507E+04 -0.33778503449E+04 -0.77489180000E+02  0.65000000000E+04  0.10000000000E+01 0.  0.
</event>
<event>
 4    1  0.2191064E-006  0.1300000E+05  0.7957747E-01  0.1322471E+00
    9000001   -1    0    0    0    0  0.00000000000E+00  0.00000000000E+00  0.64999999231E+04  0.65000000000E+04  0.10000000000E+01 0.  0.
    9000001   -1    0    0    0    0 -0.00000000000E+00 -0.00000000000E+00 -0.64999999231E+04  0.65000000000E+04  0.10000000000E+01 0.  0.
    9000001    1    1    2    0    0 -0.19928983851E+04  0.16114580611E+04  0.59734042174E+04  0.65000000000E+04  0.10000000000E+01 0.  0.
    9000001    1    1    2    0    0  0.19928983851E+04 -0.16114580611E+04 -0.59734042174E+04  0.65000000000E+04  0.10000000000E+01 0.  0.
</event>
<event>
 4    1  0.2191064E-006  0.1300000E+05  0.7957747E-01  0.1322471E+00
    9000001   -1    0    0    0    0  0.00000000000E+00  0.00000000000E+00  0.64999999231E+04  0.65000000000E+04  0.10000000000E+01 0.  0.
    9000001   -1    0    0    0    0 -0.00000000000E+00 -0.00000000000E+00 -0.64999999231E+04  0.65000000000E+04  0.10000000000E+01 0.  0.
    9000001    1    1    2    0    0  0.56277097250E+04 -0.27156585359E+04  0.17899946837E+04  0.65000000000E+04  0.10000000000E+01 0.  0.
    9000001    1    1    2    0    0 -0.56277097250E+04  0.27156585359E+04 -0.17899946837E+04  0.65000000000E+04  0.10000000000E+01 0.  0.
</event>
<event>
 4    1  0.2191064E-006  0.1300000E+05  0.7957747E-01  0.1322471E+00
    9000001   -1    0    0    0    0  0.00000000000E+00  0.00000000000E+00  0.64999999231E+04  0.65000000000E+04  0.10000000000E+01 0.  0.
    9000001   -1    0    0    0    0 -0.00000000000E+00 -0.00000000000E+00 -0.64999999231E+04  0.65000000000E+04  0.10000000000E+01 0.  0.
    9000001    1    1    2    0    0  0.16648259359E+04 -0.23756200173E+04 -0.58167674130E+04  0.65000000000E+04  0.10000000000E+01 0.  0.
    9000001    1    1    2    0    0 -0.16648259359E+04  0.23756200173E+04  0.58167674130E+04  0.65000000000E+04  0.10000000000E+01 0.  0.
</event>
<event>
 4    1  0.2191064E-006  0.1300000E+05  0.7957747E-01  0.1322471E+00
    9000001   -1    0    0    0    0  0.00000000000E+00  0.00000000000E+00  0.64999999231E+04  0.65000000000E+04  0.10000000000E+01 0.  0.
    9000001   -1    0    0    0    0 -0.00000000000E+00 -0.00000000000E+00 -0.64999999231E+04  0.65000000000E+04  0.10000000000E+01 0.  0.
    9000001    1    1    2    0    0  0.58413766118E+04  0.16514224244E+04  0.23240314662E+04  0.65000000000E+04  0.10000000000E+01 0.  0.
    9000001    1    1    2    0    0 -0.58413766118E+04 -0.16514224244E+04 -0.23240314662E+04  0.65000000000E+04  0.10000000000E+01 0.  0.
</event>
<event>
 4    1  0.2191064E-006  0.1300000E+05  0.7957747E-01  0.1322471E+00
    9000001   -1    0    0    0    0  0.00000000000E+00  0.00000000000E+00  0.64999999231E+04  0.65000000000E+04  0.10000000000E+01 0.  0.
    9000001   -1    0    0    0    0 -0.00000000000E+00 -0.00000000000E+00 -0.64999999231E+04  0.65000000000E+04  0.10000000000E+01 0.  0.
    9000001    1    1    2    0    0  0.60517496749E+04  0.22964371906E+04 -0.59388643860E+03  0.65000000000E+04  0.10000000000E+01 0.  0.
    9000001    1    1    2    0    0 -0.60517496749E+04 -0.22964371906E+04  0.59388643860E+03  0.65000000000E+04  0.10000000000E+01 0.  0.
</event>
<event>
 4    1  0.2191064E-006  0.1300000E+05  0.7957747E-01  0.1322471E+00
    9000001   -1    0    0    0    0  0.00000000000E+00  0.00000000000E+00  0.64999999231E+04  0.65000000000E+04  0.10000000000E+01 0.  0.
    9000001   -1    0    0    0    0 -0.00000000000E+00 -0.00000000000E+00 -0.64999999231E+04  0.65000000000E+04  0.10000000000E+01 0.  0.
    9000001    1    1    2    0    0 -0.29919429041E+04 -0.45575373838E+04 -0.35393685389E+04  0.65000000000E+04  0.10000000000E+01 0.  0.
    9000001    1    1    2    0    0  0.29919429041E+04  0.45575373838E+04  0.35393685389E+04  0.65000000000E+04  0.10000000000E+01 0.  0.
</event>
<event>
 4    1  0.2191064E-006  0.1300000E+05  0.7957747E-01  0.1322471E+00
    9000001   -1    0    0    0    0  0.00000000000E+00  0.00000000000E+00  0.64999999231E+04  0.65000000000E+04  0.10000000000E+01 0.  0.
    9000001   -1    0    0    0    0 -0.00000000000E+00 -0.00000000000E+00 -0.64999999231E+04  0.65000000000E+04  0.10000000000E+01 0.  0.
    9000001    1    1    2    0    0  0.18886920354E+04 -0.63771587837E+03  0.61867729758E+04  0.65000000000E+04  0.10000000000E+01 0.  0.
    9000001    1    1    2    0    0 -0.18886920354E+04  0.63771587837E+03 -0.61867729758E+04  0.65000000000E+04  0.10000000000E+01 0.  0.
</event>
<event>
 4    1  0.2191064E-006  0.1300000E+05  0.7957747E-01  0.1322471E+00
    9000001   -1    0    0    0    0  0.00000000000E+00  0.00000000000E+00  0.64999999231E+04  0.65000000000E+04  0.10000000000E+01 0.  0.
    9000001   -1    0    0    0    0 -0.00000000000E+00 -0.00000000000E+00 -0.64999999231E+04  0.65000000000E+04  0.10000000000E+01 0.  0.
    9000001    1    1    2    0    0  0.43968411700E+04  0.45110565540E+04  0.16025465649E+04  0.65000000000E+04  0.10000000000E+01 0.  0.
    9000001    1    1    2    0    0 -0.43968411700E+04 -0.45110565540E+04 -0.16025465649E+04  0.65000000000E+04  0.10000000000E+01 0.  0.
</event>
<event>
 4    1  0.2191064E-006  0.1300000E+05  0.7957747E-01  0.1322471E+00
    9000001   -1    0    0    0    0  0.00000000000E+00  0.00000000000E+00  0.64999999231E+04  0.65000000000E+04  0.10000000000E+01 0.  0.
    9000001   -1    0    0    0    0 -0.00000000000E+00 -0.00000000000E+00 -0.64999999231E+04  0.65000000000E+04  0.10000000000E+01 0.  0.
    9000001    1    1    2    0    0 -0.50918128520E+04 -0.54741600713E+03  0.40029709711E+04  0.65000000000E+04  0.10000000000E+01 0.  0.
    9000001    1    1    2    0    0  0.50918128520E+04  0.54741600713E+03 -0.40029709711E+04  0.65000000000E+04  0.10000000000E+01 0.  0.
</event>
<event>
 4    1  0.2191064E-006  0.1300000E+05  0.7957747E-01  0.1322471E+00
    9000001   -1    0    0    0    0  0.00000000000E+00  0.00000000000E+00  0.64999999231E+04  0.65000000000E+04  0.10000000000E+01 0.  0.
    9000001   -1    0    0    0    0 -0.00000000000E+00 -0.00000000000E+00 -0.64999999231E+04  0.65000000000E+04  0.10000000000E+01 0.  0.
    9000001    1    1    2    0    0 -0.19162941715E+04  0.46673309167E+04  0.40980285214E+04  0.65000000000E+04  0.10000000000E+01 0.  0.
    9000001    1    1    2    0    0  0.19162941715E+04 -0.46673309167E+04 -0.40980285214E+04  0.65000000000E+04  0.10000000000E+01 0.  0.
</event>
<event>
 4    1  0.2191064E-006  0.1300000E+05  0.7957747E-01  0.1322471E+00
    9000001   -1    0    0    0    0  0.00000000000E+00  0.00000000000E+00  0.64999999231E+04  0.65000000000E+04  0.10000000000E+01 0.  0.
    9000001   -1    0    0    0    0 -0.00000000000E+00 -0.00000000000E+00 -0.64999999231E+04  0.65000000000E+04  0.10000000000E+01 0.  0.
    9000001    1    1    2    0    0 -0.92393263505E+03  0.59309144389E+03 -0.64066051872E+04  0.65000000000E+04  0.10000000000E+01 0.  0.
    9000001    1    1    2    0    0  0.92393263505E+03 -0.59309144389E+03  0.64066051872E+04  0.65000000000E+04  0.10000000000E+01 0.  0.
</event>
<event>
 4    1  0.2191064E-006  0.1300000E+05  0.7957747E-01  0.1322471E+00
    9000001   -1    0    0    0    0  0.00000000000E+00  0.00000000000E+00  0.64999999231E+04  0.65000000000E+04  0.10000000000E+01 0.  0.
    9000001   -1    0    0    0    0 -0.00000000000E+00 -0.00000000000E+00 -0.64999999231E+04  0.65000000000E+04  0.10000000000E+01 0.  0.
    9000001    1    1    2    0    0 -0.27087897796E+04 -0.55189415564E+04 -0.21103888331E+04  0.65000000000E+04  0.10000000000E+01 0.  0.
    9000001    1    1    2    0    0  0.27087897796E+04  0.55189415564E+04  0.21103888331E+04  0.65000000000E+04  0.10000000000E+01 0.  0.
</event>
<event>
 4    1  0.2191064E-006  0.1300000E+05  0.7957747E-01  0.1322471E+00
    9000001   -1    0    0    0    0  0.00000000000E+00  0.00000000000E+00  0.64999999231E+04  0.65000000000E+04  0.10000000000E+01 0.  0.
    9000001   -1    0    0    0    0 -0.00000000000E+00 -0.00000000000E+00 -0.64999999231E+04  0.65000000000E+04  0.10000000000E+01 0.  0.
    9000001    1    1    2    0    0 -0.27710458643E+04  0.93641319630E+03 -0.58046907018E+04  0.65000000000E+04  0.10000000000E+01 0.  0.
    9000001    1    1    2    0    0  0.27710458643E+04 -0.93641319630E+03  0.58046907018E+04  0.65000000000E+04  0.10000000000E+01 0.  0.
</event>
<event>
 4    1  0.2191064E-006  0.1300000E+05  0.7957747E-01  0.1322471E+00
    9000001   -1    0    0    0    0  0.00000000000E+00  0.00000000000E+00  0.64999999231E+04  0.65000000000E+04  0.10000000000E+01 0.  0.
    9000001   -1    0    0    0    0 -0.00000000000E+00 -0.00000000000E+00 -0.64999999231E+04  0.65000000000E+04  0.10000000000E+01 0.  0.
    9000001    1    1    2    0    0 -0.54344762730E+04 -0.12283318732E+04  0.33477854543E+04  0.65000000000E+04  0.10000000000E+01 0.  0.
    9000001    1    1    2    0    0  0.54344762730E+04  0.12283318732E+04 -0.33477854543E+04  0.65000000000E+04  0.10000000000E+01 0.  0.
</event>
<event>
 4    1  0.2191064E-006  0.1300000E+05  0.7957747E-01  0.1322471E+00
    9000001   -1    0    0    0    0  0.00000000000E+00  0.00000000000E+00  0.64999999231E+04  0.65000000000E+04  0.10000000000E+01 0.  0.
    9000001   -1    0    0    0    0 -0.00000000000E+00 -0.00000000000E+00 -0.64999999231E+04  0.65000000000E+04  0.10000000000E+01 0.  0.
    9000001    1    1    2    0    0  0.47647795278E+04  0.28140315435E+04 -0.34100002233E+04  0.65000000000E+04  0.10000000000E+01 0.  0.
    9000001    1    1    2    0    0 -0.47647795278E+04 -0.28140315435E+04  0.34100002233E+04  0.65000000000E+04  0.10000000000E+01 0.  0.
</event>
<event>
 4    1  0.2191064E-006  0.1300000E+05  0.7957747E-01  0.1322471E+00
    9000001   -1    0    0    0    0  0.00000000000E+00  0.00000000000E+00  0.64999999231E+04  0.65000000000E+04  0.10000000000E+01 0.  0.
    9000001   -1    0    0    0    0 -0.00000000000E+00 -0.00000000000E+00 -0.64999999231E+04  0.65000000000E+04  0.10000000000E+01 0.  0.
    9000001    1    1    2    0    0  0.67975527183E+03  0.63380461298E+04 -0.12716536583E+04  0.65000000000E+04  0.10000000000E+01 0.  0.
    9000001    1    1    2    0    0 -0.67975527183E+03 -0.63380461298E+04  0.12716536583E+04  0.65000000000E+04  0.10000000000E+01 0.  0.
</event>
<event>
 4    1  0.2191064E-006  0.1300000E+05  0.7957747E-01  0.1322471E+00
    9000001   -1    0    0    0    0  0.00000000000E+00  0.00000000000E+00  0.64999999231E+04  0.65000000000E+04  0.10000000000E+01 0.  0.
    9000001   -1    0    0    0    0 -0.00000000000E+00 -0.00000000000E+00 -0.64999999231E+04  0.65000000000E+04  0.10000000000E+01 0.  0.
    9000001    1    1    2    0    0 -0.23496098437E+04  0.42590702225E+04 -0.43115720361E+04  0.65000000000E+04  0.10000000000E+01 0.  0.
    9000001    1    1    2    0    0  0.23496098437E+04 -0.42590702225E+04  0.43115720361E+04  0.65000000000E+04  0.10000000000E+01 0.  0.
</event>
