<event>
 5    1  0.3225662E-002  0.1250041E+03  0.7818608E-02  0.1235063E+00
          4   -1    0    0  501    0  0.00000000000E+00  0.00000000000E+00  0.13671520365E+03  0.13672110228E+03  0.12700000000E+01 0. -1.
         -4   -1    0    0    0  501 -0.00000000000E+00 -0.00000000000E+00 -0.28553428848E+02  0.28581658437E+02  0.12700000000E+01 0. -1.
         25    2    1    2    0    0  0.00000000000E+00  0.00000000000E+00  0.10816177480E+03  0.16530276072E+03  0.12500413262E+03 0.  0.
    9000005    1    3    3    0    0  0.31645832713E+02  0.12349865901E+02  0.12344628688E+03  0.12803891463E+03  0.10000000000E+01 0.  0.
    9000005    1    3    3    0    0 -0.31645832713E+02 -0.12349865901E+02 -0.15284512076E+02  0.37263846088E+02  0.10000000000E+01 0.  0.
<mgrwt>
<rscale>  0 0.12500413E+03</rscale>
<asrwt>0</asrwt>
<pdfrwt beam="1">  1        4 0.21035734E-01 0.12500413E+03</pdfrwt>
<pdfrwt beam="2">  1       -4 0.43954604E-02 0.12500413E+03</pdfrwt>
<totfact> 0.96321142E+03</totfact>
</mgrwt>
</event>
<event>
 5    1  0.3225662E-002  0.1249983E+03  0.7818608E-02  0.1235072E+00
          4   -1    0    0  501    0  0.00000000000E+00  0.00000000000E+00  0.93413452565E+01  0.94272812200E+01  0.12700000000E+01 0.  1.
         -4   -1    0    0    0  501 -0.00000000000E+00 -0.00000000000E+00 -0.41615497651E+03  0.41615691436E+03  0.12700000000E+01 0.  1.
         25    2    1    2    0    0  0.00000000000E+00  0.00000000000E+00 -0.40681363125E+03  0.42558419558E+03  0.12499830782E+03 0.  0.
    9000005    1    3    3    0    0  0.50931984027E+02  0.21058352195E+02 -0.30369433694E+03  0.30865639712E+03  0.10000000000E+01 0.  0.
    9000005    1    3    3    0    0 -0.50931984027E+02 -0.21058352195E+02 -0.10311929432E+03  0.11692779847E+03  0.10000000000E+01 0.  0.
<mgrwt>
<rscale>  0 0.12499831E+03</rscale>
<asrwt>0</asrwt>
<pdfrwt beam="1">  1        4 0.14438899E-02 0.12499831E+03</pdfrwt>
<pdfrwt beam="2">  1       -4 0.64030588E-01 0.12499831E+03</pdfrwt>
<totfact> 0.62140632E+03</totfact>
</mgrwt>
</event>
<event>
 5    1  0.3225662E-002  0.1250022E+03  0.7818608E-02  0.1235066E+00
         -4   -1    0    0    0  501 -0.00000000000E+00  0.00000000000E+00  0.28060182471E+02  0.28088907781E+02  0.12700000000E+01 0. -1.
          4   -1    0    0  501    0  0.00000000000E+00 -0.00000000000E+00 -0.13911168062E+03  0.13911747764E+03  0.12700000000E+01 0. -1.
         25    2    1    2    0    0  0.00000000000E+00  0.00000000000E+00 -0.11105149815E+03  0.16720638543E+03  0.12500216032E+03 0.  0.
    9000005    1    3    3    0    0 -0.50245083757E+02  0.36725438395E+01 -0.10498776952E+03  0.11645380101E+03  0.10000000000E+01 0.  0.
    9000005    1    3    3    0    0  0.50245083757E+02 -0.36725438395E+01 -0.60637286291E+01  0.50752584416E+02  0.10000000000E+01 0.  0.
<mgrwt>
<rscale>  0 0.12500216E+03</rscale>
<asrwt>0</asrwt>
<pdfrwt beam="2">  1        4 0.21404452E-01 0.12500216E+03</pdfrwt>
<pdfrwt beam="1">  1       -4 0.43196068E-02 0.12500216E+03</pdfrwt>
<totfact> 0.95966506E+03</totfact>
</mgrwt>
</event>
<event>
 5    1  0.3225662E-002  0.1250033E+03  0.7818608E-02  0.1235064E+00
         -4   -1    0    0    0  501 -0.00000000000E+00  0.00000000000E+00  0.17239895687E+02  0.17286610521E+02  0.12700000000E+01 0.  1.
          4   -1    0    0  501    0  0.00000000000E+00 -0.00000000000E+00 -0.22623890927E+03  0.22624247383E+03  0.12700000000E+01 0.  1.
         25    2    1    2    0    0  0.00000000000E+00  0.00000000000E+00 -0.20899901358E+03  0.24352908435E+03  0.12500330895E+03 0.  0.
    9000005    1    3    3    0    0  0.15660583907E+01  0.62350349579E+02 -0.96844820677E+02  0.11519521658E+03  0.10000000000E+01 0.  0.
    9000005    1    3    3    0    0 -0.15660583907E+01 -0.62350349579E+02 -0.11215419290E+03  0.12833386777E+03  0.10000000000E+01 0.  0.
<mgrwt>
<rscale>  0 0.12500331E+03</rscale>
<asrwt>0</asrwt>
<pdfrwt beam="2">  1        4 0.34809851E-01 0.12500331E+03</pdfrwt>
<pdfrwt beam="1">  1       -4 0.26561595E-02 0.12500331E+03</pdfrwt>
<totfact> 0.83268424E+03</totfact>
</mgrwt>
</event>
<event>
 5    1  0.3225662E-002  0.1249990E+03  0.7818608E-02  0.1235071E+00
         -4   -1    0    0    0  501 -0.00000000000E+00  0.00000000000E+00  0.26373621210E+02  0.26404181406E+02  0.12700000000E+01 0.  1.
          4   -1    0    0  501    0  0.00000000000E+00 -0.00000000000E+00 -0.14799068639E+03  0.14799613562E+03  0.12700000000E+01 0.  1.
         25    2    1    2    0    0  0.00000000000E+00  0.00000000000E+00 -0.12161706518E+03  0.17440031702E+03  0.12499904014E+03 0.  0.
    9000005    1    3    3    0    0 -0.33193789218E+02 -0.52391232523E+02 -0.71481788190E+02  0.94643092357E+02  0.10000000000E+01 0.  0.
    9000005    1    3    3    0    0  0.33193789218E+02  0.52391232523E+02 -0.50135276987E+02  0.79757224666E+02  0.10000000000E+01 0.  0.
<mgrwt>
<rscale>  0 0.12499904E+03</rscale>
<asrwt>0</asrwt>
<pdfrwt beam="2">  1        4 0.22770567E-01 0.12499904E+03</pdfrwt>
<pdfrwt beam="1">  1       -4 0.40602502E-02 0.12499904E+03</pdfrwt>
<totfact> 0.94636824E+03</totfact>
</mgrwt>
</event>
<event>
 5    1  0.3225662E-002  0.1249967E+03  0.7818608E-02  0.1235074E+00
          4   -1    0    0  501    0  0.00000000000E+00  0.00000000000E+00  0.51408506023E+01  0.52953984661E+01  0.12700000000E+01 0. -1.
         -4   -1    0    0    0  501 -0.00000000000E+00 -0.00000000000E+00 -0.74839782070E+03  0.74839889827E+03  0.12700000000E+01 0. -1.
         25    2    1    2    0    0  0.00000000000E+00  0.00000000000E+00 -0.74325697010E+03  0.75369429674E+03  0.12499667728E+03 0.  0.
    9000005    1    3    3    0    0 -0.51884154783E+02 -0.23083938719E+02 -0.52888832015E+03  0.53192921422E+03  0.10000000000E+01 0.  0.
    9000005    1    3    3    0    0  0.51884154783E+02  0.23083938719E+02 -0.21436864995E+03  0.22176508252E+03  0.10000000000E+01 0.  0.
<mgrwt>
<rscale>  0 0.12499668E+03</rscale>
<asrwt>0</asrwt>
<pdfrwt beam="1">  1        4 0.80287187E-03 0.12499668E+03</pdfrwt>
<pdfrwt beam="2">  1       -4 0.11515001E+00 0.12499668E+03</pdfrwt>
<totfact> 0.40401018E+03</totfact>
</mgrwt>
</event>
<event>
 5    1  0.3225662E-002  0.1249781E+03  0.7818608E-02  0.1235104E+00
         -4   -1    0    0    0  501 -0.00000000000E+00  0.00000000000E+00  0.50604533751E+02  0.50620467561E+02  0.12700000000E+01 0.  1.
          4   -1    0    0  501    0  0.00000000000E+00 -0.00000000000E+00 -0.77131332795E+02  0.77141787630E+02  0.12700000000E+01 0.  1.
         25    2    1    2    0    0  0.00000000000E+00  0.00000000000E+00 -0.26526799044E+02  0.12776225519E+03  0.12497808922E+03 0.  0.
    9000005    1    3    3    0    0  0.40346970903E+02 -0.16031202747E+02  0.32670909675E+02  0.54343958833E+02  0.10000000000E+01 0.  0.
    9000005    1    3    3    0    0 -0.40346970903E+02  0.16031202747E+02 -0.59197708719E+02  0.73418296359E+02  0.10000000000E+01 0.  0.
<mgrwt>
<rscale>  0 0.12497809E+03</rscale>
<asrwt>0</asrwt>
<pdfrwt beam="2">  1        4 0.11868389E-01 0.12497809E+03</pdfrwt>
<pdfrwt beam="1">  1       -4 0.77873428E-02 0.12497809E+03</pdfrwt>
<totfact> 0.10397767E+04</totfact>
</mgrwt>
</event>
<event>
 5    1  0.3225662E-002  0.1250001E+03  0.7818608E-02  0.1235069E+00
          4   -1    0    0  501    0  0.00000000000E+00  0.00000000000E+00  0.39789570219E+02  0.39809832934E+02  0.12700000000E+01 0. -1.
         -4   -1    0    0    0  501 -0.00000000000E+00 -0.00000000000E+00 -0.98123455365E+02  0.98131673749E+02  0.12700000000E+01 0. -1.
         25    2    1    2    0    0  0.00000000000E+00  0.00000000000E+00 -0.58333885146E+02  0.13794150668E+03  0.12500006844E+03 0.  0.
    9000005    1    3    3    0    0  0.53947637914E+02  0.20708763574E+02 -0.29118501590E+01  0.57867775113E+02  0.10000000000E+01 0.  0.
    9000005    1    3    3    0    0 -0.53947637914E+02 -0.20708763574E+02 -0.55422034987E+02  0.80073731569E+02  0.10000000000E+01 0.  0.
<mgrwt>
<rscale>  0 0.12500007E+03</rscale>
<asrwt>0</asrwt>
<pdfrwt beam="1">  1        4 0.61236632E-02 0.12500007E+03</pdfrwt>
<pdfrwt beam="2">  1       -4 0.15098107E-01 0.12500007E+03</pdfrwt>
<totfact> 0.10176413E+04</totfact>
</mgrwt>
</event>
<event>
 5    1  0.3225662E-002  0.1249976E+03  0.7818608E-02  0.1235073E+00
         -4   -1    0    0    0  501 -0.00000000000E+00  0.00000000000E+00  0.70903008895E+02  0.70914381971E+02  0.12700000000E+01 0. -1.
          4   -1    0    0  501    0  0.00000000000E+00 -0.00000000000E+00 -0.55067640656E+02  0.55082283426E+02  0.12700000000E+01 0. -1.
         25    2    1    2    0    0  0.00000000000E+00  0.00000000000E+00  0.15835368239E+02  0.12599666540E+03  0.12499760319E+03 0.  0.
    9000005    1    3    3    0    0 -0.68912949853E+01  0.57130737396E+02  0.32478167111E+02  0.66085115123E+02  0.10000000000E+01 0.  0.
    9000005    1    3    3    0    0  0.68912949853E+01 -0.57130737396E+02 -0.16642798872E+02  0.59911550274E+02  0.10000000000E+01 0.  0.
<mgrwt>
<rscale>  0 0.12499760E+03</rscale>
<asrwt>0</asrwt>
<pdfrwt beam="2">  1        4 0.84739460E-02 0.12499760E+03</pdfrwt>
<pdfrwt beam="1">  1       -4 0.10910156E-01 0.12499760E+03</pdfrwt>
<totfact> 0.10431594E+04</totfact>
</mgrwt>
</event>
<event>
 5    1  0.3225662E-002  0.1249949E+03  0.7818608E-02  0.1235077E+00
          4   -1    0    0  501    0  0.00000000000E+00  0.00000000000E+00  0.25309625899E+02  0.25341469239E+02  0.12700000000E+01 0.  1.
         -4   -1    0    0    0  501 -0.00000000000E+00 -0.00000000000E+00 -0.15419440213E+03  0.15419963213E+03  0.12700000000E+01 0.  1.
         25    2    1    2    0    0  0.00000000000E+00  0.00000000000E+00 -0.12888477623E+03  0.17954110137E+03  0.12499488604E+03 0.  0.
    9000005    1    3    3    0    0  0.31564050121E+02 -0.49373683523E+02 -0.95611684075E+02  0.11214563753E+03  0.10000000000E+01 0.  0.
    9000005    1    3    3    0    0 -0.31564050121E+02  0.49373683523E+02 -0.33273092158E+02  0.67395463841E+02  0.10000000000E+01 0.  0.
<mgrwt>
<rscale>  0 0.12499489E+03</rscale>
<asrwt>0</asrwt>
<pdfrwt beam="1">  1        4 0.38966405E-02 0.12499489E+03</pdfrwt>
<pdfrwt beam="2">  1       -4 0.23725067E-01 0.12499489E+03</pdfrwt>
<totfact> 0.93710417E+03</totfact>
</mgrwt>
</event>
<event>
 5    1  0.3225662E-002  0.1250000E+03  0.7818608E-02  0.1235069E+00
         -4   -1    0    0    0  501 -0.00000000000E+00  0.00000000000E+00  0.20083286608E+02  0.20123401824E+02  0.12700000000E+01 0. -1.
          4   -1    0    0  501    0  0.00000000000E+00 -0.00000000000E+00 -0.19426634591E+03  0.19427049712E+03  0.12700000000E+01 0. -1.
         25    2    1    2    0    0  0.00000000000E+00  0.00000000000E+00 -0.17418305930E+03  0.21439389895E+03  0.12500002304E+03 0.  0.
    9000005    1    3    3    0    0  0.50178147423E+02 -0.12554427357E+02 -0.14723909326E+03  0.15606348295E+03  0.10000000000E+01 0.  0.
    9000005    1    3    3    0    0 -0.50178147423E+02  0.12554427357E+02 -0.26943966040E+02  0.58330416002E+02  0.10000000000E+01 0.  0.
<mgrwt>
<rscale>  0 0.12500002E+03</rscale>
<asrwt>0</asrwt>
<pdfrwt beam="2">  1        4 0.29890534E-01 0.12500002E+03</pdfrwt>
<pdfrwt beam="1">  1       -4 0.30931416E-02 0.12500002E+03</pdfrwt>
<totfact> 0.87763245E+03</totfact>
</mgrwt>
</event>
<event>
 5    1  0.3225662E-002  0.1250018E+03  0.7818608E-02  0.1235067E+00
         -4   -1    0    0    0  501 -0.00000000000E+00  0.00000000000E+00  0.41649274482E+02  0.41668632865E+02  0.12700000000E+01 0.  1.
          4   -1    0    0  501    0  0.00000000000E+00 -0.00000000000E+00 -0.93746361392E+02  0.93754963464E+02  0.12700000000E+01 0.  1.
         25    2    1    2    0    0  0.00000000000E+00  0.00000000000E+00 -0.52097086910E+02  0.13542359633E+03  0.12500177590E+03 0.  0.
    9000005    1    3    3    0    0  0.21202451947E+02  0.56918947228E+02 -0.10124411416E+02  0.61585828147E+02  0.10000000000E+01 0.  0.
    9000005    1    3    3    0    0 -0.21202451947E+02 -0.56918947228E+02 -0.41972675494E+02  0.73837768182E+02  0.10000000000E+01 0.  0.
<mgrwt>
<rscale>  0 0.12500178E+03</rscale>
<asrwt>0</asrwt>
<pdfrwt beam="2">  1        4 0.14424668E-01 0.12500178E+03</pdfrwt>
<pdfrwt beam="1">  1       -4 0.64097315E-02 0.12500178E+03</pdfrwt>
<totfact> 0.10228741E+04</totfact>
</mgrwt>
</event>
<event>
 5    1  0.3225662E-002  0.1249979E+03  0.7818608E-02  0.1235073E+00
          4   -1    0    0  501    0  0.00000000000E+00  0.00000000000E+00  0.57844530374E+03  0.57844669791E+03  0.12700000000E+01 0.  1.
         -4   -1    0    0    0  501 -0.00000000000E+00 -0.00000000000E+00 -0.66916655721E+01  0.68111150429E+01  0.12700000000E+01 0.  1.
         25    2    1    2    0    0  0.00000000000E+00  0.00000000000E+00  0.57175363817E+03  0.58525781295E+03  0.12499793942E+03 0.  0.
    9000005    1    3    3    0    0 -0.58238000236E+02  0.13023809942E+02  0.19905665165E+03  0.20781201809E+03  0.10000000000E+01 0.  0.
    9000005    1    3    3    0    0  0.58238000236E+02 -0.13023809942E+02  0.37269698652E+03  0.37744579486E+03  0.10000000000E+01 0.  0.
<mgrwt>
<rscale>  0 0.12499794E+03</rscale>
<asrwt>0</asrwt>
<pdfrwt beam="1">  1        4 0.89000866E-01 0.12499794E+03</pdfrwt>
<pdfrwt beam="2">  1       -4 0.10387828E-02 0.12499794E+03</pdfrwt>
<totfact> 0.49813858E+03</totfact>
</mgrwt>
</event>
<event>
 5    1  0.3225662E-002  0.1250000E+03  0.7818608E-02  0.1235069E+00
          4   -1    0    0  501    0  0.00000000000E+00  0.00000000000E+00  0.10361493445E+03  0.10362271730E+03  0.12700000000E+01 0.  1.
         -4   -1    0    0    0  501 -0.00000000000E+00 -0.00000000000E+00 -0.37679775078E+02  0.37701171731E+02  0.12700000000E+01 0.  1.
         25    2    1    2    0    0  0.00000000000E+00  0.00000000000E+00  0.65935159372E+02  0.14132388903E+03  0.12499998548E+03 0.  0.
    9000005    1    3    3    0    0  0.40919771063E+02 -0.26166421829E+02 -0.11488380724E+02  0.49920859236E+02  0.10000000000E+01 0.  0.
    9000005    1    3    3    0    0 -0.40919771063E+02  0.26166421829E+02  0.77423540095E+02  0.91403029797E+02  0.10000000000E+01 0.  0.
<mgrwt>
<rscale>  0 0.12499999E+03</rscale>
<asrwt>0</asrwt>
<pdfrwt beam="1">  1        4 0.15943003E-01 0.12499999E+03</pdfrwt>
<pdfrwt beam="2">  1       -4 0.57991332E-02 0.12499999E+03</pdfrwt>
<totfact> 0.10106224E+04</totfact>
</mgrwt>
</event>
<event>
 5    1  0.3225662E-002  0.1250029E+03  0.7818608E-02  0.1235065E+00
          4   -1    0    0  501    0  0.00000000000E+00  0.00000000000E+00  0.16541430972E+03  0.16541918498E+03  0.12700000000E+01 0. -1.
         -4   -1    0    0    0  501 -0.00000000000E+00 -0.00000000000E+00 -0.23593723251E+02  0.23627879229E+02  0.12700000000E+01 0. -1.
         25    2    1    2    0    0  0.00000000000E+00  0.00000000000E+00  0.14182058647E+03  0.18904706421E+03  0.12500285493E+03 0.  0.
    9000005    1    3    3    0    0 -0.15668152013E+02 -0.53525100645E+02  0.11355192900E+03  0.12651271860E+03  0.10000000000E+01 0.  0.
    9000005    1    3    3    0    0  0.15668152013E+02  0.53525100645E+02  0.28268657470E+02  0.62534345617E+02  0.10000000000E+01 0.  0.
<mgrwt>
<rscale>  0 0.12500285E+03</rscale>
<asrwt>0</asrwt>
<pdfrwt beam="1">  1        4 0.25451358E-01 0.12500285E+03</pdfrwt>
<pdfrwt beam="2">  1       -4 0.36328060E-02 0.12500285E+03</pdfrwt>
<totfact> 0.92007502E+03</totfact>
</mgrwt>
</event>
<event>
 5    1  0.3225662E-002  0.1249989E+03  0.7818608E-02  0.1235071E+00
          4   -1    0    0  501    0  0.00000000000E+00  0.00000000000E+00  0.90464783984E+01  0.91351886359E+01  0.12700000000E+01 0.  1.
         -4   -1    0    0    0  501 -0.00000000000E+00 -0.00000000000E+00 -0.42959365745E+03  0.42959553469E+03  0.12700000000E+01 0.  1.
         25    2    1    2    0    0  0.00000000000E+00  0.00000000000E+00 -0.42054717905E+03  0.43873072332E+03  0.12499887110E+03 0.  0.
    9000005    1    3    3    0    0  0.20632455035E+02 -0.26660293031E+02 -0.39495819392E+03  0.39639556553E+03  0.10000000000E+01 0.  0.
    9000005    1    3    3    0    0 -0.20632455035E+02  0.26660293031E+02 -0.25588985130E+02  0.42335157792E+02  0.10000000000E+01 0.  0.
<mgrwt>
<rscale>  0 0.12499887E+03</rscale>
<asrwt>0</asrwt>
<pdfrwt beam="1">  1        4 0.13987345E-02 0.12499887E+03</pdfrwt>
<pdfrwt beam="2">  1       -4 0.66098284E-01 0.12499887E+03</pdfrwt>
<totfact> 0.60954024E+03</totfact>
</mgrwt>
</event>
<event>
 5    1  0.3225662E-002  0.1249955E+03  0.7818608E-02  0.1235076E+00
          4   -1    0    0  501    0  0.00000000000E+00  0.00000000000E+00  0.16051660362E+04  0.16051665386E+04  0.12700000000E+01 0. -1.
         -4   -1    0    0    0  501 -0.00000000000E+00 -0.00000000000E+00 -0.22671284959E+01  0.25986095545E+01  0.12700000000E+01 0. -1.
         25    2    1    2    0    0  0.00000000000E+00  0.00000000000E+00  0.16028989077E+04  0.16077651482E+04  0.12499545324E+03 0.  0.
    9000005    1    3    3    0    0  0.10279599611E+00  0.55159321336E+02  0.11791815688E+04  0.11804714031E+04  0.10000000000E+01 0.  0.
    9000005    1    3    3    0    0 -0.10279599611E+00 -0.55159321336E+02  0.42371733886E+03  0.42729374504E+03  0.10000000000E+01 0.  0.
<mgrwt>
<rscale>  0 0.12499545E+03</rscale>
<asrwt>0</asrwt>
<pdfrwt beam="1">  1        4 0.24697310E+00 0.12499545E+03</pdfrwt>
<pdfrwt beam="2">  1       -4 0.37432779E-03 0.12499545E+03</pdfrwt>
<totfact> 0.15908030E+03</totfact>
</mgrwt>
</event>
<event>
 5    1  0.3225662E-002  0.1249994E+03  0.7818608E-02  0.1235070E+00
          4   -1    0    0  501    0  0.00000000000E+00  0.00000000000E+00  0.87418692372E+02  0.87427917029E+02  0.12700000000E+01 0. -1.
         -4   -1    0    0    0  501 -0.00000000000E+00 -0.00000000000E+00 -0.44663342849E+02  0.44681395395E+02  0.12700000000E+01 0. -1.
         25    2    1    2    0    0  0.00000000000E+00  0.00000000000E+00  0.42755349523E+02  0.13210931242E+03  0.12499940206E+03 0.  0.
    9000005    1    3    3    0    0  0.48708221924E+02  0.38331347217E+02  0.12960402614E+02  0.63330522644E+02  0.10000000000E+01 0.  0.
    9000005    1    3    3    0    0 -0.48708221924E+02 -0.38331347217E+02  0.29794946909E+02  0.68778789781E+02  0.10000000000E+01 0.  0.
<mgrwt>
<rscale>  0 0.12499940E+03</rscale>
<asrwt>0</asrwt>
<pdfrwt beam="1">  1        4 0.13451128E-01 0.12499940E+03</pdfrwt>
<pdfrwt beam="2">  1       -4 0.68733818E-02 0.12499940E+03</pdfrwt>
<totfact> 0.10299505E+04</totfact>
</mgrwt>
</event>
<event>
 5    1  0.3225662E-002  0.1250080E+03  0.7818608E-02  0.1235057E+00
          4   -1    0    0  501    0  0.00000000000E+00  0.00000000000E+00  0.35517796443E+01  0.37720072431E+01  0.12700000000E+01 0. -1.
         -4   -1    0    0    0  501 -0.00000000000E+00 -0.00000000000E+00 -0.10666452953E+04  0.10666460514E+04  0.12700000000E+01 0. -1.
         25    2    1    2    0    0  0.00000000000E+00  0.00000000000E+00 -0.10630935157E+04  0.10704180586E+04  0.12500798838E+03 0.  0.
    9000005    1    3    3    0    0  0.40803416832E+02  0.32845357208E+02 -0.23965545883E+03  0.24531505307E+03  0.10000000000E+01 0.  0.
    9000005    1    3    3    0    0 -0.40803416832E+02 -0.32845357208E+02 -0.82343805686E+03  0.82510300557E+03  0.10000000000E+01 0.  0.
<mgrwt>
<rscale>  0 0.12500799E+03</rscale>
<asrwt>0</asrwt>
<pdfrwt beam="1">  1        4 0.56342723E-03 0.12500799E+03</pdfrwt>
<pdfrwt beam="2">  1       -4 0.16411603E+00 0.12500799E+03</pdfrwt>
<totfact> 0.28360814E+03</totfact>
</mgrwt>
</event>
<event>
 5    1  0.3225662E-002  0.1249945E+03  0.7818608E-02  0.1235078E+00
          4   -1    0    0  501    0  0.00000000000E+00  0.00000000000E+00  0.34422481759E+03  0.34422716039E+03  0.12700000000E+01 0.  1.
         -4   -1    0    0    0  501 -0.00000000000E+00 -0.00000000000E+00 -0.11309034988E+02  0.11380121808E+02  0.12700000000E+01 0.  1.
         25    2    1    2    0    0  0.00000000000E+00  0.00000000000E+00  0.33291578261E+03  0.35560728219E+03  0.12499448324E+03 0.  0.
    9000005    1    3    3    0    0  0.28277755306E+02 -0.55315674827E+02  0.14727799794E+03  0.15984762746E+03  0.10000000000E+01 0.  0.
    9000005    1    3    3    0    0 -0.28277755306E+02  0.55315674827E+02  0.18563778466E+03  0.19575965473E+03  0.10000000000E+01 0.  0.
<mgrwt>
<rscale>  0 0.12499448E+03</rscale>
<asrwt>0</asrwt>
<pdfrwt beam="1">  1        4 0.52963322E-01 0.12499448E+03</pdfrwt>
<pdfrwt beam="2">  1       -4 0.17454997E-02 0.12499448E+03</pdfrwt>
<totfact> 0.69120487E+03</totfact>
</mgrwt>
</event>
<event>
 5    1  0.3225662E-002  0.1249972E+03  0.7818608E-02  0.1235074E+00
          4   -1    0    0  501    0  0.00000000000E+00  0.00000000000E+00  0.48785631354E+03  0.48785796659E+03  0.12700000000E+01 0.  1.
         -4   -1    0    0    0  501 -0.00000000000E+00 -0.00000000000E+00 -0.79545674923E+01  0.80553115390E+01  0.12700000000E+01 0.  1.
         25    2    1    2    0    0  0.00000000000E+00  0.00000000000E+00  0.47990174605E+03  0.49591327813E+03  0.12499717421E+03 0.  0.
    9000005    1    3    3    0    0 -0.16536428491E+02  0.48222486332E+02  0.96563029856E+02  0.10919835342E+03  0.10000000000E+01 0.  0.
    9000005    1    3    3    0    0  0.16536428491E+02 -0.48222486332E+02  0.38333871620E+03  0.38671492471E+03  0.10000000000E+01 0.  0.
<mgrwt>
<rscale>  0 0.12499717E+03</rscale>
<asrwt>0</asrwt>
<pdfrwt beam="1">  1        4 0.75062726E-01 0.12499717E+03</pdfrwt>
<pdfrwt beam="2">  1       -4 0.12316558E-02 0.12499717E+03</pdfrwt>
<totfact> 0.56186320E+03</totfact>
</mgrwt>
</event>
<event>
 5    1  0.3225662E-002  0.1250407E+03  0.7818608E-02  0.1235006E+00
         -4   -1    0    0    0  501 -0.00000000000E+00  0.00000000000E+00  0.36290132611E+03  0.36290354833E+03  0.12700000000E+01 0.  1.
          4   -1    0    0  501    0  0.00000000000E+00 -0.00000000000E+00 -0.10731261217E+02  0.10806149513E+02  0.12700000000E+01 0.  1.
         25    2    1    2    0    0  0.00000000000E+00  0.00000000000E+00  0.35217006489E+03  0.37370969785E+03  0.12504072799E+03 0.  0.
    9000005    1    3    3    0    0  0.55316730582E+02  0.23424513411E+02  0.12439277564E+03  0.13814199630E+03  0.10000000000E+01 0.  0.
    9000005    1    3    3    0    0 -0.55316730582E+02 -0.23424513411E+02  0.22777728926E+03  0.23556770155E+03  0.10000000000E+01 0.  0.
<mgrwt>
<rscale>  0 0.12504073E+03</rscale>
<asrwt>0</asrwt>
<pdfrwt beam="2">  1        4 0.16568949E-02 0.12504073E+03</pdfrwt>
<pdfrwt beam="1">  1       -4 0.55836904E-01 0.12504073E+03</pdfrwt>
<totfact> 0.67132156E+03</totfact>
</mgrwt>
</event>
<event>
 5    1  0.3225662E-002  0.1250001E+03  0.7818608E-02  0.1235069E+00
          4   -1    0    0  501    0  0.00000000000E+00  0.00000000000E+00  0.27299555671E+02  0.27329080479E+02  0.12700000000E+01 0. -1.
         -4   -1    0    0    0  501 -0.00000000000E+00 -0.00000000000E+00 -0.14297898460E+03  0.14298462483E+03  0.12700000000E+01 0. -1.
         25    2    1    2    0    0  0.00000000000E+00  0.00000000000E+00 -0.11567942893E+03  0.17031370531E+03  0.12500011175E+03 0.  0.
    9000005    1    3    3    0    0  0.23530472293E+02 -0.14388793175E+02 -0.13424396421E+03  0.13705167792E+03  0.10000000000E+01 0.  0.
    9000005    1    3    3    0    0 -0.23530472293E+02  0.14388793175E+02  0.18564535281E+02  0.33262027382E+02  0.10000000000E+01 0.  0.
<mgrwt>
<rscale>  0 0.12500011E+03</rscale>
<asrwt>0</asrwt>
<pdfrwt beam="1">  1        4 0.42026367E-02 0.12500011E+03</pdfrwt>
<pdfrwt beam="2">  1       -4 0.21999471E-01 0.12500011E+03</pdfrwt>
<totfact> 0.95389959E+03</totfact>
</mgrwt>
</event>
<event>
 5    1  0.3225662E-002  0.1249967E+03  0.7818608E-02  0.1235074E+00
          4   -1    0    0  501    0  0.00000000000E+00  0.00000000000E+00  0.66249264231E+02  0.66261436079E+02  0.12700000000E+01 0. -1.
         -4   -1    0    0    0  501 -0.00000000000E+00 -0.00000000000E+00 -0.58935385699E+02  0.58949067741E+02  0.12700000000E+01 0. -1.
         25    2    1    2    0    0  0.00000000000E+00  0.00000000000E+00  0.73138785321E+01  0.12521050382E+03  0.12499670975E+03 0.  0.
    9000005    1    3    3    0    0 -0.31480257133E+02  0.16720809515E+02  0.55071644659E+02  0.65608521592E+02  0.10000000000E+01 0.  0.
    9000005    1    3    3    0    0  0.31480257133E+02 -0.16720809515E+02 -0.47757766127E+02  0.59601982228E+02  0.10000000000E+01 0.  0.
<mgrwt>
<rscale>  0 0.12499671E+03</rscale>
<asrwt>0</asrwt>
<pdfrwt beam="1">  1        4 0.10194183E-01 0.12499671E+03</pdfrwt>
<pdfrwt beam="2">  1       -4 0.90689712E-02 0.12499671E+03</pdfrwt>
<totfact> 0.10449069E+04</totfact>
</mgrwt>
</event>
<event>
 5    1  0.3225662E-002  0.1249960E+03  0.7818608E-02  0.1235076E+00
          4   -1    0    0  501    0  0.00000000000E+00  0.00000000000E+00  0.19057736097E+03  0.19058159253E+03  0.12700000000E+01 0.  1.
         -4   -1    0    0    0  501 -0.00000000000E+00 -0.00000000000E+00 -0.20471467416E+02  0.20510823440E+02  0.12700000000E+01 0.  1.
         25    2    1    2    0    0  0.00000000000E+00  0.00000000000E+00  0.17010589355E+03  0.21109241597E+03  0.12499597218E+03 0.  0.
    9000005    1    3    3    0    0  0.97688909101E+01 -0.24770501566E+02  0.18052566096E+03  0.18248156960E+03  0.10000000000E+01 0.  0.
    9000005    1    3    3    0    0 -0.97688909101E+01  0.24770501566E+02 -0.10419767411E+02  0.28610846376E+02  0.10000000000E+01 0.  0.
<mgrwt>
<rscale>  0 0.12499597E+03</rscale>
<asrwt>0</asrwt>
<pdfrwt beam="1">  1        4 0.29322946E-01 0.12499597E+03</pdfrwt>
<pdfrwt beam="2">  1       -4 0.31528095E-02 0.12499597E+03</pdfrwt>
<totfact> 0.88305736E+03</totfact>
</mgrwt>
</event>
<event>
 5    1  0.3225662E-002  0.1250034E+03  0.7818608E-02  0.1235064E+00
          4   -1    0    0  501    0  0.00000000000E+00  0.00000000000E+00  0.15230874724E+03  0.15231404199E+03  0.12700000000E+01 0. -1.
         -4   -1    0    0    0  501 -0.00000000000E+00 -0.00000000000E+00 -0.25626857439E+02  0.25658307080E+02  0.12700000000E+01 0. -1.
         25    2    1    2    0    0  0.00000000000E+00  0.00000000000E+00  0.12668188980E+03  0.17797234907E+03  0.12500342327E+03 0.  0.
    9000005    1    3    3    0    0  0.14298894703E+02 -0.55529032220E+02  0.27960734442E+02  0.63802307792E+02  0.10000000000E+01 0.  0.
    9000005    1    3    3    0    0 -0.14298894703E+02  0.55529032220E+02  0.98721155361E+02  0.11417004128E+03  0.10000000000E+01 0.  0.
<mgrwt>
<rscale>  0 0.12500342E+03</rscale>
<asrwt>0</asrwt>
<pdfrwt beam="1">  1        4 0.23434941E-01 0.12500342E+03</pdfrwt>
<pdfrwt beam="2">  1       -4 0.39454199E-02 0.12500342E+03</pdfrwt>
<totfact> 0.93976050E+03</totfact>
</mgrwt>
</event>
<event>
 5    1  0.3225662E-002  0.1249898E+03  0.7818608E-02  0.1235085E+00
         -4   -1    0    0    0  501 -0.00000000000E+00  0.00000000000E+00  0.40484700071E+03  0.40484899269E+03  0.12700000000E+01 0.  1.
          4   -1    0    0  501    0  0.00000000000E+00 -0.00000000000E+00 -0.96033159315E+01  0.96869281447E+01  0.12700000000E+01 0.  1.
         25    2    1    2    0    0  0.00000000000E+00  0.00000000000E+00  0.39524368478E+03  0.41453592084E+03  0.12498983681E+03 0.  0.
    9000005    1    3    3    0    0  0.55614864691E+02 -0.22179166671E+02  0.25692112307E+03  0.26380749058E+03  0.10000000000E+01 0.  0.
    9000005    1    3    3    0    0 -0.55614864691E+02  0.22179166671E+02  0.13832256171E+03  0.15072843025E+03  0.10000000000E+01 0.  0.
<mgrwt>
<rscale>  0 0.12498984E+03</rscale>
<asrwt>0</asrwt>
<pdfrwt beam="2">  1        4 0.14840183E-02 0.12498984E+03</pdfrwt>
<pdfrwt beam="1">  1       -4 0.62290733E-01 0.12498984E+03</pdfrwt>
<totfact> 0.63177343E+03</totfact>
</mgrwt>
</event>
<event>
 5    1  0.3225662E-002  0.1249998E+03  0.7818608E-02  0.1235070E+00
         -4   -1    0    0    0  501 -0.00000000000E+00  0.00000000000E+00  0.57476170735E+02  0.57490200055E+02  0.12700000000E+01 0. -1.
          4   -1    0    0  501    0  0.00000000000E+00 -0.00000000000E+00 -0.67934525128E+02  0.67946395080E+02  0.12700000000E+01 0. -1.
         25    2    1    2    0    0  0.00000000000E+00  0.00000000000E+00 -0.10458354393E+02  0.12543659513E+03  0.12499984889E+03 0.  0.
    9000005    1    3    3    0    0  0.18346928957E+02  0.27322141077E+02  0.48080172085E+02  0.58273597305E+02  0.10000000000E+01 0.  0.
    9000005    1    3    3    0    0 -0.18346928957E+02 -0.27322141077E+02 -0.58538526478E+02  0.67162997829E+02  0.10000000000E+01 0.  0.
<mgrwt>
<rscale>  0 0.12499985E+03</rscale>
<asrwt>0</asrwt>
<pdfrwt beam="2">  1        4 0.10453458E-01 0.12499985E+03</pdfrwt>
<pdfrwt beam="1">  1       -4 0.88444800E-02 0.12499985E+03</pdfrwt>
<totfact> 0.10443392E+04</totfact>
</mgrwt>
</event>
<event>
 5    1  0.3225662E-002  0.1249994E+03  0.7818608E-02  0.1235070E+00
         -4   -1    0    0    0  501 -0.00000000000E+00  0.00000000000E+00  0.19862932435E+02  0.19903491777E+02  0.12700000000E+01 0.  1.
          4   -1    0    0  501    0  0.00000000000E+00 -0.00000000000E+00 -0.19641506138E+03  0.19641916718E+03  0.12700000000E+01 0.  1.
         25    2    1    2    0    0  0.00000000000E+00  0.00000000000E+00 -0.17655212894E+03  0.21632265896E+03  0.12499935418E+03 0.  0.
    9000005    1    3    3    0    0 -0.52373000516E+01 -0.43736652444E+02 -0.16498798814E+03  0.17076990458E+03  0.10000000000E+01 0.  0.
    9000005    1    3    3    0    0  0.52373000516E+01  0.43736652444E+02 -0.11564140797E+02  0.45552754375E+02  0.10000000000E+01 0.  0.
<mgrwt>
<rscale>  0 0.12499935E+03</rscale>
<asrwt>0</asrwt>
<pdfrwt beam="2">  1        4 0.30221136E-01 0.12499935E+03</pdfrwt>
<pdfrwt beam="1">  1       -4 0.30592717E-02 0.12499935E+03</pdfrwt>
<totfact> 0.87454869E+03</totfact>
</mgrwt>
</event>
<event>
 5    1  0.3225662E-002  0.1250008E+03  0.7818608E-02  0.1235068E+00
          4   -1    0    0  501    0  0.00000000000E+00  0.00000000000E+00  0.38857135739E+02  0.38877884431E+02  0.12700000000E+01 0.  1.
         -4   -1    0    0    0  501 -0.00000000000E+00 -0.00000000000E+00 -0.10047820028E+03  0.10048622608E+03  0.12700000000E+01 0.  1.
         25    2    1    2    0    0  0.00000000000E+00  0.00000000000E+00 -0.61621064538E+02  0.13936411051E+03  0.12500079881E+03 0.  0.
    9000005    1    3    3    0    0 -0.46071271454E+01  0.38592756893E+02 -0.85368892102E+02  0.93805512865E+02  0.10000000000E+01 0.  0.
    9000005    1    3    3    0    0  0.46071271454E+01 -0.38592756893E+02  0.23747827564E+02  0.45558597642E+02  0.10000000000E+01 0.  0.
<mgrwt>
<rscale>  0 0.12500080E+03</rscale>
<asrwt>0</asrwt>
<pdfrwt beam="1">  1        4 0.59802343E-02 0.12500080E+03</pdfrwt>
<pdfrwt beam="2">  1       -4 0.15460398E-01 0.12500080E+03</pdfrwt>
<totfact> 0.10146599E+04</totfact>
</mgrwt>
</event>
<event>
 5    1  0.3225662E-002  0.1250021E+03  0.7818608E-02  0.1235066E+00
         -4   -1    0    0    0  501 -0.00000000000E+00  0.00000000000E+00  0.59095807270E+03  0.59095943735E+03  0.12700000000E+01 0. -1.
          4   -1    0    0  501    0  0.00000000000E+00 -0.00000000000E+00 -0.65478628423E+01  0.66698881401E+01  0.12700000000E+01 0. -1.
         25    2    1    2    0    0  0.00000000000E+00  0.00000000000E+00  0.58441020986E+03  0.59762932549E+03  0.12500206917E+03 0.  0.
    9000005    1    3    3    0    0 -0.43554373485E+02 -0.12583737082E+02  0.86565909853E+02  0.97724053525E+02  0.10000000000E+01 0.  0.
    9000005    1    3    3    0    0  0.43554373485E+02  0.12583737082E+02  0.49784430000E+03  0.49990527196E+03  0.10000000000E+01 0.  0.
<mgrwt>
<rscale>  0 0.12500207E+03</rscale>
<asrwt>0</asrwt>
<pdfrwt beam="2">  1        4 0.10168552E-02 0.12500207E+03</pdfrwt>
<pdfrwt beam="1">  1       -4 0.90926101E-01 0.12500207E+03</pdfrwt>
<totfact> 0.49015379E+03</totfact>
</mgrwt>
</event>
<event>
 5    1  0.3225662E-002  0.1250060E+03  0.7818608E-02  0.1235060E+00
          4   -1    0    0  501    0  0.00000000000E+00  0.00000000000E+00  0.72370689479E+02  0.72381831945E+02  0.12700000000E+01 0. -1.
         -4   -1    0    0    0  501 -0.00000000000E+00 -0.00000000000E+00 -0.53957965120E+02  0.53972908944E+02  0.12700000000E+01 0. -1.
         25    2    1    2    0    0  0.00000000000E+00  0.00000000000E+00  0.18412724359E+02  0.12635474089E+03  0.12500596836E+03 0.  0.
    9000005    1    3    3    0    0 -0.34063305615E+02  0.69276950686E+01 -0.43289748945E+02  0.55527507707E+02  0.10000000000E+01 0.  0.
    9000005    1    3    3    0    0  0.34063305615E+02 -0.69276950686E+01  0.61702473305E+02  0.70827233183E+02  0.10000000000E+01 0.  0.
<mgrwt>
<rscale>  0 0.12500597E+03</rscale>
<asrwt>0</asrwt>
<pdfrwt beam="1">  1        4 0.11135959E-01 0.12500597E+03</pdfrwt>
<pdfrwt beam="2">  1       -4 0.83032321E-02 0.12500597E+03</pdfrwt>
<totfact> 0.10421794E+04</totfact>
</mgrwt>
</event>
<event>
 5    1  0.3225662E-002  0.1250001E+03  0.7818608E-02  0.1235069E+00
         -4   -1    0    0    0  501 -0.00000000000E+00  0.00000000000E+00  0.38057864612E+03  0.38058076513E+03  0.12700000000E+01 0.  1.
          4   -1    0    0  501    0  0.00000000000E+00 -0.00000000000E+00 -0.10222543834E+02  0.10301131124E+02  0.12700000000E+01 0.  1.
         25    2    1    2    0    0  0.00000000000E+00  0.00000000000E+00  0.37035610229E+03  0.39088189625E+03  0.12500005726E+03 0.  0.
    9000005    1    3    3    0    0  0.40094307914E+02  0.14971992651E+02  0.42784113540E+02  0.60524329508E+02  0.10000000000E+01 0.  0.
    9000005    1    3    3    0    0 -0.40094307914E+02 -0.14971992651E+02  0.32757198875E+03  0.33035756674E+03  0.10000000000E+01 0.  0.
<mgrwt>
<rscale>  0 0.12500006E+03</rscale>
<asrwt>0</asrwt>
<pdfrwt beam="2">  1        4 0.15789072E-02 0.12500006E+03</pdfrwt>
<pdfrwt beam="1">  1       -4 0.58556768E-01 0.12500006E+03</pdfrwt>
<totfact> 0.65449288E+03</totfact>
</mgrwt>
</event>
<event>
 5    1  0.3225662E-002  0.1249984E+03  0.7818608E-02  0.1235072E+00
          4   -1    0    0  501    0  0.00000000000E+00  0.00000000000E+00  0.33111168507E+03  0.33111412064E+03  0.12700000000E+01 0.  1.
         -4   -1    0    0    0  501 -0.00000000000E+00 -0.00000000000E+00 -0.11760418815E+02  0.11828793291E+02  0.12700000000E+01 0.  1.
         25    2    1    2    0    0  0.00000000000E+00  0.00000000000E+00  0.31935126625E+03  0.34294291393E+03  0.12499844383E+03 0.  0.
    9000005    1    3    3    0    0  0.38032497953E+02 -0.19041881284E+02  0.34066260922E+02  0.54502974934E+02  0.10000000000E+01 0.  0.
    9000005    1    3    3    0    0 -0.38032497953E+02  0.19041881284E+02  0.28528500533E+03  0.28843993900E+03  0.10000000000E+01 0.  0.
<mgrwt>
<rscale>  0 0.12499844E+03</rscale>
<asrwt>0</asrwt>
<pdfrwt beam="1">  1        4 0.50945697E-01 0.12499844E+03</pdfrwt>
<pdfrwt beam="2">  1       -4 0.18147425E-02 0.12499844E+03</pdfrwt>
<totfact> 0.70510397E+03</totfact>
</mgrwt>
</event>
<event>
 5    1  0.3225662E-002  0.1250003E+03  0.7818608E-02  0.1235069E+00
         -4   -1    0    0    0  501 -0.00000000000E+00  0.00000000000E+00  0.60375443343E+01  0.61696711086E+01  0.12700000000E+01 0. -1.
          4   -1    0    0  501    0  0.00000000000E+00 -0.00000000000E+00 -0.63986111839E+03  0.63986237874E+03  0.12700000000E+01 0. -1.
         25    2    1    2    0    0  0.00000000000E+00  0.00000000000E+00 -0.63382357405E+03  0.64603204984E+03  0.12500034561E+03 0.  0.
    9000005    1    3    3    0    0  0.37254885113E+02  0.31847307138E+02 -0.11654028926E+03  0.12643107394E+03  0.10000000000E+01 0.  0.
    9000005    1    3    3    0    0 -0.37254885113E+02 -0.31847307138E+02 -0.51728328479E+03  0.51960097591E+03  0.10000000000E+01 0.  0.
<mgrwt>
<rscale>  0 0.12500035E+03</rscale>
<asrwt>0</asrwt>
<pdfrwt beam="2">  1        4 0.98450380E-01 0.12500035E+03</pdfrwt>
<pdfrwt beam="1">  1       -4 0.93911403E-03 0.12500035E+03</pdfrwt>
<totfact> 0.46084682E+03</totfact>
</mgrwt>
</event>
<event>
 5    1  0.3225662E-002  0.1249977E+03  0.7818608E-02  0.1235073E+00
         -4   -1    0    0    0  501 -0.00000000000E+00  0.00000000000E+00  0.32500066037E+02  0.32524870367E+02  0.12700000000E+01 0.  1.
          4   -1    0    0  501    0  0.00000000000E+00 -0.00000000000E+00 -0.12011366154E+03  0.12012037541E+03  0.12700000000E+01 0.  1.
         25    2    1    2    0    0  0.00000000000E+00  0.00000000000E+00 -0.87613595500E+02  0.15264524577E+03  0.12499771574E+03 0.  0.
    9000005    1    3    3    0    0  0.42584339383E+02  0.52557275627E+01  0.11673938750E+02  0.44478415875E+02  0.10000000000E+01 0.  0.
    9000005    1    3    3    0    0 -0.42584339383E+02 -0.52557275627E+01 -0.99287534250E+02  0.10816682990E+03  0.10000000000E+01 0.  0.
<mgrwt>
<rscale>  0 0.12499772E+03</rscale>
<asrwt>0</asrwt>
<pdfrwt beam="2">  1        4 0.18481449E-01 0.12499772E+03</pdfrwt>
<pdfrwt beam="1">  1       -4 0.50024347E-02 0.12499772E+03</pdfrwt>
<totfact> 0.98784075E+03</totfact>
</mgrwt>
</event>
<event>
 5    1  0.3225662E-002  0.1249971E+03  0.7818608E-02  0.1235074E+00
          4   -1    0    0  501    0  0.00000000000E+00  0.00000000000E+00  0.40379501649E+03  0.40379701366E+03  0.12700000000E+01 0.  1.
         -4   -1    0    0    0  501 -0.00000000000E+00 -0.00000000000E+00 -0.96296873747E+01  0.97130725795E+01  0.12700000000E+01 0.  1.
         25    2    1    2    0    0  0.00000000000E+00  0.00000000000E+00  0.39416532911E+03  0.41351008624E+03  0.12499713895E+03 0.  0.
    9000005    1    3    3    0    0  0.53072611758E+02  0.20218786797E+02  0.11084379659E+03  0.12455058691E+03  0.10000000000E+01 0.  0.
    9000005    1    3    3    0    0 -0.53072611758E+02 -0.20218786797E+02  0.28332153252E+03  0.28895949932E+03  0.10000000000E+01 0.  0.
<mgrwt>
<rscale>  0 0.12499714E+03</rscale>
<asrwt>0</asrwt>
<pdfrwt beam="1">  1        4 0.62128892E-01 0.12499714E+03</pdfrwt>
<pdfrwt beam="2">  1       -4 0.14880579E-02 0.12499714E+03</pdfrwt>
<totfact> 0.63263671E+03</totfact>
</mgrwt>
</event>
<event>
 5    1  0.3225662E-002  0.1249993E+03  0.7818608E-02  0.1235070E+00
          4   -1    0    0  501    0  0.00000000000E+00  0.00000000000E+00  0.49861368953E+02  0.49877540174E+02  0.12700000000E+01 0. -1.
         -4   -1    0    0    0  501 -0.00000000000E+00 -0.00000000000E+00 -0.78307367689E+02  0.78317665532E+02  0.12700000000E+01 0. -1.
         25    2    1    2    0    0  0.00000000000E+00  0.00000000000E+00 -0.28445998736E+02  0.12819520571E+03  0.12499934369E+03 0.  0.
    9000005    1    3    3    0    0  0.30258806252E+02  0.52735278394E+02  0.58939975464E+00  0.60810791272E+02  0.10000000000E+01 0.  0.
    9000005    1    3    3    0    0 -0.30258806252E+02 -0.52735278394E+02 -0.29035398491E+02  0.67384414434E+02  0.10000000000E+01 0.  0.
<mgrwt>
<rscale>  0 0.12499934E+03</rscale>
<asrwt>0</asrwt>
<pdfrwt beam="1">  1        4 0.76730159E-02 0.12499934E+03</pdfrwt>
<pdfrwt beam="2">  1       -4 0.12049323E-01 0.12499934E+03</pdfrwt>
<totfact> 0.10383428E+04</totfact>
</mgrwt>
</event>
<event>
 5    1  0.3225662E-002  0.1249998E+03  0.7818608E-02  0.1235070E+00
         -4   -1    0    0    0  501 -0.00000000000E+00  0.00000000000E+00  0.15881013820E+04  0.15881018898E+04  0.12700000000E+01 0. -1.
          4   -1    0    0  501    0  0.00000000000E+00 -0.00000000000E+00 -0.22952155569E+01  0.26231497199E+01  0.12700000000E+01 0. -1.
         25    2    1    2    0    0  0.00000000000E+00  0.00000000000E+00  0.15858061664E+04  0.15907250395E+04  0.12499981540E+03 0.  0.
    9000005    1    3    3    0    0  0.18646696306E+02  0.13646157671E+02  0.15318033692E+04  0.15319779629E+04  0.10000000000E+01 0.  0.
    9000005    1    3    3    0    0 -0.18646696306E+02 -0.13646157671E+02  0.54002797190E+02  0.58747076580E+02  0.10000000000E+01 0.  0.
<mgrwt>
<rscale>  0 0.12499982E+03</rscale>
<asrwt>0</asrwt>
<pdfrwt beam="2">  1        4 0.37837345E-03 0.12499982E+03</pdfrwt>
<pdfrwt beam="1">  1       -4 0.24434946E+00 0.12499982E+03</pdfrwt>
<totfact> 0.16214231E+03</totfact>
</mgrwt>
</event>
<event>
 5    1  0.3225662E-002  0.1250032E+03  0.7818608E-02  0.1235064E+00
          4   -1    0    0  501    0  0.00000000000E+00  0.00000000000E+00  0.27073092019E+02  0.27102863529E+02  0.12700000000E+01 0. -1.
         -4   -1    0    0    0  501 -0.00000000000E+00 -0.00000000000E+00 -0.14418089302E+03  0.14418648624E+03  0.12700000000E+01 0. -1.
         25    2    1    2    0    0  0.00000000000E+00  0.00000000000E+00 -0.11710780101E+03  0.17128934977E+03  0.12500321711E+03 0.  0.
    9000005    1    3    3    0    0 -0.50792624322E+02 -0.85226990903E+01 -0.10705722784E+03  0.11880562747E+03  0.10000000000E+01 0.  0.
    9000005    1    3    3    0    0  0.50792624322E+02  0.85226990903E+01 -0.10050573167E+02  0.52483722299E+02  0.10000000000E+01 0.  0.
<mgrwt>
<rscale>  0 0.12500322E+03</rscale>
<asrwt>0</asrwt>
<pdfrwt beam="1">  1        4 0.41678115E-02 0.12500322E+03</pdfrwt>
<pdfrwt beam="2">  1       -4 0.22184396E-01 0.12500322E+03</pdfrwt>
<totfact> 0.95201991E+03</totfact>
</mgrwt>
</event>
<event>
 5    1  0.3225662E-002  0.1249845E+03  0.7818608E-02  0.1235093E+00
          4   -1    0    0  501    0  0.00000000000E+00  0.00000000000E+00  0.15771243741E+03  0.15771755074E+03  0.12700000000E+01 0.  1.
         -4   -1    0    0    0  501 -0.00000000000E+00 -0.00000000000E+00 -0.24740249352E+02  0.24772824586E+02  0.12700000000E+01 0.  1.
         25    2    1    2    0    0  0.00000000000E+00  0.00000000000E+00  0.13297218805E+03  0.18249037533E+03  0.12498453621E+03 0.  0.
    9000005    1    3    3    0    0 -0.33691224925E+02  0.42263857942E+01 -0.10100796831E+02  0.35439907878E+02  0.10000000000E+01 0.  0.
    9000005    1    3    3    0    0  0.33691224925E+02 -0.42263857942E+01  0.14307298488E+03  0.14705046745E+03  0.10000000000E+01 0.  0.
<mgrwt>
<rscale>  0 0.12498454E+03</rscale>
<asrwt>0</asrwt>
<pdfrwt beam="1">  1        4 0.24266350E-01 0.12498454E+03</pdfrwt>
<pdfrwt beam="2">  1       -4 0.38090914E-02 0.12498454E+03</pdfrwt>
<totfact> 0.93202943E+03</totfact>
</mgrwt>
</event>
<event>
 5    1  0.3225662E-002  0.1250171E+03  0.7818608E-02  0.1235042E+00
          4   -1    0    0  501    0  0.00000000000E+00  0.00000000000E+00  0.10234292900E+02  0.10312790658E+02  0.12700000000E+01 0.  1.
         -4   -1    0    0    0  501 -0.00000000000E+00 -0.00000000000E+00 -0.38024903721E+03  0.38025115805E+03  0.12700000000E+01 0.  1.
         25    2    1    2    0    0  0.00000000000E+00  0.00000000000E+00 -0.37001474431E+03  0.39056394870E+03  0.12501714692E+03 0.  0.
    9000005    1    3    3    0    0 -0.44273544570E+02  0.39587299830E+02 -0.12418630529E+03  0.13766095844E+03  0.10000000000E+01 0.  0.
    9000005    1    3    3    0    0  0.44273544570E+02 -0.39587299830E+02 -0.24582843901E+03  0.25290299026E+03  0.10000000000E+01 0.  0.
<mgrwt>
<rscale>  0 0.12501715E+03</rscale>
<asrwt>0</asrwt>
<pdfrwt beam="1">  1        4 0.15807083E-02 0.12501715E+03</pdfrwt>
<pdfrwt beam="2">  1       -4 0.58506043E-01 0.12501715E+03</pdfrwt>
<totfact> 0.65456205E+03</totfact>
</mgrwt>
</event>
<event>
 5    1  0.3225662E-002  0.1249983E+03  0.7818608E-02  0.1235072E+00
         -4   -1    0    0    0  501 -0.00000000000E+00  0.00000000000E+00  0.27234693710E+01  0.30050266912E+01  0.12700000000E+01 0.  1.
          4   -1    0    0  501    0  0.00000000000E+00 -0.00000000000E+00 -0.13634766418E+04  0.13634772333E+04  0.12700000000E+01 0.  1.
         25    2    1    2    0    0  0.00000000000E+00  0.00000000000E+00 -0.13607531725E+04  0.13664822600E+04  0.12499828200E+03 0.  0.
    9000005    1    3    3    0    0  0.52983935585E+02 -0.32451076955E+02 -0.75352536514E+03  0.75608322673E+03  0.10000000000E+01 0.  0.
    9000005    1    3    3    0    0 -0.52983935585E+02  0.32451076955E+02 -0.60722780731E+03  0.61039903326E+03  0.10000000000E+01 0.  0.
<mgrwt>
<rscale>  0 0.12499828E+03</rscale>
<asrwt>0</asrwt>
<pdfrwt beam="2">  1        4 0.20978682E+00 0.12499828E+03</pdfrwt>
<pdfrwt beam="1">  1       -4 0.44070013E-03 0.12499828E+03</pdfrwt>
<totfact> 0.20712401E+03</totfact>
</mgrwt>
</event>
<event>
 5    1  0.3225662E-002  0.1249936E+03  0.7818608E-02  0.1235079E+00
          4   -1    0    0  501    0  0.00000000000E+00  0.00000000000E+00  0.16731937982E+03  0.16732419958E+03  0.12700000000E+01 0. -1.
         -4   -1    0    0    0  501 -0.00000000000E+00 -0.00000000000E+00 -0.23321230043E+02  0.23355784523E+02  0.12700000000E+01 0. -1.
         25    2    1    2    0    0  0.00000000000E+00  0.00000000000E+00  0.14399814978E+03  0.19067998410E+03  0.12499355662E+03 0.  0.
    9000005    1    3    3    0    0  0.43451237649E+02 -0.37679355883E+02  0.34721963776E+02  0.67188977381E+02  0.10000000000E+01 0.  0.
    9000005    1    3    3    0    0 -0.43451237649E+02  0.37679355883E+02  0.10927618600E+03  0.12349100672E+03  0.10000000000E+01 0.  0.
<mgrwt>
<rscale>  0 0.12499356E+03</rscale>
<asrwt>0</asrwt>
<pdfrwt beam="1">  1        4 0.25744472E-01 0.12499356E+03</pdfrwt>
<pdfrwt beam="2">  1       -4 0.35909103E-02 0.12499356E+03</pdfrwt>
<totfact> 0.91742373E+03</totfact>
</mgrwt>
</event>
<event>
 5    1  0.3225662E-002  0.1250002E+03  0.7818608E-02  0.1235069E+00
          4   -1    0    0  501    0  0.00000000000E+00  0.00000000000E+00  0.11733322476E+03  0.11734009771E+03  0.12700000000E+01 0.  1.
         -4   -1    0    0    0  501 -0.00000000000E+00 -0.00000000000E+00 -0.33272081738E+02  0.33296310955E+02  0.12700000000E+01 0.  1.
         25    2    1    2    0    0  0.00000000000E+00  0.00000000000E+00  0.84061143018E+02  0.15063640867E+03  0.12500020741E+03 0.  0.
    9000005    1    3    3    0    0 -0.27437509828E+01  0.61748072726E+02  0.30926060793E+02  0.69121443062E+02  0.10000000000E+01 0.  0.
    9000005    1    3    3    0    0  0.27437509828E+01 -0.61748072726E+02  0.53135082225E+02  0.81514965607E+02  0.10000000000E+01 0.  0.
<mgrwt>
<rscale>  0 0.12500021E+03</rscale>
<asrwt>0</asrwt>
<pdfrwt beam="1">  1        4 0.18053658E-01 0.12500021E+03</pdfrwt>
<pdfrwt beam="2">  1       -4 0.51211741E-02 0.12500021E+03</pdfrwt>
<totfact> 0.99176527E+03</totfact>
</mgrwt>
</event>
<event>
 5    1  0.3225662E-002  0.1249984E+03  0.7818608E-02  0.1235072E+00
          4   -1    0    0  501    0  0.00000000000E+00  0.00000000000E+00  0.74826957981E+01  0.75897059500E+01  0.12700000000E+01 0. -1.
         -4   -1    0    0    0  501 -0.00000000000E+00 -0.00000000000E+00 -0.51821021736E+03  0.51821177358E+03  0.12700000000E+01 0. -1.
         25    2    1    2    0    0  0.00000000000E+00  0.00000000000E+00 -0.51072752156E+03  0.52580147953E+03  0.12499837837E+03 0.  0.
    9000005    1    3    3    0    0 -0.37192165675E+02 -0.66268521003E+01 -0.45968909655E+02  0.59508932197E+02  0.10000000000E+01 0.  0.
    9000005    1    3    3    0    0  0.37192165675E+02  0.66268521003E+01 -0.46475861190E+03  0.46629254733E+03  0.10000000000E+01 0.  0.
<mgrwt>
<rscale>  0 0.12499838E+03</rscale>
<asrwt>0</asrwt>
<pdfrwt beam="1">  1        4 0.11595356E-02 0.12499838E+03</pdfrwt>
<pdfrwt beam="2">  1       -4 0.79732972E-01 0.12499838E+03</pdfrwt>
<totfact> 0.53918558E+03</totfact>
</mgrwt>
</event>
<event>
 5    1  0.3225662E-002  0.1250033E+03  0.7818608E-02  0.1235064E+00
          4   -1    0    0  501    0  0.00000000000E+00  0.00000000000E+00  0.24719720061E+02  0.24752322313E+02  0.12700000000E+01 0. -1.
         -4   -1    0    0    0  501 -0.00000000000E+00 -0.00000000000E+00 -0.15789058755E+03  0.15789569512E+03  0.12700000000E+01 0. -1.
         25    2    1    2    0    0  0.00000000000E+00  0.00000000000E+00 -0.13317086749E+03  0.18264801744E+03  0.12500327325E+03 0.  0.
    9000005    1    3    3    0    0  0.56979855207E+02 -0.16289230049E+02 -0.37604178341E+02  0.70193426642E+02  0.10000000000E+01 0.  0.
    9000005    1    3    3    0    0 -0.56979855207E+02  0.16289230049E+02 -0.95566689153E+02  0.11245459079E+03  0.10000000000E+01 0.  0.
<mgrwt>
<rscale>  0 0.12500327E+03</rscale>
<asrwt>0</asrwt>
<pdfrwt beam="1">  1        4 0.38059347E-02 0.12500327E+03</pdfrwt>
<pdfrwt beam="2">  1       -4 0.24293760E-01 0.12500327E+03</pdfrwt>
<totfact> 0.93135678E+03</totfact>
</mgrwt>
</event>
<event>
 5    1  0.3225662E-002  0.1249992E+03  0.7818608E-02  0.1235071E+00
          4   -1    0    0  501    0  0.00000000000E+00  0.00000000000E+00  0.70829912400E+03  0.70830026258E+03  0.12700000000E+01 0. -1.
         -4   -1    0    0    0  501 -0.00000000000E+00 -0.00000000000E+00 -0.54406282408E+01  0.55868896225E+01  0.12700000000E+01 0. -1.
         25    2    1    2    0    0  0.00000000000E+00  0.00000000000E+00  0.70285849576E+03  0.71388715220E+03  0.12499920403E+03 0.  0.
    9000005    1    3    3    0    0 -0.50968582661E+00  0.32877798562E+02  0.47932557192E+02  0.58135526633E+02  0.10000000000E+01 0.  0.
    9000005    1    3    3    0    0  0.50968582661E+00 -0.32877798562E+02  0.65492593857E+03  0.65575162557E+03  0.10000000000E+01 0.  0.
<mgrwt>
<rscale>  0 0.12499920E+03</rscale>
<asrwt>0</asrwt>
<pdfrwt beam="1">  1        4 0.10898046E+00 0.12499920E+03</pdfrwt>
<pdfrwt beam="2">  1       -4 0.84835796E-03 0.12499920E+03</pdfrwt>
<totfact> 0.42364409E+03</totfact>
</mgrwt>
</event>
<event>
 5    1  0.3225662E-002  0.1250081E+03  0.7818608E-02  0.1235057E+00
          4   -1    0    0  501    0  0.00000000000E+00  0.00000000000E+00  0.62996629376E+01  0.64264028139E+01  0.12700000000E+01 0.  1.
         -4   -1    0    0    0  501 -0.00000000000E+00 -0.00000000000E+00 -0.61384949475E+03  0.61385080850E+03  0.12700000000E+01 0.  1.
         25    2    1    2    0    0  0.00000000000E+00  0.00000000000E+00 -0.60754983181E+03  0.62027721132E+03  0.12500808273E+03 0.  0.
    9000005    1    3    3    0    0  0.39034234508E+02 -0.42200308676E+02 -0.42543933863E+03  0.42930661347E+03  0.10000000000E+01 0.  0.
    9000005    1    3    3    0    0 -0.39034234508E+02  0.42200308676E+02 -0.18211049318E+03  0.19097059785E+03  0.10000000000E+01 0.  0.
<mgrwt>
<rscale>  0 0.12500808E+03</rscale>
<asrwt>0</asrwt>
<pdfrwt beam="1">  1        4 0.97902968E-03 0.12500808E+03</pdfrwt>
<pdfrwt beam="2">  1       -4 0.94448187E-01 0.12500808E+03</pdfrwt>
<totfact> 0.47603754E+03</totfact>
</mgrwt>
</event>
<event>
 5    1  0.3225662E-002  0.1249996E+03  0.7818608E-02  0.1235070E+00
          4   -1    0    0  501    0  0.00000000000E+00  0.00000000000E+00  0.26261627293E+02  0.26292317663E+02  0.12700000000E+01 0. -1.
         -4   -1    0    0    0  501 -0.00000000000E+00 -0.00000000000E+00 -0.14862241194E+03  0.14862783801E+03  0.12700000000E+01 0. -1.
         25    2    1    2    0    0  0.00000000000E+00  0.00000000000E+00 -0.12236078465E+03  0.17492015567E+03  0.12499959696E+03 0.  0.
    9000005    1    3    3    0    0  0.21721461748E+02  0.98378439476E+01  0.19651845000E+02  0.30916016656E+02  0.10000000000E+01 0.  0.
    9000005    1    3    3    0    0 -0.21721461748E+02 -0.98378439476E+01 -0.14201262965E+03  0.14400413901E+03  0.10000000000E+01 0.  0.
<mgrwt>
<rscale>  0 0.12499960E+03</rscale>
<asrwt>0</asrwt>
<pdfrwt beam="1">  1        4 0.40430286E-02 0.12499960E+03</pdfrwt>
<pdfrwt beam="2">  1       -4 0.22867764E-01 0.12499960E+03</pdfrwt>
<totfact> 0.94540321E+03</totfact>
</mgrwt>
</event>
<event>
 5    1  0.3225662E-002  0.1250040E+03  0.7818608E-02  0.1235063E+00
         -4   -1    0    0    0  501 -0.00000000000E+00  0.00000000000E+00  0.43840496049E+01  0.45642952291E+01  0.12700000000E+01 0. -1.
          4   -1    0    0  501    0  0.00000000000E+00 -0.00000000000E+00 -0.87294140106E+03  0.87294232489E+03  0.12700000000E+01 0. -1.
         25    2    1    2    0    0  0.00000000000E+00  0.00000000000E+00 -0.86855735146E+03  0.87750662012E+03  0.12500398228E+03 0.  0.
    9000005    1    3    3    0    0 -0.16820898814E+02  0.60132457583E+02 -0.45237269233E+03  0.45666279447E+03  0.10000000000E+01 0.  0.
    9000005    1    3    3    0    0  0.16820898814E+02 -0.60132457583E+02 -0.41618465913E+03  0.42084382565E+03  0.10000000000E+01 0.  0.
<mgrwt>
<rscale>  0 0.12500398E+03</rscale>
<asrwt>0</asrwt>
<pdfrwt beam="2">  1        4 0.13431248E+00 0.12500398E+03</pdfrwt>
<pdfrwt beam="1">  1       -4 0.68840597E-03 0.12500398E+03</pdfrwt>
<totfact> 0.35024386E+03</totfact>
</mgrwt>
</event>
<event>
 5    1  0.3225662E-002  0.1250029E+03  0.7818608E-02  0.1235065E+00
         -4   -1    0    0    0  501 -0.00000000000E+00  0.00000000000E+00  0.13664194953E+02  0.13723087252E+02  0.12700000000E+01 0.  1.
          4   -1    0    0  501    0  0.00000000000E+00 -0.00000000000E+00 -0.28521323658E+03  0.28521606410E+03  0.12700000000E+01 0.  1.
         25    2    1    2    0    0  0.00000000000E+00  0.00000000000E+00 -0.27154904162E+03  0.29893915135E+03  0.12500293677E+03 0.  0.
    9000005    1    3    3    0    0 -0.36221268200E+02  0.19075295599E+02 -0.24869552515E+03  0.25204426477E+03  0.10000000000E+01 0.  0.
    9000005    1    3    3    0    0  0.36221268200E+02 -0.19075295599E+02 -0.22853516473E+02  0.46894886580E+02  0.10000000000E+01 0.  0.
<mgrwt>
<rscale>  0 0.12500294E+03</rscale>
<asrwt>0</asrwt>
<pdfrwt beam="2">  1        4 0.43883703E-01 0.12500294E+03</pdfrwt>
<pdfrwt beam="1">  1       -4 0.21069317E-02 0.12500294E+03</pdfrwt>
<totfact> 0.75727167E+03</totfact>
</mgrwt>
</event>
<event>
 5    1  0.3225662E-002  0.1250001E+03  0.7818608E-02  0.1235069E+00
         -4   -1    0    0    0  501 -0.00000000000E+00  0.00000000000E+00  0.30510694559E+03  0.30510958875E+03  0.12700000000E+01 0. -1.
          4   -1    0    0  501    0  0.00000000000E+00 -0.00000000000E+00 -0.12768700962E+02  0.12831703872E+02  0.12700000000E+01 0. -1.
         25    2    1    2    0    0  0.00000000000E+00  0.00000000000E+00  0.29233824463E+03  0.31794129263E+03  0.12500006513E+03 0.  0.
    9000005    1    3    3    0    0  0.43367221503E+00 -0.14109109564E+02 -0.86730825230E+01  0.16597512004E+02  0.10000000000E+01 0.  0.
    9000005    1    3    3    0    0 -0.43367221503E+00  0.14109109564E+02  0.30101132715E+03  0.30134378062E+03  0.10000000000E+01 0.  0.
<mgrwt>
<rscale>  0 0.12500007E+03</rscale>
<asrwt>0</asrwt>
<pdfrwt beam="2">  1        4 0.19694651E-02 0.12500007E+03</pdfrwt>
<pdfrwt beam="1">  1       -4 0.46944582E-01 0.12500007E+03</pdfrwt>
<totfact> 0.73401542E+03</totfact>
</mgrwt>
</event>
<event>
 4    1  0.3225662E-002  0.1248597E+03  0.7818608E-02  0.1235289E+00
          4   -1    0    0  501    0  0.00000000000E+00  0.00000000000E+00  0.10297044358E+03  0.10297827514E+03  0.12700000000E+01 0.  1.
         -4   -1    0    0    0  501 -0.00000000000E+00 -0.00000000000E+00 -0.37830577663E+02  0.37851889072E+02  0.12700000000E+01 0.  1.
    9000005    1    1    2    0    0  0.59432857919E+01 -0.52813772854E+02  0.69496914541E+02  0.87495362047E+02  0.10000000000E+01 0.  0.
    9000005    1    1    2    0    0 -0.59432857919E+01  0.52813772854E+02 -0.43570486268E+01  0.53334802163E+02  0.10000000000E+01 0.  0.
<mgrwt>
<rscale>  0 0.12485965E+03</rscale>
<asrwt>0</asrwt>
<pdfrwt beam="1">  1        4 0.15843848E-01 0.12485965E+03</pdfrwt>
<pdfrwt beam="2">  1       -4 0.58223307E-02 0.12485965E+03</pdfrwt>
<totfact> 0.10148460E+04</totfact>
</mgrwt>
</event>
<event>
 5    1  0.3225662E-002  0.1250082E+03  0.7818608E-02  0.1235057E+00
         -4   -1    0    0    0  501 -0.00000000000E+00  0.00000000000E+00  0.18835787623E+03  0.18836215766E+03  0.12700000000E+01 0.  1.
          4   -1    0    0  501    0  0.00000000000E+00 -0.00000000000E+00 -0.20717191846E+02  0.20756081951E+02  0.12700000000E+01 0.  1.
         25    2    1    2    0    0  0.00000000000E+00  0.00000000000E+00  0.16764068438E+03  0.20911823961E+03  0.12500815604E+03 0.  0.
    9000005    1    3    3    0    0  0.19071453939E+02  0.29656750030E+02 -0.24973313498E+01  0.35362124392E+02  0.10000000000E+01 0.  0.
    9000005    1    3    3    0    0 -0.19071453939E+02 -0.29656750030E+02  0.17013801573E+03  0.17375611522E+03  0.10000000000E+01 0.  0.
<mgrwt>
<rscale>  0 0.12500816E+03</rscale>
<asrwt>0</asrwt>
<pdfrwt beam="2">  1        4 0.31905811E-02 0.12500816E+03</pdfrwt>
<pdfrwt beam="1">  1       -4 0.28981456E-01 0.12500816E+03</pdfrwt>
<totfact> 0.88603927E+03</totfact>
</mgrwt>
</event>
<event>
 5    1  0.3225662E-002  0.1250013E+03  0.7818608E-02  0.1235067E+00
          4   -1    0    0  501    0  0.00000000000E+00  0.00000000000E+00  0.17198847932E+02  0.17245673955E+02  0.12700000000E+01 0.  1.
         -4   -1    0    0    0  501 -0.00000000000E+00 -0.00000000000E+00 -0.22677012956E+03  0.22677368578E+03  0.12700000000E+01 0.  1.
         25    2    1    2    0    0  0.00000000000E+00  0.00000000000E+00 -0.20957128163E+03  0.24401935973E+03  0.12500130336E+03 0.  0.
    9000005    1    3    3    0    0  0.53403169706E+02  0.32395986150E+02 -0.10091420469E+03  0.11868477224E+03  0.10000000000E+01 0.  0.
    9000005    1    3    3    0    0 -0.53403169706E+02 -0.32395986150E+02 -0.10865707693E+03  0.12533458749E+03  0.10000000000E+01 0.  0.
<mgrwt>
<rscale>  0 0.12500130E+03</rscale>
<asrwt>0</asrwt>
<pdfrwt beam="1">  1        4 0.26498523E-02 0.12500130E+03</pdfrwt>
<pdfrwt beam="2">  1       -4 0.34891586E-01 0.12500130E+03</pdfrwt>
<totfact> 0.83199957E+03</totfact>
</mgrwt>
</event>
<event>
 5    1  0.3225662E-002  0.1249976E+03  0.7818608E-02  0.1235073E+00
         -4   -1    0    0    0  501 -0.00000000000E+00  0.00000000000E+00  0.40706657239E+01  0.42641786355E+01  0.12700000000E+01 0. -1.
          4   -1    0    0  501    0  0.00000000000E+00 -0.00000000000E+00 -0.93710013681E+03  0.93710099739E+03  0.12700000000E+01 0. -1.
         25    2    1    2    0    0  0.00000000000E+00  0.00000000000E+00 -0.93302947108E+03  0.94136517602E+03  0.12499760285E+03 0.  0.
    9000005    1    3    3    0    0 -0.55311003674E+02  0.21442556818E+02 -0.61447858265E+03  0.61733622841E+03  0.10000000000E+01 0.  0.
    9000005    1    3    3    0    0  0.55311003674E+02 -0.21442556818E+02 -0.31855088843E+03  0.32402894762E+03  0.10000000000E+01 0.  0.
<mgrwt>
<rscale>  0 0.12499760E+03</rscale>
<asrwt>0</asrwt>
<pdfrwt beam="2">  1        4 0.14418404E+00 0.12499760E+03</pdfrwt>
<pdfrwt beam="1">  1       -4 0.64120882E-03 0.12499760E+03</pdfrwt>
<totfact> 0.32626285E+03</totfact>
</mgrwt>
</event>
<event>
 5    1  0.3225662E-002  0.1249993E+03  0.7818608E-02  0.1235070E+00
         -4   -1    0    0    0  501 -0.00000000000E+00  0.00000000000E+00  0.26923670361E+02  0.26953606915E+02  0.12700000000E+01 0.  1.
          4   -1    0    0  501    0  0.00000000000E+00 -0.00000000000E+00 -0.14497121812E+03  0.14497678084E+03  0.12700000000E+01 0.  1.
         25    2    1    2    0    0  0.00000000000E+00  0.00000000000E+00 -0.11804754776E+03  0.17193038776E+03  0.12499933881E+03 0.  0.
    9000005    1    3    3    0    0 -0.29476114486E+02  0.12276468391E+02  0.14863081104E+02  0.35234417567E+02  0.10000000000E+01 0.  0.
    9000005    1    3    3    0    0  0.29476114486E+02 -0.12276468391E+02 -0.13291062886E+03  0.13669597019E+03  0.10000000000E+01 0.  0.
<mgrwt>
<rscale>  0 0.12499934E+03</rscale>
<asrwt>0</asrwt>
<pdfrwt beam="2">  1        4 0.22305995E-01 0.12499934E+03</pdfrwt>
<pdfrwt beam="1">  1       -4 0.41448339E-02 0.12499934E+03</pdfrwt>
<totfact> 0.95091469E+03</totfact>
</mgrwt>
</event>
<event>
 5    1  0.3225662E-002  0.1249995E+03  0.7818608E-02  0.1235070E+00
         -4   -1    0    0    0  501 -0.00000000000E+00  0.00000000000E+00  0.51574743869E+02  0.51590378029E+02  0.12700000000E+01 0.  1.
          4   -1    0    0  501    0  0.00000000000E+00 -0.00000000000E+00 -0.75706506647E+02  0.75717158218E+02  0.12700000000E+01 0.  1.
         25    2    1    2    0    0  0.00000000000E+00  0.00000000000E+00 -0.24131762777E+02  0.12730753625E+03  0.12499946724E+03 0.  0.
    9000005    1    3    3    0    0 -0.41333971022E+02 -0.23136455509E+02 -0.53579079037E+02  0.71522796677E+02  0.10000000000E+01 0.  0.
    9000005    1    3    3    0    0  0.41333971022E+02  0.23136455509E+02  0.29447316260E+02  0.55784739570E+02  0.10000000000E+01 0.  0.
<mgrwt>
<rscale>  0 0.12499947E+03</rscale>
<asrwt>0</asrwt>
<pdfrwt beam="2">  1        4 0.11649177E-01 0.12499947E+03</pdfrwt>
<pdfrwt beam="1">  1       -4 0.79365979E-02 0.12499947E+03</pdfrwt>
<totfact> 0.10402596E+04</totfact>
</mgrwt>
</event>
<event>
 5    1  0.3225662E-002  0.1249944E+03  0.7818608E-02  0.1235078E+00
         -4   -1    0    0    0  501 -0.00000000000E+00  0.00000000000E+00  0.23500821098E+02  0.23535111903E+02  0.12700000000E+01 0.  1.
          4   -1    0    0  501    0  0.00000000000E+00 -0.00000000000E+00 -0.16604477067E+03  0.16604962742E+03  0.12700000000E+01 0.  1.
         25    2    1    2    0    0  0.00000000000E+00  0.00000000000E+00 -0.14254394957E+03  0.18958473933E+03  0.12499438318E+03 0.  0.
    9000005    1    3    3    0    0  0.38650818295E+02 -0.99566066905E+01 -0.14420016654E+03  0.14962522449E+03  0.10000000000E+01 0.  0.
    9000005    1    3    3    0    0 -0.38650818295E+02  0.99566066905E+01  0.16562169677E+01  0.39959514841E+02  0.10000000000E+01 0.  0.
<mgrwt>
<rscale>  0 0.12499438E+03</rscale>
<asrwt>0</asrwt>
<pdfrwt beam="2">  1        4 0.25548360E-01 0.12499438E+03</pdfrwt>
<pdfrwt beam="1">  1       -4 0.36185224E-02 0.12499438E+03</pdfrwt>
<totfact> 0.91931185E+03</totfact>
</mgrwt>
</event>
<event>
 5    1  0.3225662E-002  0.1249978E+03  0.7818608E-02  0.1235073E+00
         -4   -1    0    0    0  501 -0.00000000000E+00  0.00000000000E+00  0.22736503910E+02  0.22771945680E+02  0.12700000000E+01 0. -1.
          4   -1    0    0  501    0  0.00000000000E+00 -0.00000000000E+00 -0.17162747983E+03  0.17163217861E+03  0.12700000000E+01 0. -1.
         25    2    1    2    0    0  0.00000000000E+00  0.00000000000E+00 -0.14889097592E+03  0.19440412429E+03  0.12499776330E+03 0.  0.
    9000005    1    3    3    0    0  0.45331560696E+02  0.37752381995E+01 -0.78064655696E+01  0.46164312226E+02  0.10000000000E+01 0.  0.
    9000005    1    3    3    0    0 -0.45331560696E+02 -0.37752381995E+01 -0.14108451035E+03  0.14823981206E+03  0.10000000000E+01 0.  0.
<mgrwt>
<rscale>  0 0.12499776E+03</rscale>
<asrwt>0</asrwt>
<pdfrwt beam="2">  1        4 0.26407315E-01 0.12499776E+03</pdfrwt>
<pdfrwt beam="1">  1       -4 0.35010115E-02 0.12499776E+03</pdfrwt>
<totfact> 0.91091171E+03</totfact>
</mgrwt>
</event>
<event>
 5    1  0.3225662E-002  0.1249993E+03  0.7818608E-02  0.1235070E+00
         -4   -1    0    0    0  501 -0.00000000000E+00  0.00000000000E+00  0.20034797130E+03  0.20035199651E+03  0.12700000000E+01 0.  1.
          4   -1    0    0  501    0  0.00000000000E+00 -0.00000000000E+00 -0.19472197782E+02  0.19513569291E+02  0.12700000000E+01 0.  1.
         25    2    1    2    0    0  0.00000000000E+00  0.00000000000E+00  0.18087577352E+03  0.21986556580E+03  0.12499928631E+03 0.  0.
    9000005    1    3    3    0    0  0.15211587782E+02  0.43840457150E+02  0.16405780493E+03  0.17049733560E+03  0.10000000000E+01 0.  0.
    9000005    1    3    3    0    0 -0.15211587782E+02 -0.43840457150E+02  0.16817968587E+02  0.49368230203E+02  0.10000000000E+01 0.  0.
<mgrwt>
<rscale>  0 0.12499929E+03</rscale>
<asrwt>0</asrwt>
<pdfrwt beam="2">  1        4 0.29992149E-02 0.12499929E+03</pdfrwt>
<pdfrwt beam="1">  1       -4 0.30826255E-01 0.12499929E+03</pdfrwt>
<totfact> 0.86891012E+03</totfact>
</mgrwt>
</event>
<event>
 5    1  0.3225662E-002  0.1249976E+03  0.7818608E-02  0.1235073E+00
         -4   -1    0    0    0  501 -0.00000000000E+00  0.00000000000E+00  0.11376385371E+04  0.11376392459E+04  0.12700000000E+01 0.  1.
          4   -1    0    0  501    0  0.00000000000E+00 -0.00000000000E+00 -0.33153447231E+01  0.35502690930E+01  0.12700000000E+01 0.  1.
         25    2    1    2    0    0  0.00000000000E+00  0.00000000000E+00  0.11343231923E+04  0.11411895150E+04  0.12499761817E+03 0.  0.
    9000005    1    3    3    0    0 -0.57869609238E+02  0.14560112004E+02  0.39777875297E+03  0.40223105903E+03  0.10000000000E+01 0.  0.
    9000005    1    3    3    0    0  0.57869609238E+02 -0.14560112004E+02  0.73654443937E+03  0.73895845601E+03  0.10000000000E+01 0.  0.
<mgrwt>
<rscale>  0 0.12499762E+03</rscale>
<asrwt>0</asrwt>
<pdfrwt beam="2">  1        4 0.52817870E-03 0.12499762E+03</pdfrwt>
<pdfrwt beam="1">  1       -4 0.17503943E+00 0.12499762E+03</pdfrwt>
<totfact> 0.26307329E+03</totfact>
</mgrwt>
</event>
<event>
 5    1  0.3225662E-002  0.1250006E+03  0.7818608E-02  0.1235068E+00
          4   -1    0    0  501    0  0.00000000000E+00  0.00000000000E+00  0.18915489664E+03  0.18915916003E+03  0.12700000000E+01 0.  1.
         -4   -1    0    0    0  501 -0.00000000000E+00 -0.00000000000E+00 -0.20627230571E+02  0.20666289967E+02  0.12700000000E+01 0.  1.
         25    2    1    2    0    0  0.00000000000E+00  0.00000000000E+00  0.16852766607E+03  0.20982545000E+03  0.12500058094E+03 0.  0.
    9000005    1    3    3    0    0  0.37197181575E+02  0.37372902687E+02  0.14056369931E+03  0.15013166800E+03  0.10000000000E+01 0.  0.
    9000005    1    3    3    0    0 -0.37197181575E+02 -0.37372902687E+02  0.27963966761E+02  0.59693781999E+02  0.10000000000E+01 0.  0.
<mgrwt>
<rscale>  0 0.12500058E+03</rscale>
<asrwt>0</asrwt>
<pdfrwt beam="1">  1        4 0.29104086E-01 0.12500058E+03</pdfrwt>
<pdfrwt beam="2">  1       -4 0.31767526E-02 0.12500058E+03</pdfrwt>
<totfact> 0.88503245E+03</totfact>
</mgrwt>
</event>
<event>
 5    1  0.3225662E-002  0.1250036E+03  0.7818608E-02  0.1235064E+00
          4   -1    0    0  501    0  0.00000000000E+00  0.00000000000E+00  0.34089356345E+02  0.34113005086E+02  0.12700000000E+01 0.  1.
         -4   -1    0    0    0  501 -0.00000000000E+00 -0.00000000000E+00 -0.11452822964E+03  0.11453527092E+03  0.12700000000E+01 0.  1.
         25    2    1    2    0    0  0.00000000000E+00  0.00000000000E+00 -0.80438873298E+02  0.14864827601E+03  0.12500359044E+03 0.  0.
    9000005    1    3    3    0    0  0.37870403164E+02 -0.34079481820E+02  0.28189297927E+01  0.51034545967E+02  0.10000000000E+01 0.  0.
    9000005    1    3    3    0    0 -0.37870403164E+02  0.34079481820E+02 -0.83257803091E+02  0.97613730040E+02  0.10000000000E+01 0.  0.
<mgrwt>
<rscale>  0 0.12500359E+03</rscale>
<asrwt>0</asrwt>
<pdfrwt beam="1">  1        4 0.52468772E-02 0.12500359E+03</pdfrwt>
<pdfrwt beam="2">  1       -4 0.17622088E-01 0.12500359E+03</pdfrwt>
<totfact> 0.99565782E+03</totfact>
</mgrwt>
</event>
<event>
 5    1  0.3225662E-002  0.1250025E+03  0.7818608E-02  0.1235065E+00
          4   -1    0    0  501    0  0.00000000000E+00  0.00000000000E+00  0.18245361625E+03  0.18245803622E+03  0.12700000000E+01 0.  1.
         -4   -1    0    0    0  501 -0.00000000000E+00 -0.00000000000E+00 -0.21386890777E+02  0.21424565272E+02  0.12700000000E+01 0.  1.
         25    2    1    2    0    0  0.00000000000E+00  0.00000000000E+00  0.16106672547E+03  0.20388260149E+03  0.12500250053E+03 0.  0.
    9000005    1    3    3    0    0 -0.40116445220E+02  0.45153150297E+02  0.10669447142E+03  0.12260850864E+03  0.10000000000E+01 0.  0.
    9000005    1    3    3    0    0  0.40116445220E+02 -0.45153150297E+02  0.54372254049E+02  0.81274092854E+02  0.10000000000E+01 0.  0.
<mgrwt>
<rscale>  0 0.12500250E+03</rscale>
<asrwt>0</asrwt>
<pdfrwt beam="1">  1        4 0.28073025E-01 0.12500250E+03</pdfrwt>
<pdfrwt beam="2">  1       -4 0.32935290E-02 0.12500250E+03</pdfrwt>
<totfact> 0.89479775E+03</totfact>
</mgrwt>
</event>
<event>
 5    1  0.3225662E-002  0.1249987E+03  0.7818608E-02  0.1235071E+00
         -4   -1    0    0    0  501 -0.00000000000E+00  0.00000000000E+00  0.53767559499E+02  0.53782556229E+02  0.12700000000E+01 0.  1.
          4   -1    0    0  501    0  0.00000000000E+00 -0.00000000000E+00 -0.72618545135E+02  0.72629649576E+02  0.12700000000E+01 0.  1.
         25    2    1    2    0    0  0.00000000000E+00  0.00000000000E+00 -0.18850985636E+02  0.12641220580E+03  0.12499874446E+03 0.  0.
    9000005    1    3    3    0    0  0.38108176607E+02  0.18329461303E+02 -0.55956305091E+02  0.70144923946E+02  0.10000000000E+01 0.  0.
    9000005    1    3    3    0    0 -0.38108176607E+02 -0.18329461303E+02  0.37105319455E+02  0.56267281859E+02  0.10000000000E+01 0.  0.
<mgrwt>
<rscale>  0 0.12499874E+03</rscale>
<asrwt>0</asrwt>
<pdfrwt beam="2">  1        4 0.11174092E-01 0.12499874E+03</pdfrwt>
<pdfrwt beam="1">  1       -4 0.82739400E-02 0.12499874E+03</pdfrwt>
<totfact> 0.10422239E+04</totfact>
</mgrwt>
</event>
<event>
 5    1  0.3225662E-002  0.1250022E+03  0.7818608E-02  0.1235066E+00
          4   -1    0    0  501    0  0.00000000000E+00  0.00000000000E+00  0.20460097552E+02  0.20499475404E+02  0.12700000000E+01 0. -1.
         -4   -1    0    0    0  501 -0.00000000000E+00 -0.00000000000E+00 -0.19070213730E+03  0.19070636610E+03  0.12700000000E+01 0. -1.
         25    2    1    2    0    0  0.00000000000E+00  0.00000000000E+00 -0.17024203975E+03  0.21120584151E+03  0.12500222153E+03 0.  0.
    9000005    1    3    3    0    0  0.18937859969E+02 -0.59554514344E+02 -0.84988753816E+02  0.10549630797E+03  0.10000000000E+01 0.  0.
    9000005    1    3    3    0    0 -0.18937859969E+02  0.59554514344E+02 -0.85253285935E+02  0.10570953354E+03  0.10000000000E+01 0.  0.
<mgrwt>
<rscale>  0 0.12500222E+03</rscale>
<asrwt>0</asrwt>
<pdfrwt beam="1">  1        4 0.31510618E-02 0.12500222E+03</pdfrwt>
<pdfrwt beam="2">  1       -4 0.29342144E-01 0.12500222E+03</pdfrwt>
<totfact> 0.88274946E+03</totfact>
</mgrwt>
</event>
<event>
 5    1  0.3225662E-002  0.1250185E+03  0.7818608E-02  0.1235040E+00
          4   -1    0    0  501    0  0.00000000000E+00  0.00000000000E+00  0.91853474495E+02  0.91862253819E+02  0.12700000000E+01 0. -1.
         -4   -1    0    0    0  501 -0.00000000000E+00 -0.00000000000E+00 -0.42519278302E+02  0.42538240764E+02  0.12700000000E+01 0. -1.
         25    2    1    2    0    0  0.00000000000E+00  0.00000000000E+00  0.49334196193E+02  0.13440049458E+03  0.12501851875E+03 0.  0.
    9000005    1    3    3    0    0  0.40067614027E+02 -0.36679320870E+02 -0.85658916534E+01  0.55001461554E+02  0.10000000000E+01 0.  0.
    9000005    1    3    3    0    0 -0.40067614027E+02  0.36679320870E+02  0.57900087847E+02  0.79399033029E+02  0.10000000000E+01 0.  0.
<mgrwt>
<rscale>  0 0.12501852E+03</rscale>
<asrwt>0</asrwt>
<pdfrwt beam="1">  1        4 0.14133438E-01 0.12501852E+03</pdfrwt>
<pdfrwt beam="2">  1       -4 0.65435614E-02 0.12501852E+03</pdfrwt>
<totfact> 0.10246442E+04</totfact>
</mgrwt>
</event>
<event>
 5    1  0.3225662E-002  0.1249986E+03  0.7818608E-02  0.1235072E+00
         -4   -1    0    0    0  501 -0.00000000000E+00  0.00000000000E+00  0.10494476660E+02  0.10571042539E+02  0.12700000000E+01 0.  1.
          4   -1    0    0  501    0  0.00000000000E+00 -0.00000000000E+00 -0.37078056940E+03  0.37078274440E+03  0.12700000000E+01 0.  1.
         25    2    1    2    0    0  0.00000000000E+00  0.00000000000E+00 -0.36028609274E+03  0.38135378694E+03  0.12499856875E+03 0.  0.
    9000005    1    3    3    0    0  0.17468862601E+02  0.49145131194E+02 -0.75131420218E+02  0.91466580699E+02  0.10000000000E+01 0.  0.
    9000005    1    3    3    0    0 -0.17468862601E+02 -0.49145131194E+02 -0.28515467252E+03  0.28988720624E+03  0.10000000000E+01 0.  0.
<mgrwt>
<rscale>  0 0.12499857E+03</rscale>
<asrwt>0</asrwt>
<pdfrwt beam="2">  1        4 0.57049211E-01 0.12499857E+03</pdfrwt>
<pdfrwt beam="1">  1       -4 0.16205922E-02 0.12499857E+03</pdfrwt>
<totfact> 0.66409716E+03</totfact>
</mgrwt>
</event>
<event>
 5    1  0.3225662E-002  0.1249938E+03  0.7818608E-02  0.1235079E+00
         -4   -1    0    0    0  501 -0.00000000000E+00  0.00000000000E+00  0.35144128883E+02  0.35167068330E+02  0.12700000000E+01 0. -1.
          4   -1    0    0  501    0  0.00000000000E+00 -0.00000000000E+00 -0.11107550977E+03  0.11108276991E+03  0.12700000000E+01 0. -1.
         25    2    1    2    0    0  0.00000000000E+00  0.00000000000E+00 -0.75931380885E+02  0.14624983824E+03  0.12499376217E+03 0.  0.
    9000005    1    3    3    0    0 -0.21243440916E+02 -0.57693351062E+02 -0.51050131196E+02  0.79918223415E+02  0.10000000000E+01 0.  0.
    9000005    1    3    3    0    0  0.21243440916E+02  0.57693351062E+02 -0.24881249689E+02  0.66331614821E+02  0.10000000000E+01 0.  0.
<mgrwt>
<rscale>  0 0.12499376E+03</rscale>
<asrwt>0</asrwt>
<pdfrwt beam="2">  1        4 0.17090863E-01 0.12499376E+03</pdfrwt>
<pdfrwt beam="1">  1       -4 0.54091122E-02 0.12499376E+03</pdfrwt>
<totfact> 0.10007061E+04</totfact>
</mgrwt>
</event>
<event>
 5    1  0.3225662E-002  0.1249993E+03  0.7818608E-02  0.1235070E+00
         -4   -1    0    0    0  501 -0.00000000000E+00  0.00000000000E+00  0.10062183004E+02  0.10142012957E+02  0.12700000000E+01 0.  1.
          4   -1    0    0  501    0  0.00000000000E+00 -0.00000000000E+00 -0.38659162731E+03  0.38659371336E+03  0.12700000000E+01 0.  1.
         25    2    1    2    0    0  0.00000000000E+00  0.00000000000E+00 -0.37652944431E+03  0.39673572632E+03  0.12499925641E+03 0.  0.
    9000005    1    3    3    0    0 -0.16127983702E+02 -0.10868139335E+02  0.22821644122E+00  0.19475122429E+02  0.10000000000E+01 0.  0.
    9000005    1    3    3    0    0  0.16127983702E+02  0.10868139335E+02 -0.37675766075E+03  0.37726060389E+03  0.10000000000E+01 0.  0.
<mgrwt>
<rscale>  0 0.12499926E+03</rscale>
<asrwt>0</asrwt>
<pdfrwt beam="2">  1        4 0.59481925E-01 0.12499926E+03</pdfrwt>
<pdfrwt beam="1">  1       -4 0.15543297E-02 0.12499926E+03</pdfrwt>
<totfact> 0.64872582E+03</totfact>
</mgrwt>
</event>
<event>
 5    1  0.3225662E-002  0.1250028E+03  0.7818608E-02  0.1235065E+00
          4   -1    0    0  501    0  0.00000000000E+00  0.00000000000E+00  0.16157356191E+02  0.16207191586E+02  0.12700000000E+01 0.  1.
         -4   -1    0    0    0  501 -0.00000000000E+00 -0.00000000000E+00 -0.24134994864E+03  0.24135329003E+03  0.12700000000E+01 0.  1.
         25    2    1    2    0    0  0.00000000000E+00  0.00000000000E+00 -0.22519259245E+03  0.25756048162E+03  0.12500279196E+03 0.  0.
    9000005    1    3    3    0    0  0.51179401361E+00  0.20475182739E+02 -0.23424817278E+03  0.23514400160E+03  0.10000000000E+01 0.  0.
    9000005    1    3    3    0    0 -0.51179401361E+00 -0.20475182739E+02  0.90555803240E+01  0.22416480016E+02  0.10000000000E+01 0.  0.
<mgrwt>
<rscale>  0 0.12500279E+03</rscale>
<asrwt>0</asrwt>
<pdfrwt beam="1">  1        4 0.24898378E-02 0.12500279E+03</pdfrwt>
<pdfrwt beam="2">  1       -4 0.37134849E-01 0.12500279E+03</pdfrwt>
<totfact> 0.81244587E+03</totfact>
</mgrwt>
</event>
<event>
 5    1  0.3225662E-002  0.1250063E+03  0.7818608E-02  0.1235059E+00
         -4   -1    0    0    0  501 -0.00000000000E+00  0.00000000000E+00  0.34781593572E+03  0.34781825432E+03  0.12700000000E+01 0. -1.
          4   -1    0    0  501    0  0.00000000000E+00 -0.00000000000E+00 -0.11193664384E+02  0.11265479233E+02  0.12700000000E+01 0. -1.
         25    2    1    2    0    0  0.00000000000E+00  0.00000000000E+00  0.33662227134E+03  0.35908373356E+03  0.12500629642E+03 0.  0.
    9000005    1    3    3    0    0  0.12472048338E+02 -0.61122788085E+02  0.17909605174E+03  0.18965216309E+03  0.10000000000E+01 0.  0.
    9000005    1    3    3    0    0 -0.12472048338E+02  0.61122788085E+02  0.15752621959E+03  0.16943157047E+03  0.10000000000E+01 0.  0.
<mgrwt>
<rscale>  0 0.12500630E+03</rscale>
<asrwt>0</asrwt>
<pdfrwt beam="2">  1        4 0.17278047E-02 0.12500630E+03</pdfrwt>
<pdfrwt beam="1">  1       -4 0.53515849E-01 0.12500630E+03</pdfrwt>
<totfact> 0.68727084E+03</totfact>
</mgrwt>
</event>
<event>
 5    1  0.3225662E-002  0.1250057E+03  0.7818608E-02  0.1235060E+00
         -4   -1    0    0    0  501 -0.00000000000E+00  0.00000000000E+00  0.45435729919E+02  0.45453475701E+02  0.12700000000E+01 0. -1.
          4   -1    0    0  501    0  0.00000000000E+00 -0.00000000000E+00 -0.85941710762E+02  0.85951093936E+02  0.12700000000E+01 0. -1.
         25    2    1    2    0    0  0.00000000000E+00  0.00000000000E+00 -0.40505980843E+02  0.13140456964E+03  0.12500570562E+03 0.  0.
    9000005    1    3    3    0    0 -0.41853727613E+02 -0.28203305755E+02  0.18490769439E+02  0.53759366858E+02  0.10000000000E+01 0.  0.
    9000005    1    3    3    0    0  0.41853727613E+02  0.28203305755E+02 -0.58996750282E+02  0.77645202778E+02  0.10000000000E+01 0.  0.
<mgrwt>
<rscale>  0 0.12500571E+03</rscale>
<asrwt>0</asrwt>
<pdfrwt beam="2">  1        4 0.13223888E-01 0.12500571E+03</pdfrwt>
<pdfrwt beam="1">  1       -4 0.69921992E-02 0.12500571E+03</pdfrwt>
<totfact> 0.10313096E+04</totfact>
</mgrwt>
</event>
<event>
 5    1  0.3225662E-002  0.1250007E+03  0.7818608E-02  0.1235068E+00
         -4   -1    0    0    0  501 -0.00000000000E+00  0.00000000000E+00  0.27124040044E+02  0.27153755695E+02  0.12700000000E+01 0. -1.
          4   -1    0    0  501    0  0.00000000000E+00 -0.00000000000E+00 -0.14390456736E+03  0.14391017131E+03  0.12700000000E+01 0. -1.
         25    2    1    2    0    0  0.00000000000E+00  0.00000000000E+00 -0.11678052732E+03  0.17106392701E+03  0.12500070225E+03 0.  0.
    9000005    1    3    3    0    0  0.34281132054E+01  0.56904674225E+02 -0.23355499581E+02  0.61614716338E+02  0.10000000000E+01 0.  0.
    9000005    1    3    3    0    0 -0.34281132054E+01 -0.56904674225E+02 -0.93425027736E+02  0.10944921067E+03  0.10000000000E+01 0.  0.
<mgrwt>
<rscale>  0 0.12500070E+03</rscale>
<asrwt>0</asrwt>
<pdfrwt beam="2">  1        4 0.22141881E-01 0.12500070E+03</pdfrwt>
<pdfrwt beam="1">  1       -4 0.41756462E-02 0.12500070E+03</pdfrwt>
<totfact> 0.95249205E+03</totfact>
</mgrwt>
</event>
<event>
 5    1  0.3225662E-002  0.1249787E+03  0.7818608E-02  0.1235103E+00
         -4   -1    0    0    0  501 -0.00000000000E+00  0.00000000000E+00  0.82123392705E+01  0.83099588624E+01  0.12700000000E+01 0.  1.
          4   -1    0    0  501    0  0.00000000000E+00 -0.00000000000E+00 -0.47258640818E+03  0.47258811464E+03  0.12700000000E+01 0.  1.
         25    2    1    2    0    0  0.00000000000E+00  0.00000000000E+00 -0.46437406891E+03  0.48089807350E+03  0.12497872307E+03 0.  0.
    9000005    1    3    3    0    0  0.32183519832E+02  0.52289961835E+02 -0.18766148721E+03  0.19745341942E+03  0.10000000000E+01 0.  0.
    9000005    1    3    3    0    0 -0.32183519832E+02 -0.52289961835E+02 -0.27671258170E+03  0.28344465408E+03  0.10000000000E+01 0.  0.
<mgrwt>
<rscale>  0 0.12497872E+03</rscale>
<asrwt>0</asrwt>
<pdfrwt beam="2">  1        4 0.72713221E-01 0.12497872E+03</pdfrwt>
<pdfrwt beam="1">  1       -4 0.12710776E-02 0.12497872E+03</pdfrwt>
<totfact> 0.57404388E+03</totfact>
</mgrwt>
</event>
<event>
 5    1  0.3225662E-002  0.1249969E+03  0.7818608E-02  0.1235074E+00
          4   -1    0    0  501    0  0.00000000000E+00  0.00000000000E+00  0.11602447536E+03  0.11603142584E+03  0.12700000000E+01 0.  1.
         -4   -1    0    0    0  501 -0.00000000000E+00 -0.00000000000E+00 -0.33645834994E+02  0.33669795254E+02  0.12700000000E+01 0.  1.
         25    2    1    2    0    0  0.00000000000E+00  0.00000000000E+00  0.82378640369E+02  0.14970122110E+03  0.12499686080E+03 0.  0.
    9000005    1    3    3    0    0 -0.47723534611E+02 -0.16990492916E+02 -0.26325361154E+01  0.50736011390E+02  0.10000000000E+01 0.  0.
    9000005    1    3    3    0    0  0.47723534611E+02  0.16990492916E+02  0.85011176484E+02  0.98965209708E+02  0.10000000000E+01 0.  0.
<mgrwt>
<rscale>  0 0.12499686E+03</rscale>
<asrwt>0</asrwt>
<pdfrwt beam="1">  1        4 0.17852297E-01 0.12499686E+03</pdfrwt>
<pdfrwt beam="2">  1       -4 0.51786599E-02 0.12499686E+03</pdfrwt>
<totfact> 0.99370308E+03</totfact>
</mgrwt>
</event>
<event>
 4    1  0.3225662E-002  0.1249285E+03  0.7818608E-02  0.1235181E+00
         -4   -1    0    0    0  501 -0.00000000000E+00  0.00000000000E+00  0.21111077363E+02  0.21149243188E+02  0.12700000000E+01 0.  1.
          4   -1    0    0  501    0  0.00000000000E+00 -0.00000000000E+00 -0.18461422349E+03  0.18461859174E+03  0.12700000000E+01 0.  1.
    9000005    1    1    2    0    0  0.29108893920E+02 -0.33442667488E+02 -0.15420537049E+03  0.16045571352E+03  0.10000000000E+01 0.  0.
    9000005    1    1    2    0    0 -0.29108893920E+02  0.33442667488E+02 -0.92977756342E+01  0.45312121400E+02  0.10000000000E+01 0.  0.
<mgrwt>
<rscale>  0 0.12492847E+03</rscale>
<asrwt>0</asrwt>
<pdfrwt beam="2">  1        4 0.28405459E-01 0.12492847E+03</pdfrwt>
<pdfrwt beam="1">  1       -4 0.32511300E-02 0.12492847E+03</pdfrwt>
<totfact> 0.89314550E+03</totfact>
</mgrwt>
</event>
<event>
 5    1  0.3225662E-002  0.1250064E+03  0.7818608E-02  0.1235059E+00
          4   -1    0    0  501    0  0.00000000000E+00  0.00000000000E+00  0.19339447955E+02  0.19381102838E+02  0.12700000000E+01 0.  1.
         -4   -1    0    0    0  501 -0.00000000000E+00 -0.00000000000E+00 -0.20174316084E+03  0.20174715821E+03  0.12700000000E+01 0.  1.
         25    2    1    2    0    0  0.00000000000E+00  0.00000000000E+00 -0.18240371288E+03  0.22112826104E+03  0.12500637328E+03 0.  0.
    9000005    1    3    3    0    0 -0.62220167664E+02 -0.37253782190E+00 -0.10154072175E+03  0.11909242723E+03  0.10000000000E+01 0.  0.
    9000005    1    3    3    0    0  0.62220167664E+02  0.37253782190E+00 -0.80862991129E+02  0.10203583382E+03  0.10000000000E+01 0.  0.
<mgrwt>
<rscale>  0 0.12500637E+03</rscale>
<asrwt>0</asrwt>
<pdfrwt beam="1">  1        4 0.29788115E-02 0.12500637E+03</pdfrwt>
<pdfrwt beam="2">  1       -4 0.31040920E-01 0.12500637E+03</pdfrwt>
<totfact> 0.86677793E+03</totfact>
</mgrwt>
</event>
<event>
 5    1  0.3225662E-002  0.1250001E+03  0.7818608E-02  0.1235069E+00
         -4   -1    0    0    0  501 -0.00000000000E+00  0.00000000000E+00  0.38702922650E+01  0.40733355149E+01  0.12700000000E+01 0. -1.
          4   -1    0    0  501    0  0.00000000000E+00 -0.00000000000E+00 -0.98329052259E+03  0.98329134274E+03  0.12700000000E+01 0. -1.
         25    2    1    2    0    0  0.00000000000E+00  0.00000000000E+00 -0.97942023033E+03  0.98736467826E+03  0.12500008121E+03 0.  0.
    9000005    1    3    3    0    0  0.53866601753E+02 -0.24772495433E+02 -0.33372554360E+03  0.33895283708E+03  0.10000000000E+01 0.  0.
    9000005    1    3    3    0    0 -0.53866601753E+02  0.24772495433E+02 -0.64569468673E+03  0.64841184118E+03  0.10000000000E+01 0.  0.
<mgrwt>
<rscale>  0 0.12500008E+03</rscale>
<asrwt>0</asrwt>
<pdfrwt beam="2">  1        4 0.15129095E+00 0.12500008E+03</pdfrwt>
<pdfrwt beam="1">  1       -4 0.61111216E-03 0.12500008E+03</pdfrwt>
<totfact> 0.31025372E+03</totfact>
</mgrwt>
</event>
<event>
 5    1  0.3225662E-002  0.1249981E+03  0.7818608E-02  0.1235072E+00
          4   -1    0    0  501    0  0.00000000000E+00  0.00000000000E+00  0.70241497347E+02  0.70252977514E+02  0.12700000000E+01 0.  1.
         -4   -1    0    0    0  501 -0.00000000000E+00 -0.00000000000E+00 -0.55586785077E+02  0.55601291129E+02  0.12700000000E+01 0.  1.
         25    2    1    2    0    0  0.00000000000E+00  0.00000000000E+00  0.14654712269E+02  0.12585426864E+03  0.12499814536E+03 0.  0.
    9000005    1    3    3    0    0  0.39500687087E+02  0.32309419160E+02  0.43642816350E+02  0.67155776116E+02  0.10000000000E+01 0.  0.
    9000005    1    3    3    0    0 -0.39500687087E+02 -0.32309419160E+02 -0.28988104081E+02  0.58698492527E+02  0.10000000000E+01 0.  0.
<mgrwt>
<rscale>  0 0.12499815E+03</rscale>
<asrwt>0</asrwt>
<pdfrwt beam="1">  1        4 0.10808383E-01 0.12499815E+03</pdfrwt>
<pdfrwt beam="2">  1       -4 0.85538120E-02 0.12499815E+03</pdfrwt>
<totfact> 0.10434590E+04</totfact>
</mgrwt>
</event>
<event>
 4    1  0.3225662E-002  0.1210597E+03  0.7818608E-02  0.1241359E+00
          4   -1    0    0  501    0  0.00000000000E+00  0.00000000000E+00  0.39077518348E+01  0.41089444389E+01  0.12700000000E+01 0.  1.
         -4   -1    0    0    0  501 -0.00000000000E+00 -0.00000000000E+00 -0.91385686661E+03  0.91385774908E+03  0.12700000000E+01 0.  1.
    9000005    1    1    2    0    0  0.42946761229E+02  0.35506911705E+02 -0.63404644013E+03  0.63649120443E+03  0.10000000000E+01 0.  0.
    9000005    1    1    2    0    0 -0.42946761229E+02 -0.35506911705E+02 -0.27590267465E+03  0.28147548909E+03  0.10000000000E+01 0.  0.
<mgrwt>
<rscale>  0 0.12105973E+03</rscale>
<asrwt>0</asrwt>
<pdfrwt beam="1">  1        4 0.61673755E-03 0.12105973E+03</pdfrwt>
<pdfrwt beam="2">  1       -4 0.14060874E+00 0.12105973E+03</pdfrwt>
<totfact> 0.36532417E+03</totfact>
</mgrwt>
</event>
<event>
 5    1  0.3225662E-002  0.1250020E+03  0.7818608E-02  0.1235066E+00
          4   -1    0    0  501    0  0.00000000000E+00  0.00000000000E+00  0.12167425364E+02  0.12233525248E+02  0.12700000000E+01 0. -1.
         -4   -1    0    0    0  501 -0.00000000000E+00 -0.00000000000E+00 -0.32011460884E+03  0.32011712809E+03  0.12700000000E+01 0. -1.
         25    2    1    2    0    0  0.00000000000E+00  0.00000000000E+00 -0.30794718348E+03  0.33235065333E+03  0.12500195582E+03 0.  0.
    9000005    1    3    3    0    0 -0.49876672335E+02  0.18430590555E+02 -0.24126866610E+03  0.24706059652E+03  0.10000000000E+01 0.  0.
    9000005    1    3    3    0    0  0.49876672335E+02 -0.18430590555E+02 -0.66678517375E+02  0.85290056811E+02  0.10000000000E+01 0.  0.
<mgrwt>
<rscale>  0 0.12500196E+03</rscale>
<asrwt>0</asrwt>
<pdfrwt beam="1">  1        4 0.18771902E-02 0.12500196E+03</pdfrwt>
<pdfrwt beam="2">  1       -4 0.49253673E-01 0.12500196E+03</pdfrwt>
<totfact> 0.71707760E+03</totfact>
</mgrwt>
</event>
<event>
 5    1  0.3225662E-002  0.1250015E+03  0.7818608E-02  0.1235067E+00
         -4   -1    0    0    0  501 -0.00000000000E+00  0.00000000000E+00  0.20769748208E+01  0.24344864769E+01  0.12700000000E+01 0.  1.
          4   -1    0    0  501    0  0.00000000000E+00 -0.00000000000E+00 -0.17313833196E+04  0.17313837854E+04  0.12700000000E+01 0.  1.
         25    2    1    2    0    0  0.00000000000E+00  0.00000000000E+00 -0.17293063448E+04  0.17338182719E+04  0.12500146297E+03 0.  0.
    9000005    1    3    3    0    0  0.26318320432E+02  0.53706771131E+02 -0.61334639766E+03  0.61625633853E+03  0.10000000000E+01 0.  0.
    9000005    1    3    3    0    0 -0.26318320432E+02 -0.53706771131E+02 -0.11159599471E+04  0.11175619333E+04  0.10000000000E+01 0.  0.
<mgrwt>
<rscale>  0 0.12500146E+03</rscale>
<asrwt>0</asrwt>
<pdfrwt beam="2">  1        4 0.26639314E+00 0.12500146E+03</pdfrwt>
<pdfrwt beam="1">  1       -4 0.34707270E-03 0.12500146E+03</pdfrwt>
<totfact> 0.13750847E+03</totfact>
</mgrwt>
</event>
<event>
 5    1  0.3225662E-002  0.1250069E+03  0.7818608E-02  0.1235059E+00
         -4   -1    0    0    0  501 -0.00000000000E+00  0.00000000000E+00  0.23487688147E+04  0.23487691580E+04  0.12700000000E+01 0.  1.
          4   -1    0    0  501    0  0.00000000000E+00 -0.00000000000E+00 -0.14204681305E+01  0.19054211371E+01  0.12700000000E+01 0.  1.
         25    2    1    2    0    0  0.00000000000E+00  0.00000000000E+00  0.23473483466E+04  0.23506745792E+04  0.12500686819E+03 0.  0.
    9000005    1    3    3    0    0  0.47881347802E+02 -0.36160801131E+01  0.19258439550E+04  0.19264427421E+04  0.10000000000E+01 0.  0.
    9000005    1    3    3    0    0 -0.47881347802E+02  0.36160801131E+01  0.42150439152E+03  0.42423183705E+03  0.10000000000E+01 0.  0.
<mgrwt>
<rscale>  0 0.12500687E+03</rscale>
<asrwt>0</asrwt>
<pdfrwt beam="2">  1        4 0.25586368E-03 0.12500687E+03</pdfrwt>
<pdfrwt beam="1">  1       -4 0.36138690E+00 0.12500687E+03</pdfrwt>
<totfact> 0.59499712E+02</totfact>
</mgrwt>
</event>
<event>
 5    1  0.3225662E-002  0.1250001E+03  0.7818608E-02  0.1235069E+00
         -4   -1    0    0    0  501 -0.00000000000E+00  0.00000000000E+00  0.14133485747E+04  0.14133491453E+04  0.12700000000E+01 0. -1.
          4   -1    0    0  501    0  0.00000000000E+00 -0.00000000000E+00 -0.26173378721E+01  0.29091850297E+01  0.12700000000E+01 0. -1.
         25    2    1    2    0    0  0.00000000000E+00  0.00000000000E+00  0.14107312368E+04  0.14162583303E+04  0.12500014261E+03 0.  0.
    9000005    1    3    3    0    0  0.49832874406E+02  0.36487147021E+01  0.11306020849E+04  0.11317061027E+04  0.10000000000E+01 0.  0.
    9000005    1    3    3    0    0 -0.49832874406E+02 -0.36487147021E+01  0.28012915190E+03  0.28455222761E+03  0.10000000000E+01 0.  0.
<mgrwt>
<rscale>  0 0.12500014E+03</rscale>
<asrwt>0</asrwt>
<pdfrwt beam="2">  1        4 0.42516195E-03 0.12500014E+03</pdfrwt>
<pdfrwt beam="1">  1       -4 0.21746027E+00 0.12500014E+03</pdfrwt>
<totfact> 0.19634698E+03</totfact>
</mgrwt>
</event>
<event>
 5    1  0.3225662E-002  0.1250033E+03  0.7818608E-02  0.1235064E+00
         -4   -1    0    0    0  501 -0.00000000000E+00  0.00000000000E+00  0.25534088086E+02  0.25565651848E+02  0.12700000000E+01 0.  1.
          4   -1    0    0  501    0  0.00000000000E+00 -0.00000000000E+00 -0.15286125461E+03  0.15286653022E+03  0.12700000000E+01 0.  1.
         25    2    1    2    0    0  0.00000000000E+00  0.00000000000E+00 -0.12732716653E+03  0.17843218207E+03  0.12500334500E+03 0.  0.
    9000005    1    3    3    0    0  0.15387595011E+02  0.60418049038E+02 -0.69776594480E+02  0.93578265997E+02  0.10000000000E+01 0.  0.
    9000005    1    3    3    0    0 -0.15387595011E+02 -0.60418049038E+02 -0.57550572047E+02  0.84853916072E+02  0.10000000000E+01 0.  0.
<mgrwt>
<rscale>  0 0.12500335E+03</rscale>
<asrwt>0</asrwt>
<pdfrwt beam="2">  1        4 0.23519949E-01 0.12500335E+03</pdfrwt>
<pdfrwt beam="1">  1       -4 0.39311551E-02 0.12500335E+03</pdfrwt>
<totfact> 0.93892936E+03</totfact>
</mgrwt>
</event>
<event>
 5    1  0.3225662E-002  0.1249954E+03  0.7818608E-02  0.1235077E+00
         -4   -1    0    0    0  501 -0.00000000000E+00  0.00000000000E+00  0.67122271837E+03  0.67122391983E+03  0.12700000000E+01 0.  1.
          4   -1    0    0  501    0  0.00000000000E+00 -0.00000000000E+00 -0.57486592094E+01  0.58872729430E+01  0.12700000000E+01 0.  1.
         25    2    1    2    0    0  0.00000000000E+00  0.00000000000E+00  0.66547405916E+03  0.67711119277E+03  0.12499537578E+03 0.  0.
    9000005    1    3    3    0    0  0.14716836160E+02  0.28977741200E+02  0.62186281839E+03  0.62271234101E+03  0.10000000000E+01 0.  0.
    9000005    1    3    3    0    0 -0.14716836160E+02 -0.28977741200E+02  0.43611240763E+02  0.54398851757E+02  0.10000000000E+01 0.  0.
<mgrwt>
<rscale>  0 0.12499538E+03</rscale>
<asrwt>0</asrwt>
<pdfrwt beam="2">  1        4 0.89516522E-03 0.12499538E+03</pdfrwt>
<pdfrwt beam="1">  1       -4 0.10327566E+00 0.12499538E+03</pdfrwt>
<totfact> 0.44327352E+03</totfact>
</mgrwt>
</event>
<event>
 5    1  0.3225662E-002  0.1250010E+03  0.7818608E-02  0.1235068E+00
         -4   -1    0    0    0  501 -0.00000000000E+00  0.00000000000E+00  0.17744201387E+03  0.17744655868E+03  0.12700000000E+01 0.  1.
          4   -1    0    0  501    0  0.00000000000E+00 -0.00000000000E+00 -0.21991429376E+02  0.22028069956E+02  0.12700000000E+01 0.  1.
         25    2    1    2    0    0  0.00000000000E+00  0.00000000000E+00  0.15545058450E+03  0.19947462864E+03  0.12500097299E+03 0.  0.
    9000005    1    3    3    0    0 -0.44107221437E+02  0.43421903765E+02  0.91489996248E+02  0.11046414859E+03  0.10000000000E+01 0.  0.
    9000005    1    3    3    0    0  0.44107221437E+02 -0.43421903765E+02  0.63960588250E+02  0.89010480050E+02  0.10000000000E+01 0.  0.
<mgrwt>
<rscale>  0 0.12500097E+03</rscale>
<asrwt>0</asrwt>
<pdfrwt beam="2">  1        4 0.33864648E-02 0.12500097E+03</pdfrwt>
<pdfrwt beam="1">  1       -4 0.27301940E-01 0.12500097E+03</pdfrwt>
<totfact> 0.90222224E+03</totfact>
</mgrwt>
</event>
<event>
 5    1  0.3225662E-002  0.1249949E+03  0.7818608E-02  0.1235077E+00
         -4   -1    0    0    0  501 -0.00000000000E+00  0.00000000000E+00  0.14859481718E+03  0.14860024425E+03  0.12700000000E+01 0.  1.
          4   -1    0    0  501    0  0.00000000000E+00 -0.00000000000E+00 -0.26264543075E+02  0.26295230041E+02  0.12700000000E+01 0.  1.
         25    2    1    2    0    0  0.00000000000E+00  0.00000000000E+00  0.12233027410E+03  0.17489547429E+03  0.12499492376E+03 0.  0.
    9000005    1    3    3    0    0  0.31092429737E+02 -0.32764241788E+02  0.74378353968E+00  0.45186147666E+02  0.10000000000E+01 0.  0.
    9000005    1    3    3    0    0 -0.31092429737E+02  0.32764241788E+02  0.12158649056E+03  0.12970932663E+03  0.10000000000E+01 0.  0.
<mgrwt>
<rscale>  0 0.12499492E+03</rscale>
<asrwt>0</asrwt>
<pdfrwt beam="2">  1        4 0.40434769E-02 0.12499492E+03</pdfrwt>
<pdfrwt beam="1">  1       -4 0.22863519E-01 0.12499492E+03</pdfrwt>
<totfact> 0.94554755E+03</totfact>
</mgrwt>
</event>
<event>
 5    1  0.3225662E-002  0.1250001E+03  0.7818608E-02  0.1235069E+00
         -4   -1    0    0    0  501 -0.00000000000E+00  0.00000000000E+00  0.21431657376E+03  0.21432033662E+03  0.12700000000E+01 0.  1.
          4   -1    0    0  501    0  0.00000000000E+00 -0.00000000000E+00 -0.18200506067E+02  0.18244761470E+02  0.12700000000E+01 0.  1.
         25    2    1    2    0    0  0.00000000000E+00  0.00000000000E+00  0.19611606770E+03  0.23256509809E+03  0.12500005137E+03 0.  0.
    9000005    1    3    3    0    0  0.48744242280E+02  0.38923117085E+02  0.10507962047E+03  0.12220366949E+03  0.10000000000E+01 0.  0.
    9000005    1    3    3    0    0 -0.48744242280E+02 -0.38923117085E+02  0.91036447227E+02  0.11036142860E+03  0.10000000000E+01 0.  0.
<mgrwt>
<rscale>  0 0.12500005E+03</rscale>
<asrwt>0</asrwt>
<pdfrwt beam="2">  1        4 0.28037715E-02 0.12500005E+03</pdfrwt>
<pdfrwt beam="1">  1       -4 0.32975475E-01 0.12500005E+03</pdfrwt>
<totfact> 0.84917175E+03</totfact>
</mgrwt>
</event>
<event>
 5    1  0.3225662E-002  0.1249994E+03  0.7818608E-02  0.1235070E+00
         -4   -1    0    0    0  501 -0.00000000000E+00  0.00000000000E+00  0.74916857496E+02  0.74927621323E+02  0.12700000000E+01 0. -1.
          4   -1    0    0  501    0  0.00000000000E+00 -0.00000000000E+00 -0.52118430332E+02  0.52133901449E+02  0.12700000000E+01 0. -1.
         25    2    1    2    0    0  0.00000000000E+00  0.00000000000E+00  0.22798427164E+02  0.12706152277E+03  0.12499944915E+03 0.  0.
    9000005    1    3    3    0    0  0.44254976833E+02 -0.34228705430E+01 -0.33315047134E+02  0.55507759663E+02  0.10000000000E+01 0.  0.
    9000005    1    3    3    0    0 -0.44254976833E+02  0.34228705430E+01  0.56113474298E+02  0.71553763109E+02  0.10000000000E+01 0.  0.
<mgrwt>
<rscale>  0 0.12499945E+03</rscale>
<asrwt>0</asrwt>
<pdfrwt beam="2">  1        4 0.80202382E-02 0.12499945E+03</pdfrwt>
<pdfrwt beam="1">  1       -4 0.11527688E-01 0.12499945E+03</pdfrwt>
<totfact> 0.10407939E+04</totfact>
</mgrwt>
</event>
<event>
 5    1  0.3225662E-002  0.1250042E+03  0.7818608E-02  0.1235063E+00
          4   -1    0    0  501    0  0.00000000000E+00  0.00000000000E+00  0.29065895805E+03  0.29066173259E+03  0.12700000000E+01 0. -1.
         -4   -1    0    0    0  501 -0.00000000000E+00 -0.00000000000E+00 -0.13407343291E+02  0.13467358840E+02  0.12700000000E+01 0. -1.
         25    2    1    2    0    0  0.00000000000E+00  0.00000000000E+00  0.27725161475E+03  0.30412909143E+03  0.12500418541E+03 0.  0.
    9000005    1    3    3    0    0 -0.23218958020E+02 -0.19020654733E+02  0.27198630123E+03  0.27363927601E+03  0.10000000000E+01 0.  0.
    9000005    1    3    3    0    0  0.23218958020E+02  0.19020654733E+02  0.52653135282E+01  0.30489815424E+02  0.10000000000E+01 0.  0.
<mgrwt>
<rscale>  0 0.12500419E+03</rscale>
<asrwt>0</asrwt>
<pdfrwt beam="1">  1        4 0.44721588E-01 0.12500419E+03</pdfrwt>
<pdfrwt beam="2">  1       -4 0.20674984E-02 0.12500419E+03</pdfrwt>
<totfact> 0.75076823E+03</totfact>
</mgrwt>
</event>
<event>
 5    1  0.3225662E-002  0.1249892E+03  0.7818608E-02  0.1235086E+00
         -4   -1    0    0    0  501 -0.00000000000E+00  0.00000000000E+00  0.95322154359E+02  0.95330614241E+02  0.12700000000E+01 0. -1.
          4   -1    0    0  501    0  0.00000000000E+00 -0.00000000000E+00 -0.40952242241E+02  0.40971929959E+02  0.12700000000E+01 0. -1.
         25    2    1    2    0    0  0.00000000000E+00  0.00000000000E+00  0.54369912118E+02  0.13630254420E+03  0.12498918438E+03 0.  0.
    9000005    1    3    3    0    0  0.46718723817E+02  0.28436012384E+01  0.72330800881E+02  0.86159561159E+02  0.10000000000E+01 0.  0.
    9000005    1    3    3    0    0 -0.46718723817E+02 -0.28436012384E+01 -0.17960888763E+02  0.50142983041E+02  0.10000000000E+01 0.  0.
<mgrwt>
<rscale>  0 0.12498918E+03</rscale>
<asrwt>0</asrwt>
<pdfrwt beam="2">  1        4 0.63025102E-02 0.12498918E+03</pdfrwt>
<pdfrwt beam="1">  1       -4 0.14667112E-01 0.12498918E+03</pdfrwt>
<totfact> 0.10213180E+04</totfact>
</mgrwt>
</event>
<event>
 5    1  0.3225662E-002  0.1250002E+03  0.7818608E-02  0.1235069E+00
          4   -1    0    0  501    0  0.00000000000E+00  0.00000000000E+00  0.51587725065E+03  0.51587881391E+03  0.12700000000E+01 0. -1.
         -4   -1    0    0    0  501 -0.00000000000E+00 -0.00000000000E+00 -0.75172439226E+01  0.76237691592E+01  0.12700000000E+01 0. -1.
         25    2    1    2    0    0  0.00000000000E+00  0.00000000000E+00  0.50836000673E+03  0.52350258307E+03  0.12500023215E+03 0.  0.
    9000005    1    3    3    0    0 -0.44163061772E+02 -0.43615781711E+02  0.28454008417E+03  0.29123319168E+03  0.10000000000E+01 0.  0.
    9000005    1    3    3    0    0  0.44163061772E+02  0.43615781711E+02  0.22381992256E+03  0.23226939138E+03  0.10000000000E+01 0.  0.
<mgrwt>
<rscale>  0 0.12500023E+03</rscale>
<asrwt>0</asrwt>
<pdfrwt beam="1">  1        4 0.79374020E-01 0.12500023E+03</pdfrwt>
<pdfrwt beam="2">  1       -4 0.11648139E-02 0.12500023E+03</pdfrwt>
<totfact> 0.54085612E+03</totfact>
</mgrwt>
</event>
<event>
 5    1  0.3225662E-002  0.1249995E+03  0.7818608E-02  0.1235070E+00
         -4   -1    0    0    0  501 -0.00000000000E+00  0.00000000000E+00  0.12461835094E+03  0.12462482213E+03  0.12700000000E+01 0. -1.
          4   -1    0    0  501    0  0.00000000000E+00 -0.00000000000E+00 -0.31325301895E+02  0.31351035690E+02  0.12700000000E+01 0. -1.
         25    2    1    2    0    0  0.00000000000E+00  0.00000000000E+00  0.93293049047E+02  0.15597585782E+03  0.12499950089E+03 0.  0.
    9000005    1    3    3    0    0 -0.12020778564E+02 -0.12181448922E+02  0.12164335896E+03  0.12284540526E+03  0.10000000000E+01 0.  0.
    9000005    1    3    3    0    0  0.12020778564E+02  0.12181448922E+02 -0.28350309909E+02  0.33130452564E+02  0.10000000000E+01 0.  0.
<mgrwt>
<rscale>  0 0.12499950E+03</rscale>
<asrwt>0</asrwt>
<pdfrwt beam="2">  1        4 0.48217546E-02 0.12499950E+03</pdfrwt>
<pdfrwt beam="1">  1       -4 0.19174531E-01 0.12499950E+03</pdfrwt>
<totfact> 0.98125367E+03</totfact>
</mgrwt>
</event>
<event>
 5    1  0.3225662E-002  0.1250031E+03  0.7818608E-02  0.1235064E+00
         -4   -1    0    0    0  501 -0.00000000000E+00  0.00000000000E+00  0.17302443968E+02  0.17348990382E+02  0.12700000000E+01 0.  1.
          4   -1    0    0  501    0  0.00000000000E+00 -0.00000000000E+00 -0.22542245208E+03  0.22542602956E+03  0.12700000000E+01 0.  1.
         25    2    1    2    0    0  0.00000000000E+00  0.00000000000E+00 -0.20812000811E+03  0.24277501994E+03  0.12500309008E+03 0.  0.
    9000005    1    3    3    0    0  0.60299685859E+01  0.59707080352E+02 -0.13793077933E+03  0.15042338865E+03  0.10000000000E+01 0.  0.
    9000005    1    3    3    0    0 -0.60299685859E+01 -0.59707080352E+02 -0.70189228783E+02  0.92351631293E+02  0.10000000000E+01 0.  0.
<mgrwt>
<rscale>  0 0.12500309E+03</rscale>
<asrwt>0</asrwt>
<pdfrwt beam="2">  1        4 0.34684231E-01 0.12500309E+03</pdfrwt>
<pdfrwt beam="1">  1       -4 0.26657703E-02 0.12500309E+03</pdfrwt>
<totfact> 0.83380064E+03</totfact>
</mgrwt>
</event>
<event>
 5    1  0.3225662E-002  0.1250019E+03  0.7818608E-02  0.1235066E+00
         -4   -1    0    0    0  501 -0.00000000000E+00  0.00000000000E+00  0.38877515503E+03  0.38877722936E+03  0.12700000000E+01 0. -1.
          4   -1    0    0  501    0  0.00000000000E+00 -0.00000000000E+00 -0.10005639154E+02  0.10085916661E+02  0.12700000000E+01 0. -1.
         25    2    1    2    0    0  0.00000000000E+00  0.00000000000E+00  0.37876951587E+03  0.39886314602E+03  0.12500185237E+03 0.  0.
    9000005    1    3    3    0    0  0.61881415285E+02 -0.14653372744E-01  0.16155725694E+03  0.17300594511E+03  0.10000000000E+01 0.  0.
    9000005    1    3    3    0    0 -0.61881415285E+02  0.14653372744E-01  0.21721225893E+03  0.22585720091E+03  0.10000000000E+01 0.  0.
<mgrwt>
<rscale>  0 0.12500185E+03</rscale>
<asrwt>0</asrwt>
<pdfrwt beam="2">  1        4 0.15456638E-02 0.12500185E+03</pdfrwt>
<pdfrwt beam="1">  1       -4 0.59817898E-01 0.12500185E+03</pdfrwt>
<totfact> 0.64660862E+03</totfact>
</mgrwt>
</event>
<event>
 5    1  0.3225662E-002  0.1249933E+03  0.7818608E-02  0.1235080E+00
          4   -1    0    0  501    0  0.00000000000E+00  0.00000000000E+00  0.44611828477E+02  0.44629901860E+02  0.12700000000E+01 0.  1.
         -4   -1    0    0    0  501 -0.00000000000E+00 -0.00000000000E+00 -0.87511021810E+02  0.87520236735E+02  0.12700000000E+01 0.  1.
         25    2    1    2    0    0  0.00000000000E+00  0.00000000000E+00 -0.42899193333E+02  0.13215013860E+03  0.12499327319E+03 0.  0.
    9000005    1    3    3    0    0 -0.24160110922E+02  0.36817728872E+02 -0.68322906631E+02  0.81291301439E+02  0.10000000000E+01 0.  0.
    9000005    1    3    3    0    0  0.24160110922E+02 -0.36817728872E+02  0.25423713298E+02  0.50858837157E+02  0.10000000000E+01 0.  0.
<mgrwt>
<rscale>  0 0.12499327E+03</rscale>
<asrwt>0</asrwt>
<pdfrwt beam="1">  1        4 0.68654573E-02 0.12499327E+03</pdfrwt>
<pdfrwt beam="2">  1       -4 0.13465333E-01 0.12499327E+03</pdfrwt>
<totfact> 0.10300058E+04</totfact>
</mgrwt>
</event>
<event>
 5    1  0.3225662E-002  0.1250040E+03  0.7818608E-02  0.1235063E+00
         -4   -1    0    0    0  501 -0.00000000000E+00  0.00000000000E+00  0.18956275263E+03  0.18956700685E+03  0.12700000000E+01 0.  1.
          4   -1    0    0  501    0  0.00000000000E+00 -0.00000000000E+00 -0.20583882189E+02  0.20623023686E+02  0.12700000000E+01 0.  1.
         25    2    1    2    0    0  0.00000000000E+00  0.00000000000E+00  0.16897887044E+03  0.21019003054E+03  0.12500396106E+03 0.  0.
    9000005    1    3    3    0    0 -0.40616968440E+02  0.28827453818E+02  0.14795757117E+03  0.15611919513E+03  0.10000000000E+01 0.  0.
    9000005    1    3    3    0    0  0.40616968440E+02 -0.28827453818E+02  0.21021299270E+02  0.54070835410E+02  0.10000000000E+01 0.  0.
<mgrwt>
<rscale>  0 0.12500396E+03</rscale>
<asrwt>0</asrwt>
<pdfrwt beam="2">  1        4 0.31700893E-02 0.12500396E+03</pdfrwt>
<pdfrwt beam="1">  1       -4 0.29166838E-01 0.12500396E+03</pdfrwt>
<totfact> 0.88437024E+03</totfact>
</mgrwt>
</event>
<event>
 5    1  0.3225662E-002  0.1249673E+03  0.7818608E-02  0.1235120E+00
          4   -1    0    0  501    0  0.00000000000E+00  0.00000000000E+00  0.15489779064E+03  0.15490299689E+03  0.12700000000E+01 0.  1.
         -4   -1    0    0    0  501 -0.00000000000E+00 -0.00000000000E+00 -0.25183409140E+02  0.25215411873E+02  0.12700000000E+01 0.  1.
         25    2    1    2    0    0  0.00000000000E+00  0.00000000000E+00  0.12971438150E+03  0.18011840876E+03  0.12496727734E+03 0.  0.
    9000005    1    3    3    0    0 -0.59398557035E+02  0.79104226781E+01  0.39380306416E+02  0.71711727759E+02  0.10000000000E+01 0.  0.
    9000005    1    3    3    0    0  0.59398557035E+02 -0.79104226781E+01  0.90334075082E+02  0.10840668100E+03  0.10000000000E+01 0.  0.
<mgrwt>
<rscale>  0 0.12496728E+03</rscale>
<asrwt>0</asrwt>
<pdfrwt beam="1">  1        4 0.23833292E-01 0.12496728E+03</pdfrwt>
<pdfrwt beam="2">  1       -4 0.38772328E-02 0.12496728E+03</pdfrwt>
<totfact> 0.93664397E+03</totfact>
</mgrwt>
</event>
<event>
 5    1  0.3225662E-002  0.1250001E+03  0.7818608E-02  0.1235069E+00
         -4   -1    0    0    0  501 -0.00000000000E+00  0.00000000000E+00  0.20695399470E+02  0.20734330451E+02  0.12700000000E+01 0.  1.
          4   -1    0    0  501    0  0.00000000000E+00 -0.00000000000E+00 -0.18853168625E+03  0.18853596373E+03  0.12700000000E+01 0.  1.
         25    2    1    2    0    0  0.00000000000E+00  0.00000000000E+00 -0.16783628678E+03  0.20927029418E+03  0.12500014747E+03 0.  0.
    9000005    1    3    3    0    0 -0.22939577321E+02 -0.35383029815E+01 -0.18105574216E+03  0.18254020260E+03  0.10000000000E+01 0.  0.
    9000005    1    3    3    0    0  0.22939577321E+02  0.35383029815E+01  0.13219455379E+02  0.26730091585E+02  0.10000000000E+01 0.  0.
<mgrwt>
<rscale>  0 0.12500015E+03</rscale>
<asrwt>0</asrwt>
<pdfrwt beam="2">  1        4 0.29008197E-01 0.12500015E+03</pdfrwt>
<pdfrwt beam="1">  1       -4 0.31872315E-02 0.12500015E+03</pdfrwt>
<totfact> 0.88594899E+03</totfact>
</mgrwt>
</event>
<event>
 5    1  0.3225662E-002  0.1249985E+03  0.7818608E-02  0.1235072E+00
         -4   -1    0    0    0  501 -0.00000000000E+00  0.00000000000E+00  0.12711056047E+02  0.12774343265E+02  0.12700000000E+01 0. -1.
          4   -1    0    0  501    0  0.00000000000E+00 -0.00000000000E+00 -0.30647601455E+03  0.30647864590E+03  0.12700000000E+01 0. -1.
         25    2    1    2    0    0  0.00000000000E+00  0.00000000000E+00 -0.29376495850E+03  0.31925298916E+03  0.12499848098E+03 0.  0.
    9000005    1    3    3    0    0 -0.13733680127E+02  0.48772166738E+02 -0.53464909123E+02  0.73667053189E+02  0.10000000000E+01 0.  0.
    9000005    1    3    3    0    0  0.13733680127E+02 -0.48772166738E+02 -0.24030004938E+03  0.24558593597E+03  0.10000000000E+01 0.  0.
<mgrwt>
<rscale>  0 0.12499848E+03</rscale>
<asrwt>0</asrwt>
<pdfrwt beam="2">  1        4 0.47155221E-01 0.12499848E+03</pdfrwt>
<pdfrwt beam="1">  1       -4 0.19606180E-02 0.12499848E+03</pdfrwt>
<totfact> 0.73247529E+03</totfact>
</mgrwt>
</event>
<event>
 5    1  0.3225662E-002  0.1250000E+03  0.7818608E-02  0.1235069E+00
          4   -1    0    0  501    0  0.00000000000E+00  0.00000000000E+00  0.76964237407E+02  0.76974714937E+02  0.12700000000E+01 0.  1.
         -4   -1    0    0    0  501 -0.00000000000E+00 -0.00000000000E+00 -0.50732230831E+02  0.50748124548E+02  0.12700000000E+01 0.  1.
         25    2    1    2    0    0  0.00000000000E+00  0.00000000000E+00  0.26232006576E+02  0.12772283948E+03  0.12500002223E+03 0.  0.
    9000005    1    3    3    0    0  0.45226992805E+02  0.42529497173E+02  0.20413875816E+02  0.65360273361E+02  0.10000000000E+01 0.  0.
    9000005    1    3    3    0    0 -0.45226992805E+02 -0.42529497173E+02  0.58181307603E+01  0.62362566124E+02  0.10000000000E+01 0.  0.
<mgrwt>
<rscale>  0 0.12500002E+03</rscale>
<asrwt>0</asrwt>
<pdfrwt beam="1">  1        4 0.11842680E-01 0.12500002E+03</pdfrwt>
<pdfrwt beam="2">  1       -4 0.78069872E-02 0.12500002E+03</pdfrwt>
<totfact> 0.10393472E+04</totfact>
</mgrwt>
</event>
<event>
 5    1  0.3225662E-002  0.1249952E+03  0.7818608E-02  0.1235077E+00
         -4   -1    0    0    0  501 -0.00000000000E+00  0.00000000000E+00  0.33381179249E+02  0.33405329336E+02  0.12700000000E+01 0. -1.
          4   -1    0    0  501    0  0.00000000000E+00 -0.00000000000E+00 -0.11694070332E+03  0.11694759935E+03  0.12700000000E+01 0. -1.
         25    2    1    2    0    0  0.00000000000E+00  0.00000000000E+00 -0.83559524071E+02  0.15035292868E+03  0.12499523631E+03 0.  0.
    9000005    1    3    3    0    0 -0.32732856625E+02 -0.24714958480E+02  0.14929920162E+02  0.43659725052E+02  0.10000000000E+01 0.  0.
    9000005    1    3    3    0    0  0.32732856625E+02  0.24714958480E+02 -0.98489444234E+02  0.10669320363E+03  0.10000000000E+01 0.  0.
<mgrwt>
<rscale>  0 0.12499524E+03</rscale>
<asrwt>0</asrwt>
<pdfrwt beam="2">  1        4 0.17993265E-01 0.12499524E+03</pdfrwt>
<pdfrwt beam="1">  1       -4 0.51379543E-02 0.12499524E+03</pdfrwt>
<totfact> 0.99244033E+03</totfact>
</mgrwt>
</event>
<event>
 5    1  0.3225662E-002  0.1249996E+03  0.7818608E-02  0.1235070E+00
          4   -1    0    0  501    0  0.00000000000E+00  0.00000000000E+00  0.14852369230E+03  0.14852912198E+03  0.12700000000E+01 0.  1.
         -4   -1    0    0    0  501 -0.00000000000E+00 -0.00000000000E+00 -0.26279082673E+02  0.26309752681E+02  0.12700000000E+01 0.  1.
         25    2    1    2    0    0  0.00000000000E+00  0.00000000000E+00  0.12224460963E+03  0.17483887466E+03  0.12499955003E+03 0.  0.
    9000005    1    3    3    0    0 -0.26150544795E+02  0.47233313552E+02  0.10514043336E+03  0.11819622511E+03  0.10000000000E+01 0.  0.
    9000005    1    3    3    0    0  0.26150544795E+02 -0.47233313552E+02  0.17104176266E+02  0.56642649549E+02  0.10000000000E+01 0.  0.
<mgrwt>
<rscale>  0 0.12499955E+03</rscale>
<asrwt>0</asrwt>
<pdfrwt beam="1">  1        4 0.22852576E-01 0.12499955E+03</pdfrwt>
<pdfrwt beam="2">  1       -4 0.40457127E-02 0.12499955E+03</pdfrwt>
<totfact> 0.94555313E+03</totfact>
</mgrwt>
</event>
<event>
 5    1  0.3225662E-002  0.1249945E+03  0.7818608E-02  0.1235078E+00
          4   -1    0    0  501    0  0.00000000000E+00  0.00000000000E+00  0.29644138559E+02  0.29671330454E+02  0.12700000000E+01 0. -1.
         -4   -1    0    0    0  501 -0.00000000000E+00 -0.00000000000E+00 -0.13166920444E+03  0.13167532912E+03  0.12700000000E+01 0. -1.
         25    2    1    2    0    0  0.00000000000E+00  0.00000000000E+00 -0.10202506588E+03  0.16134665957E+03  0.12499452183E+03 0.  0.
    9000005    1    3    3    0    0  0.34941022649E+02 -0.36424737476E+02 -0.98568201673E+02  0.11074442173E+03  0.10000000000E+01 0.  0.
    9000005    1    3    3    0    0 -0.34941022649E+02  0.36424737476E+02 -0.34568642081E+01  0.50602237837E+02  0.10000000000E+01 0.  0.
<mgrwt>
<rscale>  0 0.12499452E+03</rscale>
<asrwt>0</asrwt>
<pdfrwt beam="1">  1        4 0.45631996E-02 0.12499452E+03</pdfrwt>
<pdfrwt beam="2">  1       -4 0.20259363E-01 0.12499452E+03</pdfrwt>
<totfact> 0.97095740E+03</totfact>
</mgrwt>
</event>
<event>
 5    1  0.3225662E-002  0.1249979E+03  0.7818608E-02  0.1235073E+00
         -4   -1    0    0    0  501 -0.00000000000E+00  0.00000000000E+00  0.47817491923E+02  0.47834354117E+02  0.12700000000E+01 0. -1.
          4   -1    0    0  501    0  0.00000000000E+00 -0.00000000000E+00 -0.81651851774E+02  0.81661727867E+02  0.12700000000E+01 0. -1.
         25    2    1    2    0    0  0.00000000000E+00  0.00000000000E+00 -0.33834359852E+02  0.12949608198E+03  0.12499788535E+03 0.  0.
    9000005    1    3    3    0    0  0.55641769794E+01 -0.61919370945E+02 -0.10352813741E+02  0.63032922478E+02  0.10000000000E+01 0.  0.
    9000005    1    3    3    0    0 -0.55641769794E+01  0.61919370945E+02 -0.23481546111E+02  0.66463159506E+02  0.10000000000E+01 0.  0.
<mgrwt>
<rscale>  0 0.12499789E+03</rscale>
<asrwt>0</asrwt>
<pdfrwt beam="2">  1        4 0.12563880E-01 0.12499789E+03</pdfrwt>
<pdfrwt beam="1">  1       -4 0.73585940E-02 0.12499789E+03</pdfrwt>
<totfact> 0.10355793E+04</totfact>
</mgrwt>
</event>
<event>
 5    1  0.3225662E-002  0.1250007E+03  0.7818608E-02  0.1235068E+00
          4   -1    0    0  501    0  0.00000000000E+00  0.00000000000E+00  0.55867402162E+01  0.57292727499E+01  0.12700000000E+01 0.  1.
         -4   -1    0    0    0  501 -0.00000000000E+00 -0.00000000000E+00 -0.69025822475E+03  0.69025939308E+03  0.12700000000E+01 0.  1.
         25    2    1    2    0    0  0.00000000000E+00  0.00000000000E+00 -0.68467148454E+03  0.69598866583E+03  0.12500072492E+03 0.  0.
    9000005    1    3    3    0    0 -0.13656129504E+02 -0.42704278188E+02 -0.99947562563E+02  0.10954752627E+03  0.10000000000E+01 0.  0.
    9000005    1    3    3    0    0  0.13656129504E+02  0.42704278188E+02 -0.58472392198E+03  0.58644113957E+03  0.10000000000E+01 0.  0.
<mgrwt>
<rscale>  0 0.12500072E+03</rscale>
<asrwt>0</asrwt>
<pdfrwt beam="1">  1        4 0.87055295E-03 0.12500072E+03</pdfrwt>
<pdfrwt beam="2">  1       -4 0.10620456E+00 0.12500072E+03</pdfrwt>
<totfact> 0.43298623E+03</totfact>
</mgrwt>
</event>
<event>
 4    1  0.3225662E-002  0.1246914E+03  0.7818608E-02  0.1235552E+00
         -4   -1    0    0    0  501 -0.00000000000E+00  0.00000000000E+00  0.49923300949E+02  0.49939452116E+02  0.12700000000E+01 0.  1.
          4   -1    0    0  501    0  0.00000000000E+00 -0.00000000000E+00 -0.77825264671E+02  0.77835626297E+02  0.12700000000E+01 0.  1.
    9000005    1    1    2    0    0 -0.46803024087E+02  0.27085540733E+02 -0.45731471340E+02  0.70827375014E+02  0.10000000000E+01 0.  0.
    9000005    1    1    2    0    0  0.46803024087E+02 -0.27085540733E+02  0.17829507618E+02  0.56947703399E+02  0.10000000000E+01 0.  0.
<mgrwt>
<rscale>  0 0.12469142E+03</rscale>
<asrwt>0</asrwt>
<pdfrwt beam="2">  1        4 0.11975157E-01 0.12469142E+03</pdfrwt>
<pdfrwt beam="1">  1       -4 0.76825473E-02 0.12469142E+03</pdfrwt>
<totfact> 0.10465075E+04</totfact>
</mgrwt>
</event>
<event>
 5    1  0.3225662E-002  0.1250014E+03  0.7818608E-02  0.1235067E+00
         -4   -1    0    0    0  501 -0.00000000000E+00  0.00000000000E+00  0.28360438483E+02  0.28388859980E+02  0.12700000000E+01 0.  1.
          4   -1    0    0  501    0  0.00000000000E+00 -0.00000000000E+00 -0.13763862473E+03  0.13764448379E+03  0.12700000000E+01 0.  1.
         25    2    1    2    0    0  0.00000000000E+00  0.00000000000E+00 -0.10927818625E+03  0.16603334377E+03  0.12500139701E+03 0.  0.
    9000005    1    3    3    0    0 -0.60451138199E+02 -0.15741361554E+02 -0.52260542804E+02  0.81451181129E+02  0.10000000000E+01 0.  0.
    9000005    1    3    3    0    0  0.60451138199E+02  0.15741361554E+02 -0.57017643444E+02  0.84582162641E+02  0.10000000000E+01 0.  0.
<mgrwt>
<rscale>  0 0.12500140E+03</rscale>
<asrwt>0</asrwt>
<pdfrwt beam="2">  1        4 0.21177810E-01 0.12500140E+03</pdfrwt>
<pdfrwt beam="1">  1       -4 0.43657814E-02 0.12500140E+03</pdfrwt>
<totfact> 0.96189032E+03</totfact>
</mgrwt>
</event>
<event>
 5    1  0.3225662E-002  0.1250032E+03  0.7818608E-02  0.1235064E+00
          4   -1    0    0  501    0  0.00000000000E+00  0.00000000000E+00  0.30754488380E+03  0.30754750601E+03  0.12700000000E+01 0.  1.
         -4   -1    0    0    0  501 -0.00000000000E+00 -0.00000000000E+00 -0.12667622680E+02  0.12731125809E+02  0.12700000000E+01 0.  1.
         25    2    1    2    0    0  0.00000000000E+00  0.00000000000E+00  0.29487726112E+03  0.32027863181E+03  0.12500321145E+03 0.  0.
    9000005    1    3    3    0    0  0.88262325607E+00 -0.50469993539E+02  0.53039293078E+02  0.73226811223E+02  0.10000000000E+01 0.  0.
    9000005    1    3    3    0    0 -0.88262325607E+00  0.50469993539E+02  0.24183796804E+03  0.24705182059E+03  0.10000000000E+01 0.  0.
<mgrwt>
<rscale>  0 0.12500321E+03</rscale>
<asrwt>0</asrwt>
<pdfrwt beam="1">  1        4 0.47319682E-01 0.12500321E+03</pdfrwt>
<pdfrwt beam="2">  1       -4 0.19539517E-02 0.12500321E+03</pdfrwt>
<totfact> 0.73117792E+03</totfact>
</mgrwt>
</event>
<event>
 5    1  0.3225662E-002  0.1250031E+03  0.7818608E-02  0.1235064E+00
          4   -1    0    0  501    0  0.00000000000E+00  0.00000000000E+00  0.71496505196E+02  0.71507783879E+02  0.12700000000E+01 0.  1.
         -4   -1    0    0    0  501 -0.00000000000E+00 -0.00000000000E+00 -0.54615310892E+02  0.54630074902E+02  0.12700000000E+01 0.  1.
         25    2    1    2    0    0  0.00000000000E+00  0.00000000000E+00  0.16881194304E+02  0.12613785878E+03  0.12500313875E+03 0.  0.
    9000005    1    3    3    0    0 -0.85253340701E+01 -0.92110635427E+01 -0.53335399378E+02  0.54801367131E+02  0.10000000000E+01 0.  0.
    9000005    1    3    3    0    0  0.85253340701E+01  0.92110635427E+01  0.70216593682E+02  0.71336491650E+02  0.10000000000E+01 0.  0.
<mgrwt>
<rscale>  0 0.12500314E+03</rscale>
<asrwt>0</asrwt>
<pdfrwt beam="1">  1        4 0.11001466E-01 0.12500314E+03</pdfrwt>
<pdfrwt beam="2">  1       -4 0.84043588E-02 0.12500314E+03</pdfrwt>
<totfact> 0.10427199E+04</totfact>
</mgrwt>
</event>
<event>
 5    1  0.3225662E-002  0.1249983E+03  0.7818608E-02  0.1235072E+00
          4   -1    0    0  501    0  0.00000000000E+00  0.00000000000E+00  0.65691346099E+02  0.65703621303E+02  0.12700000000E+01 0.  1.
         -4   -1    0    0    0  501 -0.00000000000E+00 -0.00000000000E+00 -0.59437416562E+02  0.59450983066E+02  0.12700000000E+01 0.  1.
         25    2    1    2    0    0  0.00000000000E+00  0.00000000000E+00  0.62539295371E+01  0.12515460437E+03  0.12499825343E+03 0.  0.
    9000005    1    3    3    0    0  0.26586310986E+02 -0.47128212667E+02  0.34426912398E+02  0.64141349053E+02  0.10000000000E+01 0.  0.
    9000005    1    3    3    0    0 -0.26586310986E+02  0.47128212667E+02 -0.28172982861E+02  0.61013255317E+02  0.10000000000E+01 0.  0.
<mgrwt>
<rscale>  0 0.12499825E+03</rscale>
<asrwt>0</asrwt>
<pdfrwt beam="1">  1        4 0.10108349E-01 0.12499825E+03</pdfrwt>
<pdfrwt beam="2">  1       -4 0.91462058E-02 0.12499825E+03</pdfrwt>
<totfact> 0.10449918E+04</totfact>
</mgrwt>
</event>
<event>
 5    1  0.3225662E-002  0.1250014E+03  0.7818608E-02  0.1235067E+00
          4   -1    0    0  501    0  0.00000000000E+00  0.00000000000E+00  0.65519972846E+03  0.65520095931E+03  0.12700000000E+01 0.  1.
         -4   -1    0    0    0  501 -0.00000000000E+00 -0.00000000000E+00 -0.58931765395E+01  0.60284682736E+01  0.12700000000E+01 0.  1.
         25    2    1    2    0    0  0.00000000000E+00  0.00000000000E+00  0.64930655192E+03  0.66122942758E+03  0.12500143011E+03 0.  0.
    9000005    1    3    3    0    0  0.16252211733E+02  0.59187497894E+02  0.26250234014E+03  0.26958444479E+03  0.10000000000E+01 0.  0.
    9000005    1    3    3    0    0 -0.16252211733E+02 -0.59187497894E+02  0.38680421178E+03  0.39164498279E+03  0.10000000000E+01 0.  0.
<mgrwt>
<rscale>  0 0.12500143E+03</rscale>
<asrwt>0</asrwt>
<pdfrwt beam="1">  1        4 0.10081045E+00 0.12500143E+03</pdfrwt>
<pdfrwt beam="2">  1       -4 0.91714441E-03 0.12500143E+03</pdfrwt>
<totfact> 0.45212331E+03</totfact>
</mgrwt>
</event>
<event>
 5    1  0.3225662E-002  0.1250024E+03  0.7818608E-02  0.1235066E+00
         -4   -1    0    0    0  501 -0.00000000000E+00  0.00000000000E+00  0.75738494919E+02  0.75749141992E+02  0.12700000000E+01 0. -1.
          4   -1    0    0  501    0  0.00000000000E+00 -0.00000000000E+00 -0.51555381163E+02  0.51571021192E+02  0.12700000000E+01 0. -1.
         25    2    1    2    0    0  0.00000000000E+00  0.00000000000E+00  0.24183113756E+02  0.12732016318E+03  0.12500240383E+03 0.  0.
    9000005    1    3    3    0    0  0.41983147079E+02  0.12733532471E+02  0.57421501189E+02  0.72270023431E+02  0.10000000000E+01 0.  0.
    9000005    1    3    3    0    0 -0.41983147079E+02 -0.12733532471E+02 -0.33238387433E+02  0.55050139754E+02  0.10000000000E+01 0.  0.
<mgrwt>
<rscale>  0 0.12500240E+03</rscale>
<asrwt>0</asrwt>
<pdfrwt beam="2">  1        4 0.79336192E-02 0.12500240E+03</pdfrwt>
<pdfrwt beam="1">  1       -4 0.11654098E-01 0.12500240E+03</pdfrwt>
<totfact> 0.10401633E+04</totfact>
</mgrwt>
</event>
<event>
 5    1  0.3225662E-002  0.1250055E+03  0.7818608E-02  0.1235061E+00
         -4   -1    0    0    0  501 -0.00000000000E+00  0.00000000000E+00  0.15029717256E+02  0.15083278848E+02  0.12700000000E+01 0. -1.
          4   -1    0    0  501    0  0.00000000000E+00 -0.00000000000E+00 -0.25940710929E+03  0.25941021809E+03  0.12700000000E+01 0. -1.
         25    2    1    2    0    0  0.00000000000E+00  0.00000000000E+00 -0.24437739204E+03  0.27449349694E+03  0.12500548038E+03 0.  0.
    9000005    1    3    3    0    0  0.89010597203E+01  0.45570808561E+02 -0.30338419522E+02  0.55473842089E+02  0.10000000000E+01 0.  0.
    9000005    1    3    3    0    0 -0.89010597203E+01 -0.45570808561E+02 -0.21403897251E+03  0.21901965485E+03  0.10000000000E+01 0.  0.
<mgrwt>
<rscale>  0 0.12500548E+03</rscale>
<asrwt>0</asrwt>
<pdfrwt beam="2">  1        4 0.39913142E-01 0.12500548E+03</pdfrwt>
<pdfrwt beam="1">  1       -4 0.23166236E-02 0.12500548E+03</pdfrwt>
<totfact> 0.78904324E+03</totfact>
</mgrwt>
</event>
<event>
 5    1  0.3225662E-002  0.1250081E+03  0.7818608E-02  0.1235057E+00
          4   -1    0    0  501    0  0.00000000000E+00  0.00000000000E+00  0.75288397081E+01  0.76352031637E+01  0.12700000000E+01 0.  1.
         -4   -1    0    0    0  501 -0.00000000000E+00 -0.00000000000E+00 -0.51515879517E+03  0.51516036061E+03  0.12700000000E+01 0.  1.
         25    2    1    2    0    0  0.00000000000E+00  0.00000000000E+00 -0.50762995546E+03  0.52279556377E+03  0.12500811900E+03 0.  0.
    9000005    1    3    3    0    0 -0.43531333530E+02 -0.44841411908E+02 -0.25311227003E+03  0.26071545881E+03  0.10000000000E+01 0.  0.
    9000005    1    3    3    0    0  0.43531333530E+02  0.44841411908E+02 -0.25451768543E+03  0.26208010496E+03  0.10000000000E+01 0.  0.
<mgrwt>
<rscale>  0 0.12500812E+03</rscale>
<asrwt>0</asrwt>
<pdfrwt beam="1">  1        4 0.11665857E-02 0.12500812E+03</pdfrwt>
<pdfrwt beam="2">  1       -4 0.79263474E-01 0.12500812E+03</pdfrwt>
<totfact> 0.54128450E+03</totfact>
</mgrwt>
</event>
<event>
 5    1  0.3225662E-002  0.1250032E+03  0.7818608E-02  0.1235064E+00
         -4   -1    0    0    0  501 -0.00000000000E+00  0.00000000000E+00  0.11389147414E+04  0.11389154495E+04  0.12700000000E+01 0. -1.
          4   -1    0    0  501    0  0.00000000000E+00 -0.00000000000E+00 -0.33116814290E+01  0.35468484443E+01  0.12700000000E+01 0. -1.
         25    2    1    2    0    0  0.00000000000E+00  0.00000000000E+00  0.11356030600E+04  0.11424622980E+04  0.12500316947E+03 0.  0.
    9000005    1    3    3    0    0 -0.59227473982E+02 -0.19866335190E+02  0.58332018898E+03  0.58665663537E+03  0.10000000000E+01 0.  0.
    9000005    1    3    3    0    0  0.59227473982E+02  0.19866335190E+02  0.55228287103E+03  0.55580566260E+03  0.10000000000E+01 0.  0.
<mgrwt>
<rscale>  0 0.12500317E+03</rscale>
<asrwt>0</asrwt>
<pdfrwt beam="2">  1        4 0.52763331E-03 0.12500317E+03</pdfrwt>
<pdfrwt beam="1">  1       -4 0.17523592E+00 0.12500317E+03</pdfrwt>
<totfact> 0.26268465E+03</totfact>
</mgrwt>
</event>
<event>
 5    1  0.3225662E-002  0.1249967E+03  0.7818608E-02  0.1235074E+00
          4   -1    0    0  501    0  0.00000000000E+00  0.00000000000E+00  0.23561361464E+03  0.23561703738E+03  0.12700000000E+01 0.  1.
         -4   -1    0    0    0  501 -0.00000000000E+00 -0.00000000000E+00 -0.16550307187E+02  0.16598962858E+02  0.12700000000E+01 0.  1.
         25    2    1    2    0    0  0.00000000000E+00  0.00000000000E+00  0.21906330745E+03  0.25221600023E+03  0.12499671237E+03 0.  0.
    9000005    1    3    3    0    0 -0.57959845387E+02  0.23357714475E+02  0.11022485208E+03  0.12671008058E+03  0.10000000000E+01 0.  0.
    9000005    1    3    3    0    0  0.57959845387E+02 -0.23357714475E+02  0.10883845537E+03  0.12550591966E+03  0.10000000000E+01 0.  0.
<mgrwt>
<rscale>  0 0.12499671E+03</rscale>
<asrwt>0</asrwt>
<pdfrwt beam="1">  1        4 0.36252255E-01 0.12499671E+03</pdfrwt>
<pdfrwt beam="2">  1       -4 0.25502071E-02 0.12499671E+03</pdfrwt>
<totfact> 0.82017002E+03</totfact>
</mgrwt>
</event>
<event>
 5    1  0.3225662E-002  0.1250099E+03  0.7818608E-02  0.1235054E+00
          4   -1    0    0  501    0  0.00000000000E+00  0.00000000000E+00  0.23761590832E+02  0.23795505855E+02  0.12700000000E+01 0. -1.
         -4   -1    0    0    0  501 -0.00000000000E+00 -0.00000000000E+00 -0.16426586262E+03  0.16427077197E+03  0.12700000000E+01 0. -1.
         25    2    1    2    0    0  0.00000000000E+00  0.00000000000E+00 -0.14050427179E+03  0.18806627782E+03  0.12500989746E+03 0.  0.
    9000005    1    3    3    0    0  0.57495751700E+02  0.67578510359E+00 -0.33412475484E+02  0.66510237310E+02  0.10000000000E+01 0.  0.
    9000005    1    3    3    0    0 -0.57495751700E+02 -0.67578510359E+00 -0.10709179631E+03  0.12155604051E+03  0.10000000000E+01 0.  0.
<mgrwt>
<rscale>  0 0.12500990E+03</rscale>
<asrwt>0</asrwt>
<pdfrwt beam="1">  1        4 0.36586160E-02 0.12500990E+03</pdfrwt>
<pdfrwt beam="2">  1       -4 0.25274657E-01 0.12500990E+03</pdfrwt>
<totfact> 0.92164430E+03</totfact>
</mgrwt>
</event>
<event>
 5    1  0.3225662E-002  0.1250010E+03  0.7818608E-02  0.1235068E+00
         -4   -1    0    0    0  501 -0.00000000000E+00  0.00000000000E+00  0.10219958465E+03  0.10220747527E+03  0.12700000000E+01 0.  1.
          4   -1    0    0  501    0  0.00000000000E+00 -0.00000000000E+00 -0.38202502439E+02  0.38223606484E+02  0.12700000000E+01 0.  1.
         25    2    1    2    0    0  0.00000000000E+00  0.00000000000E+00  0.63997082208E+02  0.14043108176E+03  0.12500104877E+03 0.  0.
    9000005    1    3    3    0    0 -0.56793082535E+02 -0.11689562542E+02  0.58145622222E+01  0.58283009790E+02  0.10000000000E+01 0.  0.
    9000005    1    3    3    0    0  0.56793082535E+02  0.11689562542E+02  0.58182519986E+02  0.82148071969E+02  0.10000000000E+01 0.  0.
<mgrwt>
<rscale>  0 0.12500105E+03</rscale>
<asrwt>0</asrwt>
<pdfrwt beam="2">  1        4 0.58795384E-02 0.12500105E+03</pdfrwt>
<pdfrwt beam="1">  1       -4 0.15725243E-01 0.12500105E+03</pdfrwt>
<totfact> 0.10124420E+04</totfact>
</mgrwt>
</event>
<event>
 5    1  0.3225662E-002  0.1250154E+03  0.7818608E-02  0.1235045E+00
          4   -1    0    0  501    0  0.00000000000E+00  0.00000000000E+00  0.34547067870E+03  0.34547301305E+03  0.12700000000E+01 0. -1.
         -4   -1    0    0    0  501 -0.00000000000E+00 -0.00000000000E+00 -0.11271797332E+02  0.11343117520E+02  0.12700000000E+01 0. -1.
         25    2    1    2    0    0  0.00000000000E+00  0.00000000000E+00  0.33419888137E+03  0.35681613057E+03  0.12501543394E+03 0.  0.
    9000005    1    3    3    0    0  0.29816203726E+02  0.51222230168E+01  0.11005162239E+02  0.32208023367E+02  0.10000000000E+01 0.  0.
    9000005    1    3    3    0    0 -0.29816203726E+02 -0.51222230168E+01  0.32319371913E+03  0.32460810720E+03  0.10000000000E+01 0.  0.
<mgrwt>
<rscale>  0 0.12501543E+03</rscale>
<asrwt>0</asrwt>
<pdfrwt beam="1">  1        4 0.53154996E-01 0.12501543E+03</pdfrwt>
<pdfrwt beam="2">  1       -4 0.17397886E-02 0.12501543E+03</pdfrwt>
<totfact> 0.68957604E+03</totfact>
</mgrwt>
</event>
<event>
 5    1  0.3225662E-002  0.1249643E+03  0.7818608E-02  0.1235125E+00
          4   -1    0    0  501    0  0.00000000000E+00  0.00000000000E+00  0.32282042982E+03  0.32282292794E+03  0.12700000000E+01 0. -1.
         -4   -1    0    0    0  501 -0.00000000000E+00 -0.00000000000E+00 -0.12057570150E+02  0.12124268964E+02  0.12700000000E+01 0. -1.
         25    2    1    2    0    0  0.00000000000E+00  0.00000000000E+00  0.31076285967E+03  0.33494719691E+03  0.12496427397E+03 0.  0.
    9000005    1    3    3    0    0  0.53083780247E+02  0.30821057703E+02  0.18654636048E+03  0.19638831414E+03  0.10000000000E+01 0.  0.
    9000005    1    3    3    0    0 -0.53083780247E+02 -0.30821057703E+02  0.12421649919E+03  0.13855888277E+03  0.10000000000E+01 0.  0.
<mgrwt>
<rscale>  0 0.12496427E+03</rscale>
<asrwt>0</asrwt>
<pdfrwt beam="1">  1        4 0.49670006E-01 0.12496427E+03</pdfrwt>
<pdfrwt beam="2">  1       -4 0.18603336E-02 0.12496427E+03</pdfrwt>
<totfact> 0.71469458E+03</totfact>
</mgrwt>
</event>
<event>
 5    1  0.3225662E-002  0.1250018E+03  0.7818608E-02  0.1235066E+00
          4   -1    0    0  501    0  0.00000000000E+00  0.00000000000E+00  0.11122686112E+03  0.11123411138E+03  0.12700000000E+01 0. -1.
         -4   -1    0    0    0  501 -0.00000000000E+00 -0.00000000000E+00 -0.35100786323E+02  0.35123754078E+02  0.12700000000E+01 0. -1.
         25    2    1    2    0    0  0.00000000000E+00  0.00000000000E+00  0.76126074801E+02  0.14635786546E+03  0.12500178206E+03 0.  0.
    9000005    1    3    3    0    0  0.73642803835E+01  0.49265226877E+02  0.82247029030E+02  0.96160641580E+02  0.10000000000E+01 0.  0.
    9000005    1    3    3    0    0 -0.73642803835E+01 -0.49265226877E+02 -0.61209542288E+01  0.50197223882E+02  0.10000000000E+01 0.  0.
<mgrwt>
<rscale>  0 0.12500178E+03</rscale>
<asrwt>0</asrwt>
<pdfrwt beam="1">  1        4 0.17114149E-01 0.12500178E+03</pdfrwt>
<pdfrwt beam="2">  1       -4 0.54024455E-02 0.12500178E+03</pdfrwt>
<totfact> 0.10003071E+04</totfact>
</mgrwt>
</event>
<event>
 5    1  0.3225662E-002  0.1249999E+03  0.7818608E-02  0.1235069E+00
         -4   -1    0    0    0  501 -0.00000000000E+00  0.00000000000E+00  0.18576278033E+02  0.18619640318E+02  0.12700000000E+01 0. -1.
          4   -1    0    0  501    0  0.00000000000E+00 -0.00000000000E+00 -0.20999076327E+03  0.20999460364E+03  0.12700000000E+01 0. -1.
         25    2    1    2    0    0  0.00000000000E+00  0.00000000000E+00 -0.19141448524E+03  0.22861424396E+03  0.12499986953E+03 0.  0.
    9000005    1    3    3    0    0 -0.14385247595E+02 -0.42089107569E+02 -0.17598838964E+03  0.18152504403E+03  0.10000000000E+01 0.  0.
    9000005    1    3    3    0    0  0.14385247595E+02  0.42089107569E+02 -0.15426095602E+02  0.47089199928E+02  0.10000000000E+01 0.  0.
<mgrwt>
<rscale>  0 0.12499987E+03</rscale>
<asrwt>0</asrwt>
<pdfrwt beam="2">  1        4 0.32309901E-01 0.12499987E+03</pdfrwt>
<pdfrwt beam="1">  1       -4 0.28615201E-02 0.12499987E+03</pdfrwt>
<totfact> 0.85523086E+03</totfact>
</mgrwt>
</event>
<event>
 5    1  0.3225662E-002  0.1250012E+03  0.7818608E-02  0.1235067E+00
          4   -1    0    0  501    0  0.00000000000E+00  0.00000000000E+00  0.31545189768E+02  0.31570744330E+02  0.12700000000E+01 0. -1.
         -4   -1    0    0    0  501 -0.00000000000E+00 -0.00000000000E+00 -0.12375368500E+03  0.12376020141E+03  0.12700000000E+01 0. -1.
         25    2    1    2    0    0  0.00000000000E+00  0.00000000000E+00 -0.92208495235E+02  0.15533094574E+03  0.12500118443E+03 0.  0.
    9000005    1    3    3    0    0  0.10853521347E+02  0.55118510983E+02 -0.12085181295E+02  0.57470869017E+02  0.10000000000E+01 0.  0.
    9000005    1    3    3    0    0 -0.10853521347E+02 -0.55118510983E+02 -0.80123313940E+02  0.97860076718E+02  0.10000000000E+01 0.  0.
<mgrwt>
<rscale>  0 0.12500118E+03</rscale>
<asrwt>0</asrwt>
<pdfrwt beam="1">  1        4 0.48555732E-02 0.12500118E+03</pdfrwt>
<pdfrwt beam="2">  1       -4 0.19041495E-01 0.12500118E+03</pdfrwt>
<totfact> 0.98247952E+03</totfact>
</mgrwt>
</event>
<event>
 5    1  0.3225662E-002  0.1250052E+03  0.7818608E-02  0.1235061E+00
         -4   -1    0    0    0  501 -0.00000000000E+00  0.00000000000E+00  0.63343697740E+03  0.63343825053E+03  0.12700000000E+01 0. -1.
          4   -1    0    0  501    0  0.00000000000E+00 -0.00000000000E+00 -0.61005900325E+01  0.62313801637E+01  0.12700000000E+01 0. -1.
         25    2    1    2    0    0  0.00000000000E+00  0.00000000000E+00  0.62733638736E+03  0.63966963069E+03  0.12500517397E+03 0.  0.
    9000005    1    3    3    0    0  0.61325905831E+01  0.30998736824E+02  0.58956932007E+03  0.59041638994E+03  0.10000000000E+01 0.  0.
    9000005    1    3    3    0    0 -0.61325905831E+01 -0.30998736824E+02  0.37767067298E+02  0.49253240748E+02  0.10000000000E+01 0.  0.
<mgrwt>
<rscale>  0 0.12500517E+03</rscale>
<asrwt>0</asrwt>
<pdfrwt beam="2">  1        4 0.94871077E-03 0.12500517E+03</pdfrwt>
<pdfrwt beam="1">  1       -4 0.97462027E-01 0.12500517E+03</pdfrwt>
<totfact> 0.46450291E+03</totfact>
</mgrwt>
</event>
<event>
 5    1  0.3225662E-002  0.1250049E+03  0.7818608E-02  0.1235062E+00
         -4   -1    0    0    0  501 -0.00000000000E+00  0.00000000000E+00  0.14615362131E+02  0.14670436607E+02  0.12700000000E+01 0. -1.
          4   -1    0    0  501    0  0.00000000000E+00 -0.00000000000E+00 -0.26673203801E+03  0.26673506144E+03  0.12700000000E+01 0. -1.
         25    2    1    2    0    0  0.00000000000E+00  0.00000000000E+00 -0.25211667588E+03  0.28140549805E+03  0.12500494420E+03 0.  0.
    9000005    1    3    3    0    0  0.17056645117E+02 -0.56882054745E+02 -0.16988721608E+03  0.17996989605E+03  0.10000000000E+01 0.  0.
    9000005    1    3    3    0    0 -0.17056645117E+02  0.56882054745E+02 -0.82229459796E+02  0.10143560200E+03  0.10000000000E+01 0.  0.
<mgrwt>
<rscale>  0 0.12500494E+03</rscale>
<asrwt>0</asrwt>
<pdfrwt beam="2">  1        4 0.41040164E-01 0.12500494E+03</pdfrwt>
<pdfrwt beam="1">  1       -4 0.22529865E-02 0.12500494E+03</pdfrwt>
<totfact> 0.77983546E+03</totfact>
</mgrwt>
</event>
<event>
 5    1  0.3225662E-002  0.1250004E+03  0.7818608E-02  0.1235069E+00
         -4   -1    0    0    0  501 -0.00000000000E+00  0.00000000000E+00  0.17128143133E+01  0.21322834877E+01  0.12700000000E+01 0.  1.
          4   -1    0    0  501    0  0.00000000000E+00 -0.00000000000E+00 -0.20314013062E+04  0.20314017032E+04  0.12700000000E+01 0.  1.
         25    2    1    2    0    0  0.00000000000E+00  0.00000000000E+00 -0.20296884919E+04  0.20335339867E+04  0.12500040353E+03 0.  0.
    9000005    1    3    3    0    0  0.53503498545E+02 -0.27125431817E+02 -0.12998223177E+04  0.13012061600E+04  0.10000000000E+01 0.  0.
    9000005    1    3    3    0    0 -0.53503498545E+02  0.27125431817E+02 -0.72986617422E+03  0.73232782665E+03  0.10000000000E+01 0.  0.
<mgrwt>
<rscale>  0 0.12500040E+03</rscale>
<asrwt>0</asrwt>
<pdfrwt beam="2">  1        4 0.31255386E+00 0.12500040E+03</pdfrwt>
<pdfrwt beam="1">  1       -4 0.29580892E-03 0.12500040E+03</pdfrwt>
<totfact> 0.94298826E+02</totfact>
</mgrwt>
</event>
<event>
 5    1  0.3225662E-002  0.1249924E+03  0.7818608E-02  0.1235081E+00
          4   -1    0    0  501    0  0.00000000000E+00  0.00000000000E+00  0.60167017049E+02  0.60180419080E+02  0.12700000000E+01 0.  1.
         -4   -1    0    0    0  501 -0.00000000000E+00 -0.00000000000E+00 -0.64888752990E+02  0.64901179994E+02  0.12700000000E+01 0.  1.
         25    2    1    2    0    0  0.00000000000E+00  0.00000000000E+00 -0.47217359404E+01  0.12508159907E+03  0.12499244632E+03 0.  0.
    9000005    1    3    3    0    0 -0.39848467177E+02 -0.18691838609E+01  0.45771086211E+02  0.60723854601E+02  0.10000000000E+01 0.  0.
    9000005    1    3    3    0    0  0.39848467177E+02  0.18691838609E+01 -0.50492822152E+02  0.64357744472E+02  0.10000000000E+01 0.  0.
<mgrwt>
<rscale>  0 0.12499245E+03</rscale>
<asrwt>0</asrwt>
<pdfrwt beam="1">  1        4 0.92584510E-02 0.12499245E+03</pdfrwt>
<pdfrwt beam="2">  1       -4 0.99848719E-02 0.12499245E+03</pdfrwt>
<totfact> 0.10452875E+04</totfact>
</mgrwt>
</event>
<event>
 5    1  0.3225662E-002  0.1249984E+03  0.7818608E-02  0.1235072E+00
         -4   -1    0    0    0  501 -0.00000000000E+00  0.00000000000E+00  0.15956071887E+03  0.15956577298E+03  0.12700000000E+01 0. -1.
          4   -1    0    0  501    0  0.00000000000E+00 -0.00000000000E+00 -0.24458739423E+02  0.24491689083E+02  0.12700000000E+01 0. -1.
         25    2    1    2    0    0  0.00000000000E+00  0.00000000000E+00  0.13510197944E+03  0.18405746206E+03  0.12499841795E+03 0.  0.
    9000005    1    3    3    0    0 -0.81086967025E+01  0.37516037480E+02 -0.50639488269E+01  0.38727866042E+02  0.10000000000E+01 0.  0.
    9000005    1    3    3    0    0  0.81086967025E+01 -0.37516037480E+02  0.14016592827E+03  0.14532959602E+03  0.10000000000E+01 0.  0.
<mgrwt>
<rscale>  0 0.12499842E+03</rscale>
<asrwt>0</asrwt>
<pdfrwt beam="2">  1        4 0.37658062E-02 0.12499842E+03</pdfrwt>
<pdfrwt beam="1">  1       -4 0.24550727E-01 0.12499842E+03</pdfrwt>
<totfact> 0.92894996E+03</totfact>
</mgrwt>
</event>
<event>
 5    1  0.3225662E-002  0.1249980E+03  0.7818608E-02  0.1235072E+00
         -4   -1    0    0    0  501 -0.00000000000E+00  0.00000000000E+00  0.93807490633E+02  0.93816087101E+02  0.12700000000E+01 0.  1.
          4   -1    0    0  501    0  0.00000000000E+00 -0.00000000000E+00 -0.41619615950E+02  0.41638988122E+02  0.12700000000E+01 0.  1.
         25    2    1    2    0    0  0.00000000000E+00  0.00000000000E+00  0.52187874683E+02  0.13545507522E+03  0.12499801254E+03 0.  0.
    9000005    1    3    3    0    0 -0.37737027180E+02 -0.26674365161E+02 -0.19490858166E+02  0.50164713985E+02  0.10000000000E+01 0.  0.
    9000005    1    3    3    0    0  0.37737027180E+02  0.26674365161E+02  0.71678732849E+02  0.85290361237E+02  0.10000000000E+01 0.  0.
<mgrwt>
<rscale>  0 0.12499801E+03</rscale>
<asrwt>0</asrwt>
<pdfrwt beam="2">  1        4 0.64051694E-02 0.12499801E+03</pdfrwt>
<pdfrwt beam="1">  1       -4 0.14434073E-01 0.12499801E+03</pdfrwt>
<totfact> 0.10228946E+04</totfact>
</mgrwt>
</event>
<event>
 5    1  0.3225662E-002  0.1249860E+03  0.7818608E-02  0.1235091E+00
          4   -1    0    0  501    0  0.00000000000E+00  0.00000000000E+00  0.26022598856E+04  0.26022601955E+04  0.12700000000E+01 0.  1.
         -4   -1    0    0    0  501 -0.00000000000E+00 -0.00000000000E+00 -0.12317169317E+01  0.17691881188E+01  0.12700000000E+01 0.  1.
         25    2    1    2    0    0  0.00000000000E+00  0.00000000000E+00  0.26010281687E+04  0.26040293836E+04  0.12498598547E+03 0.  0.
    9000005    1    3    3    0    0 -0.39200987356E+01 -0.60804736660E+02  0.15890491733E+04  0.15902172362E+04  0.10000000000E+01 0.  0.
    9000005    1    3    3    0    0  0.39200987356E+01  0.60804736660E+02  0.10119789954E+04  0.10138121474E+04  0.10000000000E+01 0.  0.
<mgrwt>
<rscale>  0 0.12498599E+03</rscale>
<asrwt>0</asrwt>
<pdfrwt beam="1">  1        4 0.40038994E+00 0.12498599E+03</pdfrwt>
<pdfrwt beam="2">  1       -4 0.23086217E-03 0.12498599E+03</pdfrwt>
<totfact> 0.39038054E+02</totfact>
</mgrwt>
</event>
<event>
 5    1  0.3225662E-002  0.1249999E+03  0.7818608E-02  0.1235069E+00
         -4   -1    0    0    0  501 -0.00000000000E+00  0.00000000000E+00  0.15029254141E+04  0.15029259506E+04  0.12700000000E+01 0. -1.
          4   -1    0    0  501    0  0.00000000000E+00 -0.00000000000E+00 -0.24433848775E+01  0.27537301356E+01  0.12700000000E+01 0. -1.
         25    2    1    2    0    0  0.00000000000E+00  0.00000000000E+00  0.15004820292E+04  0.15056796808E+04  0.12499992489E+03 0.  0.
    9000005    1    3    3    0    0 -0.15135691023E+02 -0.44573318480E+02  0.25514899502E+03  0.25945689338E+03  0.10000000000E+01 0.  0.
    9000005    1    3    3    0    0  0.15135691023E+02  0.44573318480E+02  0.12453330342E+04  0.12462227874E+04  0.10000000000E+01 0.  0.
<mgrwt>
<rscale>  0 0.12499992E+03</rscale>
<asrwt>0</asrwt>
<pdfrwt beam="2">  1        4 0.39981968E-03 0.12499992E+03</pdfrwt>
<pdfrwt beam="1">  1       -4 0.23124302E+00 0.12499992E+03</pdfrwt>
<totfact> 0.17819096E+03</totfact>
</mgrwt>
</event>
<event>
 5    1  0.3225662E-002  0.1250044E+03  0.7818608E-02  0.1235062E+00
          4   -1    0    0  501    0  0.00000000000E+00  0.00000000000E+00  0.33478416100E+03  0.33478656985E+03  0.12700000000E+01 0.  1.
         -4   -1    0    0    0  501 -0.00000000000E+00 -0.00000000000E+00 -0.11631769534E+02  0.11700895798E+02  0.12700000000E+01 0.  1.
         25    2    1    2    0    0  0.00000000000E+00  0.00000000000E+00  0.32315239146E+03  0.34648746565E+03  0.12500438291E+03 0.  0.
    9000005    1    3    3    0    0  0.43137442533E+02 -0.34757927648E+01  0.36611119018E+02  0.56694745078E+02  0.10000000000E+01 0.  0.
    9000005    1    3    3    0    0 -0.43137442533E+02  0.34757927648E+01  0.28654127244E+03  0.28979272057E+03  0.10000000000E+01 0.  0.
<mgrwt>
<rscale>  0 0.12500438E+03</rscale>
<asrwt>0</asrwt>
<pdfrwt beam="1">  1        4 0.51510753E-01 0.12500438E+03</pdfrwt>
<pdfrwt beam="2">  1       -4 0.17950059E-02 0.12500438E+03</pdfrwt>
<totfact> 0.70105914E+03</totfact>
</mgrwt>
</event>
<event>
 5    1  0.3225662E-002  0.1249793E+03  0.7818608E-02  0.1235102E+00
         -4   -1    0    0    0  501 -0.00000000000E+00  0.00000000000E+00  0.42432611665E+03  0.42432801719E+03  0.12700000000E+01 0.  1.
          4   -1    0    0  501    0  0.00000000000E+00 -0.00000000000E+00 -0.91569772190E+01  0.92446271850E+01  0.12700000000E+01 0.  1.
         25    2    1    2    0    0  0.00000000000E+00  0.00000000000E+00  0.41516913943E+03  0.43357264438E+03  0.12497929274E+03 0.  0.
    9000005    1    3    3    0    0  0.27503032950E+02  0.56029272009E+02  0.19761428576E+03  0.20723923876E+03  0.10000000000E+01 0.  0.
    9000005    1    3    3    0    0 -0.27503032950E+02 -0.56029272009E+02  0.21755485367E+03  0.22633340562E+03  0.10000000000E+01 0.  0.
<mgrwt>
<rscale>  0 0.12497929E+03</rscale>
<asrwt>0</asrwt>
<pdfrwt beam="2">  1        4 0.14156543E-02 0.12497929E+03</pdfrwt>
<pdfrwt beam="1">  1       -4 0.65287824E-01 0.12497929E+03</pdfrwt>
<totfact> 0.61441528E+03</totfact>
</mgrwt>
</event>
<event>
 5    1  0.3225662E-002  0.1249980E+03  0.7818608E-02  0.1235072E+00
          4   -1    0    0  501    0  0.00000000000E+00  0.00000000000E+00  0.34943760680E+02  0.34966831576E+02  0.12700000000E+01 0. -1.
         -4   -1    0    0    0  501 -0.00000000000E+00 -0.00000000000E+00 -0.11171969281E+03  0.11172691109E+03  0.12700000000E+01 0. -1.
         25    2    1    2    0    0  0.00000000000E+00  0.00000000000E+00 -0.76775932130E+02  0.14669374267E+03  0.12499804152E+03 0.  0.
    9000005    1    3    3    0    0 -0.59446325792E+02 -0.18423077345E+01 -0.15879064792E+02  0.61566260619E+02  0.10000000000E+01 0.  0.
    9000005    1    3    3    0    0  0.59446325792E+02  0.18423077345E+01 -0.60896867338E+02  0.85127482046E+02  0.10000000000E+01 0.  0.
<mgrwt>
<rscale>  0 0.12499804E+03</rscale>
<asrwt>0</asrwt>
<pdfrwt beam="1">  1        4 0.53782932E-02 0.12499804E+03</pdfrwt>
<pdfrwt beam="2">  1       -4 0.17189975E-01 0.12499804E+03</pdfrwt>
<totfact> 0.99971290E+03</totfact>
</mgrwt>
</event>
<event>
 5    1  0.3225662E-002  0.1250017E+03  0.7818608E-02  0.1235067E+00
          4   -1    0    0  501    0  0.00000000000E+00  0.00000000000E+00  0.96033505744E+02  0.96041902967E+02  0.12700000000E+01 0. -1.
         -4   -1    0    0    0  501 -0.00000000000E+00 -0.00000000000E+00 -0.40656908823E+02  0.40676739483E+02  0.12700000000E+01 0. -1.
         25    2    1    2    0    0  0.00000000000E+00  0.00000000000E+00  0.55376596921E+02  0.13671864245E+03  0.12500167882E+03 0.  0.
    9000005    1    3    3    0    0  0.23882286127E+02 -0.59544708556E+01  0.90514138139E+02  0.93806335164E+02  0.10000000000E+01 0.  0.
    9000005    1    3    3    0    0 -0.23882286127E+02  0.59544708556E+01 -0.35137541218E+02  0.42912307286E+02  0.10000000000E+01 0.  0.
<mgrwt>
<rscale>  0 0.12500168E+03</rscale>
<asrwt>0</asrwt>
<pdfrwt beam="1">  1        4 0.14776557E-01 0.12500168E+03</pdfrwt>
<pdfrwt beam="2">  1       -4 0.62570804E-02 0.12500168E+03</pdfrwt>
<totfact> 0.10201586E+04</totfact>
</mgrwt>
</event>
<event>
 4    1  0.3225662E-002  0.1250663E+03  0.7818608E-02  0.1234966E+00
          4   -1    0    0  501    0  0.00000000000E+00  0.00000000000E+00  0.58490197183E+01  0.59853096549E+01  0.12700000000E+01 0. -1.
         -4   -1    0    0    0  501 -0.00000000000E+00 -0.00000000000E+00 -0.66071942078E+03  0.66072064134E+03  0.12700000000E+01 0. -1.
    9000005    1    1    2    0    0 -0.21849564005E+00 -0.91297423464E+01 -0.65717109415E+03  0.65723530560E+03  0.10000000000E+01 0.  0.
    9000005    1    1    2    0    0  0.21849564005E+00  0.91297423464E+01  0.23006930871E+01  0.94706454024E+01  0.10000000000E+01 0.  0.
<mgrwt>
<rscale>  0 0.12506631E+03</rscale>
<asrwt>0</asrwt>
<pdfrwt beam="1">  1        4 0.91042744E-03 0.12506631E+03</pdfrwt>
<pdfrwt beam="2">  1       -4 0.10165966E+00 0.12506631E+03</pdfrwt>
<totfact> 0.44838326E+03</totfact>
</mgrwt>
</event>
<event>
 5    1  0.3225662E-002  0.1249857E+03  0.7818608E-02  0.1235092E+00
         -4   -1    0    0    0  501 -0.00000000000E+00  0.00000000000E+00  0.10348149915E+02  0.10425790457E+02  0.12700000000E+01 0. -1.
          4   -1    0    0  501    0  0.00000000000E+00 -0.00000000000E+00 -0.37590728311E+03  0.37590942845E+03  0.12700000000E+01 0. -1.
         25    2    1    2    0    0  0.00000000000E+00  0.00000000000E+00 -0.36555913319E+03  0.38633521890E+03  0.12498568519E+03 0.  0.
    9000005    1    3    3    0    0 -0.52554796763E+02 -0.30306695858E+02 -0.13653237263E+03  0.14940746719E+03  0.10000000000E+01 0.  0.
    9000005    1    3    3    0    0  0.52554796763E+02  0.30306695858E+02 -0.22902676056E+03  0.23692775171E+03  0.10000000000E+01 0.  0.
<mgrwt>
<rscale>  0 0.12498569E+03</rscale>
<asrwt>0</asrwt>
<pdfrwt beam="2">  1        4 0.57838017E-01 0.12498569E+03</pdfrwt>
<pdfrwt beam="1">  1       -4 0.15981607E-02 0.12498569E+03</pdfrwt>
<totfact> 0.65924717E+03</totfact>
</mgrwt>
</event>
<event>
 5    1  0.3225662E-002  0.1250058E+03  0.7818608E-02  0.1235060E+00
          4   -1    0    0  501    0  0.00000000000E+00  0.00000000000E+00  0.20274078983E+02  0.20313817431E+02  0.12700000000E+01 0.  1.
         -4   -1    0    0    0  501 -0.00000000000E+00 -0.00000000000E+00 -0.19245961413E+03  0.19246380432E+03  0.12700000000E+01 0.  1.
         25    2    1    2    0    0  0.00000000000E+00  0.00000000000E+00 -0.17218553515E+03  0.21277762175E+03  0.12500583107E+03 0.  0.
    9000005    1    3    3    0    0  0.47259648594E+02 -0.21857943051E+02 -0.14491820873E+03  0.15399198447E+03  0.10000000000E+01 0.  0.
    9000005    1    3    3    0    0 -0.47259648594E+02  0.21857943051E+02 -0.27267326414E+02  0.58785637272E+02  0.10000000000E+01 0.  0.
<mgrwt>
<rscale>  0 0.12500583E+03</rscale>
<asrwt>0</asrwt>
<pdfrwt beam="1">  1        4 0.31224683E-02 0.12500583E+03</pdfrwt>
<pdfrwt beam="2">  1       -4 0.29612549E-01 0.12500583E+03</pdfrwt>
<totfact> 0.88012788E+03</totfact>
</mgrwt>
</event>
<event>
 5    1  0.3225662E-002  0.1249821E+03  0.7818608E-02  0.1235097E+00
          4   -1    0    0  501    0  0.00000000000E+00  0.00000000000E+00  0.80656717790E+02  0.80666715717E+02  0.12700000000E+01 0. -1.
         -4   -1    0    0    0  501 -0.00000000000E+00 -0.00000000000E+00 -0.48395342422E+02  0.48412003347E+02  0.12700000000E+01 0. -1.
         25    2    1    2    0    0  0.00000000000E+00  0.00000000000E+00  0.32261375368E+02  0.12907871906E+03  0.12498207621E+03 0.  0.
    9000005    1    3    3    0    0 -0.74818861582E+01 -0.61484013947E+02  0.76225003283E+01  0.62412860075E+02  0.10000000000E+01 0.  0.
    9000005    1    3    3    0    0  0.74818861582E+01  0.61484013947E+02  0.24638875040E+02  0.66665858989E+02  0.10000000000E+01 0.  0.
<mgrwt>
<rscale>  0 0.12498208E+03</rscale>
<asrwt>0</asrwt>
<pdfrwt beam="1">  1        4 0.12410776E-01 0.12498208E+03</pdfrwt>
<pdfrwt beam="2">  1       -4 0.74474881E-02 0.12498208E+03</pdfrwt>
<totfact> 0.10368450E+04</totfact>
</mgrwt>
</event>
<event>
 5    1  0.3225662E-002  0.1249941E+03  0.7818608E-02  0.1235078E+00
          4   -1    0    0  501    0  0.00000000000E+00  0.00000000000E+00  0.19692999997E+03  0.19693409504E+03  0.12700000000E+01 0. -1.
         -4   -1    0    0    0  501 -0.00000000000E+00 -0.00000000000E+00 -0.19809226286E+02  0.19849895367E+02  0.12700000000E+01 0. -1.
         25    2    1    2    0    0  0.00000000000E+00  0.00000000000E+00  0.17712077369E+03  0.21678399041E+03  0.12499411996E+03 0.  0.
    9000005    1    3    3    0    0  0.22022700048E+02 -0.54440444185E+02  0.51519808038E+02  0.78128432089E+02  0.10000000000E+01 0.  0.
    9000005    1    3    3    0    0 -0.22022700048E+02  0.54440444185E+02  0.12560096565E+03  0.13865555832E+03  0.10000000000E+01 0.  0.
<mgrwt>
<rscale>  0 0.12499412E+03</rscale>
<asrwt>0</asrwt>
<pdfrwt beam="1">  1        4 0.30300367E-01 0.12499412E+03</pdfrwt>
<pdfrwt beam="2">  1       -4 0.30510166E-02 0.12499412E+03</pdfrwt>
<totfact> 0.87391293E+03</totfact>
</mgrwt>
</event>
<event>
 5    1  0.3225662E-002  0.1249983E+03  0.7818608E-02  0.1235072E+00
         -4   -1    0    0    0  501 -0.00000000000E+00  0.00000000000E+00  0.43032755019E+01  0.44867672154E+01  0.12700000000E+01 0.  1.
          4   -1    0    0  501    0  0.00000000000E+00 -0.00000000000E+00 -0.88858161092E+03  0.88858251848E+03  0.12700000000E+01 0.  1.
         25    2    1    2    0    0  0.00000000000E+00  0.00000000000E+00 -0.88427833541E+03  0.89306928570E+03  0.12499829831E+03 0.  0.
    9000005    1    3    3    0    0  0.57498257118E+02 -0.46692667490E+01 -0.27047532486E+03  0.27656057742E+03  0.10000000000E+01 0.  0.
    9000005    1    3    3    0    0 -0.57498257118E+02  0.46692667490E+01 -0.61380301055E+03  0.61650870828E+03  0.10000000000E+01 0.  0.
<mgrwt>
<rscale>  0 0.12499830E+03</rscale>
<asrwt>0</asrwt>
<pdfrwt beam="2">  1        4 0.13671891E+00 0.12499830E+03</pdfrwt>
<pdfrwt beam="1">  1       -4 0.67622765E-03 0.12499830E+03</pdfrwt>
<totfact> 0.34427951E+03</totfact>
</mgrwt>
</event>
<event>
 5    1  0.3225662E-002  0.1250044E+03  0.7818608E-02  0.1235062E+00
          4   -1    0    0  501    0  0.00000000000E+00  0.00000000000E+00  0.21987297844E+03  0.21987664621E+03  0.12700000000E+01 0.  1.
         -4   -1    0    0    0  501 -0.00000000000E+00 -0.00000000000E+00 -0.17740686333E+02  0.17786085898E+02  0.12700000000E+01 0.  1.
         25    2    1    2    0    0  0.00000000000E+00  0.00000000000E+00  0.20213229211E+03  0.23766273211E+03  0.12500444280E+03 0.  0.
    9000005    1    3    3    0    0 -0.88889315974E+01  0.51616474817E+02  0.16588273629E+03  0.17395791381E+03  0.10000000000E+01 0.  0.
    9000005    1    3    3    0    0  0.88889315974E+01 -0.51616474817E+02  0.36249555818E+02  0.63704818299E+02  0.10000000000E+01 0.  0.
<mgrwt>
<rscale>  0 0.12500444E+03</rscale>
<asrwt>0</asrwt>
<pdfrwt beam="1">  1        4 0.33830385E-01 0.12500444E+03</pdfrwt>
<pdfrwt beam="2">  1       -4 0.27331109E-02 0.12500444E+03</pdfrwt>
<totfact> 0.84138363E+03</totfact>
</mgrwt>
</event>
<event>
 5    1  0.3225662E-002  0.1250000E+03  0.7818608E-02  0.1235069E+00
         -4   -1    0    0    0  501 -0.00000000000E+00  0.00000000000E+00  0.22735469758E+03  0.22735824465E+03  0.12700000000E+01 0.  1.
          4   -1    0    0  501    0  0.00000000000E+00 -0.00000000000E+00 -0.17154152507E+02  0.17201100204E+02  0.12700000000E+01 0.  1.
         25    2    1    2    0    0  0.00000000000E+00  0.00000000000E+00  0.21020054507E+03  0.24455934485E+03  0.12500001603E+03 0.  0.
    9000005    1    3    3    0    0 -0.41634935195E+02  0.43967871634E+02  0.13532191071E+03  0.14825539141E+03  0.10000000000E+01 0.  0.
    9000005    1    3    3    0    0  0.41634935195E+02 -0.43967871634E+02  0.74878634360E+02  0.96303953440E+02  0.10000000000E+01 0.  0.
<mgrwt>
<rscale>  0 0.12500002E+03</rscale>
<asrwt>0</asrwt>
<pdfrwt beam="2">  1        4 0.26429845E-02 0.12500002E+03</pdfrwt>
<pdfrwt beam="1">  1       -4 0.34981531E-01 0.12500002E+03</pdfrwt>
<totfact> 0.83122954E+03</totfact>
</mgrwt>
</event>
<event>
 5    1  0.3225662E-002  0.1250011E+03  0.7818608E-02  0.1235068E+00
          4   -1    0    0  501    0  0.00000000000E+00  0.00000000000E+00  0.32859152583E+02  0.32883686053E+02  0.12700000000E+01 0. -1.
         -4   -1    0    0    0  501 -0.00000000000E+00 -0.00000000000E+00 -0.11880840844E+03  0.11881519607E+03  0.12700000000E+01 0. -1.
         25    2    1    2    0    0  0.00000000000E+00  0.00000000000E+00 -0.85949255859E+02  0.15169888212E+03  0.12500110501E+03 0.  0.
    9000005    1    3    3    0    0  0.27594699983E+02 -0.14445068052E+02 -0.10872326530E+03  0.11310117540E+03  0.10000000000E+01 0.  0.
    9000005    1    3    3    0    0 -0.27594699983E+02  0.14445068052E+02  0.22774009443E+02  0.38597706723E+02  0.10000000000E+01 0.  0.
<mgrwt>
<rscale>  0 0.12500111E+03</rscale>
<asrwt>0</asrwt>
<pdfrwt beam="1">  1        4 0.50576636E-02 0.12500111E+03</pdfrwt>
<pdfrwt beam="2">  1       -4 0.18280626E-01 0.12500111E+03</pdfrwt>
<totfact> 0.98963663E+03</totfact>
</mgrwt>
</event>
<event>
 5    1  0.3225662E-002  0.1250000E+03  0.7818608E-02  0.1235069E+00
          4   -1    0    0  501    0  0.00000000000E+00  0.00000000000E+00  0.92002882992E+01  0.92875295309E+01  0.12700000000E+01 0.  1.
         -4   -1    0    0    0  501 -0.00000000000E+00 -0.00000000000E+00 -0.42248741074E+03  0.42248931955E+03  0.12700000000E+01 0.  1.
         25    2    1    2    0    0  0.00000000000E+00  0.00000000000E+00 -0.41328712244E+03  0.43177684908E+03  0.12500000731E+03 0.  0.
    9000005    1    3    3    0    0 -0.38457473095E+02 -0.13067341452E+02 -0.37069212948E+03  0.37291203722E+03  0.10000000000E+01 0.  0.
    9000005    1    3    3    0    0  0.38457473095E+02  0.13067341452E+02 -0.42594992963E+02  0.58864811858E+02  0.10000000000E+01 0.  0.
<mgrwt>
<rscale>  0 0.12500001E+03</rscale>
<asrwt>0</asrwt>
<pdfrwt beam="1">  1        4 0.14222870E-02 0.12500001E+03</pdfrwt>
<pdfrwt beam="2">  1       -4 0.65004906E-01 0.12500001E+03</pdfrwt>
<totfact> 0.61575257E+03</totfact>
</mgrwt>
</event>
<event>
 5    1  0.3225662E-002  0.1250002E+03  0.7818608E-02  0.1235069E+00
         -4   -1    0    0    0  501 -0.00000000000E+00  0.00000000000E+00  0.33860837657E+02  0.33884645887E+02  0.12700000000E+01 0.  1.
          4   -1    0    0  501    0  0.00000000000E+00 -0.00000000000E+00 -0.11529445120E+03  0.11530144569E+03  0.12700000000E+01 0.  1.
         25    2    1    2    0    0  0.00000000000E+00  0.00000000000E+00 -0.81433613542E+02  0.14918609157E+03  0.12500022602E+03 0.  0.
    9000005    1    3    3    0    0 -0.32034869492E+02 -0.52184254644E+02 -0.55615555775E+02  0.82725566425E+02  0.10000000000E+01 0.  0.
    9000005    1    3    3    0    0  0.32034869492E+02  0.52184254644E+02 -0.25818057766E+02  0.66460525148E+02  0.10000000000E+01 0.  0.
<mgrwt>
<rscale>  0 0.12500023E+03</rscale>
<asrwt>0</asrwt>
<pdfrwt beam="2">  1        4 0.17739977E-01 0.12500023E+03</pdfrwt>
<pdfrwt beam="1">  1       -4 0.52117291E-02 0.12500023E+03</pdfrwt>
<totfact> 0.99465680E+03</totfact>
</mgrwt>
</event>
<event>
 5    1  0.3225662E-002  0.1249983E+03  0.7818608E-02  0.1235072E+00
         -4   -1    0    0    0  501 -0.00000000000E+00  0.00000000000E+00  0.24474396295E+02  0.24507324906E+02  0.12700000000E+01 0. -1.
          4   -1    0    0  501    0  0.00000000000E+00 -0.00000000000E+00 -0.15945843667E+03  0.15946349402E+03  0.12700000000E+01 0. -1.
         25    2    1    2    0    0  0.00000000000E+00  0.00000000000E+00 -0.13498404038E+03  0.18397081893E+03  0.12499828423E+03 0.  0.
    9000005    1    3    3    0    0  0.31889101506E+02  0.50311365689E+02 -0.39683644391E+02  0.71581701184E+02  0.10000000000E+01 0.  0.
    9000005    1    3    3    0    0 -0.31889101506E+02 -0.50311365689E+02 -0.95300395986E+02  0.11238911774E+03  0.10000000000E+01 0.  0.
<mgrwt>
<rscale>  0 0.12499828E+03</rscale>
<asrwt>0</asrwt>
<pdfrwt beam="2">  1        4 0.24534989E-01 0.12499828E+03</pdfrwt>
<pdfrwt beam="1">  1       -4 0.37682138E-02 0.12499828E+03</pdfrwt>
<totfact> 0.92910660E+03</totfact>
</mgrwt>
</event>
<event>
 5    1  0.3225662E-002  0.1249998E+03  0.7818608E-02  0.1235070E+00
         -4   -1    0    0    0  501 -0.00000000000E+00  0.00000000000E+00  0.10566559785E+02  0.10642607090E+02  0.12700000000E+01 0.  1.
          4   -1    0    0  501    0  0.00000000000E+00 -0.00000000000E+00 -0.36827645175E+03  0.36827864154E+03  0.12700000000E+01 0.  1.
         25    2    1    2    0    0  0.00000000000E+00  0.00000000000E+00 -0.35770989196E+03  0.37892124863E+03  0.12499978341E+03 0.  0.
    9000005    1    3    3    0    0  0.33756388423E+02  0.34792451330E+02 -0.59308481313E+02  0.76606164142E+02  0.10000000000E+01 0.  0.
    9000005    1    3    3    0    0 -0.33756388423E+02 -0.34792451330E+02 -0.29840141065E+03  0.30231508448E+03  0.10000000000E+01 0.  0.
<mgrwt>
<rscale>  0 0.12499978E+03</rscale>
<asrwt>0</asrwt>
<pdfrwt beam="2">  1        4 0.56663924E-01 0.12499978E+03</pdfrwt>
<pdfrwt beam="1">  1       -4 0.16316431E-02 0.12499978E+03</pdfrwt>
<totfact> 0.66656145E+03</totfact>
</mgrwt>
</event>
<event>
 5    1  0.3225662E-002  0.1250002E+03  0.7818608E-02  0.1235069E+00
          4   -1    0    0  501    0  0.00000000000E+00  0.00000000000E+00  0.42539204721E+01  0.44394525995E+01  0.12700000000E+01 0. -1.
         -4   -1    0    0    0  501 -0.00000000000E+00 -0.00000000000E+00 -0.89848973591E+03  0.89849063347E+03  0.12700000000E+01 0. -1.
         25    2    1    2    0    0  0.00000000000E+00  0.00000000000E+00 -0.89423581543E+03  0.90293008607E+03  0.12500018688E+03 0.  0.
    9000005    1    3    3    0    0 -0.48955749140E+02 -0.95783268806E+01 -0.71901571144E+03  0.72074475581E+03  0.10000000000E+01 0.  0.
    9000005    1    3    3    0    0  0.48955749140E+02  0.95783268806E+01 -0.17522010399E+03  0.18218533026E+03  0.10000000000E+01 0.  0.
<mgrwt>
<rscale>  0 0.12500019E+03</rscale>
<asrwt>0</asrwt>
<pdfrwt beam="1">  1        4 0.66879076E-03 0.12500019E+03</pdfrwt>
<pdfrwt beam="2">  1       -4 0.13824338E+00 0.12500019E+03</pdfrwt>
<totfact> 0.34047865E+03</totfact>
</mgrwt>
</event>
<event>
 5    1  0.3225662E-002  0.1250072E+03  0.7818608E-02  0.1235058E+00
          4   -1    0    0  501    0  0.00000000000E+00  0.00000000000E+00  0.15874016118E+02  0.15924738231E+02  0.12700000000E+01 0.  1.
         -4   -1    0    0    0  501 -0.00000000000E+00 -0.00000000000E+00 -0.24566172709E+03  0.24566500983E+03  0.12700000000E+01 0.  1.
         25    2    1    2    0    0  0.00000000000E+00  0.00000000000E+00 -0.22978771097E+03  0.26158974806E+03  0.12500721651E+03 0.  0.
    9000005    1    3    3    0    0  0.27962377161E+02 -0.47649557446E+02 -0.53765435506E+02  0.77097969600E+02  0.10000000000E+01 0.  0.
    9000005    1    3    3    0    0 -0.27962377161E+02  0.47649557446E+02 -0.17602227546E+03  0.18449177846E+03  0.10000000000E+01 0.  0.
<mgrwt>
<rscale>  0 0.12500722E+03</rscale>
<asrwt>0</asrwt>
<pdfrwt beam="1">  1        4 0.24463107E-02 0.12500722E+03</pdfrwt>
<pdfrwt beam="2">  1       -4 0.37798263E-01 0.12500722E+03</pdfrwt>
<totfact> 0.80670522E+03</totfact>
</mgrwt>
</event>
<event>
 5    1  0.3225662E-002  0.1249997E+03  0.7818608E-02  0.1235070E+00
         -4   -1    0    0    0  501 -0.00000000000E+00  0.00000000000E+00  0.24758841222E+02  0.24791392027E+02  0.12700000000E+01 0.  1.
          4   -1    0    0  501    0  0.00000000000E+00 -0.00000000000E+00 -0.15763239432E+03  0.15763751025E+03  0.12700000000E+01 0.  1.
         25    2    1    2    0    0  0.00000000000E+00  0.00000000000E+00 -0.13287355309E+03  0.18242890228E+03  0.12499969310E+03 0.  0.
    9000005    1    3    3    0    0  0.24116737607E+02 -0.48307853140E+02 -0.20517541711E+02  0.57768808415E+02  0.10000000000E+01 0.  0.
    9000005    1    3    3    0    0 -0.24116737607E+02  0.48307853140E+02 -0.11235601138E+03  0.12466009386E+03  0.10000000000E+01 0.  0.
<mgrwt>
<rscale>  0 0.12499969E+03</rscale>
<asrwt>0</asrwt>
<pdfrwt beam="2">  1        4 0.24254034E-01 0.12499969E+03</pdfrwt>
<pdfrwt beam="1">  1       -4 0.38119500E-02 0.12499969E+03</pdfrwt>
<totfact> 0.93182252E+03</totfact>
</mgrwt>
</event>
<event>
 5    1  0.3225662E-002  0.1250119E+03  0.7818608E-02  0.1235051E+00
          4   -1    0    0  501    0  0.00000000000E+00  0.00000000000E+00  0.49616142352E+03  0.49616304890E+03  0.12700000000E+01 0.  1.
         -4   -1    0    0    0  501 -0.00000000000E+00 -0.00000000000E+00 -0.78215837057E+01  0.79240186563E+01  0.12700000000E+01 0.  1.
         25    2    1    2    0    0  0.00000000000E+00  0.00000000000E+00  0.48833983981E+03  0.50408706755E+03  0.12501188953E+03 0.  0.
    9000005    1    3    3    0    0  0.37699392612E+01 -0.12220810273E+02  0.49084837696E+03  0.49101597715E+03  0.10000000000E+01 0.  0.
    9000005    1    3    3    0    0 -0.37699392612E+01  0.12220810273E+02 -0.25085371485E+01  0.13071090406E+02  0.10000000000E+01 0.  0.
<mgrwt>
<rscale>  0 0.12501189E+03</rscale>
<asrwt>0</asrwt>
<pdfrwt beam="1">  1        4 0.76340543E-01 0.12501189E+03</pdfrwt>
<pdfrwt beam="2">  1       -4 0.12113250E-02 0.12501189E+03</pdfrwt>
<totfact> 0.55534124E+03</totfact>
</mgrwt>
</event>
<event>
 5    1  0.3225662E-002  0.1249977E+03  0.7818608E-02  0.1235073E+00
          4   -1    0    0  501    0  0.00000000000E+00  0.00000000000E+00  0.76650842720E+02  0.76661363083E+02  0.12700000000E+01 0.  1.
         -4   -1    0    0    0  501 -0.00000000000E+00 -0.00000000000E+00 -0.50937788594E+02  0.50953618192E+02  0.12700000000E+01 0.  1.
         25    2    1    2    0    0  0.00000000000E+00  0.00000000000E+00  0.25713054126E+02  0.12761498127E+03  0.12499768915E+03 0.  0.
    9000005    1    3    3    0    0 -0.61054429525E+02  0.96141702135E+01  0.22270774581E+02  0.65704360845E+02  0.10000000000E+01 0.  0.
    9000005    1    3    3    0    0  0.61054429525E+02 -0.96141702135E+01  0.34422795450E+01  0.61910620430E+02  0.10000000000E+01 0.  0.
<mgrwt>
<rscale>  0 0.12499769E+03</rscale>
<asrwt>0</asrwt>
<pdfrwt beam="1">  1        4 0.11794464E-01 0.12499769E+03</pdfrwt>
<pdfrwt beam="2">  1       -4 0.78386098E-02 0.12499769E+03</pdfrwt>
<totfact> 0.10396354E+04</totfact>
</mgrwt>
</event>
<event>
 5    1  0.3225662E-002  0.1249989E+03  0.7818608E-02  0.1235071E+00
         -4   -1    0    0    0  501 -0.00000000000E+00  0.00000000000E+00  0.12919728639E+02  0.12981998618E+02  0.12700000000E+01 0. -1.
          4   -1    0    0  501    0  0.00000000000E+00 -0.00000000000E+00 -0.30155194290E+03  0.30155461722E+03  0.12700000000E+01 0. -1.
         25    2    1    2    0    0  0.00000000000E+00  0.00000000000E+00 -0.28863221426E+03  0.31453661584E+03  0.12499891037E+03 0.  0.
    9000005    1    3    3    0    0 -0.10349773350E+02  0.29003967937E+01  0.10588607479E+02  0.15121134821E+02  0.10000000000E+01 0.  0.
    9000005    1    3    3    0    0  0.10349773350E+02 -0.29003967937E+01 -0.29922082174E+03  0.29941548102E+03  0.10000000000E+01 0.  0.
<mgrwt>
<rscale>  0 0.12499891E+03</rscale>
<asrwt>0</asrwt>
<pdfrwt beam="2">  1        4 0.46397597E-01 0.12499891E+03</pdfrwt>
<pdfrwt beam="1">  1       -4 0.19926465E-02 0.12499891E+03</pdfrwt>
<totfact> 0.73812454E+03</totfact>
</mgrwt>
</event>
<event>
 5    1  0.3225662E-002  0.1249907E+03  0.7818608E-02  0.1235084E+00
         -4   -1    0    0    0  501 -0.00000000000E+00  0.00000000000E+00  0.13074213559E+03  0.13074830369E+03  0.12700000000E+01 0. -1.
          4   -1    0    0  501    0  0.00000000000E+00 -0.00000000000E+00 -0.29852704926E+02  0.29879707017E+02  0.12700000000E+01 0. -1.
         25    2    1    2    0    0  0.00000000000E+00  0.00000000000E+00  0.10088943066E+03  0.16062801071E+03  0.12499072208E+03 0.  0.
    9000005    1    3    3    0    0  0.56037646649E+02  0.71802562678E+01  0.84757555134E+02  0.10186568153E+03  0.10000000000E+01 0.  0.
    9000005    1    3    3    0    0 -0.56037646649E+02 -0.71802562678E+01  0.16131875529E+02  0.58762329175E+02  0.10000000000E+01 0.  0.
<mgrwt>
<rscale>  0 0.12499072E+03</rscale>
<asrwt>0</asrwt>
<pdfrwt beam="2">  1        4 0.45952754E-02 0.12499072E+03</pdfrwt>
<pdfrwt beam="1">  1       -4 0.20116726E-01 0.12499072E+03</pdfrwt>
<totfact> 0.97242122E+03</totfact>
</mgrwt>
</event>
<event>
 5    1  0.3225662E-002  0.1250437E+03  0.7818608E-02  0.1235001E+00
         -4   -1    0    0    0  501 -0.00000000000E+00  0.00000000000E+00  0.21604106581E+03  0.21604479863E+03  0.12700000000E+01 0.  1.
          4   -1    0    0  501    0  0.00000000000E+00 -0.00000000000E+00 -0.18067508380E+02  0.18112088755E+02  0.12700000000E+01 0.  1.
         25    2    1    2    0    0  0.00000000000E+00  0.00000000000E+00  0.19797355743E+03  0.23415688739E+03  0.12504366625E+03 0.  0.
    9000005    1    3    3    0    0 -0.14300290632E+02  0.29630079188E+02 -0.55283376543E+00  0.32920290552E+02  0.10000000000E+01 0.  0.
    9000005    1    3    3    0    0  0.14300290632E+02 -0.29630079188E+02  0.19852639120E+03  0.20123659684E+03  0.10000000000E+01 0.  0.
<mgrwt>
<rscale>  0 0.12504367E+03</rscale>
<asrwt>0</asrwt>
<pdfrwt beam="2">  1        4 0.27833333E-02 0.12504367E+03</pdfrwt>
<pdfrwt beam="1">  1       -4 0.33240801E-01 0.12504367E+03</pdfrwt>
<totfact> 0.84592950E+03</totfact>
</mgrwt>
</event>
<event>
 5    1  0.3225662E-002  0.1250048E+03  0.7818608E-02  0.1235062E+00
         -4   -1    0    0    0  501 -0.00000000000E+00  0.00000000000E+00  0.17262260552E+03  0.17262727721E+03  0.12700000000E+01 0. -1.
          4   -1    0    0  501    0  0.00000000000E+00 -0.00000000000E+00 -0.22607789691E+02  0.22643432926E+02  0.12700000000E+01 0. -1.
         25    2    1    2    0    0  0.00000000000E+00  0.00000000000E+00  0.15001481583E+03  0.19527071013E+03  0.12500482098E+03 0.  0.
    9000005    1    3    3    0    0  0.44242051271E+02  0.32448647008E+02  0.12174745913E+03  0.13354294290E+03  0.10000000000E+01 0.  0.
    9000005    1    3    3    0    0 -0.44242051271E+02 -0.32448647008E+02  0.28267356702E+02  0.61727767239E+02  0.10000000000E+01 0.  0.
<mgrwt>
<rscale>  0 0.12500482E+03</rscale>
<asrwt>0</asrwt>
<pdfrwt beam="2">  1        4 0.34812226E-02 0.12500482E+03</pdfrwt>
<pdfrwt beam="1">  1       -4 0.26560425E-01 0.12500482E+03</pdfrwt>
<totfact> 0.90928415E+03</totfact>
</mgrwt>
</event>
<event>
 5    1  0.3225662E-002  0.1250001E+03  0.7818608E-02  0.1235069E+00
          4   -1    0    0  501    0  0.00000000000E+00  0.00000000000E+00  0.52144077603E+02  0.52159541112E+02  0.12700000000E+01 0.  1.
         -4   -1    0    0    0  501 -0.00000000000E+00 -0.00000000000E+00 -0.74880797460E+02  0.74891566470E+02  0.12700000000E+01 0.  1.
         25    2    1    2    0    0  0.00000000000E+00  0.00000000000E+00 -0.22736719858E+02  0.12705110758E+03  0.12500010203E+03 0.  0.
    9000005    1    3    3    0    0 -0.24916278123E+02 -0.43845913243E+02  0.26142072812E+02  0.56812789005E+02  0.10000000000E+01 0.  0.
    9000005    1    3    3    0    0  0.24916278123E+02  0.43845913243E+02 -0.48878792670E+02  0.70238318577E+02  0.10000000000E+01 0.  0.
<mgrwt>
<rscale>  0 0.12500010E+03</rscale>
<asrwt>0</asrwt>
<pdfrwt beam="1">  1        4 0.80241836E-02 0.12500010E+03</pdfrwt>
<pdfrwt beam="2">  1       -4 0.11522141E-01 0.12500010E+03</pdfrwt>
<totfact> 0.10408012E+04</totfact>
</mgrwt>
</event>
<event>
 5    1  0.3225662E-002  0.1249990E+03  0.7818608E-02  0.1235071E+00
         -4   -1    0    0    0  501 -0.00000000000E+00  0.00000000000E+00  0.39262787018E+02  0.39283321453E+02  0.12700000000E+01 0. -1.
          4   -1    0    0  501    0  0.00000000000E+00 -0.00000000000E+00 -0.99437611459E+02  0.99445721239E+02  0.12700000000E+01 0. -1.
         25    2    1    2    0    0  0.00000000000E+00  0.00000000000E+00 -0.60174824441E+02  0.13872904269E+03  0.12499895115E+03 0.  0.
    9000005    1    3    3    0    0 -0.69851596015E+01  0.38919670096E+01 -0.98872928460E+02  0.99200785502E+02  0.10000000000E+01 0.  0.
    9000005    1    3    3    0    0  0.69851596015E+01 -0.38919670096E+01  0.38698104019E+02  0.39528257191E+02  0.10000000000E+01 0.  0.
<mgrwt>
<rscale>  0 0.12499895E+03</rscale>
<asrwt>0</asrwt>
<pdfrwt beam="2">  1        4 0.15300297E-01 0.12499895E+03</pdfrwt>
<pdfrwt beam="1">  1       -4 0.60426322E-02 0.12499895E+03</pdfrwt>
<totfact> 0.10160235E+04</totfact>
</mgrwt>
</event>
<event>
 5    1  0.3225662E-002  0.1249980E+03  0.7818608E-02  0.1235072E+00
         -4   -1    0    0    0  501 -0.00000000000E+00  0.00000000000E+00  0.20331870779E+02  0.20371496494E+02  0.12700000000E+01 0.  1.
          4   -1    0    0  501    0  0.00000000000E+00 -0.00000000000E+00 -0.19188966724E+03  0.19189386987E+03  0.12700000000E+01 0.  1.
         25    2    1    2    0    0  0.00000000000E+00  0.00000000000E+00 -0.17155779646E+03  0.21226536636E+03  0.12499803291E+03 0.  0.
    9000005    1    3    3    0    0 -0.41340421380E+02  0.14837879865E+02 -0.16126416104E+03  0.16714162484E+03  0.10000000000E+01 0.  0.
    9000005    1    3    3    0    0  0.41340421380E+02 -0.14837879865E+02 -0.10293635421E+02  0.45123741522E+02  0.10000000000E+01 0.  0.
<mgrwt>
<rscale>  0 0.12499803E+03</rscale>
<asrwt>0</asrwt>
<pdfrwt beam="2">  1        4 0.29524857E-01 0.12499803E+03</pdfrwt>
<pdfrwt beam="1">  1       -4 0.31313517E-02 0.12499803E+03</pdfrwt>
<totfact> 0.88111123E+03</totfact>
</mgrwt>
</event>
<event>
 5    1  0.3225662E-002  0.1249986E+03  0.7818608E-02  0.1235071E+00
          4   -1    0    0  501    0  0.00000000000E+00  0.00000000000E+00  0.44185039931E+02  0.44203287815E+02  0.12700000000E+01 0.  1.
         -4   -1    0    0    0  501 -0.00000000000E+00 -0.00000000000E+00 -0.88363597420E+02  0.88372723444E+02  0.12700000000E+01 0.  1.
         25    2    1    2    0    0  0.00000000000E+00  0.00000000000E+00 -0.44178557489E+02  0.13257601126E+03  0.12499861527E+03 0.  0.
    9000005    1    3    3    0    0 -0.20193922872E+02  0.24297734945E+02 -0.79274188694E+02  0.85343842411E+02  0.10000000000E+01 0.  0.
    9000005    1    3    3    0    0  0.20193922872E+02 -0.24297734945E+02  0.35095631205E+02  0.47232168848E+02  0.10000000000E+01 0.  0.
<mgrwt>
<rscale>  0 0.12499862E+03</rscale>
<asrwt>0</asrwt>
<pdfrwt beam="1">  1        4 0.67998041E-02 0.12499862E+03</pdfrwt>
<pdfrwt beam="2">  1       -4 0.13596505E-01 0.12499862E+03</pdfrwt>
<totfact> 0.10289741E+04</totfact>
</mgrwt>
</event>
<event>
 5    1  0.3225662E-002  0.1250019E+03  0.7818608E-02  0.1235066E+00
         -4   -1    0    0    0  501 -0.00000000000E+00  0.00000000000E+00  0.64088699679E+02  0.64101281786E+02  0.12700000000E+01 0.  1.
          4   -1    0    0  501    0  0.00000000000E+00 -0.00000000000E+00 -0.60927331127E+02  0.60940565949E+02  0.12700000000E+01 0.  1.
         25    2    1    2    0    0  0.00000000000E+00  0.00000000000E+00  0.31613685523E+01  0.12504184774E+03  0.12500187772E+03 0.  0.
    9000005    1    3    3    0    0  0.58310133242E+01 -0.28094804374E+02 -0.53953268646E+02  0.61116887575E+02  0.10000000000E+01 0.  0.
    9000005    1    3    3    0    0 -0.58310133242E+01  0.28094804374E+02  0.57114637199E+02  0.63924960160E+02  0.10000000000E+01 0.  0.
<mgrwt>
<rscale>  0 0.12500188E+03</rscale>
<asrwt>0</asrwt>
<pdfrwt beam="2">  1        4 0.93754215E-02 0.12500188E+03</pdfrwt>
<pdfrwt beam="1">  1       -4 0.98617858E-02 0.12500188E+03</pdfrwt>
<totfact> 0.10451510E+04</totfact>
</mgrwt>
</event>
<event>
 5    1  0.3225662E-002  0.1249999E+03  0.7818608E-02  0.1235069E+00
         -4   -1    0    0    0  501 -0.00000000000E+00  0.00000000000E+00  0.73839045318E+02  0.73849966239E+02  0.12700000000E+01 0. -1.
          4   -1    0    0  501    0  0.00000000000E+00 -0.00000000000E+00 -0.52879702662E+02  0.52894951116E+02  0.12700000000E+01 0. -1.
         25    2    1    2    0    0  0.00000000000E+00  0.00000000000E+00  0.20959342656E+02  0.12674491736E+03  0.12499992012E+03 0.  0.
    9000005    1    3    3    0    0  0.15771062494E+01  0.36884763517E+02  0.61604494760E+02  0.71826783434E+02  0.10000000000E+01 0.  0.
    9000005    1    3    3    0    0 -0.15771062494E+01 -0.36884763517E+02 -0.40645152104E+02  0.54918133921E+02  0.10000000000E+01 0.  0.
<mgrwt>
<rscale>  0 0.12499992E+03</rscale>
<asrwt>0</asrwt>
<pdfrwt beam="2">  1        4 0.81373519E-02 0.12499992E+03</pdfrwt>
<pdfrwt beam="1">  1       -4 0.11361866E-01 0.12499992E+03</pdfrwt>
<totfact> 0.10414711E+04</totfact>
</mgrwt>
</event>
<event>
 5    1  0.3225662E-002  0.1250003E+03  0.7818608E-02  0.1235069E+00
         -4   -1    0    0    0  501 -0.00000000000E+00  0.00000000000E+00  0.99602943860E+02  0.99611040179E+02  0.12700000000E+01 0. -1.
          4   -1    0    0  501    0  0.00000000000E+00 -0.00000000000E+00 -0.39198410079E+02  0.39218978221E+02  0.12700000000E+01 0. -1.
         25    2    1    2    0    0  0.00000000000E+00  0.00000000000E+00  0.60404533781E+02  0.13883001840E+03  0.12500026523E+03 0.  0.
    9000005    1    3    3    0    0  0.19355940569E+02  0.49596345289E+01  0.95964931805E+02  0.98028151805E+02  0.10000000000E+01 0.  0.
    9000005    1    3    3    0    0 -0.19355940569E+02 -0.49596345289E+01 -0.35560398025E+02  0.40801866595E+02  0.10000000000E+01 0.  0.
<mgrwt>
<rscale>  0 0.12500027E+03</rscale>
<asrwt>0</asrwt>
<pdfrwt beam="2">  1        4 0.60327296E-02 0.12500027E+03</pdfrwt>
<pdfrwt beam="1">  1       -4 0.15325735E-01 0.12500027E+03</pdfrwt>
<totfact> 0.10157831E+04</totfact>
</mgrwt>
</event>
<event>
 5    1  0.3225662E-002  0.1249987E+03  0.7818608E-02  0.1235071E+00
         -4   -1    0    0    0  501 -0.00000000000E+00  0.00000000000E+00  0.10921941462E+03  0.10922679813E+03  0.12700000000E+01 0. -1.
          4   -1    0    0  501    0  0.00000000000E+00 -0.00000000000E+00 -0.35744538881E+02  0.35767093253E+02  0.12700000000E+01 0. -1.
         25    2    1    2    0    0  0.00000000000E+00  0.00000000000E+00  0.73474875740E+02  0.14499389138E+03  0.12499868469E+03 0.  0.
    9000005    1    3    3    0    0  0.44389347149E+02  0.43188541994E+02  0.27066967916E+02  0.67596486980E+02  0.10000000000E+01 0.  0.
    9000005    1    3    3    0    0 -0.44389347149E+02 -0.43188541994E+02  0.46407907824E+02  0.77397404404E+02  0.10000000000E+01 0.  0.
<mgrwt>
<rscale>  0 0.12499868E+03</rscale>
<asrwt>0</asrwt>
<pdfrwt beam="2">  1        4 0.55014627E-02 0.12499868E+03</pdfrwt>
<pdfrwt beam="1">  1       -4 0.16805290E-01 0.12499868E+03</pdfrwt>
<totfact> 0.10031410E+04</totfact>
</mgrwt>
</event>
<event>
 5    1  0.3225662E-002  0.1249874E+03  0.7818608E-02  0.1235089E+00
          4   -1    0    0  501    0  0.00000000000E+00  0.00000000000E+00  0.63285476792E+01  0.64547204221E+01  0.12700000000E+01 0.  1.
         -4   -1    0    0    0  501 -0.00000000000E+00 -0.00000000000E+00 -0.61090067960E+03  0.61090199970E+03  0.12700000000E+01 0.  1.
         25    2    1    2    0    0  0.00000000000E+00  0.00000000000E+00 -0.60457213192E+03  0.61735672012E+03  0.12498742810E+03 0.  0.
    9000005    1    3    3    0    0  0.82069047319E+01  0.17945174592E+02 -0.94412358406E+01  0.21897933935E+02  0.10000000000E+01 0.  0.
    9000005    1    3    3    0    0 -0.82069047319E+01 -0.17945174592E+02 -0.59513089608E+03  0.59545878618E+03  0.10000000000E+01 0.  0.
<mgrwt>
<rscale>  0 0.12498743E+03</rscale>
<asrwt>0</asrwt>
<pdfrwt beam="1">  1        4 0.98343034E-03 0.12498743E+03</pdfrwt>
<pdfrwt beam="2">  1       -4 0.93994481E-01 0.12498743E+03</pdfrwt>
<totfact> 0.47803206E+03</totfact>
</mgrwt>
</event>
<event>
 5    1  0.3225662E-002  0.1250012E+03  0.7818608E-02  0.1235067E+00
          4   -1    0    0  501    0  0.00000000000E+00  0.00000000000E+00  0.92638908890E+02  0.92647613786E+02  0.12700000000E+01 0. -1.
         -4   -1    0    0    0  501 -0.00000000000E+00 -0.00000000000E+00 -0.42146946912E+02  0.42166076815E+02  0.12700000000E+01 0. -1.
         25    2    1    2    0    0  0.00000000000E+00  0.00000000000E+00  0.50491961978E+02  0.13481369060E+03  0.12500117179E+03 0.  0.
    9000005    1    3    3    0    0  0.36777779429E+02  0.50063084808E+02  0.32592906858E+02  0.70158499825E+02  0.10000000000E+01 0.  0.
    9000005    1    3    3    0    0 -0.36777779429E+02 -0.50063084808E+02  0.17899055121E+02  0.64655190777E+02  0.10000000000E+01 0.  0.
<mgrwt>
<rscale>  0 0.12500117E+03</rscale>
<asrwt>0</asrwt>
<pdfrwt beam="1">  1        4 0.14254281E-01 0.12500117E+03</pdfrwt>
<pdfrwt beam="2">  1       -4 0.64862869E-02 0.12500117E+03</pdfrwt>
<totfact> 0.10241729E+04</totfact>
</mgrwt>
</event>
<event>
 5    1  0.3225662E-002  0.1250033E+03  0.7818608E-02  0.1235064E+00
         -4   -1    0    0    0  501 -0.00000000000E+00  0.00000000000E+00  0.36532073993E+03  0.36532294744E+03  0.12700000000E+01 0. -1.
          4   -1    0    0  501    0  0.00000000000E+00 -0.00000000000E+00 -0.10653264044E+02  0.10728696789E+02  0.12700000000E+01 0. -1.
         25    2    1    2    0    0  0.00000000000E+00  0.00000000000E+00  0.35466747589E+03  0.37605164423E+03  0.12500328265E+03 0.  0.
    9000005    1    3    3    0    0  0.56827681279E+02  0.23453650197E+02  0.14356579333E+03  0.15617809092E+03  0.10000000000E+01 0.  0.
    9000005    1    3    3    0    0 -0.56827681279E+02 -0.23453650197E+02  0.21110168256E+03  0.21987355331E+03  0.10000000000E+01 0.  0.
<mgrwt>
<rscale>  0 0.12500328E+03</rscale>
<asrwt>0</asrwt>
<pdfrwt beam="2">  1        4 0.16449362E-02 0.12500328E+03</pdfrwt>
<pdfrwt beam="1">  1       -4 0.56209156E-01 0.12500328E+03</pdfrwt>
<totfact> 0.66945684E+03</totfact>
</mgrwt>
</event>
<event>
 5    1  0.3225662E-002  0.1250004E+03  0.7818608E-02  0.1235069E+00
          4   -1    0    0  501    0  0.00000000000E+00  0.00000000000E+00  0.23276672657E+02  0.23311293186E+02  0.12700000000E+01 0.  1.
         -4   -1    0    0    0  501 -0.00000000000E+00 -0.00000000000E+00 -0.16765765761E+03  0.16766246764E+03  0.12700000000E+01 0.  1.
         25    2    1    2    0    0  0.00000000000E+00  0.00000000000E+00 -0.14438098495E+03  0.19097376083E+03  0.12500043403E+03 0.  0.
    9000005    1    3    3    0    0 -0.44979095825E+02 -0.23872014093E+02 -0.16845763692E+02  0.53644868091E+02  0.10000000000E+01 0.  0.
    9000005    1    3    3    0    0  0.44979095825E+02  0.23872014093E+02 -0.12753522126E+03  0.13732889274E+03  0.10000000000E+01 0.  0.
<mgrwt>
<rscale>  0 0.12500043E+03</rscale>
<asrwt>0</asrwt>
<pdfrwt beam="1">  1        4 0.35840598E-02 0.12500043E+03</pdfrwt>
<pdfrwt beam="2">  1       -4 0.25796518E-01 0.12500043E+03</pdfrwt>
<totfact> 0.91677268E+03</totfact>
</mgrwt>
</event>
<event>
 5    1  0.3225662E-002  0.1249994E+03  0.7818608E-02  0.1235070E+00
          4   -1    0    0  501    0  0.00000000000E+00  0.00000000000E+00  0.87415749301E+02  0.87424974268E+02  0.12700000000E+01 0.  1.
         -4   -1    0    0    0  501 -0.00000000000E+00 -0.00000000000E+00 -0.44664843377E+02  0.44682895317E+02  0.12700000000E+01 0.  1.
         25    2    1    2    0    0  0.00000000000E+00  0.00000000000E+00  0.42750905924E+02  0.13210786959E+03  0.12499939699E+03 0.  0.
    9000005    1    3    3    0    0  0.46134654794E+02 -0.29441420128E+02  0.53257305452E+02  0.76371095161E+02  0.10000000000E+01 0.  0.
    9000005    1    3    3    0    0 -0.46134654794E+02  0.29441420128E+02 -0.10506399529E+02  0.55736774424E+02  0.10000000000E+01 0.  0.
<mgrwt>
<rscale>  0 0.12499940E+03</rscale>
<asrwt>0</asrwt>
<pdfrwt beam="1">  1        4 0.13450675E-01 0.12499940E+03</pdfrwt>
<pdfrwt beam="2">  1       -4 0.68736127E-02 0.12499940E+03</pdfrwt>
<totfact> 0.10299537E+04</totfact>
</mgrwt>
</event>
<event>
 5    1  0.3225662E-002  0.1250065E+03  0.7818608E-02  0.1235059E+00
          4   -1    0    0  501    0  0.00000000000E+00  0.00000000000E+00  0.52927385181E+02  0.52942619902E+02  0.12700000000E+01 0. -1.
         -4   -1    0    0    0  501 -0.00000000000E+00 -0.00000000000E+00 -0.73780255298E+02  0.73791184920E+02  0.12700000000E+01 0. -1.
         25    2    1    2    0    0  0.00000000000E+00  0.00000000000E+00 -0.20852870117E+02  0.12673380482E+03  0.12500646020E+03 0.  0.
    9000005    1    3    3    0    0 -0.15794608588E+02 -0.60428851139E+02 -0.82667259181E+01  0.63011542338E+02  0.10000000000E+01 0.  0.
    9000005    1    3    3    0    0  0.15794608588E+02  0.60428851139E+02 -0.12586144199E+02  0.63722262485E+02  0.10000000000E+01 0.  0.
<mgrwt>
<rscale>  0 0.12500646E+03</rscale>
<asrwt>0</asrwt>
<pdfrwt beam="1">  1        4 0.81446873E-02 0.12500646E+03</pdfrwt>
<pdfrwt beam="2">  1       -4 0.11352821E-01 0.12500646E+03</pdfrwt>
<totfact> 0.10413416E+04</totfact>
</mgrwt>
</event>
<event>
 5    1  0.3225662E-002  0.1250031E+03  0.7818608E-02  0.1235065E+00
         -4   -1    0    0    0  501 -0.00000000000E+00  0.00000000000E+00  0.47698100819E+03  0.47698269892E+03  0.12700000000E+01 0. -1.
          4   -1    0    0  501    0  0.00000000000E+00 -0.00000000000E+00 -0.81389793659E+01  0.82374683683E+01  0.12700000000E+01 0. -1.
         25    2    1    2    0    0  0.00000000000E+00  0.00000000000E+00  0.46884202882E+03  0.48522016729E+03  0.12500305099E+03 0.  0.
    9000005    1    3    3    0    0 -0.49826506945E+02 -0.37719398344E+02  0.23409896967E+03  0.24229890921E+03  0.10000000000E+01 0.  0.
    9000005    1    3    3    0    0  0.49826506945E+02  0.37719398344E+02  0.23474305916E+03  0.24292125808E+03  0.10000000000E+01 0.  0.
<mgrwt>
<rscale>  0 0.12500305E+03</rscale>
<asrwt>0</asrwt>
<pdfrwt beam="2">  1        4 0.12598568E-02 0.12500305E+03</pdfrwt>
<pdfrwt beam="1">  1       -4 0.73389398E-01 0.12500305E+03</pdfrwt>
<totfact> 0.57025787E+03</totfact>
</mgrwt>
</event>
<event>
 5    1  0.3225662E-002  0.1249946E+03  0.7818608E-02  0.1235078E+00
         -4   -1    0    0    0  501 -0.00000000000E+00  0.00000000000E+00  0.10963574593E+03  0.10964310141E+03  0.12700000000E+01 0.  1.
          4   -1    0    0  501    0  0.00000000000E+00 -0.00000000000E+00 -0.35606373726E+02  0.35629015562E+02  0.12700000000E+01 0.  1.
         25    2    1    2    0    0  0.00000000000E+00  0.00000000000E+00  0.74029372209E+02  0.14527211697E+03  0.12499455996E+03 0.  0.
    9000005    1    3    3    0    0  0.57039008281E+02  0.25028799343E+02  0.42828233949E+02  0.75598590499E+02  0.10000000000E+01 0.  0.
    9000005    1    3    3    0    0 -0.57039008281E+02 -0.25028799343E+02  0.31201138259E+02  0.69673526472E+02  0.10000000000E+01 0.  0.
<mgrwt>
<rscale>  0 0.12499456E+03</rscale>
<asrwt>0</asrwt>
<pdfrwt beam="2">  1        4 0.54802112E-02 0.12499456E+03</pdfrwt>
<pdfrwt beam="1">  1       -4 0.16869345E-01 0.12499456E+03</pdfrwt>
<totfact> 0.10026691E+04</totfact>
</mgrwt>
</event>
<event>
 5    1  0.3225662E-002  0.1250027E+03  0.7818608E-02  0.1235065E+00
         -4   -1    0    0    0  501 -0.00000000000E+00  0.00000000000E+00  0.10726190122E+02  0.10801113579E+02  0.12700000000E+01 0.  1.
          4   -1    0    0  501    0  0.00000000000E+00 -0.00000000000E+00 -0.36285087572E+03  0.36285309825E+03  0.12700000000E+01 0.  1.
         25    2    1    2    0    0  0.00000000000E+00  0.00000000000E+00 -0.35212468560E+03  0.37365421183E+03  0.12500270322E+03 0.  0.
    9000005    1    3    3    0    0 -0.19067967608E+02  0.58922195637E+02 -0.15105201242E+03  0.16325784203E+03  0.10000000000E+01 0.  0.
    9000005    1    3    3    0    0  0.19067967608E+02 -0.58922195637E+02 -0.20107267317E+03  0.21039636980E+03  0.10000000000E+01 0.  0.
<mgrwt>
<rscale>  0 0.12500270E+03</rscale>
<asrwt>0</asrwt>
<pdfrwt beam="2">  1        4 0.55829137E-01 0.12500270E+03</pdfrwt>
<pdfrwt beam="1">  1       -4 0.16561177E-02 0.12500270E+03</pdfrwt>
<totfact> 0.67194352E+03</totfact>
</mgrwt>
</event>
<event>
 5    1  0.3225662E-002  0.1250057E+03  0.7818608E-02  0.1235060E+00
         -4   -1    0    0    0  501 -0.00000000000E+00  0.00000000000E+00  0.77764000964E+03  0.77764104668E+03  0.12700000000E+01 0.  1.
          4   -1    0    0  501    0  0.00000000000E+00 -0.00000000000E+00 -0.49423501932E+01  0.51029134259E+01  0.12700000000E+01 0.  1.
         25    2    1    2    0    0  0.00000000000E+00  0.00000000000E+00  0.77269765944E+03  0.78274396011E+03  0.12500573658E+03 0.  0.
    9000005    1    3    3    0    0  0.29231893972E+02 -0.22675737307E+02  0.70962537698E+02  0.80033583227E+02  0.10000000000E+01 0.  0.
    9000005    1    3    3    0    0 -0.29231893972E+02  0.22675737307E+02  0.70173512175E+03  0.70271037688E+03  0.10000000000E+01 0.  0.
<mgrwt>
<rscale>  0 0.12500574E+03</rscale>
<asrwt>0</asrwt>
<pdfrwt beam="2">  1        4 0.77279227E-03 0.12500574E+03</pdfrwt>
<pdfrwt beam="1">  1       -4 0.11964937E+00 0.12500574E+03</pdfrwt>
<totfact> 0.39041887E+03</totfact>
</mgrwt>
</event>
<event>
 5    1  0.3225662E-002  0.1249960E+03  0.7818608E-02  0.1235076E+00
         -4   -1    0    0    0  501 -0.00000000000E+00  0.00000000000E+00  0.72622968484E+03  0.72623079530E+03  0.12700000000E+01 0.  1.
          4   -1    0    0  501    0  0.00000000000E+00 -0.00000000000E+00 -0.53023591279E+01  0.54523309072E+01  0.12700000000E+01 0.  1.
         25    2    1    2    0    0  0.00000000000E+00  0.00000000000E+00  0.72092732571E+03  0.73168312620E+03  0.12499595281E+03 0.  0.
    9000005    1    3    3    0    0 -0.16369194776E+02  0.24895038962E+02  0.68200376907E+03  0.68265500403E+03  0.10000000000E+01 0.  0.
    9000005    1    3    3    0    0  0.16369194776E+02 -0.24895038962E+02  0.38923556642E+02  0.49028122177E+02  0.10000000000E+01 0.  0.
<mgrwt>
<rscale>  0 0.12499595E+03</rscale>
<asrwt>0</asrwt>
<pdfrwt beam="2">  1        4 0.82736911E-03 0.12499595E+03</pdfrwt>
<pdfrwt beam="1">  1       -4 0.11173929E+00 0.12499595E+03</pdfrwt>
<totfact> 0.41469591E+03</totfact>
</mgrwt>
</event>
<event>
 5    1  0.3225662E-002  0.1250003E+03  0.7818608E-02  0.1235069E+00
          4   -1    0    0  501    0  0.00000000000E+00  0.00000000000E+00  0.59676553378E+02  0.59690065531E+02  0.12700000000E+01 0.  1.
         -4   -1    0    0    0  501 -0.00000000000E+00 -0.00000000000E+00 -0.65430310713E+02  0.65442634880E+02  0.12700000000E+01 0.  1.
         25    2    1    2    0    0  0.00000000000E+00  0.00000000000E+00 -0.57537573354E+01  0.12513270041E+03  0.12500034795E+03 0.  0.
    9000005    1    3    3    0    0 -0.42636110668E+02 -0.40001053917E+02 -0.24976246842E+02  0.63582506664E+02  0.10000000000E+01 0.  0.
    9000005    1    3    3    0    0  0.42636110668E+02  0.40001053917E+02  0.19222489507E+02  0.61550193746E+02  0.10000000000E+01 0.  0.
<mgrwt>
<rscale>  0 0.12500035E+03</rscale>
<asrwt>0</asrwt>
<pdfrwt beam="1">  1        4 0.91829956E-02 0.12500035E+03</pdfrwt>
<pdfrwt beam="2">  1       -4 0.10068189E-01 0.12500035E+03</pdfrwt>
<totfact> 0.10449899E+04</totfact>
</mgrwt>
</event>
<event>
 5    1  0.3225662E-002  0.1250015E+03  0.7818608E-02  0.1235067E+00
          4   -1    0    0  501    0  0.00000000000E+00  0.00000000000E+00  0.11382969769E+03  0.11383678218E+03  0.12700000000E+01 0. -1.
         -4   -1    0    0    0  501 -0.00000000000E+00 -0.00000000000E+00 -0.34297535555E+02  0.34321040852E+02  0.12700000000E+01 0. -1.
         25    2    1    2    0    0  0.00000000000E+00  0.00000000000E+00  0.79532162135E+02  0.14815782303E+03  0.12500150283E+03 0.  0.
    9000005    1    3    3    0    0  0.51035241482E+02 -0.35582818351E+02  0.32793123722E+02  0.70335778935E+02  0.10000000000E+01 0.  0.
    9000005    1    3    3    0    0 -0.51035241482E+02  0.35582818351E+02  0.46739038413E+02  0.77822044093E+02  0.10000000000E+01 0.  0.
<mgrwt>
<rscale>  0 0.12500150E+03</rscale>
<asrwt>0</asrwt>
<pdfrwt beam="1">  1        4 0.17514615E-01 0.12500150E+03</pdfrwt>
<pdfrwt beam="2">  1       -4 0.52788969E-02 0.12500150E+03</pdfrwt>
<totfact> 0.99668811E+03</totfact>
</mgrwt>
</event>
<event>
 5    1  0.3225662E-002  0.1249954E+03  0.7818608E-02  0.1235076E+00
          4   -1    0    0  501    0  0.00000000000E+00  0.00000000000E+00  0.35282280143E+02  0.35305129827E+02  0.12700000000E+01 0.  1.
         -4   -1    0    0    0  501 -0.00000000000E+00 -0.00000000000E+00 -0.11064376566E+03  0.11065105412E+03  0.12700000000E+01 0.  1.
         25    2    1    2    0    0  0.00000000000E+00  0.00000000000E+00 -0.75361485512E+02  0.14595618395E+03  0.12499541645E+03 0.  0.
    9000005    1    3    3    0    0 -0.14095328897E+01 -0.53668963217E+02 -0.33979210265E+00  0.53697857075E+02  0.10000000000E+01 0.  0.
    9000005    1    3    3    0    0  0.14095328897E+01  0.53668963217E+02 -0.75021693409E+02  0.92258326875E+02  0.10000000000E+01 0.  0.
<mgrwt>
<rscale>  0 0.12499542E+03</rscale>
<asrwt>0</asrwt>
<pdfrwt beam="1">  1        4 0.54303615E-02 0.12499542E+03</pdfrwt>
<pdfrwt beam="2">  1       -4 0.17024436E-01 0.12499542E+03</pdfrwt>
<totfact> 0.10012630E+04</totfact>
</mgrwt>
</event>
<event>
 5    1  0.3225662E-002  0.1250006E+03  0.7818608E-02  0.1235068E+00
         -4   -1    0    0    0  501 -0.00000000000E+00  0.00000000000E+00  0.15740826062E+03  0.15741338384E+03  0.12700000000E+01 0. -1.
          4   -1    0    0  501    0  0.00000000000E+00 -0.00000000000E+00 -0.24794510354E+02  0.24827014394E+02  0.12700000000E+01 0. -1.
         25    2    1    2    0    0  0.00000000000E+00  0.00000000000E+00  0.13261375026E+03  0.18224039823E+03  0.12500062395E+03 0.  0.
    9000005    1    3    3    0    0 -0.18978519026E+02 -0.24960550381E+02 -0.12502558971E+02  0.33771692889E+02  0.10000000000E+01 0.  0.
    9000005    1    3    3    0    0  0.18978519026E+02  0.24960550381E+02  0.14511630923E+03  0.14846870534E+03  0.10000000000E+01 0.  0.
<mgrwt>
<rscale>  0 0.12500062E+03</rscale>
<asrwt>0</asrwt>
<pdfrwt beam="2">  1        4 0.38174345E-02 0.12500062E+03</pdfrwt>
<pdfrwt beam="1">  1       -4 0.24219550E-01 0.12500062E+03</pdfrwt>
<totfact> 0.93213968E+03</totfact>
</mgrwt>
</event>
<event>
 5    1  0.3225662E-002  0.1249997E+03  0.7818608E-02  0.1235070E+00
          4   -1    0    0  501    0  0.00000000000E+00  0.00000000000E+00  0.62606223926E+01  0.63881368757E+01  0.12700000000E+01 0. -1.
         -4   -1    0    0    0  501 -0.00000000000E+00 -0.00000000000E+00 -0.61751814564E+03  0.61751945159E+03  0.12700000000E+01 0. -1.
         25    2    1    2    0    0  0.00000000000E+00  0.00000000000E+00 -0.61125752324E+03  0.62390758847E+03  0.12499967688E+03 0.  0.
    9000005    1    3    3    0    0 -0.24042934168E+02  0.17306529173E+02 -0.30988442028E+02  0.42881956284E+02  0.10000000000E+01 0.  0.
    9000005    1    3    3    0    0  0.24042934168E+02 -0.17306529173E+02 -0.58026908122E+03  0.58102563218E+03  0.10000000000E+01 0.  0.
<mgrwt>
<rscale>  0 0.12499968E+03</rscale>
<asrwt>0</asrwt>
<pdfrwt beam="1">  1        4 0.97308243E-03 0.12499968E+03</pdfrwt>
<pdfrwt beam="2">  1       -4 0.95012654E-01 0.12499968E+03</pdfrwt>
<totfact> 0.47392805E+03</totfact>
</mgrwt>
</event>
<event>
 5    1  0.3225662E-002  0.1249998E+03  0.7818608E-02  0.1235070E+00
         -4   -1    0    0    0  501 -0.00000000000E+00  0.00000000000E+00  0.38154925742E+03  0.38155137103E+03  0.12700000000E+01 0.  1.
          4   -1    0    0  501    0  0.00000000000E+00 -0.00000000000E+00 -0.10196289370E+02  0.10275077465E+02  0.12700000000E+01 0.  1.
         25    2    1    2    0    0  0.00000000000E+00  0.00000000000E+00  0.37135296805E+03  0.39182644850E+03  0.12499975545E+03 0.  0.
    9000005    1    3    3    0    0 -0.59077601192E+02  0.62773321086E+01  0.24643204341E+03  0.25349422061E+03  0.10000000000E+01 0.  0.
    9000005    1    3    3    0    0  0.59077601192E+02 -0.62773321086E+01  0.12492092463E+03  0.13833222789E+03  0.10000000000E+01 0.  0.
<mgrwt>
<rscale>  0 0.12499976E+03</rscale>
<asrwt>0</asrwt>
<pdfrwt beam="2">  1        4 0.15748832E-02 0.12499976E+03</pdfrwt>
<pdfrwt beam="1">  1       -4 0.58706106E-01 0.12499976E+03</pdfrwt>
<totfact> 0.65355931E+03</totfact>
</mgrwt>
</event>
<event>
 5    1  0.3225662E-002  0.1250019E+03  0.7818608E-02  0.1235066E+00
          4   -1    0    0  501    0  0.00000000000E+00  0.00000000000E+00  0.23442197594E+01  0.26661332075E+01  0.12700000000E+01 0. -1.
         -4   -1    0    0    0  501 -0.00000000000E+00 -0.00000000000E+00 -0.15589974595E+04  0.15589979768E+04  0.12700000000E+01 0. -1.
         25    2    1    2    0    0  0.00000000000E+00  0.00000000000E+00 -0.15566532398E+04  0.15616641100E+04  0.12500193459E+03 0.  0.
    9000005    1    3    3    0    0  0.51103960713E+02  0.30353312565E+02 -0.53722801463E+03  0.54050705646E+03  0.10000000000E+01 0.  0.
    9000005    1    3    3    0    0 -0.51103960713E+02 -0.30353312565E+02 -0.10194252252E+04  0.10211570536E+04  0.10000000000E+01 0.  0.
<mgrwt>
<rscale>  0 0.12500193E+03</rscale>
<asrwt>0</asrwt>
<pdfrwt beam="1">  1        4 0.38545280E-03 0.12500193E+03</pdfrwt>
<pdfrwt beam="2">  1       -4 0.23986979E+00 0.12500193E+03</pdfrwt>
<totfact> 0.16749018E+03</totfact>
</mgrwt>
</event>
<event>
 5    1  0.3225662E-002  0.1249985E+03  0.7818608E-02  0.1235072E+00
          4   -1    0    0  501    0  0.00000000000E+00  0.00000000000E+00  0.52092650150E+03  0.52092804960E+03  0.12700000000E+01 0.  1.
         -4   -1    0    0    0  501 -0.00000000000E+00 -0.00000000000E+00 -0.74431391825E+01  0.75507099593E+01  0.12700000000E+01 0.  1.
         25    2    1    2    0    0  0.00000000000E+00  0.00000000000E+00  0.51348336232E+03  0.52847875956E+03  0.12499854373E+03 0.  0.
    9000005    1    3    3    0    0 -0.19250850487E+02  0.31089915089E+02  0.42492840865E+02  0.56069774295E+02  0.10000000000E+01 0.  0.
    9000005    1    3    3    0    0  0.19250850487E+02 -0.31089915089E+02  0.47099052145E+03  0.47240898527E+03  0.10000000000E+01 0.  0.
<mgrwt>
<rscale>  0 0.12499854E+03</rscale>
<asrwt>0</asrwt>
<pdfrwt beam="1">  1        4 0.80150930E-01 0.12499854E+03</pdfrwt>
<pdfrwt beam="2">  1       -4 0.11534921E-02 0.12499854E+03</pdfrwt>
<totfact> 0.53722261E+03</totfact>
</mgrwt>
</event>
<event>
 5    1  0.3225662E-002  0.1250009E+03  0.7818608E-02  0.1235068E+00
          4   -1    0    0  501    0  0.00000000000E+00  0.00000000000E+00  0.13558167539E+04  0.13558173487E+04  0.12700000000E+01 0.  1.
         -4   -1    0    0    0  501 -0.00000000000E+00 -0.00000000000E+00 -0.27405694483E+01  0.30205332147E+01  0.12700000000E+01 0.  1.
         25    2    1    2    0    0  0.00000000000E+00  0.00000000000E+00  0.13530761844E+04  0.13588378819E+04  0.12500091366E+03 0.  0.
    9000005    1    3    3    0    0 -0.56588850818E+02 -0.11675908175E+02  0.93531424831E+03  0.93709784332E+03  0.10000000000E+01 0.  0.
    9000005    1    3    3    0    0  0.56588850818E+02  0.11675908175E+02  0.41776193611E+03  0.42174003857E+03  0.10000000000E+01 0.  0.
<mgrwt>
<rscale>  0 0.12500091E+03</rscale>
<asrwt>0</asrwt>
<pdfrwt beam="1">  1        4 0.20860886E+00 0.12500091E+03</pdfrwt>
<pdfrwt beam="2">  1       -4 0.44320731E-03 0.12500091E+03</pdfrwt>
<totfact> 0.20880458E+03</totfact>
</mgrwt>
</event>
<event>
 5    1  0.3225662E-002  0.1250010E+03  0.7818608E-02  0.1235068E+00
          4   -1    0    0  501    0  0.00000000000E+00  0.00000000000E+00  0.17212876133E+02  0.17259664098E+02  0.12700000000E+01 0. -1.
         -4   -1    0    0    0  501 -0.00000000000E+00 -0.00000000000E+00 -0.22658459029E+03  0.22658814941E+03  0.12700000000E+01 0. -1.
         25    2    1    2    0    0  0.00000000000E+00  0.00000000000E+00 -0.20937171415E+03  0.24384781351E+03  0.12500096587E+03 0.  0.
    9000005    1    3    3    0    0 -0.52420106213E+02 -0.33306549654E+02 -0.91154140893E+02  0.11030535430E+03  0.10000000000E+01 0.  0.
    9000005    1    3    3    0    0  0.52420106213E+02  0.33306549654E+02 -0.11821757326E+03  0.13354245921E+03  0.10000000000E+01 0.  0.
<mgrwt>
<rscale>  0 0.12500097E+03</rscale>
<asrwt>0</asrwt>
<pdfrwt beam="1">  1        4 0.26520078E-02 0.12500097E+03</pdfrwt>
<pdfrwt beam="2">  1       -4 0.34863038E-01 0.12500097E+03</pdfrwt>
<totfact> 0.83225830E+03</totfact>
</mgrwt>
</event>
<event>
 5    1  0.3225662E-002  0.1250062E+03  0.7818608E-02  0.1235060E+00
          4   -1    0    0  501    0  0.00000000000E+00  0.00000000000E+00  0.19991424780E+03  0.19991828174E+03  0.12700000000E+01 0.  1.
         -4   -1    0    0    0  501 -0.00000000000E+00 -0.00000000000E+00 -0.19516701021E+02  0.19557978391E+02  0.12700000000E+01 0.  1.
         25    2    1    2    0    0  0.00000000000E+00  0.00000000000E+00  0.18039754678E+03  0.21947626013E+03  0.12500621535E+03 0.  0.
    9000005    1    3    3    0    0 -0.34133765986E+02  0.52350018567E+02  0.90187011227E+02  0.10972846221E+03  0.10000000000E+01 0.  0.
    9000005    1    3    3    0    0  0.34133765986E+02 -0.52350018567E+02  0.90210535555E+02  0.10974779793E+03  0.10000000000E+01 0.  0.
<mgrwt>
<rscale>  0 0.12500622E+03</rscale>
<asrwt>0</asrwt>
<pdfrwt beam="1">  1        4 0.30759525E-01 0.12500622E+03</pdfrwt>
<pdfrwt beam="2">  1       -4 0.30060547E-02 0.12500622E+03</pdfrwt>
<totfact> 0.86939219E+03</totfact>
</mgrwt>
</event>
<event>
 5    1  0.3225662E-002  0.1250091E+03  0.7818608E-02  0.1235055E+00
          4   -1    0    0  501    0  0.00000000000E+00  0.00000000000E+00  0.63494652987E+01  0.64752304653E+01  0.12700000000E+01 0.  1.
         -4   -1    0    0    0  501 -0.00000000000E+00 -0.00000000000E+00 -0.60913893340E+03  0.60914025732E+03  0.12700000000E+01 0.  1.
         25    2    1    2    0    0  0.00000000000E+00  0.00000000000E+00 -0.60278946811E+03  0.61561548779E+03  0.12500914344E+03 0.  0.
    9000005    1    3    3    0    0  0.30293493646E+02  0.88982087370E+01 -0.56699940469E+03  0.56787868317E+03  0.10000000000E+01 0.  0.
    9000005    1    3    3    0    0 -0.30293493646E+02 -0.88982087370E+01 -0.35790063417E+02  0.47736804621E+02  0.10000000000E+01 0.  0.
<mgrwt>
<rscale>  0 0.12500914E+03</rscale>
<asrwt>0</asrwt>
<pdfrwt beam="1">  1        4 0.98661738E-03 0.12500914E+03</pdfrwt>
<pdfrwt beam="2">  1       -4 0.93723412E-01 0.12500914E+03</pdfrwt>
<totfact> 0.47886941E+03</totfact>
</mgrwt>
</event>
<event>
 5    1  0.3225662E-002  0.1249995E+03  0.7818608E-02  0.1235070E+00
         -4   -1    0    0    0  501 -0.00000000000E+00  0.00000000000E+00  0.10735285566E+03  0.10736036754E+03  0.12700000000E+01 0.  1.
          4   -1    0    0  501    0  0.00000000000E+00 -0.00000000000E+00 -0.36366872824E+02  0.36389041469E+02  0.12700000000E+01 0.  1.
         25    2    1    2    0    0  0.00000000000E+00  0.00000000000E+00  0.70985982837E+02  0.14374940901E+03  0.12499953132E+03 0.  0.
    9000005    1    3    3    0    0 -0.31513258414E+02 -0.45731120961E+02  0.25459583739E+01  0.55604880939E+02  0.10000000000E+01 0.  0.
    9000005    1    3    3    0    0  0.31513258414E+02  0.45731120961E+02  0.68440024463E+02  0.88144528071E+02  0.10000000000E+01 0.  0.
<mgrwt>
<rscale>  0 0.12499953E+03</rscale>
<asrwt>0</asrwt>
<pdfrwt beam="2">  1        4 0.55971867E-02 0.12499953E+03</pdfrwt>
<pdfrwt beam="1">  1       -4 0.16518107E-01 0.12499953E+03</pdfrwt>
<totfact> 0.10056566E+04</totfact>
</mgrwt>
</event>
<event>
 5    1  0.3225662E-002  0.1250079E+03  0.7818608E-02  0.1235057E+00
         -4   -1    0    0    0  501 -0.00000000000E+00  0.00000000000E+00  0.36289914326E+03  0.36290136550E+03  0.12700000000E+01 0. -1.
          4   -1    0    0  501    0  0.00000000000E+00 -0.00000000000E+00 -0.10725643341E+02  0.10800570590E+02  0.12700000000E+01 0. -1.
         25    2    1    2    0    0  0.00000000000E+00  0.00000000000E+00  0.35217349992E+03  0.37370193609E+03  0.12500785171E+03 0.  0.
    9000005    1    3    3    0    0 -0.37769788805E+02  0.34787312412E+02  0.69593167941E+02  0.86492329575E+02  0.10000000000E+01 0.  0.
    9000005    1    3    3    0    0  0.37769788805E+02 -0.34787312412E+02  0.28258033198E+03  0.28720960652E+03  0.10000000000E+01 0.  0.
<mgrwt>
<rscale>  0 0.12500785E+03</rscale>
<asrwt>0</asrwt>
<pdfrwt beam="2">  1        4 0.16560336E-02 0.12500785E+03</pdfrwt>
<pdfrwt beam="1">  1       -4 0.55836569E-01 0.12500785E+03</pdfrwt>
<totfact> 0.67181755E+03</totfact>
</mgrwt>
</event>
<event>
 5    1  0.3225662E-002  0.1249993E+03  0.7818608E-02  0.1235070E+00
          4   -1    0    0  501    0  0.00000000000E+00  0.00000000000E+00  0.10673529888E+02  0.10748820413E+02  0.12700000000E+01 0.  1.
         -4   -1    0    0    0  501 -0.00000000000E+00 -0.00000000000E+00 -0.36460845305E+03  0.36461066487E+03  0.12700000000E+01 0.  1.
         25    2    1    2    0    0  0.00000000000E+00  0.00000000000E+00 -0.35393492316E+03  0.37535948528E+03  0.12499925343E+03 0.  0.
    9000005    1    3    3    0    0 -0.97905556505E+01 -0.38077028125E+01 -0.36195278321E+03  0.36210657389E+03  0.10000000000E+01 0.  0.
    9000005    1    3    3    0    0  0.97905556505E+01  0.38077028125E+01  0.80178600471E+01  0.13252911393E+02  0.10000000000E+01 0.  0.
<mgrwt>
<rscale>  0 0.12499925E+03</rscale>
<asrwt>0</asrwt>
<pdfrwt beam="1">  1        4 0.16480435E-02 0.12499925E+03</pdfrwt>
<pdfrwt beam="2">  1       -4 0.56099560E-01 0.12499925E+03</pdfrwt>
<totfact> 0.67023047E+03</totfact>
</mgrwt>
</event>
<event>
 5    1  0.3225662E-002  0.1250007E+03  0.7818608E-02  0.1235068E+00
          4   -1    0    0  501    0  0.00000000000E+00  0.00000000000E+00  0.75512619781E+02  0.75523298698E+02  0.12700000000E+01 0. -1.
         -4   -1    0    0    0  501 -0.00000000000E+00 -0.00000000000E+00 -0.51708191275E+02  0.51723785099E+02  0.12700000000E+01 0. -1.
         25    2    1    2    0    0  0.00000000000E+00  0.00000000000E+00  0.23804428506E+02  0.12724708380E+03  0.12500067807E+03 0.  0.
    9000005    1    3    3    0    0 -0.36481809368E+02 -0.36688001210E+02  0.47580041325E+02  0.70297881761E+02  0.10000000000E+01 0.  0.
    9000005    1    3    3    0    0  0.36481809368E+02  0.36688001210E+02 -0.23775612819E+02  0.56949202036E+02  0.10000000000E+01 0.  0.
<mgrwt>
<rscale>  0 0.12500068E+03</rscale>
<asrwt>0</asrwt>
<pdfrwt beam="1">  1        4 0.11619347E-01 0.12500068E+03</pdfrwt>
<pdfrwt beam="2">  1       -4 0.79571273E-02 0.12500068E+03</pdfrwt>
<totfact> 0.10403623E+04</totfact>
</mgrwt>
</event>
<event>
 5    1  0.3225662E-002  0.1249978E+03  0.7818608E-02  0.1235073E+00
         -4   -1    0    0    0  501 -0.00000000000E+00  0.00000000000E+00  0.23586193751E+02  0.23620360617E+02  0.12700000000E+01 0. -1.
          4   -1    0    0  501    0  0.00000000000E+00 -0.00000000000E+00 -0.16545378211E+03  0.16545865621E+03  0.12700000000E+01 0. -1.
         25    2    1    2    0    0  0.00000000000E+00  0.00000000000E+00 -0.14186758836E+03  0.18907901683E+03  0.12499784789E+03 0.  0.
    9000005    1    3    3    0    0 -0.37012661397E+02 -0.48904578533E+02 -0.52812137271E+02  0.80942675693E+02  0.10000000000E+01 0.  0.
    9000005    1    3    3    0    0  0.37012661397E+02  0.48904578533E+02 -0.89055451087E+02  0.10813634113E+03  0.10000000000E+01 0.  0.
<mgrwt>
<rscale>  0 0.12499785E+03</rscale>
<asrwt>0</asrwt>
<pdfrwt beam="2">  1        4 0.25457430E-01 0.12499785E+03</pdfrwt>
<pdfrwt beam="1">  1       -4 0.36316484E-02 0.12499785E+03</pdfrwt>
<totfact> 0.92012246E+03</totfact>
</mgrwt>
</event>
<event>
 5    1  0.3225662E-002  0.1249997E+03  0.7818608E-02  0.1235070E+00
          4   -1    0    0  501    0  0.00000000000E+00  0.00000000000E+00  0.18553416394E+02  0.18596831986E+02  0.12700000000E+01 0.  1.
         -4   -1    0    0    0  501 -0.00000000000E+00 -0.00000000000E+00 -0.21024839448E+03  0.21025223014E+03  0.12700000000E+01 0.  1.
         25    2    1    2    0    0  0.00000000000E+00  0.00000000000E+00 -0.19169497808E+03  0.22884906213E+03  0.12499971446E+03 0.  0.
    9000005    1    3    3    0    0 -0.50349756727E+02 -0.35332928415E+02 -0.75649036769E+02  0.97505336248E+02  0.10000000000E+01 0.  0.
    9000005    1    3    3    0    0  0.50349756727E+02  0.35332928415E+02 -0.11604594131E+03  0.13134372588E+03  0.10000000000E+01 0.  0.
<mgrwt>
<rscale>  0 0.12499971E+03</rscale>
<asrwt>0</asrwt>
<pdfrwt beam="1">  1        4 0.28580066E-02 0.12499971E+03</pdfrwt>
<pdfrwt beam="2">  1       -4 0.32349540E-01 0.12499971E+03</pdfrwt>
<totfact> 0.85487184E+03</totfact>
</mgrwt>
</event>
<event>
 5    1  0.3225662E-002  0.1250198E+03  0.7818608E-02  0.1235038E+00
          4   -1    0    0  501    0  0.00000000000E+00  0.00000000000E+00  0.83309874723E+02  0.83319554286E+02  0.12700000000E+01 0. -1.
         -4   -1    0    0    0  501 -0.00000000000E+00 -0.00000000000E+00 -0.46882071983E+02  0.46899270499E+02  0.12700000000E+01 0. -1.
         25    2    1    2    0    0  0.00000000000E+00  0.00000000000E+00  0.36427802741E+02  0.13021882479E+03  0.12501982849E+03 0.  0.
    9000005    1    3    3    0    0 -0.18447396726E+02  0.59501921925E+02  0.12933133349E+02  0.63632154584E+02  0.10000000000E+01 0.  0.
    9000005    1    3    3    0    0  0.18447396726E+02 -0.59501921925E+02  0.23494669392E+02  0.66586670202E+02  0.10000000000E+01 0.  0.
<mgrwt>
<rscale>  0 0.12501983E+03</rscale>
<asrwt>0</asrwt>
<pdfrwt beam="1">  1        4 0.12818971E-01 0.12501983E+03</pdfrwt>
<pdfrwt beam="2">  1       -4 0.72146940E-02 0.12501983E+03</pdfrwt>
<totfact> 0.10335202E+04</totfact>
</mgrwt>
</event>
<event>
 5    1  0.3225662E-002  0.1250030E+03  0.7818608E-02  0.1235065E+00
         -4   -1    0    0    0  501 -0.00000000000E+00  0.00000000000E+00  0.35028822788E+02  0.35051837697E+02  0.12700000000E+01 0. -1.
          4   -1    0    0  501    0  0.00000000000E+00 -0.00000000000E+00 -0.11145736286E+03  0.11146459813E+03  0.12700000000E+01 0. -1.
         25    2    1    2    0    0  0.00000000000E+00  0.00000000000E+00 -0.76428540072E+02  0.14651643582E+03  0.12500297688E+03 0.  0.
    9000005    1    3    3    0    0 -0.65676463138E+01 -0.55518806781E+02 -0.54799505463E+01  0.56182753069E+02  0.10000000000E+01 0.  0.
    9000005    1    3    3    0    0  0.65676463138E+01  0.55518806781E+02 -0.70948589526E+02  0.90333682755E+02  0.10000000000E+01 0.  0.
<mgrwt>
<rscale>  0 0.12500298E+03</rscale>
<asrwt>0</asrwt>
<pdfrwt beam="2">  1        4 0.17149613E-01 0.12500298E+03</pdfrwt>
<pdfrwt beam="1">  1       -4 0.53913766E-02 0.12500298E+03</pdfrwt>
<totfact> 0.99995982E+03</totfact>
</mgrwt>
</event>
<event>
 5    1  0.3225662E-002  0.1250011E+03  0.7818608E-02  0.1235068E+00
         -4   -1    0    0    0  501 -0.00000000000E+00  0.00000000000E+00  0.17175357739E+01  0.21360779795E+01  0.12700000000E+01 0.  1.
          4   -1    0    0  501    0  0.00000000000E+00 -0.00000000000E+00 -0.20269356384E+04  0.20269360363E+04  0.12700000000E+01 0.  1.
         25    2    1    2    0    0  0.00000000000E+00  0.00000000000E+00 -0.20252181026E+04  0.20290721142E+04  0.12500112642E+03 0.  0.
    9000005    1    3    3    0    0 -0.41558495397E+02 -0.65550024364E+01 -0.26252956017E+03  0.26588126403E+03  0.10000000000E+01 0.  0.
    9000005    1    3    3    0    0  0.41558495397E+02  0.65550024364E+01 -0.17626885424E+04  0.17631908502E+04  0.10000000000E+01 0.  0.
<mgrwt>
<rscale>  0 0.12500113E+03</rscale>
<asrwt>0</asrwt>
<pdfrwt beam="2">  1        4 0.31186677E+00 0.12500113E+03</pdfrwt>
<pdfrwt beam="1">  1       -4 0.29646405E-03 0.12500113E+03</pdfrwt>
<totfact> 0.94863941E+02</totfact>
</mgrwt>
</event>
<event>
 5    1  0.3225662E-002  0.1249977E+03  0.7818608E-02  0.1235073E+00
          4   -1    0    0  501    0  0.00000000000E+00  0.00000000000E+00  0.16186916535E+03  0.16187414738E+03  0.12700000000E+01 0.  1.
         -4   -1    0    0    0  501 -0.00000000000E+00 -0.00000000000E+00 -0.24109174972E+02  0.24142601720E+02  0.12700000000E+01 0.  1.
         25    2    1    2    0    0  0.00000000000E+00  0.00000000000E+00  0.13775999038E+03  0.18601674910E+03  0.12499766397E+03 0.  0.
    9000005    1    3    3    0    0  0.22275277048E+02 -0.15153011423E+02 -0.15030457487E+02  0.30866103982E+02  0.10000000000E+01 0.  0.
    9000005    1    3    3    0    0 -0.22275277048E+02  0.15153011423E+02  0.15279044786E+03  0.15515064512E+03  0.10000000000E+01 0.  0.
<mgrwt>
<rscale>  0 0.12499766E+03</rscale>
<asrwt>0</asrwt>
<pdfrwt beam="1">  1        4 0.24905902E-01 0.12499766E+03</pdfrwt>
<pdfrwt beam="2">  1       -4 0.37120585E-02 0.12499766E+03</pdfrwt>
<totfact> 0.92549888E+03</totfact>
</mgrwt>
</event>
<event>
 5    1  0.3225662E-002  0.1250038E+03  0.7818608E-02  0.1235063E+00
         -4   -1    0    0    0  501 -0.00000000000E+00  0.00000000000E+00  0.51726695418E+02  0.51742283665E+02  0.12700000000E+01 0.  1.
          4   -1    0    0  501    0  0.00000000000E+00 -0.00000000000E+00 -0.75489369282E+02  0.75500051488E+02  0.12700000000E+01 0.  1.
         25    2    1    2    0    0  0.00000000000E+00  0.00000000000E+00 -0.23762673864E+02  0.12724233515E+03  0.12500378869E+03 0.  0.
    9000005    1    3    3    0    0 -0.63313779552E+01 -0.71921123604E+01  0.50979511138E+02  0.51881821315E+02  0.10000000000E+01 0.  0.
    9000005    1    3    3    0    0  0.63313779552E+01  0.71921123604E+01 -0.74742185002E+02  0.75360513838E+02  0.10000000000E+01 0.  0.
<mgrwt>
<rscale>  0 0.12500379E+03</rscale>
<asrwt>0</asrwt>
<pdfrwt beam="2">  1        4 0.11615770E-01 0.12500379E+03</pdfrwt>
<pdfrwt beam="1">  1       -4 0.79599739E-02 0.12500379E+03</pdfrwt>
<totfact> 0.10402995E+04</totfact>
</mgrwt>
</event>
<event>
 5    1  0.3225662E-002  0.1250024E+03  0.7818608E-02  0.1235066E+00
          4   -1    0    0  501    0  0.00000000000E+00  0.00000000000E+00  0.85609401186E+01  0.86546285717E+01  0.12700000000E+01 0. -1.
         -4   -1    0    0    0  501 -0.00000000000E+00 -0.00000000000E+00 -0.45372686988E+03  0.45372864727E+03  0.12700000000E+01 0. -1.
         25    2    1    2    0    0  0.00000000000E+00  0.00000000000E+00 -0.44516592976E+03  0.46238327584E+03  0.12500235500E+03 0.  0.
    9000005    1    3    3    0    0  0.10373979711E+02 -0.52498715151E+01 -0.44970907975E+03  0.44986046394E+03  0.10000000000E+01 0.  0.
    9000005    1    3    3    0    0 -0.10373979711E+02  0.52498715151E+01  0.45431499911E+01  0.12522811897E+02  0.10000000000E+01 0.  0.
<mgrwt>
<rscale>  0 0.12500235E+03</rscale>
<asrwt>0</asrwt>
<pdfrwt beam="1">  1        4 0.13244116E-02 0.12500235E+03</pdfrwt>
<pdfrwt beam="2">  1       -4 0.69811458E-01 0.12500235E+03</pdfrwt>
<totfact> 0.58902800E+03</totfact>
</mgrwt>
</event>
<event>
 5    1  0.3225662E-002  0.1250027E+03  0.7818608E-02  0.1235065E+00
          4   -1    0    0  501    0  0.00000000000E+00  0.00000000000E+00  0.87434804011E+02  0.87444026968E+02  0.12700000000E+01 0. -1.
         -4   -1    0    0    0  501 -0.00000000000E+00 -0.00000000000E+00 -0.44657435546E+02  0.44675490479E+02  0.12700000000E+01 0. -1.
         25    2    1    2    0    0  0.00000000000E+00  0.00000000000E+00  0.42777368465E+02  0.13211951745E+03  0.12500265452E+03 0.  0.
    9000005    1    3    3    0    0 -0.20812212629E+02  0.50965253594E+02  0.52649821374E+02  0.76181421352E+02  0.10000000000E+01 0.  0.
    9000005    1    3    3    0    0  0.20812212629E+02 -0.50965253594E+02 -0.98724529094E+01  0.55938096096E+02  0.10000000000E+01 0.  0.
<mgrwt>
<rscale>  0 0.12500265E+03</rscale>
<asrwt>0</asrwt>
<pdfrwt beam="1">  1        4 0.13453607E-01 0.12500265E+03</pdfrwt>
<pdfrwt beam="2">  1       -4 0.68724730E-02 0.12500265E+03</pdfrwt>
<totfact> 0.10298531E+04</totfact>
</mgrwt>
</event>
<event>
 5    1  0.3225662E-002  0.1250016E+03  0.7818608E-02  0.1235067E+00
         -4   -1    0    0    0  501 -0.00000000000E+00  0.00000000000E+00  0.33835595059E+02  0.33859421038E+02  0.12700000000E+01 0.  1.
          4   -1    0    0  501    0  0.00000000000E+00 -0.00000000000E+00 -0.11538296278E+03  0.11538995190E+03  0.12700000000E+01 0.  1.
         25    2    1    2    0    0  0.00000000000E+00  0.00000000000E+00 -0.81547367722E+02  0.14924937294E+03  0.12500160855E+03 0.  0.
    9000005    1    3    3    0    0 -0.45689489073E+01  0.38607285862E+02  0.17645394070E+02  0.42705476787E+02  0.10000000000E+01 0.  0.
    9000005    1    3    3    0    0  0.45689489073E+01 -0.38607285862E+02 -0.99192761792E+02  0.10654389615E+03  0.10000000000E+01 0.  0.
<mgrwt>
<rscale>  0 0.12500161E+03</rscale>
<asrwt>0</asrwt>
<pdfrwt beam="2">  1        4 0.17753595E-01 0.12500161E+03</pdfrwt>
<pdfrwt beam="1">  1       -4 0.52078466E-02 0.12500161E+03</pdfrwt>
<totfact> 0.99449934E+03</totfact>
</mgrwt>
</event>
<event>
 5    1  0.3225662E-002  0.1249976E+03  0.7818608E-02  0.1235073E+00
          4   -1    0    0  501    0  0.00000000000E+00  0.00000000000E+00  0.12985079109E+02  0.13047037192E+02  0.12700000000E+01 0. -1.
         -4   -1    0    0    0  501 -0.00000000000E+00 -0.00000000000E+00 -0.30003540763E+03  0.30003809547E+03  0.12700000000E+01 0. -1.
         25    2    1    2    0    0  0.00000000000E+00  0.00000000000E+00 -0.28705032852E+03  0.31308513266E+03  0.12499763673E+03 0.  0.
    9000005    1    3    3    0    0  0.33811772390E+02  0.51737449297E+02 -0.12041876494E+03  0.13535759514E+03  0.10000000000E+01 0.  0.
    9000005    1    3    3    0    0 -0.33811772390E+02 -0.51737449297E+02 -0.16663156358E+03  0.17772753752E+03  0.10000000000E+01 0.  0.
<mgrwt>
<rscale>  0 0.12499764E+03</rscale>
<asrwt>0</asrwt>
<pdfrwt beam="1">  1        4 0.20026775E-02 0.12499764E+03</pdfrwt>
<pdfrwt beam="2">  1       -4 0.46164261E-01 0.12499764E+03</pdfrwt>
<totfact> 0.73990056E+03</totfact>
</mgrwt>
</event>
<event>
 5    1  0.3225662E-002  0.1250038E+03  0.7818608E-02  0.1235063E+00
          4   -1    0    0  501    0  0.00000000000E+00  0.00000000000E+00  0.38676554552E+02  0.38697400068E+02  0.12700000000E+01 0. -1.
         -4   -1    0    0    0  501 -0.00000000000E+00 -0.00000000000E+00 -0.10095200653E+03  0.10095999467E+03  0.12700000000E+01 0. -1.
         25    2    1    2    0    0  0.00000000000E+00  0.00000000000E+00 -0.62275451981E+02  0.13965739473E+03  0.12500382388E+03 0.  0.
    9000005    1    3    3    0    0  0.42308261473E+02  0.30858415162E+02  0.69669877244E+01  0.52837199898E+02  0.10000000000E+01 0.  0.
    9000005    1    3    3    0    0 -0.42308261473E+02 -0.30858415162E+02 -0.69242439705E+02  0.86820194836E+02  0.10000000000E+01 0.  0.
<mgrwt>
<rscale>  0 0.12500382E+03</rscale>
<asrwt>0</asrwt>
<pdfrwt beam="1">  1        4 0.59524572E-02 0.12500382E+03</pdfrwt>
<pdfrwt beam="2">  1       -4 0.15533296E-01 0.12500382E+03</pdfrwt>
<totfact> 0.10139818E+04</totfact>
</mgrwt>
</event>
<event>
 5    1  0.3225662E-002  0.1249934E+03  0.7818608E-02  0.1235080E+00
          4   -1    0    0  501    0  0.00000000000E+00  0.00000000000E+00  0.52089862093E+02  0.52105341693E+02  0.12700000000E+01 0. -1.
         -4   -1    0    0    0  501 -0.00000000000E+00 -0.00000000000E+00 -0.74950700457E+02  0.74961459424E+02  0.12700000000E+01 0. -1.
         25    2    1    2    0    0  0.00000000000E+00  0.00000000000E+00 -0.22860838364E+02  0.12706680112E+03  0.12499341589E+03 0.  0.
    9000005    1    3    3    0    0 -0.55224053619E+02  0.21252838190E+02  0.89890670886E+01  0.59859690581E+02  0.10000000000E+01 0.  0.
    9000005    1    3    3    0    0  0.55224053619E+02 -0.21252838190E+02 -0.31849905453E+02  0.67207110536E+02  0.10000000000E+01 0.  0.
<mgrwt>
<rscale>  0 0.12499342E+03</rscale>
<asrwt>0</asrwt>
<pdfrwt beam="1">  1        4 0.80158434E-02 0.12499342E+03</pdfrwt>
<pdfrwt beam="2">  1       -4 0.11532895E-01 0.12499342E+03</pdfrwt>
<totfact> 0.10409242E+04</totfact>
</mgrwt>
</event>
<event>
 5    1  0.3225662E-002  0.1250012E+03  0.7818608E-02  0.1235067E+00
         -4   -1    0    0    0  501 -0.00000000000E+00  0.00000000000E+00  0.11954060721E+03  0.11954735326E+03  0.12700000000E+01 0.  1.
          4   -1    0    0  501    0  0.00000000000E+00 -0.00000000000E+00 -0.32657782504E+02  0.32682467135E+02  0.12700000000E+01 0.  1.
         25    2    1    2    0    0  0.00000000000E+00  0.00000000000E+00  0.86882824702E+02  0.15222982039E+03  0.12500117195E+03 0.  0.
    9000005    1    3    3    0    0 -0.38338832195E+01 -0.26205305919E+02 -0.25491331990E+02  0.36772608358E+02  0.10000000000E+01 0.  0.
    9000005    1    3    3    0    0  0.38338832195E+01  0.26205305919E+02  0.11237415669E+03  0.11545721204E+03  0.10000000000E+01 0.  0.
<mgrwt>
<rscale>  0 0.12500117E+03</rscale>
<asrwt>0</asrwt>
<pdfrwt beam="2">  1        4 0.50266920E-02 0.12500117E+03</pdfrwt>
<pdfrwt beam="1">  1       -4 0.18393280E-01 0.12500117E+03</pdfrwt>
<totfact> 0.98858453E+03</totfact>
</mgrwt>
</event>
<event>
 5    1  0.3225662E-002  0.1250015E+03  0.7818608E-02  0.1235067E+00
          4   -1    0    0  501    0  0.00000000000E+00  0.00000000000E+00  0.73894175915E+02  0.73905088689E+02  0.12700000000E+01 0.  1.
         -4   -1    0    0    0  501 -0.00000000000E+00 -0.00000000000E+00 -0.52841591108E+02  0.52856850558E+02  0.12700000000E+01 0.  1.
         25    2    1    2    0    0  0.00000000000E+00  0.00000000000E+00  0.21052584807E+02  0.12676193925E+03  0.12500151165E+03 0.  0.
    9000005    1    3    3    0    0  0.36537773039E+02 -0.53567120238E+01  0.61650988011E+02  0.71871743718E+02  0.10000000000E+01 0.  0.
    9000005    1    3    3    0    0 -0.36537773039E+02  0.53567120238E+01 -0.40598403205E+02  0.54890195528E+02  0.10000000000E+01 0.  0.
<mgrwt>
<rscale>  0 0.12500151E+03</rscale>
<asrwt>0</asrwt>
<pdfrwt beam="1">  1        4 0.11370348E-01 0.12500151E+03</pdfrwt>
<pdfrwt beam="2">  1       -4 0.81314888E-02 0.12500151E+03</pdfrwt>
<totfact> 0.10413967E+04</totfact>
</mgrwt>
</event>
<event>
 5    1  0.3225662E-002  0.1250018E+03  0.7818608E-02  0.1235066E+00
         -4   -1    0    0    0  501 -0.00000000000E+00  0.00000000000E+00  0.24641403727E+02  0.24674109460E+02  0.12700000000E+01 0.  1.
          4   -1    0    0  501    0  0.00000000000E+00 -0.00000000000E+00 -0.15838797769E+03  0.15839306922E+03  0.12700000000E+01 0.  1.
         25    2    1    2    0    0  0.00000000000E+00  0.00000000000E+00 -0.13374657396E+03  0.18306717868E+03  0.12500178344E+03 0.  0.
    9000005    1    3    3    0    0  0.55417138705E+02 -0.16464457267E+02 -0.10162968787E+03  0.11692617787E+03  0.10000000000E+01 0.  0.
    9000005    1    3    3    0    0 -0.55417138705E+02  0.16464457267E+02 -0.32116886093E+02  0.66141000807E+02  0.10000000000E+01 0.  0.
<mgrwt>
<rscale>  0 0.12500178E+03</rscale>
<asrwt>0</asrwt>
<pdfrwt beam="2">  1        4 0.24370288E-01 0.12500178E+03</pdfrwt>
<pdfrwt beam="1">  1       -4 0.37938928E-02 0.12500178E+03</pdfrwt>
<totfact> 0.93064076E+03</totfact>
</mgrwt>
</event>
<event>
 5    1  0.3225662E-002  0.1249960E+03  0.7818608E-02  0.1235076E+00
          4   -1    0    0  501    0  0.00000000000E+00  0.00000000000E+00  0.67759808633E+01  0.68939695865E+01  0.12700000000E+01 0. -1.
         -4   -1    0    0    0  501 -0.00000000000E+00 -0.00000000000E+00 -0.57135347581E+03  0.57135488728E+03  0.12700000000E+01 0. -1.
         25    2    1    2    0    0  0.00000000000E+00  0.00000000000E+00 -0.56457749494E+03  0.57824885686E+03  0.12499597061E+03 0.  0.
    9000005    1    3    3    0    0 -0.10083341118E+02 -0.41249738614E+02 -0.70202379388E+02  0.82052353870E+02  0.10000000000E+01 0.  0.
    9000005    1    3    3    0    0  0.10083341118E+02  0.41249738614E+02 -0.49437511556E+03  0.49619650299E+03  0.10000000000E+01 0.  0.
<mgrwt>
<rscale>  0 0.12499597E+03</rscale>
<asrwt>0</asrwt>
<pdfrwt beam="1">  1        4 0.10516437E-02 0.12499597E+03</pdfrwt>
<pdfrwt beam="2">  1       -4 0.87909682E-01 0.12499597E+03</pdfrwt>
<totfact> 0.50274493E+03</totfact>
</mgrwt>
</event>
<event>
 5    1  0.3225662E-002  0.1250184E+03  0.7818608E-02  0.1235041E+00
          4   -1    0    0  501    0  0.00000000000E+00  0.00000000000E+00  0.30601896462E+02  0.30628238067E+02  0.12700000000E+01 0. -1.
         -4   -1    0    0    0  501 -0.00000000000E+00 -0.00000000000E+00 -0.12760040633E+03  0.12760672629E+03  0.12700000000E+01 0. -1.
         25    2    1    2    0    0  0.00000000000E+00  0.00000000000E+00 -0.96998509863E+02  0.15823496436E+03  0.12501837077E+03 0.  0.
    9000005    1    3    3    0    0  0.37354593707E+02 -0.44328853942E+02 -0.78073869370E+02  0.97246809929E+02  0.10000000000E+01 0.  0.
    9000005    1    3    3    0    0 -0.37354593707E+02  0.44328853942E+02 -0.18924640493E+02  0.60988154429E+02  0.10000000000E+01 0.  0.
<mgrwt>
<rscale>  0 0.12501837E+03</rscale>
<asrwt>0</asrwt>
<pdfrwt beam="1">  1        4 0.47104966E-02 0.12501837E+03</pdfrwt>
<pdfrwt beam="2">  1       -4 0.19633344E-01 0.12501837E+03</pdfrwt>
<totfact> 0.97643820E+03</totfact>
</mgrwt>
</event>
<event>
 5    1  0.3225662E-002  0.1249983E+03  0.7818608E-02  0.1235072E+00
          4   -1    0    0  501    0  0.00000000000E+00  0.00000000000E+00  0.15345020365E+03  0.15345545901E+03  0.12700000000E+01 0.  1.
         -4   -1    0    0    0  501 -0.00000000000E+00 -0.00000000000E+00 -0.25433922277E+02  0.25465610191E+02  0.12700000000E+01 0.  1.
         25    2    1    2    0    0  0.00000000000E+00  0.00000000000E+00  0.12801628137E+03  0.17892106920E+03  0.12499832282E+03 0.  0.
    9000005    1    3    3    0    0 -0.13312464769E+02 -0.59057964552E+02  0.41829468344E+02  0.73591910677E+02  0.10000000000E+01 0.  0.
    9000005    1    3    3    0    0  0.13312464769E+02  0.59057964552E+02  0.86186813028E+02  0.10532915852E+03  0.10000000000E+01 0.  0.
<mgrwt>
<rscale>  0 0.12499832E+03</rscale>
<asrwt>0</asrwt>
<pdfrwt beam="1">  1        4 0.23610565E-01 0.12499832E+03</pdfrwt>
<pdfrwt beam="2">  1       -4 0.39157530E-02 0.12499832E+03</pdfrwt>
<totfact> 0.93815104E+03</totfact>
</mgrwt>
</event>
<event>
 5    1  0.3225662E-002  0.1249918E+03  0.7818608E-02  0.1235082E+00
          4   -1    0    0  501    0  0.00000000000E+00  0.00000000000E+00  0.32179570273E+02  0.32204621453E+02  0.12700000000E+01 0. -1.
         -4   -1    0    0    0  501 -0.00000000000E+00 -0.00000000000E+00 -0.12129756006E+03  0.12130420841E+03  0.12700000000E+01 0. -1.
         25    2    1    2    0    0  0.00000000000E+00  0.00000000000E+00 -0.89117989788E+02  0.15350882986E+03  0.12499177869E+03 0.  0.
    9000005    1    3    3    0    0 -0.51236728124E+02  0.13910755385E+02 -0.40854003716E+01  0.53257881299E+02  0.10000000000E+01 0.  0.
    9000005    1    3    3    0    0  0.51236728124E+02 -0.13910755385E+02 -0.85032589417E+02  0.10025094856E+03  0.10000000000E+01 0.  0.
<mgrwt>
<rscale>  0 0.12499178E+03</rscale>
<asrwt>0</asrwt>
<pdfrwt beam="1">  1        4 0.49531416E-02 0.12499178E+03</pdfrwt>
<pdfrwt beam="2">  1       -4 0.18663601E-01 0.12499178E+03</pdfrwt>
<totfact> 0.98627048E+03</totfact>
</mgrwt>
</event>
<event>
 5    1  0.3225662E-002  0.1250029E+03  0.7818608E-02  0.1235065E+00
         -4   -1    0    0    0  501 -0.00000000000E+00  0.00000000000E+00  0.31045654087E+02  0.31071619489E+02  0.12700000000E+01 0. -1.
          4   -1    0    0  501    0  0.00000000000E+00 -0.00000000000E+00 -0.12574680813E+03  0.12575322125E+03  0.12700000000E+01 0. -1.
         25    2    1    2    0    0  0.00000000000E+00  0.00000000000E+00 -0.94701154040E+02  0.15682484074E+03  0.12500288835E+03 0.  0.
    9000005    1    3    3    0    0  0.10576310961E+02 -0.28109309968E+02  0.21404410118E+02  0.36893636754E+02  0.10000000000E+01 0.  0.
    9000005    1    3    3    0    0 -0.10576310961E+02  0.28109309968E+02 -0.11610556416E+03  0.11993120398E+03  0.10000000000E+01 0.  0.
<mgrwt>
<rscale>  0 0.12500289E+03</rscale>
<asrwt>0</asrwt>
<pdfrwt beam="2">  1        4 0.19348153E-01 0.12500289E+03</pdfrwt>
<pdfrwt beam="1">  1       -4 0.47787452E-02 0.12500289E+03</pdfrwt>
<totfact> 0.97952085E+03</totfact>
</mgrwt>
</event>
<event>
 5    1  0.3225662E-002  0.1249953E+03  0.7818608E-02  0.1235077E+00
         -4   -1    0    0    0  501 -0.00000000000E+00  0.00000000000E+00  0.28645567948E+02  0.28673706825E+02  0.12700000000E+01 0.  1.
          4   -1    0    0  501    0  0.00000000000E+00 -0.00000000000E+00 -0.13625667071E+03  0.13626258919E+03  0.12700000000E+01 0.  1.
         25    2    1    2    0    0  0.00000000000E+00  0.00000000000E+00 -0.10761110276E+03  0.16493629602E+03  0.12499532914E+03 0.  0.
    9000005    1    3    3    0    0  0.59930047438E+02  0.17018231502E+02 -0.47377986116E+02  0.78274544762E+02  0.10000000000E+01 0.  0.
    9000005    1    3    3    0    0 -0.59930047438E+02 -0.17018231502E+02 -0.60233116645E+02  0.86661751253E+02  0.10000000000E+01 0.  0.
<mgrwt>
<rscale>  0 0.12499533E+03</rscale>
<asrwt>0</asrwt>
<pdfrwt beam="2">  1        4 0.20965184E-01 0.12499533E+03</pdfrwt>
<pdfrwt beam="1">  1       -4 0.44096303E-02 0.12499533E+03</pdfrwt>
<totfact> 0.96409574E+03</totfact>
</mgrwt>
</event>
<event>
 5    1  0.3225662E-002  0.1250030E+03  0.7818608E-02  0.1235065E+00
         -4   -1    0    0    0  501 -0.00000000000E+00  0.00000000000E+00  0.46648169327E+03  0.46648342206E+03  0.12700000000E+01 0. -1.
          4   -1    0    0  501    0  0.00000000000E+00 -0.00000000000E+00 -0.83243512104E+01  0.84206723647E+01  0.12700000000E+01 0. -1.
         25    2    1    2    0    0  0.00000000000E+00  0.00000000000E+00  0.45815734206E+03  0.47490409442E+03  0.12500299523E+03 0.  0.
    9000005    1    3    3    0    0  0.50850329007E+02  0.27931808179E+02  0.14083585849E+03  0.15232097986E+03  0.10000000000E+01 0.  0.
    9000005    1    3    3    0    0 -0.50850329007E+02 -0.27931808179E+02  0.31732148357E+03  0.32258311456E+03  0.10000000000E+01 0.  0.
<mgrwt>
<rscale>  0 0.12500300E+03</rscale>
<asrwt>0</asrwt>
<pdfrwt beam="2">  1        4 0.12882115E-02 0.12500300E+03</pdfrwt>
<pdfrwt beam="1">  1       -4 0.71773967E-01 0.12500300E+03</pdfrwt>
<totfact> 0.57861646E+03</totfact>
</mgrwt>
</event>
<event>
 5    1  0.3225662E-002  0.1249997E+03  0.7818608E-02  0.1235070E+00
         -4   -1    0    0    0  501 -0.00000000000E+00  0.00000000000E+00  0.26742191737E+02  0.26772331219E+02  0.12700000000E+01 0. -1.
          4   -1    0    0  501    0  0.00000000000E+00 -0.00000000000E+00 -0.14595485886E+03  0.14596038409E+03  0.12700000000E+01 0. -1.
         25    2    1    2    0    0  0.00000000000E+00  0.00000000000E+00 -0.11921266712E+03  0.17273271531E+03  0.12499972375E+03 0.  0.
    9000005    1    3    3    0    0 -0.61861613057E+02 -0.88130565546E+01 -0.58447214763E+02  0.85566383874E+02  0.10000000000E+01 0.  0.
    9000005    1    3    3    0    0  0.61861613057E+02  0.88130565546E+01 -0.60765452359E+02  0.87166331437E+02  0.10000000000E+01 0.  0.
<mgrwt>
<rscale>  0 0.12499972E+03</rscale>
<asrwt>0</asrwt>
<pdfrwt beam="2">  1        4 0.22457337E-01 0.12499972E+03</pdfrwt>
<pdfrwt beam="1">  1       -4 0.41169269E-02 0.12499972E+03</pdfrwt>
<totfact> 0.94942325E+03</totfact>
</mgrwt>
</event>
<event>
 5    1  0.3225662E-002  0.1250009E+03  0.7818608E-02  0.1235068E+00
         -4   -1    0    0    0  501 -0.00000000000E+00  0.00000000000E+00  0.23519000693E+03  0.23519343583E+03  0.12700000000E+01 0.  1.
          4   -1    0    0  501    0  0.00000000000E+00 -0.00000000000E+00 -0.16581318104E+02  0.16629883044E+02  0.12700000000E+01 0.  1.
         25    2    1    2    0    0  0.00000000000E+00  0.00000000000E+00  0.21860868882E+03  0.25182331887E+03  0.12500090040E+03 0.  0.
    9000005    1    3    3    0    0  0.50143360481E+02  0.15442241349E+02  0.17769563398E+03  0.18528237302E+03  0.10000000000E+01 0.  0.
    9000005    1    3    3    0    0 -0.50143360481E+02 -0.15442241349E+02  0.40913054845E+02  0.66540945853E+02  0.10000000000E+01 0.  0.
<mgrwt>
<rscale>  0 0.12500090E+03</rscale>
<asrwt>0</asrwt>
<pdfrwt beam="2">  1        4 0.25549715E-02 0.12500090E+03</pdfrwt>
<pdfrwt beam="1">  1       -4 0.36187078E-01 0.12500090E+03</pdfrwt>
<totfact> 0.82065767E+03</totfact>
</mgrwt>
</event>
<event>
 5    1  0.3225662E-002  0.1249991E+03  0.7818608E-02  0.1235071E+00
         -4   -1    0    0    0  501 -0.00000000000E+00  0.00000000000E+00  0.11256479612E+03  0.11257196021E+03  0.12700000000E+01 0. -1.
          4   -1    0    0  501    0  0.00000000000E+00 -0.00000000000E+00 -0.34681850173E+02  0.34705095180E+02  0.12700000000E+01 0. -1.
         25    2    1    2    0    0  0.00000000000E+00  0.00000000000E+00  0.77882945945E+02  0.14727705539E+03  0.12499911110E+03 0.  0.
    9000005    1    3    3    0    0 -0.45024685979E+00 -0.82218376331E+01  0.11192860746E+03  0.11223553138E+03  0.10000000000E+01 0.  0.
    9000005    1    3    3    0    0  0.45024685979E+00  0.82218376331E+01 -0.34045661518E+02  0.35041524004E+02  0.10000000000E+01 0.  0.
<mgrwt>
<rscale>  0 0.12499911E+03</rscale>
<asrwt>0</asrwt>
<pdfrwt beam="2">  1        4 0.53380082E-02 0.12499911E+03</pdfrwt>
<pdfrwt beam="1">  1       -4 0.17320001E-01 0.12499911E+03</pdfrwt>
<totfact> 0.99851269E+03</totfact>
</mgrwt>
</event>
<event>
 5    1  0.3225662E-002  0.1250051E+03  0.7818608E-02  0.1235061E+00
          4   -1    0    0  501    0  0.00000000000E+00  0.00000000000E+00  0.36474120100E+02  0.36496223600E+02  0.12700000000E+01 0.  1.
         -4   -1    0    0    0  501 -0.00000000000E+00 -0.00000000000E+00 -0.10704696859E+03  0.10705450193E+03  0.12700000000E+01 0.  1.
         25    2    1    2    0    0  0.00000000000E+00  0.00000000000E+00 -0.70572848488E+02  0.14355072553E+03  0.12500513532E+03 0.  0.
    9000005    1    3    3    0    0 -0.14754495882E+02  0.10796673101E+02 -0.10391281681E+03  0.10551368061E+03  0.10000000000E+01 0.  0.
    9000005    1    3    3    0    0  0.14754495882E+02 -0.10796673101E+02  0.33339968320E+02  0.38037044922E+02  0.10000000000E+01 0.  0.
<mgrwt>
<rscale>  0 0.12500514E+03</rscale>
<asrwt>0</asrwt>
<pdfrwt beam="1">  1        4 0.56136829E-02 0.12500514E+03</pdfrwt>
<pdfrwt beam="2">  1       -4 0.16471044E-01 0.12500514E+03</pdfrwt>
<totfact> 0.10059354E+04</totfact>
</mgrwt>
</event>
<event>
 5    1  0.3225662E-002  0.1250024E+03  0.7818608E-02  0.1235066E+00
          4   -1    0    0  501    0  0.00000000000E+00  0.00000000000E+00  0.11774179979E+03  0.11774864890E+03  0.12700000000E+01 0. -1.
         -4   -1    0    0    0  501 -0.00000000000E+00 -0.00000000000E+00 -0.33157687077E+02  0.33181999823E+02  0.12700000000E+01 0. -1.
         25    2    1    2    0    0  0.00000000000E+00  0.00000000000E+00  0.84584112716E+02  0.15093064873E+03  0.12500235438E+03 0.  0.
    9000005    1    3    3    0    0 -0.17423444618E+02  0.57395896735E+02  0.63466121108E+02  0.87331631800E+02  0.10000000000E+01 0.  0.
    9000005    1    3    3    0    0  0.17423444618E+02 -0.57395896735E+02  0.21117991608E+02  0.63599016925E+02  0.10000000000E+01 0.  0.
<mgrwt>
<rscale>  0 0.12500235E+03</rscale>
<asrwt>0</asrwt>
<pdfrwt beam="1">  1        4 0.18116520E-01 0.12500235E+03</pdfrwt>
<pdfrwt beam="2">  1       -4 0.51035797E-02 0.12500235E+03</pdfrwt>
<totfact> 0.99113259E+03</totfact>
</mgrwt>
</event>
<event>
 5    1  0.3225662E-002  0.1249968E+03  0.7818608E-02  0.1235074E+00
          4   -1    0    0  501    0  0.00000000000E+00  0.00000000000E+00  0.28098549695E+03  0.28098836701E+03  0.12700000000E+01 0.  1.
         -4   -1    0    0    0  501 -0.00000000000E+00 -0.00000000000E+00 -0.13869297136E+02  0.13927322177E+02  0.12700000000E+01 0.  1.
         25    2    1    2    0    0  0.00000000000E+00  0.00000000000E+00  0.26711619981E+03  0.29491568919E+03  0.12499679807E+03 0.  0.
    9000005    1    3    3    0    0 -0.31635617353E+01  0.47392537385E+02  0.22936744889E+03  0.23423596507E+03  0.10000000000E+01 0.  0.
    9000005    1    3    3    0    0  0.31635617353E+01 -0.47392537385E+02  0.37748750923E+02  0.60679724117E+02  0.10000000000E+01 0.  0.
<mgrwt>
<rscale>  0 0.12499680E+03</rscale>
<asrwt>0</asrwt>
<pdfrwt beam="1">  1        4 0.43233219E-01 0.12499680E+03</pdfrwt>
<pdfrwt beam="2">  1       -4 0.21384224E-02 0.12499680E+03</pdfrwt>
<totfact> 0.76246486E+03</totfact>
</mgrwt>
</event>
<event>
 5    1  0.3225662E-002  0.1250054E+03  0.7818608E-02  0.1235061E+00
          4   -1    0    0  501    0  0.00000000000E+00  0.00000000000E+00  0.15855314749E+02  0.15906096498E+02  0.12700000000E+01 0. -1.
         -4   -1    0    0    0  501 -0.00000000000E+00 -0.00000000000E+00 -0.24594348105E+03  0.24594676004E+03  0.12700000000E+01 0. -1.
         25    2    1    2    0    0  0.00000000000E+00  0.00000000000E+00 -0.23008816630E+03  0.26185285654E+03  0.12500541669E+03 0.  0.
    9000005    1    3    3    0    0 -0.99292296052E+01 -0.24779828817E+02  0.33214223261E+01  0.26919534970E+02  0.10000000000E+01 0.  0.
    9000005    1    3    3    0    0  0.99292296052E+01  0.24779828817E+02 -0.23340958863E+03  0.23493332157E+03  0.10000000000E+01 0.  0.
<mgrwt>
<rscale>  0 0.12500542E+03</rscale>
<asrwt>0</asrwt>
<pdfrwt beam="1">  1        4 0.24434379E-02 0.12500542E+03</pdfrwt>
<pdfrwt beam="2">  1       -4 0.37841614E-01 0.12500542E+03</pdfrwt>
<totfact> 0.80637019E+03</totfact>
</mgrwt>
</event>
<event>
 5    1  0.3225662E-002  0.1249975E+03  0.7818608E-02  0.1235073E+00
         -4   -1    0    0    0  501 -0.00000000000E+00  0.00000000000E+00  0.53310019723E+01  0.54801899628E+01  0.12700000000E+01 0.  1.
          4   -1    0    0  501    0  0.00000000000E+00 -0.00000000000E+00 -0.72245155864E+03  0.72245267491E+03  0.12700000000E+01 0.  1.
         25    2    1    2    0    0  0.00000000000E+00  0.00000000000E+00 -0.71712055667E+03  0.72793286487E+03  0.12499745183E+03 0.  0.
    9000005    1    3    3    0    0 -0.98205589114E+01 -0.13115811901E+02 -0.70974798005E+03  0.70993778818E+03  0.10000000000E+01 0.  0.
    9000005    1    3    3    0    0  0.98205589114E+01  0.13115811901E+02 -0.73725766181E+01  0.17995076692E+02  0.10000000000E+01 0.  0.
<mgrwt>
<rscale>  0 0.12499745E+03</rscale>
<asrwt>0</asrwt>
<pdfrwt beam="2">  1        4 0.11115788E+00 0.12499745E+03</pdfrwt>
<pdfrwt beam="1">  1       -4 0.83171659E-03 0.12499745E+03</pdfrwt>
<totfact> 0.41654838E+03</totfact>
</mgrwt>
</event>
<event>
 5    1  0.3225662E-002  0.1250038E+03  0.7818608E-02  0.1235063E+00
         -4   -1    0    0    0  501 -0.00000000000E+00  0.00000000000E+00  0.50824598611E+02  0.50840463451E+02  0.12700000000E+01 0. -1.
          4   -1    0    0  501    0  0.00000000000E+00 -0.00000000000E+00 -0.76829043888E+02  0.76839539852E+02  0.12700000000E+01 0. -1.
         25    2    1    2    0    0  0.00000000000E+00  0.00000000000E+00 -0.26004445277E+02  0.12768000330E+03  0.12500380822E+03 0.  0.
    9000005    1    3    3    0    0 -0.41981086598E+02  0.46283599979E+02 -0.13973774431E+02  0.64037876532E+02  0.10000000000E+01 0.  0.
    9000005    1    3    3    0    0  0.41981086598E+02 -0.46283599979E+02 -0.12030670847E+02  0.63642126771E+02  0.10000000000E+01 0.  0.
<mgrwt>
<rscale>  0 0.12500381E+03</rscale>
<asrwt>0</asrwt>
<pdfrwt beam="2">  1        4 0.11821881E-01 0.12500381E+03</pdfrwt>
<pdfrwt beam="1">  1       -4 0.78211968E-02 0.12500381E+03</pdfrwt>
<totfact> 0.10393511E+04</totfact>
</mgrwt>
</event>
<event>
 5    1  0.3225662E-002  0.1249994E+03  0.7818608E-02  0.1235070E+00
         -4   -1    0    0    0  501 -0.00000000000E+00  0.00000000000E+00  0.12781422768E+02  0.12844363276E+02  0.12700000000E+01 0.  1.
          4   -1    0    0  501    0  0.00000000000E+00 -0.00000000000E+00 -0.30480147725E+03  0.30480412306E+03  0.12700000000E+01 0.  1.
         25    2    1    2    0    0  0.00000000000E+00  0.00000000000E+00 -0.29202005449E+03  0.31764848634E+03  0.12499939460E+03 0.  0.
    9000005    1    3    3    0    0 -0.36279659130E+02 -0.33530148781E+02 -0.24326623152E+03  0.24823364789E+03  0.10000000000E+01 0.  0.
    9000005    1    3    3    0    0  0.36279659130E+02  0.33530148781E+02 -0.48753822963E+02  0.69414838453E+02  0.10000000000E+01 0.  0.
<mgrwt>
<rscale>  0 0.12499939E+03</rscale>
<asrwt>0</asrwt>
<pdfrwt beam="2">  1        4 0.46897575E-01 0.12499939E+03</pdfrwt>
<pdfrwt beam="1">  1       -4 0.19714181E-02 0.12499939E+03</pdfrwt>
<totfact> 0.73437670E+03</totfact>
</mgrwt>
</event>
<event>
 5    1  0.3225662E-002  0.1250000E+03  0.7818608E-02  0.1235069E+00
         -4   -1    0    0    0  501 -0.00000000000E+00  0.00000000000E+00  0.14793308944E+03  0.14793854079E+03  0.12700000000E+01 0. -1.
          4   -1    0    0  501    0  0.00000000000E+00 -0.00000000000E+00 -0.26384310985E+02  0.26414858814E+02  0.12700000000E+01 0. -1.
         25    2    1    2    0    0  0.00000000000E+00  0.00000000000E+00  0.12154877845E+03  0.17435339960E+03  0.12500000964E+03 0.  0.
    9000005    1    3    3    0    0  0.26928607782E+02 -0.72207174055E+01 -0.17235758865E+02  0.32792683034E+02  0.10000000000E+01 0.  0.
    9000005    1    3    3    0    0 -0.26928607782E+02  0.72207174055E+01  0.13878453732E+03  0.14156071657E+03  0.10000000000E+01 0.  0.
<mgrwt>
<rscale>  0 0.12500001E+03</rscale>
<asrwt>0</asrwt>
<pdfrwt beam="2">  1        4 0.40618940E-02 0.12500001E+03</pdfrwt>
<pdfrwt beam="1">  1       -4 0.22761706E-01 0.12500001E+03</pdfrwt>
<totfact> 0.94643377E+03</totfact>
</mgrwt>
</event>
<event>
 5    1  0.3225662E-002  0.1250059E+03  0.7818608E-02  0.1235060E+00
         -4   -1    0    0    0  501 -0.00000000000E+00  0.00000000000E+00  0.35759589685E+02  0.35782134570E+02  0.12700000000E+01 0.  1.
          4   -1    0    0  501    0  0.00000000000E+00 -0.00000000000E+00 -0.10918599839E+03  0.10919338416E+03  0.12700000000E+01 0.  1.
         25    2    1    2    0    0  0.00000000000E+00  0.00000000000E+00 -0.73426408701E+02  0.14497551873E+03  0.12500585400E+03 0.  0.
    9000005    1    3    3    0    0  0.52710497757E+02 -0.33480799098E+02 -0.39613831599E+02  0.73956853206E+02  0.10000000000E+01 0.  0.
    9000005    1    3    3    0    0 -0.52710497757E+02  0.33480799098E+02 -0.33812577101E+02  0.71018665520E+02  0.10000000000E+01 0.  0.
<mgrwt>
<rscale>  0 0.12500585E+03</rscale>
<asrwt>0</asrwt>
<pdfrwt beam="2">  1        4 0.16800148E-01 0.12500585E+03</pdfrwt>
<pdfrwt beam="1">  1       -4 0.55037778E-02 0.12500585E+03</pdfrwt>
<totfact> 0.10030164E+04</totfact>
</mgrwt>
</event>
<event>
 5    1  0.3225662E-002  0.1250032E+03  0.7818608E-02  0.1235064E+00
          4   -1    0    0  501    0  0.00000000000E+00  0.00000000000E+00  0.78575980624E+01  0.79595695430E+01  0.12700000000E+01 0. -1.
         -4   -1    0    0    0  501 -0.00000000000E+00 -0.00000000000E+00 -0.49384760116E+03  0.49384923415E+03  0.12700000000E+01 0. -1.
         25    2    1    2    0    0  0.00000000000E+00  0.00000000000E+00 -0.48599000310E+03  0.50180880369E+03  0.12500316938E+03 0.  0.
    9000005    1    3    3    0    0  0.31689961477E+02 -0.53781796427E+02 -0.23114560585E+03  0.23942854130E+03  0.10000000000E+01 0.  0.
    9000005    1    3    3    0    0 -0.31689961477E+02  0.53781796427E+02 -0.25484439725E+03  0.26238026239E+03  0.10000000000E+01 0.  0.
<mgrwt>
<rscale>  0 0.12500317E+03</rscale>
<asrwt>0</asrwt>
<pdfrwt beam="1">  1        4 0.12168312E-02 0.12500317E+03</pdfrwt>
<pdfrwt beam="2">  1       -4 0.75984499E-01 0.12500317E+03</pdfrwt>
<totfact> 0.55720426E+03</totfact>
</mgrwt>
</event>
<event>
 5    1  0.3225662E-002  0.1250009E+03  0.7818608E-02  0.1235068E+00
          4   -1    0    0  501    0  0.00000000000E+00  0.00000000000E+00  0.20666575800E+03  0.20666966016E+03  0.12700000000E+01 0.  1.
         -4   -1    0    0    0  501 -0.00000000000E+00 -0.00000000000E+00 -0.18876139201E+02  0.18918814210E+02  0.12700000000E+01 0.  1.
         25    2    1    2    0    0  0.00000000000E+00  0.00000000000E+00  0.18778961880E+03  0.22558847437E+03  0.12500087535E+03 0.  0.
    9000005    1    3    3    0    0  0.17021063967E+02  0.22312527819E+02 -0.68734470394E+01  0.28910375135E+02  0.10000000000E+01 0.  0.
    9000005    1    3    3    0    0 -0.17021063967E+02 -0.22312527819E+02  0.19466306584E+03  0.19667809923E+03  0.10000000000E+01 0.  0.
<mgrwt>
<rscale>  0 0.12500088E+03</rscale>
<asrwt>0</asrwt>
<pdfrwt beam="1">  1        4 0.31798317E-01 0.12500088E+03</pdfrwt>
<pdfrwt beam="2">  1       -4 0.29076040E-02 0.12500088E+03</pdfrwt>
<totfact> 0.85989943E+03</totfact>
</mgrwt>
</event>
<event>
 5    1  0.3225662E-002  0.1250014E+03  0.7818608E-02  0.1235067E+00
          4   -1    0    0  501    0  0.00000000000E+00  0.00000000000E+00  0.50109402108E+03  0.50109563046E+03  0.12700000000E+01 0.  1.
         -4   -1    0    0    0  501 -0.00000000000E+00 -0.00000000000E+00 -0.77422651364E+01  0.78457357490E+01  0.12700000000E+01 0.  1.
         25    2    1    2    0    0  0.00000000000E+00  0.00000000000E+00  0.49335175595E+03  0.50894136621E+03  0.12500143656E+03 0.  0.
    9000005    1    3    3    0    0 -0.20194880439E+01 -0.58083823185E+02  0.15316186066E+03  0.16382113541E+03  0.10000000000E+01 0.  0.
    9000005    1    3    3    0    0  0.20194880439E+01  0.58083823185E+02  0.34018989529E+03  0.34512023080E+03  0.10000000000E+01 0.  0.
<mgrwt>
<rscale>  0 0.12500144E+03</rscale>
<asrwt>0</asrwt>
<pdfrwt beam="1">  1        4 0.77099502E-01 0.12500144E+03</pdfrwt>
<pdfrwt beam="2">  1       -4 0.11992003E-02 0.12500144E+03</pdfrwt>
<totfact> 0.55175481E+03</totfact>
</mgrwt>
</event>
<event>
 5    1  0.3225662E-002  0.1249965E+03  0.7818608E-02  0.1235075E+00
          4   -1    0    0  501    0  0.00000000000E+00  0.00000000000E+00  0.23245184513E+02  0.23279851869E+02  0.12700000000E+01 0.  1.
         -4   -1    0    0    0  501 -0.00000000000E+00 -0.00000000000E+00 -0.16787396772E+03  0.16787877155E+03  0.12700000000E+01 0.  1.
         25    2    1    2    0    0  0.00000000000E+00  0.00000000000E+00 -0.14462878321E+03  0.19115862342E+03  0.12499653746E+03 0.  0.
    9000005    1    3    3    0    0 -0.41463380596E+02 -0.46652998943E+02 -0.67645768685E+02  0.92047076335E+02  0.10000000000E+01 0.  0.
    9000005    1    3    3    0    0  0.41463380596E+02  0.46652998943E+02 -0.76983014522E+02  0.99111547086E+02  0.10000000000E+01 0.  0.
<mgrwt>
<rscale>  0 0.12499654E+03</rscale>
<asrwt>0</asrwt>
<pdfrwt beam="1">  1        4 0.35792186E-02 0.12499654E+03</pdfrwt>
<pdfrwt beam="2">  1       -4 0.25829800E-01 0.12499654E+03</pdfrwt>
<totfact> 0.91653216E+03</totfact>
</mgrwt>
</event>
<event>
 5    1  0.3225662E-002  0.1250038E+03  0.7818608E-02  0.1235063E+00
          4   -1    0    0  501    0  0.00000000000E+00  0.00000000000E+00  0.11257175645E+03  0.11257892009E+03  0.12700000000E+01 0. -1.
         -4   -1    0    0    0  501 -0.00000000000E+00 -0.00000000000E+00 -0.34682319369E+02  0.34705564062E+02  0.12700000000E+01 0. -1.
         25    2    1    2    0    0  0.00000000000E+00  0.00000000000E+00  0.77889437077E+02  0.14728448415E+03  0.12500381940E+03 0.  0.
    9000005    1    3    3    0    0  0.57485553027E+02 -0.10774612816E+02  0.64887613511E+02  0.87361796430E+02  0.10000000000E+01 0.  0.
    9000005    1    3    3    0    0 -0.57485553027E+02  0.10774612816E+02  0.13001823565E+02  0.59922687725E+02  0.10000000000E+01 0.  0.
<mgrwt>
<rscale>  0 0.12500382E+03</rscale>
<asrwt>0</asrwt>
<pdfrwt beam="1">  1        4 0.17321071E-01 0.12500382E+03</pdfrwt>
<pdfrwt beam="2">  1       -4 0.53380806E-02 0.12500382E+03</pdfrwt>
<totfact> 0.99839191E+03</totfact>
</mgrwt>
</event>
<event>
 5    1  0.3225662E-002  0.1250015E+03  0.7818608E-02  0.1235067E+00
          4   -1    0    0  501    0  0.00000000000E+00  0.00000000000E+00  0.11444046577E+03  0.11444751245E+03  0.12700000000E+01 0.  1.
         -4   -1    0    0    0  501 -0.00000000000E+00 -0.00000000000E+00 -0.34114391860E+02  0.34138023258E+02  0.12700000000E+01 0.  1.
         25    2    1    2    0    0  0.00000000000E+00  0.00000000000E+00  0.80326073907E+02  0.14858553570E+03  0.12500153308E+03 0.  0.
    9000005    1    3    3    0    0 -0.14333526862E+02  0.57482021464E+02  0.16517380658E+02  0.61509809362E+02  0.10000000000E+01 0.  0.
    9000005    1    3    3    0    0  0.14333526862E+02 -0.57482021464E+02  0.63808693249E+02  0.87075726343E+02  0.10000000000E+01 0.  0.
<mgrwt>
<rscale>  0 0.12500153E+03</rscale>
<asrwt>0</asrwt>
<pdfrwt beam="1">  1        4 0.17608585E-01 0.12500153E+03</pdfrwt>
<pdfrwt beam="2">  1       -4 0.52507278E-02 0.12500153E+03</pdfrwt>
<totfact> 0.99582964E+03</totfact>
</mgrwt>
</event>
<event>
 5    1  0.3225662E-002  0.1249999E+03  0.7818608E-02  0.1235069E+00
          4   -1    0    0  501    0  0.00000000000E+00  0.00000000000E+00  0.10258906391E+04  0.10258914252E+04  0.12700000000E+01 0. -1.
         -4   -1    0    0    0  501 -0.00000000000E+00 -0.00000000000E+00 -0.37009550826E+01  0.39127954871E+01  0.12700000000E+01 0. -1.
         25    2    1    2    0    0  0.00000000000E+00  0.00000000000E+00  0.10221896841E+04  0.10298042207E+04  0.12499993131E+03 0.  0.
    9000005    1    3    3    0    0 -0.21167474166E+02  0.34900512248E+02  0.12125580800E+03  0.12794560833E+03  0.10000000000E+01 0.  0.
    9000005    1    3    3    0    0  0.21167474166E+02 -0.34900512248E+02  0.90093387606E+03  0.90185861239E+03  0.10000000000E+01 0.  0.
<mgrwt>
<rscale>  0 0.12499993E+03</rscale>
<asrwt>0</asrwt>
<pdfrwt beam="1">  1        4 0.15784565E+00 0.12499993E+03</pdfrwt>
<pdfrwt beam="2">  1       -4 0.58573371E-03 0.12499993E+03</pdfrwt>
<totfact> 0.29633880E+03</totfact>
</mgrwt>
</event>
<event>
 5    1  0.3225662E-002  0.1250022E+03  0.7818608E-02  0.1235066E+00
         -4   -1    0    0    0  501 -0.00000000000E+00  0.00000000000E+00  0.13574896498E+02  0.13634174523E+02  0.12700000000E+01 0.  1.
          4   -1    0    0  501    0  0.00000000000E+00 -0.00000000000E+00 -0.28707799659E+03  0.28708080574E+03  0.12700000000E+01 0.  1.
         25    2    1    2    0    0  0.00000000000E+00  0.00000000000E+00 -0.27350310009E+03  0.30071498026E+03  0.12500221437E+03 0.  0.
    9000005    1    3    3    0    0  0.39977801676E+02 -0.45576036288E+02 -0.10026854567E+03  0.11717585486E+03  0.10000000000E+01 0.  0.
    9000005    1    3    3    0    0 -0.39977801676E+02  0.45576036288E+02 -0.17323455442E+03  0.18353912540E+03  0.10000000000E+01 0.  0.
<mgrwt>
<rscale>  0 0.12500221E+03</rscale>
<asrwt>0</asrwt>
<pdfrwt beam="2">  1        4 0.44170617E-01 0.12500221E+03</pdfrwt>
<pdfrwt beam="1">  1       -4 0.20932218E-02 0.12500221E+03</pdfrwt>
<totfact> 0.75505531E+03</totfact>
</mgrwt>
</event>
<event>
 5    1  0.3225662E-002  0.1249972E+03  0.7818608E-02  0.1235074E+00
          4   -1    0    0  501    0  0.00000000000E+00  0.00000000000E+00  0.14440306565E+03  0.14440865026E+03  0.12700000000E+01 0.  1.
         -4   -1    0    0    0  501 -0.00000000000E+00 -0.00000000000E+00 -0.27028779979E+02  0.27058600243E+02  0.12700000000E+01 0.  1.
         25    2    1    2    0    0  0.00000000000E+00  0.00000000000E+00  0.11737428567E+03  0.17146725050E+03  0.12499718020E+03 0.  0.
    9000005    1    3    3    0    0  0.58914693826E+02  0.90343110595E+01  0.32931698077E+02  0.68103279386E+02  0.10000000000E+01 0.  0.
    9000005    1    3    3    0    0 -0.58914693826E+02 -0.90343110595E+01  0.84442587595E+02  0.10336397111E+03  0.10000000000E+01 0.  0.
<mgrwt>
<rscale>  0 0.12499718E+03</rscale>
<asrwt>0</asrwt>
<pdfrwt beam="1">  1        4 0.22218579E-01 0.12499718E+03</pdfrwt>
<pdfrwt beam="2">  1       -4 0.41609974E-02 0.12499718E+03</pdfrwt>
<totfact> 0.95181890E+03</totfact>
</mgrwt>
</event>
<event>
 5    1  0.3225662E-002  0.1249980E+03  0.7818608E-02  0.1235072E+00
         -4   -1    0    0    0  501 -0.00000000000E+00  0.00000000000E+00  0.12659631466E+03  0.12660268475E+03  0.12700000000E+01 0. -1.
          4   -1    0    0  501    0  0.00000000000E+00 -0.00000000000E+00 -0.30834763140E+02  0.30860905980E+02  0.12700000000E+01 0. -1.
         25    2    1    2    0    0  0.00000000000E+00  0.00000000000E+00  0.95761551524E+02  0.15746359073E+03  0.12499803061E+03 0.  0.
    9000005    1    3    3    0    0  0.56239020418E+01 -0.20236415304E+02 -0.26261353231E+02  0.33642227216E+02  0.10000000000E+01 0.  0.
    9000005    1    3    3    0    0 -0.56239020418E+01  0.20236415304E+02  0.12202290476E+03  0.12382136352E+03  0.10000000000E+01 0.  0.
<mgrwt>
<rscale>  0 0.12499803E+03</rscale>
<asrwt>0</asrwt>
<pdfrwt beam="2">  1        4 0.47463107E-02 0.12499803E+03</pdfrwt>
<pdfrwt beam="1">  1       -4 0.19478857E-01 0.12499803E+03</pdfrwt>
<totfact> 0.97838357E+03</totfact>
</mgrwt>
</event>
<event>
 5    1  0.3225662E-002  0.1250120E+03  0.7818608E-02  0.1235051E+00
         -4   -1    0    0    0  501 -0.00000000000E+00  0.00000000000E+00  0.53980720223E+02  0.53995657750E+02  0.12700000000E+01 0.  1.
          4   -1    0    0  501    0  0.00000000000E+00 -0.00000000000E+00 -0.72347136910E+02  0.72358283002E+02  0.12700000000E+01 0.  1.
         25    2    1    2    0    0  0.00000000000E+00  0.00000000000E+00 -0.18366416686E+02  0.12635394075E+03  0.12501197175E+03 0.  0.
    9000005    1    3    3    0    0 -0.85965339586E+01  0.49829395440E+02 -0.46307994535E+02  0.68573314079E+02  0.10000000000E+01 0.  0.
    9000005    1    3    3    0    0  0.85965339586E+01 -0.49829395440E+02  0.27941577849E+02  0.57780626672E+02  0.10000000000E+01 0.  0.
<mgrwt>
<rscale>  0 0.12501197E+03</rscale>
<asrwt>0</asrwt>
<pdfrwt beam="2">  1        4 0.11132335E-01 0.12501197E+03</pdfrwt>
<pdfrwt beam="1">  1       -4 0.83067326E-02 0.12501197E+03</pdfrwt>
<totfact> 0.10420399E+04</totfact>
</mgrwt>
</event>
<event>
 5    1  0.3225662E-002  0.1249987E+03  0.7818608E-02  0.1235071E+00
          4   -1    0    0  501    0  0.00000000000E+00  0.00000000000E+00  0.12905689525E+03  0.12906314389E+03  0.12700000000E+01 0. -1.
         -4   -1    0    0    0  501 -0.00000000000E+00 -0.00000000000E+00 -0.30246743155E+02  0.30273393788E+02  0.12700000000E+01 0. -1.
         25    2    1    2    0    0  0.00000000000E+00  0.00000000000E+00  0.98810152093E+02  0.15933653768E+03  0.12499874433E+03 0.  0.
    9000005    1    3    3    0    0 -0.32173745438E+02  0.28319412236E+02  0.10737308810E+03  0.11561625774E+03  0.10000000000E+01 0.  0.
    9000005    1    3    3    0    0  0.32173745438E+02 -0.28319412236E+02 -0.85629360099E+01  0.43720279940E+02  0.10000000000E+01 0.  0.
<mgrwt>
<rscale>  0 0.12499874E+03</rscale>
<asrwt>0</asrwt>
<pdfrwt beam="1">  1        4 0.19857437E-01 0.12499874E+03</pdfrwt>
<pdfrwt beam="2">  1       -4 0.46558759E-02 0.12499874E+03</pdfrwt>
<totfact> 0.97473599E+03</totfact>
</mgrwt>
</event>
<event>
 5    1  0.3225662E-002  0.1250050E+03  0.7818608E-02  0.1235062E+00
          4   -1    0    0  501    0  0.00000000000E+00  0.00000000000E+00  0.12999772791E+04  0.12999778995E+04  0.12700000000E+01 0. -1.
         -4   -1    0    0    0  501 -0.00000000000E+00 -0.00000000000E+00 -0.28702697904E+01  0.31386858189E+01  0.12700000000E+01 0. -1.
         25    2    1    2    0    0  0.00000000000E+00  0.00000000000E+00  0.12971070093E+04  0.13031165853E+04  0.12500496479E+03 0.  0.
    9000005    1    3    3    0    0  0.31129252656E+02 -0.43875671304E+02  0.31701850785E+03  0.32155223405E+03  0.10000000000E+01 0.  0.
    9000005    1    3    3    0    0 -0.31129252656E+02  0.43875671304E+02  0.98008850147E+03  0.98156435124E+03  0.10000000000E+01 0.  0.
<mgrwt>
<rscale>  0 0.12500496E+03</rscale>
<asrwt>0</asrwt>
<pdfrwt beam="1">  1        4 0.20001759E+00 0.12500496E+03</pdfrwt>
<pdfrwt beam="2">  1       -4 0.46227418E-03 0.12500496E+03</pdfrwt>
<totfact> 0.22152617E+03</totfact>
</mgrwt>
</event>
<event>
 5    1  0.3225662E-002  0.1249948E+03  0.7818608E-02  0.1235077E+00
         -4   -1    0    0    0  501 -0.00000000000E+00  0.00000000000E+00  0.87264136742E+02  0.87273377736E+02  0.12700000000E+01 0. -1.
          4   -1    0    0  501    0  0.00000000000E+00 -0.00000000000E+00 -0.44739177498E+02  0.44757199456E+02  0.12700000000E+01 0. -1.
         25    2    1    2    0    0  0.00000000000E+00  0.00000000000E+00  0.42524959245E+02  0.13203057719E+03  0.12499480451E+03 0.  0.
    9000005    1    3    3    0    0  0.55822902095E+02  0.69692462679E+01 -0.74747517589E+01  0.56759481197E+02  0.10000000000E+01 0.  0.
    9000005    1    3    3    0    0 -0.55822902095E+02 -0.69692462679E+01  0.49999711004E+02  0.75271095995E+02  0.10000000000E+01 0.  0.
<mgrwt>
<rscale>  0 0.12499480E+03</rscale>
<asrwt>0</asrwt>
<pdfrwt beam="2">  1        4 0.68850475E-02 0.12499480E+03</pdfrwt>
<pdfrwt beam="1">  1       -4 0.13427349E-01 0.12499480E+03</pdfrwt>
<totfact> 0.10302253E+04</totfact>
</mgrwt>
</event>
<event>
 5    1  0.3225662E-002  0.1250010E+03  0.7818608E-02  0.1235068E+00
         -4   -1    0    0    0  501 -0.00000000000E+00  0.00000000000E+00  0.99253985500E+01  0.10006319822E+02  0.12700000000E+01 0.  1.
          4   -1    0    0  501    0  0.00000000000E+00 -0.00000000000E+00 -0.39188768368E+03  0.39188974154E+03  0.12700000000E+01 0.  1.
         25    2    1    2    0    0  0.00000000000E+00  0.00000000000E+00 -0.38196228513E+03  0.40189606136E+03  0.12500102748E+03 0.  0.
    9000005    1    3    3    0    0 -0.28507653021E+02  0.49188260436E+02 -0.27439800014E+03  0.28022746783E+03  0.10000000000E+01 0.  0.
    9000005    1    3    3    0    0  0.28507653021E+02 -0.49188260436E+02 -0.10756428500E+03  0.12166859353E+03  0.10000000000E+01 0.  0.
<mgrwt>
<rscale>  0 0.12500103E+03</rscale>
<asrwt>0</asrwt>
<pdfrwt beam="2">  1        4 0.60296784E-01 0.12500103E+03</pdfrwt>
<pdfrwt beam="1">  1       -4 0.15333677E-02 0.12500103E+03</pdfrwt>
<totfact> 0.64367343E+03</totfact>
</mgrwt>
</event>
<event>
 5    1  0.3225662E-002  0.1249970E+03  0.7818608E-02  0.1235074E+00
         -4   -1    0    0    0  501 -0.00000000000E+00  0.00000000000E+00  0.39822095077E+02  0.39842341250E+02  0.12700000000E+01 0. -1.
          4   -1    0    0  501    0  0.00000000000E+00 -0.00000000000E+00 -0.98038550698E+02  0.98046776199E+02  0.12700000000E+01 0. -1.
         25    2    1    2    0    0  0.00000000000E+00  0.00000000000E+00 -0.58216455621E+02  0.13788911745E+03  0.12499701199E+03 0.  0.
    9000005    1    3    3    0    0 -0.43644882207E+02 -0.11079785923E+01 -0.78429287677E+02  0.89767792247E+02  0.10000000000E+01 0.  0.
    9000005    1    3    3    0    0  0.43644882207E+02  0.11079785923E+01  0.20212832056E+02  0.48121325201E+02  0.10000000000E+01 0.  0.
<mgrwt>
<rscale>  0 0.12499701E+03</rscale>
<asrwt>0</asrwt>
<pdfrwt beam="2">  1        4 0.15085044E-01 0.12499701E+03</pdfrwt>
<pdfrwt beam="1">  1       -4 0.61286663E-02 0.12499701E+03</pdfrwt>
<totfact> 0.10178209E+04</totfact>
</mgrwt>
</event>
<event>
 5    1  0.3225662E-002  0.1250009E+03  0.7818608E-02  0.1235068E+00
          4   -1    0    0  501    0  0.00000000000E+00  0.00000000000E+00  0.15000117115E+03  0.15000654735E+03  0.12700000000E+01 0.  1.
         -4   -1    0    0    0  501 -0.00000000000E+00 -0.00000000000E+00 -0.26020503472E+02  0.26051477903E+02  0.12700000000E+01 0.  1.
         25    2    1    2    0    0  0.00000000000E+00  0.00000000000E+00  0.12398066768E+03  0.17605802525E+03  0.12500088919E+03 0.  0.
    9000005    1    3    3    0    0 -0.28773421901E+02 -0.45852210045E+02  0.10596863855E+03  0.11899868625E+03  0.10000000000E+01 0.  0.
    9000005    1    3    3    0    0  0.28773421901E+02  0.45852210045E+02  0.18012029136E+02  0.57059339003E+02  0.10000000000E+01 0.  0.
<mgrwt>
<rscale>  0 0.12500089E+03</rscale>
<asrwt>0</asrwt>
<pdfrwt beam="1">  1        4 0.23079900E-01 0.12500089E+03</pdfrwt>
<pdfrwt beam="2">  1       -4 0.40059506E-02 0.12500089E+03</pdfrwt>
<totfact> 0.94329540E+03</totfact>
</mgrwt>
</event>
<event>
 5    1  0.3225662E-002  0.1249866E+03  0.7818608E-02  0.1235090E+00
          4   -1    0    0  501    0  0.00000000000E+00  0.00000000000E+00  0.49408413879E+01  0.51014521090E+01  0.12700000000E+01 0. -1.
         -4   -1    0    0    0  501 -0.00000000000E+00 -0.00000000000E+00 -0.77763210806E+03  0.77763314511E+03  0.12700000000E+01 0. -1.
         25    2    1    2    0    0  0.00000000000E+00  0.00000000000E+00 -0.77269126667E+03  0.78273459722E+03  0.12498662370E+03 0.  0.
    9000005    1    3    3    0    0 -0.20040991921E+02  0.36726913032E+02 -0.67699167994E+03  0.67828404242E+03  0.10000000000E+01 0.  0.
    9000005    1    3    3    0    0  0.20040991921E+02 -0.36726913032E+02 -0.95699586732E+02  0.10445055480E+03  0.10000000000E+01 0.  0.
<mgrwt>
<rscale>  0 0.12498662E+03</rscale>
<asrwt>0</asrwt>
<pdfrwt beam="1">  1        4 0.77256451E-03 0.12498662E+03</pdfrwt>
<pdfrwt beam="2">  1       -4 0.11964805E+00 0.12498662E+03</pdfrwt>
<totfact> 0.39058660E+03</totfact>
</mgrwt>
</event>
<event>
 5    1  0.3225662E-002  0.1250034E+03  0.7818608E-02  0.1235064E+00
          4   -1    0    0  501    0  0.00000000000E+00  0.00000000000E+00  0.28825396969E+02  0.28853360470E+02  0.12700000000E+01 0. -1.
         -4   -1    0    0    0  501 -0.00000000000E+00 -0.00000000000E+00 -0.13542497747E+03  0.13543093230E+03  0.12700000000E+01 0. -1.
         25    2    1    2    0    0  0.00000000000E+00  0.00000000000E+00 -0.10659958050E+03  0.16428429277E+03  0.12500343310E+03 0.  0.
    9000005    1    3    3    0    0  0.40212837463E+02 -0.33433761113E+02 -0.98264716950E+02  0.11131865646E+03  0.10000000000E+01 0.  0.
    9000005    1    3    3    0    0 -0.40212837463E+02  0.33433761113E+02 -0.83348635533E+01  0.52965636307E+02  0.10000000000E+01 0.  0.
<mgrwt>
<rscale>  0 0.12500343E+03</rscale>
<asrwt>0</asrwt>
<pdfrwt beam="1">  1        4 0.44372857E-02 0.12500343E+03</pdfrwt>
<pdfrwt beam="2">  1       -4 0.20837221E-01 0.12500343E+03</pdfrwt>
<totfact> 0.96515663E+03</totfact>
</mgrwt>
</event>
<event>
 5    1  0.3225662E-002  0.1249941E+03  0.7818608E-02  0.1235079E+00
         -4   -1    0    0    0  501 -0.00000000000E+00  0.00000000000E+00  0.58131229411E+03  0.58131368140E+03  0.12700000000E+01 0. -1.
          4   -1    0    0  501    0  0.00000000000E+00 -0.00000000000E+00 -0.66576559397E+01  0.67777048189E+01  0.12700000000E+01 0. -1.
         25    2    1    2    0    0  0.00000000000E+00  0.00000000000E+00  0.57465463817E+03  0.58809138622E+03  0.12499410136E+03 0.  0.
    9000005    1    3    3    0    0  0.37313995488E+02  0.11328325010E+02  0.57591818375E+02  0.69559203205E+02  0.10000000000E+01 0.  0.
    9000005    1    3    3    0    0 -0.37313995488E+02 -0.11328325010E+02  0.51706281979E+03  0.51853218301E+03  0.10000000000E+01 0.  0.
<mgrwt>
<rscale>  0 0.12499410E+03</rscale>
<asrwt>0</asrwt>
<pdfrwt beam="2">  1        4 0.10335962E-02 0.12499410E+03</pdfrwt>
<pdfrwt beam="1">  1       -4 0.89441981E-01 0.12499410E+03</pdfrwt>
<totfact> 0.49634479E+03</totfact>
</mgrwt>
</event>
<event>
 5    1  0.3225662E-002  0.1249977E+03  0.7818608E-02  0.1235073E+00
         -4   -1    0    0    0  501 -0.00000000000E+00  0.00000000000E+00  0.21503103523E+03  0.21503478559E+03  0.12700000000E+01 0.  1.
          4   -1    0    0  501    0  0.00000000000E+00 -0.00000000000E+00 -0.18139216181E+02  0.18183620753E+02  0.12700000000E+01 0.  1.
         25    2    1    2    0    0  0.00000000000E+00  0.00000000000E+00  0.19689181905E+03  0.23321840634E+03  0.12499774657E+03 0.  0.
    9000005    1    3    3    0    0 -0.60532213558E+02  0.26593003334E+01  0.69911756494E+02  0.92519589561E+02  0.10000000000E+01 0.  0.
    9000005    1    3    3    0    0  0.60532213558E+02 -0.26593003334E+01  0.12698006256E+03  0.14069881678E+03  0.10000000000E+01 0.  0.
<mgrwt>
<rscale>  0 0.12499775E+03</rscale>
<asrwt>0</asrwt>
<pdfrwt beam="2">  1        4 0.27943529E-02 0.12499775E+03</pdfrwt>
<pdfrwt beam="1">  1       -4 0.33085401E-01 0.12499775E+03</pdfrwt>
<totfact> 0.84822109E+03</totfact>
</mgrwt>
</event>
<event>
 5    1  0.3225662E-002  0.1249997E+03  0.7818608E-02  0.1235070E+00
          4   -1    0    0  501    0  0.00000000000E+00  0.00000000000E+00  0.42076475002E+03  0.42076666665E+03  0.12700000000E+01 0.  1.
         -4   -1    0    0    0  501 -0.00000000000E+00 -0.00000000000E+00 -0.92382638189E+01  0.93251497783E+01  0.12700000000E+01 0.  1.
         25    2    1    2    0    0  0.00000000000E+00  0.00000000000E+00  0.41152648620E+03  0.43009181642E+03  0.12499968684E+03 0.  0.
    9000005    1    3    3    0    0  0.13552106139E+02 -0.60477689561E+02  0.17823301625E+03  0.18870405030E+03  0.10000000000E+01 0.  0.
    9000005    1    3    3    0    0 -0.13552106139E+02  0.60477689561E+02  0.23329346995E+03  0.24138776613E+03  0.10000000000E+01 0.  0.
<mgrwt>
<rscale>  0 0.12499969E+03</rscale>
<asrwt>0</asrwt>
<pdfrwt beam="1">  1        4 0.64739851E-01 0.12499969E+03</pdfrwt>
<pdfrwt beam="2">  1       -4 0.14281027E-02 0.12499969E+03</pdfrwt>
<totfact> 0.61728105E+03</totfact>
</mgrwt>
</event>
<event>
 5    1  0.3225662E-002  0.1250043E+03  0.7818608E-02  0.1235063E+00
          4   -1    0    0  501    0  0.00000000000E+00  0.00000000000E+00  0.32681444165E+02  0.32706110938E+02  0.12700000000E+01 0. -1.
         -4   -1    0    0    0  501 -0.00000000000E+00 -0.00000000000E+00 -0.11946006318E+03  0.11946681378E+03  0.12700000000E+01 0. -1.
         25    2    1    2    0    0  0.00000000000E+00  0.00000000000E+00 -0.86778619012E+02  0.15217292472E+03  0.12500428112E+03 0.  0.
    9000005    1    3    3    0    0 -0.68022384339E+01 -0.34137970571E+02 -0.10657211277E+03  0.11211728994E+03  0.10000000000E+01 0.  0.
    9000005    1    3    3    0    0  0.68022384339E+01  0.34137970571E+02  0.19793493758E+02  0.40055634779E+02  0.10000000000E+01 0.  0.
<mgrwt>
<rscale>  0 0.12500428E+03</rscale>
<asrwt>0</asrwt>
<pdfrwt beam="1">  1        4 0.50303313E-02 0.12500428E+03</pdfrwt>
<pdfrwt beam="2">  1       -4 0.18380888E-01 0.12500428E+03</pdfrwt>
<totfact> 0.98862786E+03</totfact>
</mgrwt>
</event>
<event>
 5    1  0.3225662E-002  0.1250338E+03  0.7818608E-02  0.1235016E+00
          4   -1    0    0  501    0  0.00000000000E+00  0.00000000000E+00  0.60805042734E+02  0.60818304168E+02  0.12700000000E+01 0. -1.
         -4   -1    0    0    0  501 -0.00000000000E+00 -0.00000000000E+00 -0.64250440851E+02  0.64262991291E+02  0.12700000000E+01 0. -1.
         25    2    1    2    0    0  0.00000000000E+00  0.00000000000E+00 -0.34453981177E+01  0.12508129546E+03  0.12503383424E+03 0.  0.
    9000005    1    3    3    0    0 -0.15448708782E+02  0.17971236424E+02  0.56141603090E+02  0.60946759874E+02  0.10000000000E+01 0.  0.
    9000005    1    3    3    0    0  0.15448708782E+02 -0.17971236424E+02 -0.59587001208E+02  0.64134535584E+02  0.10000000000E+01 0.  0.
<mgrwt>
<rscale>  0 0.12503383E+03</rscale>
<asrwt>0</asrwt>
<pdfrwt beam="1">  1        4 0.93566075E-02 0.12503383E+03</pdfrwt>
<pdfrwt beam="2">  1       -4 0.98866687E-02 0.12503383E+03</pdfrwt>
<totfact> 0.10443110E+04</totfact>
</mgrwt>
</event>
<event>
 4    1  0.3225662E-002  0.1251894E+03  0.7818608E-02  0.1234774E+00
          4   -1    0    0  501    0  0.00000000000E+00  0.00000000000E+00  0.12861921321E+03  0.12862548312E+03  0.12700000000E+01 0.  1.
         -4   -1    0    0    0  501 -0.00000000000E+00 -0.00000000000E+00 -0.30442497924E+02  0.30468977335E+02  0.12700000000E+01 0.  1.
    9000005    1    1    2    0    0 -0.56645124753E+02 -0.26220123045E+02  0.54902315540E+02  0.83135006240E+02  0.10000000000E+01 0.  0.
    9000005    1    1    2    0    0  0.56645124753E+02  0.26220123045E+02  0.43274399748E+02  0.75959454213E+02  0.10000000000E+01 0.  0.
<mgrwt>
<rscale>  0 0.12518938E+03</rscale>
<asrwt>0</asrwt>
<pdfrwt beam="1">  1        4 0.19790090E-01 0.12518938E+03</pdfrwt>
<pdfrwt beam="2">  1       -4 0.46859805E-02 0.12518938E+03</pdfrwt>
<totfact> 0.97103667E+03</totfact>
</mgrwt>
</event>
<event>
 5    1  0.3225662E-002  0.1249984E+03  0.7818608E-02  0.1235072E+00
          4   -1    0    0  501    0  0.00000000000E+00  0.00000000000E+00  0.14990479202E+03  0.14991017167E+03  0.12700000000E+01 0. -1.
         -4   -1    0    0    0  501 -0.00000000000E+00 -0.00000000000E+00 -0.26036212230E+02  0.26067167995E+02  0.12700000000E+01 0. -1.
         25    2    1    2    0    0  0.00000000000E+00  0.00000000000E+00  0.12386857979E+03  0.17597733967E+03  0.12499839606E+03 0.  0.
    9000005    1    3    3    0    0  0.22685137032E+01 -0.13942643502E+01 -0.25963214908E+02  0.26118550034E+02  0.10000000000E+01 0.  0.
    9000005    1    3    3    0    0 -0.22685137032E+01  0.13942643502E+01  0.14983179470E+03  0.14985878963E+03  0.10000000000E+01 0.  0.
<mgrwt>
<rscale>  0 0.12499840E+03</rscale>
<asrwt>0</asrwt>
<pdfrwt beam="1">  1        4 0.23065071E-01 0.12499840E+03</pdfrwt>
<pdfrwt beam="2">  1       -4 0.40083661E-02 0.12499840E+03</pdfrwt>
<totfact> 0.94349541E+03</totfact>
</mgrwt>
</event>
<event>
 5    1  0.3225662E-002  0.1250069E+03  0.7818608E-02  0.1235058E+00
          4   -1    0    0  501    0  0.00000000000E+00  0.00000000000E+00  0.27890570490E+03  0.27890859637E+03  0.12700000000E+01 0. -1.
         -4   -1    0    0    0  501 -0.00000000000E+00 -0.00000000000E+00 -0.13975425918E+02  0.14033012136E+02  0.12700000000E+01 0. -1.
         25    2    1    2    0    0  0.00000000000E+00  0.00000000000E+00  0.26493027898E+03  0.29294160850E+03  0.12500693288E+03 0.  0.
    9000005    1    3    3    0    0 -0.33159755101E+02 -0.45127447650E+02  0.19747619698E+03  0.20526544829E+03  0.10000000000E+01 0.  0.
    9000005    1    3    3    0    0  0.33159755101E+02  0.45127447650E+02  0.67454082004E+02  0.87676160208E+02  0.10000000000E+01 0.  0.
<mgrwt>
<rscale>  0 0.12500693E+03</rscale>
<asrwt>0</asrwt>
<pdfrwt beam="1">  1        4 0.42913221E-01 0.12500693E+03</pdfrwt>
<pdfrwt beam="2">  1       -4 0.21547177E-02 0.12500693E+03</pdfrwt>
<totfact> 0.76481070E+03</totfact>
</mgrwt>
</event>
<event>
 5    1  0.3225662E-002  0.1249987E+03  0.7818608E-02  0.1235071E+00
         -4   -1    0    0    0  501 -0.00000000000E+00  0.00000000000E+00  0.71999683110E+02  0.72010882983E+02  0.12700000000E+01 0. -1.
          4   -1    0    0  501    0  0.00000000000E+00 -0.00000000000E+00 -0.54229771586E+02  0.54244640530E+02  0.12700000000E+01 0. -1.
         25    2    1    2    0    0  0.00000000000E+00  0.00000000000E+00  0.17769911524E+02  0.12625552351E+03  0.12499874984E+03 0.  0.
    9000005    1    3    3    0    0  0.26072292231E+02 -0.17001397978E+02  0.63617969299E+02  0.70831193503E+02  0.10000000000E+01 0.  0.
    9000005    1    3    3    0    0 -0.26072292231E+02  0.17001397978E+02 -0.45848057774E+02  0.55424330010E+02  0.10000000000E+01 0.  0.
<mgrwt>
<rscale>  0 0.12499875E+03</rscale>
<asrwt>0</asrwt>
<pdfrwt beam="2">  1        4 0.83450471E-02 0.12499875E+03</pdfrwt>
<pdfrwt beam="1">  1       -4 0.11078880E-01 0.12499875E+03</pdfrwt>
<totfact> 0.10425659E+04</totfact>
</mgrwt>
</event>
<event>
 5    1  0.3225662E-002  0.1249865E+03  0.7818608E-02  0.1235090E+00
         -4   -1    0    0    0  501 -0.00000000000E+00  0.00000000000E+00  0.96305853509E+02  0.96314226987E+02  0.12700000000E+01 0.  1.
          4   -1    0    0  501    0  0.00000000000E+00 -0.00000000000E+00 -0.40532018520E+02  0.40551910254E+02  0.12700000000E+01 0.  1.
         25    2    1    2    0    0  0.00000000000E+00  0.00000000000E+00  0.55773834989E+02  0.13686613724E+03  0.12498647468E+03 0.  0.
    9000005    1    3    3    0    0 -0.23523688632E+02  0.36694100605E+02 -0.21141186237E+02  0.48453799661E+02  0.10000000000E+01 0.  0.
    9000005    1    3    3    0    0  0.23523688632E+02 -0.36694100605E+02  0.76915021226E+02  0.88412337580E+02  0.10000000000E+01 0.  0.
<mgrwt>
<rscale>  0 0.12498647E+03</rscale>
<asrwt>0</asrwt>
<pdfrwt beam="2">  1        4 0.62378695E-02 0.12498647E+03</pdfrwt>
<pdfrwt beam="1">  1       -4 0.14818459E-01 0.12498647E+03</pdfrwt>
<totfact> 0.10201996E+04</totfact>
</mgrwt>
</event>
<event>
 5    1  0.3225662E-002  0.1250045E+03  0.7818608E-02  0.1235062E+00
          4   -1    0    0  501    0  0.00000000000E+00  0.00000000000E+00  0.20933512816E+03  0.20933898056E+03  0.12700000000E+01 0.  1.
         -4   -1    0    0    0  501 -0.00000000000E+00 -0.00000000000E+00 -0.18635979103E+02  0.18679202797E+02  0.12700000000E+01 0.  1.
         25    2    1    2    0    0  0.00000000000E+00  0.00000000000E+00  0.19069914906E+03  0.22801818336E+03  0.12500450588E+03 0.  0.
    9000005    1    3    3    0    0 -0.61033547072E+02 -0.13321259366E+02  0.98499376951E+02  0.11664337563E+03  0.10000000000E+01 0.  0.
    9000005    1    3    3    0    0  0.61033547072E+02  0.13321259366E+02  0.92199772107E+02  0.11137480773E+03  0.10000000000E+01 0.  0.
<mgrwt>
<rscale>  0 0.12500451E+03</rscale>
<asrwt>0</asrwt>
<pdfrwt beam="1">  1        4 0.32209028E-01 0.12500451E+03</pdfrwt>
<pdfrwt beam="2">  1       -4 0.28706947E-02 0.12500451E+03</pdfrwt>
<totfact> 0.85606227E+03</totfact>
</mgrwt>
</event>
<event>
 5    1  0.3225662E-002  0.1249989E+03  0.7818608E-02  0.1235071E+00
          4   -1    0    0  501    0  0.00000000000E+00  0.00000000000E+00  0.36853262215E+03  0.36853481042E+03  0.12700000000E+01 0. -1.
         -4   -1    0    0    0  501 -0.00000000000E+00 -0.00000000000E+00 -0.10559018765E+02  0.10635119994E+02  0.12700000000E+01 0. -1.
         25    2    1    2    0    0  0.00000000000E+00  0.00000000000E+00  0.35797360339E+03  0.37916993041E+03  0.12499894162E+03 0.  0.
    9000005    1    3    3    0    0  0.67732227772E+01 -0.55116334513E+02  0.26592898404E+03  0.27166691266E+03  0.10000000000E+01 0.  0.
    9000005    1    3    3    0    0 -0.67732227772E+01  0.55116334513E+02  0.92044619342E+02  0.10750301776E+03  0.10000000000E+01 0.  0.
<mgrwt>
<rscale>  0 0.12499894E+03</rscale>
<asrwt>0</asrwt>
<pdfrwt beam="1">  1        4 0.56703348E-01 0.12499894E+03</pdfrwt>
<pdfrwt beam="2">  1       -4 0.16304867E-02 0.12499894E+03</pdfrwt>
<totfact> 0.66631935E+03</totfact>
</mgrwt>
</event>
<event>
 5    1  0.3225662E-002  0.1250004E+03  0.7818608E-02  0.1235069E+00
         -4   -1    0    0    0  501 -0.00000000000E+00  0.00000000000E+00  0.64730114648E+03  0.64730239234E+03  0.12700000000E+01 0.  1.
          4   -1    0    0  501    0  0.00000000000E+00 -0.00000000000E+00 -0.59666278189E+01  0.61002907742E+01  0.12700000000E+01 0.  1.
         25    2    1    2    0    0  0.00000000000E+00  0.00000000000E+00  0.64133451866E+03  0.65340268312E+03  0.12500040592E+03 0.  0.
    9000005    1    3    3    0    0  0.32659915801E+02 -0.50529758247E+02  0.23236790733E+03  0.24003285385E+03  0.10000000000E+01 0.  0.
    9000005    1    3    3    0    0 -0.32659915801E+02  0.50529758247E+02  0.40896661133E+03  0.41336982927E+03  0.10000000000E+01 0.  0.
<mgrwt>
<rscale>  0 0.12500041E+03</rscale>
<asrwt>0</asrwt>
<pdfrwt beam="2">  1        4 0.92832094E-03 0.12500041E+03</pdfrwt>
<pdfrwt beam="1">  1       -4 0.99595105E-01 0.12500041E+03</pdfrwt>
<totfact> 0.45660734E+03</totfact>
</mgrwt>
</event>
<event>
 5    1  0.3225662E-002  0.1249969E+03  0.7818608E-02  0.1235074E+00
         -4   -1    0    0    0  501 -0.00000000000E+00  0.00000000000E+00  0.10732360301E+02  0.10807240981E+02  0.12700000000E+01 0.  1.
          4   -1    0    0  501    0  0.00000000000E+00 -0.00000000000E+00 -0.36261001366E+03  0.36261223767E+03  0.12700000000E+01 0.  1.
         25    2    1    2    0    0  0.00000000000E+00  0.00000000000E+00 -0.35187765336E+03  0.37341947865E+03  0.12499689637E+03 0.  0.
    9000005    1    3    3    0    0  0.25802127190E+02 -0.16616114560E+02 -0.33856072514E+03  0.33995030466E+03  0.10000000000E+01 0.  0.
    9000005    1    3    3    0    0 -0.25802127190E+02  0.16616114560E+02 -0.13316928225E+02  0.33469173996E+02  0.10000000000E+01 0.  0.
<mgrwt>
<rscale>  0 0.12499690E+03</rscale>
<asrwt>0</asrwt>
<pdfrwt beam="2">  1        4 0.55792078E-01 0.12499690E+03</pdfrwt>
<pdfrwt beam="1">  1       -4 0.16570638E-02 0.12499690E+03</pdfrwt>
<totfact> 0.67227323E+03</totfact>
</mgrwt>
</event>
<event>
 5    1  0.3225662E-002  0.1249898E+03  0.7818608E-02  0.1235085E+00
          4   -1    0    0  501    0  0.00000000000E+00  0.00000000000E+00  0.17358999026E+01  0.21508715610E+01  0.12700000000E+01 0. -1.
         -4   -1    0    0    0  501 -0.00000000000E+00 -0.00000000000E+00 -0.20092801400E+04  0.20092805413E+04  0.12700000000E+01 0. -1.
         25    2    1    2    0    0  0.00000000000E+00  0.00000000000E+00 -0.20075442401E+04  0.20114314129E+04  0.12498981137E+03 0.  0.
    9000005    1    3    3    0    0  0.42405805022E+02  0.16983831077E+02 -0.31762561582E+03  0.32089520819E+03  0.10000000000E+01 0.  0.
    9000005    1    3    3    0    0 -0.42405805022E+02 -0.16983831077E+02 -0.16899186242E+04  0.16905362047E+04  0.10000000000E+01 0.  0.
<mgrwt>
<rscale>  0 0.12498981E+03</rscale>
<asrwt>0</asrwt>
<pdfrwt beam="1">  1        4 0.29901490E-03 0.12498981E+03</pdfrwt>
<pdfrwt beam="2">  1       -4 0.30915031E+00 0.12498981E+03</pdfrwt>
<totfact> 0.97150367E+02</totfact>
</mgrwt>
</event>
<event>
 5    1  0.3225662E-002  0.1249966E+03  0.7818608E-02  0.1235075E+00
          4   -1    0    0  501    0  0.00000000000E+00  0.00000000000E+00  0.85439289605E+01  0.86378019242E+01  0.12700000000E+01 0. -1.
         -4   -1    0    0    0  501 -0.00000000000E+00 -0.00000000000E+00 -0.45457831396E+03  0.45458008802E+03  0.12700000000E+01 0. -1.
         25    2    1    2    0    0  0.00000000000E+00  0.00000000000E+00 -0.44603438500E+03  0.46321788995E+03  0.12499656380E+03 0.  0.
    9000005    1    3    3    0    0  0.29638157340E+02  0.33682367214E+02 -0.61818770736E+02  0.76390330847E+02  0.10000000000E+01 0.  0.
    9000005    1    3    3    0    0 -0.29638157340E+02 -0.33682367214E+02 -0.38421561427E+03  0.38682755910E+03  0.10000000000E+01 0.  0.
<mgrwt>
<rscale>  0 0.12499656E+03</rscale>
<asrwt>0</asrwt>
<pdfrwt beam="1">  1        4 0.13218084E-02 0.12499656E+03</pdfrwt>
<pdfrwt beam="2">  1       -4 0.69942464E-01 0.12499656E+03</pdfrwt>
<totfact> 0.58840051E+03</totfact>
</mgrwt>
</event>
<event>
 5    1  0.3225662E-002  0.1250002E+03  0.7818608E-02  0.1235069E+00
          4   -1    0    0  501    0  0.00000000000E+00  0.00000000000E+00  0.85326371607E+02  0.85335822440E+02  0.12700000000E+01 0.  1.
         -4   -1    0    0    0  501 -0.00000000000E+00 -0.00000000000E+00 -0.45759459396E+02  0.45777079682E+02  0.12700000000E+01 0.  1.
         25    2    1    2    0    0  0.00000000000E+00  0.00000000000E+00  0.39566912211E+02  0.13111290212E+03  0.12500021024E+03 0.  0.
    9000005    1    3    3    0    0  0.36778668274E+02  0.50493139464E+02  0.21610944476E+02  0.66107945771E+02  0.10000000000E+01 0.  0.
    9000005    1    3    3    0    0 -0.36778668274E+02 -0.50493139464E+02  0.17955967734E+02  0.65004956351E+02  0.10000000000E+01 0.  0.
<mgrwt>
<rscale>  0 0.12500021E+03</rscale>
<asrwt>0</asrwt>
<pdfrwt beam="1">  1        4 0.13129216E-01 0.12500021E+03</pdfrwt>
<pdfrwt beam="2">  1       -4 0.70419993E-02 0.12500021E+03</pdfrwt>
<totfact> 0.10320621E+04</totfact>
</mgrwt>
</event>
<event>
 5    1  0.3225662E-002  0.1250001E+03  0.7818608E-02  0.1235069E+00
          4   -1    0    0  501    0  0.00000000000E+00  0.00000000000E+00  0.69729282769E+01  0.70876391524E+01  0.12700000000E+01 0.  1.
         -4   -1    0    0    0  501 -0.00000000000E+00 -0.00000000000E+00 -0.55551707321E+03  0.55551852492E+03  0.12700000000E+01 0.  1.
         25    2    1    2    0    0  0.00000000000E+00  0.00000000000E+00 -0.54854414494E+03  0.56260616408E+03  0.12500006764E+03 0.  0.
    9000005    1    3    3    0    0  0.21612238802E+02  0.58597179092E+02 -0.26468625752E+03  0.27195685905E+03  0.10000000000E+01 0.  0.
    9000005    1    3    3    0    0 -0.21612238802E+02 -0.58597179092E+02 -0.28385788742E+03  0.29064930503E+03  0.10000000000E+01 0.  0.
<mgrwt>
<rscale>  0 0.12500007E+03</rscale>
<asrwt>0</asrwt>
<pdfrwt beam="1">  1        4 0.10816942E-02 0.12500007E+03</pdfrwt>
<pdfrwt beam="2">  1       -4 0.85473066E-01 0.12500007E+03</pdfrwt>
<totfact> 0.51316359E+03</totfact>
</mgrwt>
</event>
<event>
 5    1  0.3225662E-002  0.1250012E+03  0.7818608E-02  0.1235067E+00
          4   -1    0    0  501    0  0.00000000000E+00  0.00000000000E+00  0.73195954938E+02  0.73206971794E+02  0.12700000000E+01 0. -1.
         -4   -1    0    0    0  501 -0.00000000000E+00 -0.00000000000E+00 -0.53345436459E+02  0.53360551824E+02  0.12700000000E+01 0. -1.
         25    2    1    2    0    0  0.00000000000E+00  0.00000000000E+00  0.19850518479E+02  0.12656752362E+03  0.12500117980E+03 0.  0.
    9000005    1    3    3    0    0  0.42774208734E+02  0.80684517891E+01 -0.35476222425E+02  0.56163112491E+02  0.10000000000E+01 0.  0.
    9000005    1    3    3    0    0 -0.42774208734E+02 -0.80684517891E+01  0.55326740904E+02  0.70404411127E+02  0.10000000000E+01 0.  0.
<mgrwt>
<rscale>  0 0.12500118E+03</rscale>
<asrwt>0</asrwt>
<pdfrwt beam="1">  1        4 0.11262926E-01 0.12500118E+03</pdfrwt>
<pdfrwt beam="2">  1       -4 0.82090004E-02 0.12500118E+03</pdfrwt>
<totfact> 0.10418279E+04</totfact>
</mgrwt>
</event>
<event>
 5    1  0.3225662E-002  0.1249952E+03  0.7818608E-02  0.1235077E+00
          4   -1    0    0  501    0  0.00000000000E+00  0.00000000000E+00  0.32229519114E+03  0.32229769334E+03  0.12700000000E+01 0. -1.
         -4   -1    0    0    0  501 -0.00000000000E+00 -0.00000000000E+00 -0.12083343794E+02  0.12149901121E+02  0.12700000000E+01 0. -1.
         25    2    1    2    0    0  0.00000000000E+00  0.00000000000E+00  0.31021184734E+03  0.33444759446E+03  0.12499521274E+03 0.  0.
    9000005    1    3    3    0    0  0.46973330050E+02  0.37727708022E+02  0.11072851637E+03  0.12606219903E+03  0.10000000000E+01 0.  0.
    9000005    1    3    3    0    0 -0.46973330050E+02 -0.37727708022E+02  0.19948333098E+03  0.20838539542E+03  0.10000000000E+01 0.  0.
<mgrwt>
<rscale>  0 0.12499521E+03</rscale>
<asrwt>0</asrwt>
<pdfrwt beam="1">  1        4 0.49589186E-01 0.12499521E+03</pdfrwt>
<pdfrwt beam="2">  1       -4 0.18642883E-02 0.12499521E+03</pdfrwt>
<totfact> 0.71477673E+03</totfact>
</mgrwt>
</event>
<event>
 5    1  0.3225662E-002  0.1249762E+03  0.7818608E-02  0.1235106E+00
         -4   -1    0    0    0  501 -0.00000000000E+00  0.00000000000E+00  0.37289875770E+02  0.37311496016E+02  0.12700000000E+01 0.  1.
          4   -1    0    0  501    0  0.00000000000E+00 -0.00000000000E+00 -0.10465800787E+03  0.10466571316E+03  0.12700000000E+01 0.  1.
         25    2    1    2    0    0  0.00000000000E+00  0.00000000000E+00 -0.67368132099E+02  0.14197720918E+03  0.12497624855E+03 0.  0.
    9000005    1    3    3    0    0  0.25232146454E+02 -0.56645839662E+02 -0.42362151029E+02  0.75106352631E+02  0.10000000000E+01 0.  0.
    9000005    1    3    3    0    0 -0.25232146454E+02  0.56645839662E+02 -0.25005981070E+02  0.66870856544E+02  0.10000000000E+01 0.  0.
<mgrwt>
<rscale>  0 0.12497625E+03</rscale>
<asrwt>0</asrwt>
<pdfrwt beam="2">  1        4 0.16103488E-01 0.12497625E+03</pdfrwt>
<pdfrwt beam="1">  1       -4 0.57391598E-02 0.12497625E+03</pdfrwt>
<totfact> 0.10098172E+04</totfact>
</mgrwt>
</event>
<event>
 5    1  0.3225662E-002  0.1249941E+03  0.7818608E-02  0.1235079E+00
          4   -1    0    0  501    0  0.00000000000E+00  0.00000000000E+00  0.51401150564E+02  0.51416837508E+02  0.12700000000E+01 0. -1.
         -4   -1    0    0    0  501 -0.00000000000E+00 -0.00000000000E+00 -0.75955592150E+02  0.75966208796E+02  0.12700000000E+01 0. -1.
         25    2    1    2    0    0  0.00000000000E+00  0.00000000000E+00 -0.24554441586E+02  0.12738304630E+03  0.12499407940E+03 0.  0.
    9000005    1    3    3    0    0 -0.17280622228E+02  0.44839085977E+02 -0.52987121904E+02  0.71538791040E+02  0.10000000000E+01 0.  0.
    9000005    1    3    3    0    0  0.17280622228E+02 -0.44839085977E+02  0.28432680318E+02  0.55844255263E+02  0.10000000000E+01 0.  0.
<mgrwt>
<rscale>  0 0.12499408E+03</rscale>
<asrwt>0</asrwt>
<pdfrwt beam="1">  1        4 0.79098926E-02 0.12499408E+03</pdfrwt>
<pdfrwt beam="2">  1       -4 0.11687499E-01 0.12499408E+03</pdfrwt>
<totfact> 0.10402224E+04</totfact>
</mgrwt>
</event>
<event>
 5    1  0.3225662E-002  0.1249958E+03  0.7818608E-02  0.1235076E+00
          4   -1    0    0  501    0  0.00000000000E+00  0.00000000000E+00  0.17329056660E+02  0.17375531783E+02  0.12700000000E+01 0.  1.
         -4   -1    0    0    0  501 -0.00000000000E+00 -0.00000000000E+00 -0.22505099699E+03  0.22505458037E+03  0.12700000000E+01 0.  1.
         25    2    1    2    0    0  0.00000000000E+00  0.00000000000E+00 -0.20772194033E+03  0.24243011215E+03  0.12499581907E+03 0.  0.
    9000005    1    3    3    0    0 -0.14955096219E+02  0.60669123621E+02 -0.10236965257E+03  0.11993724706E+03  0.10000000000E+01 0.  0.
    9000005    1    3    3    0    0  0.14955096219E+02 -0.60669123621E+02 -0.10535228776E+03  0.12249286510E+03  0.10000000000E+01 0.  0.
<mgrwt>
<rscale>  0 0.12499582E+03</rscale>
<asrwt>0</asrwt>
<pdfrwt beam="1">  1        4 0.26698595E-02 0.12499582E+03</pdfrwt>
<pdfrwt beam="2">  1       -4 0.34627079E-01 0.12499582E+03</pdfrwt>
<totfact> 0.83444548E+03</totfact>
</mgrwt>
</event>
<event>
 5    1  0.3225662E-002  0.1249895E+03  0.7818608E-02  0.1235086E+00
         -4   -1    0    0    0  501 -0.00000000000E+00  0.00000000000E+00  0.41643083722E+02  0.41662444982E+02  0.12700000000E+01 0.  1.
          4   -1    0    0  501    0  0.00000000000E+00 -0.00000000000E+00 -0.93741847243E+02  0.93750449730E+02  0.12700000000E+01 0.  1.
         25    2    1    2    0    0  0.00000000000E+00  0.00000000000E+00 -0.52098763521E+02  0.13541289471E+03  0.12498948313E+03 0.  0.
    9000005    1    3    3    0    0  0.46684789307E+02  0.28946798128E+02  0.62206057286E+01  0.55290890842E+02  0.10000000000E+01 0.  0.
    9000005    1    3    3    0    0 -0.46684789307E+02 -0.28946798128E+02 -0.58319369249E+02  0.80122003870E+02  0.10000000000E+01 0.  0.
<mgrwt>
<rscale>  0 0.12498948E+03</rscale>
<asrwt>0</asrwt>
<pdfrwt beam="2">  1        4 0.14423974E-01 0.12498948E+03</pdfrwt>
<pdfrwt beam="1">  1       -4 0.64087794E-02 0.12498948E+03</pdfrwt>
<totfact> 0.10231802E+04</totfact>
</mgrwt>
</event>
<event>
 5    1  0.3225662E-002  0.1249933E+03  0.7818608E-02  0.1235080E+00
          4   -1    0    0  501    0  0.00000000000E+00  0.00000000000E+00  0.22740722571E+03  0.22741077196E+03  0.12700000000E+01 0.  1.
         -4   -1    0    0    0  501 -0.00000000000E+00 -0.00000000000E+00 -0.17148321584E+02  0.17195285201E+02  0.12700000000E+01 0.  1.
         25    2    1    2    0    0  0.00000000000E+00  0.00000000000E+00  0.21025890413E+03  0.24460605716E+03  0.12499326557E+03 0.  0.
    9000005    1    3    3    0    0  0.39645354377E+02 -0.37955405154E+02  0.46667204275E+02  0.72049946974E+02  0.10000000000E+01 0.  0.
    9000005    1    3    3    0    0 -0.39645354377E+02  0.37955405154E+02  0.16359169985E+03  0.17255611019E+03  0.10000000000E+01 0.  0.
<mgrwt>
<rscale>  0 0.12499327E+03</rscale>
<asrwt>0</asrwt>
<pdfrwt beam="1">  1        4 0.34989611E-01 0.12499327E+03</pdfrwt>
<pdfrwt beam="2">  1       -4 0.26420888E-02 0.12499327E+03</pdfrwt>
<totfact> 0.83128600E+03</totfact>
</mgrwt>
</event>
<event>
 5    1  0.3225662E-002  0.1249936E+03  0.7818608E-02  0.1235079E+00
          4   -1    0    0  501    0  0.00000000000E+00  0.00000000000E+00  0.29926229549E+03  0.29926499027E+03  0.12700000000E+01 0.  1.
         -4   -1    0    0    0  501 -0.00000000000E+00 -0.00000000000E+00 -0.13017933237E+02  0.13079735692E+02  0.12700000000E+01 0.  1.
         25    2    1    2    0    0  0.00000000000E+00  0.00000000000E+00  0.28624436225E+03  0.31234472596E+03  0.12499357150E+03 0.  0.
    9000005    1    3    3    0    0  0.37116247566E+02  0.48202905236E+02  0.10745612000E+03  0.12348665366E+03  0.10000000000E+01 0.  0.
    9000005    1    3    3    0    0 -0.37116247566E+02 -0.48202905236E+02  0.17878824225E+03  0.18885807230E+03  0.10000000000E+01 0.  0.
<mgrwt>
<rscale>  0 0.12499357E+03</rscale>
<asrwt>0</asrwt>
<pdfrwt beam="1">  1        4 0.46045310E-01 0.12499357E+03</pdfrwt>
<pdfrwt beam="2">  1       -4 0.20077205E-02 0.12499357E+03</pdfrwt>
<totfact> 0.74086529E+03</totfact>
</mgrwt>
</event>
<event>
 5    1  0.3225662E-002  0.1250000E+03  0.7818608E-02  0.1235069E+00
         -4   -1    0    0    0  501 -0.00000000000E+00  0.00000000000E+00  0.22335325229E+03  0.22335686291E+03  0.12700000000E+01 0. -1.
          4   -1    0    0  501    0  0.00000000000E+00 -0.00000000000E+00 -0.17462290624E+02  0.17508412088E+02  0.12700000000E+01 0. -1.
         25    2    1    2    0    0  0.00000000000E+00  0.00000000000E+00  0.20589096167E+03  0.24086527500E+03  0.12499997042E+03 0.  0.
    9000005    1    3    3    0    0 -0.79435450115E+01 -0.58397574370E+02  0.62901100146E+02  0.86202813174E+02  0.10000000000E+01 0.  0.
    9000005    1    3    3    0    0  0.79435450115E+01  0.58397574370E+02  0.14298986152E+03  0.15466246183E+03  0.10000000000E+01 0.  0.
<mgrwt>
<rscale>  0 0.12499997E+03</rscale>
<asrwt>0</asrwt>
<pdfrwt beam="2">  1        4 0.26903320E-02 0.12499997E+03</pdfrwt>
<pdfrwt beam="1">  1       -4 0.34365861E-01 0.12499997E+03</pdfrwt>
<totfact> 0.83668726E+03</totfact>
</mgrwt>
</event>
<event>
 5    1  0.3225662E-002  0.1249762E+03  0.7818608E-02  0.1235107E+00
         -4   -1    0    0    0  501 -0.00000000000E+00  0.00000000000E+00  0.40536532161E+02  0.40556421682E+02  0.12700000000E+01 0. -1.
          4   -1    0    0  501    0  0.00000000000E+00 -0.00000000000E+00 -0.96279228867E+02  0.96287604660E+02  0.12700000000E+01 0. -1.
         25    2    1    2    0    0  0.00000000000E+00  0.00000000000E+00 -0.55742696706E+02  0.13684402634E+03  0.12497615496E+03 0.  0.
    9000005    1    3    3    0    0  0.53217145148E+02 -0.24803633342E+02 -0.51265495293E+02  0.77951496280E+02  0.10000000000E+01 0.  0.
    9000005    1    3    3    0    0 -0.53217145148E+02  0.24803633342E+02 -0.44772014135E+01  0.58892530062E+02  0.10000000000E+01 0.  0.
<mgrwt>
<rscale>  0 0.12497615E+03</rscale>
<asrwt>0</asrwt>
<pdfrwt beam="2">  1        4 0.14814363E-01 0.12497615E+03</pdfrwt>
<pdfrwt beam="1">  1       -4 0.62385639E-02 0.12497615E+03</pdfrwt>
<totfact> 0.10204834E+04</totfact>
</mgrwt>
</event>
<event>
 5    1  0.3225662E-002  0.1249939E+03  0.7818608E-02  0.1235079E+00
          4   -1    0    0  501    0  0.00000000000E+00  0.00000000000E+00  0.50941342158E+02  0.50957170652E+02  0.12700000000E+01 0. -1.
         -4   -1    0    0    0  501 -0.00000000000E+00 -0.00000000000E+00 -0.76640836015E+02  0.76651357751E+02  0.12700000000E+01 0. -1.
         25    2    1    2    0    0  0.00000000000E+00  0.00000000000E+00 -0.25699493857E+02  0.12760852840E+03  0.12499389000E+03 0.  0.
    9000005    1    3    3    0    0  0.10409498132E+02  0.51992349970E+02 -0.46606587094E+02  0.70602663316E+02  0.10000000000E+01 0.  0.
    9000005    1    3    3    0    0 -0.10409498132E+02 -0.51992349970E+02  0.20907093236E+02  0.57005865087E+02  0.10000000000E+01 0.  0.
<mgrwt>
<rscale>  0 0.12499389E+03</rscale>
<asrwt>0</asrwt>
<pdfrwt beam="1">  1        4 0.78391565E-02 0.12499389E+03</pdfrwt>
<pdfrwt beam="2">  1       -4 0.11792925E-01 0.12499389E+03</pdfrwt>
<totfact> 0.10397385E+04</totfact>
</mgrwt>
</event>
<event>
 5    1  0.3225662E-002  0.1250119E+03  0.7818608E-02  0.1235051E+00
         -4   -1    0    0    0  501 -0.00000000000E+00  0.00000000000E+00  0.10937308618E+02  0.11010795602E+02  0.12700000000E+01 0.  1.
          4   -1    0    0  501    0  0.00000000000E+00 -0.00000000000E+00 -0.35594624792E+03  0.35594851357E+03  0.12700000000E+01 0.  1.
         25    2    1    2    0    0  0.00000000000E+00  0.00000000000E+00 -0.34500893930E+03  0.36695930917E+03  0.12501186498E+03 0.  0.
    9000005    1    3    3    0    0 -0.31518078940E+02  0.53817222655E+02 -0.16065010624E+03  0.17233438250E+03  0.10000000000E+01 0.  0.
    9000005    1    3    3    0    0  0.31518078940E+02 -0.53817222655E+02 -0.18435883306E+03  0.19462492667E+03  0.10000000000E+01 0.  0.
<mgrwt>
<rscale>  0 0.12501186E+03</rscale>
<asrwt>0</asrwt>
<pdfrwt beam="2">  1        4 0.54766779E-01 0.12501186E+03</pdfrwt>
<pdfrwt beam="1">  1       -4 0.16884903E-02 0.12501186E+03</pdfrwt>
<totfact> 0.67880448E+03</totfact>
</mgrwt>
</event>
<event>
 5    1  0.3225662E-002  0.1250014E+03  0.7818608E-02  0.1235067E+00
         -4   -1    0    0    0  501 -0.00000000000E+00  0.00000000000E+00  0.13218429640E+04  0.13218435741E+04  0.12700000000E+01 0.  1.
          4   -1    0    0  501    0  0.00000000000E+00 -0.00000000000E+00 -0.28181359899E+01  0.30910824087E+01  0.12700000000E+01 0.  1.
         25    2    1    2    0    0  0.00000000000E+00  0.00000000000E+00  0.13190248280E+04  0.13249346565E+04  0.12500138838E+03 0.  0.
    9000005    1    3    3    0    0  0.45061558004E+02  0.42690860255E+02  0.58287148377E+03  0.58616825242E+03  0.10000000000E+01 0.  0.
    9000005    1    3    3    0    0 -0.45061558004E+02 -0.42690860255E+02  0.73615334423E+03  0.73876640407E+03  0.10000000000E+01 0.  0.
<mgrwt>
<rscale>  0 0.12500139E+03</rscale>
<asrwt>0</asrwt>
<pdfrwt beam="2">  1        4 0.45460207E-03 0.12500139E+03</pdfrwt>
<pdfrwt beam="1">  1       -4 0.20338155E+00 0.12500139E+03</pdfrwt>
<totfact> 0.21646899E+03</totfact>
</mgrwt>
</event>
<event>
 5    1  0.3225662E-002  0.1249996E+03  0.7818608E-02  0.1235070E+00
          4   -1    0    0  501    0  0.00000000000E+00  0.00000000000E+00  0.30807266972E+02  0.30833433125E+02  0.12700000000E+01 0.  1.
         -4   -1    0    0    0  501 -0.00000000000E+00 -0.00000000000E+00 -0.12671233281E+03  0.12671869706E+03  0.12700000000E+01 0.  1.
         25    2    1    2    0    0  0.00000000000E+00  0.00000000000E+00 -0.95905065836E+02  0.15755213019E+03  0.12499956830E+03 0.  0.
    9000005    1    3    3    0    0 -0.35743481462E+02  0.14867298748E+02 -0.10978503465E+03  0.11641471931E+03  0.10000000000E+01 0.  0.
    9000005    1    3    3    0    0  0.35743481462E+02 -0.14867298748E+02  0.13879968819E+02  0.41137410875E+02  0.10000000000E+01 0.  0.
<mgrwt>
<rscale>  0 0.12499957E+03</rscale>
<asrwt>0</asrwt>
<pdfrwt beam="1">  1        4 0.47420820E-02 0.12499957E+03</pdfrwt>
<pdfrwt beam="2">  1       -4 0.19496707E-01 0.12499957E+03</pdfrwt>
<totfact> 0.97817751E+03</totfact>
</mgrwt>
</event>
<event>
 5    1  0.3225662E-002  0.1250060E+03  0.7818608E-02  0.1235060E+00
          4   -1    0    0  501    0  0.00000000000E+00  0.00000000000E+00  0.58089763945E+03  0.58089902773E+03  0.12700000000E+01 0.  1.
         -4   -1    0    0    0  501 -0.00000000000E+00 -0.00000000000E+00 -0.66637899192E+01  0.67837302487E+01  0.12700000000E+01 0.  1.
         25    2    1    2    0    0  0.00000000000E+00  0.00000000000E+00  0.57423384953E+03  0.58768275798E+03  0.12500604017E+03 0.  0.
    9000005    1    3    3    0    0  0.41673743362E+01  0.51284591440E+02  0.12036211564E+03  0.13090269367E+03  0.10000000000E+01 0.  0.
    9000005    1    3    3    0    0 -0.41673743362E+01 -0.51284591440E+02  0.45387173389E+03  0.45678006431E+03  0.10000000000E+01 0.  0.
<mgrwt>
<rscale>  0 0.12500604E+03</rscale>
<asrwt>0</asrwt>
<pdfrwt beam="1">  1        4 0.89378213E-01 0.12500604E+03</pdfrwt>
<pdfrwt beam="2">  1       -4 0.10345313E-02 0.12500604E+03</pdfrwt>
<totfact> 0.49647873E+03</totfact>
</mgrwt>
</event>
<event>
 5    1  0.3225662E-002  0.1249998E+03  0.7818608E-02  0.1235070E+00
          4   -1    0    0  501    0  0.00000000000E+00  0.00000000000E+00  0.15395467314E+02  0.15447760802E+02  0.12700000000E+01 0.  1.
         -4   -1    0    0    0  501 -0.00000000000E+00 -0.00000000000E+00 -0.25324220027E+03  0.25324538475E+03  0.12700000000E+01 0.  1.
         25    2    1    2    0    0  0.00000000000E+00  0.00000000000E+00 -0.23784673295E+03  0.26869314555E+03  0.12499975236E+03 0.  0.
    9000005    1    3    3    0    0 -0.20998608786E+01 -0.59151542979E+02 -0.16201741353E+03  0.17249335274E+03  0.10000000000E+01 0.  0.
    9000005    1    3    3    0    0  0.20998608786E+01  0.59151542979E+02 -0.75829319423E+02  0.96199792810E+02  0.10000000000E+01 0.  0.
<mgrwt>
<rscale>  0 0.12499975E+03</rscale>
<asrwt>0</asrwt>
<pdfrwt beam="1">  1        4 0.23728012E-02 0.12499975E+03</pdfrwt>
<pdfrwt beam="2">  1       -4 0.38964603E-01 0.12499975E+03</pdfrwt>
<totfact> 0.79701811E+03</totfact>
</mgrwt>
</event>
<event>
 5    1  0.3225662E-002  0.1249950E+03  0.7818608E-02  0.1235077E+00
         -4   -1    0    0    0  501 -0.00000000000E+00  0.00000000000E+00  0.27107843251E+02  0.27137576637E+02  0.12700000000E+01 0.  1.
          4   -1    0    0  501    0  0.00000000000E+00 -0.00000000000E+00 -0.14397733906E+03  0.14398294018E+03  0.12700000000E+01 0.  1.
         25    2    1    2    0    0  0.00000000000E+00  0.00000000000E+00 -0.11686949581E+03  0.17112051682E+03  0.12499500880E+03 0.  0.
    9000005    1    3    3    0    0 -0.17700581640E+02  0.18454888565E+02  0.19623872691E+02  0.32248874116E+02  0.10000000000E+01 0.  0.
    9000005    1    3    3    0    0  0.17700581640E+02 -0.18454888565E+02 -0.13649336850E+03  0.13887164270E+03  0.10000000000E+01 0.  0.
<mgrwt>
<rscale>  0 0.12499501E+03</rscale>
<asrwt>0</asrwt>
<pdfrwt beam="2">  1        4 0.22153077E-01 0.12499501E+03</pdfrwt>
<pdfrwt beam="1">  1       -4 0.41731555E-02 0.12499501E+03</pdfrwt>
<totfact> 0.95250868E+03</totfact>
</mgrwt>
</event>
<event>
 5    1  0.3225662E-002  0.1249991E+03  0.7818608E-02  0.1235071E+00
         -4   -1    0    0    0  501 -0.00000000000E+00  0.00000000000E+00  0.17020541917E+04  0.17020546655E+04  0.12700000000E+01 0. -1.
          4   -1    0    0  501    0  0.00000000000E+00 -0.00000000000E+00 -0.21187802036E+01  0.24702488845E+01  0.12700000000E+01 0. -1.
         25    2    1    2    0    0  0.00000000000E+00  0.00000000000E+00  0.16999354115E+04  0.17045249144E+04  0.12499912212E+03 0.  0.
    9000005    1    3    3    0    0 -0.57424404777E+02  0.14276000157E+01  0.51439435148E+03  0.51759264788E+03  0.10000000000E+01 0.  0.
    9000005    1    3    3    0    0  0.57424404777E+02 -0.14276000157E+01  0.11855410600E+04  0.11869322665E+04  0.10000000000E+01 0.  0.
<mgrwt>
<rscale>  0 0.12499912E+03</rscale>
<asrwt>0</asrwt>
<pdfrwt beam="2">  1        4 0.35303950E-03 0.12499912E+03</pdfrwt>
<pdfrwt beam="1">  1       -4 0.26188096E+00 0.12499912E+03</pdfrwt>
<totfact> 0.14232900E+03</totfact>
</mgrwt>
</event>
<event>
 5    1  0.3225662E-002  0.1250002E+03  0.7818608E-02  0.1235069E+00
         -4   -1    0    0    0  501 -0.00000000000E+00  0.00000000000E+00  0.76098195785E+01  0.77150666891E+01  0.12700000000E+01 0. -1.
          4   -1    0    0  501    0  0.00000000000E+00 -0.00000000000E+00 -0.50968764628E+03  0.50968922852E+03  0.12700000000E+01 0. -1.
         25    2    1    2    0    0  0.00000000000E+00  0.00000000000E+00 -0.50207782670E+03  0.51740429521E+03  0.12500024255E+03 0.  0.
    9000005    1    3    3    0    0  0.16376110498E+02 -0.55878975244E+02 -0.15713882473E+03  0.16758355262E+03  0.10000000000E+01 0.  0.
    9000005    1    3    3    0    0 -0.16376110498E+02  0.55878975244E+02 -0.34493900197E+03  0.34982074259E+03  0.10000000000E+01 0.  0.
<mgrwt>
<rscale>  0 0.12500024E+03</rscale>
<asrwt>0</asrwt>
<pdfrwt beam="2">  1        4 0.78421675E-01 0.12500024E+03</pdfrwt>
<pdfrwt beam="1">  1       -4 0.11789595E-02 0.12500024E+03</pdfrwt>
<totfact> 0.54538569E+03</totfact>
</mgrwt>
</event>
<event>
 4    1  0.3225662E-002  0.1253366E+03  0.7818608E-02  0.1234544E+00
         -4   -1    0    0    0  501 -0.00000000000E+00  0.00000000000E+00  0.11794119885E+04  0.11794126723E+04  0.12700000000E+01 0.  1.
          4   -1    0    0  501    0  0.00000000000E+00 -0.00000000000E+00 -0.32080901174E+01  0.34503249414E+01  0.12700000000E+01 0.  1.
    9000005    1    1    2    0    0 -0.43762079909E+02 -0.31194003712E+02  0.89217808128E+03  0.89379579000E+03  0.10000000000E+01 0.  0.
    9000005    1    1    2    0    0  0.43762079909E+02  0.31194003712E+02  0.28402581709E+03  0.28906720720E+03  0.10000000000E+01 0.  0.
<mgrwt>
<rscale>  0 0.12533659E+03</rscale>
<asrwt>0</asrwt>
<pdfrwt beam="2">  1        4 0.51223813E-03 0.12533659E+03</pdfrwt>
<pdfrwt beam="1">  1       -4 0.18146677E+00 0.12533659E+03</pdfrwt>
<totfact> 0.24981878E+03</totfact>
</mgrwt>
</event>
<event>
 5    1  0.3225662E-002  0.1249610E+03  0.7818608E-02  0.1235130E+00
         -4   -1    0    0    0  501 -0.00000000000E+00  0.00000000000E+00  0.60947677240E+02  0.60960907645E+02  0.12700000000E+01 0.  1.
          4   -1    0    0  501    0  0.00000000000E+00 -0.00000000000E+00 -0.64025435916E+02  0.64038030453E+02  0.12700000000E+01 0.  1.
         25    2    1    2    0    0  0.00000000000E+00  0.00000000000E+00 -0.30777586763E+01  0.12499893810E+03  0.12496104164E+03 0.  0.
    9000005    1    3    3    0    0  0.39077019713E+02 -0.45890154812E+02 -0.17972364325E+02  0.62904098894E+02  0.10000000000E+01 0.  0.
    9000005    1    3    3    0    0 -0.39077019713E+02  0.45890154812E+02  0.14894605649E+02  0.62094839203E+02  0.10000000000E+01 0.  0.
<mgrwt>
<rscale>  0 0.12496104E+03</rscale>
<asrwt>0</asrwt>
<pdfrwt beam="2">  1        4 0.98520537E-02 0.12496104E+03</pdfrwt>
<pdfrwt beam="1">  1       -4 0.93785522E-02 0.12496104E+03</pdfrwt>
<totfact> 0.10462095E+04</totfact>
</mgrwt>
</event>
<event>
 5    1  0.3225662E-002  0.1249994E+03  0.7818608E-02  0.1235070E+00
          4   -1    0    0  501    0  0.00000000000E+00  0.00000000000E+00  0.66151935997E+02  0.66164125749E+02  0.12700000000E+01 0.  1.
         -4   -1    0    0    0  501 -0.00000000000E+00 -0.00000000000E+00 -0.59024685279E+02  0.59038346626E+02  0.12700000000E+01 0.  1.
         25    2    1    2    0    0  0.00000000000E+00  0.00000000000E+00  0.71272507180E+01  0.12520247238E+03  0.12499944554E+03 0.  0.
    9000005    1    3    3    0    0  0.25521303987E+02 -0.56134394123E+02 -0.65922804860E+01  0.62023103138E+02  0.10000000000E+01 0.  0.
    9000005    1    3    3    0    0 -0.25521303987E+02  0.56134394123E+02  0.13719531204E+02  0.63179369238E+02  0.10000000000E+01 0.  0.
<mgrwt>
<rscale>  0 0.12499945E+03</rscale>
<asrwt>0</asrwt>
<pdfrwt beam="1">  1        4 0.10179209E-01 0.12499945E+03</pdfrwt>
<pdfrwt beam="2">  1       -4 0.90827094E-02 0.12499945E+03</pdfrwt>
<totfact> 0.10448597E+04</totfact>
</mgrwt>
</event>
<event>
 5    1  0.3225662E-002  0.1249929E+03  0.7818608E-02  0.1235080E+00
          4   -1    0    0  501    0  0.00000000000E+00  0.00000000000E+00  0.11105858256E+03  0.11106584381E+03  0.12700000000E+01 0.  1.
         -4   -1    0    0    0  501 -0.00000000000E+00 -0.00000000000E+00 -0.35149011452E+02  0.35171947715E+02  0.12700000000E+01 0.  1.
         25    2    1    2    0    0  0.00000000000E+00  0.00000000000E+00  0.75909571112E+02  0.14623779152E+03  0.12499291453E+03 0.  0.
    9000005    1    3    3    0    0 -0.26606433015E+02 -0.56504881807E+02  0.40324723052E+02  0.74349090344E+02  0.10000000000E+01 0.  0.
    9000005    1    3    3    0    0  0.26606433015E+02  0.56504881807E+02  0.35584848060E+02  0.71888701180E+02  0.10000000000E+01 0.  0.
<mgrwt>
<rscale>  0 0.12499291E+03</rscale>
<asrwt>0</asrwt>
<pdfrwt beam="1">  1        4 0.17088258E-01 0.12499291E+03</pdfrwt>
<pdfrwt beam="2">  1       -4 0.54098632E-02 0.12499291E+03</pdfrwt>
<totfact> 0.10007496E+04</totfact>
</mgrwt>
</event>
<event>
 5    1  0.3225662E-002  0.1249968E+03  0.7818608E-02  0.1235074E+00
          4   -1    0    0  501    0  0.00000000000E+00  0.00000000000E+00  0.68234007711E+03  0.68234125900E+03  0.12700000000E+01 0.  1.
         -4   -1    0    0    0  501 -0.00000000000E+00 -0.00000000000E+00 -0.56528538551E+01  0.57937601527E+01  0.12700000000E+01 0.  1.
         25    2    1    2    0    0  0.00000000000E+00  0.00000000000E+00  0.67668722326E+03  0.68813501915E+03  0.12499682582E+03 0.  0.
    9000005    1    3    3    0    0  0.43087918298E+02 -0.37620622187E+02  0.19981629475E+03  0.20784472947E+03  0.10000000000E+01 0.  0.
    9000005    1    3    3    0    0 -0.43087918298E+02  0.37620622187E+02  0.47687092850E+03  0.48029028969E+03  0.10000000000E+01 0.  0.
<mgrwt>
<rscale>  0 0.12499683E+03</rscale>
<asrwt>0</asrwt>
<pdfrwt beam="1">  1        4 0.10498632E+00 0.12499683E+03</pdfrwt>
<pdfrwt beam="2">  1       -4 0.88059978E-03 0.12499683E+03</pdfrwt>
<totfact> 0.43723513E+03</totfact>
</mgrwt>
</event>
<event>
 5    1  0.3225662E-002  0.1250021E+03  0.7818608E-02  0.1235066E+00
         -4   -1    0    0    0  501 -0.00000000000E+00  0.00000000000E+00  0.31517011947E+01  0.33979582723E+01  0.12700000000E+01 0.  1.
          4   -1    0    0  501    0  0.00000000000E+00 -0.00000000000E+00 -0.11926036706E+04  0.11926043468E+04  0.12700000000E+01 0.  1.
         25    2    1    2    0    0  0.00000000000E+00  0.00000000000E+00 -0.11894519694E+04  0.11960023051E+04  0.12500210494E+03 0.  0.
    9000005    1    3    3    0    0  0.51269828333E+02 -0.26840915159E+02 -0.36904792667E+03  0.37355910135E+03  0.10000000000E+01 0.  0.
    9000005    1    3    3    0    0 -0.51269828333E+02  0.26840915159E+02 -0.82040404273E+03  0.82244320373E+03  0.10000000000E+01 0.  0.
<mgrwt>
<rscale>  0 0.12500210E+03</rscale>
<asrwt>0</asrwt>
<pdfrwt beam="2">  1        4 0.18349614E+00 0.12500210E+03</pdfrwt>
<pdfrwt beam="1">  1       -4 0.50387292E-03 0.12500210E+03</pdfrwt>
<totfact> 0.24816546E+03</totfact>
</mgrwt>
</event>
<event>
 5    1  0.3225662E-002  0.1250037E+03  0.7818608E-02  0.1235063E+00
          4   -1    0    0  501    0  0.00000000000E+00  0.00000000000E+00  0.21829633776E+02  0.21866545470E+02  0.12700000000E+01 0. -1.
         -4   -1    0    0    0  501 -0.00000000000E+00 -0.00000000000E+00 -0.17876291526E+03  0.17876742649E+03  0.12700000000E+01 0. -1.
         25    2    1    2    0    0  0.00000000000E+00  0.00000000000E+00 -0.15693328149E+03  0.20063397196E+03  0.12500374341E+03 0.  0.
    9000005    1    3    3    0    0 -0.35362462930E+01 -0.23072190889E+02 -0.17151169303E+03  0.17309561483E+03  0.10000000000E+01 0.  0.
    9000005    1    3    3    0    0  0.35362462930E+01  0.23072190889E+02  0.14578411536E+02  0.27538357126E+02  0.10000000000E+01 0.  0.
<mgrwt>
<rscale>  0 0.12500374E+03</rscale>
<asrwt>0</asrwt>
<pdfrwt beam="1">  1        4 0.33615917E-02 0.12500374E+03</pdfrwt>
<pdfrwt beam="2">  1       -4 0.27505172E-01 0.12500374E+03</pdfrwt>
<totfact> 0.90021152E+03</totfact>
</mgrwt>
</event>
<event>
 5    1  0.3225662E-002  0.1249960E+03  0.7818608E-02  0.1235076E+00
          4   -1    0    0  501    0  0.00000000000E+00  0.00000000000E+00  0.19069548223E+02  0.19111791371E+02  0.12700000000E+01 0. -1.
         -4   -1    0    0    0  501 -0.00000000000E+00 -0.00000000000E+00 -0.20455819225E+03  0.20456213461E+03  0.12700000000E+01 0. -1.
         25    2    1    2    0    0  0.00000000000E+00  0.00000000000E+00 -0.18548864403E+03  0.22367392598E+03  0.12499595234E+03 0.  0.
    9000005    1    3    3    0    0  0.41163874630E+02  0.34398245963E+02 -0.35389940374E+02  0.64274036590E+02  0.10000000000E+01 0.  0.
    9000005    1    3    3    0    0 -0.41163874630E+02 -0.34398245963E+02 -0.15009870365E+03  0.15939988939E+03  0.10000000000E+01 0.  0.
<mgrwt>
<rscale>  0 0.12499595E+03</rscale>
<asrwt>0</asrwt>
<pdfrwt beam="1">  1        4 0.29373295E-02 0.12499595E+03</pdfrwt>
<pdfrwt beam="2">  1       -4 0.31474042E-01 0.12499595E+03</pdfrwt>
<totfact> 0.86298117E+03</totfact>
</mgrwt>
</event>
<event>
 5    1  0.3225662E-002  0.1250084E+03  0.7818608E-02  0.1235056E+00
         -4   -1    0    0    0  501 -0.00000000000E+00  0.00000000000E+00  0.70849894188E+02  0.70861275789E+02  0.12700000000E+01 0. -1.
          4   -1    0    0  501    0  0.00000000000E+00 -0.00000000000E+00 -0.55118486447E+02  0.55133115712E+02  0.12700000000E+01 0. -1.
         25    2    1    2    0    0  0.00000000000E+00  0.00000000000E+00  0.15731407742E+02  0.12599439150E+03  0.12500843772E+03 0.  0.
    9000005    1    3    3    0    0  0.23386663370E+02 -0.11661845064E+01  0.66266489740E+02  0.70289001076E+02  0.10000000000E+01 0.  0.
    9000005    1    3    3    0    0 -0.23386663370E+02  0.11661845064E+01 -0.50535081998E+02  0.55705390425E+02  0.10000000000E+01 0.  0.
<mgrwt>
<rscale>  0 0.12500844E+03</rscale>
<asrwt>0</asrwt>
<pdfrwt beam="2">  1        4 0.84817679E-02 0.12500844E+03</pdfrwt>
<pdfrwt beam="1">  1       -4 0.10901985E-01 0.12500844E+03</pdfrwt>
<totfact> 0.10429094E+04</totfact>
</mgrwt>
</event>
<event>
 5    1  0.3225662E-002  0.1250000E+03  0.7818608E-02  0.1235069E+00
         -4   -1    0    0    0  501 -0.00000000000E+00  0.00000000000E+00  0.74967319220E+03  0.74967426793E+03  0.12700000000E+01 0.  1.
          4   -1    0    0  501    0  0.00000000000E+00 -0.00000000000E+00 -0.51321214592E+01  0.52869245003E+01  0.12700000000E+01 0.  1.
         25    2    1    2    0    0  0.00000000000E+00  0.00000000000E+00  0.74454107074E+03  0.75496119243E+03  0.12499998425E+03 0.  0.
    9000005    1    3    3    0    0  0.60200528047E+01 -0.18144651337E+02  0.73160823331E+03  0.73185864513E+03  0.10000000000E+01 0.  0.
    9000005    1    3    3    0    0 -0.60200528047E+01  0.18144651337E+02  0.12932837432E+02  0.23102547304E+02  0.10000000000E+01 0.  0.
<mgrwt>
<rscale>  0 0.12499998E+03</rscale>
<asrwt>0</asrwt>
<pdfrwt beam="2">  1        4 0.80154798E-03 0.12499998E+03</pdfrwt>
<pdfrwt beam="1">  1       -4 0.11534631E+00 0.12499998E+03</pdfrwt>
<totfact> 0.40337980E+03</totfact>
</mgrwt>
</event>
<event>
 5    1  0.3225662E-002  0.1250112E+03  0.7818608E-02  0.1235052E+00
         -4   -1    0    0    0  501 -0.00000000000E+00  0.00000000000E+00  0.10075932915E+04  0.10075940918E+04  0.12700000000E+01 0. -1.
          4   -1    0    0  501    0  0.00000000000E+00 -0.00000000000E+00 -0.37726937667E+01  0.39807183092E+01  0.12700000000E+01 0. -1.
         25    2    1    2    0    0  0.00000000000E+00  0.00000000000E+00  0.10038205977E+04  0.10115748102E+04  0.12501121613E+03 0.  0.
    9000005    1    3    3    0    0  0.31208200439E+02 -0.53505660124E+02  0.56919634663E+03  0.57255767260E+03  0.10000000000E+01 0.  0.
    9000005    1    3    3    0    0 -0.31208200439E+02  0.53505660124E+02  0.43462425108E+03  0.43901713755E+03  0.10000000000E+01 0.  0.
<mgrwt>
<rscale>  0 0.12501122E+03</rscale>
<asrwt>0</asrwt>
<pdfrwt beam="2">  1        4 0.59647654E-03 0.12501122E+03</pdfrwt>
<pdfrwt beam="1">  1       -4 0.15503077E+00 0.12501122E+03</pdfrwt>
<totfact> 0.30217854E+03</totfact>
</mgrwt>
</event>
<event>
 5    1  0.3225662E-002  0.1250008E+03  0.7818608E-02  0.1235068E+00
          4   -1    0    0  501    0  0.00000000000E+00  0.00000000000E+00  0.78935687976E+02  0.78945903860E+02  0.12700000000E+01 0. -1.
         -4   -1    0    0    0  501 -0.00000000000E+00 -0.00000000000E+00 -0.49465537331E+02  0.49481837915E+02  0.12700000000E+01 0. -1.
         25    2    1    2    0    0  0.00000000000E+00  0.00000000000E+00  0.29470150645E+02  0.12842774178E+03  0.12500078031E+03 0.  0.
    9000005    1    3    3    0    0 -0.54223349232E+02 -0.40852868038E+00  0.46650515518E+02  0.71537466378E+02  0.10000000000E+01 0.  0.
    9000005    1    3    3    0    0  0.54223349232E+02  0.40852868038E+00 -0.17180364873E+02  0.56890275398E+02  0.10000000000E+01 0.  0.
<mgrwt>
<rscale>  0 0.12500078E+03</rscale>
<asrwt>0</asrwt>
<pdfrwt beam="1">  1        4 0.12145992E-01 0.12500078E+03</pdfrwt>
<pdfrwt beam="2">  1       -4 0.76121225E-02 0.12500078E+03</pdfrwt>
<totfact> 0.10378078E+04</totfact>
</mgrwt>
</event>
<event>
 5    1  0.3225662E-002  0.1250020E+03  0.7818608E-02  0.1235066E+00
         -4   -1    0    0    0  501 -0.00000000000E+00  0.00000000000E+00  0.26908265072E+02  0.26938218745E+02  0.12700000000E+01 0.  1.
          4   -1    0    0  501    0  0.00000000000E+00 -0.00000000000E+00 -0.14506021795E+03  0.14506577726E+03  0.12700000000E+01 0.  1.
         25    2    1    2    0    0  0.00000000000E+00  0.00000000000E+00 -0.11815195288E+03  0.17200399601E+03  0.12500196268E+03 0.  0.
    9000005    1    3    3    0    0 -0.37794377286E+02  0.38915990894E+02 -0.10176564994E+03  0.11532613238E+03  0.10000000000E+01 0.  0.
    9000005    1    3    3    0    0  0.37794377286E+02 -0.38915990894E+02 -0.16386302945E+02  0.56677863632E+02  0.10000000000E+01 0.  0.
<mgrwt>
<rscale>  0 0.12500196E+03</rscale>
<asrwt>0</asrwt>
<pdfrwt beam="2">  1        4 0.22319688E-01 0.12500196E+03</pdfrwt>
<pdfrwt beam="1">  1       -4 0.41424649E-02 0.12500196E+03</pdfrwt>
<totfact> 0.95072246E+03</totfact>
</mgrwt>
</event>
<event>
 5    1  0.3225662E-002  0.1250018E+03  0.7818608E-02  0.1235066E+00
         -4   -1    0    0    0  501 -0.00000000000E+00  0.00000000000E+00  0.14904393190E+03  0.14904934262E+03  0.12700000000E+01 0.  1.
          4   -1    0    0  501    0  0.00000000000E+00 -0.00000000000E+00 -0.26188188335E+02  0.26218964668E+02  0.12700000000E+01 0.  1.
         25    2    1    2    0    0  0.00000000000E+00  0.00000000000E+00  0.12285574356E+03  0.17526830729E+03  0.12500178324E+03 0.  0.
    9000005    1    3    3    0    0  0.37189095889E+02 -0.26076963608E+02  0.12161037610E+03  0.12981956886E+03  0.10000000000E+01 0.  0.
    9000005    1    3    3    0    0 -0.37189095889E+02  0.26076963608E+02  0.12453674569E+01  0.45448738422E+02  0.10000000000E+01 0.  0.
<mgrwt>
<rscale>  0 0.12500178E+03</rscale>
<asrwt>0</asrwt>
<pdfrwt beam="2">  1        4 0.40317357E-02 0.12500178E+03</pdfrwt>
<pdfrwt beam="1">  1       -4 0.22932619E-01 0.12500178E+03</pdfrwt>
<totfact> 0.94471944E+03</totfact>
</mgrwt>
</event>
<event>
 5    1  0.3225662E-002  0.1250080E+03  0.7818608E-02  0.1235057E+00
         -4   -1    0    0    0  501 -0.00000000000E+00  0.00000000000E+00  0.33860658031E+02  0.33884466386E+02  0.12700000000E+01 0. -1.
          4   -1    0    0  501    0  0.00000000000E+00 -0.00000000000E+00 -0.11530942864E+03  0.11531642222E+03  0.12700000000E+01 0. -1.
         25    2    1    2    0    0  0.00000000000E+00  0.00000000000E+00 -0.81448770613E+02  0.14920088861E+03  0.12500801145E+03 0.  0.
    9000005    1    3    3    0    0 -0.38387224203E+02  0.30085656688E+01 -0.99476168069E+02  0.10667304469E+03  0.10000000000E+01 0.  0.
    9000005    1    3    3    0    0  0.38387224203E+02 -0.30085656688E+01  0.18027397456E+02  0.42527843920E+02  0.10000000000E+01 0.  0.
<mgrwt>
<rscale>  0 0.12500801E+03</rscale>
<asrwt>0</asrwt>
<pdfrwt beam="2">  1        4 0.17742281E-01 0.12500801E+03</pdfrwt>
<pdfrwt beam="1">  1       -4 0.52117015E-02 0.12500801E+03</pdfrwt>
<totfact> 0.99445295E+03</totfact>
</mgrwt>
</event>
<event>
 5    1  0.3225662E-002  0.1250016E+03  0.7818608E-02  0.1235067E+00
         -4   -1    0    0    0  501 -0.00000000000E+00  0.00000000000E+00  0.29688965078E+02  0.29716115955E+02  0.12700000000E+01 0.  1.
          4   -1    0    0  501    0  0.00000000000E+00 -0.00000000000E+00 -0.13148540473E+03  0.13149153797E+03  0.12700000000E+01 0.  1.
         25    2    1    2    0    0  0.00000000000E+00  0.00000000000E+00 -0.10179643965E+03  0.16120765392E+03  0.12500157022E+03 0.  0.
    9000005    1    3    3    0    0  0.43672344615E+02  0.36969932441E+02 -0.18495043410E+02  0.60142466025E+02  0.10000000000E+01 0.  0.
    9000005    1    3    3    0    0 -0.43672344615E+02 -0.36969932441E+02 -0.83301396243E+02  0.10106518790E+03  0.10000000000E+01 0.  0.
<mgrwt>
<rscale>  0 0.12500157E+03</rscale>
<asrwt>0</asrwt>
<pdfrwt beam="2">  1        4 0.20231084E-01 0.12500157E+03</pdfrwt>
<pdfrwt beam="1">  1       -4 0.45700935E-02 0.12500157E+03</pdfrwt>
<totfact> 0.97107036E+03</totfact>
</mgrwt>
</event>
<event>
 5    1  0.3225662E-002  0.1249942E+03  0.7818608E-02  0.1235078E+00
         -4   -1    0    0    0  501 -0.00000000000E+00  0.00000000000E+00  0.13006880732E+04  0.13006886932E+04  0.12700000000E+01 0.  1.
          4   -1    0    0  501    0  0.00000000000E+00 -0.00000000000E+00 -0.28680135118E+01  0.31366226269E+01  0.12700000000E+01 0.  1.
         25    2    1    2    0    0  0.00000000000E+00  0.00000000000E+00  0.12978200597E+04  0.13038253158E+04  0.12499418750E+03 0.  0.
    9000005    1    3    3    0    0 -0.57622742224E+02  0.23337734358E+02  0.71476354417E+03  0.71746285921E+03  0.10000000000E+01 0.  0.
    9000005    1    3    3    0    0  0.57622742224E+02 -0.23337734358E+02  0.58305651549E+03  0.58636245661E+03  0.10000000000E+01 0.  0.
<mgrwt>
<rscale>  0 0.12499419E+03</rscale>
<asrwt>0</asrwt>
<pdfrwt beam="2">  1        4 0.46194256E-03 0.12499419E+03</pdfrwt>
<pdfrwt beam="1">  1       -4 0.20012666E+00 0.12499419E+03</pdfrwt>
<totfact> 0.22141204E+03</totfact>
</mgrwt>
</event>
<event>
 5    1  0.3225662E-002  0.1249985E+03  0.7818608E-02  0.1235072E+00
         -4   -1    0    0    0  501 -0.00000000000E+00  0.00000000000E+00  0.36418475288E+02  0.36440612540E+02  0.12700000000E+01 0. -1.
          4   -1    0    0  501    0  0.00000000000E+00 -0.00000000000E+00 -0.10719903427E+03  0.10720655693E+03  0.12700000000E+01 0. -1.
         25    2    1    2    0    0  0.00000000000E+00  0.00000000000E+00 -0.70780558979E+02  0.14364716947E+03  0.12499848706E+03 0.  0.
    9000005    1    3    3    0    0 -0.32830999999E+01 -0.13201691176E+02 -0.10548239357E+03  0.10636070115E+03  0.10000000000E+01 0.  0.
    9000005    1    3    3    0    0  0.32830999999E+01  0.13201691176E+02  0.34701834592E+02  0.37286468317E+02  0.10000000000E+01 0.  0.
<mgrwt>
<rscale>  0 0.12499849E+03</rscale>
<asrwt>0</asrwt>
<pdfrwt beam="2">  1        4 0.16494441E-01 0.12499849E+03</pdfrwt>
<pdfrwt beam="1">  1       -4 0.56051239E-02 0.12499849E+03</pdfrwt>
<totfact> 0.10058890E+04</totfact>
</mgrwt>
</event>
<event>
 5    1  0.3225662E-002  0.1249997E+03  0.7818608E-02  0.1235070E+00
          4   -1    0    0  501    0  0.00000000000E+00  0.00000000000E+00  0.25200756429E+03  0.25201076437E+03  0.12700000000E+01 0. -1.
         -4   -1    0    0    0  501 -0.00000000000E+00 -0.00000000000E+00 -0.15471123692E+02  0.15523162316E+02  0.12700000000E+01 0. -1.
         25    2    1    2    0    0  0.00000000000E+00  0.00000000000E+00  0.23653644060E+03  0.26753392669E+03  0.12499965679E+03 0.  0.
    9000005    1    3    3    0    0  0.53913643460E+02 -0.97321320570E+01  0.18261312904E+03  0.19065662917E+03  0.10000000000E+01 0.  0.
    9000005    1    3    3    0    0 -0.53913643460E+02  0.97321320570E+01  0.53923311554E+02  0.76877297523E+02  0.10000000000E+01 0.  0.
<mgrwt>
<rscale>  0 0.12499966E+03</rscale>
<asrwt>0</asrwt>
<pdfrwt beam="1">  1        4 0.38774641E-01 0.12499966E+03</pdfrwt>
<pdfrwt beam="2">  1       -4 0.23844222E-02 0.12499966E+03</pdfrwt>
<totfact> 0.79860881E+03</totfact>
</mgrwt>
</event>
<event>
 5    1  0.3225662E-002  0.1250027E+03  0.7818608E-02  0.1235065E+00
         -4   -1    0    0    0  501 -0.00000000000E+00  0.00000000000E+00  0.16558381074E+03  0.16558868101E+03  0.12700000000E+01 0. -1.
          4   -1    0    0  501    0  0.00000000000E+00 -0.00000000000E+00 -0.23569487907E+02  0.23603678955E+02  0.12700000000E+01 0. -1.
         25    2    1    2    0    0  0.00000000000E+00  0.00000000000E+00  0.14201432283E+03  0.18919235996E+03  0.12500272469E+03 0.  0.
    9000005    1    3    3    0    0 -0.38907757557E+02  0.66946364078E+01 -0.23126086872E+01  0.39559827018E+02  0.10000000000E+01 0.  0.
    9000005    1    3    3    0    0  0.38907757557E+02 -0.66946364078E+01  0.14432693152E+03  0.14963253295E+03  0.10000000000E+01 0.  0.
<mgrwt>
<rscale>  0 0.12500272E+03</rscale>
<asrwt>0</asrwt>
<pdfrwt beam="2">  1        4 0.36290798E-02 0.12500272E+03</pdfrwt>
<pdfrwt beam="1">  1       -4 0.25477437E-01 0.12500272E+03</pdfrwt>
<totfact> 0.91982416E+03</totfact>
</mgrwt>
</event>
<event>
 5    1  0.3225662E-002  0.1249935E+03  0.7818608E-02  0.1235079E+00
          4   -1    0    0  501    0  0.00000000000E+00  0.00000000000E+00  0.80526471325E+03  0.80526571472E+03  0.12700000000E+01 0.  1.
         -4   -1    0    0    0  501 -0.00000000000E+00 -0.00000000000E+00 -0.47662315991E+01  0.49325311612E+01  0.12700000000E+01 0.  1.
         25    2    1    2    0    0  0.00000000000E+00  0.00000000000E+00  0.80049848165E+03  0.81019824588E+03  0.12499351385E+03 0.  0.
    9000005    1    3    3    0    0  0.48910207090E+01 -0.52972769611E+02  0.18774416326E+03  0.19513817475E+03  0.10000000000E+01 0.  0.
    9000005    1    3    3    0    0 -0.48910207090E+01  0.52972769611E+02  0.61275431839E+03  0.61506007113E+03  0.10000000000E+01 0.  0.
<mgrwt>
<rscale>  0 0.12499351E+03</rscale>
<asrwt>0</asrwt>
<pdfrwt beam="1">  1        4 0.12389985E+00 0.12499351E+03</pdfrwt>
<pdfrwt beam="2">  1       -4 0.74613508E-03 0.12499351E+03</pdfrwt>
<totfact> 0.37818813E+03</totfact>
</mgrwt>
</event>
<event>
 5    1  0.3225662E-002  0.1250019E+03  0.7818608E-02  0.1235066E+00
         -4   -1    0    0    0  501 -0.00000000000E+00  0.00000000000E+00  0.11808697402E+03  0.11809380311E+03  0.12700000000E+01 0. -1.
          4   -1    0    0  501    0  0.00000000000E+00 -0.00000000000E+00 -0.33060436015E+02  0.33084820228E+02  0.12700000000E+01 0. -1.
         25    2    1    2    0    0  0.00000000000E+00  0.00000000000E+00  0.85026538008E+02  0.15117862334E+03  0.12500185595E+03 0.  0.
    9000005    1    3    3    0    0 -0.11119965585E+02  0.78346604758E+01  0.11628070422E+03  0.11707791301E+03  0.10000000000E+01 0.  0.
    9000005    1    3    3    0    0  0.11119965585E+02 -0.78346604758E+01 -0.31254166216E+02  0.34100710334E+02  0.10000000000E+01 0.  0.
<mgrwt>
<rscale>  0 0.12500186E+03</rscale>
<asrwt>0</asrwt>
<pdfrwt beam="2">  1        4 0.50886221E-02 0.12500186E+03</pdfrwt>
<pdfrwt beam="1">  1       -4 0.18169627E-01 0.12500186E+03</pdfrwt>
<totfact> 0.99065137E+03</totfact>
</mgrwt>
</event>
<event>
 5    1  0.3225662E-002  0.1250006E+03  0.7818608E-02  0.1235068E+00
          4   -1    0    0  501    0  0.00000000000E+00  0.00000000000E+00  0.28562582832E+03  0.28562865176E+03  0.12700000000E+01 0. -1.
         -4   -1    0    0    0  501 -0.00000000000E+00 -0.00000000000E+00 -0.13643865126E+02  0.13702844799E+02  0.12700000000E+01 0. -1.
         25    2    1    2    0    0  0.00000000000E+00  0.00000000000E+00  0.27198196320E+03  0.29933149656E+03  0.12500062611E+03 0.  0.
    9000005    1    3    3    0    0 -0.24681069076E+02 -0.38888490166E+02  0.34852679808E+02  0.57768322876E+02  0.10000000000E+01 0.  0.
    9000005    1    3    3    0    0  0.24681069076E+02  0.38888490166E+02  0.23712928339E+03  0.24156317368E+03  0.10000000000E+01 0.  0.
<mgrwt>
<rscale>  0 0.12500063E+03</rscale>
<asrwt>0</asrwt>
<pdfrwt beam="1">  1        4 0.43947185E-01 0.12500063E+03</pdfrwt>
<pdfrwt beam="2">  1       -4 0.21038105E-02 0.12500063E+03</pdfrwt>
<totfact> 0.75681721E+03</totfact>
</mgrwt>
</event>
<event>
 5    1  0.3225662E-002  0.1250012E+03  0.7818608E-02  0.1235067E+00
          4   -1    0    0  501    0  0.00000000000E+00  0.00000000000E+00  0.73281689888E+01  0.74374028214E+01  0.12700000000E+01 0. -1.
         -4   -1    0    0    0  501 -0.00000000000E+00 -0.00000000000E+00 -0.52900282627E+03  0.52900435074E+03  0.12700000000E+01 0. -1.
         25    2    1    2    0    0  0.00000000000E+00  0.00000000000E+00 -0.52167465728E+03  0.53644175356E+03  0.12500122765E+03 0.  0.
    9000005    1    3    3    0    0  0.23590272061E+02 -0.57861757594E+02 -0.26477709765E+03  0.27205219236E+03  0.10000000000E+01 0.  0.
    9000005    1    3    3    0    0 -0.23590272061E+02  0.57861757594E+02 -0.25689755963E+03  0.26438956120E+03  0.10000000000E+01 0.  0.
<mgrwt>
<rscale>  0 0.12500123E+03</rscale>
<asrwt>0</asrwt>
<pdfrwt beam="1">  1        4 0.11359309E-02 0.12500123E+03</pdfrwt>
<pdfrwt beam="2">  1       -4 0.81393540E-01 0.12500123E+03</pdfrwt>
<totfact> 0.53142370E+03</totfact>
</mgrwt>
</event>
<event>
 5    1  0.3225662E-002  0.1249888E+03  0.7818608E-02  0.1235087E+00
         -4   -1    0    0    0  501 -0.00000000000E+00  0.00000000000E+00  0.34678156563E+01  0.36930536723E+01  0.12700000000E+01 0.  1.
          4   -1    0    0  501    0  0.00000000000E+00 -0.00000000000E+00 -0.10905782257E+04  0.10905789651E+04  0.12700000000E+01 0.  1.
         25    2    1    2    0    0  0.00000000000E+00  0.00000000000E+00 -0.10871104100E+04  0.10942720188E+04  0.12498882988E+03 0.  0.
    9000005    1    3    3    0    0  0.44681714161E+02 -0.22792113044E+02 -0.21730923255E+03  0.22302519711E+03  0.10000000000E+01 0.  0.
    9000005    1    3    3    0    0 -0.44681714161E+02  0.22792113044E+02 -0.86980117745E+03  0.87124682168E+03  0.10000000000E+01 0.  0.
<mgrwt>
<rscale>  0 0.12498883E+03</rscale>
<asrwt>0</asrwt>
<pdfrwt beam="2">  1        4 0.16779838E+00 0.12498883E+03</pdfrwt>
<pdfrwt beam="1">  1       -4 0.55089385E-03 0.12498883E+03</pdfrwt>
<totfact> 0.27658423E+03</totfact>
</mgrwt>
</event>
<event>
 5    1  0.3225662E-002  0.1250003E+03  0.7818608E-02  0.1235069E+00
         -4   -1    0    0    0  501 -0.00000000000E+00  0.00000000000E+00  0.66233923440E+02  0.66246098106E+02  0.12700000000E+01 0. -1.
          4   -1    0    0  501    0  0.00000000000E+00 -0.00000000000E+00 -0.58952452273E+02  0.58966130355E+02  0.12700000000E+01 0. -1.
         25    2    1    2    0    0  0.00000000000E+00  0.00000000000E+00  0.72814711674E+01  0.12521222846E+03  0.12500032933E+03 0.  0.
    9000005    1    3    3    0    0  0.15420208166E+02 -0.56538304374E+02 -0.18096463194E+02  0.61342030138E+02  0.10000000000E+01 0.  0.
    9000005    1    3    3    0    0 -0.15420208166E+02  0.56538304374E+02  0.25377934362E+02  0.63870198323E+02  0.10000000000E+01 0.  0.
<mgrwt>
<rscale>  0 0.12500033E+03</rscale>
<asrwt>0</asrwt>
<pdfrwt beam="2">  1        4 0.90715967E-02 0.12500033E+03</pdfrwt>
<pdfrwt beam="1">  1       -4 0.10191823E-01 0.12500033E+03</pdfrwt>
<totfact> 0.10448177E+04</totfact>
</mgrwt>
</event>
<event>
 5    1  0.3225662E-002  0.1250004E+03  0.7818608E-02  0.1235069E+00
          4   -1    0    0  501    0  0.00000000000E+00  0.00000000000E+00  0.19404941533E+03  0.19405357118E+03  0.12700000000E+01 0. -1.
         -4   -1    0    0    0  501 -0.00000000000E+00 -0.00000000000E+00 -0.20105914187E+02  0.20145984347E+02  0.12700000000E+01 0. -1.
         25    2    1    2    0    0  0.00000000000E+00  0.00000000000E+00  0.17394350114E+03  0.21419955553E+03  0.12500043200E+03 0.  0.
    9000005    1    3    3    0    0 -0.82144134906E+01 -0.36252214539E+02  0.88915330123E+00  0.37195298649E+02  0.10000000000E+01 0.  0.
    9000005    1    3    3    0    0  0.82144134906E+01  0.36252214539E+02  0.17305434784E+03  0.17700425688E+03  0.10000000000E+01 0.  0.
<mgrwt>
<rscale>  0 0.12500043E+03</rscale>
<asrwt>0</asrwt>
<pdfrwt beam="1">  1        4 0.29857158E-01 0.12500043E+03</pdfrwt>
<pdfrwt beam="2">  1       -4 0.30966196E-02 0.12500043E+03</pdfrwt>
<totfact> 0.87793750E+03</totfact>
</mgrwt>
</event>
<event>
 5    1  0.3225662E-002  0.1250013E+03  0.7818608E-02  0.1235067E+00
          4   -1    0    0  501    0  0.00000000000E+00  0.00000000000E+00  0.12193335750E+03  0.12193997118E+03  0.12700000000E+01 0. -1.
         -4   -1    0    0    0  501 -0.00000000000E+00 -0.00000000000E+00 -0.32016560531E+02  0.32041739158E+02  0.12700000000E+01 0. -1.
         25    2    1    2    0    0  0.00000000000E+00  0.00000000000E+00  0.89916796974E+02  0.15398171034E+03  0.12500134696E+03 0.  0.
    9000005    1    3    3    0    0  0.11933441146E+02  0.34437205842E+02 -0.17575018903E+02  0.40474800225E+02  0.10000000000E+01 0.  0.
    9000005    1    3    3    0    0 -0.11933441146E+02 -0.34437205842E+02  0.10749181588E+03  0.11350691012E+03  0.10000000000E+01 0.  0.
<mgrwt>
<rscale>  0 0.12500135E+03</rscale>
<asrwt>0</asrwt>
<pdfrwt beam="1">  1        4 0.18761424E-01 0.12500135E+03</pdfrwt>
<pdfrwt beam="2">  1       -4 0.49280702E-02 0.12500135E+03</pdfrwt>
<totfact> 0.98512788E+03</totfact>
</mgrwt>
</event>
<event>
 5    1  0.3225662E-002  0.1250002E+03  0.7818608E-02  0.1235069E+00
          4   -1    0    0  501    0  0.00000000000E+00  0.00000000000E+00  0.73652725967E+02  0.73663674510E+02  0.12700000000E+01 0.  1.
         -4   -1    0    0    0  501 -0.00000000000E+00 -0.00000000000E+00 -0.53013723947E+02  0.53028933864E+02  0.12700000000E+01 0.  1.
         25    2    1    2    0    0  0.00000000000E+00  0.00000000000E+00  0.20639002019E+02  0.12669260837E+03  0.12500019445E+03 0.  0.
    9000005    1    3    3    0    0  0.17552556610E+02  0.25252417485E+02 -0.44818203812E+02  0.54364034300E+02  0.10000000000E+01 0.  0.
    9000005    1    3    3    0    0 -0.17552556610E+02 -0.25252417485E+02  0.65457205832E+02  0.72328574075E+02  0.10000000000E+01 0.  0.
<mgrwt>
<rscale>  0 0.12500019E+03</rscale>
<asrwt>0</asrwt>
<pdfrwt beam="1">  1        4 0.11333201E-01 0.12500019E+03</pdfrwt>
<pdfrwt beam="2">  1       -4 0.81579697E-02 0.12500019E+03</pdfrwt>
<totfact> 0.10415785E+04</totfact>
</mgrwt>
</event>
<event>
 5    1  0.3225662E-002  0.1249963E+03  0.7818608E-02  0.1235075E+00
         -4   -1    0    0    0  501 -0.00000000000E+00  0.00000000000E+00  0.22486178450E+02  0.22522014148E+02  0.12700000000E+01 0. -1.
          4   -1    0    0  501    0  0.00000000000E+00 -0.00000000000E+00 -0.17353109674E+03  0.17353574397E+03  0.12700000000E+01 0. -1.
         25    2    1    2    0    0  0.00000000000E+00  0.00000000000E+00 -0.15104491829E+03  0.19605775812E+03  0.12499630865E+03 0.  0.
    9000005    1    3    3    0    0  0.60002342406E+02 -0.17142812508E+02 -0.80691920946E+02  0.10201148573E+03  0.10000000000E+01 0.  0.
    9000005    1    3    3    0    0 -0.60002342406E+02  0.17142812508E+02 -0.70352997343E+02  0.94046272388E+02  0.10000000000E+01 0.  0.
<mgrwt>
<rscale>  0 0.12499631E+03</rscale>
<asrwt>0</asrwt>
<pdfrwt beam="2">  1        4 0.26700205E-01 0.12499631E+03</pdfrwt>
<pdfrwt beam="1">  1       -4 0.34625263E-02 0.12499631E+03</pdfrwt>
<totfact> 0.90811342E+03</totfact>
</mgrwt>
</event>
<event>
 5    1  0.3225662E-002  0.1249678E+03  0.7818608E-02  0.1235120E+00
         -4   -1    0    0    0  501 -0.00000000000E+00  0.00000000000E+00  0.53497929731E+01  0.54984711380E+01  0.12700000000E+01 0. -1.
          4   -1    0    0  501    0  0.00000000000E+00 -0.00000000000E+00 -0.71964152925E+03  0.71964264988E+03  0.12700000000E+01 0. -1.
         25    2    1    2    0    0  0.00000000000E+00  0.00000000000E+00 -0.71429173628E+03  0.72514112101E+03  0.12496783935E+03 0.  0.
    9000005    1    3    3    0    0 -0.61664120075E+02  0.95856217364E+01 -0.37444933088E+03  0.37961513306E+03  0.10000000000E+01 0.  0.
    9000005    1    3    3    0    0  0.61664120075E+02 -0.95856217364E+01 -0.33984240539E+03  0.34552598796E+03  0.10000000000E+01 0.  0.
<mgrwt>
<rscale>  0 0.12496784E+03</rscale>
<asrwt>0</asrwt>
<pdfrwt beam="2">  1        4 0.11072553E+00 0.12496784E+03</pdfrwt>
<pdfrwt beam="1">  1       -4 0.83456863E-03 0.12496784E+03</pdfrwt>
<totfact> 0.41821707E+03</totfact>
</mgrwt>
</event>
<event>
 5    1  0.3225662E-002  0.1250007E+03  0.7818608E-02  0.1235068E+00
          4   -1    0    0  501    0  0.00000000000E+00  0.00000000000E+00  0.70053921062E+02  0.70065431963E+02  0.12700000000E+01 0.  1.
         -4   -1    0    0    0  501 -0.00000000000E+00 -0.00000000000E+00 -0.55737949454E+02  0.55752416175E+02  0.12700000000E+01 0.  1.
         25    2    1    2    0    0  0.00000000000E+00  0.00000000000E+00  0.14315971608E+02  0.12581784814E+03  0.12500073547E+03 0.  0.
    9000005    1    3    3    0    0 -0.86955825988E+01 -0.42560613785E+02  0.52376893421E+02  0.68054081192E+02  0.10000000000E+01 0.  0.
    9000005    1    3    3    0    0  0.86955825988E+01  0.42560613785E+02 -0.38060921813E+02  0.57763766946E+02  0.10000000000E+01 0.  0.
<mgrwt>
<rscale>  0 0.12500074E+03</rscale>
<asrwt>0</asrwt>
<pdfrwt beam="1">  1        4 0.10779525E-01 0.12500074E+03</pdfrwt>
<pdfrwt beam="2">  1       -4 0.85770674E-02 0.12500074E+03</pdfrwt>
<totfact> 0.10434780E+04</totfact>
</mgrwt>
</event>
<event>
 5    1  0.3225662E-002  0.1249975E+03  0.7818608E-02  0.1235073E+00
          4   -1    0    0  501    0  0.00000000000E+00  0.00000000000E+00  0.66892505484E+03  0.66892626043E+03  0.12700000000E+01 0. -1.
         -4   -1    0    0    0  501 -0.00000000000E+00 -0.00000000000E+00 -0.57690780559E+01  0.59072126773E+01  0.12700000000E+01 0. -1.
         25    2    1    2    0    0  0.00000000000E+00  0.00000000000E+00  0.66315597679E+03  0.67483347311E+03  0.12499746750E+03 0.  0.
    9000005    1    3    3    0    0 -0.98560690882E+01  0.43326473631E+02  0.94353096286E+02  0.10429684652E+03  0.10000000000E+01 0.  0.
    9000005    1    3    3    0    0  0.98560690882E+01 -0.43326473631E+02  0.56880288050E+03  0.57053662659E+03  0.10000000000E+01 0.  0.
<mgrwt>
<rscale>  0 0.12499747E+03</rscale>
<asrwt>0</asrwt>
<pdfrwt beam="1">  1        4 0.10292225E+00 0.12499747E+03</pdfrwt>
<pdfrwt beam="2">  1       -4 0.89826910E-03 0.12499747E+03</pdfrwt>
<totfact> 0.44451383E+03</totfact>
</mgrwt>
</event>
<event>
 5    1  0.3225662E-002  0.1249833E+03  0.7818608E-02  0.1235095E+00
         -4   -1    0    0    0  501 -0.00000000000E+00  0.00000000000E+00  0.45836117546E+03  0.45836293488E+03  0.12700000000E+01 0.  1.
          4   -1    0    0  501    0  0.00000000000E+00 -0.00000000000E+00 -0.84708244893E+01  0.85654986736E+01  0.12700000000E+01 0.  1.
         25    2    1    2    0    0  0.00000000000E+00  0.00000000000E+00  0.44989035097E+03  0.46692843355E+03  0.12498333554E+03 0.  0.
    9000005    1    3    3    0    0 -0.59181186758E+02  0.18320171779E+02  0.25533434753E+03  0.26274449678E+03  0.10000000000E+01 0.  0.
    9000005    1    3    3    0    0  0.59181186758E+02 -0.18320171779E+02  0.19455600345E+03  0.20418393678E+03  0.10000000000E+01 0.  0.
<mgrwt>
<rscale>  0 0.12498334E+03</rscale>
<asrwt>0</asrwt>
<pdfrwt beam="2">  1        4 0.13106222E-02 0.12498334E+03</pdfrwt>
<pdfrwt beam="1">  1       -4 0.70524495E-01 0.12498334E+03</pdfrwt>
<totfact> 0.58546320E+03</totfact>
</mgrwt>
</event>
<event>
 5    1  0.3225662E-002  0.1249963E+03  0.7818608E-02  0.1235075E+00
          4   -1    0    0  501    0  0.00000000000E+00  0.00000000000E+00  0.29599104572E+03  0.29599377029E+03  0.12700000000E+01 0. -1.
         -4   -1    0    0    0  501 -0.00000000000E+00 -0.00000000000E+00 -0.13163061568E+02  0.13224185791E+02  0.12700000000E+01 0. -1.
         25    2    1    2    0    0  0.00000000000E+00  0.00000000000E+00  0.28282798416E+03  0.30921795608E+03  0.12499630290E+03 0.  0.
    9000005    1    3    3    0    0  0.23019231729E+02  0.47507943668E+02  0.58693419702E+02  0.78948130170E+02  0.10000000000E+01 0.  0.
    9000005    1    3    3    0    0 -0.23019231729E+02 -0.47507943668E+02  0.22413456445E+03  0.23026982591E+03  0.10000000000E+01 0.  0.
<mgrwt>
<rscale>  0 0.12499630E+03</rscale>
<asrwt>0</asrwt>
<pdfrwt beam="1">  1        4 0.45541996E-01 0.12499630E+03</pdfrwt>
<pdfrwt beam="2">  1       -4 0.20299978E-02 0.12499630E+03</pdfrwt>
<totfact> 0.74463020E+03</totfact>
</mgrwt>
</event>
<event>
 5    1  0.3225662E-002  0.1250016E+03  0.7818608E-02  0.1235067E+00
         -4   -1    0    0    0  501 -0.00000000000E+00  0.00000000000E+00  0.24049154753E+03  0.24049490084E+03  0.12700000000E+01 0.  1.
          4   -1    0    0  501    0  0.00000000000E+00 -0.00000000000E+00 -0.16214895905E+02  0.16264554996E+02  0.12700000000E+01 0.  1.
         25    2    1    2    0    0  0.00000000000E+00  0.00000000000E+00  0.22427665162E+03  0.25675945584E+03  0.12500160679E+03 0.  0.
    9000005    1    3    3    0    0  0.26283371228E+02  0.47155917386E+02  0.17679535488E+03  0.18485695458E+03  0.10000000000E+01 0.  0.
    9000005    1    3    3    0    0 -0.26283371228E+02 -0.47155917386E+02  0.47481296739E+02  0.71902501262E+02  0.10000000000E+01 0.  0.
<mgrwt>
<rscale>  0 0.12500161E+03</rscale>
<asrwt>0</asrwt>
<pdfrwt beam="2">  1        4 0.24986773E-02 0.12500161E+03</pdfrwt>
<pdfrwt beam="1">  1       -4 0.37002777E-01 0.12500161E+03</pdfrwt>
<totfact> 0.81360076E+03</totfact>
</mgrwt>
</event>
<event>
 5    1  0.3225662E-002  0.1250124E+03  0.7818608E-02  0.1235050E+00
         -4   -1    0    0    0  501 -0.00000000000E+00  0.00000000000E+00  0.37337660910E+03  0.37337876898E+03  0.12700000000E+01 0.  1.
          4   -1    0    0  501    0  0.00000000000E+00 -0.00000000000E+00 -0.10423294478E+02  0.10500379411E+02  0.12700000000E+01 0.  1.
         25    2    1    2    0    0  0.00000000000E+00  0.00000000000E+00  0.36295331462E+03  0.38387914839E+03  0.12501236728E+03 0.  0.
    9000005    1    3    3    0    0  0.14179337756E+02  0.56073561879E+01  0.36759242047E+03  0.36790988523E+03  0.10000000000E+01 0.  0.
    9000005    1    3    3    0    0 -0.14179337756E+02 -0.56073561879E+01 -0.46391058508E+01  0.15969263155E+02  0.10000000000E+01 0.  0.
<mgrwt>
<rscale>  0 0.12501237E+03</rscale>
<asrwt>0</asrwt>
<pdfrwt beam="2">  1        4 0.16096793E-02 0.12501237E+03</pdfrwt>
<pdfrwt beam="1">  1       -4 0.57448659E-01 0.12501237E+03</pdfrwt>
<totfact> 0.66133397E+03</totfact>
</mgrwt>
</event>
<event>
 5    1  0.3225662E-002  0.1249999E+03  0.7818608E-02  0.1235069E+00
          4   -1    0    0  501    0  0.00000000000E+00  0.00000000000E+00  0.15446256104E+02  0.15498378226E+02  0.12700000000E+01 0. -1.
         -4   -1    0    0    0  501 -0.00000000000E+00 -0.00000000000E+00 -0.25241282984E+03  0.25241602478E+03  0.12700000000E+01 0. -1.
         25    2    1    2    0    0  0.00000000000E+00  0.00000000000E+00 -0.23696657373E+03  0.26791440301E+03  0.12499988109E+03 0.  0.
    9000005    1    3    3    0    0  0.51697353993E+02  0.19481619497E+02 -0.55881812082E+02  0.78587065282E+02  0.10000000000E+01 0.  0.
    9000005    1    3    3    0    0 -0.51697353993E+02 -0.19481619497E+02 -0.18108476165E+03  0.18932733772E+03  0.10000000000E+01 0.  0.
<mgrwt>
<rscale>  0 0.12499988E+03</rscale>
<asrwt>0</asrwt>
<pdfrwt beam="1">  1        4 0.23806024E-02 0.12499988E+03</pdfrwt>
<pdfrwt beam="2">  1       -4 0.38836995E-01 0.12499988E+03</pdfrwt>
<totfact> 0.79808271E+03</totfact>
</mgrwt>
</event>
<event>
 5    1  0.3225662E-002  0.1249911E+03  0.7818608E-02  0.1235083E+00
         -4   -1    0    0    0  501 -0.00000000000E+00  0.00000000000E+00  0.16039657598E+03  0.16040160375E+03  0.12700000000E+01 0. -1.
          4   -1    0    0  501    0  0.00000000000E+00 -0.00000000000E+00 -0.24328272792E+02  0.24361398914E+02  0.12700000000E+01 0. -1.
         25    2    1    2    0    0  0.00000000000E+00  0.00000000000E+00  0.13606830318E+03  0.18476300266E+03  0.12499113577E+03 0.  0.
    9000005    1    3    3    0    0  0.11435507235E+01  0.53153078778E+02  0.11657116808E+03  0.12812647938E+03  0.10000000000E+01 0.  0.
    9000005    1    3    3    0    0 -0.11435507235E+01 -0.53153078778E+02  0.19497135106E+02  0.56636523280E+02  0.10000000000E+01 0.  0.
<mgrwt>
<rscale>  0 0.12499114E+03</rscale>
<asrwt>0</asrwt>
<pdfrwt beam="2">  1        4 0.37457462E-02 0.12499114E+03</pdfrwt>
<pdfrwt beam="1">  1       -4 0.24679330E-01 0.12499114E+03</pdfrwt>
<totfact> 0.92785037E+03</totfact>
</mgrwt>
</event>
<event>
 5    1  0.3225662E-002  0.1250040E+03  0.7818608E-02  0.1235063E+00
         -4   -1    0    0    0  501 -0.00000000000E+00  0.00000000000E+00  0.35782984068E+02  0.35805514224E+02  0.12700000000E+01 0. -1.
          4   -1    0    0  501    0  0.00000000000E+00 -0.00000000000E+00 -0.10911143182E+03  0.10911882264E+03  0.12700000000E+01 0. -1.
         25    2    1    2    0    0  0.00000000000E+00  0.00000000000E+00 -0.73328447752E+02  0.14492433686E+03  0.12500400860E+03 0.  0.
    9000005    1    3    3    0    0 -0.22511390150E+02  0.55888861142E+02 -0.17432406139E+02  0.62731302155E+02  0.10000000000E+01 0.  0.
    9000005    1    3    3    0    0  0.22511390150E+02 -0.55888861142E+02 -0.55896041613E+02  0.82193034706E+02  0.10000000000E+01 0.  0.
<mgrwt>
<rscale>  0 0.12500401E+03</rscale>
<asrwt>0</asrwt>
<pdfrwt beam="2">  1        4 0.16788676E-01 0.12500401E+03</pdfrwt>
<pdfrwt beam="1">  1       -4 0.55073761E-02 0.12500401E+03</pdfrwt>
<totfact> 0.10031620E+04</totfact>
</mgrwt>
</event>
<event>
 5    1  0.3225662E-002  0.1249840E+03  0.7818608E-02  0.1235094E+00
         -4   -1    0    0    0  501 -0.00000000000E+00  0.00000000000E+00  0.22151314880E+02  0.22187691428E+02  0.12700000000E+01 0.  1.
          4   -1    0    0  501    0  0.00000000000E+00 -0.00000000000E+00 -0.17611561075E+03  0.17612018978E+03  0.12700000000E+01 0.  1.
         25    2    1    2    0    0  0.00000000000E+00  0.00000000000E+00 -0.15396429587E+03  0.19830788121E+03  0.12498404437E+03 0.  0.
    9000005    1    3    3    0    0 -0.29907523515E+02 -0.54441546466E+02 -0.66231286387E+02  0.90807077042E+02  0.10000000000E+01 0.  0.
    9000005    1    3    3    0    0  0.29907523515E+02  0.54441546466E+02 -0.87733009481E+02  0.10750080417E+03  0.10000000000E+01 0.  0.
<mgrwt>
<rscale>  0 0.12498404E+03</rscale>
<asrwt>0</asrwt>
<pdfrwt beam="2">  1        4 0.27097859E-01 0.12498404E+03</pdfrwt>
<pdfrwt beam="1">  1       -4 0.34110451E-02 0.12498404E+03</pdfrwt>
<totfact> 0.90453826E+03</totfact>
</mgrwt>
</event>
<event>
 5    1  0.3225662E-002  0.1250015E+03  0.7818608E-02  0.1235067E+00
         -4   -1    0    0    0  501 -0.00000000000E+00  0.00000000000E+00  0.91553999562E+02  0.91562807601E+02  0.12700000000E+01 0.  1.
          4   -1    0    0  501    0  0.00000000000E+00 -0.00000000000E+00 -0.42646773275E+02  0.42665679073E+02  0.12700000000E+01 0.  1.
         25    2    1    2    0    0  0.00000000000E+00  0.00000000000E+00  0.48907226287E+02  0.13422848667E+03  0.12500147940E+03 0.  0.
    9000005    1    3    3    0    0  0.29973699067E+02 -0.13538630874E+02  0.81513784732E+02  0.87904574756E+02  0.10000000000E+01 0.  0.
    9000005    1    3    3    0    0 -0.29973699067E+02  0.13538630874E+02 -0.32606558445E+02  0.46323911918E+02  0.10000000000E+01 0.  0.
<mgrwt>
<rscale>  0 0.12500148E+03</rscale>
<asrwt>0</asrwt>
<pdfrwt beam="2">  1        4 0.65631739E-02 0.12500148E+03</pdfrwt>
<pdfrwt beam="1">  1       -4 0.14087362E-01 0.12500148E+03</pdfrwt>
<totfact> 0.10254016E+04</totfact>
</mgrwt>
</event>
<event>
 5    1  0.3225662E-002  0.1250087E+03  0.7818608E-02  0.1235056E+00
          4   -1    0    0  501    0  0.00000000000E+00  0.00000000000E+00  0.47997931569E+03  0.47998099586E+03  0.12700000000E+01 0. -1.
         -4   -1    0    0    0  501 -0.00000000000E+00 -0.00000000000E+00 -0.80882614250E+01  0.81873605563E+01  0.12700000000E+01 0. -1.
         25    2    1    2    0    0  0.00000000000E+00  0.00000000000E+00  0.47189105426E+03  0.48816835642E+03  0.12500870815E+03 0.  0.
    9000005    1    3    3    0    0 -0.76344070638E+01  0.45552086182E+02  0.40035416437E+03  0.40301083566E+03  0.10000000000E+01 0.  0.
    9000005    1    3    3    0    0  0.76344070638E+01 -0.45552086182E+02  0.71536889886E+02  0.85157520757E+02  0.10000000000E+01 0.  0.
<mgrwt>
<rscale>  0 0.12500871E+03</rscale>
<asrwt>0</asrwt>
<pdfrwt beam="1">  1        4 0.73850742E-01 0.12500871E+03</pdfrwt>
<pdfrwt beam="2">  1       -4 0.12520999E-02 0.12500871E+03</pdfrwt>
<totfact> 0.56783297E+03</totfact>
</mgrwt>
</event>
<event>
 5    1  0.3225662E-002  0.1249992E+03  0.7818608E-02  0.1235071E+00
         -4   -1    0    0    0  501 -0.00000000000E+00  0.00000000000E+00  0.51147757779E+02  0.51163522414E+02  0.12700000000E+01 0. -1.
          4   -1    0    0  501    0  0.00000000000E+00 -0.00000000000E+00 -0.76338092671E+02  0.76348656129E+02  0.12700000000E+01 0. -1.
         25    2    1    2    0    0  0.00000000000E+00  0.00000000000E+00 -0.25190334892E+02  0.12751217854E+03  0.12499921082E+03 0.  0.
    9000005    1    3    3    0    0  0.14830650786E+02  0.15021687757E+02 -0.72596020488E+02  0.75609400847E+02  0.10000000000E+01 0.  0.
    9000005    1    3    3    0    0 -0.14830650786E+02 -0.15021687757E+02  0.47405685596E+02  0.51902777696E+02  0.10000000000E+01 0.  0.
<mgrwt>
<rscale>  0 0.12499921E+03</rscale>
<asrwt>0</asrwt>
<pdfrwt beam="2">  1        4 0.11746347E-01 0.12499921E+03</pdfrwt>
<pdfrwt beam="1">  1       -4 0.78709110E-02 0.12499921E+03</pdfrwt>
<totfact> 0.10398222E+04</totfact>
</mgrwt>
</event>
<event>
 5    1  0.3225662E-002  0.1249959E+03  0.7818608E-02  0.1235076E+00
          4   -1    0    0  501    0  0.00000000000E+00  0.00000000000E+00  0.70045438728E+01  0.71187453155E+01  0.12700000000E+01 0. -1.
         -4   -1    0    0    0  501 -0.00000000000E+00 -0.00000000000E+00 -0.55301341093E+03  0.55301486921E+03  0.12700000000E+01 0. -1.
         25    2    1    2    0    0  0.00000000000E+00  0.00000000000E+00 -0.54600886706E+03  0.56013361453E+03  0.12499593280E+03 0.  0.
    9000005    1    3    3    0    0  0.11860375998E+02 -0.36977200826E+02 -0.49240160838E+03  0.49393149914E+03  0.10000000000E+01 0.  0.
    9000005    1    3    3    0    0 -0.11860375998E+02  0.36977200826E+02 -0.53607258676E+02  0.66202115393E+02  0.10000000000E+01 0.  0.
<mgrwt>
<rscale>  0 0.12499593E+03</rscale>
<asrwt>0</asrwt>
<pdfrwt beam="1">  1        4 0.10865195E-02 0.12499593E+03</pdfrwt>
<pdfrwt beam="2">  1       -4 0.85087849E-01 0.12499593E+03</pdfrwt>
<totfact> 0.51489444E+03</totfact>
</mgrwt>
</event>
<event>
 5    1  0.3225662E-002  0.1249974E+03  0.7818608E-02  0.1235073E+00
         -4   -1    0    0    0  501 -0.00000000000E+00  0.00000000000E+00  0.62223069990E+01  0.63505908693E+01  0.12700000000E+01 0. -1.
          4   -1    0    0  501    0  0.00000000000E+00 -0.00000000000E+00 -0.62122100859E+03  0.62122230675E+03  0.12700000000E+01 0. -1.
         25    2    1    2    0    0  0.00000000000E+00  0.00000000000E+00 -0.61499870159E+03  0.62757289762E+03  0.12499735548E+03 0.  0.
    9000005    1    3    3    0    0  0.38733727834E+02  0.76518546405E+00 -0.61321809945E+02  0.72541378231E+02  0.10000000000E+01 0.  0.
    9000005    1    3    3    0    0 -0.38733727834E+02 -0.76518546405E+00 -0.55367689164E+03  0.55503151939E+03  0.10000000000E+01 0.  0.
<mgrwt>
<rscale>  0 0.12499736E+03</rscale>
<asrwt>0</asrwt>
<pdfrwt beam="2">  1        4 0.95582382E-01 0.12499736E+03</pdfrwt>
<pdfrwt beam="1">  1       -4 0.96724634E-03 0.12499736E+03</pdfrwt>
<totfact> 0.47174887E+03</totfact>
</mgrwt>
</event>
<event>
 5    1  0.3225662E-002  0.1249977E+03  0.7818608E-02  0.1235073E+00
         -4   -1    0    0    0  501 -0.00000000000E+00  0.00000000000E+00  0.94146990506E+01  0.94999714849E+01  0.12700000000E+01 0. -1.
          4   -1    0    0  501    0  0.00000000000E+00 -0.00000000000E+00 -0.41293799731E+03  0.41293995026E+03  0.12700000000E+01 0. -1.
         25    2    1    2    0    0  0.00000000000E+00  0.00000000000E+00 -0.40352329826E+03  0.42243992174E+03  0.12499774097E+03 0.  0.
    9000005    1    3    3    0    0 -0.29643100767E+02  0.42305362435E+02 -0.82915123972E+02  0.97695316659E+02  0.10000000000E+01 0.  0.
    9000005    1    3    3    0    0  0.29643100767E+02 -0.42305362435E+02 -0.32060817429E+03  0.32474460509E+03  0.10000000000E+01 0.  0.
<mgrwt>
<rscale>  0 0.12499774E+03</rscale>
<asrwt>0</asrwt>
<pdfrwt beam="2">  1        4 0.63535618E-01 0.12499774E+03</pdfrwt>
<pdfrwt beam="1">  1       -4 0.14551252E-02 0.12499774E+03</pdfrwt>
<totfact> 0.62430412E+03</totfact>
</mgrwt>
</event>
<event>
 5    1  0.3225662E-002  0.1250003E+03  0.7818608E-02  0.1235069E+00
          4   -1    0    0  501    0  0.00000000000E+00  0.00000000000E+00  0.73515785967E+02  0.73526754902E+02  0.12700000000E+01 0.  1.
         -4   -1    0    0    0  501 -0.00000000000E+00 -0.00000000000E+00 -0.53112568719E+02  0.53127750338E+02  0.12700000000E+01 0.  1.
         25    2    1    2    0    0  0.00000000000E+00  0.00000000000E+00  0.20403217248E+02  0.12665450524E+03  0.12500028969E+03 0.  0.
    9000005    1    3    3    0    0 -0.31774914199E+02  0.86284073638E+01 -0.43616015685E+02  0.54657583282E+02  0.10000000000E+01 0.  0.
    9000005    1    3    3    0    0  0.31774914199E+02 -0.86284073638E+01  0.64019232933E+02  0.71996921958E+02  0.10000000000E+01 0.  0.
<mgrwt>
<rscale>  0 0.12500029E+03</rscale>
<asrwt>0</asrwt>
<pdfrwt beam="1">  1        4 0.11312132E-01 0.12500029E+03</pdfrwt>
<pdfrwt beam="2">  1       -4 0.81731760E-02 0.12500029E+03</pdfrwt>
<totfact> 0.10416593E+04</totfact>
</mgrwt>
</event>
<event>
 5    1  0.3225662E-002  0.1249978E+03  0.7818608E-02  0.1235073E+00
          4   -1    0    0  501    0  0.00000000000E+00  0.00000000000E+00  0.26122784872E+03  0.26123093585E+03  0.12700000000E+01 0.  1.
         -4   -1    0    0    0  501 -0.00000000000E+00 -0.00000000000E+00 -0.14922744887E+02  0.14976689052E+02  0.12700000000E+01 0.  1.
         25    2    1    2    0    0  0.00000000000E+00  0.00000000000E+00  0.24630510383E+03  0.27620762491E+03  0.12499779151E+03 0.  0.
    9000005    1    3    3    0    0  0.56352915283E+02  0.26069129918E+02  0.13875581563E+03  0.15201785081E+03  0.10000000000E+01 0.  0.
    9000005    1    3    3    0    0 -0.56352915283E+02 -0.26069129918E+02  0.10754928821E+03  0.12418977409E+03  0.10000000000E+01 0.  0.
<mgrwt>
<rscale>  0 0.12499779E+03</rscale>
<asrwt>0</asrwt>
<pdfrwt beam="1">  1        4 0.40193287E-01 0.12499779E+03</pdfrwt>
<pdfrwt beam="2">  1       -4 0.23001939E-02 0.12499779E+03</pdfrwt>
<totfact> 0.78687511E+03</totfact>
</mgrwt>
</event>
<event>
 5    1  0.3225662E-002  0.1249975E+03  0.7818608E-02  0.1235073E+00
          4   -1    0    0  501    0  0.00000000000E+00  0.00000000000E+00  0.22145987249E+04  0.22145990890E+04  0.12700000000E+01 0. -1.
         -4   -1    0    0    0  501 -0.00000000000E+00 -0.00000000000E+00 -0.15347701545E+01  0.19920892117E+01  0.12700000000E+01 0. -1.
         25    2    1    2    0    0  0.00000000000E+00  0.00000000000E+00  0.22130639547E+04  0.22165911782E+04  0.12499753502E+03 0.  0.
    9000005    1    3    3    0    0  0.33387166662E+02 -0.24125722934E+02  0.19398626562E+04  0.19403002032E+04  0.10000000000E+01 0.  0.
    9000005    1    3    3    0    0 -0.33387166662E+02  0.24125722934E+02  0.27320129851E+03  0.27629097508E+03  0.10000000000E+01 0.  0.
<mgrwt>
<rscale>  0 0.12499754E+03</rscale>
<asrwt>0</asrwt>
<pdfrwt beam="1">  1        4 0.34074566E+00 0.12499754E+03</pdfrwt>
<pdfrwt beam="2">  1       -4 0.27132253E-03 0.12499754E+03</pdfrwt>
<totfact> 0.72927367E+02</totfact>
</mgrwt>
</event>
<event>
 5    1  0.3225662E-002  0.1250148E+03  0.7818608E-02  0.1235046E+00
          4   -1    0    0  501    0  0.00000000000E+00  0.00000000000E+00  0.35656375867E+01  0.37850589691E+01  0.12700000000E+01 0.  1.
         -4   -1    0    0    0  501 -0.00000000000E+00 -0.00000000000E+00 -0.10628559286E+04  0.10628566874E+04  0.12700000000E+01 0.  1.
         25    2    1    2    0    0  0.00000000000E+00  0.00000000000E+00 -0.10592902910E+04  0.10666417463E+04  0.12501477661E+03 0.  0.
    9000005    1    3    3    0    0  0.40446728441E+02  0.41821746369E+02 -0.72442765925E+03  0.72676091653E+03  0.10000000000E+01 0.  0.
    9000005    1    3    3    0    0 -0.40446728441E+02 -0.41821746369E+02 -0.33486263178E+03  0.33988082981E+03  0.10000000000E+01 0.  0.
<mgrwt>
<rscale>  0 0.12501478E+03</rscale>
<asrwt>0</asrwt>
<pdfrwt beam="1">  1        4 0.56549741E-03 0.12501478E+03</pdfrwt>
<pdfrwt beam="2">  1       -4 0.16353299E+00 0.12501478E+03</pdfrwt>
<totfact> 0.28471659E+03</totfact>
</mgrwt>
</event>
<event>
 5    1  0.3225662E-002  0.1250000E+03  0.7818608E-02  0.1235069E+00
          4   -1    0    0  501    0  0.00000000000E+00  0.00000000000E+00  0.20927140663E+02  0.20965641329E+02  0.12700000000E+01 0.  1.
         -4   -1    0    0    0  501 -0.00000000000E+00 -0.00000000000E+00 -0.18644724725E+03  0.18645157255E+03  0.12700000000E+01 0.  1.
         25    2    1    2    0    0  0.00000000000E+00  0.00000000000E+00 -0.16552010658E+03  0.20741721388E+03  0.12499997972E+03 0.  0.
    9000005    1    3    3    0    0 -0.30917912038E+02  0.39807645264E+02 -0.14405867603E+03  0.15262525363E+03  0.10000000000E+01 0.  0.
    9000005    1    3    3    0    0  0.30917912038E+02 -0.39807645264E+02 -0.21461430553E+02  0.54791960246E+02  0.10000000000E+01 0.  0.
<mgrwt>
<rscale>  0 0.12499998E+03</rscale>
<asrwt>0</asrwt>
<pdfrwt beam="1">  1        4 0.32228545E-02 0.12499998E+03</pdfrwt>
<pdfrwt beam="2">  1       -4 0.28687485E-01 0.12499998E+03</pdfrwt>
<totfact> 0.88899469E+03</totfact>
</mgrwt>
</event>
<event>
 5    1  0.3225662E-002  0.1250048E+03  0.7818608E-02  0.1235062E+00
          4   -1    0    0  501    0  0.00000000000E+00  0.00000000000E+00  0.24708941307E+03  0.24709267684E+03  0.12700000000E+01 0.  1.
         -4   -1    0    0    0  501 -0.00000000000E+00 -0.00000000000E+00 -0.15781384097E+02  0.15832402977E+02  0.12700000000E+01 0.  1.
         25    2    1    2    0    0  0.00000000000E+00  0.00000000000E+00  0.23130802897E+03  0.26292507982E+03  0.12500477324E+03 0.  0.
    9000005    1    3    3    0    0  0.46410320595E+02  0.83633559153E+01  0.29400319007E+02  0.55580953012E+02  0.10000000000E+01 0.  0.
    9000005    1    3    3    0    0 -0.46410320595E+02 -0.83633559153E+01  0.20190770996E+03  0.20734412681E+03  0.10000000000E+01 0.  0.
<mgrwt>
<rscale>  0 0.12500477E+03</rscale>
<asrwt>0</asrwt>
<pdfrwt beam="1">  1        4 0.38017932E-01 0.12500477E+03</pdfrwt>
<pdfrwt beam="2">  1       -4 0.24320808E-02 0.12500477E+03</pdfrwt>
<totfact> 0.80488760E+03</totfact>
</mgrwt>
</event>
<event>
 5    1  0.3225662E-002  0.1250003E+03  0.7818608E-02  0.1235069E+00
          4   -1    0    0  501    0  0.00000000000E+00  0.00000000000E+00  0.86692442991E+02  0.86701744917E+02  0.12700000000E+01 0. -1.
         -4   -1    0    0    0  501 -0.00000000000E+00 -0.00000000000E+00 -0.45038263649E+02  0.45056165977E+02  0.12700000000E+01 0. -1.
         25    2    1    2    0    0  0.00000000000E+00  0.00000000000E+00  0.41654179341E+02  0.13175791089E+03  0.12500030571E+03 0.  0.
    9000005    1    3    3    0    0  0.19131854697E+02 -0.55282981067E+02 -0.23390748919E+01  0.58555163147E+02  0.10000000000E+01 0.  0.
    9000005    1    3    3    0    0 -0.19131854697E+02  0.55282981067E+02  0.43993254233E+02  0.73202747748E+02  0.10000000000E+01 0.  0.
<mgrwt>
<rscale>  0 0.12500031E+03</rscale>
<asrwt>0</asrwt>
<pdfrwt beam="1">  1        4 0.13339391E-01 0.12500031E+03</pdfrwt>
<pdfrwt beam="2">  1       -4 0.69310563E-02 0.12500031E+03</pdfrwt>
<totfact> 0.10306797E+04</totfact>
</mgrwt>
</event>
<event>
 5    1  0.3225662E-002  0.1249970E+03  0.7818608E-02  0.1235074E+00
         -4   -1    0    0    0  501 -0.00000000000E+00  0.00000000000E+00  0.11760017027E+03  0.11760702762E+03  0.12700000000E+01 0.  1.
          4   -1    0    0  501    0  0.00000000000E+00 -0.00000000000E+00 -0.33194783362E+02  0.33219068959E+02  0.12700000000E+01 0.  1.
         25    2    1    2    0    0  0.00000000000E+00  0.00000000000E+00  0.84405386903E+02  0.15082609658E+03  0.12499696825E+03 0.  0.
    9000005    1    3    3    0    0  0.18694687756E+02  0.51929794236E+02  0.68404649673E+01  0.55623617651E+02  0.10000000000E+01 0.  0.
    9000005    1    3    3    0    0 -0.18694687756E+02 -0.51929794236E+02  0.77564921935E+02  0.95202478930E+02  0.10000000000E+01 0.  0.
<mgrwt>
<rscale>  0 0.12499697E+03</rscale>
<asrwt>0</asrwt>
<pdfrwt beam="2">  1        4 0.51092853E-02 0.12499697E+03</pdfrwt>
<pdfrwt beam="1">  1       -4 0.18094730E-01 0.12499697E+03</pdfrwt>
<totfact> 0.99146046E+03</totfact>
</mgrwt>
</event>
<event>
 5    1  0.3225662E-002  0.1250006E+03  0.7818608E-02  0.1235068E+00
          4   -1    0    0  501    0  0.00000000000E+00  0.00000000000E+00  0.29377902218E+04  0.29377904964E+04  0.12700000000E+01 0.  1.
         -4   -1    0    0    0  501 -0.00000000000E+00 -0.00000000000E+00 -0.10260798105E+01  0.16327093365E+01  0.12700000000E+01 0.  1.
         25    2    1    2    0    0  0.00000000000E+00  0.00000000000E+00  0.29367641420E+04  0.29394232057E+04  0.12500062485E+03 0.  0.
    9000005    1    3    3    0    0 -0.10803182653E+02 -0.20229405695E+02  0.10138805247E+03  0.10395419565E+03  0.10000000000E+01 0.  0.
    9000005    1    3    3    0    0  0.10803182653E+02  0.20229405695E+02  0.28353760896E+04  0.28354690100E+04  0.10000000000E+01 0.  0.
<mgrwt>
<rscale>  0 0.12500062E+03</rscale>
<asrwt>0</asrwt>
<pdfrwt beam="1">  1        4 0.45201294E+00 0.12500062E+03</pdfrwt>
<pdfrwt beam="2">  1       -4 0.20454402E-03 0.12500062E+03</pdfrwt>
<totfact> 0.20604703E+02</totfact>
</mgrwt>
</event>
<event>
 5    1  0.3225662E-002  0.1250018E+03  0.7818608E-02  0.1235066E+00
          4   -1    0    0  501    0  0.00000000000E+00  0.00000000000E+00  0.52190405388E+02  0.52205855175E+02  0.12700000000E+01 0. -1.
         -4   -1    0    0    0  501 -0.00000000000E+00 -0.00000000000E+00 -0.74816397989E+02  0.74827176267E+02  0.12700000000E+01 0. -1.
         25    2    1    2    0    0  0.00000000000E+00  0.00000000000E+00 -0.22625992601E+02  0.12703303144E+03  0.12500182213E+03 0.  0.
    9000005    1    3    3    0    0  0.31019260811E+02  0.54065966951E+02 -0.15862408104E+02  0.64326816449E+02  0.10000000000E+01 0.  0.
    9000005    1    3    3    0    0 -0.31019260811E+02 -0.54065966951E+02 -0.67635844975E+01  0.62706214994E+02  0.10000000000E+01 0.  0.
<mgrwt>
<rscale>  0 0.12500182E+03</rscale>
<asrwt>0</asrwt>
<pdfrwt beam="1">  1        4 0.80313107E-02 0.12500182E+03</pdfrwt>
<pdfrwt beam="2">  1       -4 0.11512233E-01 0.12500182E+03</pdfrwt>
<totfact> 0.10408000E+04</totfact>
</mgrwt>
</event>
<event>
 5    1  0.3225662E-002  0.1249949E+03  0.7818608E-02  0.1235077E+00
          4   -1    0    0  501    0  0.00000000000E+00  0.00000000000E+00  0.63187149569E+03  0.63187277197E+03  0.12700000000E+01 0.  1.
         -4   -1    0    0    0  501 -0.00000000000E+00 -0.00000000000E+00 -0.61149974445E+01  0.62454858695E+01  0.12700000000E+01 0.  1.
         25    2    1    2    0    0  0.00000000000E+00  0.00000000000E+00  0.62575649824E+03  0.63811825784E+03  0.12499486350E+03 0.  0.
    9000005    1    3    3    0    0 -0.43126316983E+02 -0.44334141424E+02  0.35840687008E+03  0.36370575997E+03  0.10000000000E+01 0.  0.
    9000005    1    3    3    0    0  0.43126316983E+02  0.44334141424E+02  0.26734962816E+03  0.27441249788E+03  0.10000000000E+01 0.  0.
<mgrwt>
<rscale>  0 0.12499486E+03</rscale>
<asrwt>0</asrwt>
<pdfrwt beam="1">  1        4 0.97221176E-01 0.12499486E+03</pdfrwt>
<pdfrwt beam="2">  1       -4 0.95090418E-03 0.12499486E+03</pdfrwt>
<totfact> 0.46551803E+03</totfact>
</mgrwt>
</event>
<event>
 5    1  0.3225662E-002  0.1249979E+03  0.7818608E-02  0.1235073E+00
         -4   -1    0    0    0  501 -0.00000000000E+00  0.00000000000E+00  0.16807862759E+03  0.16808342557E+03  0.12700000000E+01 0. -1.
          4   -1    0    0  501    0  0.00000000000E+00 -0.00000000000E+00 -0.23217334603E+02  0.23252043481E+02  0.12700000000E+01 0. -1.
         25    2    1    2    0    0  0.00000000000E+00  0.00000000000E+00  0.14486129298E+03  0.19133546905E+03  0.12499787003E+03 0.  0.
    9000005    1    3    3    0    0 -0.51255838085E+02  0.30802207261E+02  0.10020280096E+03  0.11669420821E+03  0.10000000000E+01 0.  0.
    9000005    1    3    3    0    0  0.51255838085E+02 -0.30802207261E+02  0.44658492027E+02  0.74641260842E+02  0.10000000000E+01 0.  0.
<mgrwt>
<rscale>  0 0.12499787E+03</rscale>
<asrwt>0</asrwt>
<pdfrwt beam="2">  1        4 0.35749368E-02 0.12499787E+03</pdfrwt>
<pdfrwt beam="1">  1       -4 0.25861288E-01 0.12499787E+03</pdfrwt>
<totfact> 0.91619837E+03</totfact>
</mgrwt>
</event>
<event>
 5    1  0.3225662E-002  0.1250011E+03  0.7818608E-02  0.1235068E+00
          4   -1    0    0  501    0  0.00000000000E+00  0.00000000000E+00  0.16525126614E+03  0.16525614622E+03  0.12700000000E+01 0.  1.
         -4   -1    0    0    0  501 -0.00000000000E+00 -0.00000000000E+00 -0.23616377495E+02  0.23650500756E+02  0.12700000000E+01 0.  1.
         25    2    1    2    0    0  0.00000000000E+00  0.00000000000E+00  0.14163488865E+03  0.18890664697E+03  0.12500111835E+03 0.  0.
    9000005    1    3    3    0    0  0.22380334128E+02 -0.62688619039E+00  0.15898953737E+03  0.16056134446E+03  0.10000000000E+01 0.  0.
    9000005    1    3    3    0    0 -0.22380334128E+02  0.62688619039E+00 -0.17354648723E+02  0.28345302508E+02  0.10000000000E+01 0.  0.
<mgrwt>
<rscale>  0 0.12500112E+03</rscale>
<asrwt>0</asrwt>
<pdfrwt beam="1">  1        4 0.25426272E-01 0.12500112E+03</pdfrwt>
<pdfrwt beam="2">  1       -4 0.36362890E-02 0.12500112E+03</pdfrwt>
<totfact> 0.92035596E+03</totfact>
</mgrwt>
</event>
<event>
 5    1  0.3225662E-002  0.1250012E+03  0.7818608E-02  0.1235067E+00
          4   -1    0    0  501    0  0.00000000000E+00  0.00000000000E+00  0.13132856881E+03  0.13133470937E+03  0.12700000000E+01 0.  1.
         -4   -1    0    0    0  501 -0.00000000000E+00 -0.00000000000E+00 -0.29724264299E+02  0.29751382961E+02  0.12700000000E+01 0.  1.
         25    2    1    2    0    0  0.00000000000E+00  0.00000000000E+00  0.10160430451E+03  0.16108609233E+03  0.12500117778E+03 0.  0.
    9000005    1    3    3    0    0  0.38225139556E+02 -0.12647418876E+02 -0.10788030264E+02  0.41695324622E+02  0.10000000000E+01 0.  0.
    9000005    1    3    3    0    0 -0.38225139556E+02  0.12647418876E+02  0.11239233477E+03  0.11939076771E+03  0.10000000000E+01 0.  0.
<mgrwt>
<rscale>  0 0.12500118E+03</rscale>
<asrwt>0</asrwt>
<pdfrwt beam="1">  1        4 0.20206953E-01 0.12500118E+03</pdfrwt>
<pdfrwt beam="2">  1       -4 0.45755222E-02 0.12500118E+03</pdfrwt>
<totfact> 0.97131232E+03</totfact>
</mgrwt>
</event>
<event>
 5    1  0.3225662E-002  0.1250011E+03  0.7818608E-02  0.1235068E+00
          4   -1    0    0  501    0  0.00000000000E+00  0.00000000000E+00  0.20229924819E+02  0.20269749830E+02  0.12700000000E+01 0. -1.
         -4   -1    0    0    0  501 -0.00000000000E+00 -0.00000000000E+00 -0.19286434766E+03  0.19286852905E+03  0.12700000000E+01 0. -1.
         25    2    1    2    0    0  0.00000000000E+00  0.00000000000E+00 -0.17263442284E+03  0.21313827888E+03  0.12500112789E+03 0.  0.
    9000005    1    3    3    0    0 -0.83256769258E+01 -0.57241541648E+02 -0.45988676565E+02  0.73904461021E+02  0.10000000000E+01 0.  0.
    9000005    1    3    3    0    0  0.83256769258E+01  0.57241541648E+02 -0.12664574628E+03  0.13923381786E+03  0.10000000000E+01 0.  0.
<mgrwt>
<rscale>  0 0.12500113E+03</rscale>
<asrwt>0</asrwt>
<pdfrwt beam="1">  1        4 0.31156814E-02 0.12500113E+03</pdfrwt>
<pdfrwt beam="2">  1       -4 0.29674822E-01 0.12500113E+03</pdfrwt>
<totfact> 0.87963693E+03</totfact>
</mgrwt>
</event>
<event>
 5    1  0.3225662E-002  0.1249831E+03  0.7818608E-02  0.1235096E+00
          4   -1    0    0  501    0  0.00000000000E+00  0.00000000000E+00  0.13636646072E+02  0.13695656834E+02  0.12700000000E+01 0.  1.
         -4   -1    0    0    0  501 -0.00000000000E+00 -0.00000000000E+00 -0.28569620808E+03  0.28569903082E+03  0.12700000000E+01 0.  1.
         25    2    1    2    0    0  0.00000000000E+00  0.00000000000E+00 -0.27205956200E+03  0.29939468765E+03  0.12498309372E+03 0.  0.
    9000005    1    3    3    0    0  0.42478156347E+02 -0.21330467986E+02 -0.38877993935E+02  0.61415641685E+02  0.10000000000E+01 0.  0.
    9000005    1    3    3    0    0 -0.42478156347E+02  0.21330467986E+02 -0.23318156807E+03  0.23797904596E+03  0.10000000000E+01 0.  0.
<mgrwt>
<rscale>  0 0.12498309E+03</rscale>
<asrwt>0</asrwt>
<pdfrwt beam="1">  1        4 0.21027022E-02 0.12498309E+03</pdfrwt>
<pdfrwt beam="2">  1       -4 0.43958015E-01 0.12498309E+03</pdfrwt>
<totfact> 0.75703242E+03</totfact>
</mgrwt>
</event>
<event>
 5    1  0.3225662E-002  0.1250025E+03  0.7818608E-02  0.1235065E+00
         -4   -1    0    0    0  501 -0.00000000000E+00  0.00000000000E+00  0.53384430135E+03  0.53384581199E+03  0.12700000000E+01 0. -1.
          4   -1    0    0  501    0  0.00000000000E+00 -0.00000000000E+00 -0.72608700433E+01  0.73711012600E+01  0.12700000000E+01 0. -1.
         25    2    1    2    0    0  0.00000000000E+00  0.00000000000E+00  0.52658343130E+03  0.54121691325E+03  0.12500254824E+03 0.  0.
    9000005    1    3    3    0    0 -0.59108530251E+02 -0.83384475151E+01  0.18321534003E+03  0.19269719479E+03  0.10000000000E+01 0.  0.
    9000005    1    3    3    0    0  0.59108530251E+02  0.83384475151E+01  0.34336809127E+03  0.34851971846E+03  0.10000000000E+01 0.  0.
<mgrwt>
<rscale>  0 0.12500255E+03</rscale>
<asrwt>0</asrwt>
<pdfrwt beam="2">  1        4 0.11256527E-02 0.12500255E+03</pdfrwt>
<pdfrwt beam="1">  1       -4 0.82138470E-01 0.12500255E+03</pdfrwt>
<totfact> 0.52799546E+03</totfact>
</mgrwt>
</event>
<event>
 5    1  0.3225662E-002  0.1250132E+03  0.7818608E-02  0.1235049E+00
          4   -1    0    0  501    0  0.00000000000E+00  0.00000000000E+00  0.65380442131E+01  0.66602494046E+01  0.12700000000E+01 0. -1.
         -4   -1    0    0    0  501 -0.00000000000E+00 -0.00000000000E+00 -0.59193449280E+03  0.59193585520E+03  0.12700000000E+01 0. -1.
         25    2    1    2    0    0  0.00000000000E+00  0.00000000000E+00 -0.58539644859E+03  0.59859610461E+03  0.12501317700E+03 0.  0.
    9000005    1    3    3    0    0  0.19691946798E+02  0.26617002214E+02 -0.38882465594E+02  0.51079190540E+02  0.10000000000E+01 0.  0.
    9000005    1    3    3    0    0 -0.19691946798E+02 -0.26617002214E+02 -0.54651398300E+03  0.54751691407E+03  0.10000000000E+01 0.  0.
<mgrwt>
<rscale>  0 0.12501318E+03</rscale>
<asrwt>0</asrwt>
<pdfrwt beam="1">  1        4 0.10153586E-02 0.12501318E+03</pdfrwt>
<pdfrwt beam="2">  1       -4 0.91076308E-01 0.12501318E+03</pdfrwt>
<totfact> 0.48942222E+03</totfact>
</mgrwt>
</event>
<event>
 5    1  0.3225662E-002  0.1249995E+03  0.7818608E-02  0.1235070E+00
          4   -1    0    0  501    0  0.00000000000E+00  0.00000000000E+00  0.44429314644E+02  0.44447462241E+02  0.12700000000E+01 0.  1.
         -4   -1    0    0    0  501 -0.00000000000E+00 -0.00000000000E+00 -0.87879232874E+02  0.87888409193E+02  0.12700000000E+01 0.  1.
         25    2    1    2    0    0  0.00000000000E+00  0.00000000000E+00 -0.43449918230E+02  0.13233587143E+03  0.12499954990E+03 0.  0.
    9000005    1    3    3    0    0  0.46943052056E+02  0.25069032428E+02 -0.56406016888E+02  0.77554788791E+02  0.10000000000E+01 0.  0.
    9000005    1    3    3    0    0 -0.46943052056E+02 -0.25069032428E+02  0.12956098658E+02  0.54781082644E+02  0.10000000000E+01 0.  0.
<mgrwt>
<rscale>  0 0.12499955E+03</rscale>
<asrwt>0</asrwt>
<pdfrwt beam="1">  1        4 0.68373810E-02 0.12499955E+03</pdfrwt>
<pdfrwt beam="2">  1       -4 0.13521984E-01 0.12499955E+03</pdfrwt>
<totfact> 0.10294639E+04</totfact>
</mgrwt>
</event>
<event>
 5    1  0.3225662E-002  0.1250023E+03  0.7818608E-02  0.1235066E+00
         -4   -1    0    0    0  501 -0.00000000000E+00  0.00000000000E+00  0.51858753609E+01  0.53391200828E+01  0.12700000000E+01 0. -1.
          4   -1    0    0  501    0  0.00000000000E+00 -0.00000000000E+00 -0.74215436070E+03  0.74215544733E+03  0.12700000000E+01 0. -1.
         25    2    1    2    0    0  0.00000000000E+00  0.00000000000E+00 -0.73696848534E+03  0.74749456741E+03  0.12500231971E+03 0.  0.
    9000005    1    3    3    0    0  0.34642918058E+02  0.51986370034E+02 -0.37827466222E+03  0.38339983635E+03  0.10000000000E+01 0.  0.
    9000005    1    3    3    0    0 -0.34642918058E+02 -0.51986370034E+02 -0.35869382312E+03  0.36409473106E+03  0.10000000000E+01 0.  0.
<mgrwt>
<rscale>  0 0.12500232E+03</rscale>
<asrwt>0</asrwt>
<pdfrwt beam="2">  1        4 0.11418938E+00 0.12500232E+03</pdfrwt>
<pdfrwt beam="1">  1       -4 0.80969921E-03 0.12500232E+03</pdfrwt>
<totfact> 0.40692218E+03</totfact>
</mgrwt>
</event>
<event>
 5    1  0.3225662E-002  0.1250070E+03  0.7818608E-02  0.1235058E+00
          4   -1    0    0  501    0  0.00000000000E+00  0.00000000000E+00  0.13005981309E+03  0.13006601355E+03  0.12700000000E+01 0. -1.
         -4   -1    0    0    0  501 -0.00000000000E+00 -0.00000000000E+00 -0.30017256135E+02  0.30044110336E+02  0.12700000000E+01 0. -1.
         25    2    1    2    0    0  0.00000000000E+00  0.00000000000E+00  0.10004255696E+03  0.16011012389E+03  0.12500695408E+03 0.  0.
    9000005    1    3    3    0    0 -0.31919139402E+02 -0.52711701098E+02  0.36690408586E+02  0.71725455558E+02  0.10000000000E+01 0.  0.
    9000005    1    3    3    0    0  0.31919139402E+02  0.52711701098E+02  0.63352148372E+02  0.88384668332E+02  0.10000000000E+01 0.  0.
<mgrwt>
<rscale>  0 0.12500695E+03</rscale>
<asrwt>0</asrwt>
<pdfrwt beam="1">  1        4 0.20011745E-01 0.12500695E+03</pdfrwt>
<pdfrwt beam="2">  1       -4 0.46205821E-02 0.12500695E+03</pdfrwt>
<totfact> 0.97306347E+03</totfact>
</mgrwt>
</event>
<event>
 5    1  0.3225662E-002  0.1249971E+03  0.7818608E-02  0.1235074E+00
         -4   -1    0    0    0  501 -0.00000000000E+00  0.00000000000E+00  0.79547540367E+01  0.80554957503E+01  0.12700000000E+01 0.  1.
          4   -1    0    0  501    0  0.00000000000E+00 -0.00000000000E+00 -0.48784482340E+03  0.48784647649E+03  0.12700000000E+01 0.  1.
         25    2    1    2    0    0  0.00000000000E+00  0.00000000000E+00 -0.47989006937E+03  0.49590197224E+03  0.12499714954E+03 0.  0.
    9000005    1    3    3    0    0 -0.58109776519E+02  0.22984457175E+02 -0.24074294167E+03  0.24872312993E+03  0.10000000000E+01 0.  0.
    9000005    1    3    3    0    0  0.58109776519E+02 -0.22984457175E+02 -0.23914712769E+03  0.24717884230E+03  0.10000000000E+01 0.  0.
<mgrwt>
<rscale>  0 0.12499715E+03</rscale>
<asrwt>0</asrwt>
<pdfrwt beam="2">  1        4 0.75060903E-01 0.12499715E+03</pdfrwt>
<pdfrwt beam="1">  1       -4 0.12316852E-02 0.12499715E+03</pdfrwt>
<totfact> 0.56187263E+03</totfact>
</mgrwt>
</event>
<event>
 5    1  0.3225662E-002  0.1249959E+03  0.7818608E-02  0.1235076E+00
         -4   -1    0    0    0  501 -0.00000000000E+00  0.00000000000E+00  0.32402914287E+02  0.32427792930E+02  0.12700000000E+01 0. -1.
          4   -1    0    0  501    0  0.00000000000E+00 -0.00000000000E+00 -0.12046994242E+03  0.12047663644E+03  0.12700000000E+01 0. -1.
         25    2    1    2    0    0  0.00000000000E+00  0.00000000000E+00 -0.88067028135E+02  0.15290442937E+03  0.12499585223E+03 0.  0.
    9000005    1    3    3    0    0 -0.22149843661E+02  0.17578186295E+02 -0.11220174433E+03  0.11571447463E+03  0.10000000000E+01 0.  0.
    9000005    1    3    3    0    0  0.22149843661E+02 -0.17578186295E+02  0.24134716196E+02  0.37189954739E+02  0.10000000000E+01 0.  0.
<mgrwt>
<rscale>  0 0.12499585E+03</rscale>
<asrwt>0</asrwt>
<pdfrwt beam="2">  1        4 0.18536266E-01 0.12499585E+03</pdfrwt>
<pdfrwt beam="1">  1       -4 0.49874925E-02 0.12499585E+03</pdfrwt>
<totfact> 0.98737077E+03</totfact>
</mgrwt>
</event>
<event>
 5    1  0.3225662E-002  0.1249984E+03  0.7818608E-02  0.1235072E+00
         -4   -1    0    0    0  501 -0.00000000000E+00  0.00000000000E+00  0.11791220403E+03  0.11791904325E+03  0.12700000000E+01 0.  1.
          4   -1    0    0  501    0  0.00000000000E+00 -0.00000000000E+00 -0.33107623377E+02  0.33131972862E+02  0.12700000000E+01 0.  1.
         25    2    1    2    0    0  0.00000000000E+00  0.00000000000E+00  0.84804580657E+02  0.15105101611E+03  0.12499837026E+03 0.  0.
    9000005    1    3    3    0    0 -0.34330193809E+02 -0.81518194552E+01  0.10472854631E+03  0.11051734153E+03  0.10000000000E+01 0.  0.
    9000005    1    3    3    0    0  0.34330193809E+02  0.81518194552E+01 -0.19923965652E+02  0.40533674577E+02  0.10000000000E+01 0.  0.
<mgrwt>
<rscale>  0 0.12499837E+03</rscale>
<asrwt>0</asrwt>
<pdfrwt beam="2">  1        4 0.50958797E-02 0.12499837E+03</pdfrwt>
<pdfrwt beam="1">  1       -4 0.18142738E-01 0.12499837E+03</pdfrwt>
<totfact> 0.99098240E+03</totfact>
</mgrwt>
</event>
<event>
 5    1  0.3225662E-002  0.1249979E+03  0.7818608E-02  0.1235073E+00
          4   -1    0    0  501    0  0.00000000000E+00  0.00000000000E+00  0.10243144149E+03  0.10243931426E+03  0.12700000000E+01 0.  1.
         -4   -1    0    0    0  501 -0.00000000000E+00 -0.00000000000E+00 -0.38114091268E+02  0.38135244240E+02  0.12700000000E+01 0.  1.
         25    2    1    2    0    0  0.00000000000E+00  0.00000000000E+00  0.64317350219E+02  0.14057455850E+03  0.12499793981E+03 0.  0.
    9000005    1    3    3    0    0 -0.28357699057E+02 -0.46470626195E+02  0.66665174131E+02  0.86075104628E+02  0.10000000000E+01 0.  0.
    9000005    1    3    3    0    0  0.28357699057E+02  0.46470626195E+02 -0.23478239125E+01  0.54499453868E+02  0.10000000000E+01 0.  0.
<mgrwt>
<rscale>  0 0.12499794E+03</rscale>
<asrwt>0</asrwt>
<pdfrwt beam="1">  1        4 0.15760916E-01 0.12499794E+03</pdfrwt>
<pdfrwt beam="2">  1       -4 0.58659391E-02 0.12499794E+03</pdfrwt>
<totfact> 0.10122161E+04</totfact>
</mgrwt>
</event>
<event>
 5    1  0.3225662E-002  0.1250149E+03  0.7818608E-02  0.1235046E+00
          4   -1    0    0  501    0  0.00000000000E+00  0.00000000000E+00  0.17045055419E+03  0.17045528541E+03  0.12700000000E+01 0.  1.
         -4   -1    0    0    0  501 -0.00000000000E+00 -0.00000000000E+00 -0.22900015710E+02  0.22935204807E+02  0.12700000000E+01 0.  1.
         25    2    1    2    0    0  0.00000000000E+00  0.00000000000E+00  0.14755053848E+03  0.19339049022E+03  0.12501488032E+03 0.  0.
    9000005    1    3    3    0    0  0.21642145936E+01  0.10938985099E+02  0.16890684379E+03  0.16927748551E+03  0.10000000000E+01 0.  0.
    9000005    1    3    3    0    0 -0.21642145936E+01 -0.10938985099E+02 -0.21356305309E+02  0.24113004712E+02  0.10000000000E+01 0.  0.
<mgrwt>
<rscale>  0 0.12501488E+03</rscale>
<asrwt>0</asrwt>
<pdfrwt beam="1">  1        4 0.26226232E-01 0.12501488E+03</pdfrwt>
<pdfrwt beam="2">  1       -4 0.35261503E-02 0.12501488E+03</pdfrwt>
<totfact> 0.91230303E+03</totfact>
</mgrwt>
</event>
<event>
 5    1  0.3225662E-002  0.1250007E+03  0.7818608E-02  0.1235068E+00
          4   -1    0    0  501    0  0.00000000000E+00  0.00000000000E+00  0.15774235786E+03  0.15774747022E+03  0.12700000000E+01 0. -1.
         -4   -1    0    0    0  501 -0.00000000000E+00 -0.00000000000E+00 -0.24741962642E+02  0.24774535624E+02  0.12700000000E+01 0. -1.
         25    2    1    2    0    0  0.00000000000E+00  0.00000000000E+00  0.13300039521E+03  0.18252200585E+03  0.12500070996E+03 0.  0.
    9000005    1    3    3    0    0 -0.44597745416E+02 -0.43746741117E+02  0.64164787965E+02  0.89559233299E+02  0.10000000000E+01 0.  0.
    9000005    1    3    3    0    0  0.44597745416E+02  0.43746741117E+02  0.68835607248E+02  0.92962772547E+02  0.10000000000E+01 0.  0.
<mgrwt>
<rscale>  0 0.12500071E+03</rscale>
<asrwt>0</asrwt>
<pdfrwt beam="1">  1        4 0.24270954E-01 0.12500071E+03</pdfrwt>
<pdfrwt beam="2">  1       -4 0.38093546E-02 0.12500071E+03</pdfrwt>
<totfact> 0.93163510E+03</totfact>
</mgrwt>
</event>
<event>
 5    1  0.3225662E-002  0.1249908E+03  0.7818608E-02  0.1235084E+00
         -4   -1    0    0    0  501 -0.00000000000E+00  0.00000000000E+00  0.57238496982E+02  0.57252584543E+02  0.12700000000E+01 0.  1.
          4   -1    0    0  501    0  0.00000000000E+00 -0.00000000000E+00 -0.68206745479E+02  0.68218568065E+02  0.12700000000E+01 0.  1.
         25    2    1    2    0    0  0.00000000000E+00  0.00000000000E+00 -0.10968248497E+02  0.12547115261E+03  0.12499083031E+03 0.  0.
    9000005    1    3    3    0    0 -0.29634333960E+00  0.60116314316E+02 -0.22597152862E+02  0.64231537299E+02  0.10000000000E+01 0.  0.
    9000005    1    3    3    0    0  0.29634333960E+00 -0.60116314316E+02  0.11628904365E+02  0.61239615308E+02  0.10000000000E+01 0.  0.
<mgrwt>
<rscale>  0 0.12499083E+03</rscale>
<asrwt>0</asrwt>
<pdfrwt beam="2">  1        4 0.10495339E-01 0.12499083E+03</pdfrwt>
<pdfrwt beam="1">  1       -4 0.88079157E-02 0.12499083E+03</pdfrwt>
<totfact> 0.10444752E+04</totfact>
</mgrwt>
</event>
<event>
 5    1  0.3225662E-002  0.1249969E+03  0.7818608E-02  0.1235074E+00
         -4   -1    0    0    0  501 -0.00000000000E+00  0.00000000000E+00  0.81478729252E+01  0.82462557082E+01  0.12700000000E+01 0.  1.
          4   -1    0    0  501    0  0.00000000000E+00 -0.00000000000E+00 -0.47641933509E+03  0.47642102782E+03  0.12700000000E+01 0.  1.
         25    2    1    2    0    0  0.00000000000E+00  0.00000000000E+00 -0.46827146217E+03  0.48466728353E+03  0.12499685373E+03 0.  0.
    9000005    1    3    3    0    0 -0.36383082435E+02 -0.42465913351E+02 -0.34228567352E+03  0.34682497716E+03  0.10000000000E+01 0.  0.
    9000005    1    3    3    0    0  0.36383082435E+02  0.42465913351E+02 -0.12598578864E+03  0.13784230636E+03  0.10000000000E+01 0.  0.
<mgrwt>
<rscale>  0 0.12499685E+03</rscale>
<asrwt>0</asrwt>
<pdfrwt beam="2">  1        4 0.73302959E-01 0.12499685E+03</pdfrwt>
<pdfrwt beam="1">  1       -4 0.12612174E-02 0.12499685E+03</pdfrwt>
<totfact> 0.57077895E+03</totfact>
</mgrwt>
</event>
<event>
 5    1  0.3225662E-002  0.1249965E+03  0.7818608E-02  0.1235075E+00
          4   -1    0    0  501    0  0.00000000000E+00  0.00000000000E+00  0.34557265548E+02  0.34580594300E+02  0.12700000000E+01 0.  1.
         -4   -1    0    0    0  501 -0.00000000000E+00 -0.00000000000E+00 -0.11296562976E+03  0.11297276843E+03  0.12700000000E+01 0.  1.
         25    2    1    2    0    0  0.00000000000E+00  0.00000000000E+00 -0.78408364208E+02  0.14755336273E+03  0.12499649305E+03 0.  0.
    9000005    1    3    3    0    0 -0.33208726569E+02  0.18133032295E+02  0.19504029499E+02  0.42579731649E+02  0.10000000000E+01 0.  0.
    9000005    1    3    3    0    0  0.33208726569E+02 -0.18133032295E+02 -0.97912393707E+02  0.10497363108E+03  0.10000000000E+01 0.  0.
<mgrwt>
<rscale>  0 0.12499649E+03</rscale>
<asrwt>0</asrwt>
<pdfrwt beam="1">  1        4 0.53188461E-02 0.12499649E+03</pdfrwt>
<pdfrwt beam="2">  1       -4 0.17381671E-01 0.12499649E+03</pdfrwt>
<totfact> 0.99801532E+03</totfact>
</mgrwt>
</event>
<event>
 5    1  0.3225662E-002  0.1250009E+03  0.7818608E-02  0.1235068E+00
          4   -1    0    0  501    0  0.00000000000E+00  0.00000000000E+00  0.95281710637E+03  0.95281795275E+03  0.12700000000E+01 0.  1.
         -4   -1    0    0    0  501 -0.00000000000E+00 -0.00000000000E+00 -0.40005228000E+01  0.41972708602E+01  0.12700000000E+01 0.  1.
         25    2    1    2    0    0  0.00000000000E+00  0.00000000000E+00  0.94881658357E+03  0.95701522361E+03  0.12500091589E+03 0.  0.
    9000005    1    3    3    0    0 -0.22465374253E+02 -0.51973704184E+02  0.67687443293E+03  0.67923924866E+03  0.10000000000E+01 0.  0.
    9000005    1    3    3    0    0  0.22465374253E+02  0.51973704184E+02  0.27194215064E+03  0.27777597495E+03  0.10000000000E+01 0.  0.
<mgrwt>
<rscale>  0 0.12500092E+03</rscale>
<asrwt>0</asrwt>
<pdfrwt beam="1">  1        4 0.14660248E+00 0.12500092E+03</pdfrwt>
<pdfrwt beam="2">  1       -4 0.63066446E-03 0.12500092E+03</pdfrwt>
<totfact> 0.32067553E+03</totfact>
</mgrwt>
</event>
<event>
 5    1  0.3225662E-002  0.1249998E+03  0.7818608E-02  0.1235070E+00
         -4   -1    0    0    0  501 -0.00000000000E+00  0.00000000000E+00  0.10144234681E+03  0.10145029633E+03  0.12700000000E+01 0. -1.
          4   -1    0    0  501    0  0.00000000000E+00 -0.00000000000E+00 -0.38487014847E+02  0.38507962966E+02  0.12700000000E+01 0. -1.
         25    2    1    2    0    0  0.00000000000E+00  0.00000000000E+00  0.62955331960E+02  0.13995825930E+03  0.12499976209E+03 0.  0.
    9000005    1    3    3    0    0 -0.24021693810E+02  0.21890021873E+02 -0.28285984586E+02  0.43096539944E+02  0.10000000000E+01 0.  0.
    9000005    1    3    3    0    0  0.24021693810E+02 -0.21890021873E+02  0.91241316546E+02  0.96861719354E+02  0.10000000000E+01 0.  0.
<mgrwt>
<rscale>  0 0.12499976E+03</rscale>
<asrwt>0</asrwt>
<pdfrwt beam="2">  1        4 0.59233022E-02 0.12499976E+03</pdfrwt>
<pdfrwt beam="1">  1       -4 0.15608738E-01 0.12499976E+03</pdfrwt>
<totfact> 0.10134505E+04</totfact>
</mgrwt>
</event>
<event>
 5    1  0.3225662E-002  0.1249989E+03  0.7818608E-02  0.1235071E+00
          4   -1    0    0  501    0  0.00000000000E+00  0.00000000000E+00  0.14413461944E+02  0.14469304932E+02  0.12700000000E+01 0. -1.
         -4   -1    0    0    0  501 -0.00000000000E+00 -0.00000000000E+00 -0.27042807769E+03  0.27043105980E+03  0.12700000000E+01 0. -1.
         25    2    1    2    0    0  0.00000000000E+00  0.00000000000E+00 -0.25601461575E+03  0.28490036473E+03  0.12499893739E+03 0.  0.
    9000005    1    3    3    0    0  0.48727123300E+02 -0.11791087324E+02 -0.21303853050E+03  0.21886017857E+03  0.10000000000E+01 0.  0.
    9000005    1    3    3    0    0 -0.48727123300E+02  0.11791087324E+02 -0.42976085252E+02  0.66040186167E+02  0.10000000000E+01 0.  0.
<mgrwt>
<rscale>  0 0.12499894E+03</rscale>
<asrwt>0</asrwt>
<pdfrwt beam="1">  1        4 0.22219809E-02 0.12499894E+03</pdfrwt>
<pdfrwt beam="2">  1       -4 0.41608841E-01 0.12499894E+03</pdfrwt>
<totfact> 0.77534640E+03</totfact>
</mgrwt>
</event>
<event>
 5    1  0.3225662E-002  0.1249997E+03  0.7818608E-02  0.1235070E+00
         -4   -1    0    0    0  501 -0.00000000000E+00  0.00000000000E+00  0.52500791789E+02  0.52516150263E+02  0.12700000000E+01 0. -1.
          4   -1    0    0  501    0  0.00000000000E+00 -0.00000000000E+00 -0.74371610613E+02  0.74382453342E+02  0.12700000000E+01 0. -1.
         25    2    1    2    0    0  0.00000000000E+00  0.00000000000E+00 -0.21870818824E+02  0.12689860361E+03  0.12499969152E+03 0.  0.
    9000005    1    3    3    0    0 -0.46761846427E+02 -0.28918073569E+02  0.19219455364E+02  0.58252147812E+02  0.10000000000E+01 0.  0.
    9000005    1    3    3    0    0  0.46761846427E+02  0.28918073569E+02 -0.41090274188E+02  0.68646455794E+02  0.10000000000E+01 0.  0.
<mgrwt>
<rscale>  0 0.12499969E+03</rscale>
<asrwt>0</asrwt>
<pdfrwt beam="2">  1        4 0.11443802E-01 0.12499969E+03</pdfrwt>
<pdfrwt beam="1">  1       -4 0.80790603E-02 0.12499969E+03</pdfrwt>
<totfact> 0.10411422E+04</totfact>
</mgrwt>
</event>
<event>
 5    1  0.3225662E-002  0.1250003E+03  0.7818608E-02  0.1235069E+00
          4   -1    0    0  501    0  0.00000000000E+00  0.00000000000E+00  0.95737827526E+03  0.95737911762E+03  0.12700000000E+01 0. -1.
         -4   -1    0    0    0  501 -0.00000000000E+00 -0.00000000000E+00 -0.39804839429E+01  0.41781757286E+01  0.12700000000E+01 0. -1.
         25    2    1    2    0    0  0.00000000000E+00  0.00000000000E+00  0.95339779132E+03  0.96155729334E+03  0.12500031955E+03 0.  0.
    9000005    1    3    3    0    0  0.46129589880E+02  0.41340257170E+02  0.41311911148E+03  0.41773838247E+03  0.10000000000E+01 0.  0.
    9000005    1    3    3    0    0 -0.46129589880E+02 -0.41340257170E+02  0.54027867984E+03  0.54381891087E+03  0.10000000000E+01 0.  0.
<mgrwt>
<rscale>  0 0.12500032E+03</rscale>
<asrwt>0</asrwt>
<pdfrwt beam="1">  1        4 0.14730446E+00 0.12500032E+03</pdfrwt>
<pdfrwt beam="2">  1       -4 0.62765306E-03 0.12500032E+03</pdfrwt>
<totfact> 0.31908888E+03</totfact>
</mgrwt>
</event>
<event>
 5    1  0.3225662E-002  0.1250027E+03  0.7818608E-02  0.1235065E+00
          4   -1    0    0  501    0  0.00000000000E+00  0.00000000000E+00  0.10512327134E+02  0.10588763940E+02  0.12700000000E+01 0.  1.
         -4   -1    0    0    0  501 -0.00000000000E+00 -0.00000000000E+00 -0.37017977849E+03  0.37018195702E+03  0.12700000000E+01 0.  1.
         25    2    1    2    0    0  0.00000000000E+00  0.00000000000E+00 -0.35966745136E+03  0.38077072096E+03  0.12500266547E+03 0.  0.
    9000005    1    3    3    0    0  0.48057760613E+02  0.23820608299E+02 -0.82147079242E+02  0.98112753314E+02  0.10000000000E+01 0.  0.
    9000005    1    3    3    0    0 -0.48057760613E+02 -0.23820608299E+02 -0.27752037211E+03  0.28265796764E+03  0.10000000000E+01 0.  0.
<mgrwt>
<rscale>  0 0.12500267E+03</rscale>
<asrwt>0</asrwt>
<pdfrwt beam="1">  1        4 0.16233287E-02 0.12500267E+03</pdfrwt>
<pdfrwt beam="2">  1       -4 0.56956772E-01 0.12500267E+03</pdfrwt>
<totfact> 0.66463061E+03</totfact>
</mgrwt>
</event>
<event>
 5    1  0.3225662E-002  0.1249972E+03  0.7818608E-02  0.1235074E+00
          4   -1    0    0  501    0  0.00000000000E+00  0.00000000000E+00  0.12881860082E+02  0.12944312232E+02  0.12700000000E+01 0. -1.
         -4   -1    0    0    0  501 -0.00000000000E+00 -0.00000000000E+00 -0.30242573006E+03  0.30242839665E+03  0.12700000000E+01 0. -1.
         25    2    1    2    0    0  0.00000000000E+00  0.00000000000E+00 -0.28954386997E+03  0.31537270888E+03  0.12499717144E+03 0.  0.
    9000005    1    3    3    0    0  0.16899712571E+02  0.27080082647E+02 -0.92271619746E+01  0.33242618418E+02  0.10000000000E+01 0.  0.
    9000005    1    3    3    0    0 -0.16899712571E+02 -0.27080082647E+02 -0.28031670800E+03  0.28213009046E+03  0.10000000000E+01 0.  0.
<mgrwt>
<rscale>  0 0.12499717E+03</rscale>
<asrwt>0</asrwt>
<pdfrwt beam="1">  1        4 0.19868340E-02 0.12499717E+03</pdfrwt>
<pdfrwt beam="2">  1       -4 0.46532039E-01 0.12499717E+03</pdfrwt>
<totfact> 0.73714506E+03</totfact>
</mgrwt>
</event>
<event>
 5    1  0.3225662E-002  0.1249994E+03  0.7818608E-02  0.1235070E+00
          4   -1    0    0  501    0  0.00000000000E+00  0.00000000000E+00  0.11399987480E+03  0.11400694871E+03  0.12700000000E+01 0. -1.
         -4   -1    0    0    0  501 -0.00000000000E+00 -0.00000000000E+00 -0.34245137177E+02  0.34268678415E+02  0.12700000000E+01 0. -1.
         25    2    1    2    0    0  0.00000000000E+00  0.00000000000E+00  0.79754737623E+02  0.14827562713E+03  0.12499937370E+03 0.  0.
    9000005    1    3    3    0    0 -0.13993717854E+02 -0.43411952297E+02 -0.10794657711E+02  0.46882260790E+02  0.10000000000E+01 0.  0.
    9000005    1    3    3    0    0  0.13993717854E+02  0.43411952297E+02  0.90549395334E+02  0.10139336634E+03  0.10000000000E+01 0.  0.
<mgrwt>
<rscale>  0 0.12499937E+03</rscale>
<asrwt>0</asrwt>
<pdfrwt beam="1">  1        4 0.17540798E-01 0.12499937E+03</pdfrwt>
<pdfrwt beam="2">  1       -4 0.52708376E-02 0.12499937E+03</pdfrwt>
<totfact> 0.99649947E+03</totfact>
</mgrwt>
</event>
<event>
 5    1  0.3225662E-002  0.1249968E+03  0.7818608E-02  0.1235074E+00
         -4   -1    0    0    0  501 -0.00000000000E+00  0.00000000000E+00  0.28147682901E+03  0.28147969407E+03  0.12700000000E+01 0.  1.
          4   -1    0    0  501    0  0.00000000000E+00 -0.00000000000E+00 -0.13844996137E+02  0.13903122600E+02  0.12700000000E+01 0.  1.
         25    2    1    2    0    0  0.00000000000E+00  0.00000000000E+00  0.26763183288E+03  0.29538281667E+03  0.12499684161E+03 0.  0.
    9000005    1    3    3    0    0  0.39676740145E+02 -0.24834853899E+02  0.23165142983E+03  0.23633535203E+03  0.10000000000E+01 0.  0.
    9000005    1    3    3    0    0 -0.39676740145E+02  0.24834853899E+02  0.35980403053E+02  0.59047464642E+02  0.10000000000E+01 0.  0.
<mgrwt>
<rscale>  0 0.12499684E+03</rscale>
<asrwt>0</asrwt>
<pdfrwt beam="2">  1        4 0.21346913E-02 0.12499684E+03</pdfrwt>
<pdfrwt beam="1">  1       -4 0.43308814E-01 0.12499684E+03</pdfrwt>
<totfact> 0.76187030E+03</totfact>
</mgrwt>
</event>
<event>
 5    1  0.3225662E-002  0.1249992E+03  0.7818608E-02  0.1235071E+00
         -4   -1    0    0    0  501 -0.00000000000E+00  0.00000000000E+00  0.47631271562E+02  0.47648199657E+02  0.12700000000E+01 0.  1.
          4   -1    0    0  501    0  0.00000000000E+00 -0.00000000000E+00 -0.81972731443E+02  0.81982568880E+02  0.12700000000E+01 0.  1.
         25    2    1    2    0    0  0.00000000000E+00  0.00000000000E+00 -0.34341459882E+02  0.12963076854E+03  0.12499920114E+03 0.  0.
    9000005    1    3    3    0    0 -0.14348432408E+02  0.14666869595E+02 -0.78385009001E+02  0.81032118399E+02  0.10000000000E+01 0.  0.
    9000005    1    3    3    0    0  0.14348432408E+02 -0.14666869595E+02  0.44043549119E+02  0.48598650138E+02  0.10000000000E+01 0.  0.
<mgrwt>
<rscale>  0 0.12499920E+03</rscale>
<asrwt>0</asrwt>
<pdfrwt beam="2">  1        4 0.12613248E-01 0.12499920E+03</pdfrwt>
<pdfrwt beam="1">  1       -4 0.73299468E-02 0.12499920E+03</pdfrwt>
<totfact> 0.10352599E+04</totfact>
</mgrwt>
</event>
<event>
 5    1  0.3225662E-002  0.1249973E+03  0.7818608E-02  0.1235073E+00
         -4   -1    0    0    0  501 -0.00000000000E+00  0.00000000000E+00  0.22645362399E+03  0.22645718517E+03  0.12700000000E+01 0. -1.
          4   -1    0    0  501    0  0.00000000000E+00 -0.00000000000E+00 -0.17221853617E+02  0.17268617259E+02  0.12700000000E+01 0. -1.
         25    2    1    2    0    0  0.00000000000E+00  0.00000000000E+00  0.20923177037E+03  0.24372580243E+03  0.12499733213E+03 0.  0.
    9000005    1    3    3    0    0  0.25943080890E+02 -0.37955067086E+02  0.18714428751E+03  0.19271122155E+03  0.10000000000E+01 0.  0.
    9000005    1    3    3    0    0 -0.25943080890E+02  0.37955067086E+02  0.22087482861E+02  0.51014580883E+02  0.10000000000E+01 0.  0.
<mgrwt>
<rscale>  0 0.12499733E+03</rscale>
<asrwt>0</asrwt>
<pdfrwt beam="2">  1        4 0.26533872E-02 0.12499733E+03</pdfrwt>
<pdfrwt beam="1">  1       -4 0.34842889E-01 0.12499733E+03</pdfrwt>
<totfact> 0.83250536E+03</totfact>
</mgrwt>
</event>
<event>
 5    1  0.3225662E-002  0.1250060E+03  0.7818608E-02  0.1235060E+00
         -4   -1    0    0    0  501 -0.00000000000E+00  0.00000000000E+00  0.13595847602E+03  0.13596440748E+03  0.12700000000E+01 0.  1.
          4   -1    0    0  501    0  0.00000000000E+00 -0.00000000000E+00 -0.28713365383E+02  0.28741437884E+02  0.12700000000E+01 0.  1.
         25    2    1    2    0    0  0.00000000000E+00  0.00000000000E+00  0.10724511063E+03  0.16470584536E+03  0.12500600682E+03 0.  0.
    9000005    1    3    3    0    0  0.24013140680E+02 -0.50964513252E+02  0.89261005297E+02  0.10555822849E+03  0.10000000000E+01 0.  0.
    9000005    1    3    3    0    0 -0.24013140680E+02  0.50964513252E+02  0.17984105337E+02  0.59147616867E+02  0.10000000000E+01 0.  0.
<mgrwt>
<rscale>  0 0.12500601E+03</rscale>
<asrwt>0</asrwt>
<pdfrwt beam="2">  1        4 0.44200565E-02 0.12500601E+03</pdfrwt>
<pdfrwt beam="1">  1       -4 0.20919304E-01 0.12500601E+03</pdfrwt>
<totfact> 0.96430116E+03</totfact>
</mgrwt>
</event>
<event>
 5    1  0.3225662E-002  0.1249998E+03  0.7818608E-02  0.1235070E+00
          4   -1    0    0  501    0  0.00000000000E+00  0.00000000000E+00  0.38254993338E+02  0.38276068441E+02  0.12700000000E+01 0.  1.
         -4   -1    0    0    0  501 -0.00000000000E+00 -0.00000000000E+00 -0.10205739003E+03  0.10206529165E+03  0.12700000000E+01 0.  1.
         25    2    1    2    0    0  0.00000000000E+00  0.00000000000E+00 -0.63802396690E+02  0.14034136009E+03  0.12499980611E+03 0.  0.
    9000005    1    3    3    0    0 -0.41309705018E+02 -0.46135362886E+02 -0.41313049560E+02  0.74449523177E+02  0.10000000000E+01 0.  0.
    9000005    1    3    3    0    0  0.41309705018E+02  0.46135362886E+02 -0.22489347130E+02  0.65891836912E+02  0.10000000000E+01 0.  0.
<mgrwt>
<rscale>  0 0.12499981E+03</rscale>
<asrwt>0</asrwt>
<pdfrwt beam="1">  1        4 0.58876126E-02 0.12499981E+03</pdfrwt>
<pdfrwt beam="2">  1       -4 0.15703366E-01 0.12499981E+03</pdfrwt>
<totfact> 0.10126560E+04</totfact>
</mgrwt>
</event>
<event>
 5    1  0.3225662E-002  0.1250231E+03  0.7818608E-02  0.1235033E+00
          4   -1    0    0  501    0  0.00000000000E+00  0.00000000000E+00  0.87016452705E+03  0.87016545383E+03  0.12700000000E+01 0.  1.
         -4   -1    0    0    0  501 -0.00000000000E+00 -0.00000000000E+00 -0.44000143372E+01  0.45796316629E+01  0.12700000000E+01 0.  1.
         25    2    1    2    0    0  0.00000000000E+00  0.00000000000E+00  0.86576451272E+03  0.87474508549E+03  0.12502309034E+03 0.  0.
    9000005    1    3    3    0    0 -0.37621356957E+02 -0.46331231669E+02  0.56279132933E+03  0.56594790387E+03  0.10000000000E+01 0.  0.
    9000005    1    3    3    0    0  0.37621356957E+02  0.46331231669E+02  0.30297318338E+03  0.30879718162E+03  0.10000000000E+01 0.  0.
<mgrwt>
<rscale>  0 0.12502309E+03</rscale>
<asrwt>0</asrwt>
<pdfrwt beam="1">  1        4 0.13388536E+00 0.12502309E+03</pdfrwt>
<pdfrwt beam="2">  1       -4 0.69081324E-03 0.12502309E+03</pdfrwt>
<totfact> 0.35117864E+03</totfact>
</mgrwt>
</event>
<event>
 5    1  0.3225662E-002  0.1249985E+03  0.7818608E-02  0.1235072E+00
         -4   -1    0    0    0  501 -0.00000000000E+00  0.00000000000E+00  0.34587046183E+01  0.36844996453E+01  0.12700000000E+01 0. -1.
          4   -1    0    0  501    0  0.00000000000E+00 -0.00000000000E+00 -0.10934445613E+04  0.10934452988E+04  0.12700000000E+01 0. -1.
         25    2    1    2    0    0  0.00000000000E+00  0.00000000000E+00 -0.10899858567E+04  0.10971297985E+04  0.12499850775E+03 0.  0.
    9000005    1    3    3    0    0  0.15894645032E+02  0.32035335296E+02 -0.99479512246E+03  0.99543821411E+03  0.10000000000E+01 0.  0.
    9000005    1    3    3    0    0 -0.15894645032E+02 -0.32035335296E+02 -0.95190734199E+02  0.10169158434E+03  0.10000000000E+01 0.  0.
<mgrwt>
<rscale>  0 0.12499851E+03</rscale>
<asrwt>0</asrwt>
<pdfrwt beam="2">  1        4 0.16823940E+00 0.12499851E+03</pdfrwt>
<pdfrwt beam="1">  1       -4 0.54953486E-03 0.12499851E+03</pdfrwt>
<totfact> 0.27568489E+03</totfact>
</mgrwt>
</event>
<event>
 5    1  0.3225662E-002  0.1249980E+03  0.7818608E-02  0.1235072E+00
          4   -1    0    0  501    0  0.00000000000E+00  0.00000000000E+00  0.10913200611E+03  0.10913939553E+03  0.12700000000E+01 0. -1.
         -4   -1    0    0    0  501 -0.00000000000E+00 -0.00000000000E+00 -0.35772801577E+02  0.35795338142E+02  0.12700000000E+01 0. -1.
         25    2    1    2    0    0  0.00000000000E+00  0.00000000000E+00  0.73359204532E+02  0.14493473367E+03  0.12499801653E+03 0.  0.
    9000005    1    3    3    0    0  0.51159645100E+02 -0.29748437117E+02  0.59951915273E+02  0.84246726599E+02  0.10000000000E+01 0.  0.
    9000005    1    3    3    0    0 -0.51159645100E+02  0.29748437117E+02  0.13407289258E+02  0.60688007076E+02  0.10000000000E+01 0.  0.
<mgrwt>
<rscale>  0 0.12499802E+03</rscale>
<asrwt>0</asrwt>
<pdfrwt beam="1">  1        4 0.16791841E-01 0.12499802E+03</pdfrwt>
<pdfrwt beam="2">  1       -4 0.55058100E-02 0.12499802E+03</pdfrwt>
<totfact> 0.10032763E+04</totfact>
</mgrwt>
</event>
<event>
 5    1  0.3225662E-002  0.1250033E+03  0.7818608E-02  0.1235064E+00
          4   -1    0    0  501    0  0.00000000000E+00  0.00000000000E+00  0.26782875175E+02  0.26812968926E+02  0.12700000000E+01 0. -1.
         -4   -1    0    0    0  501 -0.00000000000E+00 -0.00000000000E+00 -0.14574182803E+03  0.14574736134E+03  0.12700000000E+01 0. -1.
         25    2    1    2    0    0  0.00000000000E+00  0.00000000000E+00 -0.11895895286E+03  0.17256033027E+03  0.12500334042E+03 0.  0.
    9000005    1    3    3    0    0 -0.65082803789E+01 -0.61908695334E+02 -0.51866407870E+02  0.81031898267E+02  0.10000000000E+01 0.  0.
    9000005    1    3    3    0    0  0.65082803789E+01  0.61908695334E+02 -0.67092544987E+02  0.91528431999E+02  0.10000000000E+01 0.  0.
<mgrwt>
<rscale>  0 0.12500334E+03</rscale>
<asrwt>0</asrwt>
<pdfrwt beam="1">  1        4 0.41231830E-02 0.12500334E+03</pdfrwt>
<pdfrwt beam="2">  1       -4 0.22424560E-01 0.12500334E+03</pdfrwt>
<totfact> 0.94966451E+03</totfact>
</mgrwt>
</event>
<event>
 5    1  0.3225662E-002  0.1249996E+03  0.7818608E-02  0.1235070E+00
          4   -1    0    0  501    0  0.00000000000E+00  0.00000000000E+00  0.96180847513E+01  0.97015696814E+01  0.12700000000E+01 0. -1.
         -4   -1    0    0    0  501 -0.00000000000E+00 -0.00000000000E+00 -0.40429382705E+03  0.40429582176E+03  0.12700000000E+01 0. -1.
         25    2    1    2    0    0  0.00000000000E+00  0.00000000000E+00 -0.39467574230E+03  0.41399739144E+03  0.12499959424E+03 0.  0.
    9000005    1    3    3    0    0 -0.73477755307E+01 -0.55688335316E+02 -0.10663262341E+03  0.12052674753E+03  0.10000000000E+01 0.  0.
    9000005    1    3    3    0    0  0.73477755307E+01  0.55688335316E+02 -0.28804311889E+03  0.29347064391E+03  0.10000000000E+01 0.  0.
<mgrwt>
<rscale>  0 0.12499959E+03</rscale>
<asrwt>0</asrwt>
<pdfrwt beam="1">  1        4 0.14862810E-02 0.12499959E+03</pdfrwt>
<pdfrwt beam="2">  1       -4 0.62205613E-01 0.12499959E+03</pdfrwt>
<totfact> 0.63214384E+03</totfact>
</mgrwt>
</event>
<event>
 5    1  0.3225662E-002  0.1250057E+03  0.7818608E-02  0.1235060E+00
          4   -1    0    0  501    0  0.00000000000E+00  0.00000000000E+00  0.20461182793E+03  0.20461576926E+03  0.12700000000E+01 0. -1.
         -4   -1    0    0    0  501 -0.00000000000E+00 -0.00000000000E+00 -0.19067532153E+02  0.19109779758E+02  0.12700000000E+01 0. -1.
         25    2    1    2    0    0  0.00000000000E+00  0.00000000000E+00  0.18554429578E+03  0.22372554901E+03  0.12500574221E+03 0.  0.
    9000005    1    3    3    0    0  0.44300101178E+02 -0.43253532007E+02  0.77560362040E+02  0.99247049101E+02  0.10000000000E+01 0.  0.
    9000005    1    3    3    0    0 -0.44300101178E+02  0.43253532007E+02  0.10798393374E+03  0.12447849991E+03  0.10000000000E+01 0.  0.
<mgrwt>
<rscale>  0 0.12500574E+03</rscale>
<asrwt>0</asrwt>
<pdfrwt beam="1">  1        4 0.31482293E-01 0.12500574E+03</pdfrwt>
<pdfrwt beam="2">  1       -4 0.29370198E-02 0.12500574E+03</pdfrwt>
<totfact> 0.86271182E+03</totfact>
</mgrwt>
</event>
<event>
 5    1  0.3225662E-002  0.1250122E+03  0.7818608E-02  0.1235050E+00
          4   -1    0    0  501    0  0.00000000000E+00  0.00000000000E+00  0.42353720900E+02  0.42372757452E+02  0.12700000000E+01 0.  1.
         -4   -1    0    0    0  501 -0.00000000000E+00 -0.00000000000E+00 -0.92203049110E+02  0.92211795152E+02  0.12700000000E+01 0.  1.
         25    2    1    2    0    0  0.00000000000E+00  0.00000000000E+00 -0.49849328210E+02  0.13458455260E+03  0.12501218451E+03 0.  0.
    9000005    1    3    3    0    0  0.30693832982E+02  0.37024659469E+02  0.18044900351E+02  0.51376601879E+02  0.10000000000E+01 0.  0.
    9000005    1    3    3    0    0 -0.30693832982E+02 -0.37024659469E+02 -0.67894228561E+02  0.83207950725E+02  0.10000000000E+01 0.  0.
<mgrwt>
<rscale>  0 0.12501218E+03</rscale>
<asrwt>0</asrwt>
<pdfrwt beam="1">  1        4 0.65180942E-02 0.12501218E+03</pdfrwt>
<pdfrwt beam="2">  1       -4 0.14187222E-01 0.12501218E+03</pdfrwt>
<totfact> 0.10244020E+04</totfact>
</mgrwt>
</event>
<event>
 5    1  0.3225662E-002  0.1249998E+03  0.7818608E-02  0.1235070E+00
         -4   -1    0    0    0  501 -0.00000000000E+00  0.00000000000E+00  0.46741121252E+02  0.46758371613E+02  0.12700000000E+01 0. -1.
          4   -1    0    0  501    0  0.00000000000E+00 -0.00000000000E+00 -0.83534278395E+02  0.83543931958E+02  0.12700000000E+01 0. -1.
         25    2    1    2    0    0  0.00000000000E+00  0.00000000000E+00 -0.36793157143E+02  0.13030230357E+03  0.12499981561E+03 0.  0.
    9000005    1    3    3    0    0  0.33523854424E+02 -0.52260324291E+02 -0.25785870522E+02  0.67237648896E+02  0.10000000000E+01 0.  0.
    9000005    1    3    3    0    0 -0.33523854424E+02  0.52260324291E+02 -0.11007286621E+02  0.63064654675E+02  0.10000000000E+01 0.  0.
<mgrwt>
<rscale>  0 0.12499982E+03</rscale>
<asrwt>0</asrwt>
<pdfrwt beam="2">  1        4 0.12853497E-01 0.12499982E+03</pdfrwt>
<pdfrwt beam="1">  1       -4 0.71930113E-02 0.12499982E+03</pdfrwt>
<totfact> 0.10338088E+04</totfact>
</mgrwt>
</event>
<event>
 5    1  0.3225662E-002  0.1249962E+03  0.7818608E-02  0.1235075E+00
         -4   -1    0    0    0  501 -0.00000000000E+00  0.00000000000E+00  0.58116467354E+02  0.58130342143E+02  0.12700000000E+01 0. -1.
          4   -1    0    0  501    0  0.00000000000E+00 -0.00000000000E+00 -0.67182176921E+02  0.67194179776E+02  0.12700000000E+01 0. -1.
         25    2    1    2    0    0  0.00000000000E+00  0.00000000000E+00 -0.90657095673E+01  0.12532452192E+03  0.12499619476E+03 0.  0.
    9000005    1    3    3    0    0 -0.51541623615E+02  0.31648801326E+02 -0.20284837715E+02  0.63801725928E+02  0.10000000000E+01 0.  0.
    9000005    1    3    3    0    0  0.51541623615E+02 -0.31648801326E+02  0.11219128148E+02  0.61522795992E+02  0.10000000000E+01 0.  0.
<mgrwt>
<rscale>  0 0.12499619E+03</rscale>
<asrwt>0</asrwt>
<pdfrwt beam="2">  1        4 0.10337710E-01 0.12499619E+03</pdfrwt>
<pdfrwt beam="1">  1       -4 0.89429856E-02 0.12499619E+03</pdfrwt>
<totfact> 0.10446716E+04</totfact>
</mgrwt>
</event>
<event>
 5    1  0.3225662E-002  0.1249999E+03  0.7818608E-02  0.1235069E+00
         -4   -1    0    0    0  501 -0.00000000000E+00  0.00000000000E+00  0.21160004855E+03  0.21160385972E+03  0.12700000000E+01 0. -1.
          4   -1    0    0  501    0  0.00000000000E+00 -0.00000000000E+00 -0.18434671387E+02  0.18478365976E+02  0.12700000000E+01 0. -1.
         25    2    1    2    0    0  0.00000000000E+00  0.00000000000E+00  0.19316537716E+03  0.23008222569E+03  0.12499987058E+03 0.  0.
    9000005    1    3    3    0    0 -0.46098935876E+02  0.41768723400E+02  0.85615110668E+02  0.10583329022E+03  0.10000000000E+01 0.  0.
    9000005    1    3    3    0    0  0.46098935876E+02 -0.41768723400E+02  0.10755026650E+03  0.12424893548E+03  0.10000000000E+01 0.  0.
<mgrwt>
<rscale>  0 0.12499987E+03</rscale>
<asrwt>0</asrwt>
<pdfrwt beam="2">  1        4 0.28397574E-02 0.12499987E+03</pdfrwt>
<pdfrwt beam="1">  1       -4 0.32557510E-01 0.12499987E+03</pdfrwt>
<totfact> 0.85297216E+03</totfact>
</mgrwt>
</event>
<event>
 5    1  0.3225662E-002  0.1250004E+03  0.7818608E-02  0.1235069E+00
          4   -1    0    0  501    0  0.00000000000E+00  0.00000000000E+00  0.37314665760E+02  0.37336271650E+02  0.12700000000E+01 0. -1.
         -4   -1    0    0    0  501 -0.00000000000E+00 -0.00000000000E+00 -0.10462887806E+03  0.10463658550E+03  0.12700000000E+01 0. -1.
         25    2    1    2    0    0  0.00000000000E+00  0.00000000000E+00 -0.67314212301E+02  0.14197285715E+03  0.12500035595E+03 0.  0.
    9000005    1    3    3    0    0  0.46199708502E+02 -0.31784494618E+02 -0.64980851490E+02  0.85838093083E+02  0.10000000000E+01 0.  0.
    9000005    1    3    3    0    0 -0.46199708502E+02  0.31784494618E+02 -0.23333608108E+01  0.56134764063E+02  0.10000000000E+01 0.  0.
<mgrwt>
<rscale>  0 0.12500036E+03</rscale>
<asrwt>0</asrwt>
<pdfrwt beam="1">  1        4 0.57429727E-02 0.12500036E+03</pdfrwt>
<pdfrwt beam="2">  1       -4 0.16099005E-01 0.12500036E+03</pdfrwt>
<totfact> 0.10092779E+04</totfact>
</mgrwt>
</event>
<event>
 5    1  0.3225662E-002  0.1249993E+03  0.7818608E-02  0.1235070E+00
          4   -1    0    0  501    0  0.00000000000E+00  0.00000000000E+00  0.52897726283E+02  0.52912969543E+02  0.12700000000E+01 0. -1.
         -4   -1    0    0    0  501 -0.00000000000E+00 -0.00000000000E+00 -0.73813131860E+02  0.73824056615E+02  0.12700000000E+01 0. -1.
         25    2    1    2    0    0  0.00000000000E+00  0.00000000000E+00 -0.20915405578E+02  0.12673702616E+03  0.12499927843E+03 0.  0.
    9000005    1    3    3    0    0  0.44869564937E+02  0.37821884268E+02  0.11321898001E+02  0.59774226566E+02  0.10000000000E+01 0.  0.
    9000005    1    3    3    0    0 -0.44869564937E+02 -0.37821884268E+02 -0.32237303578E+02  0.66962799592E+02  0.10000000000E+01 0.  0.
<mgrwt>
<rscale>  0 0.12499928E+03</rscale>
<asrwt>0</asrwt>
<pdfrwt beam="1">  1        4 0.81401246E-02 0.12499928E+03</pdfrwt>
<pdfrwt beam="2">  1       -4 0.11357879E-01 0.12499928E+03</pdfrwt>
<totfact> 0.10415034E+04</totfact>
</mgrwt>
</event>
<event>
 5    1  0.3225662E-002  0.1250006E+03  0.7818608E-02  0.1235068E+00
          4   -1    0    0  501    0  0.00000000000E+00  0.00000000000E+00  0.99117899557E+02  0.99126035493E+02  0.12700000000E+01 0.  1.
         -4   -1    0    0    0  501 -0.00000000000E+00 -0.00000000000E+00 -0.39390505020E+02  0.39410972910E+02  0.12700000000E+01 0.  1.
         25    2    1    2    0    0  0.00000000000E+00  0.00000000000E+00  0.59727394537E+02  0.13853700840E+03  0.12500056416E+03 0.  0.
    9000005    1    3    3    0    0 -0.15927566461E+02  0.16632974392E+02  0.94249037071E+02  0.97026925126E+02  0.10000000000E+01 0.  0.
    9000005    1    3    3    0    0  0.15927566461E+02 -0.16632974392E+02 -0.34521642534E+02  0.41510083278E+02  0.10000000000E+01 0.  0.
<mgrwt>
<rscale>  0 0.12500056E+03</rscale>
<asrwt>0</asrwt>
<pdfrwt beam="1">  1        4 0.15251108E-01 0.12500056E+03</pdfrwt>
<pdfrwt beam="2">  1       -4 0.60622780E-02 0.12500056E+03</pdfrwt>
<totfact> 0.10163868E+04</totfact>
</mgrwt>
</event>
<event>
 5    1  0.3225662E-002  0.1249929E+03  0.7818608E-02  0.1235080E+00
         -4   -1    0    0    0  501 -0.00000000000E+00  0.00000000000E+00  0.12441972505E+03  0.12442620657E+03  0.12700000000E+01 0. -1.
          4   -1    0    0  501    0  0.00000000000E+00 -0.00000000000E+00 -0.31372052501E+02  0.31397747978E+02  0.12700000000E+01 0. -1.
         25    2    1    2    0    0  0.00000000000E+00  0.00000000000E+00  0.93047672550E+02  0.15582395455E+03  0.12499294158E+03 0.  0.
    9000005    1    3    3    0    0 -0.57544914751E+02  0.39669369537E+01  0.16560992949E+02  0.60020165695E+02  0.10000000000E+01 0.  0.
    9000005    1    3    3    0    0  0.57544914751E+02 -0.39669369537E+01  0.76486679601E+02  0.95803788855E+02  0.10000000000E+01 0.  0.
<mgrwt>
<rscale>  0 0.12499294E+03</rscale>
<asrwt>0</asrwt>
<pdfrwt beam="2">  1        4 0.48289447E-02 0.12499294E+03</pdfrwt>
<pdfrwt beam="1">  1       -4 0.19143972E-01 0.12499294E+03</pdfrwt>
<totfact> 0.98169570E+03</totfact>
</mgrwt>
</event>
<event>
 5    1  0.3225662E-002  0.1249957E+03  0.7818608E-02  0.1235076E+00
          4   -1    0    0  501    0  0.00000000000E+00  0.00000000000E+00  0.21032199212E+02  0.21070507913E+02  0.12700000000E+01 0. -1.
         -4   -1    0    0    0  501 -0.00000000000E+00 -0.00000000000E+00 -0.18550487853E+03  0.18550922581E+03  0.12700000000E+01 0. -1.
         25    2    1    2    0    0  0.00000000000E+00  0.00000000000E+00 -0.16447267932E+03  0.20657973372E+03  0.12499569649E+03 0.  0.
    9000005    1    3    3    0    0 -0.20331299853E+01 -0.25536270171E+02 -0.17643626378E+03  0.17828906273E+03  0.10000000000E+01 0.  0.
    9000005    1    3    3    0    0  0.20331299853E+01  0.25536270171E+02  0.11963584463E+02  0.28290670989E+02  0.10000000000E+01 0.  0.
<mgrwt>
<rscale>  0 0.12499570E+03</rscale>
<asrwt>0</asrwt>
<pdfrwt beam="1">  1        4 0.32390043E-02 0.12499570E+03</pdfrwt>
<pdfrwt beam="2">  1       -4 0.28542492E-01 0.12499570E+03</pdfrwt>
<totfact> 0.89046089E+03</totfact>
</mgrwt>
</event>
<event>
 5    1  0.3225662E-002  0.1250015E+03  0.7818608E-02  0.1235067E+00
         -4   -1    0    0    0  501 -0.00000000000E+00  0.00000000000E+00  0.58003366433E+01  0.59377441151E+01  0.12700000000E+01 0. -1.
          4   -1    0    0  501    0  0.00000000000E+00 -0.00000000000E+00 -0.66544713520E+03  0.66544834709E+03  0.12700000000E+01 0. -1.
         25    2    1    2    0    0  0.00000000000E+00  0.00000000000E+00 -0.65964679855E+03  0.67138609120E+03  0.12500153846E+03 0.  0.
    9000005    1    3    3    0    0  0.61683677236E+02  0.97591455872E+01 -0.31754124950E+03  0.32362565117E+03  0.10000000000E+01 0.  0.
    9000005    1    3    3    0    0 -0.61683677236E+02 -0.97591455872E+01 -0.34210554906E+03  0.34776044004E+03  0.10000000000E+01 0.  0.
<mgrwt>
<rscale>  0 0.12500154E+03</rscale>
<asrwt>0</asrwt>
<pdfrwt beam="2">  1        4 0.10238709E+00 0.12500154E+03</pdfrwt>
<pdfrwt beam="1">  1       -4 0.90302304E-03 0.12500154E+03</pdfrwt>
<totfact> 0.44639343E+03</totfact>
</mgrwt>
</event>
<event>
 5    1  0.3225662E-002  0.1250031E+03  0.7818608E-02  0.1235064E+00
         -4   -1    0    0    0  501 -0.00000000000E+00  0.00000000000E+00  0.13219236367E+03  0.13219846411E+03  0.12700000000E+01 0. -1.
          4   -1    0    0  501    0  0.00000000000E+00 -0.00000000000E+00 -0.29530792290E+02  0.29558088457E+02  0.12700000000E+01 0. -1.
         25    2    1    2    0    0  0.00000000000E+00  0.00000000000E+00  0.10266157139E+03  0.16175655257E+03  0.12500313620E+03 0.  0.
    9000005    1    3    3    0    0  0.90256720745E+01  0.57906314514E+02  0.23251983956E+02  0.63057583009E+02  0.10000000000E+01 0.  0.
    9000005    1    3    3    0    0 -0.90256720745E+01 -0.57906314514E+02  0.79409587429E+02  0.98698969562E+02  0.10000000000E+01 0.  0.
<mgrwt>
<rscale>  0 0.12500314E+03</rscale>
<asrwt>0</asrwt>
<pdfrwt beam="2">  1        4 0.45457678E-02 0.12500314E+03</pdfrwt>
<pdfrwt beam="1">  1       -4 0.20339856E-01 0.12500314E+03</pdfrwt>
<totfact> 0.96998364E+03</totfact>
</mgrwt>
</event>
<event>
 5    1  0.3225662E-002  0.1250004E+03  0.7818608E-02  0.1235069E+00
          4   -1    0    0  501    0  0.00000000000E+00  0.00000000000E+00  0.21733260910E+02  0.21770336005E+02  0.12700000000E+01 0.  1.
         -4   -1    0    0    0  501 -0.00000000000E+00 -0.00000000000E+00 -0.17954454007E+03  0.17954903166E+03  0.12700000000E+01 0.  1.
         25    2    1    2    0    0  0.00000000000E+00  0.00000000000E+00 -0.15781127916E+03  0.20131936766E+03  0.12500035186E+03 0.  0.
    9000005    1    3    3    0    0 -0.15309164830E+01  0.12917828633E+02 -0.17734779778E+03  0.17782703782E+03  0.10000000000E+01 0.  0.
    9000005    1    3    3    0    0  0.15309164830E+01 -0.12917828633E+02  0.19536518618E+02  0.23492329845E+02  0.10000000000E+01 0.  0.
<mgrwt>
<rscale>  0 0.12500035E+03</rscale>
<asrwt>0</asrwt>
<pdfrwt beam="1">  1        4 0.33467762E-02 0.12500035E+03</pdfrwt>
<pdfrwt beam="2">  1       -4 0.27625433E-01 0.12500035E+03</pdfrwt>
<totfact> 0.89912753E+03</totfact>
</mgrwt>
</event>
<event>
 5    1  0.3225662E-002  0.1250019E+03  0.7818608E-02  0.1235066E+00
          4   -1    0    0  501    0  0.00000000000E+00  0.00000000000E+00  0.59408618848E+03  0.59408754594E+03  0.12700000000E+01 0.  1.
         -4   -1    0    0    0  501 -0.00000000000E+00 -0.00000000000E+00 -0.65127251202E+01  0.66353966340E+01  0.12700000000E+01 0.  1.
         25    2    1    2    0    0  0.00000000000E+00  0.00000000000E+00  0.58757346336E+03  0.60072294257E+03  0.12500191555E+03 0.  0.
    9000005    1    3    3    0    0  0.81982418605E+01  0.44237976750E+02  0.50222162018E+03  0.50423384013E+03  0.10000000000E+01 0.  0.
    9000005    1    3    3    0    0 -0.81982418605E+01 -0.44237976750E+02  0.85351843182E+02  0.96489102448E+02  0.10000000000E+01 0.  0.
<mgrwt>
<rscale>  0 0.12500192E+03</rscale>
<asrwt>0</asrwt>
<pdfrwt beam="1">  1        4 0.91407420E-01 0.12500192E+03</pdfrwt>
<pdfrwt beam="2">  1       -4 0.10114984E-02 0.12500192E+03</pdfrwt>
<totfact> 0.48819955E+03</totfact>
</mgrwt>
</event>
<event>
 5    1  0.3225662E-002  0.1250002E+03  0.7818608E-02  0.1235069E+00
         -4   -1    0    0    0  501 -0.00000000000E+00  0.00000000000E+00  0.15574760525E+03  0.15575278309E+03  0.12700000000E+01 0.  1.
          4   -1    0    0  501    0  0.00000000000E+00 -0.00000000000E+00 -0.25059030485E+02  0.25091191858E+02  0.12700000000E+01 0.  1.
         25    2    1    2    0    0  0.00000000000E+00  0.00000000000E+00  0.13068857477E+03  0.18084397495E+03  0.12500015881E+03 0.  0.
    9000005    1    3    3    0    0  0.55436251449E+01  0.84142868498E+00 -0.24701459787E+02  0.25349593637E+02  0.10000000000E+01 0.  0.
    9000005    1    3    3    0    0 -0.55436251449E+01 -0.84142868498E+00  0.15539003455E+03  0.15549438132E+03  0.10000000000E+01 0.  0.
<mgrwt>
<rscale>  0 0.12500016E+03</rscale>
<asrwt>0</asrwt>
<pdfrwt beam="2">  1        4 0.38581077E-02 0.12500016E+03</pdfrwt>
<pdfrwt beam="1">  1       -4 0.23964042E-01 0.12500016E+03</pdfrwt>
<totfact> 0.93464972E+03</totfact>
</mgrwt>
</event>
<event>
 5    1  0.3225662E-002  0.1250023E+03  0.7818608E-02  0.1235066E+00
          4   -1    0    0  501    0  0.00000000000E+00  0.00000000000E+00  0.72084055216E+03  0.72084167092E+03  0.12700000000E+01 0.  1.
         -4   -1    0    0    0  501 -0.00000000000E+00 -0.00000000000E+00 -0.53436734622E+01  0.54925172799E+01  0.12700000000E+01 0.  1.
         25    2    1    2    0    0  0.00000000000E+00  0.00000000000E+00  0.71549687870E+03  0.72633418820E+03  0.12500227808E+03 0.  0.
    9000005    1    3    3    0    0  0.75153930052E+01  0.19505213056E+02  0.69995377235E+03  0.70026653347E+03  0.10000000000E+01 0.  0.
    9000005    1    3    3    0    0 -0.75153930052E+01 -0.19505213056E+02  0.15543106346E+02  0.26067654733E+02  0.10000000000E+01 0.  0.
<mgrwt>
<rscale>  0 0.12500228E+03</rscale>
<asrwt>0</asrwt>
<pdfrwt beam="1">  1        4 0.11091002E+00 0.12500228E+03</pdfrwt>
<pdfrwt beam="2">  1       -4 0.83363968E-03 0.12500228E+03</pdfrwt>
<totfact> 0.41730385E+03</totfact>
</mgrwt>
</event>
<event>
 5    1  0.3225662E-002  0.1250047E+03  0.7818608E-02  0.1235062E+00
          4   -1    0    0  501    0  0.00000000000E+00  0.00000000000E+00  0.79574198701E+02  0.79584332622E+02  0.12700000000E+01 0. -1.
         -4   -1    0    0    0  501 -0.00000000000E+00 -0.00000000000E+00 -0.49071621992E+02  0.49088053383E+02  0.12700000000E+01 0. -1.
         25    2    1    2    0    0  0.00000000000E+00  0.00000000000E+00  0.30502576709E+02  0.12867238600E+03  0.12500470285E+03 0.  0.
    9000005    1    3    3    0    0  0.23182003035E+02 -0.93490448382E+01  0.74209528794E+02  0.78312604783E+02  0.10000000000E+01 0.  0.
    9000005    1    3    3    0    0 -0.23182003035E+02  0.93490448382E+01 -0.43706952085E+02  0.50359781222E+02  0.10000000000E+01 0.  0.
<mgrwt>
<rscale>  0 0.12500470E+03</rscale>
<asrwt>0</asrwt>
<pdfrwt beam="1">  1        4 0.12244228E-01 0.12500470E+03</pdfrwt>
<pdfrwt beam="2">  1       -4 0.75515238E-02 0.12500470E+03</pdfrwt>
<totfact> 0.10371891E+04</totfact>
</mgrwt>
</event>
<event>
 5    1  0.3225662E-002  0.1249975E+03  0.7818608E-02  0.1235073E+00
          4   -1    0    0  501    0  0.00000000000E+00  0.00000000000E+00  0.19789790641E+02  0.19830499580E+02  0.12700000000E+01 0. -1.
         -4   -1    0    0    0  501 -0.00000000000E+00 -0.00000000000E+00 -0.19713364760E+03  0.19713773843E+03  0.12700000000E+01 0. -1.
         25    2    1    2    0    0  0.00000000000E+00  0.00000000000E+00 -0.17734385695E+03  0.21696823801E+03  0.12499749080E+03 0.  0.
    9000005    1    3    3    0    0 -0.27155673832E+02 -0.29256477951E+02 -0.52149646166E+01  0.40268697264E+02  0.10000000000E+01 0.  0.
    9000005    1    3    3    0    0  0.27155673832E+02  0.29256477951E+02 -0.17212889234E+03  0.17669954075E+03  0.10000000000E+01 0.  0.
<mgrwt>
<rscale>  0 0.12499749E+03</rscale>
<asrwt>0</asrwt>
<pdfrwt beam="1">  1        4 0.30480295E-02 0.12499749E+03</pdfrwt>
<pdfrwt beam="2">  1       -4 0.30331698E-01 0.12499749E+03</pdfrwt>
<totfact> 0.87355269E+03</totfact>
</mgrwt>
</event>
<event>
 5    1  0.3225662E-002  0.1249981E+03  0.7818608E-02  0.1235072E+00
         -4   -1    0    0    0  501 -0.00000000000E+00  0.00000000000E+00  0.19354582268E+02  0.19396204649E+02  0.12700000000E+01 0.  1.
          4   -1    0    0  501    0  0.00000000000E+00 -0.00000000000E+00 -0.20155895018E+03  0.20156295120E+03  0.12700000000E+01 0.  1.
         25    2    1    2    0    0  0.00000000000E+00  0.00000000000E+00 -0.18220436791E+03  0.22095915585E+03  0.12499806746E+03 0.  0.
    9000005    1    3    3    0    0 -0.60728318908E+02  0.76767476367E+01 -0.11334067537E+03  0.12881758368E+03  0.10000000000E+01 0.  0.
    9000005    1    3    3    0    0  0.60728318908E+02 -0.76767476367E+01 -0.68863692540E+02  0.92141572170E+02  0.10000000000E+01 0.  0.
<mgrwt>
<rscale>  0 0.12499807E+03</rscale>
<asrwt>0</asrwt>
<pdfrwt beam="2">  1        4 0.31012577E-01 0.12499807E+03</pdfrwt>
<pdfrwt beam="1">  1       -4 0.29811377E-02 0.12499807E+03</pdfrwt>
<totfact> 0.86720547E+03</totfact>
</mgrwt>
</event>
<event>
 5    1  0.3225662E-002  0.1250029E+03  0.7818608E-02  0.1235065E+00
          4   -1    0    0  501    0  0.00000000000E+00  0.00000000000E+00  0.15761135265E+02  0.15812219478E+02  0.12700000000E+01 0. -1.
         -4   -1    0    0    0  501 -0.00000000000E+00 -0.00000000000E+00 -0.24739857912E+03  0.24740183882E+03  0.12700000000E+01 0. -1.
         25    2    1    2    0    0  0.00000000000E+00  0.00000000000E+00 -0.23163744386E+03  0.26321405830E+03  0.12500294032E+03 0.  0.
    9000005    1    3    3    0    0 -0.50088917047E+02  0.19080977195E+02 -0.48160050437E+02  0.72065066154E+02  0.10000000000E+01 0.  0.
    9000005    1    3    3    0    0  0.50088917047E+02 -0.19080977195E+02 -0.18347739342E+03  0.19114899214E+03  0.10000000000E+01 0.  0.
<mgrwt>
<rscale>  0 0.12500294E+03</rscale>
<asrwt>0</asrwt>
<pdfrwt beam="1">  1        4 0.24289705E-02 0.12500294E+03</pdfrwt>
<pdfrwt beam="2">  1       -4 0.38065497E-01 0.12500294E+03</pdfrwt>
<totfact> 0.80451855E+03</totfact>
</mgrwt>
</event>
<event>
 5    1  0.3225662E-002  0.1250021E+03  0.7818608E-02  0.1235066E+00
         -4   -1    0    0    0  501 -0.00000000000E+00  0.00000000000E+00  0.43350908409E+03  0.43351094437E+03  0.12700000000E+01 0. -1.
          4   -1    0    0  501    0  0.00000000000E+00 -0.00000000000E+00 -0.89644403298E+01  0.90539544082E+01  0.12700000000E+01 0. -1.
         25    2    1    2    0    0  0.00000000000E+00  0.00000000000E+00  0.42454464376E+03  0.44256489878E+03  0.12500214032E+03 0.  0.
    9000005    1    3    3    0    0 -0.31246141104E+02  0.31293953473E+02  0.55939890363E+02  0.71315525601E+02  0.10000000000E+01 0.  0.
    9000005    1    3    3    0    0  0.31246141104E+02 -0.31293953473E+02  0.36860475340E+03  0.37124937318E+03  0.10000000000E+01 0.  0.
<mgrwt>
<rscale>  0 0.12500214E+03</rscale>
<asrwt>0</asrwt>
<pdfrwt beam="2">  1        4 0.13861738E-02 0.12500214E+03</pdfrwt>
<pdfrwt beam="1">  1       -4 0.66700720E-01 0.12500214E+03</pdfrwt>
<totfact> 0.60610488E+03</totfact>
</mgrwt>
</event>
<event>
 5    1  0.3225662E-002  0.1250036E+03  0.7818608E-02  0.1235064E+00
         -4   -1    0    0    0  501 -0.00000000000E+00  0.00000000000E+00  0.30121207913E+03  0.30121475647E+03  0.12700000000E+01 0. -1.
          4   -1    0    0  501    0  0.00000000000E+00 -0.00000000000E+00 -0.12935354043E+02  0.12997549162E+02  0.12700000000E+01 0. -1.
         25    2    1    2    0    0  0.00000000000E+00  0.00000000000E+00  0.28827672509E+03  0.31421230563E+03  0.12500361108E+03 0.  0.
    9000005    1    3    3    0    0 -0.47515427538E+02 -0.58367330959E+01  0.43164026599E+02  0.64466398221E+02  0.10000000000E+01 0.  0.
    9000005    1    3    3    0    0  0.47515427538E+02  0.58367330959E+01  0.24511269849E+03  0.24974590741E+03  0.10000000000E+01 0.  0.
<mgrwt>
<rscale>  0 0.12500361E+03</rscale>
<asrwt>0</asrwt>
<pdfrwt beam="2">  1        4 0.19950446E-02 0.12500361E+03</pdfrwt>
<pdfrwt beam="1">  1       -4 0.46345311E-01 0.12500361E+03</pdfrwt>
<totfact> 0.73843908E+03</totfact>
</mgrwt>
</event>
<event>
 5    1  0.3225662E-002  0.1250011E+03  0.7818608E-02  0.1235068E+00
         -4   -1    0    0    0  501 -0.00000000000E+00  0.00000000000E+00  0.71420928446E+01  0.72541291828E+01  0.12700000000E+01 0.  1.
          4   -1    0    0  501    0  0.00000000000E+00 -0.00000000000E+00 -0.54257407182E+03  0.54257555816E+03  0.12700000000E+01 0.  1.
         25    2    1    2    0    0  0.00000000000E+00  0.00000000000E+00 -0.53543197898E+03  0.54982968735E+03  0.12500112389E+03 0.  0.
    9000005    1    3    3    0    0 -0.59390242310E+02  0.69169718872E+01 -0.34765375919E+03  0.35275938210E+03  0.10000000000E+01 0.  0.
    9000005    1    3    3    0    0  0.59390242310E+02 -0.69169718872E+01 -0.18777821979E+03  0.19707030525E+03  0.10000000000E+01 0.  0.
<mgrwt>
<rscale>  0 0.12500112E+03</rscale>
<asrwt>0</asrwt>
<pdfrwt beam="2">  1        4 0.83481635E-01 0.12500112E+03</pdfrwt>
<pdfrwt beam="1">  1       -4 0.11075165E-02 0.12500112E+03</pdfrwt>
<totfact> 0.52194528E+03</totfact>
</mgrwt>
</event>
<event>
 5    1  0.3225662E-002  0.1249995E+03  0.7818608E-02  0.1235070E+00
          4   -1    0    0  501    0  0.00000000000E+00  0.00000000000E+00  0.30459650876E+02  0.30486115388E+02  0.12700000000E+01 0. -1.
         -4   -1    0    0    0  501 -0.00000000000E+00 -0.00000000000E+00 -0.12815711772E+03  0.12816341023E+03  0.12700000000E+01 0. -1.
         25    2    1    2    0    0  0.00000000000E+00  0.00000000000E+00 -0.97697466842E+02  0.15864952562E+03  0.12499950780E+03 0.  0.
    9000005    1    3    3    0    0 -0.20264277977E+02  0.35079781195E+02  0.11541604683E+02  0.42135978086E+02  0.10000000000E+01 0.  0.
    9000005    1    3    3    0    0  0.20264277977E+02 -0.35079781195E+02 -0.10923907153E+03  0.11651354753E+03  0.10000000000E+01 0.  0.
<mgrwt>
<rscale>  0 0.12499951E+03</rscale>
<asrwt>0</asrwt>
<pdfrwt beam="1">  1        4 0.46886200E-02 0.12499951E+03</pdfrwt>
<pdfrwt beam="2">  1       -4 0.19718999E-01 0.12499951E+03</pdfrwt>
<totfact> 0.97604859E+03</totfact>
</mgrwt>
</event>
<event>
 5    1  0.3225662E-002  0.1249979E+03  0.7818608E-02  0.1235073E+00
         -4   -1    0    0    0  501 -0.00000000000E+00  0.00000000000E+00  0.17665867286E+02  0.17711458635E+02  0.12700000000E+01 0.  1.
          4   -1    0    0  501    0  0.00000000000E+00 -0.00000000000E+00 -0.22077858202E+03  0.22078223474E+03  0.12700000000E+01 0.  1.
         25    2    1    2    0    0  0.00000000000E+00  0.00000000000E+00 -0.20311271473E+03  0.23849369338E+03  0.12499786756E+03 0.  0.
    9000005    1    3    3    0    0 -0.45696165412E+02  0.40143699796E+02 -0.12890517314E+03  0.14253841528E+03  0.10000000000E+01 0.  0.
    9000005    1    3    3    0    0  0.45696165412E+02 -0.40143699796E+02 -0.74207541593E+02  0.95955278104E+02  0.10000000000E+01 0.  0.
<mgrwt>
<rscale>  0 0.12499787E+03</rscale>
<asrwt>0</asrwt>
<pdfrwt beam="2">  1        4 0.33969722E-01 0.12499787E+03</pdfrwt>
<pdfrwt beam="1">  1       -4 0.27216139E-02 0.12499787E+03</pdfrwt>
<totfact> 0.84026214E+03</totfact>
</mgrwt>
</event>
<event>
 5    1  0.3225662E-002  0.1249975E+03  0.7818608E-02  0.1235073E+00
         -4   -1    0    0    0  501 -0.00000000000E+00  0.00000000000E+00  0.27928127272E+01  0.30680128632E+01  0.12700000000E+01 0. -1.
          4   -1    0    0  501    0  0.00000000000E+00 -0.00000000000E+00 -0.13326736110E+04  0.13326742161E+04  0.12700000000E+01 0. -1.
         25    2    1    2    0    0  0.00000000000E+00  0.00000000000E+00 -0.13298807983E+04  0.13357422290E+04  0.12499745885E+03 0.  0.
    9000005    1    3    3    0    0  0.38727381934E+02 -0.43739141487E+02 -0.90201138754E+03  0.90390180100E+03  0.10000000000E+01 0.  0.
    9000005    1    3    3    0    0 -0.38727381934E+02  0.43739141487E+02 -0.42786941073E+03  0.43184042799E+03  0.10000000000E+01 0.  0.
<mgrwt>
<rscale>  0 0.12499746E+03</rscale>
<asrwt>0</asrwt>
<pdfrwt beam="2">  1        4 0.20504744E+00 0.12499746E+03</pdfrwt>
<pdfrwt beam="1">  1       -4 0.45088035E-03 0.12499746E+03</pdfrwt>
<totfact> 0.21401585E+03</totfact>
</mgrwt>
</event>
<event>
 5    1  0.3225662E-002  0.1249967E+03  0.7818608E-02  0.1235074E+00
          4   -1    0    0  501    0  0.00000000000E+00  0.00000000000E+00  0.16900953375E+02  0.16948602449E+02  0.12700000000E+01 0. -1.
         -4   -1    0    0    0  501 -0.00000000000E+00 -0.00000000000E+00 -0.23073897039E+03  0.23074246544E+03  0.12700000000E+01 0. -1.
         25    2    1    2    0    0  0.00000000000E+00  0.00000000000E+00 -0.21383801702E+03  0.24769106789E+03  0.12499667032E+03 0.  0.
    9000005    1    3    3    0    0 -0.41250430631E+02  0.26884214307E+02 -0.18316954969E+03  0.18967457115E+03  0.10000000000E+01 0.  0.
    9000005    1    3    3    0    0  0.41250430631E+02 -0.26884214307E+02 -0.30668467328E+02  0.58016496744E+02  0.10000000000E+01 0.  0.
<mgrwt>
<rscale>  0 0.12499667E+03</rscale>
<asrwt>0</asrwt>
<pdfrwt beam="1">  1        4 0.26040810E-02 0.12499667E+03</pdfrwt>
<pdfrwt beam="2">  1       -4 0.35502235E-01 0.12499667E+03</pdfrwt>
<totfact> 0.82671223E+03</totfact>
</mgrwt>
</event>
<event>
 5    1  0.3225662E-002  0.1250054E+03  0.7818608E-02  0.1235061E+00
         -4   -1    0    0    0  501 -0.00000000000E+00  0.00000000000E+00  0.70273785113E+02  0.70285260006E+02  0.12700000000E+01 0.  1.
          4   -1    0    0  501    0  0.00000000000E+00 -0.00000000000E+00 -0.55567653242E+02  0.55582164287E+02  0.12700000000E+01 0.  1.
         25    2    1    2    0    0  0.00000000000E+00  0.00000000000E+00  0.14706131871E+02  0.12586742429E+03  0.12500535262E+03 0.  0.
    9000005    1    3    3    0    0 -0.56828900025E+02 -0.14139801109E+02  0.29323872487E+02  0.65500743134E+02  0.10000000000E+01 0.  0.
    9000005    1    3    3    0    0  0.56828900025E+02  0.14139801109E+02 -0.14617740615E+02  0.60366681159E+02  0.10000000000E+01 0.  0.
<mgrwt>
<rscale>  0 0.12500535E+03</rscale>
<asrwt>0</asrwt>
<pdfrwt beam="2">  1        4 0.85508686E-02 0.12500535E+03</pdfrwt>
<pdfrwt beam="1">  1       -4 0.10813350E-01 0.12500535E+03</pdfrwt>
<totfact> 0.10432604E+04</totfact>
</mgrwt>
</event>
<event>
 5    1  0.3225662E-002  0.1249985E+03  0.7818608E-02  0.1235072E+00
          4   -1    0    0  501    0  0.00000000000E+00  0.00000000000E+00  0.41244219947E+02  0.41263768357E+02  0.12700000000E+01 0. -1.
         -4   -1    0    0    0  501 -0.00000000000E+00 -0.00000000000E+00 -0.94661673987E+02  0.94670192891E+02  0.12700000000E+01 0. -1.
         25    2    1    2    0    0  0.00000000000E+00  0.00000000000E+00 -0.53417454041E+02  0.13593396125E+03  0.12499846969E+03 0.  0.
    9000005    1    3    3    0    0 -0.57141654718E+02  0.24010429804E+02 -0.35373526975E+02  0.71371954254E+02  0.10000000000E+01 0.  0.
    9000005    1    3    3    0    0  0.57141654718E+02 -0.24010429804E+02 -0.18043927065E+02  0.64562006995E+02  0.10000000000E+01 0.  0.
<mgrwt>
<rscale>  0 0.12499847E+03</rscale>
<asrwt>0</asrwt>
<pdfrwt beam="1">  1        4 0.63474236E-02 0.12499847E+03</pdfrwt>
<pdfrwt beam="2">  1       -4 0.14565493E-01 0.12499847E+03</pdfrwt>
<totfact> 0.10218775E+04</totfact>
</mgrwt>
</event>
<event>
 5    1  0.3225662E-002  0.1250008E+03  0.7818608E-02  0.1235068E+00
         -4   -1    0    0    0  501 -0.00000000000E+00  0.00000000000E+00  0.23820269898E+02  0.23854101492E+02  0.12700000000E+01 0.  1.
          4   -1    0    0  501    0  0.00000000000E+00 -0.00000000000E+00 -0.16383783421E+03  0.16384275638E+03  0.12700000000E+01 0.  1.
         25    2    1    2    0    0  0.00000000000E+00  0.00000000000E+00 -0.14001756431E+03  0.18769685787E+03  0.12500076856E+03 0.  0.
    9000005    1    3    3    0    0 -0.20205086002E+02  0.48900764967E+02 -0.20077091294E+02  0.56600529234E+02  0.10000000000E+01 0.  0.
    9000005    1    3    3    0    0  0.20205086002E+02 -0.48900764967E+02 -0.11994047302E+03  0.13109632864E+03  0.10000000000E+01 0.  0.
<mgrwt>
<rscale>  0 0.12500077E+03</rscale>
<asrwt>0</asrwt>
<pdfrwt beam="2">  1        4 0.25208801E-01 0.12500077E+03</pdfrwt>
<pdfrwt beam="1">  1       -4 0.36676381E-02 0.12500077E+03</pdfrwt>
<totfact> 0.92248017E+03</totfact>
</mgrwt>
</event>
<event>
 5    1  0.3225662E-002  0.1249983E+03  0.7818608E-02  0.1235072E+00
         -4   -1    0    0    0  501 -0.00000000000E+00  0.00000000000E+00  0.12126344563E+03  0.12127009584E+03  0.12700000000E+01 0. -1.
          4   -1    0    0  501    0  0.00000000000E+00 -0.00000000000E+00 -0.32191973932E+02  0.32217015468E+02  0.12700000000E+01 0. -1.
         25    2    1    2    0    0  0.00000000000E+00  0.00000000000E+00  0.89071471696E+02  0.15348711131E+03  0.12499826506E+03 0.  0.
    9000005    1    3    3    0    0 -0.50254195940E+02  0.11653915304E+02  0.12294619752E+01  0.51612106411E+02  0.10000000000E+01 0.  0.
    9000005    1    3    3    0    0  0.50254195940E+02 -0.11653915304E+02  0.87842009721E+02  0.10187500490E+03  0.10000000000E+01 0.  0.
<mgrwt>
<rscale>  0 0.12499827E+03</rscale>
<asrwt>0</asrwt>
<pdfrwt beam="2">  1        4 0.49550491E-02 0.12499827E+03</pdfrwt>
<pdfrwt beam="1">  1       -4 0.18658353E-01 0.12499827E+03</pdfrwt>
<totfact> 0.98616930E+03</totfact>
</mgrwt>
</event>
<event>
 5    1  0.3225662E-002  0.1250008E+03  0.7818608E-02  0.1235068E+00
         -4   -1    0    0    0  501 -0.00000000000E+00  0.00000000000E+00  0.25177652261E+02  0.25209662302E+02  0.12700000000E+01 0. -1.
          4   -1    0    0  501    0  0.00000000000E+00 -0.00000000000E+00 -0.15501624571E+03  0.15502144798E+03  0.12700000000E+01 0. -1.
         25    2    1    2    0    0  0.00000000000E+00  0.00000000000E+00 -0.12983859345E+03  0.18023111028E+03  0.12500077106E+03 0.  0.
    9000005    1    3    3    0    0 -0.16961964973E+02 -0.12056924538E+02 -0.14988051182E+03  0.15132166239E+03  0.10000000000E+01 0.  0.
    9000005    1    3    3    0    0  0.16961964973E+02  0.12056924538E+02  0.20041918375E+02  0.28909447889E+02  0.10000000000E+01 0.  0.
<mgrwt>
<rscale>  0 0.12500077E+03</rscale>
<asrwt>0</asrwt>
<pdfrwt beam="2">  1        4 0.23851515E-01 0.12500077E+03</pdfrwt>
<pdfrwt beam="1">  1       -4 0.38763475E-02 0.12500077E+03</pdfrwt>
<totfact> 0.93573801E+03</totfact>
</mgrwt>
</event>
<event>
 5    1  0.3225662E-002  0.1249889E+03  0.7818608E-02  0.1235087E+00
         -4   -1    0    0    0  501 -0.00000000000E+00  0.00000000000E+00  0.97280247729E+02  0.97288537343E+02  0.12700000000E+01 0.  1.
          4   -1    0    0  501    0  0.00000000000E+00 -0.00000000000E+00 -0.40127422125E+02  0.40147514324E+02  0.12700000000E+01 0.  1.
         25    2    1    2    0    0  0.00000000000E+00  0.00000000000E+00  0.57152825604E+02  0.13743605167E+03  0.12498889080E+03 0.  0.
    9000005    1    3    3    0    0  0.21685851055E+02  0.55942485063E+02  0.47770977355E+02  0.76700091580E+02  0.10000000000E+01 0.  0.
    9000005    1    3    3    0    0 -0.21685851055E+02 -0.55942485063E+02  0.93818482495E+01  0.60735960086E+02  0.10000000000E+01 0.  0.
<mgrwt>
<rscale>  0 0.12498889E+03</rscale>
<asrwt>0</asrwt>
<pdfrwt beam="2">  1        4 0.61756328E-02 0.12498889E+03</pdfrwt>
<pdfrwt beam="1">  1       -4 0.14968375E-01 0.12498889E+03</pdfrwt>
<totfact> 0.10189528E+04</totfact>
</mgrwt>
</event>
<event>
 5    1  0.3225662E-002  0.1249906E+03  0.7818608E-02  0.1235084E+00
          4   -1    0    0  501    0  0.00000000000E+00  0.00000000000E+00  0.11083308926E+03  0.11084036528E+03  0.12700000000E+01 0.  1.
         -4   -1    0    0    0  501 -0.00000000000E+00 -0.00000000000E+00 -0.35219279305E+02  0.35242169836E+02  0.12700000000E+01 0.  1.
         25    2    1    2    0    0  0.00000000000E+00  0.00000000000E+00  0.75613809957E+02  0.14608253512E+03  0.12499063489E+03 0.  0.
    9000005    1    3    3    0    0  0.13840077619E+02 -0.48767630104E+02  0.80507571057E+02  0.95143567791E+02  0.10000000000E+01 0.  0.
    9000005    1    3    3    0    0 -0.13840077619E+02  0.48767630104E+02 -0.48937611005E+01  0.50938967325E+02  0.10000000000E+01 0.  0.
<mgrwt>
<rscale>  0 0.12499063E+03</rscale>
<asrwt>0</asrwt>
<pdfrwt beam="1">  1        4 0.17053565E-01 0.12499063E+03</pdfrwt>
<pdfrwt beam="2">  1       -4 0.54206712E-02 0.12499063E+03</pdfrwt>
<totfact> 0.10011151E+04</totfact>
</mgrwt>
</event>
<event>
 5    1  0.3225662E-002  0.1250060E+03  0.7818608E-02  0.1235060E+00
         -4   -1    0    0    0  501 -0.00000000000E+00  0.00000000000E+00  0.10131502843E+03  0.10132298794E+03  0.12700000000E+01 0.  1.
          4   -1    0    0  501    0  0.00000000000E+00 -0.00000000000E+00 -0.38539222750E+02  0.38560142508E+02  0.12700000000E+01 0.  1.
         25    2    1    2    0    0  0.00000000000E+00  0.00000000000E+00  0.62775805677E+02  0.13988313045E+03  0.12500595348E+03 0.  0.
    9000005    1    3    3    0    0 -0.53082766878E+02  0.27514374858E+02  0.51740420642E+02  0.79075230581E+02  0.10000000000E+01 0.  0.
    9000005    1    3    3    0    0  0.53082766878E+02 -0.27514374858E+02  0.11035385035E+02  0.60807899866E+02  0.10000000000E+01 0.  0.
<mgrwt>
<rscale>  0 0.12500595E+03</rscale>
<asrwt>0</asrwt>
<pdfrwt beam="2">  1        4 0.59313327E-02 0.12500595E+03</pdfrwt>
<pdfrwt beam="1">  1       -4 0.15589149E-01 0.12500595E+03</pdfrwt>
<totfact> 0.10134649E+04</totfact>
</mgrwt>
</event>
<event>
 5    1  0.3225662E-002  0.1250023E+03  0.7818608E-02  0.1235066E+00
          4   -1    0    0  501    0  0.00000000000E+00  0.00000000000E+00  0.13840500668E+03  0.13841083330E+03  0.12700000000E+01 0.  1.
         -4   -1    0    0    0  501 -0.00000000000E+00 -0.00000000000E+00 -0.28203664306E+02  0.28232243628E+02  0.12700000000E+01 0.  1.
         25    2    1    2    0    0  0.00000000000E+00  0.00000000000E+00  0.11020134237E+03  0.16664307692E+03  0.12500231688E+03 0.  0.
    9000005    1    3    3    0    0 -0.22161039924E+02  0.56907702998E+02  0.37425066895E+02  0.71632632111E+02  0.10000000000E+01 0.  0.
    9000005    1    3    3    0    0  0.22161039924E+02 -0.56907702998E+02  0.72776275477E+02  0.95010444812E+02  0.10000000000E+01 0.  0.
<mgrwt>
<rscale>  0 0.12500232E+03</rscale>
<asrwt>0</asrwt>
<pdfrwt beam="1">  1        4 0.21295724E-01 0.12500232E+03</pdfrwt>
<pdfrwt beam="2">  1       -4 0.43416720E-02 0.12500232E+03</pdfrwt>
<totfact> 0.96072122E+03</totfact>
</mgrwt>
</event>
<event>
 5    1  0.3225662E-002  0.1250011E+03  0.7818608E-02  0.1235068E+00
         -4   -1    0    0    0  501 -0.00000000000E+00  0.00000000000E+00  0.20933029217E+02  0.20971519072E+02  0.12700000000E+01 0. -1.
          4   -1    0    0  501    0  0.00000000000E+00 -0.00000000000E+00 -0.18639814376E+03  0.18640247020E+03  0.12700000000E+01 0. -1.
         25    2    1    2    0    0  0.00000000000E+00  0.00000000000E+00 -0.16546511454E+03  0.20737398927E+03  0.12500106918E+03 0.  0.
    9000005    1    3    3    0    0  0.53022344481E+01  0.14095802707E+02 -0.18335077319E+03  0.18397095252E+03  0.10000000000E+01 0.  0.
    9000005    1    3    3    0    0 -0.53022344481E+01 -0.14095802707E+02  0.17885658643E+02  0.23403036751E+02  0.10000000000E+01 0.  0.
<mgrwt>
<rscale>  0 0.12500107E+03</rscale>
<asrwt>0</asrwt>
<pdfrwt beam="2">  1        4 0.28679930E-01 0.12500107E+03</pdfrwt>
<pdfrwt beam="1">  1       -4 0.32237597E-02 0.12500107E+03</pdfrwt>
<totfact> 0.88904421E+03</totfact>
</mgrwt>
</event>
<event>
 5    1  0.3225662E-002  0.1250007E+03  0.7818608E-02  0.1235068E+00
          4   -1    0    0  501    0  0.00000000000E+00  0.00000000000E+00  0.44097306223E+01  0.45889676574E+01  0.12700000000E+01 0.  1.
         -4   -1    0    0    0  501 -0.00000000000E+00 -0.00000000000E+00 -0.86801086694E+03  0.86801179602E+03  0.12700000000E+01 0.  1.
         25    2    1    2    0    0  0.00000000000E+00  0.00000000000E+00 -0.86360113632E+03  0.87260076367E+03  0.12500068047E+03 0.  0.
    9000005    1    3    3    0    0 -0.12841565070E+02  0.57556369771E+02 -0.28744020195E+03  0.29342888609E+03  0.10000000000E+01 0.  0.
    9000005    1    3    3    0    0  0.12841565070E+02 -0.57556369771E+02 -0.57616093436E+03  0.57917187758E+03  0.10000000000E+01 0.  0.
<mgrwt>
<rscale>  0 0.12500068E+03</rscale>
<asrwt>0</asrwt>
<pdfrwt beam="1">  1        4 0.69227972E-03 0.12500068E+03</pdfrwt>
<pdfrwt beam="2">  1       -4 0.13355386E+00 0.12500068E+03</pdfrwt>
<totfact> 0.35219418E+03</totfact>
</mgrwt>
</event>
<event>
 5    1  0.3225662E-002  0.1250002E+03  0.7818608E-02  0.1235069E+00
         -4   -1    0    0    0  501 -0.00000000000E+00  0.00000000000E+00  0.31241391056E+01  0.33724093985E+01  0.12700000000E+01 0.  1.
          4   -1    0    0  501    0  0.00000000000E+00 -0.00000000000E+00 -0.12023174016E+04  0.12023180724E+04  0.12700000000E+01 0.  1.
         25    2    1    2    0    0  0.00000000000E+00  0.00000000000E+00 -0.11991932625E+04  0.12056904818E+04  0.12500022783E+03 0.  0.
    9000005    1    3    3    0    0 -0.48473409550E+02  0.24163543218E+02 -0.29892344392E+03  0.30379231981E+03  0.10000000000E+01 0.  0.
    9000005    1    3    3    0    0  0.48473409550E+02 -0.24163543218E+02 -0.90026981861E+03  0.90189816196E+03  0.10000000000E+01 0.  0.
<mgrwt>
<rscale>  0 0.12500023E+03</rscale>
<asrwt>0</asrwt>
<pdfrwt beam="2">  1        4 0.18499070E+00 0.12500023E+03</pdfrwt>
<pdfrwt beam="1">  1       -4 0.49978705E-03 0.12500023E+03</pdfrwt>
<totfact> 0.24564222E+03</totfact>
</mgrwt>
</event>
<event>
 5    1  0.3225662E-002  0.1250098E+03  0.7818608E-02  0.1235054E+00
          4   -1    0    0  501    0  0.00000000000E+00  0.00000000000E+00  0.15507331992E+02  0.15559249517E+02  0.12700000000E+01 0.  1.
         -4   -1    0    0    0  501 -0.00000000000E+00 -0.00000000000E+00 -0.25146195230E+03  0.25146515932E+03  0.12700000000E+01 0.  1.
         25    2    1    2    0    0  0.00000000000E+00  0.00000000000E+00 -0.23595462031E+03  0.26702440884E+03  0.12500980791E+03 0.  0.
    9000005    1    3    3    0    0 -0.22725472519E+02  0.15573974801E+02  0.18473163905E+01  0.27629845642E+02  0.10000000000E+01 0.  0.
    9000005    1    3    3    0    0  0.22725472519E+02 -0.15573974801E+02 -0.23780193670E+03  0.23939456320E+03  0.10000000000E+01 0.  0.
<mgrwt>
<rscale>  0 0.12500981E+03</rscale>
<asrwt>0</asrwt>
<pdfrwt beam="1">  1        4 0.23899839E-02 0.12500981E+03</pdfrwt>
<pdfrwt beam="2">  1       -4 0.38690692E-01 0.12500981E+03</pdfrwt>
<totfact> 0.79912843E+03</totfact>
</mgrwt>
</event>
<event>
 5    1  0.3225662E-002  0.1249975E+03  0.7818608E-02  0.1235073E+00
         -4   -1    0    0    0  501 -0.00000000000E+00  0.00000000000E+00  0.39638368590E+02  0.39658708558E+02  0.12700000000E+01 0.  1.
          4   -1    0    0  501    0  0.00000000000E+00 -0.00000000000E+00 -0.98493578804E+02  0.98501766307E+02  0.12700000000E+01 0.  1.
         25    2    1    2    0    0  0.00000000000E+00  0.00000000000E+00 -0.58855210214E+02  0.13816047486E+03  0.12499752416E+03 0.  0.
    9000005    1    3    3    0    0 -0.51737041473E+02  0.33201414134E+02 -0.17018615177E+02  0.63794111197E+02  0.10000000000E+01 0.  0.
    9000005    1    3    3    0    0  0.51737041473E+02 -0.33201414134E+02 -0.41836595037E+02  0.74366363668E+02  0.10000000000E+01 0.  0.
<mgrwt>
<rscale>  0 0.12499752E+03</rscale>
<asrwt>0</asrwt>
<pdfrwt beam="2">  1        4 0.15155053E-01 0.12499752E+03</pdfrwt>
<pdfrwt beam="1">  1       -4 0.61004050E-02 0.12499752E+03</pdfrwt>
<totfact> 0.10172421E+04</totfact>
</mgrwt>
</event>
<event>
 5    1  0.3225662E-002  0.1249972E+03  0.7818608E-02  0.1235074E+00
          4   -1    0    0  501    0  0.00000000000E+00  0.00000000000E+00  0.21253701076E+03  0.21254080512E+03  0.12700000000E+01 0. -1.
         -4   -1    0    0    0  501 -0.00000000000E+00 -0.00000000000E+00 -0.18352439140E+02  0.18396329047E+02  0.12700000000E+01 0. -1.
         25    2    1    2    0    0  0.00000000000E+00  0.00000000000E+00  0.19418457162E+03  0.23093713417E+03  0.12499724830E+03 0.  0.
    9000005    1    3    3    0    0  0.24184536346E+02 -0.56377203153E+02  0.75092060549E+02  0.96969574564E+02  0.10000000000E+01 0.  0.
    9000005    1    3    3    0    0 -0.24184536346E+02  0.56377203153E+02  0.11909251107E+03  0.13396755960E+03  0.10000000000E+01 0.  0.
<mgrwt>
<rscale>  0 0.12499725E+03</rscale>
<asrwt>0</asrwt>
<pdfrwt beam="1">  1        4 0.32701670E-01 0.12499725E+03</pdfrwt>
<pdfrwt beam="2">  1       -4 0.28271202E-02 0.12499725E+03</pdfrwt>
<totfact> 0.85171134E+03</totfact>
</mgrwt>
</event>
<event>
 5    1  0.3225662E-002  0.1249955E+03  0.7818608E-02  0.1235076E+00
         -4   -1    0    0    0  501 -0.00000000000E+00  0.00000000000E+00  0.26991467345E+03  0.26991766123E+03  0.12700000000E+01 0.  1.
          4   -1    0    0  501    0  0.00000000000E+00 -0.00000000000E+00 -0.14440193237E+02  0.14495933248E+02  0.12700000000E+01 0.  1.
         25    2    1    2    0    0  0.00000000000E+00  0.00000000000E+00  0.25547448022E+03  0.28441359448E+03  0.12499553066E+03 0.  0.
    9000005    1    3    3    0    0  0.53495364888E+02 -0.29905553154E+02  0.15550021626E+03  0.16714488754E+03  0.10000000000E+01 0.  0.
    9000005    1    3    3    0    0 -0.53495364888E+02  0.29905553154E+02  0.99974263954E+02  0.11726870694E+03  0.10000000000E+01 0.  0.
<mgrwt>
<rscale>  0 0.12499553E+03</rscale>
<asrwt>0</asrwt>
<pdfrwt beam="2">  1        4 0.22260857E-02 0.12499553E+03</pdfrwt>
<pdfrwt beam="1">  1       -4 0.41529853E-01 0.12499553E+03</pdfrwt>
<totfact> 0.77604216E+03</totfact>
</mgrwt>
</event>
<event>
 5    1  0.3225662E-002  0.1250005E+03  0.7818608E-02  0.1235069E+00
          4   -1    0    0  501    0  0.00000000000E+00  0.00000000000E+00  0.78464692761E+02  0.78474969959E+02  0.12700000000E+01 0.  1.
         -4   -1    0    0    0  501 -0.00000000000E+00 -0.00000000000E+00 -0.49762271601E+02  0.49778475015E+02  0.12700000000E+01 0.  1.
         25    2    1    2    0    0  0.00000000000E+00  0.00000000000E+00  0.28702421160E+02  0.12825344497E+03  0.12500046867E+03 0.  0.
    9000005    1    3    3    0    0 -0.29314421617E+02  0.53453503059E+02  0.28444272364E+02  0.67280672815E+02  0.10000000000E+01 0.  0.
    9000005    1    3    3    0    0  0.29314421617E+02 -0.53453503059E+02  0.25814879633E+00  0.60972772160E+02  0.10000000000E+01 0.  0.
<mgrwt>
<rscale>  0 0.12500047E+03</rscale>
<asrwt>0</asrwt>
<pdfrwt beam="1">  1        4 0.12073528E-01 0.12500047E+03</pdfrwt>
<pdfrwt beam="2">  1       -4 0.76577711E-02 0.12500047E+03</pdfrwt>
<totfact> 0.10381908E+04</totfact>
</mgrwt>
</event>
<event>
 5    1  0.3225662E-002  0.1250022E+03  0.7818608E-02  0.1235066E+00
          4   -1    0    0  501    0  0.00000000000E+00  0.00000000000E+00  0.50639439311E+01  0.52207689220E+01  0.12700000000E+01 0.  1.
         -4   -1    0    0    0  501 -0.00000000000E+00 -0.00000000000E+00 -0.75949174066E+03  0.75949280249E+03  0.12700000000E+01 0.  1.
         25    2    1    2    0    0  0.00000000000E+00  0.00000000000E+00 -0.75442779673E+03  0.76471357141E+03  0.12500218327E+03 0.  0.
    9000005    1    3    3    0    0  0.75223030780E+01 -0.60373002329E+02 -0.46456973828E+03  0.46853764649E+03  0.10000000000E+01 0.  0.
    9000005    1    3    3    0    0 -0.75223030780E+01  0.60373002329E+02 -0.28985805845E+03  0.29617592492E+03  0.10000000000E+01 0.  0.
<mgrwt>
<rscale>  0 0.12500218E+03</rscale>
<asrwt>0</asrwt>
<pdfrwt beam="1">  1        4 0.79121404E-03 0.12500218E+03</pdfrwt>
<pdfrwt beam="2">  1       -4 0.11685694E+00 0.12500218E+03</pdfrwt>
<totfact> 0.39878204E+03</totfact>
</mgrwt>
</event>
<event>
 5    1  0.3225662E-002  0.1249994E+03  0.7818608E-02  0.1235070E+00
         -4   -1    0    0    0  501 -0.00000000000E+00  0.00000000000E+00  0.24526277197E+03  0.24526606005E+03  0.12700000000E+01 0. -1.
          4   -1    0    0  501    0  0.00000000000E+00 -0.00000000000E+00 -0.15897923929E+02  0.15948570006E+02  0.12700000000E+01 0. -1.
         25    2    1    2    0    0  0.00000000000E+00  0.00000000000E+00  0.22936484804E+03  0.26121463006E+03  0.12499939776E+03 0.  0.
    9000005    1    3    3    0    0 -0.31758549233E+02 -0.21180735035E+02  0.11288787957E+02  0.39820418375E+02  0.10000000000E+01 0.  0.
    9000005    1    3    3    0    0  0.31758549233E+02  0.21180735035E+02  0.21807606008E+03  0.22139421168E+03  0.10000000000E+01 0.  0.
<mgrwt>
<rscale>  0 0.12499940E+03</rscale>
<asrwt>0</asrwt>
<pdfrwt beam="2">  1        4 0.24499833E-02 0.12499940E+03</pdfrwt>
<pdfrwt beam="1">  1       -4 0.37736882E-01 0.12499940E+03</pdfrwt>
<totfact> 0.80736988E+03</totfact>
</mgrwt>
</event>
<event>
 5    1  0.3225662E-002  0.1249994E+03  0.7818608E-02  0.1235070E+00
          4   -1    0    0  501    0  0.00000000000E+00  0.00000000000E+00  0.17648934391E+02  0.17694569369E+02  0.12700000000E+01 0. -1.
         -4   -1    0    0    0  501 -0.00000000000E+00 -0.00000000000E+00 -0.22099525102E+03  0.22099890016E+03  0.12700000000E+01 0. -1.
         25    2    1    2    0    0  0.00000000000E+00  0.00000000000E+00 -0.20334631662E+03  0.23869346953E+03  0.12499939164E+03 0.  0.
    9000005    1    3    3    0    0  0.59696778537E+02  0.97879442566E+01 -0.13160529038E+03  0.14484633815E+03  0.10000000000E+01 0.  0.
    9000005    1    3    3    0    0 -0.59696778537E+02 -0.97879442566E+01 -0.71741026245E+02  0.93847131375E+02  0.10000000000E+01 0.  0.
<mgrwt>
<rscale>  0 0.12499939E+03</rscale>
<asrwt>0</asrwt>
<pdfrwt beam="1">  1        4 0.27190119E-02 0.12499939E+03</pdfrwt>
<pdfrwt beam="2">  1       -4 0.34003058E-01 0.12499939E+03</pdfrwt>
<totfact> 0.83993478E+03</totfact>
</mgrwt>
</event>
<event>
 5    1  0.3225662E-002  0.1250011E+03  0.7818608E-02  0.1235068E+00
         -4   -1    0    0    0  501 -0.00000000000E+00  0.00000000000E+00  0.55044991579E+03  0.55045138087E+03  0.12700000000E+01 0. -1.
          4   -1    0    0  501    0  0.00000000000E+00 -0.00000000000E+00 -0.70382818953E+01  0.71519446333E+01  0.12700000000E+01 0. -1.
         25    2    1    2    0    0  0.00000000000E+00  0.00000000000E+00  0.54341163390E+03  0.55760332550E+03  0.12500105900E+03 0.  0.
    9000005    1    3    3    0    0  0.10504165505E+02  0.33762896591E+02  0.50155747854E+03  0.50280331638E+03  0.10000000000E+01 0.  0.
    9000005    1    3    3    0    0 -0.10504165505E+02 -0.33762896591E+02  0.41854155359E+02  0.54800009124E+02  0.10000000000E+01 0.  0.
<mgrwt>
<rscale>  0 0.12500106E+03</rscale>
<asrwt>0</asrwt>
<pdfrwt beam="2">  1        4 0.10916680E-02 0.12500106E+03</pdfrwt>
<pdfrwt beam="1">  1       -4 0.84693505E-01 0.12500106E+03</pdfrwt>
<totfact> 0.51656829E+03</totfact>
</mgrwt>
</event>
<event>
 5    1  0.3225662E-002  0.1250011E+03  0.7818608E-02  0.1235068E+00
          4   -1    0    0  501    0  0.00000000000E+00  0.00000000000E+00  0.26029544072E+02  0.26060507758E+02  0.12700000000E+01 0. -1.
         -4   -1    0    0    0  501 -0.00000000000E+00 -0.00000000000E+00 -0.14994952438E+03  0.14995490242E+03  0.12700000000E+01 0. -1.
         25    2    1    2    0    0  0.00000000000E+00  0.00000000000E+00 -0.12391998031E+03  0.17601541018E+03  0.12500105241E+03 0.  0.
    9000005    1    3    3    0    0  0.31880239818E+02  0.47933663900E+02 -0.96201425439E+02  0.11211467380E+03  0.10000000000E+01 0.  0.
    9000005    1    3    3    0    0 -0.31880239818E+02 -0.47933663900E+02 -0.27718554866E+02  0.63900736378E+02  0.10000000000E+01 0.  0.
<mgrwt>
<rscale>  0 0.12500105E+03</rscale>
<asrwt>0</asrwt>
<pdfrwt beam="1">  1        4 0.40073408E-02 0.12500105E+03</pdfrwt>
<pdfrwt beam="2">  1       -4 0.23071953E-01 0.12500105E+03</pdfrwt>
<totfact> 0.94336972E+03</totfact>
</mgrwt>
</event>
<event>
 5    1  0.3225662E-002  0.1250007E+03  0.7818608E-02  0.1235068E+00
          4   -1    0    0  501    0  0.00000000000E+00  0.00000000000E+00  0.16777053578E+01  0.21041851790E+01  0.12700000000E+01 0.  1.
         -4   -1    0    0    0  501 -0.00000000000E+00 -0.00000000000E+00 -0.20653611353E+04  0.20653615258E+04  0.12700000000E+01 0.  1.
         25    2    1    2    0    0  0.00000000000E+00  0.00000000000E+00 -0.20636834300E+04  0.20674657110E+04  0.12500066763E+03 0.  0.
    9000005    1    3    3    0    0  0.33549123480E+02  0.44942906062E+02 -0.57591040792E+03  0.57863564222E+03  0.10000000000E+01 0.  0.
    9000005    1    3    3    0    0 -0.33549123480E+02 -0.44942906062E+02 -0.14877730220E+04  0.14888300687E+04  0.10000000000E+01 0.  0.
<mgrwt>
<rscale>  0 0.12500067E+03</rscale>
<asrwt>0</asrwt>
<pdfrwt beam="1">  1        4 0.29094635E-03 0.12500067E+03</pdfrwt>
<pdfrwt beam="2">  1       -4 0.31777890E+00 0.12500067E+03</pdfrwt>
<totfact> 0.90062254E+02</totfact>
</mgrwt>
</event>
<event>
 5    1  0.3225662E-002  0.1250009E+03  0.7818608E-02  0.1235068E+00
         -4   -1    0    0    0  501 -0.00000000000E+00  0.00000000000E+00  0.22733386085E+02  0.22768832708E+02  0.12700000000E+01 0.  1.
          4   -1    0    0  501    0  0.00000000000E+00 -0.00000000000E+00 -0.17165952955E+03  0.17166422745E+03  0.12700000000E+01 0.  1.
         25    2    1    2    0    0  0.00000000000E+00  0.00000000000E+00 -0.14892614347E+03  0.19443306016E+03  0.12500087470E+03 0.  0.
    9000005    1    3    3    0    0  0.31277699743E+02 -0.80190067376E+01 -0.15768646337E+03  0.16096154727E+03  0.10000000000E+01 0.  0.
    9000005    1    3    3    0    0 -0.31277699743E+02  0.80190067376E+01  0.87603199009E+01  0.33471512888E+02  0.10000000000E+01 0.  0.
<mgrwt>
<rscale>  0 0.12500087E+03</rscale>
<asrwt>0</asrwt>
<pdfrwt beam="2">  1        4 0.26412246E-01 0.12500087E+03</pdfrwt>
<pdfrwt beam="1">  1       -4 0.35005322E-02 0.12500087E+03</pdfrwt>
<totfact> 0.91079864E+03</totfact>
</mgrwt>
</event>
<event>
 5    1  0.3225662E-002  0.1249901E+03  0.7818608E-02  0.1235085E+00
          4   -1    0    0  501    0  0.00000000000E+00  0.00000000000E+00  0.20912631681E+02  0.20951159009E+02  0.12700000000E+01 0. -1.
         -4   -1    0    0    0  501 -0.00000000000E+00 -0.00000000000E+00 -0.18654687775E+03  0.18655120074E+03  0.12700000000E+01 0. -1.
         25    2    1    2    0    0  0.00000000000E+00  0.00000000000E+00 -0.16563424607E+03  0.20750235975E+03  0.12499010294E+03 0.  0.
    9000005    1    3    3    0    0  0.27530303890E+02  0.29627857784E+02 -0.37391621422E+01  0.40628917321E+02  0.10000000000E+01 0.  0.
    9000005    1    3    3    0    0 -0.27530303890E+02 -0.29627857784E+02 -0.16189508393E+03  0.16687344243E+03  0.10000000000E+01 0.  0.
<mgrwt>
<rscale>  0 0.12499010E+03</rscale>
<asrwt>0</asrwt>
<pdfrwt beam="1">  1        4 0.32206242E-02 0.12499010E+03</pdfrwt>
<pdfrwt beam="2">  1       -4 0.28702815E-01 0.12499010E+03</pdfrwt>
<totfact> 0.88905084E+03</totfact>
</mgrwt>
</event>
<event>
 5    1  0.3225662E-002  0.1250006E+03  0.7818608E-02  0.1235068E+00
         -4   -1    0    0    0  501 -0.00000000000E+00  0.00000000000E+00  0.38871075925E+02  0.38891817180E+02  0.12700000000E+01 0. -1.
          4   -1    0    0  501    0  0.00000000000E+00 -0.00000000000E+00 -0.10044178443E+03  0.10044981314E+03  0.12700000000E+01 0. -1.
         25    2    1    2    0    0  0.00000000000E+00  0.00000000000E+00 -0.61570708508E+02  0.13934163032E+03  0.12500055118E+03 0.  0.
    9000005    1    3    3    0    0 -0.37479760118E+02  0.36433414205E+02  0.73956440327E+01  0.52799826134E+02  0.10000000000E+01 0.  0.
    9000005    1    3    3    0    0  0.37479760118E+02 -0.36433414205E+02 -0.68966352541E+02  0.86541804187E+02  0.10000000000E+01 0.  0.
<mgrwt>
<rscale>  0 0.12500055E+03</rscale>
<asrwt>0</asrwt>
<pdfrwt beam="2">  1        4 0.15454795E-01 0.12500055E+03</pdfrwt>
<pdfrwt beam="1">  1       -4 0.59823786E-02 0.12500055E+03</pdfrwt>
<totfact> 0.10147123E+04</totfact>
</mgrwt>
</event>
<event>
 5    1  0.3225662E-002  0.1250007E+03  0.7818608E-02  0.1235068E+00
          4   -1    0    0  501    0  0.00000000000E+00  0.00000000000E+00  0.80521416479E+01  0.81516798955E+01  0.12700000000E+01 0.  1.
         -4   -1    0    0    0  501 -0.00000000000E+00 -0.00000000000E+00 -0.48204415826E+03  0.48204583124E+03  0.12700000000E+01 0.  1.
         25    2    1    2    0    0  0.00000000000E+00  0.00000000000E+00 -0.47399201661E+03  0.49019751113E+03  0.12500067243E+03 0.  0.
    9000005    1    3    3    0    0 -0.13614552269E+02  0.40881400148E+02 -0.41449354524E+03  0.41672838152E+03  0.10000000000E+01 0.  0.
    9000005    1    3    3    0    0  0.13614552269E+02 -0.40881400148E+02 -0.59498471370E+02  0.73469129618E+02  0.10000000000E+01 0.  0.
<mgrwt>
<rscale>  0 0.12500067E+03</rscale>
<asrwt>0</asrwt>
<pdfrwt beam="1">  1        4 0.12465769E-02 0.12500067E+03</pdfrwt>
<pdfrwt beam="2">  1       -4 0.74168403E-01 0.12500067E+03</pdfrwt>
<totfact> 0.56632193E+03</totfact>
</mgrwt>
</event>
<event>
 5    1  0.3225662E-002  0.1250119E+03  0.7818608E-02  0.1235051E+00
          4   -1    0    0  501    0  0.00000000000E+00  0.00000000000E+00  0.40955309555E+02  0.40974995799E+02  0.12700000000E+01 0. -1.
         -4   -1    0    0    0  501 -0.00000000000E+00 -0.00000000000E+00 -0.95349608726E+02  0.95358066173E+02  0.12700000000E+01 0. -1.
         25    2    1    2    0    0  0.00000000000E+00  0.00000000000E+00 -0.54394299171E+02  0.13633306197E+03  0.12501185546E+03 0.  0.
    9000005    1    3    3    0    0 -0.50025506959E+02  0.13319135156E+02  0.10988691370E+02  0.52931106600E+02  0.10000000000E+01 0.  0.
    9000005    1    3    3    0    0  0.50025506959E+02 -0.13319135156E+02 -0.65382990541E+02  0.83401955372E+02  0.10000000000E+01 0.  0.
<mgrwt>
<rscale>  0 0.12501186E+03</rscale>
<asrwt>0</asrwt>
<pdfrwt beam="1">  1        4 0.63029818E-02 0.12501186E+03</pdfrwt>
<pdfrwt beam="2">  1       -4 0.14671335E-01 0.12501186E+03</pdfrwt>
<totfact> 0.10207320E+04</totfact>
</mgrwt>
</event>
<event>
 5    1  0.3225662E-002  0.1249946E+03  0.7818608E-02  0.1235078E+00
          4   -1    0    0  501    0  0.00000000000E+00  0.00000000000E+00  0.40001509956E+02  0.40021665367E+02  0.12700000000E+01 0.  1.
         -4   -1    0    0    0  501 -0.00000000000E+00 -0.00000000000E+00 -0.97595284096E+02  0.97603546953E+02  0.12700000000E+01 0.  1.
         25    2    1    2    0    0  0.00000000000E+00  0.00000000000E+00 -0.57593774140E+02  0.13762521232E+03  0.12499462487E+03 0.  0.
    9000005    1    3    3    0    0 -0.17373863415E+02  0.14012752771E+02 -0.93061807259E+02  0.95706365204E+02  0.10000000000E+01 0.  0.
    9000005    1    3    3    0    0  0.17373863415E+02 -0.14012752771E+02  0.35468033119E+02  0.41918847116E+02  0.10000000000E+01 0.  0.
<mgrwt>
<rscale>  0 0.12499462E+03</rscale>
<asrwt>0</asrwt>
<pdfrwt beam="1">  1        4 0.61562645E-02 0.12499462E+03</pdfrwt>
<pdfrwt beam="2">  1       -4 0.15016845E-01 0.12499462E+03</pdfrwt>
<totfact> 0.10184264E+04</totfact>
</mgrwt>
</event>
<event>
 5    1  0.3225662E-002  0.1250001E+03  0.7818608E-02  0.1235069E+00
          4   -1    0    0  501    0  0.00000000000E+00  0.00000000000E+00  0.36618559599E+02  0.36640575965E+02  0.12700000000E+01 0.  1.
         -4   -1    0    0    0  501 -0.00000000000E+00 -0.00000000000E+00 -0.10661639864E+03  0.10662396241E+03  0.12700000000E+01 0.  1.
         25    2    1    2    0    0  0.00000000000E+00  0.00000000000E+00 -0.69997839046E+02  0.14326453838E+03  0.12500012194E+03 0.  0.
    9000005    1    3    3    0    0 -0.27972371788E+01 -0.58645292421E+02 -0.59531213611E+02  0.83618540127E+02  0.10000000000E+01 0.  0.
    9000005    1    3    3    0    0  0.27972371788E+01  0.58645292421E+02 -0.10466625435E+02  0.59645998248E+02  0.10000000000E+01 0.  0.
<mgrwt>
<rscale>  0 0.12500012E+03</rscale>
<asrwt>0</asrwt>
<pdfrwt beam="1">  1        4 0.56359000E-02 0.12500012E+03</pdfrwt>
<pdfrwt beam="2">  1       -4 0.16404798E-01 0.12500012E+03</pdfrwt>
<totfact> 0.10066341E+04</totfact>
</mgrwt>
</event>
<event>
 5    1  0.3225662E-002  0.1249952E+03  0.7818608E-02  0.1235077E+00
          4   -1    0    0  501    0  0.00000000000E+00  0.00000000000E+00  0.27405407059E+02  0.27434817953E+02  0.12700000000E+01 0.  1.
         -4   -1    0    0    0  501 -0.00000000000E+00 -0.00000000000E+00 -0.14241608269E+03  0.14242174521E+03  0.12700000000E+01 0.  1.
         25    2    1    2    0    0  0.00000000000E+00  0.00000000000E+00 -0.11501067563E+03  0.16985656317E+03  0.12499518607E+03 0.  0.
    9000005    1    3    3    0    0 -0.33123823201E+02 -0.29962836907E+02  0.18834659598E+01  0.44715843982E+02  0.10000000000E+01 0.  0.
    9000005    1    3    3    0    0  0.33123823201E+02  0.29962836907E+02 -0.11689414159E+03  0.12514071918E+03  0.10000000000E+01 0.  0.
<mgrwt>
<rscale>  0 0.12499519E+03</rscale>
<asrwt>0</asrwt>
<pdfrwt beam="1">  1        4 0.42189145E-02 0.12499519E+03</pdfrwt>
<pdfrwt beam="2">  1       -4 0.21912864E-01 0.12499519E+03</pdfrwt>
<totfact> 0.95485695E+03</totfact>
</mgrwt>
</event>
<event>
 5    1  0.3225662E-002  0.1250102E+03  0.7818608E-02  0.1235053E+00
          4   -1    0    0  501    0  0.00000000000E+00  0.00000000000E+00  0.22807072276E+02  0.22842404554E+02  0.12700000000E+01 0. -1.
         -4   -1    0    0    0  501 -0.00000000000E+00 -0.00000000000E+00 -0.17113128594E+03  0.17113599834E+03  0.12700000000E+01 0. -1.
         25    2    1    2    0    0  0.00000000000E+00  0.00000000000E+00 -0.14832421367E+03  0.19397840290E+03  0.12501019331E+03 0.  0.
    9000005    1    3    3    0    0  0.51418658245E+02  0.27554333848E+02 -0.39369137208E+02  0.70385003332E+02  0.10000000000E+01 0.  0.
    9000005    1    3    3    0    0 -0.51418658245E+02 -0.27554333848E+02 -0.10895507646E+03  0.12359339956E+03  0.10000000000E+01 0.  0.
<mgrwt>
<rscale>  0 0.12501019E+03</rscale>
<asrwt>0</asrwt>
<pdfrwt beam="1">  1        4 0.35118608E-02 0.12501019E+03</pdfrwt>
<pdfrwt beam="2">  1       -4 0.26330970E-01 0.12501019E+03</pdfrwt>
<totfact> 0.91138854E+03</totfact>
</mgrwt>
</event>
<event>
 5    1  0.3225662E-002  0.1250001E+03  0.7818608E-02  0.1235069E+00
          4   -1    0    0  501    0  0.00000000000E+00  0.00000000000E+00  0.17711757888E+02  0.17757231413E+02  0.12700000000E+01 0.  1.
         -4   -1    0    0    0  501 -0.00000000000E+00 -0.00000000000E+00 -0.22021578652E+03  0.22021944858E+03  0.12700000000E+01 0.  1.
         25    2    1    2    0    0  0.00000000000E+00  0.00000000000E+00 -0.20250402863E+03  0.23797667999E+03  0.12500007443E+03 0.  0.
    9000005    1    3    3    0    0  0.17332679239E+02 -0.57271516214E+02 -0.13556325013E+03  0.14818516499E+03  0.10000000000E+01 0.  0.
    9000005    1    3    3    0    0 -0.17332679239E+02  0.57271516214E+02 -0.66940778507E+02  0.89791515001E+02  0.10000000000E+01 0.  0.
<mgrwt>
<rscale>  0 0.12500007E+03</rscale>
<asrwt>0</asrwt>
<pdfrwt beam="1">  1        4 0.27286656E-02 0.12500007E+03</pdfrwt>
<pdfrwt beam="2">  1       -4 0.33883130E-01 0.12500007E+03</pdfrwt>
<totfact> 0.84099492E+03</totfact>
</mgrwt>
</event>
<event>
 5    1  0.3225662E-002  0.1250009E+03  0.7818608E-02  0.1235068E+00
         -4   -1    0    0    0  501 -0.00000000000E+00  0.00000000000E+00  0.62130032390E+02  0.62143011070E+02  0.12700000000E+01 0. -1.
          4   -1    0    0  501    0  0.00000000000E+00 -0.00000000000E+00 -0.62847099873E+02  0.62859930500E+02  0.12700000000E+01 0. -1.
         25    2    1    2    0    0  0.00000000000E+00  0.00000000000E+00 -0.71706748261E+00  0.12500294157E+03  0.12500088486E+03 0.  0.
    9000005    1    3    3    0    0 -0.50179732303E+02  0.29302585970E+02  0.22634413483E+02  0.62369573931E+02  0.10000000000E+01 0.  0.
    9000005    1    3    3    0    0  0.50179732303E+02 -0.29302585970E+02 -0.23351480966E+02  0.62633367639E+02  0.10000000000E+01 0.  0.
<mgrwt>
<rscale>  0 0.12500088E+03</rscale>
<asrwt>0</asrwt>
<pdfrwt beam="2">  1        4 0.96707700E-02 0.12500088E+03</pdfrwt>
<pdfrwt beam="1">  1       -4 0.95604518E-02 0.12500088E+03</pdfrwt>
<totfact> 0.10452590E+04</totfact>
</mgrwt>
</event>
<event>
 5    1  0.3225662E-002  0.1249957E+03  0.7818608E-02  0.1235076E+00
         -4   -1    0    0    0  501 -0.00000000000E+00  0.00000000000E+00  0.22724436844E+02  0.22759897405E+02  0.12700000000E+01 0.  1.
          4   -1    0    0  501    0  0.00000000000E+00 -0.00000000000E+00 -0.17171274832E+03  0.17171744477E+03  0.12700000000E+01 0.  1.
         25    2    1    2    0    0  0.00000000000E+00  0.00000000000E+00 -0.14898831148E+03  0.19447734217E+03  0.12499567857E+03 0.  0.
    9000005    1    3    3    0    0 -0.22692253031E+02 -0.31553912448E+02 -0.15062692979E+03  0.15556368379E+03  0.10000000000E+01 0.  0.
    9000005    1    3    3    0    0  0.22692253031E+02  0.31553912448E+02  0.16386183061E+01  0.38913658378E+02  0.10000000000E+01 0.  0.
<mgrwt>
<rscale>  0 0.12499568E+03</rscale>
<asrwt>0</asrwt>
<pdfrwt beam="2">  1        4 0.26420434E-01 0.12499568E+03</pdfrwt>
<pdfrwt beam="1">  1       -4 0.34991563E-02 0.12499568E+03</pdfrwt>
<totfact> 0.91082869E+03</totfact>
</mgrwt>
</event>
<event>
 5    1  0.3225662E-002  0.1249974E+03  0.7818608E-02  0.1235073E+00
         -4   -1    0    0    0  501 -0.00000000000E+00  0.00000000000E+00  0.17800490842E+02  0.17845738265E+02  0.12700000000E+01 0. -1.
          4   -1    0    0  501    0  0.00000000000E+00 -0.00000000000E+00 -0.21911132126E+03  0.21911500177E+03  0.12700000000E+01 0. -1.
         25    2    1    2    0    0  0.00000000000E+00  0.00000000000E+00 -0.20131083041E+03  0.23696074004E+03  0.12499736748E+03 0.  0.
    9000005    1    3    3    0    0 -0.37065210383E+02  0.24300802247E+01 -0.19592106861E+03  0.19941364104E+03  0.10000000000E+01 0.  0.
    9000005    1    3    3    0    0  0.37065210383E+02 -0.24300802247E+01 -0.53897618087E+01  0.37547098996E+02  0.10000000000E+01 0.  0.
<mgrwt>
<rscale>  0 0.12499737E+03</rscale>
<asrwt>0</asrwt>
<pdfrwt beam="2">  1        4 0.33713196E-01 0.12499737E+03</pdfrwt>
<pdfrwt beam="1">  1       -4 0.27423009E-02 0.12499737E+03</pdfrwt>
<totfact> 0.84257050E+03</totfact>
</mgrwt>
</event>
<event>
 5    1  0.3225662E-002  0.1250006E+03  0.7818608E-02  0.1235068E+00
          4   -1    0    0  501    0  0.00000000000E+00  0.00000000000E+00  0.10647952579E+04  0.10647960153E+04  0.12700000000E+01 0.  1.
         -4   -1    0    0    0  501 -0.00000000000E+00 -0.00000000000E+00 -0.35578856904E+01  0.37777573487E+01  0.12700000000E+01 0.  1.
         25    2    1    2    0    0  0.00000000000E+00  0.00000000000E+00  0.10612373722E+04  0.10685737726E+04  0.12500058946E+03 0.  0.
    9000005    1    3    3    0    0  0.62179847334E+02 -0.62004761953E+01  0.53670872153E+03  0.54033510999E+03  0.10000000000E+01 0.  0.
    9000005    1    3    3    0    0 -0.62179847334E+02  0.62004761953E+01  0.52452865066E+03  0.52823866262E+03  0.10000000000E+01 0.  0.
<mgrwt>
<rscale>  0 0.12500059E+03</rscale>
<asrwt>0</asrwt>
<pdfrwt beam="1">  1        4 0.16383157E+00 0.12500059E+03</pdfrwt>
<pdfrwt beam="2">  1       -4 0.56433869E-03 0.12500059E+03</pdfrwt>
<totfact> 0.28421486E+03</totfact>
</mgrwt>
</event>
<event>
 5    1  0.3225662E-002  0.1250105E+03  0.7818608E-02  0.1235053E+00
         -4   -1    0    0    0  501 -0.00000000000E+00  0.00000000000E+00  0.13086378377E+03  0.13086994614E+03  0.12700000000E+01 0. -1.
          4   -1    0    0  501    0  0.00000000000E+00 -0.00000000000E+00 -0.29834388857E+02  0.29861407510E+02  0.12700000000E+01 0. -1.
         25    2    1    2    0    0  0.00000000000E+00  0.00000000000E+00  0.10102939492E+03  0.16073135365E+03  0.12501051720E+03 0.  0.
    9000005    1    3    3    0    0  0.18993026118E+02 -0.32774031676E+02 -0.13398936743E+02  0.40192085032E+02  0.10000000000E+01 0.  0.
    9000005    1    3    3    0    0 -0.18993026118E+02  0.32774031676E+02  0.11442833166E+03  0.12053926862E+03  0.10000000000E+01 0.  0.
<mgrwt>
<rscale>  0 0.12501052E+03</rscale>
<asrwt>0</asrwt>
<pdfrwt beam="2">  1        4 0.45924584E-02 0.12501052E+03</pdfrwt>
<pdfrwt beam="1">  1       -4 0.20135442E-01 0.12501052E+03</pdfrwt>
<totfact> 0.97178998E+03</totfact>
</mgrwt>
</event>
<event>
 5    1  0.3225662E-002  0.1249994E+03  0.7818608E-02  0.1235070E+00
          4   -1    0    0  501    0  0.00000000000E+00  0.00000000000E+00  0.22633315270E+03  0.22633671578E+03  0.12700000000E+01 0. -1.
         -4   -1    0    0    0  501 -0.00000000000E+00 -0.00000000000E+00 -0.17231610020E+02  0.17278347255E+02  0.12700000000E+01 0. -1.
         25    2    1    2    0    0  0.00000000000E+00  0.00000000000E+00  0.20910154268E+03  0.24361506303E+03  0.12499937515E+03 0.  0.
    9000005    1    3    3    0    0  0.40704413033E+02 -0.10663092996E+02  0.14505550501E+02  0.44519229418E+02  0.10000000000E+01 0.  0.
    9000005    1    3    3    0    0 -0.40704413033E+02  0.10663092996E+02  0.19459599217E+03  0.19909583362E+03  0.10000000000E+01 0.  0.
<mgrwt>
<rscale>  0 0.12499938E+03</rscale>
<asrwt>0</asrwt>
<pdfrwt beam="1">  1        4 0.34824355E-01 0.12499938E+03</pdfrwt>
<pdfrwt beam="2">  1       -4 0.26548861E-02 0.12499938E+03</pdfrwt>
<totfact> 0.83263055E+03</totfact>
</mgrwt>
</event>
<event>
 4    1  0.3225662E-002  0.1252640E+03  0.7818608E-02  0.1234657E+00
          4   -1    0    0  501    0  0.00000000000E+00  0.00000000000E+00  0.16332717940E+03  0.16333211696E+03  0.12700000000E+01 0. -1.
         -4   -1    0    0    0  501 -0.00000000000E+00 -0.00000000000E+00 -0.23995770526E+02  0.24029355029E+02  0.12700000000E+01 0. -1.
    9000005    1    1    2    0    0  0.12320464738E+02  0.48125548760E+02  0.12633220983E+02  0.51268514385E+02  0.10000000000E+01 0.  0.
    9000005    1    1    2    0    0 -0.12320464738E+02 -0.48125548760E+02  0.12669818789E+03  0.13609295760E+03  0.10000000000E+01 0.  0.
<mgrwt>
<rscale>  0 0.12526404E+03</rscale>
<asrwt>0</asrwt>
<pdfrwt beam="1">  1        4 0.25130222E-01 0.12526404E+03</pdfrwt>
<pdfrwt beam="2">  1       -4 0.36946202E-02 0.12526404E+03</pdfrwt>
<totfact> 0.91764470E+03</totfact>
</mgrwt>
</event>
<event>
 5    1  0.3225662E-002  0.1250012E+03  0.7818608E-02  0.1235067E+00
         -4   -1    0    0    0  501 -0.00000000000E+00  0.00000000000E+00  0.53932579799E+02  0.53947530655E+02  0.12700000000E+01 0.  1.
          4   -1    0    0  501    0  0.00000000000E+00 -0.00000000000E+00 -0.72399273140E+02  0.72410411207E+02  0.12700000000E+01 0.  1.
         25    2    1    2    0    0  0.00000000000E+00  0.00000000000E+00 -0.18466693341E+02  0.12635794186E+03  0.12500124283E+03 0.  0.
    9000005    1    3    3    0    0  0.22190329554E+02 -0.48717236073E+02 -0.41825305042E+02  0.67942151557E+02  0.10000000000E+01 0.  0.
    9000005    1    3    3    0    0 -0.22190329554E+02  0.48717236073E+02  0.23358611701E+02  0.58415790305E+02  0.10000000000E+01 0.  0.
<mgrwt>
<rscale>  0 0.12500124E+03</rscale>
<asrwt>0</asrwt>
<pdfrwt beam="2">  1        4 0.11140357E-01 0.12500124E+03</pdfrwt>
<pdfrwt beam="1">  1       -4 0.82993268E-02 0.12500124E+03</pdfrwt>
<totfact> 0.10422835E+04</totfact>
</mgrwt>
</event>
<event>
 5    1  0.3225662E-002  0.1250081E+03  0.7818608E-02  0.1235057E+00
          4   -1    0    0  501    0  0.00000000000E+00  0.00000000000E+00  0.16124835220E+03  0.16125335341E+03  0.12700000000E+01 0.  1.
         -4   -1    0    0    0  501 -0.00000000000E+00 -0.00000000000E+00 -0.24206153502E+02  0.24239446516E+02  0.12700000000E+01 0.  1.
         25    2    1    2    0    0  0.00000000000E+00  0.00000000000E+00  0.13704219869E+03  0.18549279992E+03  0.12500805815E+03 0.  0.
    9000005    1    3    3    0    0 -0.13408636597E+02  0.58166125235E+02  0.41053336975E+02  0.72453199633E+02  0.10000000000E+01 0.  0.
    9000005    1    3    3    0    0  0.13408636597E+02 -0.58166125235E+02  0.95988861717E+02  0.11303960029E+03  0.10000000000E+01 0.  0.
<mgrwt>
<rscale>  0 0.12500806E+03</rscale>
<asrwt>0</asrwt>
<pdfrwt beam="1">  1        4 0.24810384E-01 0.12500806E+03</pdfrwt>
<pdfrwt beam="2">  1       -4 0.37269694E-02 0.12500806E+03</pdfrwt>
<totfact> 0.92620794E+03</totfact>
</mgrwt>
</event>
<event>
 5    1  0.3225662E-002  0.1250004E+03  0.7818608E-02  0.1235069E+00
         -4   -1    0    0    0  501 -0.00000000000E+00  0.00000000000E+00  0.31442479192E+02  0.31468117162E+02  0.12700000000E+01 0. -1.
          4   -1    0    0  501    0  0.00000000000E+00 -0.00000000000E+00 -0.12415603139E+03  0.12416252667E+03  0.12700000000E+01 0. -1.
         25    2    1    2    0    0  0.00000000000E+00  0.00000000000E+00 -0.92713552195E+02  0.15563064383E+03  0.12500037816E+03 0.  0.
    9000005    1    3    3    0    0  0.88046804912E+00  0.60943434087E+02 -0.63536373634E+02  0.88049691407E+02  0.10000000000E+01 0.  0.
    9000005    1    3    3    0    0 -0.88046804912E+00 -0.60943434087E+02 -0.29177178561E+02  0.67580952428E+02  0.10000000000E+01 0.  0.
<mgrwt>
<rscale>  0 0.12500038E+03</rscale>
<asrwt>0</asrwt>
<pdfrwt beam="2">  1        4 0.19103399E-01 0.12500038E+03</pdfrwt>
<pdfrwt beam="1">  1       -4 0.48397764E-02 0.12500038E+03</pdfrwt>
<totfact> 0.98191003E+03</totfact>
</mgrwt>
</event>
<event>
 5    1  0.3225662E-002  0.1249987E+03  0.7818608E-02  0.1235071E+00
         -4   -1    0    0    0  501 -0.00000000000E+00  0.00000000000E+00  0.11359165970E+03  0.11359875904E+03  0.12700000000E+01 0.  1.
          4   -1    0    0  501    0  0.00000000000E+00 -0.00000000000E+00 -0.34367922074E+02  0.34391379264E+02  0.12700000000E+01 0.  1.
         25    2    1    2    0    0  0.00000000000E+00  0.00000000000E+00  0.79223737630E+02  0.14799013830E+03  0.12499872171E+03 0.  0.
    9000005    1    3    3    0    0  0.24324711866E+02 -0.34783831408E+02 -0.14688780779E+02  0.44926237496E+02  0.10000000000E+01 0.  0.
    9000005    1    3    3    0    0 -0.24324711866E+02  0.34783831408E+02  0.93912518409E+02  0.10306390080E+03  0.10000000000E+01 0.  0.
<mgrwt>
<rscale>  0 0.12499872E+03</rscale>
<asrwt>0</asrwt>
<pdfrwt beam="2">  1        4 0.52897231E-02 0.12499872E+03</pdfrwt>
<pdfrwt beam="1">  1       -4 0.17477991E-01 0.12499872E+03</pdfrwt>
<totfact> 0.99708721E+03</totfact>
</mgrwt>
</event>
<event>
 5    1  0.3225662E-002  0.1250016E+03  0.7818608E-02  0.1235067E+00
         -4   -1    0    0    0  501 -0.00000000000E+00  0.00000000000E+00  0.33580965279E+03  0.33581205429E+03  0.12700000000E+01 0.  1.
          4   -1    0    0  501    0  0.00000000000E+00 -0.00000000000E+00 -0.11595516715E+02  0.11664857817E+02  0.12700000000E+01 0.  1.
         25    2    1    2    0    0  0.00000000000E+00  0.00000000000E+00  0.32421413608E+03  0.34747691211E+03  0.12500159366E+03 0.  0.
    9000005    1    3    3    0    0  0.22142317445E+02  0.37377623473E+02  0.28698017051E+03  0.29025159297E+03  0.10000000000E+01 0.  0.
    9000005    1    3    3    0    0 -0.22142317445E+02 -0.37377623473E+02  0.37233965570E+02  0.57225319138E+02  0.10000000000E+01 0.  0.
<mgrwt>
<rscale>  0 0.12500159E+03</rscale>
<asrwt>0</asrwt>
<pdfrwt beam="2">  1        4 0.17894447E-02 0.12500159E+03</pdfrwt>
<pdfrwt beam="1">  1       -4 0.51668530E-01 0.12500159E+03</pdfrwt>
<totfact> 0.70000558E+03</totfact>
</mgrwt>
</event>
<event>
 5    1  0.3225662E-002  0.1250015E+03  0.7818608E-02  0.1235067E+00
          4   -1    0    0  501    0  0.00000000000E+00  0.00000000000E+00  0.70511117628E+03  0.70511232000E+03  0.12700000000E+01 0. -1.
         -4   -1    0    0    0  501 -0.00000000000E+00 -0.00000000000E+00 -0.54660937767E+01  0.56116914719E+01  0.12700000000E+01 0. -1.
         25    2    1    2    0    0  0.00000000000E+00  0.00000000000E+00  0.69964508250E+03  0.71072401147E+03  0.12500151603E+03 0.  0.
    9000005    1    3    3    0    0  0.20433722397E+02 -0.54279038121E+02  0.21750344229E+03  0.22510552725E+03  0.10000000000E+01 0.  0.
    9000005    1    3    3    0    0 -0.20433722397E+02  0.54279038121E+02  0.48214164021E+03  0.48561848422E+03  0.10000000000E+01 0.  0.
<mgrwt>
<rscale>  0 0.12500152E+03</rscale>
<asrwt>0</asrwt>
<pdfrwt beam="1">  1        4 0.10848991E+00 0.12500152E+03</pdfrwt>
<pdfrwt beam="2">  1       -4 0.85222544E-03 0.12500152E+03</pdfrwt>
<totfact> 0.42525201E+03</totfact>
</mgrwt>
</event>
<event>
 5    1  0.3225662E-002  0.1250003E+03  0.7818608E-02  0.1235069E+00
          4   -1    0    0  501    0  0.00000000000E+00  0.00000000000E+00  0.11972991449E+02  0.12040158812E+02  0.12700000000E+01 0. -1.
         -4   -1    0    0    0  501 -0.00000000000E+00 -0.00000000000E+00 -0.32527575457E+03  0.32527823385E+03  0.12700000000E+01 0. -1.
         25    2    1    2    0    0  0.00000000000E+00  0.00000000000E+00 -0.31330276313E+03  0.33731839266E+03  0.12500030657E+03 0.  0.
    9000005    1    3    3    0    0 -0.34264660764E+02  0.16124678584E+02 -0.22503869839E+02  0.44062414759E+02  0.10000000000E+01 0.  0.
    9000005    1    3    3    0    0  0.34264660764E+02 -0.16124678584E+02 -0.29079889329E+03  0.29325597790E+03  0.10000000000E+01 0.  0.
<mgrwt>
<rscale>  0 0.12500031E+03</rscale>
<asrwt>0</asrwt>
<pdfrwt beam="1">  1        4 0.18473564E-02 0.12500031E+03</pdfrwt>
<pdfrwt beam="2">  1       -4 0.50047775E-01 0.12500031E+03</pdfrwt>
<totfact> 0.71142115E+03</totfact>
</mgrwt>
</event>
<event>
 5    1  0.3225662E-002  0.1249992E+03  0.7818608E-02  0.1235070E+00
          4   -1    0    0  501    0  0.00000000000E+00  0.00000000000E+00  0.44256623569E+03  0.44256805790E+03  0.12700000000E+01 0. -1.
         -4   -1    0    0    0  501 -0.00000000000E+00 -0.00000000000E+00 -0.87787208005E+01  0.88701092943E+01  0.12700000000E+01 0. -1.
         25    2    1    2    0    0  0.00000000000E+00  0.00000000000E+00  0.43378751489E+03  0.45143816719E+03  0.12499924290E+03 0.  0.
    9000005    1    3    3    0    0  0.49666899988E+02 -0.28050282466E+02  0.30908207534E+03  0.31430295671E+03  0.10000000000E+01 0.  0.
    9000005    1    3    3    0    0 -0.49666899988E+02  0.28050282466E+02  0.12470543955E+03  0.13713521048E+03  0.10000000000E+01 0.  0.
<mgrwt>
<rscale>  0 0.12499924E+03</rscale>
<asrwt>0</asrwt>
<pdfrwt beam="1">  1        4 0.68094287E-01 0.12499924E+03</pdfrwt>
<pdfrwt beam="2">  1       -4 0.13577424E-02 0.12499924E+03</pdfrwt>
<totfact> 0.59840402E+03</totfact>
</mgrwt>
</event>
<event>
 5    1  0.3225662E-002  0.1250003E+03  0.7818608E-02  0.1235069E+00
         -4   -1    0    0    0  501 -0.00000000000E+00  0.00000000000E+00  0.30241439007E+02  0.30268094311E+02  0.12700000000E+01 0.  1.
          4   -1    0    0  501    0  0.00000000000E+00 -0.00000000000E+00 -0.12908275075E+03  0.12908899814E+03  0.12700000000E+01 0.  1.
         25    2    1    2    0    0  0.00000000000E+00  0.00000000000E+00 -0.98841311740E+02  0.15935709245E+03  0.12500031203E+03 0.  0.
    9000005    1    3    3    0    0  0.10578724619E+02 -0.61295513845E+02 -0.57093121312E+02  0.84437396533E+02  0.10000000000E+01 0.  0.
    9000005    1    3    3    0    0 -0.10578724619E+02  0.61295513845E+02 -0.41748190428E+02  0.74919695916E+02  0.10000000000E+01 0.  0.
<mgrwt>
<rscale>  0 0.12500031E+03</rscale>
<asrwt>0</asrwt>
<pdfrwt beam="2">  1        4 0.19861415E-01 0.12500031E+03</pdfrwt>
<pdfrwt beam="1">  1       -4 0.46550601E-02 0.12500031E+03</pdfrwt>
<totfact> 0.97466192E+03</totfact>
</mgrwt>
</event>
<event>
 5    1  0.3225662E-002  0.1250037E+03  0.7818608E-02  0.1235063E+00
         -4   -1    0    0    0  501 -0.00000000000E+00  0.00000000000E+00  0.17013858499E+02  0.17061192251E+02  0.12700000000E+01 0.  1.
          4   -1    0    0  501    0  0.00000000000E+00 -0.00000000000E+00 -0.22923791078E+03  0.22924142871E+03  0.12700000000E+01 0.  1.
         25    2    1    2    0    0  0.00000000000E+00  0.00000000000E+00 -0.21222405228E+03  0.24630262096E+03  0.12500373085E+03 0.  0.
    9000005    1    3    3    0    0 -0.26063776387E+02 -0.55290278504E+02 -0.13173793593E+03  0.14523160503E+03  0.10000000000E+01 0.  0.
    9000005    1    3    3    0    0  0.26063776387E+02  0.55290278504E+02 -0.80486116350E+02  0.10107101593E+03  0.10000000000E+01 0.  0.
<mgrwt>
<rscale>  0 0.12500373E+03</rscale>
<asrwt>0</asrwt>
<pdfrwt beam="2">  1        4 0.35271280E-01 0.12500373E+03</pdfrwt>
<pdfrwt beam="1">  1       -4 0.26214285E-02 0.12500373E+03</pdfrwt>
<totfact> 0.82860680E+03</totfact>
</mgrwt>
</event>
<event>
 5    1  0.3225662E-002  0.1249956E+03  0.7818608E-02  0.1235076E+00
         -4   -1    0    0    0  501 -0.00000000000E+00  0.00000000000E+00  0.85573261394E+02  0.85582684964E+02  0.12700000000E+01 0.  1.
          4   -1    0    0  501    0  0.00000000000E+00 -0.00000000000E+00 -0.45624053521E+02  0.45641726082E+02  0.12700000000E+01 0.  1.
         25    2    1    2    0    0  0.00000000000E+00  0.00000000000E+00  0.39949207873E+02  0.13122441105E+03  0.12499562730E+03 0.  0.
    9000005    1    3    3    0    0  0.54235768789E+02  0.28176038284E+02  0.33645374426E+02  0.69774056566E+02  0.10000000000E+01 0.  0.
    9000005    1    3    3    0    0 -0.54235768789E+02 -0.28176038284E+02  0.63038334471E+01  0.61450354479E+02  0.10000000000E+01 0.  0.
<mgrwt>
<rscale>  0 0.12499563E+03</rscale>
<asrwt>0</asrwt>
<pdfrwt beam="2">  1        4 0.70211695E-02 0.12499563E+03</pdfrwt>
<pdfrwt beam="1">  1       -4 0.13167201E-01 0.12499563E+03</pdfrwt>
<totfact> 0.10319299E+04</totfact>
</mgrwt>
</event>
<event>
 5    1  0.3225662E-002  0.1249746E+03  0.7818608E-02  0.1235109E+00
         -4   -1    0    0    0  501 -0.00000000000E+00  0.00000000000E+00  0.36711427790E+03  0.36711647463E+03  0.12700000000E+01 0. -1.
          4   -1    0    0  501    0  0.00000000000E+00 -0.00000000000E+00 -0.10595953423E+02  0.10671791272E+02  0.12700000000E+01 0. -1.
         25    2    1    2    0    0  0.00000000000E+00  0.00000000000E+00  0.35651832448E+03  0.37778826590E+03  0.12497463006E+03 0.  0.
    9000005    1    3    3    0    0 -0.26658950081E+02  0.42065122345E+02  0.64206907242E+02  0.81263159396E+02  0.10000000000E+01 0.  0.
    9000005    1    3    3    0    0  0.26658950081E+02 -0.42065122345E+02  0.29231141724E+03  0.29652510650E+03  0.10000000000E+01 0.  0.
<mgrwt>
<rscale>  0 0.12497463E+03</rscale>
<asrwt>0</asrwt>
<pdfrwt beam="2">  1        4 0.16361493E-02 0.12497463E+03</pdfrwt>
<pdfrwt beam="1">  1       -4 0.56485124E-01 0.12497463E+03</pdfrwt>
<totfact> 0.66809381E+03</totfact>
</mgrwt>
</event>
<event>
 5    1  0.3225662E-002  0.1250007E+03  0.7818608E-02  0.1235068E+00
         -4   -1    0    0    0  501 -0.00000000000E+00  0.00000000000E+00  0.54810137804E+03  0.54810284939E+03  0.12700000000E+01 0. -1.
          4   -1    0    0  501    0  0.00000000000E+00 -0.00000000000E+00 -0.70688811760E+01  0.71820596684E+01  0.12700000000E+01 0. -1.
         25    2    1    2    0    0  0.00000000000E+00  0.00000000000E+00  0.54103249686E+03  0.55528490905E+03  0.12500067026E+03 0.  0.
    9000005    1    3    3    0    0  0.33304285979E+01 -0.55867274374E+02  0.14700494618E+03  0.15730129783E+03  0.10000000000E+01 0.  0.
    9000005    1    3    3    0    0 -0.33304285979E+01  0.55867274374E+02  0.39402755068E+03  0.39798361122E+03  0.10000000000E+01 0.  0.
<mgrwt>
<rscale>  0 0.12500067E+03</rscale>
<asrwt>0</asrwt>
<pdfrwt beam="2">  1        4 0.10963393E-02 0.12500067E+03</pdfrwt>
<pdfrwt beam="1">  1       -4 0.84332118E-01 0.12500067E+03</pdfrwt>
<totfact> 0.51816776E+03</totfact>
</mgrwt>
</event>
<event>
 5    1  0.3225662E-002  0.1250016E+03  0.7818608E-02  0.1235067E+00
          4   -1    0    0  501    0  0.00000000000E+00  0.00000000000E+00  0.47549656503E+03  0.47549826104E+03  0.12700000000E+01 0.  1.
         -4   -1    0    0    0  501 -0.00000000000E+00 -0.00000000000E+00 -0.81645012520E+01  0.82626860459E+01  0.12700000000E+01 0.  1.
         25    2    1    2    0    0  0.00000000000E+00  0.00000000000E+00  0.46733206378E+03  0.48376094709E+03  0.12500158437E+03 0.  0.
    9000005    1    3    3    0    0  0.38633671124E+02 -0.40924219103E+02  0.33879986981E+03  0.34344388776E+03  0.10000000000E+01 0.  0.
    9000005    1    3    3    0    0 -0.38633671124E+02  0.40924219103E+02  0.12853219397E+03  0.14031705933E+03  0.10000000000E+01 0.  0.
<mgrwt>
<rscale>  0 0.12500158E+03</rscale>
<asrwt>0</asrwt>
<pdfrwt beam="1">  1        4 0.73160996E-01 0.12500158E+03</pdfrwt>
<pdfrwt beam="2">  1       -4 0.12637603E-02 0.12500158E+03</pdfrwt>
<totfact> 0.57144713E+03</totfact>
</mgrwt>
</event>
<event>
 5    1  0.3225662E-002  0.1250083E+03  0.7818608E-02  0.1235056E+00
          4   -1    0    0  501    0  0.00000000000E+00  0.00000000000E+00  0.65437476349E+02  0.65449799166E+02  0.12700000000E+01 0.  1.
         -4   -1    0    0    0  501 -0.00000000000E+00 -0.00000000000E+00 -0.59677612401E+02  0.59691124314E+02  0.12700000000E+01 0.  1.
         25    2    1    2    0    0  0.00000000000E+00  0.00000000000E+00  0.57598639477E+01  0.12514092348E+03  0.12500829851E+03 0.  0.
    9000005    1    3    3    0    0 -0.22519012912E+01 -0.22050884428E+02  0.61375273216E+02  0.65262828056E+02  0.10000000000E+01 0.  0.
    9000005    1    3    3    0    0  0.22519012912E+01  0.22050884428E+02 -0.55615409269E+02  0.59878095424E+02  0.10000000000E+01 0.  0.
<mgrwt>
<rscale>  0 0.12500830E+03</rscale>
<asrwt>0</asrwt>
<pdfrwt beam="1">  1        4 0.10069291E-01 0.12500830E+03</pdfrwt>
<pdfrwt beam="2">  1       -4 0.91831584E-02 0.12500830E+03</pdfrwt>
<totfact> 0.10447843E+04</totfact>
</mgrwt>
</event>
<event>
 5    1  0.3225662E-002  0.1249981E+03  0.7818608E-02  0.1235072E+00
          4   -1    0    0  501    0  0.00000000000E+00  0.00000000000E+00  0.25041908061E+03  0.25042230099E+03  0.12700000000E+01 0. -1.
         -4   -1    0    0    0  501 -0.00000000000E+00 -0.00000000000E+00 -0.15569207693E+02  0.15620919569E+02  0.12700000000E+01 0. -1.
         25    2    1    2    0    0  0.00000000000E+00  0.00000000000E+00  0.23484987292E+03  0.26604322056E+03  0.12499812957E+03 0.  0.
    9000005    1    3    3    0    0  0.39094781859E+02 -0.31763634566E+02  0.38709410358E+02  0.63535414532E+02  0.10000000000E+01 0.  0.
    9000005    1    3    3    0    0 -0.39094781859E+02  0.31763634566E+02  0.19614046256E+03  0.20250780603E+03  0.10000000000E+01 0.  0.
<mgrwt>
<rscale>  0 0.12499813E+03</rscale>
<asrwt>0</asrwt>
<pdfrwt beam="1">  1        4 0.38530235E-01 0.12499813E+03</pdfrwt>
<pdfrwt beam="2">  1       -4 0.23994885E-02 0.12499813E+03</pdfrwt>
<totfact> 0.80068724E+03</totfact>
</mgrwt>
</event>
<event>
 5    1  0.3225662E-002  0.1250072E+03  0.7818608E-02  0.1235058E+00
         -4   -1    0    0    0  501 -0.00000000000E+00  0.00000000000E+00  0.11028303550E+03  0.11029034781E+03  0.12700000000E+01 0.  1.
          4   -1    0    0  501    0  0.00000000000E+00 -0.00000000000E+00 -0.35404432595E+02  0.35427203494E+02  0.12700000000E+01 0.  1.
         25    2    1    2    0    0  0.00000000000E+00  0.00000000000E+00  0.74878602908E+02  0.14571755130E+03  0.12500719813E+03 0.  0.
    9000005    1    3    3    0    0  0.45383381155E+02  0.47212194704E+01  0.87219947837E+02  0.98439120776E+02  0.10000000000E+01 0.  0.
    9000005    1    3    3    0    0 -0.45383381155E+02 -0.47212194704E+01 -0.12341344929E+02  0.47278430527E+02  0.10000000000E+01 0.  0.
<mgrwt>
<rscale>  0 0.12500720E+03</rscale>
<asrwt>0</asrwt>
<pdfrwt beam="2">  1        4 0.54491500E-02 0.12500720E+03</pdfrwt>
<pdfrwt beam="1">  1       -4 0.16968935E-01 0.12500720E+03</pdfrwt>
<totfact> 0.10014807E+04</totfact>
</mgrwt>
</event>
<event>
 5    1  0.3225662E-002  0.1249974E+03  0.7818608E-02  0.1235073E+00
          4   -1    0    0  501    0  0.00000000000E+00  0.00000000000E+00  0.55205537977E+03  0.55205684058E+03  0.12700000000E+01 0. -1.
         -4   -1    0    0    0  501 -0.00000000000E+00 -0.00000000000E+00 -0.70170646589E+01  0.71310655885E+01  0.12700000000E+01 0. -1.
         25    2    1    2    0    0  0.00000000000E+00  0.00000000000E+00  0.54503831511E+03  0.55918790617E+03  0.12499739784E+03 0.  0.
    9000005    1    3    3    0    0 -0.77224469225E+01  0.62678864374E+01 -0.34754464155E+01  0.10583067355E+02  0.10000000000E+01 0.  0.
    9000005    1    3    3    0    0  0.77224469225E+01 -0.62678864374E+01  0.54851376152E+03  0.54860483881E+03  0.10000000000E+01 0.  0.
<mgrwt>
<rscale>  0 0.12499740E+03</rscale>
<asrwt>0</asrwt>
<pdfrwt beam="1">  1        4 0.84940510E-01 0.12499740E+03</pdfrwt>
<pdfrwt beam="2">  1       -4 0.10884297E-02 0.12499740E+03</pdfrwt>
<totfact> 0.51552401E+03</totfact>
</mgrwt>
</event>
<event>
 5    1  0.3225662E-002  0.1249973E+03  0.7818608E-02  0.1235074E+00
         -4   -1    0    0    0  501 -0.00000000000E+00  0.00000000000E+00  0.25980991060E+02  0.26012012541E+02  0.12700000000E+01 0. -1.
          4   -1    0    0  501    0  0.00000000000E+00 -0.00000000000E+00 -0.15022034367E+03  0.15022571202E+03  0.12700000000E+01 0. -1.
         25    2    1    2    0    0  0.00000000000E+00  0.00000000000E+00 -0.12423935261E+03  0.17623772457E+03  0.12499727526E+03 0.  0.
    9000005    1    3    3    0    0 -0.74749150403E+01  0.62038633623E+02 -0.61213265153E+02  0.87479884815E+02  0.10000000000E+01 0.  0.
    9000005    1    3    3    0    0  0.74749150403E+01 -0.62038633623E+02 -0.63026087459E+02  0.88757839750E+02  0.10000000000E+01 0.  0.
<mgrwt>
<rscale>  0 0.12499728E+03</rscale>
<asrwt>0</asrwt>
<pdfrwt beam="2">  1        4 0.23113621E-01 0.12499728E+03</pdfrwt>
<pdfrwt beam="1">  1       -4 0.39998749E-02 0.12499728E+03</pdfrwt>
<totfact> 0.94304406E+03</totfact>
</mgrwt>
</event>
<event>
 5    1  0.3225662E-002  0.1249983E+03  0.7818608E-02  0.1235072E+00
         -4   -1    0    0    0  501 -0.00000000000E+00  0.00000000000E+00  0.35846895358E+02  0.35869385370E+02  0.12700000000E+01 0. -1.
          4   -1    0    0  501    0  0.00000000000E+00 -0.00000000000E+00 -0.10890697438E+03  0.10891437908E+03  0.12700000000E+01 0. -1.
         25    2    1    2    0    0  0.00000000000E+00  0.00000000000E+00 -0.73060079026E+02  0.14478376445E+03  0.12499825319E+03 0.  0.
    9000005    1    3    3    0    0 -0.24730486756E+02 -0.38063892702E+02 -0.86278185680E+02  0.97495549780E+02  0.10000000000E+01 0.  0.
    9000005    1    3    3    0    0  0.24730486756E+02  0.38063892702E+02  0.13218106654E+02  0.47288214666E+02  0.10000000000E+01 0.  0.
<mgrwt>
<rscale>  0 0.12499825E+03</rscale>
<asrwt>0</asrwt>
<pdfrwt beam="2">  1        4 0.16757219E-01 0.12499825E+03</pdfrwt>
<pdfrwt beam="1">  1       -4 0.55172066E-02 0.12499825E+03</pdfrwt>
<totfact> 0.10035778E+04</totfact>
</mgrwt>
</event>
<event>
 5    1  0.3225662E-002  0.1250014E+03  0.7818608E-02  0.1235067E+00
          4   -1    0    0  501    0  0.00000000000E+00  0.00000000000E+00  0.14173441702E+03  0.14174010677E+03  0.12700000000E+01 0.  1.
         -4   -1    0    0    0  501 -0.00000000000E+00 -0.00000000000E+00 -0.27540102368E+02  0.27569369570E+02  0.12700000000E+01 0.  1.
         25    2    1    2    0    0  0.00000000000E+00  0.00000000000E+00  0.11419431465E+03  0.16930947634E+03  0.12500142911E+03 0.  0.
    9000005    1    3    3    0    0  0.41563752304E+02  0.20070047836E+01 -0.60527414477E+01  0.42061969199E+02  0.10000000000E+01 0.  0.
    9000005    1    3    3    0    0 -0.41563752304E+02 -0.20070047836E+01  0.12024705610E+03  0.12724750714E+03  0.10000000000E+01 0.  0.
<mgrwt>
<rscale>  0 0.12500143E+03</rscale>
<asrwt>0</asrwt>
<pdfrwt beam="1">  1        4 0.21807983E-01 0.12500143E+03</pdfrwt>
<pdfrwt beam="2">  1       -4 0.42396279E-02 0.12500143E+03</pdfrwt>
<totfact> 0.95574346E+03</totfact>
</mgrwt>
</event>
<event>
 5    1  0.3225662E-002  0.1250018E+03  0.7818608E-02  0.1235066E+00
         -4   -1    0    0    0  501 -0.00000000000E+00  0.00000000000E+00  0.23202589102E+02  0.23237320006E+02  0.12700000000E+01 0.  1.
          4   -1    0    0  501    0  0.00000000000E+00 -0.00000000000E+00 -0.16819591258E+03  0.16820070722E+03  0.12700000000E+01 0.  1.
         25    2    1    2    0    0  0.00000000000E+00  0.00000000000E+00 -0.14499332348E+03  0.19143802722E+03  0.12500181764E+03 0.  0.
    9000005    1    3    3    0    0  0.51381525988E+02  0.33793868168E+02 -0.55492600020E+02  0.82840300552E+02  0.10000000000E+01 0.  0.
    9000005    1    3    3    0    0 -0.51381525988E+02 -0.33793868168E+02 -0.89500723457E+02  0.10859772667E+03  0.10000000000E+01 0.  0.
<mgrwt>
<rscale>  0 0.12500182E+03</rscale>
<asrwt>0</asrwt>
<pdfrwt beam="2">  1        4 0.25879334E-01 0.12500182E+03</pdfrwt>
<pdfrwt beam="1">  1       -4 0.35726696E-02 0.12500182E+03</pdfrwt>
<totfact> 0.91593975E+03</totfact>
</mgrwt>
</event>
<event>
 5    1  0.3225662E-002  0.1250056E+03  0.7818608E-02  0.1235061E+00
         -4   -1    0    0    0  501 -0.00000000000E+00  0.00000000000E+00  0.99698505305E+02  0.99706593864E+02  0.12700000000E+01 0. -1.
          4   -1    0    0  501    0  0.00000000000E+00 -0.00000000000E+00 -0.39164168143E+02  0.39184754259E+02  0.12700000000E+01 0. -1.
         25    2    1    2    0    0  0.00000000000E+00  0.00000000000E+00  0.60534337162E+02  0.13889134812E+03  0.12500560231E+03 0.  0.
    9000005    1    3    3    0    0 -0.51223900462E+02  0.18924038177E+02  0.64033666598E+02  0.84162448024E+02  0.10000000000E+01 0.  0.
    9000005    1    3    3    0    0  0.51223900462E+02 -0.18924038177E+02 -0.34993294354E+01  0.54728900099E+02  0.10000000000E+01 0.  0.
<mgrwt>
<rscale>  0 0.12500560E+03</rscale>
<asrwt>0</asrwt>
<pdfrwt beam="2">  1        4 0.60274625E-02 0.12500560E+03</pdfrwt>
<pdfrwt beam="1">  1       -4 0.15340437E-01 0.12500560E+03</pdfrwt>
<totfact> 0.10155333E+04</totfact>
</mgrwt>
</event>
<event>
 5    1  0.3225662E-002  0.1250009E+03  0.7818608E-02  0.1235068E+00
          4   -1    0    0  501    0  0.00000000000E+00  0.00000000000E+00  0.13450305686E+03  0.13450905251E+03  0.12700000000E+01 0.  1.
         -4   -1    0    0    0  501 -0.00000000000E+00 -0.00000000000E+00 -0.29021966627E+02  0.29049740909E+02  0.12700000000E+01 0.  1.
         25    2    1    2    0    0  0.00000000000E+00  0.00000000000E+00  0.10548109024E+03  0.16355879342E+03  0.12500087402E+03 0.  0.
    9000005    1    3    3    0    0  0.50889298903E+02  0.16587527665E+02  0.94946031691E+02  0.10899823737E+03  0.10000000000E+01 0.  0.
    9000005    1    3    3    0    0 -0.50889298903E+02 -0.16587527665E+02  0.10535058547E+02  0.54560556040E+02  0.10000000000E+01 0.  0.
<mgrwt>
<rscale>  0 0.12500087E+03</rscale>
<asrwt>0</asrwt>
<pdfrwt beam="1">  1        4 0.20695375E-01 0.12500087E+03</pdfrwt>
<pdfrwt beam="2">  1       -4 0.44675157E-02 0.12500087E+03</pdfrwt>
<totfact> 0.96659134E+03</totfact>
</mgrwt>
</event>
<event>
 5    1  0.3225662E-002  0.1249997E+03  0.7818608E-02  0.1235070E+00
         -4   -1    0    0    0  501 -0.00000000000E+00  0.00000000000E+00  0.36352517929E+02  0.36374695322E+02  0.12700000000E+01 0. -1.
          4   -1    0    0  501    0  0.00000000000E+00 -0.00000000000E+00 -0.10739546913E+03  0.10740297803E+03  0.12700000000E+01 0. -1.
         25    2    1    2    0    0  0.00000000000E+00  0.00000000000E+00 -0.71042951202E+02  0.14377767335E+03  0.12499967376E+03 0.  0.
    9000005    1    3    3    0    0 -0.44059275256E+02 -0.22341756772E+02 -0.79544513252E+02  0.93641355289E+02  0.10000000000E+01 0.  0.
    9000005    1    3    3    0    0  0.44059275256E+02  0.22341756772E+02  0.85015620508E+01  0.50136318064E+02  0.10000000000E+01 0.  0.
<mgrwt>
<rscale>  0 0.12499967E+03</rscale>
<asrwt>0</asrwt>
<pdfrwt beam="2">  1        4 0.16524663E-01 0.12499967E+03</pdfrwt>
<pdfrwt beam="1">  1       -4 0.55949787E-02 0.12499967E+03</pdfrwt>
<totfact> 0.10055957E+04</totfact>
</mgrwt>
</event>
<event>
 5    1  0.3225662E-002  0.1249978E+03  0.7818608E-02  0.1235073E+00
          4   -1    0    0  501    0  0.00000000000E+00  0.00000000000E+00  0.61743048658E+03  0.61743179272E+03  0.12700000000E+01 0.  1.
         -4   -1    0    0    0  501 -0.00000000000E+00 -0.00000000000E+00 -0.62613358101E+01  0.63888360542E+01  0.12700000000E+01 0.  1.
         25    2    1    2    0    0  0.00000000000E+00  0.00000000000E+00  0.61116915077E+03  0.62382062877E+03  0.12499778409E+03 0.  0.
    9000005    1    3    3    0    0  0.48871271489E+02 -0.16971270899E+02  0.48052006502E+03  0.48329800134E+03  0.10000000000E+01 0.  0.
    9000005    1    3    3    0    0 -0.48871271489E+02  0.16971270899E+02  0.13064908575E+03  0.14052262743E+03  0.10000000000E+01 0.  0.
<mgrwt>
<rscale>  0 0.12499778E+03</rscale>
<asrwt>0</asrwt>
<pdfrwt beam="1">  1        4 0.94999219E-01 0.12499778E+03</pdfrwt>
<pdfrwt beam="2">  1       -4 0.97319056E-03 0.12499778E+03</pdfrwt>
<totfact> 0.47399997E+03</totfact>
</mgrwt>
</event>
<event>
 5    1  0.3225662E-002  0.1249987E+03  0.7818608E-02  0.1235071E+00
          4   -1    0    0  501    0  0.00000000000E+00  0.00000000000E+00  0.49141975993E+01  0.50756514897E+01  0.12700000000E+01 0.  1.
         -4   -1    0    0    0  501 -0.00000000000E+00 -0.00000000000E+00 -0.78186514446E+03  0.78186617591E+03  0.12700000000E+01 0.  1.
         25    2    1    2    0    0  0.00000000000E+00  0.00000000000E+00 -0.77695094687E+03  0.78694182740E+03  0.12499866348E+03 0.  0.
    9000005    1    3    3    0    0  0.10186076495E+02  0.20107397180E+01 -0.77642797777E+03  0.77649803856E+03  0.10000000000E+01 0.  0.
    9000005    1    3    3    0    0 -0.10186076495E+02 -0.20107397180E+01 -0.52296909660E+00  0.10443788836E+02  0.10000000000E+01 0.  0.
<mgrwt>
<rscale>  0 0.12499866E+03</rscale>
<asrwt>0</asrwt>
<pdfrwt beam="1">  1        4 0.76852989E-03 0.12499866E+03</pdfrwt>
<pdfrwt beam="2">  1       -4 0.12029935E+00 0.12499866E+03</pdfrwt>
<totfact> 0.38855531E+03</totfact>
</mgrwt>
</event>
<event>
 5    1  0.3225662E-002  0.1249975E+03  0.7818608E-02  0.1235073E+00
          4   -1    0    0  501    0  0.00000000000E+00  0.00000000000E+00  0.16731350600E+01  0.21005430081E+01  0.12700000000E+01 0. -1.
         -4   -1    0    0    0  501 -0.00000000000E+00 -0.00000000000E+00 -0.20697523464E+04  0.20697527360E+04  0.12700000000E+01 0. -1.
         25    2    1    2    0    0  0.00000000000E+00  0.00000000000E+00 -0.20680792113E+04  0.20718532790E+04  0.12499754201E+03 0.  0.
    9000005    1    3    3    0    0 -0.65260434772E+01  0.30166052489E+02 -0.19346846924E+04  0.19349311199E+04  0.10000000000E+01 0.  0.
    9000005    1    3    3    0    0  0.65260434772E+01 -0.30166052489E+02 -0.13339451894E+03  0.13692215909E+03  0.10000000000E+01 0.  0.
<mgrwt>
<rscale>  0 0.12499754E+03</rscale>
<asrwt>0</asrwt>
<pdfrwt beam="1">  1        4 0.29031456E-03 0.12499754E+03</pdfrwt>
<pdfrwt beam="2">  1       -4 0.31845453E+00 0.12499754E+03</pdfrwt>
<totfact> 0.89530041E+02</totfact>
</mgrwt>
</event>
<event>
 5    1  0.3225662E-002  0.1250002E+03  0.7818608E-02  0.1235069E+00
         -4   -1    0    0    0  501 -0.00000000000E+00  0.00000000000E+00  0.48087480583E+02  0.48104248137E+02  0.12700000000E+01 0.  1.
          4   -1    0    0  501    0  0.00000000000E+00 -0.00000000000E+00 -0.81196541760E+02  0.81206473225E+02  0.12700000000E+01 0.  1.
         25    2    1    2    0    0  0.00000000000E+00  0.00000000000E+00 -0.33109061177E+02  0.12931072136E+03  0.12500021091E+03 0.  0.
    9000005    1    3    3    0    0 -0.45411595984E+02  0.41224196882E+02 -0.28951764165E+02  0.67829581353E+02  0.10000000000E+01 0.  0.
    9000005    1    3    3    0    0  0.45411595984E+02 -0.41224196882E+02 -0.41572970120E+01  0.61481140009E+02  0.10000000000E+01 0.  0.
<mgrwt>
<rscale>  0 0.12500021E+03</rscale>
<asrwt>0</asrwt>
<pdfrwt beam="2">  1        4 0.12493829E-01 0.12500021E+03</pdfrwt>
<pdfrwt beam="1">  1       -4 0.74001277E-02 0.12500021E+03</pdfrwt>
<totfact> 0.10359225E+04</totfact>
</mgrwt>
</event>
<event>
 5    1  0.3225662E-002  0.1249990E+03  0.7818608E-02  0.1235071E+00
         -4   -1    0    0    0  501 -0.00000000000E+00  0.00000000000E+00  0.11751397500E+03  0.11752083739E+03  0.12700000000E+01 0. -1.
          4   -1    0    0  501    0  0.00000000000E+00 -0.00000000000E+00 -0.33220228592E+02  0.33244495600E+02  0.12700000000E+01 0. -1.
         25    2    1    2    0    0  0.00000000000E+00  0.00000000000E+00  0.84293746409E+02  0.15076533299E+03  0.12499899979E+03 0.  0.
    9000005    1    3    3    0    0  0.21660081346E+02 -0.58006395628E+02  0.52330404067E+02  0.81076335928E+02  0.10000000000E+01 0.  0.
    9000005    1    3    3    0    0 -0.21660081346E+02  0.58006395628E+02  0.31963342342E+02  0.69688997061E+02  0.10000000000E+01 0.  0.
<mgrwt>
<rscale>  0 0.12499900E+03</rscale>
<asrwt>0</asrwt>
<pdfrwt beam="2">  1        4 0.51131990E-02 0.12499900E+03</pdfrwt>
<pdfrwt beam="1">  1       -4 0.18081468E-01 0.12499900E+03</pdfrwt>
<totfact> 0.99153591E+03</totfact>
</mgrwt>
</event>
<event>
 5    1  0.3225662E-002  0.1249991E+03  0.7818608E-02  0.1235071E+00
          4   -1    0    0  501    0  0.00000000000E+00  0.00000000000E+00  0.56905060122E+03  0.56905201841E+03  0.12700000000E+01 0.  1.
         -4   -1    0    0    0  501 -0.00000000000E+00 -0.00000000000E+00 -0.68042254093E+01  0.69217326892E+01  0.12700000000E+01 0.  1.
         25    2    1    2    0    0  0.00000000000E+00  0.00000000000E+00  0.56224637581E+03  0.57597375109E+03  0.12499909934E+03 0.  0.
    9000005    1    3    3    0    0  0.34718501325E+02  0.23370564977E+02  0.67286624676E+02  0.79246750734E+02  0.10000000000E+01 0.  0.
    9000005    1    3    3    0    0 -0.34718501325E+02 -0.23370564977E+02  0.49495975114E+03  0.49672700036E+03  0.10000000000E+01 0.  0.
<mgrwt>
<rscale>  0 0.12499910E+03</rscale>
<asrwt>0</asrwt>
<pdfrwt beam="1">  1        4 0.87555420E-01 0.12499910E+03</pdfrwt>
<pdfrwt beam="2">  1       -4 0.10559516E-02 0.12499910E+03</pdfrwt>
<totfact> 0.50421193E+03</totfact>
</mgrwt>
</event>
<event>
 5    1  0.3225662E-002  0.1250011E+03  0.7818608E-02  0.1235068E+00
         -4   -1    0    0    0  501 -0.00000000000E+00  0.00000000000E+00  0.64829295162E+02  0.64841733561E+02  0.12700000000E+01 0.  1.
          4   -1    0    0  501    0  0.00000000000E+00 -0.00000000000E+00 -0.60230537202E+02  0.60243925101E+02  0.12700000000E+01 0.  1.
         25    2    1    2    0    0  0.00000000000E+00  0.00000000000E+00  0.45987579596E+01  0.12508565866E+03  0.12500109371E+03 0.  0.
    9000005    1    3    3    0    0 -0.39257091776E+02  0.31380010618E+02 -0.34867288353E+02  0.61176401644E+02  0.10000000000E+01 0.  0.
    9000005    1    3    3    0    0  0.39257091776E+02 -0.31380010618E+02  0.39466046312E+02  0.63909257018E+02  0.10000000000E+01 0.  0.
<mgrwt>
<rscale>  0 0.12500109E+03</rscale>
<asrwt>0</asrwt>
<pdfrwt beam="2">  1        4 0.92682232E-02 0.12500109E+03</pdfrwt>
<pdfrwt beam="1">  1       -4 0.99757243E-02 0.12500109E+03</pdfrwt>
<totfact> 0.10450744E+04</totfact>
</mgrwt>
</event>
<event>
 5    1  0.3225662E-002  0.1249996E+03  0.7818608E-02  0.1235070E+00
         -4   -1    0    0    0  501 -0.00000000000E+00  0.00000000000E+00  0.45226193311E+02  0.45244021278E+02  0.12700000000E+01 0. -1.
          4   -1    0    0  501    0  0.00000000000E+00 -0.00000000000E+00 -0.86331400420E+02  0.86340741244E+02  0.12700000000E+01 0. -1.
         25    2    1    2    0    0  0.00000000000E+00  0.00000000000E+00 -0.41105207109E+02  0.13158476252E+03  0.12499964671E+03 0.  0.
    9000005    1    3    3    0    0  0.52125847075E+02 -0.34441481405E+02 -0.22006807105E+02  0.66246653754E+02  0.10000000000E+01 0.  0.
    9000005    1    3    3    0    0 -0.52125847075E+02  0.34441481405E+02 -0.19098400005E+02  0.65338108768E+02  0.10000000000E+01 0.  0.
<mgrwt>
<rscale>  0 0.12499965E+03</rscale>
<asrwt>0</asrwt>
<pdfrwt beam="2">  1        4 0.13283844E-01 0.12499965E+03</pdfrwt>
<pdfrwt beam="1">  1       -4 0.69599658E-02 0.12499965E+03</pdfrwt>
<totfact> 0.10310651E+04</totfact>
</mgrwt>
</event>
<event>
 5    1  0.3225662E-002  0.1249979E+03  0.7818608E-02  0.1235073E+00
         -4   -1    0    0    0  501 -0.00000000000E+00  0.00000000000E+00  0.21774415414E+03  0.21774785776E+03  0.12700000000E+01 0.  1.
          4   -1    0    0  501    0  0.00000000000E+00 -0.00000000000E+00 -0.17912679286E+02  0.17957644033E+02  0.12700000000E+01 0.  1.
         25    2    1    2    0    0  0.00000000000E+00  0.00000000000E+00  0.19983147485E+03  0.23570550180E+03  0.12499786093E+03 0.  0.
    9000005    1    3    3    0    0  0.17952344276E+02 -0.33554540550E+02  0.64477560410E+01  0.38610457320E+02  0.10000000000E+01 0.  0.
    9000005    1    3    3    0    0 -0.17952344276E+02  0.33554540550E+02  0.19338371881E+03  0.19709504448E+03  0.10000000000E+01 0.  0.
<mgrwt>
<rscale>  0 0.12499786E+03</rscale>
<asrwt>0</asrwt>
<pdfrwt beam="2">  1        4 0.27595406E-02 0.12499786E+03</pdfrwt>
<pdfrwt beam="1">  1       -4 0.33502843E-01 0.12499786E+03</pdfrwt>
<totfact> 0.84445171E+03</totfact>
</mgrwt>
</event>
<event>
 5    1  0.3225662E-002  0.1249990E+03  0.7818608E-02  0.1235071E+00
          4   -1    0    0  501    0  0.00000000000E+00  0.00000000000E+00  0.66778780088E+03  0.66778900852E+03  0.12700000000E+01 0. -1.
         -4   -1    0    0    0  501 -0.00000000000E+00 -0.00000000000E+00 -0.57792791565E+01  0.59171756412E+01  0.12700000000E+01 0. -1.
         25    2    1    2    0    0  0.00000000000E+00  0.00000000000E+00  0.66200852172E+03  0.67370618416E+03  0.12499895898E+03 0.  0.
    9000005    1    3    3    0    0 -0.30896159314E+02 -0.50168476239E+02  0.21875667559E+03  0.22655447862E+03  0.10000000000E+01 0.  0.
    9000005    1    3    3    0    0  0.30896159314E+02  0.50168476239E+02  0.44325184613E+03  0.44715170554E+03  0.10000000000E+01 0.  0.
<mgrwt>
<rscale>  0 0.12499896E+03</rscale>
<asrwt>0</asrwt>
<pdfrwt beam="1">  1        4 0.10274727E+00 0.12499896E+03</pdfrwt>
<pdfrwt beam="2">  1       -4 0.89982034E-03 0.12499896E+03</pdfrwt>
<totfact> 0.44512546E+03</totfact>
</mgrwt>
</event>
<event>
 5    1  0.3225662E-002  0.1250089E+03  0.7818608E-02  0.1235055E+00
          4   -1    0    0  501    0  0.00000000000E+00  0.00000000000E+00  0.14367885452E+02  0.14423904893E+02  0.12700000000E+01 0.  1.
         -4   -1    0    0    0  501 -0.00000000000E+00 -0.00000000000E+00 -0.27132570841E+03  0.27132868065E+03  0.12700000000E+01 0.  1.
         25    2    1    2    0    0  0.00000000000E+00  0.00000000000E+00 -0.25695782296E+03  0.28575258554E+03  0.12500886915E+03 0.  0.
    9000005    1    3    3    0    0 -0.41247273010E+02 -0.16904175416E+02 -0.22860670657E+03  0.23291439407E+03  0.10000000000E+01 0.  0.
    9000005    1    3    3    0    0  0.41247273010E+02  0.16904175416E+02 -0.28351116383E+02  0.52838191466E+02  0.10000000000E+01 0.  0.
<mgrwt>
<rscale>  0 0.12500887E+03</rscale>
<asrwt>0</asrwt>
<pdfrwt beam="1">  1        4 0.22149819E-02 0.12500887E+03</pdfrwt>
<pdfrwt beam="2">  1       -4 0.41746951E-01 0.12500887E+03</pdfrwt>
<totfact> 0.77406232E+03</totfact>
</mgrwt>
</event>
<event>
 5    1  0.3225662E-002  0.1250417E+03  0.7818608E-02  0.1235004E+00
         -4   -1    0    0    0  501 -0.00000000000E+00  0.00000000000E+00  0.11345934611E+01  0.17029980393E+01  0.12700000000E+01 0.  1.
          4   -1    0    0  501    0  0.00000000000E+00 -0.00000000000E+00 -0.27544850637E+04  0.27544853565E+04  0.12700000000E+01 0.  1.
         25    2    1    2    0    0  0.00000000000E+00  0.00000000000E+00 -0.27533504703E+04  0.27561883546E+04  0.12504172746E+03 0.  0.
    9000005    1    3    3    0    0 -0.60767572268E+02  0.17691958471E+01 -0.16976368570E+04  0.16987253239E+04  0.10000000000E+01 0.  0.
    9000005    1    3    3    0    0  0.60767572268E+02 -0.17691958471E+01 -0.10557136133E+04  0.10574630307E+04  0.10000000000E+01 0.  0.
<mgrwt>
<rscale>  0 0.12504173E+03</rscale>
<asrwt>0</asrwt>
<pdfrwt beam="2">  1        4 0.42380640E+00 0.12504173E+03</pdfrwt>
<pdfrwt beam="1">  1       -4 0.21830100E-03 0.12504173E+03</pdfrwt>
<totfact> 0.29522559E+02</totfact>
</mgrwt>
</event>
<event>
 5    1  0.3225662E-002  0.1249994E+03  0.7818608E-02  0.1235070E+00
          4   -1    0    0  501    0  0.00000000000E+00  0.00000000000E+00  0.26289771654E+02  0.26320429207E+02  0.12700000000E+01 0.  1.
         -4   -1    0    0    0  501 -0.00000000000E+00 -0.00000000000E+00 -0.14846312267E+03  0.14846855456E+03  0.12700000000E+01 0.  1.
         25    2    1    2    0    0  0.00000000000E+00  0.00000000000E+00 -0.12217335101E+03  0.17478898376E+03  0.12499944459E+03 0.  0.
    9000005    1    3    3    0    0 -0.22890401686E+02  0.58073844014E+02 -0.56968530500E+02  0.84516006266E+02  0.10000000000E+01 0.  0.
    9000005    1    3    3    0    0  0.22890401686E+02 -0.58073844014E+02 -0.65204820512E+02  0.90272977496E+02  0.10000000000E+01 0.  0.
<mgrwt>
<rscale>  0 0.12499944E+03</rscale>
<asrwt>0</asrwt>
<pdfrwt beam="1">  1        4 0.40473565E-02 0.12499944E+03</pdfrwt>
<pdfrwt beam="2">  1       -4 0.22843256E-01 0.12499944E+03</pdfrwt>
<totfact> 0.94564680E+03</totfact>
</mgrwt>
</event>
<event>
 5    1  0.3225662E-002  0.1249929E+03  0.7818608E-02  0.1235080E+00
          4   -1    0    0  501    0  0.00000000000E+00  0.00000000000E+00  0.62256284175E+02  0.62269236540E+02  0.12700000000E+01 0. -1.
         -4   -1    0    0    0  501 -0.00000000000E+00 -0.00000000000E+00 -0.62711634063E+02  0.62724492400E+02  0.12700000000E+01 0. -1.
         25    2    1    2    0    0  0.00000000000E+00  0.00000000000E+00 -0.45534988795E+00  0.12499372894E+03  0.12499289952E+03 0.  0.
    9000005    1    3    3    0    0 -0.39271169811E+02  0.48402623574E+02 -0.46737684946E+01  0.62513061509E+02  0.10000000000E+01 0.  0.
    9000005    1    3    3    0    0  0.39271169811E+02 -0.48402623574E+02  0.42184186067E+01  0.62480667432E+02  0.10000000000E+01 0.  0.
<mgrwt>
<rscale>  0 0.12499290E+03</rscale>
<asrwt>0</asrwt>
<pdfrwt beam="1">  1        4 0.95798753E-02 0.12499290E+03</pdfrwt>
<pdfrwt beam="2">  1       -4 0.96499291E-02 0.12499290E+03</pdfrwt>
<totfact> 0.10454676E+04</totfact>
</mgrwt>
</event>
<event>
 5    1  0.3225662E-002  0.1249956E+03  0.7818608E-02  0.1235076E+00
          4   -1    0    0  501    0  0.00000000000E+00  0.00000000000E+00  0.30352423988E+02  0.30378981911E+02  0.12700000000E+01 0.  1.
         -4   -1    0    0    0  501 -0.00000000000E+00 -0.00000000000E+00 -0.12860135116E+03  0.12860762194E+03  0.12700000000E+01 0.  1.
         25    2    1    2    0    0  0.00000000000E+00  0.00000000000E+00 -0.98248927172E+02  0.15898660385E+03  0.12499555397E+03 0.  0.
    9000005    1    3    3    0    0  0.23691622224E+02  0.33545141605E+02  0.10783720187E+02  0.42471850795E+02  0.10000000000E+01 0.  0.
    9000005    1    3    3    0    0 -0.23691622224E+02 -0.33545141605E+02 -0.10903264736E+03  0.11651475305E+03  0.10000000000E+01 0.  0.
<mgrwt>
<rscale>  0 0.12499555E+03</rscale>
<asrwt>0</asrwt>
<pdfrwt beam="1">  1        4 0.46721291E-02 0.12499555E+03</pdfrwt>
<pdfrwt beam="2">  1       -4 0.19787348E-01 0.12499555E+03</pdfrwt>
<totfact> 0.97548265E+03</totfact>
</mgrwt>
</event>
<event>
 5    1  0.3225662E-002  0.1249979E+03  0.7818608E-02  0.1235073E+00
         -4   -1    0    0    0  501 -0.00000000000E+00  0.00000000000E+00  0.94063820533E+02  0.94072393576E+02  0.12700000000E+01 0. -1.
          4   -1    0    0  501    0  0.00000000000E+00 -0.00000000000E+00 -0.41506066075E+02  0.41525491220E+02  0.12700000000E+01 0. -1.
         25    2    1    2    0    0  0.00000000000E+00  0.00000000000E+00  0.52557754457E+02  0.13559788480E+03  0.12499787521E+03 0.  0.
    9000005    1    3    3    0    0 -0.44092679620E+02 -0.19711723362E+02 -0.16737309423E+02  0.51125863912E+02  0.10000000000E+01 0.  0.
    9000005    1    3    3    0    0  0.44092679620E+02  0.19711723362E+02  0.69295063881E+02  0.84472020884E+02  0.10000000000E+01 0.  0.
<mgrwt>
<rscale>  0 0.12499788E+03</rscale>
<asrwt>0</asrwt>
<pdfrwt beam="2">  1        4 0.63877025E-02 0.12499788E+03</pdfrwt>
<pdfrwt beam="1">  1       -4 0.14473510E-01 0.12499788E+03</pdfrwt>
<totfact> 0.10225974E+04</totfact>
</mgrwt>
</event>
<event>
 5    1  0.3225662E-002  0.1249954E+03  0.7818608E-02  0.1235076E+00
         -4   -1    0    0    0  501 -0.00000000000E+00  0.00000000000E+00  0.37123869993E+03  0.37124087225E+03  0.12700000000E+01 0.  1.
          4   -1    0    0  501    0  0.00000000000E+00 -0.00000000000E+00 -0.10480894818E+02  0.10557559196E+02  0.12700000000E+01 0.  1.
         25    2    1    2    0    0  0.00000000000E+00  0.00000000000E+00  0.36075780511E+03  0.38179843144E+03  0.12499539312E+03 0.  0.
    9000005    1    3    3    0    0 -0.51582311201E+02  0.35323361677E+01  0.73177271851E+02  0.89605386798E+02  0.10000000000E+01 0.  0.
    9000005    1    3    3    0    0  0.51582311201E+02 -0.35323361677E+01  0.28758053326E+03  0.29219304464E+03  0.10000000000E+01 0.  0.
<mgrwt>
<rscale>  0 0.12499539E+03</rscale>
<asrwt>0</asrwt>
<pdfrwt beam="2">  1        4 0.16185098E-02 0.12499539E+03</pdfrwt>
<pdfrwt beam="1">  1       -4 0.57119708E-01 0.12499539E+03</pdfrwt>
<totfact> 0.66369156E+03</totfact>
</mgrwt>
</event>
<event>
 5    1  0.3225662E-002  0.1249979E+03  0.7818608E-02  0.1235073E+00
          4   -1    0    0  501    0  0.00000000000E+00  0.00000000000E+00  0.15818647997E+02  0.15869547077E+02  0.12700000000E+01 0.  1.
         -4   -1    0    0    0  501 -0.00000000000E+00 -0.00000000000E+00 -0.24648224454E+03  0.24648551635E+03  0.12700000000E+01 0.  1.
         25    2    1    2    0    0  0.00000000000E+00  0.00000000000E+00 -0.23066359654E+03  0.26235506343E+03  0.12499793814E+03 0.  0.
    9000005    1    3    3    0    0 -0.24001478858E+02 -0.25188830601E+02 -0.63807094387E+01  0.35387308846E+02  0.10000000000E+01 0.  0.
    9000005    1    3    3    0    0  0.24001478858E+02  0.25188830601E+02 -0.22428288710E+03  0.22696775458E+03  0.10000000000E+01 0.  0.
<mgrwt>
<rscale>  0 0.12499794E+03</rscale>
<asrwt>0</asrwt>
<pdfrwt beam="1">  1        4 0.24378053E-02 0.12499794E+03</pdfrwt>
<pdfrwt beam="2">  1       -4 0.37924509E-01 0.12499794E+03</pdfrwt>
<totfact> 0.80580392E+03</totfact>
</mgrwt>
</event>
<event>
 5    1  0.3225662E-002  0.1249921E+03  0.7818608E-02  0.1235082E+00
         -4   -1    0    0    0  501 -0.00000000000E+00  0.00000000000E+00  0.93185574533E+02  0.93194228368E+02  0.12700000000E+01 0.  1.
          4   -1    0    0  501    0  0.00000000000E+00 -0.00000000000E+00 -0.41893514274E+02  0.41912759850E+02  0.12700000000E+01 0.  1.
         25    2    1    2    0    0  0.00000000000E+00  0.00000000000E+00  0.51292060259E+02  0.13510698822E+03  0.12499209103E+03 0.  0.
    9000005    1    3    3    0    0 -0.33928736854E+02 -0.51717007936E+02  0.16041750979E+02  0.63907322498E+02  0.10000000000E+01 0.  0.
    9000005    1    3    3    0    0  0.33928736854E+02  0.51717007936E+02  0.35250309279E+02  0.71199665720E+02  0.10000000000E+01 0.  0.
<mgrwt>
<rscale>  0 0.12499209E+03</rscale>
<asrwt>0</asrwt>
<pdfrwt beam="2">  1        4 0.64473022E-02 0.12499209E+03</pdfrwt>
<pdfrwt beam="1">  1       -4 0.14338388E-01 0.12499209E+03</pdfrwt>
<totfact> 0.10237642E+04</totfact>
</mgrwt>
</event>
<event>
 5    1  0.3225662E-002  0.1250015E+03  0.7818608E-02  0.1235067E+00
          4   -1    0    0  501    0  0.00000000000E+00  0.00000000000E+00  0.79245430229E+02  0.79255606188E+02  0.12700000000E+01 0. -1.
         -4   -1    0    0    0  501 -0.00000000000E+00 -0.00000000000E+00 -0.49272693551E+02  0.49289057911E+02  0.12700000000E+01 0. -1.
         25    2    1    2    0    0  0.00000000000E+00  0.00000000000E+00  0.29972736678E+02  0.12854466410E+03  0.12500146289E+03 0.  0.
    9000005    1    3    3    0    0  0.43816436105E+02 -0.33363574098E+02  0.45358843058E+02  0.71354276628E+02  0.10000000000E+01 0.  0.
    9000005    1    3    3    0    0 -0.43816436105E+02  0.33363574098E+02 -0.15386106380E+02  0.57190387471E+02  0.10000000000E+01 0.  0.
<mgrwt>
<rscale>  0 0.12500146E+03</rscale>
<asrwt>0</asrwt>
<pdfrwt beam="1">  1        4 0.12193646E-01 0.12500146E+03</pdfrwt>
<pdfrwt beam="2">  1       -4 0.75824560E-02 0.12500146E+03</pdfrwt>
<totfact> 0.10375399E+04</totfact>
</mgrwt>
</event>
<event>
 5    1  0.3225662E-002  0.1250000E+03  0.7818608E-02  0.1235069E+00
          4   -1    0    0  501    0  0.00000000000E+00  0.00000000000E+00  0.32880439269E+03  0.32880684536E+03  0.12700000000E+01 0.  1.
         -4   -1    0    0    0  501 -0.00000000000E+00 -0.00000000000E+00 -0.11843713691E+02  0.11911610051E+02  0.12700000000E+01 0.  1.
         25    2    1    2    0    0  0.00000000000E+00  0.00000000000E+00  0.31696067900E+03  0.34071845541E+03  0.12499997529E+03 0.  0.
    9000005    1    3    3    0    0 -0.26431983893E+02 -0.46583398439E+02  0.24623866584E+03  0.25199830027E+03  0.10000000000E+01 0.  0.
    9000005    1    3    3    0    0  0.26431983893E+02  0.46583398439E+02  0.70722013157E+02  0.88720155138E+02  0.10000000000E+01 0.  0.
<mgrwt>
<rscale>  0 0.12499998E+03</rscale>
<asrwt>0</asrwt>
<pdfrwt beam="1">  1        4 0.50590700E-01 0.12499998E+03</pdfrwt>
<pdfrwt beam="2">  1       -4 0.18275214E-02 0.12499998E+03</pdfrwt>
<totfact> 0.70757894E+03</totfact>
</mgrwt>
</event>
<event>
 5    1  0.3225662E-002  0.1250022E+03  0.7818608E-02  0.1235066E+00
         -4   -1    0    0    0  501 -0.00000000000E+00  0.00000000000E+00  0.12202224575E+03  0.12202885461E+03  0.12700000000E+01 0. -1.
          4   -1    0    0  501    0  0.00000000000E+00 -0.00000000000E+00 -0.31993682543E+02  0.32018879160E+02  0.12700000000E+01 0. -1.
         25    2    1    2    0    0  0.00000000000E+00  0.00000000000E+00  0.90028563204E+02  0.15404773377E+03  0.12500224833E+03 0.  0.
    9000005    1    3    3    0    0 -0.49315669350E+02 -0.37903120148E+02  0.52480872468E+02  0.81387491271E+02  0.10000000000E+01 0.  0.
    9000005    1    3    3    0    0  0.49315669350E+02  0.37903120148E+02  0.37547690735E+02  0.72660242498E+02  0.10000000000E+01 0.  0.
<mgrwt>
<rscale>  0 0.12500225E+03</rscale>
<asrwt>0</asrwt>
<pdfrwt beam="2">  1        4 0.49245515E-02 0.12500225E+03</pdfrwt>
<pdfrwt beam="1">  1       -4 0.18775100E-01 0.12500225E+03</pdfrwt>
<totfact> 0.98497784E+03</totfact>
</mgrwt>
</event>
<event>
 5    1  0.3225662E-002  0.1249990E+03  0.7818608E-02  0.1235071E+00
          4   -1    0    0  501    0  0.00000000000E+00  0.00000000000E+00  0.83698868721E+02  0.83708503302E+02  0.12700000000E+01 0.  1.
         -4   -1    0    0    0  501 -0.00000000000E+00 -0.00000000000E+00 -0.46648556649E+02  0.46665841227E+02  0.12700000000E+01 0.  1.
         25    2    1    2    0    0  0.00000000000E+00  0.00000000000E+00  0.37050312071E+02  0.13037434453E+03  0.12499897634E+03 0.  0.
    9000005    1    3    3    0    0 -0.14868549251E+02  0.13420852496E+01 -0.44766421191E+02  0.47200714146E+02  0.10000000000E+01 0.  0.
    9000005    1    3    3    0    0  0.14868549251E+02 -0.13420852496E+01  0.81816733262E+02  0.83173630384E+02  0.10000000000E+01 0.  0.
<mgrwt>
<rscale>  0 0.12499898E+03</rscale>
<asrwt>0</asrwt>
<pdfrwt beam="1">  1        4 0.12878820E-01 0.12499898E+03</pdfrwt>
<pdfrwt beam="2">  1       -4 0.71787718E-02 0.12499898E+03</pdfrwt>
<totfact> 0.10336745E+04</totfact>
</mgrwt>
</event>
<event>
 5    1  0.3225662E-002  0.1249997E+03  0.7818608E-02  0.1235070E+00
          4   -1    0    0  501    0  0.00000000000E+00  0.00000000000E+00  0.31669538445E+03  0.31669793089E+03  0.12700000000E+01 0.  1.
         -4   -1    0    0    0  501 -0.00000000000E+00 -0.00000000000E+00 -0.12299061203E+02  0.12364457387E+02  0.12700000000E+01 0.  1.
         25    2    1    2    0    0  0.00000000000E+00  0.00000000000E+00  0.30439632324E+03  0.32906238828E+03  0.12499973510E+03 0.  0.
    9000005    1    3    3    0    0  0.29514100631E+02  0.32161715479E+00  0.29720228999E+03  0.29866601204E+03  0.10000000000E+01 0.  0.
    9000005    1    3    3    0    0 -0.29514100631E+02 -0.32161715479E+00  0.71940332512E+01  0.30396376232E+02  0.10000000000E+01 0.  0.
<mgrwt>
<rscale>  0 0.12499974E+03</rscale>
<asrwt>0</asrwt>
<pdfrwt beam="1">  1        4 0.48727591E-01 0.12499974E+03</pdfrwt>
<pdfrwt beam="2">  1       -4 0.18973897E-02 0.12499974E+03</pdfrwt>
<totfact> 0.72091505E+03</totfact>
</mgrwt>
</event>
<event>
 5    1  0.3225662E-002  0.1249996E+03  0.7818608E-02  0.1235070E+00
          4   -1    0    0  501    0  0.00000000000E+00  0.00000000000E+00  0.95533783975E+02  0.95542225118E+02  0.12700000000E+01 0.  1.
         -4   -1    0    0    0  501 -0.00000000000E+00 -0.00000000000E+00 -0.40868309867E+02  0.40888037998E+02  0.12700000000E+01 0.  1.
         25    2    1    2    0    0  0.00000000000E+00  0.00000000000E+00  0.54665474108E+02  0.13643026312E+03  0.12499961054E+03 0.  0.
    9000005    1    3    3    0    0  0.11237158765E+02 -0.29290589938E+02 -0.31655962405E+02  0.44579281643E+02  0.10000000000E+01 0.  0.
    9000005    1    3    3    0    0 -0.11237158765E+02  0.29290589938E+02  0.86321436513E+02  0.91850981473E+02  0.10000000000E+01 0.  0.
<mgrwt>
<rscale>  0 0.12499961E+03</rscale>
<asrwt>0</asrwt>
<pdfrwt beam="1">  1        4 0.14699672E-01 0.12499961E+03</pdfrwt>
<pdfrwt beam="2">  1       -4 0.62895992E-02 0.12499961E+03</pdfrwt>
<totfact> 0.10208101E+04</totfact>
</mgrwt>
</event>
<event>
 5    1  0.3225662E-002  0.1249957E+03  0.7818608E-02  0.1235076E+00
          4   -1    0    0  501    0  0.00000000000E+00  0.00000000000E+00  0.70687204448E+01  0.71819014701E+01  0.12700000000E+01 0. -1.
         -4   -1    0    0    0  501 -0.00000000000E+00 -0.00000000000E+00 -0.54807037984E+03  0.54807185127E+03  0.12700000000E+01 0. -1.
         25    2    1    2    0    0  0.00000000000E+00  0.00000000000E+00 -0.54100165939E+03  0.55525375274E+03  0.12499573780E+03 0.  0.
    9000005    1    3    3    0    0 -0.19438821649E+02 -0.17985140501E+02 -0.19069804014E+02  0.32649509814E+02  0.10000000000E+01 0.  0.
    9000005    1    3    3    0    0  0.19438821649E+02  0.17985140501E+02 -0.52193185538E+03  0.52260424293E+03  0.10000000000E+01 0.  0.
<mgrwt>
<rscale>  0 0.12499574E+03</rscale>
<asrwt>0</asrwt>
<pdfrwt beam="1">  1        4 0.10963153E-02 0.12499574E+03</pdfrwt>
<pdfrwt beam="2">  1       -4 0.84327307E-01 0.12499574E+03</pdfrwt>
<totfact> 0.51824555E+03</totfact>
</mgrwt>
</event>
<event>
 5    1  0.3225662E-002  0.1249998E+03  0.7818608E-02  0.1235070E+00
          4   -1    0    0  501    0  0.00000000000E+00  0.00000000000E+00  0.88152382992E+01  0.89062520889E+01  0.12700000000E+01 0. -1.
         -4   -1    0    0    0  501 -0.00000000000E+00 -0.00000000000E+00 -0.44075567923E+03  0.44075750893E+03  0.12700000000E+01 0. -1.
         25    2    1    2    0    0  0.00000000000E+00  0.00000000000E+00 -0.43194044093E+03  0.44966376102E+03  0.12499981383E+03 0.  0.
    9000005    1    3    3    0    0  0.61584618079E+02  0.95031949535E+01 -0.19899696460E+03  0.20852761884E+03  0.10000000000E+01 0.  0.
    9000005    1    3    3    0    0 -0.61584618079E+02 -0.95031949535E+01 -0.23294347633E+03  0.24113614218E+03  0.10000000000E+01 0.  0.
<mgrwt>
<rscale>  0 0.12499981E+03</rscale>
<asrwt>0</asrwt>
<pdfrwt beam="1">  1        4 0.13633327E-02 0.12499981E+03</pdfrwt>
<pdfrwt beam="2">  1       -4 0.67815691E-01 0.12499981E+03</pdfrwt>
<totfact> 0.59993188E+03</totfact>
</mgrwt>
</event>
<event>
 5    1  0.3225662E-002  0.1250000E+03  0.7818608E-02  0.1235069E+00
          4   -1    0    0  501    0  0.00000000000E+00  0.00000000000E+00  0.44030000963E+02  0.44048313076E+02  0.12700000000E+01 0.  1.
         -4   -1    0    0    0  501 -0.00000000000E+00 -0.00000000000E+00 -0.88676683048E+02  0.88685776855E+02  0.12700000000E+01 0.  1.
         25    2    1    2    0    0  0.00000000000E+00  0.00000000000E+00 -0.44646682085E+02  0.13273408993E+03  0.12500004963E+03 0.  0.
    9000005    1    3    3    0    0  0.24194274440E+02 -0.18677703119E+02 -0.80203014488E+02  0.85835558147E+02  0.10000000000E+01 0.  0.
    9000005    1    3    3    0    0 -0.24194274440E+02  0.18677703119E+02  0.35556332403E+02  0.46898531784E+02  0.10000000000E+01 0.  0.
<mgrwt>
<rscale>  0 0.12500005E+03</rscale>
<asrwt>0</asrwt>
<pdfrwt beam="1">  1        4 0.67759544E-02 0.12500005E+03</pdfrwt>
<pdfrwt beam="2">  1       -4 0.13644675E-01 0.12500005E+03</pdfrwt>
<totfact> 0.10286043E+04</totfact>
</mgrwt>
</event>
<event>
 5    1  0.3225662E-002  0.1249978E+03  0.7818608E-02  0.1235073E+00
          4   -1    0    0  501    0  0.00000000000E+00  0.00000000000E+00  0.62669382150E+02  0.62682249155E+02  0.12700000000E+01 0.  1.
         -4   -1    0    0    0  501 -0.00000000000E+00 -0.00000000000E+00 -0.62303130850E+02  0.62316073478E+02  0.12700000000E+01 0.  1.
         25    2    1    2    0    0  0.00000000000E+00  0.00000000000E+00  0.36625130066E+00  0.12499832263E+03  0.12499778606E+03 0.  0.
    9000005    1    3    3    0    0  0.54039039188E+02  0.86787864735E+01 -0.29976124144E+02  0.62410793215E+02  0.10000000000E+01 0.  0.
    9000005    1    3    3    0    0 -0.54039039188E+02 -0.86787864735E+01  0.30342375444E+02  0.62587529418E+02  0.10000000000E+01 0.  0.
<mgrwt>
<rscale>  0 0.12499779E+03</rscale>
<asrwt>0</asrwt>
<pdfrwt beam="1">  1        4 0.96434287E-02 0.12499779E+03</pdfrwt>
<pdfrwt beam="2">  1       -4 0.95870824E-02 0.12499779E+03</pdfrwt>
<totfact> 0.10453422E+04</totfact>
</mgrwt>
</event>
<event>
 5    1  0.3225662E-002  0.1249978E+03  0.7818608E-02  0.1235073E+00
         -4   -1    0    0    0  501 -0.00000000000E+00  0.00000000000E+00  0.91771031922E+02  0.91779819133E+02  0.12700000000E+01 0.  1.
          4   -1    0    0  501    0  0.00000000000E+00 -0.00000000000E+00 -0.42543402442E+02  0.42562354157E+02  0.12700000000E+01 0.  1.
         25    2    1    2    0    0  0.00000000000E+00  0.00000000000E+00  0.49227629480E+02  0.13434217329E+03  0.12499784006E+03 0.  0.
    9000005    1    3    3    0    0  0.36186927943E+02  0.36112546956E+02 -0.14010246882E+02  0.53017891502E+02  0.10000000000E+01 0.  0.
    9000005    1    3    3    0    0 -0.36186927943E+02 -0.36112546956E+02  0.63237876362E+02  0.81324281788E+02  0.10000000000E+01 0.  0.
<mgrwt>
<rscale>  0 0.12499784E+03</rscale>
<asrwt>0</asrwt>
<pdfrwt beam="2">  1        4 0.65472726E-02 0.12499784E+03</pdfrwt>
<pdfrwt beam="1">  1       -4 0.14120754E-01 0.12499784E+03</pdfrwt>
<totfact> 0.10252454E+04</totfact>
</mgrwt>
</event>
<event>
 5    1  0.3225662E-002  0.1249953E+03  0.7818608E-02  0.1235077E+00
          4   -1    0    0  501    0  0.00000000000E+00  0.00000000000E+00  0.10933891209E+03  0.10934628753E+03  0.12700000000E+01 0. -1.
         -4   -1    0    0    0  501 -0.00000000000E+00 -0.00000000000E+00 -0.35703529314E+02  0.35726109576E+02  0.12700000000E+01 0. -1.
         25    2    1    2    0    0  0.00000000000E+00  0.00000000000E+00  0.73635382779E+02  0.14507239711E+03  0.12499532314E+03 0.  0.
    9000005    1    3    3    0    0  0.48023056467E+02 -0.79804563073E+01 -0.86552602095E+01  0.49455183395E+02  0.10000000000E+01 0.  0.
    9000005    1    3    3    0    0 -0.48023056467E+02  0.79804563073E+01  0.82290642988E+02  0.95617213716E+02  0.10000000000E+01 0.  0.
<mgrwt>
<rscale>  0 0.12499532E+03</rscale>
<asrwt>0</asrwt>
<pdfrwt beam="1">  1        4 0.16823675E-01 0.12499532E+03</pdfrwt>
<pdfrwt beam="2">  1       -4 0.54951550E-02 0.12499532E+03</pdfrwt>
<totfact> 0.10030574E+04</totfact>
</mgrwt>
</event>
<event>
 5    1  0.3225662E-002  0.1250028E+03  0.7818608E-02  0.1235065E+00
          4   -1    0    0  501    0  0.00000000000E+00  0.00000000000E+00  0.10863456090E+03  0.10864198416E+03  0.12700000000E+01 0.  1.
         -4   -1    0    0    0  501 -0.00000000000E+00 -0.00000000000E+00 -0.35939477897E+02  0.35961910010E+02  0.12700000000E+01 0.  1.
         25    2    1    2    0    0  0.00000000000E+00  0.00000000000E+00  0.72695083001E+02  0.14460389417E+03  0.12500284443E+03 0.  0.
    9000005    1    3    3    0    0 -0.44157542702E+02 -0.44180162089E+02  0.34136718531E+02  0.71190525014E+02  0.10000000000E+01 0.  0.
    9000005    1    3    3    0    0  0.44157542702E+02  0.44180162089E+02  0.38558364470E+02  0.73413369153E+02  0.10000000000E+01 0.  0.
<mgrwt>
<rscale>  0 0.12500284E+03</rscale>
<asrwt>0</asrwt>
<pdfrwt beam="1">  1        4 0.16715306E-01 0.12500284E+03</pdfrwt>
<pdfrwt beam="2">  1       -4 0.55314471E-02 0.12500284E+03</pdfrwt>
<totfact> 0.10038400E+04</totfact>
</mgrwt>
</event>
<event>
 5    1  0.3225662E-002  0.1249912E+03  0.7818608E-02  0.1235083E+00
          4   -1    0    0  501    0  0.00000000000E+00  0.00000000000E+00  0.37744610559E+02  0.37765970480E+02  0.12700000000E+01 0. -1.
         -4   -1    0    0    0  501 -0.00000000000E+00 -0.00000000000E+00 -0.10342249410E+03  0.10343029143E+03  0.12700000000E+01 0. -1.
         25    2    1    2    0    0  0.00000000000E+00  0.00000000000E+00 -0.65677883543E+02  0.14119626191E+03  0.12499119966E+03 0.  0.
    9000005    1    3    3    0    0 -0.72550704534E+01  0.30334848310E+02 -0.94005697431E+02  0.99050038964E+02  0.10000000000E+01 0.  0.
    9000005    1    3    3    0    0  0.72550704534E+01 -0.30334848310E+02  0.28327813888E+02  0.42146222950E+02  0.10000000000E+01 0.  0.
<mgrwt>
<rscale>  0 0.12499120E+03</rscale>
<asrwt>0</asrwt>
<pdfrwt beam="1">  1        4 0.58091061E-02 0.12499120E+03</pdfrwt>
<pdfrwt beam="2">  1       -4 0.15913396E-01 0.12499120E+03</pdfrwt>
<totfact> 0.10110857E+04</totfact>
</mgrwt>
</event>
<event>
 5    1  0.3225662E-002  0.1249953E+03  0.7818608E-02  0.1235077E+00
         -4   -1    0    0    0  501 -0.00000000000E+00  0.00000000000E+00  0.89476154016E+03  0.89476244146E+03  0.12700000000E+01 0. -1.
          4   -1    0    0  501    0  0.00000000000E+00 -0.00000000000E+00 -0.42720676030E+01  0.44568443550E+01  0.12700000000E+01 0. -1.
         25    2    1    2    0    0  0.00000000000E+00  0.00000000000E+00  0.89048947256E+03  0.89921928581E+03  0.12499529291E+03 0.  0.
    9000005    1    3    3    0    0  0.88674086732E+01 -0.56364272656E+02  0.26191793079E+03  0.26806261328E+03  0.10000000000E+01 0.  0.
    9000005    1    3    3    0    0 -0.88674086732E+01  0.56364272656E+02  0.62857154177E+03  0.63115667254E+03  0.10000000000E+01 0.  0.
<mgrwt>
<rscale>  0 0.12499529E+03</rscale>
<asrwt>0</asrwt>
<pdfrwt beam="2">  1        4 0.67152297E-03 0.12499529E+03</pdfrwt>
<pdfrwt beam="1">  1       -4 0.13767014E+00 0.12499529E+03</pdfrwt>
<totfact> 0.34193283E+03</totfact>
</mgrwt>
</event>
<event>
 5    1  0.3225662E-002  0.1249962E+03  0.7818608E-02  0.1235075E+00
          4   -1    0    0  501    0  0.00000000000E+00  0.00000000000E+00  0.37778685113E+02  0.37800025779E+02  0.12700000000E+01 0.  1.
         -4   -1    0    0    0  501 -0.00000000000E+00 -0.00000000000E+00 -0.10333759436E+03  0.10334539810E+03  0.12700000000E+01 0.  1.
         25    2    1    2    0    0  0.00000000000E+00  0.00000000000E+00 -0.65558909252E+02  0.14114542388E+03  0.12499624035E+03 0.  0.
    9000005    1    3    3    0    0  0.58193202478E+02 -0.14351756222E+02 -0.52744012052E+02  0.79845804703E+02  0.10000000000E+01 0.  0.
    9000005    1    3    3    0    0 -0.58193202478E+02  0.14351756222E+02 -0.12814897199E+02  0.61299619179E+02  0.10000000000E+01 0.  0.
<mgrwt>
<rscale>  0 0.12499624E+03</rscale>
<asrwt>0</asrwt>
<pdfrwt beam="1">  1        4 0.58143473E-02 0.12499624E+03</pdfrwt>
<pdfrwt beam="2">  1       -4 0.15900333E-01 0.12499624E+03</pdfrwt>
<totfact> 0.10110758E+04</totfact>
</mgrwt>
</event>
<event>
 5    1  0.3225662E-002  0.1250009E+03  0.7818608E-02  0.1235068E+00
          4   -1    0    0  501    0  0.00000000000E+00  0.00000000000E+00  0.19604726872E+03  0.19605138223E+03  0.12700000000E+01 0. -1.
         -4   -1    0    0    0  501 -0.00000000000E+00 -0.00000000000E+00 -0.19900749761E+02  0.19941232185E+02  0.12700000000E+01 0. -1.
         25    2    1    2    0    0  0.00000000000E+00  0.00000000000E+00  0.17614651896E+03  0.21599261441E+03  0.12500085335E+03 0.  0.
    9000005    1    3    3    0    0  0.21566265965E+02 -0.41587169808E+02  0.15954160298E+03  0.16628024417E+03  0.10000000000E+01 0.  0.
    9000005    1    3    3    0    0 -0.21566265965E+02  0.41587169808E+02  0.16604915983E+02  0.49712370243E+02  0.10000000000E+01 0.  0.
<mgrwt>
<rscale>  0 0.12500085E+03</rscale>
<asrwt>0</asrwt>
<pdfrwt beam="1">  1        4 0.30164550E-01 0.12500085E+03</pdfrwt>
<pdfrwt beam="2">  1       -4 0.30650841E-02 0.12500085E+03</pdfrwt>
<totfact> 0.87504794E+03</totfact>
</mgrwt>
</event>
<event>
 5    1  0.3225662E-002  0.1250076E+03  0.7818608E-02  0.1235057E+00
          4   -1    0    0  501    0  0.00000000000E+00  0.00000000000E+00  0.97060188756E+01  0.97887538744E+01  0.12700000000E+01 0.  1.
         -4   -1    0    0    0  501 -0.00000000000E+00 -0.00000000000E+00 -0.40071375761E+03  0.40071577014E+03  0.12700000000E+01 0.  1.
         25    2    1    2    0    0  0.00000000000E+00  0.00000000000E+00 -0.39100773873E+03  0.41050452401E+03  0.12500764971E+03 0.  0.
    9000005    1    3    3    0    0 -0.53065219471E+02  0.11734270150E+02 -0.29683120735E+03  0.30176708944E+03  0.10000000000E+01 0.  0.
    9000005    1    3    3    0    0  0.53065219471E+02 -0.11734270150E+02 -0.94176531383E+02  0.10873743457E+03  0.10000000000E+01 0.  0.
<mgrwt>
<rscale>  0 0.12500765E+03</rscale>
<asrwt>0</asrwt>
<pdfrwt beam="1">  1        4 0.14997530E-02 0.12500765E+03</pdfrwt>
<pdfrwt beam="2">  1       -4 0.61654777E-01 0.12500765E+03</pdfrwt>
<totfact> 0.63533076E+03</totfact>
</mgrwt>
</event>
<event>
 5    1  0.3225662E-002  0.1249995E+03  0.7818608E-02  0.1235070E+00
         -4   -1    0    0    0  501 -0.00000000000E+00  0.00000000000E+00  0.20826336883E+02  0.20865023555E+02  0.12700000000E+01 0.  1.
          4   -1    0    0  501    0  0.00000000000E+00 -0.00000000000E+00 -0.18734669665E+03  0.18735100118E+03  0.12700000000E+01 0.  1.
         25    2    1    2    0    0  0.00000000000E+00  0.00000000000E+00 -0.16652035977E+03  0.20821602474E+03  0.12499953097E+03 0.  0.
    9000005    1    3    3    0    0 -0.12394278720E+02  0.52324425674E+02 -0.30223942692E+02  0.61692385096E+02  0.10000000000E+01 0.  0.
    9000005    1    3    3    0    0  0.12394278720E+02 -0.52324425674E+02 -0.13629641707E+03  0.14652363964E+03  0.10000000000E+01 0.  0.
<mgrwt>
<rscale>  0 0.12499953E+03</rscale>
<asrwt>0</asrwt>
<pdfrwt beam="2">  1        4 0.28825875E-01 0.12499953E+03</pdfrwt>
<pdfrwt beam="1">  1       -4 0.32073590E-02 0.12499953E+03</pdfrwt>
<totfact> 0.88768990E+03</totfact>
</mgrwt>
</event>
<event>
 5    1  0.3225662E-002  0.1250003E+03  0.7818608E-02  0.1235069E+00
         -4   -1    0    0    0  501 -0.00000000000E+00  0.00000000000E+00  0.75549153876E+03  0.75549260621E+03  0.12700000000E+01 0. -1.
          4   -1    0    0  501    0  0.00000000000E+00 -0.00000000000E+00 -0.50914231704E+01  0.52474269790E+01  0.12700000000E+01 0. -1.
         25    2    1    2    0    0  0.00000000000E+00  0.00000000000E+00  0.75040011559E+03  0.76074003319E+03  0.12500025848E+03 0.  0.
    9000005    1    3    3    0    0  0.26971271553E+02 -0.49683051236E+02  0.21310329360E+03  0.22047645863E+03  0.10000000000E+01 0.  0.
    9000005    1    3    3    0    0 -0.26971271553E+02  0.49683051236E+02  0.53729682200E+03  0.54026357456E+03  0.10000000000E+01 0.  0.
<mgrwt>
<rscale>  0 0.12500026E+03</rscale>
<asrwt>0</asrwt>
<pdfrwt beam="2">  1        4 0.79537776E-03 0.12500026E+03</pdfrwt>
<pdfrwt beam="1">  1       -4 0.11624163E+00 0.12500026E+03</pdfrwt>
<totfact> 0.40065386E+03</totfact>
</mgrwt>
</event>
<event>
 5    1  0.3225662E-002  0.1250065E+03  0.7818608E-02  0.1235059E+00
         -4   -1    0    0    0  501 -0.00000000000E+00  0.00000000000E+00  0.22973035634E+02  0.23008113053E+02  0.12700000000E+01 0.  1.
          4   -1    0    0  501    0  0.00000000000E+00 -0.00000000000E+00 -0.16988681985E+03  0.16989156676E+03  0.12700000000E+01 0.  1.
         25    2    1    2    0    0  0.00000000000E+00  0.00000000000E+00 -0.14691378421E+03  0.19289967982E+03  0.12500650576E+03 0.  0.
    9000005    1    3    3    0    0  0.29674424728E+02  0.12973836095E+02  0.90207292661E+01  0.33634289980E+02  0.10000000000E+01 0.  0.
    9000005    1    3    3    0    0 -0.29674424728E+02 -0.12973836095E+02 -0.15593451348E+03  0.15926538984E+03  0.10000000000E+01 0.  0.
<mgrwt>
<rscale>  0 0.12500651E+03</rscale>
<asrwt>0</asrwt>
<pdfrwt beam="2">  1        4 0.26139496E-01 0.12500651E+03</pdfrwt>
<pdfrwt beam="1">  1       -4 0.35373767E-02 0.12500651E+03</pdfrwt>
<totfact> 0.91331908E+03</totfact>
</mgrwt>
</event>
<event>
 5    1  0.3225662E-002  0.1249991E+03  0.7818608E-02  0.1235071E+00
          4   -1    0    0  501    0  0.00000000000E+00  0.00000000000E+00  0.80279632330E+01  0.81277975904E+01  0.12700000000E+01 0.  1.
         -4   -1    0    0    0  501 -0.00000000000E+00 -0.00000000000E+00 -0.48346582994E+03  0.48346749799E+03  0.12700000000E+01 0.  1.
         25    2    1    2    0    0  0.00000000000E+00  0.00000000000E+00 -0.47543786670E+03  0.49159529558E+03  0.12499907818E+03 0.  0.
    9000005    1    3    3    0    0 -0.22800788782E+02 -0.52225507796E+02 -0.13685124866E+03  0.14824521541E+03  0.10000000000E+01 0.  0.
    9000005    1    3    3    0    0  0.22800788782E+02  0.52225507796E+02 -0.33858661805E+03  0.34335008017E+03  0.10000000000E+01 0.  0.
<mgrwt>
<rscale>  0 0.12499908E+03</rscale>
<asrwt>0</asrwt>
<pdfrwt beam="1">  1        4 0.12428795E-02 0.12499908E+03</pdfrwt>
<pdfrwt beam="2">  1       -4 0.74387144E-01 0.12499908E+03</pdfrwt>
<totfact> 0.56523571E+03</totfact>
</mgrwt>
</event>
<event>
 5    1  0.3225662E-002  0.1250047E+03  0.7818608E-02  0.1235062E+00
         -4   -1    0    0    0  501 -0.00000000000E+00  0.00000000000E+00  0.55252549267E+02  0.55267143046E+02  0.12700000000E+01 0.  1.
          4   -1    0    0  501    0  0.00000000000E+00 -0.00000000000E+00 -0.70673826628E+02  0.70685236579E+02  0.12700000000E+01 0.  1.
         25    2    1    2    0    0  0.00000000000E+00  0.00000000000E+00 -0.15421277361E+02  0.12595237962E+03  0.12500474446E+03 0.  0.
    9000005    1    3    3    0    0  0.40469204795E+02  0.39135713502E+02 -0.35049072815E+02  0.66323435626E+02  0.10000000000E+01 0.  0.
    9000005    1    3    3    0    0 -0.40469204795E+02 -0.39135713502E+02  0.19627795454E+02  0.59628943999E+02  0.10000000000E+01 0.  0.
<mgrwt>
<rscale>  0 0.12500474E+03</rscale>
<asrwt>0</asrwt>
<pdfrwt beam="2">  1        4 0.10874897E-01 0.12500474E+03</pdfrwt>
<pdfrwt beam="1">  1       -4 0.85023925E-02 0.12500474E+03</pdfrwt>
<totfact> 0.10430884E+04</totfact>
</mgrwt>
</event>
<event>
 5    1  0.3225662E-002  0.1249971E+03  0.7818608E-02  0.1235074E+00
         -4   -1    0    0    0  501 -0.00000000000E+00  0.00000000000E+00  0.54681911973E+02  0.54696658006E+02  0.12700000000E+01 0. -1.
          4   -1    0    0  501    0  0.00000000000E+00 -0.00000000000E+00 -0.71402537545E+02  0.71413831069E+02  0.12700000000E+01 0. -1.
         25    2    1    2    0    0  0.00000000000E+00  0.00000000000E+00 -0.16720625572E+02  0.12611048907E+03  0.12499710451E+03 0.  0.
    9000005    1    3    3    0    0 -0.57327362107E+02  0.19972810532E+02 -0.23315621031E+02  0.65038125670E+02  0.10000000000E+01 0.  0.
    9000005    1    3    3    0    0  0.57327362107E+02 -0.19972810532E+02  0.65949954588E+01  0.61072363404E+02  0.10000000000E+01 0.  0.
<mgrwt>
<rscale>  0 0.12499710E+03</rscale>
<asrwt>0</asrwt>
<pdfrwt beam="2">  1        4 0.10987009E-01 0.12499710E+03</pdfrwt>
<pdfrwt beam="1">  1       -4 0.84146048E-02 0.12499710E+03</pdfrwt>
<totfact> 0.10429219E+04</totfact>
</mgrwt>
</event>
<event>
 5    1  0.3225662E-002  0.1249989E+03  0.7818608E-02  0.1235071E+00
          4   -1    0    0  501    0  0.00000000000E+00  0.00000000000E+00  0.12792983349E+03  0.12793613718E+03  0.12700000000E+01 0.  1.
         -4   -1    0    0    0  501 -0.00000000000E+00 -0.00000000000E+00 -0.30513528696E+02  0.30539946520E+02  0.12700000000E+01 0.  1.
         25    2    1    2    0    0  0.00000000000E+00  0.00000000000E+00  0.97416304797E+02  0.15847608370E+03  0.12499893066E+03 0.  0.
    9000005    1    3    3    0    0  0.35410751438E+02 -0.10251932730E+02  0.11268167345E+03  0.11856299159E+03  0.10000000000E+01 0.  0.
    9000005    1    3    3    0    0 -0.35410751438E+02  0.10251932730E+02 -0.15265368656E+02  0.39913092116E+02  0.10000000000E+01 0.  0.
<mgrwt>
<rscale>  0 0.12499893E+03</rscale>
<asrwt>0</asrwt>
<pdfrwt beam="1">  1        4 0.19684030E-01 0.12499893E+03</pdfrwt>
<pdfrwt beam="2">  1       -4 0.46969061E-02 0.12499893E+03</pdfrwt>
<totfact> 0.97639738E+03</totfact>
</mgrwt>
</event>
<event>
 5    1  0.3225662E-002  0.1249964E+03  0.7818608E-02  0.1235075E+00
          4   -1    0    0  501    0  0.00000000000E+00  0.00000000000E+00  0.62982759449E+02  0.62995562446E+02  0.12700000000E+01 0. -1.
         -4   -1    0    0    0  501 -0.00000000000E+00 -0.00000000000E+00 -0.61991716108E+02  0.62004723740E+02  0.12700000000E+01 0. -1.
         25    2    1    2    0    0  0.00000000000E+00  0.00000000000E+00  0.99104334092E+00  0.12500028619E+03  0.12499635746E+03 0.  0.
    9000005    1    3    3    0    0 -0.86786283208E+01 -0.57063774280E+02  0.24442660694E+02  0.62690003879E+02  0.10000000000E+01 0.  0.
    9000005    1    3    3    0    0  0.86786283208E+01  0.57063774280E+02 -0.23451617353E+02  0.62310282306E+02  0.10000000000E+01 0.  0.
<mgrwt>
<rscale>  0 0.12499636E+03</rscale>
<asrwt>0</asrwt>
<pdfrwt beam="1">  1        4 0.96916407E-02 0.12499636E+03</pdfrwt>
<pdfrwt beam="2">  1       -4 0.95391726E-02 0.12499636E+03</pdfrwt>
<totfact> 0.10453717E+04</totfact>
</mgrwt>
</event>
<event>
 5    1  0.3225662E-002  0.1249984E+03  0.7818608E-02  0.1235072E+00
         -4   -1    0    0    0  501 -0.00000000000E+00  0.00000000000E+00  0.19850619680E+03  0.19851025935E+03  0.12700000000E+01 0.  1.
          4   -1    0    0  501    0  0.00000000000E+00 -0.00000000000E+00 -0.19652949749E+02  0.19693941552E+02  0.12700000000E+01 0.  1.
         25    2    1    2    0    0  0.00000000000E+00  0.00000000000E+00  0.17885324705E+03  0.21820420091E+03  0.12499835724E+03 0.  0.
    9000005    1    3    3    0    0  0.55051655060E+02  0.82189189415E+01  0.39839161348E+02  0.68457243081E+02  0.10000000000E+01 0.  0.
    9000005    1    3    3    0    0 -0.55051655060E+02 -0.82189189415E+01  0.13901408570E+03  0.14974695782E+03  0.10000000000E+01 0.  0.
<mgrwt>
<rscale>  0 0.12499836E+03</rscale>
<asrwt>0</asrwt>
<pdfrwt beam="2">  1        4 0.30269963E-02 0.12499836E+03</pdfrwt>
<pdfrwt beam="1">  1       -4 0.30542882E-01 0.12499836E+03</pdfrwt>
<totfact> 0.87156508E+03</totfact>
</mgrwt>
</event>
<event>
 5    1  0.3225662E-002  0.1249991E+03  0.7818608E-02  0.1235071E+00
         -4   -1    0    0    0  501 -0.00000000000E+00  0.00000000000E+00  0.24735376700E+03  0.24735702729E+03  0.12700000000E+01 0. -1.
          4   -1    0    0  501    0  0.00000000000E+00 -0.00000000000E+00 -0.15763039566E+02  0.15814117628E+02  0.12700000000E+01 0. -1.
         25    2    1    2    0    0  0.00000000000E+00  0.00000000000E+00  0.23159072743E+03  0.26317114492E+03  0.12499914593E+03 0.  0.
    9000005    1    3    3    0    0 -0.57764017209E+02 -0.12740828426E+02  0.15822739487E+03  0.16892577920E+03  0.10000000000E+01 0.  0.
    9000005    1    3    3    0    0  0.57764017209E+02  0.12740828426E+02  0.73363332566E+02  0.94245365712E+02  0.10000000000E+01 0.  0.
<mgrwt>
<rscale>  0 0.12499915E+03</rscale>
<asrwt>0</asrwt>
<pdfrwt beam="2">  1        4 0.24292628E-02 0.12499915E+03</pdfrwt>
<pdfrwt beam="1">  1       -4 0.38058606E-01 0.12499915E+03</pdfrwt>
<totfact> 0.80464613E+03</totfact>
</mgrwt>
</event>
<event>
 5    1  0.3225662E-002  0.1249988E+03  0.7818608E-02  0.1235071E+00
         -4   -1    0    0    0  501 -0.00000000000E+00  0.00000000000E+00  0.92676534062E+02  0.92685235425E+02  0.12700000000E+01 0.  1.
          4   -1    0    0  501    0  0.00000000000E+00 -0.00000000000E+00 -0.42128224846E+02  0.42147363247E+02  0.12700000000E+01 0.  1.
         25    2    1    2    0    0  0.00000000000E+00  0.00000000000E+00  0.50548309216E+02  0.13483259867E+03  0.12499879239E+03 0.  0.
    9000005    1    3    3    0    0 -0.10503436506E+02 -0.55602263309E+02  0.53879096802E+02  0.78140200509E+02  0.10000000000E+01 0.  0.
    9000005    1    3    3    0    0  0.10503436506E+02  0.55602263309E+02 -0.33307875859E+01  0.56692398163E+02  0.10000000000E+01 0.  0.
<mgrwt>
<rscale>  0 0.12499879E+03</rscale>
<asrwt>0</asrwt>
<pdfrwt beam="2">  1        4 0.64834069E-02 0.12499879E+03</pdfrwt>
<pdfrwt beam="1">  1       -4 0.14260070E-01 0.12499879E+03</pdfrwt>
<totfact> 0.10241879E+04</totfact>
</mgrwt>
</event>
<event>
 5    1  0.3225662E-002  0.1250110E+03  0.7818608E-02  0.1235052E+00
         -4   -1    0    0    0  501 -0.00000000000E+00  0.00000000000E+00  0.47502979346E+03  0.47503149114E+03  0.12700000000E+01 0.  1.
          4   -1    0    0  501    0  0.00000000000E+00 -0.00000000000E+00 -0.81738685645E+01  0.82719421728E+01  0.12700000000E+01 0.  1.
         25    2    1    2    0    0  0.00000000000E+00  0.00000000000E+00  0.46685592490E+03  0.48330343331E+03  0.12501101568E+03 0.  0.
    9000005    1    3    3    0    0  0.23390923436E+02 -0.16792032735E+02  0.44787665715E+03  0.44880241497E+03  0.10000000000E+01 0.  0.
    9000005    1    3    3    0    0 -0.23390923436E+02  0.16792032735E+02  0.18979267745E+02  0.34501018343E+02  0.10000000000E+01 0.  0.
<mgrwt>
<rscale>  0 0.12501102E+03</rscale>
<asrwt>0</asrwt>
<pdfrwt beam="2">  1        4 0.12651930E-02 0.12501102E+03</pdfrwt>
<pdfrwt beam="1">  1       -4 0.73089180E-01 0.12501102E+03</pdfrwt>
<totfact> 0.57169634E+03</totfact>
</mgrwt>
</event>
<event>
 5    1  0.3225662E-002  0.1250013E+03  0.7818608E-02  0.1235067E+00
          4   -1    0    0  501    0  0.00000000000E+00  0.00000000000E+00  0.64422614206E+01  0.65662494783E+01  0.12700000000E+01 0. -1.
         -4   -1    0    0    0  501 -0.00000000000E+00 -0.00000000000E+00 -0.60045662406E+03  0.60045796712E+03  0.12700000000E+01 0. -1.
         25    2    1    2    0    0  0.00000000000E+00  0.00000000000E+00 -0.59401436264E+03  0.60702421660E+03  0.12500134605E+03 0.  0.
    9000005    1    3    3    0    0 -0.59218841460E+02  0.11508121868E+02 -0.37621233329E+03  0.38101972098E+03  0.10000000000E+01 0.  0.
    9000005    1    3    3    0    0  0.59218841460E+02 -0.11508121868E+02 -0.21780202934E+03  0.22600449562E+03  0.10000000000E+01 0.  0.
<mgrwt>
<rscale>  0 0.12500135E+03</rscale>
<asrwt>0</asrwt>
<pdfrwt beam="1">  1        4 0.10007585E-02 0.12500135E+03</pdfrwt>
<pdfrwt beam="2">  1       -4 0.92387539E-01 0.12500135E+03</pdfrwt>
<totfact> 0.48425790E+03</totfact>
</mgrwt>
</event>
<event>
 5    1  0.3225662E-002  0.1249983E+03  0.7818608E-02  0.1235072E+00
          4   -1    0    0  501    0  0.00000000000E+00  0.00000000000E+00  0.91886132276E+02  0.91894908481E+02  0.12700000000E+01 0.  1.
         -4   -1    0    0    0  501 -0.00000000000E+00 -0.00000000000E+00 -0.42490406502E+02  0.42509381844E+02  0.12700000000E+01 0.  1.
         25    2    1    2    0    0  0.00000000000E+00  0.00000000000E+00  0.49395725774E+02  0.13440429032E+03  0.12499830212E+03 0.  0.
    9000005    1    3    3    0    0 -0.46873005545E+02  0.38939387083E+02  0.39588774374E+02  0.72674793235E+02  0.10000000000E+01 0.  0.
    9000005    1    3    3    0    0  0.46873005545E+02 -0.38939387083E+02  0.98069514000E+01  0.61729497090E+02  0.10000000000E+01 0.  0.
<mgrwt>
<rscale>  0 0.12499830E+03</rscale>
<asrwt>0</asrwt>
<pdfrwt beam="1">  1        4 0.14138463E-01 0.12499830E+03</pdfrwt>
<pdfrwt beam="2">  1       -4 0.65391204E-02 0.12499830E+03</pdfrwt>
<totfact> 0.10251035E+04</totfact>
</mgrwt>
</event>
<event>
 5    1  0.3225662E-002  0.1249988E+03  0.7818608E-02  0.1235071E+00
         -4   -1    0    0    0  501 -0.00000000000E+00  0.00000000000E+00  0.69099622118E+03  0.69099738827E+03  0.12700000000E+01 0. -1.
          4   -1    0    0  501    0  0.00000000000E+00 -0.00000000000E+00 -0.55804423219E+01  0.57231317046E+01  0.12700000000E+01 0. -1.
         25    2    1    2    0    0  0.00000000000E+00  0.00000000000E+00  0.68541577886E+03  0.69672051997E+03  0.12499877213E+03 0.  0.
    9000005    1    3    3    0    0 -0.54084761416E+02 -0.98986275471E+01  0.17717119051E+03  0.18550950109E+03  0.10000000000E+01 0.  0.
    9000005    1    3    3    0    0  0.54084761416E+02  0.98986275471E+01  0.50824458835E+03  0.51121101889E+03  0.10000000000E+01 0.  0.
<mgrwt>
<rscale>  0 0.12499877E+03</rscale>
<asrwt>0</asrwt>
<pdfrwt beam="2">  1        4 0.86959515E-03 0.12499877E+03</pdfrwt>
<pdfrwt beam="1">  1       -4 0.10631822E+00 0.12499877E+03</pdfrwt>
<totfact> 0.43261521E+03</totfact>
</mgrwt>
</event>
<event>
 5    1  0.3225662E-002  0.1249996E+03  0.7818608E-02  0.1235070E+00
         -4   -1    0    0    0  501 -0.00000000000E+00  0.00000000000E+00  0.24848162531E+02  0.24880596480E+02  0.12700000000E+01 0. -1.
          4   -1    0    0  501    0  0.00000000000E+00 -0.00000000000E+00 -0.15706612822E+03  0.15707126260E+03  0.12700000000E+01 0. -1.
         25    2    1    2    0    0  0.00000000000E+00  0.00000000000E+00 -0.13221796569E+03  0.18195185908E+03  0.12499955428E+03 0.  0.
    9000005    1    3    3    0    0 -0.52850610083E+02 -0.27806320178E+02 -0.39314353728E+02  0.71505222446E+02  0.10000000000E+01 0.  0.
    9000005    1    3    3    0    0  0.52850610083E+02  0.27806320178E+02 -0.92903611966E+02  0.11044663664E+03  0.10000000000E+01 0.  0.
<mgrwt>
<rscale>  0 0.12499955E+03</rscale>
<asrwt>0</asrwt>
<pdfrwt beam="2">  1        4 0.24166909E-01 0.12499955E+03</pdfrwt>
<pdfrwt beam="1">  1       -4 0.38256842E-02 0.12499955E+03</pdfrwt>
<totfact> 0.93267770E+03</totfact>
</mgrwt>
</event>
<event>
 5    1  0.3225662E-002  0.1250006E+03  0.7818608E-02  0.1235068E+00
         -4   -1    0    0    0  501 -0.00000000000E+00  0.00000000000E+00  0.85718799865E+03  0.85718893946E+03  0.12700000000E+01 0.  1.
          4   -1    0    0  501    0  0.00000000000E+00 -0.00000000000E+00 -0.44676521596E+01  0.46446545425E+01  0.12700000000E+01 0.  1.
         25    2    1    2    0    0  0.00000000000E+00  0.00000000000E+00  0.85272034649E+03  0.86183359400E+03  0.12500061772E+03 0.  0.
    9000005    1    3    3    0    0 -0.66514701618E+01 -0.84670445707E+01  0.85077832215E+03  0.85084704051E+03  0.10000000000E+01 0.  0.
    9000005    1    3    3    0    0  0.66514701618E+01  0.84670445707E+01  0.19420243373E+01  0.10986553491E+02  0.10000000000E+01 0.  0.
<mgrwt>
<rscale>  0 0.12500062E+03</rscale>
<asrwt>0</asrwt>
<pdfrwt beam="2">  1        4 0.70101913E-03 0.12500062E+03</pdfrwt>
<pdfrwt beam="1">  1       -4 0.13188875E+00 0.12500062E+03</pdfrwt>
<totfact> 0.35647439E+03</totfact>
</mgrwt>
</event>
<event>
 5    1  0.3225662E-002  0.1249712E+03  0.7818608E-02  0.1235114E+00
          4   -1    0    0  501    0  0.00000000000E+00  0.00000000000E+00  0.47820658809E+03  0.47820827449E+03  0.12700000000E+01 0. -1.
         -4   -1    0    0    0  501 -0.00000000000E+00 -0.00000000000E+00 -0.81136829329E+01  0.82124753111E+01  0.12700000000E+01 0. -1.
         25    2    1    2    0    0  0.00000000000E+00  0.00000000000E+00  0.47009290515E+03  0.48642074980E+03  0.12497122213E+03 0.  0.
    9000005    1    3    3    0    0 -0.16648734064E+02 -0.25541237334E+02  0.22787284983E+02  0.38076180315E+02  0.10000000000E+01 0.  0.
    9000005    1    3    3    0    0  0.16648734064E+02  0.25541237334E+02  0.44730562017E+03  0.44834456948E+03  0.10000000000E+01 0.  0.
<mgrwt>
<rscale>  0 0.12497122E+03</rscale>
<asrwt>0</asrwt>
<pdfrwt beam="1">  1        4 0.73577973E-01 0.12497122E+03</pdfrwt>
<pdfrwt beam="2">  1       -4 0.12559881E-02 0.12497122E+03</pdfrwt>
<totfact> 0.56969615E+03</totfact>
</mgrwt>
</event>
<event>
 5    1  0.3225662E-002  0.1249797E+03  0.7818608E-02  0.1235101E+00
          4   -1    0    0  501    0  0.00000000000E+00  0.00000000000E+00  0.93275682802E+02  0.93284328278E+02  0.12700000000E+01 0. -1.
         -4   -1    0    0    0  501 -0.00000000000E+00 -0.00000000000E+00 -0.41844705627E+02  0.41863973641E+02  0.12700000000E+01 0. -1.
         25    2    1    2    0    0  0.00000000000E+00  0.00000000000E+00  0.51430977175E+02  0.13514830192E+03  0.12497967074E+03 0.  0.
    9000005    1    3    3    0    0  0.16723977550E+01  0.48008767219E+02  0.68920491122E+02  0.84015907664E+02  0.10000000000E+01 0.  0.
    9000005    1    3    3    0    0 -0.16723977550E+01 -0.48008767219E+02 -0.17489513947E+02  0.51132394255E+02  0.10000000000E+01 0.  0.
<mgrwt>
<rscale>  0 0.12497967E+03</rscale>
<asrwt>0</asrwt>
<pdfrwt beam="1">  1        4 0.14352252E-01 0.12497967E+03</pdfrwt>
<pdfrwt beam="2">  1       -4 0.64397942E-02 0.12497967E+03</pdfrwt>
<totfact> 0.10239640E+04</totfact>
</mgrwt>
</event>
<event>
 5    1  0.3225662E-002  0.1250010E+03  0.7818608E-02  0.1235068E+00
          4   -1    0    0  501    0  0.00000000000E+00  0.00000000000E+00  0.45241700705E+02  0.45259522564E+02  0.12700000000E+01 0. -1.
         -4   -1    0    0    0  501 -0.00000000000E+00 -0.00000000000E+00 -0.86303731256E+02  0.86313075074E+02  0.12700000000E+01 0. -1.
         25    2    1    2    0    0  0.00000000000E+00  0.00000000000E+00 -0.41062030551E+02  0.13157259764E+03  0.12500103238E+03 0.  0.
    9000005    1    3    3    0    0 -0.30049448967E+02 -0.54631013845E+01  0.36855883563E+02  0.47876622825E+02  0.10000000000E+01 0.  0.
    9000005    1    3    3    0    0  0.30049448967E+02  0.54631013845E+01 -0.77917914114E+02  0.83695974812E+02  0.10000000000E+01 0.  0.
<mgrwt>
<rscale>  0 0.12500103E+03</rscale>
<asrwt>0</asrwt>
<pdfrwt beam="1">  1        4 0.69623513E-02 0.12500103E+03</pdfrwt>
<pdfrwt beam="2">  1       -4 0.13279587E-01 0.12500103E+03</pdfrwt>
<totfact> 0.10310589E+04</totfact>
</mgrwt>
</event>
<event>
 5    1  0.3225662E-002  0.1250054E+03  0.7818608E-02  0.1235061E+00
          4   -1    0    0  501    0  0.00000000000E+00  0.00000000000E+00  0.29952163738E+03  0.29952432983E+03  0.12700000000E+01 0. -1.
         -4   -1    0    0    0  501 -0.00000000000E+00 -0.00000000000E+00 -0.13009077744E+02  0.13070922069E+02  0.12700000000E+01 0. -1.
         25    2    1    2    0    0  0.00000000000E+00  0.00000000000E+00  0.28651255963E+03  0.31259525189E+03  0.12500537860E+03 0.  0.
    9000005    1    3    3    0    0  0.25307008168E+02 -0.54825024550E+02  0.18352832274E+03  0.19320940253E+03  0.10000000000E+01 0.  0.
    9000005    1    3    3    0    0 -0.25307008168E+02  0.54825024550E+02  0.10298423690E+03  0.11938584936E+03  0.10000000000E+01 0.  0.
<mgrwt>
<rscale>  0 0.12500538E+03</rscale>
<asrwt>0</asrwt>
<pdfrwt beam="1">  1        4 0.46085217E-01 0.12500538E+03</pdfrwt>
<pdfrwt beam="2">  1       -4 0.20063609E-02 0.12500538E+03</pdfrwt>
<totfact> 0.74036730E+03</totfact>
</mgrwt>
</event>
<event>
 5    1  0.3225662E-002  0.1249971E+03  0.7818608E-02  0.1235074E+00
         -4   -1    0    0    0  501 -0.00000000000E+00  0.00000000000E+00  0.24999489595E+03  0.24999812179E+03  0.12700000000E+01 0.  1.
          4   -1    0    0  501    0  0.00000000000E+00 -0.00000000000E+00 -0.15595453844E+02  0.15647078980E+02  0.12700000000E+01 0.  1.
         25    2    1    2    0    0  0.00000000000E+00  0.00000000000E+00  0.23439944210E+03  0.26564520077E+03  0.12499709691E+03 0.  0.
    9000005    1    3    3    0    0  0.21730216412E+02  0.36122557091E+02  0.21523685968E+03  0.21932840035E+03  0.10000000000E+01 0.  0.
    9000005    1    3    3    0    0 -0.21730216412E+02 -0.36122557091E+02  0.19162582424E+02  0.46316800421E+02  0.10000000000E+01 0.  0.
<mgrwt>
<rscale>  0 0.12499710E+03</rscale>
<asrwt>0</asrwt>
<pdfrwt beam="2">  1        4 0.24035200E-02 0.12499710E+03</pdfrwt>
<pdfrwt beam="1">  1       -4 0.38464972E-01 0.12499710E+03</pdfrwt>
<totfact> 0.80125482E+03</totfact>
</mgrwt>
</event>
<event>
 5    1  0.3225662E-002  0.1249984E+03  0.7818608E-02  0.1235072E+00
         -4   -1    0    0    0  501 -0.00000000000E+00  0.00000000000E+00  0.28142348612E+02  0.28170990139E+02  0.12700000000E+01 0.  1.
          4   -1    0    0  501    0  0.00000000000E+00 -0.00000000000E+00 -0.13869766621E+03  0.13870348053E+03  0.12700000000E+01 0.  1.
         25    2    1    2    0    0  0.00000000000E+00  0.00000000000E+00 -0.11055531759E+03  0.16687447067E+03  0.12499844284E+03 0.  0.
    9000005    1    3    3    0    0 -0.18527412151E+02 -0.49124932251E+02 -0.10052313168E+03  0.11341262704E+03  0.10000000000E+01 0.  0.
    9000005    1    3    3    0    0  0.18527412151E+02  0.49124932251E+02 -0.10032185913E+02  0.53461843626E+02  0.10000000000E+01 0.  0.
<mgrwt>
<rscale>  0 0.12499844E+03</rscale>
<asrwt>0</asrwt>
<pdfrwt beam="2">  1        4 0.21340752E-01 0.12499844E+03</pdfrwt>
<pdfrwt beam="1">  1       -4 0.43322426E-02 0.12499844E+03</pdfrwt>
<totfact> 0.96036930E+03</totfact>
</mgrwt>
</event>
<event>
 5    1  0.3225662E-002  0.1250035E+03  0.7818608E-02  0.1235064E+00
         -4   -1    0    0    0  501 -0.00000000000E+00  0.00000000000E+00  0.19380631713E+03  0.19381047820E+03  0.12700000000E+01 0. -1.
          4   -1    0    0  501    0  0.00000000000E+00 -0.00000000000E+00 -0.20132180472E+02  0.20172198456E+02  0.12700000000E+01 0. -1.
         25    2    1    2    0    0  0.00000000000E+00  0.00000000000E+00  0.17367413666E+03  0.21398267666E+03  0.12500352061E+03 0.  0.
    9000005    1    3    3    0    0  0.44975842123E+02 -0.43305377545E+02  0.91458311572E+02  0.11074206452E+03  0.10000000000E+01 0.  0.
    9000005    1    3    3    0    0 -0.44975842123E+02  0.43305377545E+02  0.82215825090E+02  0.10324061214E+03  0.10000000000E+01 0.  0.
<mgrwt>
<rscale>  0 0.12500352E+03</rscale>
<asrwt>0</asrwt>
<pdfrwt beam="2">  1        4 0.31006569E-02 0.12500352E+03</pdfrwt>
<pdfrwt beam="1">  1       -4 0.29819755E-01 0.12500352E+03</pdfrwt>
<totfact> 0.87822649E+03</totfact>
</mgrwt>
</event>
<event>
 5    1  0.3225662E-002  0.1250144E+03  0.7818608E-02  0.1235047E+00
         -4   -1    0    0    0  501 -0.00000000000E+00  0.00000000000E+00  0.77832686130E+03  0.77832789743E+03  0.12700000000E+01 0. -1.
          4   -1    0    0  501    0  0.00000000000E+00 -0.00000000000E+00 -0.49385544285E+01  0.50992371825E+01  0.12700000000E+01 0. -1.
         25    2    1    2    0    0  0.00000000000E+00  0.00000000000E+00  0.77338830687E+03  0.78342713461E+03  0.12501440735E+03 0.  0.
    9000005    1    3    3    0    0  0.32290514502E+02  0.20138325254E+02  0.76007564573E+02  0.85008113397E+02  0.10000000000E+01 0.  0.
    9000005    1    3    3    0    0 -0.32290514502E+02 -0.20138325254E+02  0.69738074230E+03  0.69841902122E+03  0.10000000000E+01 0.  0.
<mgrwt>
<rscale>  0 0.12501441E+03</rscale>
<asrwt>0</asrwt>
<pdfrwt beam="2">  1        4 0.77221831E-03 0.12501441E+03</pdfrwt>
<pdfrwt beam="1">  1       -4 0.11975491E+00 0.12501441E+03</pdfrwt>
<totfact> 0.39003131E+03</totfact>
</mgrwt>
</event>
<event>
 5    1  0.3225662E-002  0.1250147E+03  0.7818608E-02  0.1235046E+00
         -4   -1    0    0    0  501 -0.00000000000E+00  0.00000000000E+00  0.46078816233E+02  0.46096314445E+02  0.12700000000E+01 0.  1.
          4   -1    0    0  501    0  0.00000000000E+00 -0.00000000000E+00 -0.84754877811E+02  0.84764392363E+02  0.12700000000E+01 0.  1.
         25    2    1    2    0    0  0.00000000000E+00  0.00000000000E+00 -0.38676061578E+02  0.13086070681E+03  0.12501474652E+03 0.  0.
    9000005    1    3    3    0    0  0.29283712782E+02 -0.55159335582E+02 -0.21919859784E+02  0.66193416509E+02  0.10000000000E+01 0.  0.
    9000005    1    3    3    0    0 -0.29283712782E+02  0.55159335582E+02 -0.16756201794E+02  0.64667290299E+02  0.10000000000E+01 0.  0.
<mgrwt>
<rscale>  0 0.12501475E+03</rscale>
<asrwt>0</asrwt>
<pdfrwt beam="2">  1        4 0.13041290E-01 0.12501475E+03</pdfrwt>
<pdfrwt beam="1">  1       -4 0.70911266E-02 0.12501475E+03</pdfrwt>
<totfact> 0.10322642E+04</totfact>
</mgrwt>
</event>
<event>
 5    1  0.3225662E-002  0.1249990E+03  0.7818608E-02  0.1235071E+00
         -4   -1    0    0    0  501 -0.00000000000E+00  0.00000000000E+00  0.19111294616E+03  0.19111716587E+03  0.12700000000E+01 0. -1.
          4   -1    0    0  501    0  0.00000000000E+00 -0.00000000000E+00 -0.20414984835E+02  0.20454449536E+02  0.12700000000E+01 0. -1.
         25    2    1    2    0    0  0.00000000000E+00  0.00000000000E+00  0.17069796133E+03  0.21157161541E+03  0.12499901778E+03 0.  0.
    9000005    1    3    3    0    0  0.47494516044E+02 -0.37545333535E+02  0.59138066361E+02  0.84638596500E+02  0.10000000000E+01 0.  0.
    9000005    1    3    3    0    0 -0.47494516044E+02  0.37545333535E+02  0.11155989497E+03  0.12693301891E+03  0.10000000000E+01 0.  0.
<mgrwt>
<rscale>  0 0.12499902E+03</rscale>
<asrwt>0</asrwt>
<pdfrwt beam="2">  1        4 0.31441272E-02 0.12499902E+03</pdfrwt>
<pdfrwt beam="1">  1       -4 0.29405353E-01 0.12499902E+03</pdfrwt>
<totfact> 0.88221793E+03</totfact>
</mgrwt>
</event>
<event>
 5    1  0.3225662E-002  0.1250089E+03  0.7818608E-02  0.1235055E+00
         -4   -1    0    0    0  501 -0.00000000000E+00  0.00000000000E+00  0.60648049109E+02  0.60661344864E+02  0.12700000000E+01 0.  1.
          4   -1    0    0  501    0  0.00000000000E+00 -0.00000000000E+00 -0.64391023779E+02  0.64403546823E+02  0.12700000000E+01 0.  1.
         25    2    1    2    0    0  0.00000000000E+00  0.00000000000E+00 -0.37429746702E+01  0.12506489169E+03  0.12500886878E+03 0.  0.
    9000005    1    3    3    0    0 -0.37750313897E+02 -0.48103190754E+02 -0.14792427555E+02  0.62919147110E+02  0.10000000000E+01 0.  0.
    9000005    1    3    3    0    0  0.37750313897E+02  0.48103190754E+02  0.11049452885E+02  0.62145744577E+02  0.10000000000E+01 0.  0.
<mgrwt>
<rscale>  0 0.12500887E+03</rscale>
<asrwt>0</asrwt>
<pdfrwt beam="2">  1        4 0.99082974E-02 0.12500887E+03</pdfrwt>
<pdfrwt beam="1">  1       -4 0.93324552E-02 0.12500887E+03</pdfrwt>
<totfact> 0.10449359E+04</totfact>
</mgrwt>
</event>
<event>
 5    1  0.3225662E-002  0.1250029E+03  0.7818608E-02  0.1235065E+00
         -4   -1    0    0    0  501 -0.00000000000E+00  0.00000000000E+00  0.45243106058E+02  0.45260927364E+02  0.12700000000E+01 0. -1.
          4   -1    0    0  501    0  0.00000000000E+00 -0.00000000000E+00 -0.86303596419E+02  0.86312940252E+02  0.12700000000E+01 0. -1.
         25    2    1    2    0    0  0.00000000000E+00  0.00000000000E+00 -0.41060490361E+02  0.13157386762E+03  0.12500287505E+03 0.  0.
    9000005    1    3    3    0    0 -0.15022092909E+02 -0.31978882991E+02 -0.74787150083E+02  0.82718982406E+02  0.10000000000E+01 0.  0.
    9000005    1    3    3    0    0  0.15022092909E+02  0.31978882991E+02  0.33726659722E+02  0.48854885209E+02  0.10000000000E+01 0.  0.
<mgrwt>
<rscale>  0 0.12500288E+03</rscale>
<asrwt>0</asrwt>
<pdfrwt beam="2">  1        4 0.13279566E-01 0.12500288E+03</pdfrwt>
<pdfrwt beam="1">  1       -4 0.69625675E-02 0.12500288E+03</pdfrwt>
<totfact> 0.10310134E+04</totfact>
</mgrwt>
</event>
<event>
 5    1  0.3225662E-002  0.1250022E+03  0.7818608E-02  0.1235066E+00
         -4   -1    0    0    0  501 -0.00000000000E+00  0.00000000000E+00  0.47022062181E+01  0.48706922832E+01  0.12700000000E+01 0. -1.
          4   -1    0    0  501    0  0.00000000000E+00 -0.00000000000E+00 -0.81596529551E+03  0.81596628385E+03  0.12700000000E+01 0. -1.
         25    2    1    2    0    0  0.00000000000E+00  0.00000000000E+00 -0.81126308929E+03  0.82083697613E+03  0.12500216533E+03 0.  0.
    9000005    1    3    3    0    0  0.38047471348E+02  0.12567323996E+02 -0.90720448831E+02  0.99180378828E+02  0.10000000000E+01 0.  0.
    9000005    1    3    3    0    0 -0.38047471348E+02 -0.12567323996E+02 -0.72054264046E+03  0.72165659730E+03  0.10000000000E+01 0.  0.
<mgrwt>
<rscale>  0 0.12500217E+03</rscale>
<asrwt>0</asrwt>
<pdfrwt beam="2">  1        4 0.12554605E+00 0.12500217E+03</pdfrwt>
<pdfrwt beam="1">  1       -4 0.73645348E-03 0.12500217E+03</pdfrwt>
<totfact> 0.37349531E+03</totfact>
</mgrwt>
</event>
<event>
 5    1  0.3225662E-002  0.1249675E+03  0.7818608E-02  0.1235120E+00
          4   -1    0    0  501    0  0.00000000000E+00  0.00000000000E+00  0.70853133853E+03  0.70853247673E+03  0.12700000000E+01 0.  1.
         -4   -1    0    0    0  501 -0.00000000000E+00 -0.00000000000E+00 -0.54359635078E+01  0.55823471102E+01  0.12700000000E+01 0.  1.
         25    2    1    2    0    0  0.00000000000E+00  0.00000000000E+00  0.70309537503E+03  0.71411482384E+03  0.12496749677E+03 0.  0.
    9000005    1    3    3    0    0  0.27917950558E+02  0.41623573641E+02  0.56469458916E+03  0.56691526075E+03  0.10000000000E+01 0.  0.
    9000005    1    3    3    0    0 -0.27917950558E+02 -0.41623573641E+02  0.13840078586E+03  0.14719956309E+03  0.10000000000E+01 0.  0.
<mgrwt>
<rscale>  0 0.12496750E+03</rscale>
<asrwt>0</asrwt>
<pdfrwt beam="1">  1        4 0.10901613E+00 0.12496750E+03</pdfrwt>
<pdfrwt beam="2">  1       -4 0.84765022E-03 0.12496750E+03</pdfrwt>
<totfact> 0.42382133E+03</totfact>
</mgrwt>
</event>
<event>
 5    1  0.3225662E-002  0.1250012E+03  0.7818608E-02  0.1235067E+00
          4   -1    0    0  501    0  0.00000000000E+00  0.00000000000E+00  0.11552034351E+03  0.11552732432E+03  0.12700000000E+01 0. -1.
         -4   -1    0    0    0  501 -0.00000000000E+00 -0.00000000000E+00 -0.33795106011E+02  0.33818960514E+02  0.12700000000E+01 0. -1.
         25    2    1    2    0    0  0.00000000000E+00  0.00000000000E+00  0.81725237496E+02  0.14934628483E+03  0.12500119339E+03 0.  0.
    9000005    1    3    3    0    0 -0.26492635112E+02 -0.17838250056E+02  0.10503865207E+03  0.10979153569E+03  0.10000000000E+01 0.  0.
    9000005    1    3    3    0    0  0.26492635112E+02  0.17838250056E+02 -0.23313414577E+02  0.39554749140E+02  0.10000000000E+01 0.  0.
<mgrwt>
<rscale>  0 0.12500119E+03</rscale>
<asrwt>0</asrwt>
<pdfrwt beam="1">  1        4 0.17774732E-01 0.12500119E+03</pdfrwt>
<pdfrwt beam="2">  1       -4 0.52016191E-02 0.12500119E+03</pdfrwt>
<totfact> 0.99431495E+03</totfact>
</mgrwt>
</event>
<event>
 5    1  0.3225662E-002  0.1249971E+03  0.7818608E-02  0.1235074E+00
         -4   -1    0    0    0  501 -0.00000000000E+00  0.00000000000E+00  0.67519389888E+02  0.67531332808E+02  0.12700000000E+01 0.  1.
          4   -1    0    0  501    0  0.00000000000E+00 -0.00000000000E+00 -0.57826997296E+02  0.57840941523E+02  0.12700000000E+01 0.  1.
         25    2    1    2    0    0  0.00000000000E+00  0.00000000000E+00  0.96923925927E+01  0.12537227433E+03  0.12499705875E+03 0.  0.
    9000005    1    3    3    0    0 -0.57177478995E+01 -0.52425798680E+02 -0.28779192678E+02  0.60086595339E+02  0.10000000000E+01 0.  0.
    9000005    1    3    3    0    0  0.57177478995E+01  0.52425798680E+02  0.38471585270E+02  0.65285678992E+02  0.10000000000E+01 0.  0.
<mgrwt>
<rscale>  0 0.12499706E+03</rscale>
<asrwt>0</asrwt>
<pdfrwt beam="2">  1        4 0.88984525E-02 0.12499706E+03</pdfrwt>
<pdfrwt beam="1">  1       -4 0.10389590E-01 0.12499706E+03</pdfrwt>
<totfact> 0.10445474E+04</totfact>
</mgrwt>
</event>
<event>
 5    1  0.3225662E-002  0.1249963E+03  0.7818608E-02  0.1235075E+00
          4   -1    0    0  501    0  0.00000000000E+00  0.00000000000E+00  0.19888716011E+03  0.19889121488E+03  0.12700000000E+01 0.  1.
         -4   -1    0    0    0  501 -0.00000000000E+00 -0.00000000000E+00 -0.19614569906E+02  0.19655641750E+02  0.12700000000E+01 0.  1.
         25    2    1    2    0    0  0.00000000000E+00  0.00000000000E+00  0.17927259020E+03  0.21854685663E+03  0.12499626772E+03 0.  0.
    9000005    1    3    3    0    0 -0.43282833407E+02  0.44360430010E+02  0.75674547489E+02  0.97820695949E+02  0.10000000000E+01 0.  0.
    9000005    1    3    3    0    0  0.43282833407E+02 -0.44360430010E+02  0.10359804271E+03  0.12072616068E+03  0.10000000000E+01 0.  0.
<mgrwt>
<rscale>  0 0.12499627E+03</rscale>
<asrwt>0</asrwt>
<pdfrwt beam="1">  1        4 0.30601495E-01 0.12499627E+03</pdfrwt>
<pdfrwt beam="2">  1       -4 0.30210975E-02 0.12499627E+03</pdfrwt>
<totfact> 0.87106077E+03</totfact>
</mgrwt>
</event>
<event>
 5    1  0.3225662E-002  0.1249984E+03  0.7818608E-02  0.1235072E+00
         -4   -1    0    0    0  501 -0.00000000000E+00  0.00000000000E+00  0.84072739670E+01  0.85026557943E+01  0.12700000000E+01 0. -1.
          4   -1    0    0  501    0  0.00000000000E+00 -0.00000000000E+00 -0.46189839011E+03  0.46190013606E+03  0.12700000000E+01 0. -1.
         25    2    1    2    0    0  0.00000000000E+00  0.00000000000E+00 -0.45349111615E+03  0.47040279185E+03  0.12499837662E+03 0.  0.
    9000005    1    3    3    0    0  0.42804242841E+02  0.12421990541E+02 -0.61905709534E+02  0.76287783603E+02  0.10000000000E+01 0.  0.
    9000005    1    3    3    0    0 -0.42804242841E+02 -0.12421990541E+02 -0.39158540661E+03  0.39411500825E+03  0.10000000000E+01 0.  0.
<mgrwt>
<rscale>  0 0.12499838E+03</rscale>
<asrwt>0</asrwt>
<pdfrwt beam="2">  1        4 0.71068743E-01 0.12499838E+03</pdfrwt>
<pdfrwt beam="1">  1       -4 0.13008985E-02 0.12499838E+03</pdfrwt>
<totfact> 0.58238258E+03</totfact>
</mgrwt>
</event>
<event>
 5    1  0.3225662E-002  0.1250025E+03  0.7818608E-02  0.1235065E+00
         -4   -1    0    0    0  501 -0.00000000000E+00  0.00000000000E+00  0.48212781165E+02  0.48229505157E+02  0.12700000000E+01 0. -1.
          4   -1    0    0  501    0  0.00000000000E+00 -0.00000000000E+00 -0.80988526245E+02  0.80998483216E+02  0.12700000000E+01 0. -1.
         25    2    1    2    0    0  0.00000000000E+00  0.00000000000E+00 -0.32775745080E+02  0.12922798837E+03  0.12500249403E+03 0.  0.
    9000005    1    3    3    0    0  0.38754079473E+02 -0.21371011620E+02  0.29226253964E+02  0.53045006685E+02  0.10000000000E+01 0.  0.
    9000005    1    3    3    0    0 -0.38754079473E+02  0.21371011620E+02 -0.62001999044E+02  0.76182981688E+02  0.10000000000E+01 0.  0.
<mgrwt>
<rscale>  0 0.12500249E+03</rscale>
<asrwt>0</asrwt>
<pdfrwt beam="2">  1        4 0.12461826E-01 0.12500249E+03</pdfrwt>
<pdfrwt beam="1">  1       -4 0.74194034E-02 0.12500249E+03</pdfrwt>
<totfact> 0.10360467E+04</totfact>
</mgrwt>
</event>
<event>
 5    1  0.3225662E-002  0.1250013E+03  0.7818608E-02  0.1235067E+00
         -4   -1    0    0    0  501 -0.00000000000E+00  0.00000000000E+00  0.16223343510E+03  0.16223840595E+03  0.12700000000E+01 0.  1.
          4   -1    0    0  501    0  0.00000000000E+00 -0.00000000000E+00 -0.24056379824E+02  0.24089879831E+02  0.12700000000E+01 0.  1.
         25    2    1    2    0    0  0.00000000000E+00  0.00000000000E+00  0.13817705527E+03  0.18632828578E+03  0.12500132590E+03 0.  0.
    9000005    1    3    3    0    0  0.48707017044E+02 -0.24448550329E+01  0.12733654317E+03  0.13635962031E+03  0.10000000000E+01 0.  0.
    9000005    1    3    3    0    0 -0.48707017044E+02  0.24448550329E+01  0.10840512103E+02  0.49968665462E+02  0.10000000000E+01 0.  0.
<mgrwt>
<rscale>  0 0.12500133E+03</rscale>
<asrwt>0</asrwt>
<pdfrwt beam="2">  1        4 0.37039409E-02 0.12500133E+03</pdfrwt>
<pdfrwt beam="1">  1       -4 0.24961948E-01 0.12500133E+03</pdfrwt>
<totfact> 0.92487387E+03</totfact>
</mgrwt>
</event>
<event>
 5    1  0.3225662E-002  0.1249997E+03  0.7818608E-02  0.1235070E+00
         -4   -1    0    0    0  501 -0.00000000000E+00  0.00000000000E+00  0.96591913468E+02  0.96600262150E+02  0.12700000000E+01 0. -1.
          4   -1    0    0  501    0  0.00000000000E+00 -0.00000000000E+00 -0.40420476316E+02  0.40440422916E+02  0.12700000000E+01 0. -1.
         25    2    1    2    0    0  0.00000000000E+00  0.00000000000E+00  0.56171437152E+02  0.13704068507E+03  0.12499967605E+03 0.  0.
    9000005    1    3    3    0    0  0.19155528997E+02 -0.47260167579E+01  0.93093090702E+02  0.95166134007E+02  0.10000000000E+01 0.  0.
    9000005    1    3    3    0    0 -0.19155528997E+02  0.47260167579E+01 -0.36921653550E+02  0.41874551059E+02  0.10000000000E+01 0.  0.
<mgrwt>
<rscale>  0 0.12499968E+03</rscale>
<asrwt>0</asrwt>
<pdfrwt beam="2">  1        4 0.62207114E-02 0.12499968E+03</pdfrwt>
<pdfrwt beam="1">  1       -4 0.14862471E-01 0.12499968E+03</pdfrwt>
<totfact> 0.10195310E+04</totfact>
</mgrwt>
</event>
<event>
 5    1  0.3225662E-002  0.1250049E+03  0.7818608E-02  0.1235062E+00
          4   -1    0    0  501    0  0.00000000000E+00  0.00000000000E+00  0.97334928790E+03  0.97335011643E+03  0.12700000000E+01 0.  1.
         -4   -1    0    0    0  501 -0.00000000000E+00 -0.00000000000E+00 -0.39122018054E+01  0.41131767487E+01  0.12700000000E+01 0.  1.
         25    2    1    2    0    0  0.00000000000E+00  0.00000000000E+00  0.96943708609E+03  0.97746329318E+03  0.12500490237E+03 0.  0.
    9000005    1    3    3    0    0  0.48412416253E+02  0.20914869629E+02  0.22252221536E+03  0.22868828161E+03  0.10000000000E+01 0.  0.
    9000005    1    3    3    0    0 -0.48412416253E+02 -0.20914869629E+02  0.74691487074E+03  0.74877501157E+03  0.10000000000E+01 0.  0.
<mgrwt>
<rscale>  0 0.12500490E+03</rscale>
<asrwt>0</asrwt>
<pdfrwt beam="1">  1        4 0.14976173E+00 0.12500490E+03</pdfrwt>
<pdfrwt beam="2">  1       -4 0.61739986E-03 0.12500490E+03</pdfrwt>
<totfact> 0.31357151E+03</totfact>
</mgrwt>
</event>
<event>
 5    1  0.3225662E-002  0.1250004E+03  0.7818608E-02  0.1235069E+00
         -4   -1    0    0    0  501 -0.00000000000E+00  0.00000000000E+00  0.89779665418E+02  0.89788647515E+02  0.12700000000E+01 0.  1.
          4   -1    0    0  501    0  0.00000000000E+00 -0.00000000000E+00 -0.43489115589E+02  0.43507655357E+02  0.12700000000E+01 0.  1.
         25    2    1    2    0    0  0.00000000000E+00  0.00000000000E+00  0.46290549829E+02  0.13329630287E+03  0.12500035742E+03 0.  0.
    9000005    1    3    3    0    0 -0.89409212972E+01  0.52482824067E+02 -0.11750942712E+02  0.54529547498E+02  0.10000000000E+01 0.  0.
    9000005    1    3    3    0    0  0.89409212972E+01 -0.52482824067E+02  0.58041492541E+02  0.78766755374E+02  0.10000000000E+01 0.  0.
<mgrwt>
<rscale>  0 0.12500036E+03</rscale>
<asrwt>0</asrwt>
<pdfrwt beam="2">  1        4 0.66927503E-02 0.12500036E+03</pdfrwt>
<pdfrwt beam="1">  1       -4 0.13814373E-01 0.12500036E+03</pdfrwt>
<totfact> 0.10274024E+04</totfact>
</mgrwt>
</event>
<event>
 5    1  0.3225662E-002  0.1249981E+03  0.7818608E-02  0.1235072E+00
          4   -1    0    0  501    0  0.00000000000E+00  0.00000000000E+00  0.65127933739E+02  0.65140315114E+02  0.12700000000E+01 0. -1.
         -4   -1    0    0    0  501 -0.00000000000E+00 -0.00000000000E+00 -0.59951435259E+02  0.59964885472E+02  0.12700000000E+01 0. -1.
         25    2    1    2    0    0  0.00000000000E+00  0.00000000000E+00  0.51764984798E+01  0.12510520059E+03  0.12499806029E+03 0.  0.
    9000005    1    3    3    0    0  0.32130247008E+02 -0.37458163078E+02 -0.35780781168E+02  0.60964998605E+02  0.10000000000E+01 0.  0.
    9000005    1    3    3    0    0 -0.32130247008E+02  0.37458163078E+02  0.40957279647E+02  0.64140201981E+02  0.10000000000E+01 0.  0.
<mgrwt>
<rscale>  0 0.12499806E+03</rscale>
<asrwt>0</asrwt>
<pdfrwt beam="1">  1        4 0.10021669E-01 0.12499806E+03</pdfrwt>
<pdfrwt beam="2">  1       -4 0.92252847E-02 0.12499806E+03</pdfrwt>
<totfact> 0.10451036E+04</totfact>
</mgrwt>
</event>
<event>
 5    1  0.3225662E-002  0.1250003E+03  0.7818608E-02  0.1235069E+00
          4   -1    0    0  501    0  0.00000000000E+00  0.00000000000E+00  0.16970184422E+02  0.17017639652E+02  0.12700000000E+01 0. -1.
         -4   -1    0    0    0  501 -0.00000000000E+00 -0.00000000000E+00 -0.22981369507E+03  0.22981720419E+03  0.12700000000E+01 0. -1.
         25    2    1    2    0    0  0.00000000000E+00  0.00000000000E+00 -0.21284351065E+03  0.24683484384E+03  0.12500032044E+03 0.  0.
    9000005    1    3    3    0    0  0.17529169644E+02 -0.18777791218E+01 -0.22481117810E+03  0.22550357789E+03  0.10000000000E+01 0.  0.
    9000005    1    3    3    0    0 -0.17529169644E+02  0.18777791218E+01  0.11967667452E+02  0.21331265951E+02  0.10000000000E+01 0.  0.
<mgrwt>
<rscale>  0 0.12500032E+03</rscale>
<asrwt>0</asrwt>
<pdfrwt beam="1">  1        4 0.26147181E-02 0.12500032E+03</pdfrwt>
<pdfrwt beam="2">  1       -4 0.35359871E-01 0.12500032E+03</pdfrwt>
<totfact> 0.82789264E+03</totfact>
</mgrwt>
</event>
<event>
 5    1  0.3225662E-002  0.1249996E+03  0.7818608E-02  0.1235070E+00
          4   -1    0    0  501    0  0.00000000000E+00  0.00000000000E+00  0.74211399876E+02  0.74222266009E+02  0.12700000000E+01 0. -1.
         -4   -1    0    0    0  501 -0.00000000000E+00 -0.00000000000E+00 -0.52614085687E+02  0.52629411100E+02  0.12700000000E+01 0. -1.
         25    2    1    2    0    0  0.00000000000E+00  0.00000000000E+00  0.21597314189E+02  0.12685167711E+03  0.12499961602E+03 0.  0.
    9000005    1    3    3    0    0 -0.12798249779E+02 -0.53516406337E+02 -0.19261590314E+02  0.58307888026E+02  0.10000000000E+01 0.  0.
    9000005    1    3    3    0    0  0.12798249779E+02  0.53516406337E+02  0.40858904503E+02  0.68543789083E+02  0.10000000000E+01 0.  0.
<mgrwt>
<rscale>  0 0.12499962E+03</rscale>
<asrwt>0</asrwt>
<pdfrwt beam="1">  1        4 0.11419153E-01 0.12499962E+03</pdfrwt>
<pdfrwt beam="2">  1       -4 0.80964895E-02 0.12499962E+03</pdfrwt>
<totfact> 0.10412460E+04</totfact>
</mgrwt>
</event>
<event>
 5    1  0.3225662E-002  0.1249986E+03  0.7818608E-02  0.1235071E+00
         -4   -1    0    0    0  501 -0.00000000000E+00  0.00000000000E+00  0.14031890761E+03  0.14032465475E+03  0.12700000000E+01 0.  1.
          4   -1    0    0  501    0  0.00000000000E+00 -0.00000000000E+00 -0.27816934391E+02  0.27845910632E+02  0.12700000000E+01 0.  1.
         25    2    1    2    0    0  0.00000000000E+00  0.00000000000E+00  0.11250197321E+03  0.16817056538E+03  0.12499858033E+03 0.  0.
    9000005    1    3    3    0    0 -0.43638117448E+01  0.53276058654E+02  0.99800163841E+02  0.11321861146E+03  0.10000000000E+01 0.  0.
    9000005    1    3    3    0    0  0.43638117448E+01 -0.53276058654E+02  0.12701809373E+02  0.54951953923E+02  0.10000000000E+01 0.  0.
<mgrwt>
<rscale>  0 0.12499858E+03</rscale>
<asrwt>0</asrwt>
<pdfrwt beam="2">  1        4 0.42821995E-02 0.12499858E+03</pdfrwt>
<pdfrwt beam="1">  1       -4 0.21590195E-01 0.12499858E+03</pdfrwt>
<totfact> 0.95793338E+03</totfact>
</mgrwt>
</event>
<event>
 5    1  0.3225662E-002  0.1250005E+03  0.7818608E-02  0.1235068E+00
          4   -1    0    0  501    0  0.00000000000E+00  0.00000000000E+00  0.43115348475E+02  0.43134048896E+02  0.12700000000E+01 0.  1.
         -4   -1    0    0    0  501 -0.00000000000E+00 -0.00000000000E+00 -0.90557969151E+02  0.90566874059E+02  0.12700000000E+01 0.  1.
         25    2    1    2    0    0  0.00000000000E+00  0.00000000000E+00 -0.47442620676E+02  0.13370092295E+03  0.12500053817E+03 0.  0.
    9000005    1    3    3    0    0  0.35158905574E+02 -0.23269658118E+02  0.25615768645E+02  0.49343624040E+02  0.10000000000E+01 0.  0.
    9000005    1    3    3    0    0 -0.35158905574E+02  0.23269658118E+02 -0.73058389321E+02  0.84357298915E+02  0.10000000000E+01 0.  0.
<mgrwt>
<rscale>  0 0.12500054E+03</rscale>
<asrwt>0</asrwt>
<pdfrwt beam="1">  1        4 0.66352540E-02 0.12500054E+03</pdfrwt>
<pdfrwt beam="2">  1       -4 0.13934119E-01 0.12500054E+03</pdfrwt>
<totfact> 0.10265401E+04</totfact>
</mgrwt>
</event>
<event>
 5    1  0.3225662E-002  0.1249998E+03  0.7818608E-02  0.1235070E+00
         -4   -1    0    0    0  501 -0.00000000000E+00  0.00000000000E+00  0.50181710141E+03  0.50181870846E+03  0.12700000000E+01 0.  1.
          4   -1    0    0  501    0  0.00000000000E+00 -0.00000000000E+00 -0.77307512732E+01  0.78343739538E+01  0.12700000000E+01 0.  1.
         25    2    1    2    0    0  0.00000000000E+00  0.00000000000E+00  0.49408635013E+03  0.50965308242E+03  0.12499977212E+03 0.  0.
    9000005    1    3    3    0    0  0.21449429017E+02 -0.14866884574E+02  0.47855434074E+03  0.47926648047E+03  0.10000000000E+01 0.  0.
    9000005    1    3    3    0    0 -0.21449429017E+02  0.14866884574E+02  0.15532009395E+02  0.30386601948E+02  0.10000000000E+01 0.  0.
<mgrwt>
<rscale>  0 0.12499977E+03</rscale>
<asrwt>0</asrwt>
<pdfrwt beam="2">  1        4 0.11974404E-02 0.12499977E+03</pdfrwt>
<pdfrwt beam="1">  1       -4 0.77210763E-01 0.12499977E+03</pdfrwt>
<totfact> 0.55123365E+03</totfact>
</mgrwt>
</event>
<event>
 5    1  0.3225662E-002  0.1249897E+03  0.7818608E-02  0.1235085E+00
         -4   -1    0    0    0  501 -0.00000000000E+00  0.00000000000E+00  0.63525954256E+02  0.63538647799E+02  0.12700000000E+01 0. -1.
          4   -1    0    0  501    0  0.00000000000E+00 -0.00000000000E+00 -0.61455097275E+02  0.61468218464E+02  0.12700000000E+01 0. -1.
         25    2    1    2    0    0  0.00000000000E+00  0.00000000000E+00  0.20708569812E+01  0.12500686626E+03  0.12498971223E+03 0.  0.
    9000005    1    3    3    0    0 -0.75866032005E+01  0.49844478043E+02 -0.35882758591E+02  0.61891848442E+02  0.10000000000E+01 0.  0.
    9000005    1    3    3    0    0  0.75866032005E+01 -0.49844478043E+02  0.37953615572E+02  0.63115017821E+02  0.10000000000E+01 0.  0.
<mgrwt>
<rscale>  0 0.12498971E+03</rscale>
<asrwt>0</asrwt>
<pdfrwt beam="2">  1        4 0.94566162E-02 0.12498971E+03</pdfrwt>
<pdfrwt beam="1">  1       -4 0.97752094E-02 0.12498971E+03</pdfrwt>
<totfact> 0.10455144E+04</totfact>
</mgrwt>
</event>
<event>
 5    1  0.3225662E-002  0.1250028E+03  0.7818608E-02  0.1235065E+00
         -4   -1    0    0    0  501 -0.00000000000E+00  0.00000000000E+00  0.27207848907E+02  0.27237473124E+02  0.12700000000E+01 0.  1.
          4   -1    0    0  501    0  0.00000000000E+00 -0.00000000000E+00 -0.14346646615E+03  0.14347208721E+03  0.12700000000E+01 0.  1.
         25    2    1    2    0    0  0.00000000000E+00  0.00000000000E+00 -0.11625861724E+03  0.17070956034E+03  0.12500275160E+03 0.  0.
    9000005    1    3    3    0    0  0.23415801442E+02 -0.46058910713E+02 -0.10613520817E+03  0.11804831819E+03  0.10000000000E+01 0.  0.
    9000005    1    3    3    0    0 -0.23415801442E+02  0.46058910713E+02 -0.10123409067E+02  0.52661242147E+02  0.10000000000E+01 0.  0.
<mgrwt>
<rscale>  0 0.12500275E+03</rscale>
<asrwt>0</asrwt>
<pdfrwt beam="2">  1        4 0.22074475E-01 0.12500275E+03</pdfrwt>
<pdfrwt beam="1">  1       -4 0.41885342E-02 0.12500275E+03</pdfrwt>
<totfact> 0.95310663E+03</totfact>
</mgrwt>
</event>
<event>
 5    1  0.3225662E-002  0.1250018E+03  0.7818608E-02  0.1235067E+00
          4   -1    0    0  501    0  0.00000000000E+00  0.00000000000E+00  0.17461202178E+03  0.17461664024E+03  0.12700000000E+01 0.  1.
         -4   -1    0    0    0  501 -0.00000000000E+00 -0.00000000000E+00 -0.22348717734E+02  0.22384773493E+02  0.12700000000E+01 0.  1.
         25    2    1    2    0    0  0.00000000000E+00  0.00000000000E+00  0.15226330405E+03  0.19700141374E+03  0.12500177301E+03 0.  0.
    9000005    1    3    3    0    0  0.55825250905E+01  0.62227589919E+02  0.78317271044E+02  0.10018998192E+03  0.10000000000E+01 0.  0.
    9000005    1    3    3    0    0 -0.55825250905E+01 -0.62227589919E+02  0.73946033001E+02  0.96811431815E+02  0.10000000000E+01 0.  0.
<mgrwt>
<rscale>  0 0.12500177E+03</rscale>
<asrwt>0</asrwt>
<pdfrwt beam="1">  1        4 0.26866517E-01 0.12500177E+03</pdfrwt>
<pdfrwt beam="2">  1       -4 0.34413930E-02 0.12500177E+03</pdfrwt>
<totfact> 0.90639562E+03</totfact>
</mgrwt>
</event>
<event>
 5    1  0.3225662E-002  0.1249997E+03  0.7818608E-02  0.1235070E+00
         -4   -1    0    0    0  501 -0.00000000000E+00  0.00000000000E+00  0.65081169387E+02  0.65093559657E+02  0.12700000000E+01 0.  1.
          4   -1    0    0  501    0  0.00000000000E+00 -0.00000000000E+00 -0.59996127278E+02  0.60009567474E+02  0.12700000000E+01 0.  1.
         25    2    1    2    0    0  0.00000000000E+00  0.00000000000E+00  0.50850421092E+01  0.12510312713E+03  0.12499973906E+03 0.  0.
    9000005    1    3    3    0    0 -0.48562029295E+02  0.39291709481E+02  0.43116278450E+01  0.62623472100E+02  0.10000000000E+01 0.  0.
    9000005    1    3    3    0    0  0.48562029295E+02 -0.39291709481E+02  0.77341426425E+00  0.62479655031E+02  0.10000000000E+01 0.  0.
<mgrwt>
<rscale>  0 0.12499974E+03</rscale>
<asrwt>0</asrwt>
<pdfrwt beam="2">  1        4 0.92321604E-02 0.12499974E+03</pdfrwt>
<pdfrwt beam="1">  1       -4 0.10014475E-01 0.12499974E+03</pdfrwt>
<totfact> 0.10450685E+04</totfact>
</mgrwt>
</event>
<event>
 5    1  0.3225662E-002  0.1249958E+03  0.7818608E-02  0.1235076E+00
          4   -1    0    0  501    0  0.00000000000E+00  0.00000000000E+00  0.47344599801E+01  0.49018375435E+01  0.12700000000E+01 0. -1.
         -4   -1    0    0    0  501 -0.00000000000E+00 -0.00000000000E+00 -0.81051403692E+03  0.81051503190E+03  0.12700000000E+01 0. -1.
         25    2    1    2    0    0  0.00000000000E+00  0.00000000000E+00 -0.80577957694E+03  0.81541686945E+03  0.12499577740E+03 0.  0.
    9000005    1    3    3    0    0 -0.83036209948E+01 -0.55165886487E+01 -0.80532512059E+03  0.80538744262E+03  0.10000000000E+01 0.  0.
    9000005    1    3    3    0    0  0.83036209948E+01  0.55165886487E+01 -0.45445634704E+00  0.10029426829E+02  0.10000000000E+01 0.  0.
<mgrwt>
<rscale>  0 0.12499578E+03</rscale>
<asrwt>0</asrwt>
<pdfrwt beam="1">  1        4 0.74133083E-03 0.12499578E+03</pdfrwt>
<pdfrwt beam="2">  1       -4 0.12470731E+00 0.12499578E+03</pdfrwt>
<totfact> 0.37589174E+03</totfact>
</mgrwt>
</event>
<event>
 5    1  0.3225662E-002  0.1249953E+03  0.7818608E-02  0.1235077E+00
         -4   -1    0    0    0  501 -0.00000000000E+00  0.00000000000E+00  0.22662807881E+02  0.22698364722E+02  0.12700000000E+01 0. -1.
          4   -1    0    0  501    0  0.00000000000E+00 -0.00000000000E+00 -0.17217797549E+03  0.17218265925E+03  0.12700000000E+01 0. -1.
         25    2    1    2    0    0  0.00000000000E+00  0.00000000000E+00 -0.14951516761E+03  0.19488102397E+03  0.12499531254E+03 0.  0.
    9000005    1    3    3    0    0  0.31748964314E+02 -0.13042529228E+02  0.66578363158E+01  0.34977579792E+02  0.10000000000E+01 0.  0.
    9000005    1    3    3    0    0 -0.31748964314E+02  0.13042529228E+02 -0.15617300393E+03  0.15990344418E+03  0.10000000000E+01 0.  0.
<mgrwt>
<rscale>  0 0.12499531E+03</rscale>
<asrwt>0</asrwt>
<pdfrwt beam="2">  1        4 0.26492014E-01 0.12499531E+03</pdfrwt>
<pdfrwt beam="1">  1       -4 0.34896814E-02 0.12499531E+03</pdfrwt>
<totfact> 0.91014452E+03</totfact>
</mgrwt>
</event>
<event>
 5    1  0.3225662E-002  0.1249965E+03  0.7818608E-02  0.1235075E+00
         -4   -1    0    0    0  501 -0.00000000000E+00  0.00000000000E+00  0.15518193323E+03  0.15518712995E+03  0.12700000000E+01 0.  1.
          4   -1    0    0  501    0  0.00000000000E+00 -0.00000000000E+00 -0.25148996469E+02  0.25181042937E+02  0.12700000000E+01 0.  1.
         25    2    1    2    0    0  0.00000000000E+00  0.00000000000E+00  0.13003293677E+03  0.18036817289E+03  0.12499645254E+03 0.  0.
    9000005    1    3    3    0    0  0.36486882679E+02 -0.43046934347E+02  0.26278341949E+02  0.62256585353E+02  0.10000000000E+01 0.  0.
    9000005    1    3    3    0    0 -0.36486882679E+02  0.43046934347E+02  0.10375459482E+03  0.11811158753E+03  0.10000000000E+01 0.  0.
<mgrwt>
<rscale>  0 0.12499645E+03</rscale>
<asrwt>0</asrwt>
<pdfrwt beam="2">  1        4 0.38719413E-02 0.12499645E+03</pdfrwt>
<pdfrwt beam="1">  1       -4 0.23877008E-01 0.12499645E+03</pdfrwt>
<totfact> 0.93558214E+03</totfact>
</mgrwt>
</event>
<event>
 5    1  0.3225662E-002  0.1249976E+03  0.7818608E-02  0.1235073E+00
          4   -1    0    0  501    0  0.00000000000E+00  0.00000000000E+00  0.40682891350E+03  0.40683089578E+03  0.12700000000E+01 0.  1.
         -4   -1    0    0    0  501 -0.00000000000E+00 -0.00000000000E+00 -0.95573170604E+01  0.96413281965E+01  0.12700000000E+01 0.  1.
         25    2    1    2    0    0  0.00000000000E+00  0.00000000000E+00  0.39727159644E+03  0.41647222397E+03  0.12499756799E+03 0.  0.
    9000005    1    3    3    0    0 -0.33679446205E+02  0.35743342202E+01  0.23657998449E+02  0.41325317330E+02  0.10000000000E+01 0.  0.
    9000005    1    3    3    0    0  0.33679446205E+02 -0.35743342202E+01  0.37361359799E+03  0.37514690664E+03  0.10000000000E+01 0.  0.
<mgrwt>
<rscale>  0 0.12499757E+03</rscale>
<asrwt>0</asrwt>
<pdfrwt beam="1">  1        4 0.62595679E-01 0.12499757E+03</pdfrwt>
<pdfrwt beam="2">  1       -4 0.14769713E-02 0.12499757E+03</pdfrwt>
<totfact> 0.62985019E+03</totfact>
</mgrwt>
</event>
<event>
 5    1  0.3225662E-002  0.1250009E+03  0.7818608E-02  0.1235068E+00
          4   -1    0    0  501    0  0.00000000000E+00  0.00000000000E+00  0.34973367662E+02  0.34996419040E+02  0.12700000000E+01 0. -1.
         -4   -1    0    0    0  501 -0.00000000000E+00 -0.00000000000E+00 -0.11163021612E+03  0.11163744019E+03  0.12700000000E+01 0. -1.
         25    2    1    2    0    0  0.00000000000E+00  0.00000000000E+00 -0.76656848462E+02  0.14663385923E+03  0.12500086502E+03 0.  0.
    9000005    1    3    3    0    0  0.52196030937E+02  0.92630477789E+01  0.49046038016E+00  0.53023299134E+02  0.10000000000E+01 0.  0.
    9000005    1    3    3    0    0 -0.52196030937E+02 -0.92630477789E+01 -0.77147308843E+02  0.93610560095E+02  0.10000000000E+01 0.  0.
<mgrwt>
<rscale>  0 0.12500087E+03</rscale>
<asrwt>0</asrwt>
<pdfrwt beam="1">  1        4 0.53828470E-02 0.12500087E+03</pdfrwt>
<pdfrwt beam="2">  1       -4 0.17176208E-01 0.12500087E+03</pdfrwt>
<totfact> 0.99977024E+03</totfact>
</mgrwt>
</event>
<event>
 5    1  0.3225662E-002  0.1250006E+03  0.7818608E-02  0.1235068E+00
         -4   -1    0    0    0  501 -0.00000000000E+00  0.00000000000E+00  0.30028096602E+02  0.30054941117E+02  0.12700000000E+01 0. -1.
          4   -1    0    0  501    0  0.00000000000E+00 -0.00000000000E+00 -0.12999962346E+03  0.13000582679E+03  0.12700000000E+01 0. -1.
         25    2    1    2    0    0  0.00000000000E+00  0.00000000000E+00 -0.99971526853E+02  0.16006076790E+03  0.12500057296E+03 0.  0.
    9000005    1    3    3    0    0 -0.47741697576E+02  0.37433595654E+02 -0.69181953917E+02  0.92020033247E+02  0.10000000000E+01 0.  0.
    9000005    1    3    3    0    0  0.47741697576E+02 -0.37433595654E+02 -0.30789572936E+02  0.68040734656E+02  0.10000000000E+01 0.  0.
<mgrwt>
<rscale>  0 0.12500057E+03</rscale>
<asrwt>0</asrwt>
<pdfrwt beam="2">  1        4 0.20002484E-01 0.12500057E+03</pdfrwt>
<pdfrwt beam="1">  1       -4 0.46222494E-02 0.12500057E+03</pdfrwt>
<totfact> 0.97329817E+03</totfact>
</mgrwt>
</event>
<event>
 5    1  0.3225662E-002  0.1250057E+03  0.7818608E-02  0.1235060E+00
          4   -1    0    0  501    0  0.00000000000E+00  0.00000000000E+00  0.25500748212E+02  0.25532353189E+02  0.12700000000E+01 0. -1.
         -4   -1    0    0    0  501 -0.00000000000E+00 -0.00000000000E+00 -0.15306659335E+03  0.15307186189E+03  0.12700000000E+01 0. -1.
         25    2    1    2    0    0  0.00000000000E+00  0.00000000000E+00 -0.12756584514E+03  0.17860421507E+03  0.12500568305E+03 0.  0.
    9000005    1    3    3    0    0 -0.44405369760E+02  0.41846998914E+02 -0.83089655368E+02  0.10309170195E+03  0.10000000000E+01 0.  0.
    9000005    1    3    3    0    0  0.44405369760E+02 -0.41846998914E+02 -0.44476189775E+02  0.75512513125E+02  0.10000000000E+01 0.  0.
<mgrwt>
<rscale>  0 0.12500568E+03</rscale>
<asrwt>0</asrwt>
<pdfrwt beam="1">  1        4 0.39260285E-02 0.12500568E+03</pdfrwt>
<pdfrwt beam="2">  1       -4 0.23551543E-01 0.12500568E+03</pdfrwt>
<totfact> 0.93856892E+03</totfact>
</mgrwt>
</event>
<event>
 5    1  0.3225662E-002  0.1250019E+03  0.7818608E-02  0.1235066E+00
          4   -1    0    0  501    0  0.00000000000E+00  0.00000000000E+00  0.21519187384E+02  0.21556630666E+02  0.12700000000E+01 0.  1.
         -4   -1    0    0    0  501 -0.00000000000E+00 -0.00000000000E+00 -0.18133218335E+03  0.18133663066E+03  0.12700000000E+01 0.  1.
         25    2    1    2    0    0  0.00000000000E+00  0.00000000000E+00 -0.15981299597E+03  0.20289326132E+03  0.12500192723E+03 0.  0.
    9000005    1    3    3    0    0 -0.16001001950E+02  0.58393769710E+02 -0.54787104037E+02  0.81660830103E+02  0.10000000000E+01 0.  0.
    9000005    1    3    3    0    0  0.16001001950E+02 -0.58393769710E+02 -0.10502589193E+03  0.12123243122E+03  0.10000000000E+01 0.  0.
<mgrwt>
<rscale>  0 0.12500193E+03</rscale>
<asrwt>0</asrwt>
<pdfrwt beam="1">  1        4 0.33138667E-02 0.12500193E+03</pdfrwt>
<pdfrwt beam="2">  1       -4 0.27900480E-01 0.12500193E+03</pdfrwt>
<totfact> 0.89645954E+03</totfact>
</mgrwt>
</event>
<event>
 5    1  0.3225662E-002  0.1250056E+03  0.7818608E-02  0.1235061E+00
         -4   -1    0    0    0  501 -0.00000000000E+00  0.00000000000E+00  0.61198106811E+03  0.61198238587E+03  0.12700000000E+01 0.  1.
          4   -1    0    0  501    0  0.00000000000E+00 -0.00000000000E+00 -0.63190229514E+01  0.64453821500E+01  0.12700000000E+01 0.  1.
         25    2    1    2    0    0  0.00000000000E+00  0.00000000000E+00  0.60566204515E+03  0.61842776802E+03  0.12500556517E+03 0.  0.
    9000005    1    3    3    0    0  0.19256509908E+02 -0.30916289220E+01  0.90977486240E+01  0.21543917314E+02  0.10000000000E+01 0.  0.
    9000005    1    3    3    0    0 -0.19256509908E+02  0.30916289220E+01  0.59656429653E+03  0.59688385071E+03  0.10000000000E+01 0.  0.
<mgrwt>
<rscale>  0 0.12500557E+03</rscale>
<asrwt>0</asrwt>
<pdfrwt beam="2">  1        4 0.98197840E-03 0.12500557E+03</pdfrwt>
<pdfrwt beam="1">  1       -4 0.94160782E-01 0.12500557E+03</pdfrwt>
<totfact> 0.47718849E+03</totfact>
</mgrwt>
</event>
<event>
 5    1  0.3225662E-002  0.1250202E+03  0.7818608E-02  0.1235038E+00
          4   -1    0    0  501    0  0.00000000000E+00  0.00000000000E+00  0.14635511313E+03  0.14636062325E+03  0.12700000000E+01 0. -1.
         -4   -1    0    0    0  501 -0.00000000000E+00 -0.00000000000E+00 -0.26677733490E+02  0.26707945712E+02  0.12700000000E+01 0. -1.
         25    2    1    2    0    0  0.00000000000E+00  0.00000000000E+00  0.11967737964E+03  0.17306856896E+03  0.12502021583E+03 0.  0.
    9000005    1    3    3    0    0  0.13324993084E+02 -0.34593956637E+02  0.12949947410E+03  0.13470490365E+03  0.10000000000E+01 0.  0.
    9000005    1    3    3    0    0 -0.13324993084E+02  0.34593956637E+02 -0.98220944593E+01  0.38363665311E+02  0.10000000000E+01 0.  0.
<mgrwt>
<rscale>  0 0.12502022E+03</rscale>
<asrwt>0</asrwt>
<pdfrwt beam="1">  1        4 0.22518919E-01 0.12502022E+03</pdfrwt>
<pdfrwt beam="2">  1       -4 0.41070145E-02 0.12502022E+03</pdfrwt>
<totfact> 0.94836748E+03</totfact>
</mgrwt>
</event>
<event>
 5    1  0.3225662E-002  0.1250000E+03  0.7818608E-02  0.1235069E+00
         -4   -1    0    0    0  501 -0.00000000000E+00  0.00000000000E+00  0.32929415450E+02  0.32953896611E+02  0.12700000000E+01 0. -1.
          4   -1    0    0  501    0  0.00000000000E+00 -0.00000000000E+00 -0.11855305652E+03  0.11855985876E+03  0.12700000000E+01 0. -1.
         25    2    1    2    0    0  0.00000000000E+00  0.00000000000E+00 -0.85623641068E+02  0.15151375537E+03  0.12500004063E+03 0.  0.
    9000005    1    3    3    0    0  0.12636351862E+02  0.33595080449E+02  0.19194971852E+02  0.40715522386E+02  0.10000000000E+01 0.  0.
    9000005    1    3    3    0    0 -0.12636351862E+02 -0.33595080449E+02 -0.10481861292E+03  0.11079823299E+03  0.10000000000E+01 0.  0.
<mgrwt>
<rscale>  0 0.12500004E+03</rscale>
<asrwt>0</asrwt>
<pdfrwt beam="2">  1        4 0.18241338E-01 0.12500004E+03</pdfrwt>
<pdfrwt beam="1">  1       -4 0.50684704E-02 0.12500004E+03</pdfrwt>
<totfact> 0.99002715E+03</totfact>
</mgrwt>
</event>
<event>
 5    1  0.3225662E-002  0.1250014E+03  0.7818608E-02  0.1235067E+00
          4   -1    0    0  501    0  0.00000000000E+00  0.00000000000E+00  0.11832586531E+04  0.11832593347E+04  0.12700000000E+01 0. -1.
         -4   -1    0    0    0  501 -0.00000000000E+00 -0.00000000000E+00 -0.31784927856E+01  0.34228228684E+01  0.12700000000E+01 0. -1.
         25    2    1    2    0    0  0.00000000000E+00  0.00000000000E+00  0.11800801604E+04  0.11866821576E+04  0.12500143281E+03 0.  0.
    9000005    1    3    3    0    0  0.27856377954E+02 -0.53042661619E+02  0.75875421889E+03  0.76111659187E+03  0.10000000000E+01 0.  0.
    9000005    1    3    3    0    0 -0.27856377954E+02  0.53042661619E+02  0.42132594147E+03  0.42556556569E+03  0.10000000000E+01 0.  0.
<mgrwt>
<rscale>  0 0.12500143E+03</rscale>
<asrwt>0</asrwt>
<pdfrwt beam="1">  1        4 0.18205880E+00 0.12500143E+03</pdfrwt>
<pdfrwt beam="2">  1       -4 0.50784548E-03 0.12500143E+03</pdfrwt>
<totfact> 0.25063215E+03</totfact>
</mgrwt>
</event>
<event>
 5    1  0.3225662E-002  0.1250027E+03  0.7818608E-02  0.1235065E+00
          4   -1    0    0  501    0  0.00000000000E+00  0.00000000000E+00  0.13922613412E+02  0.13980417169E+02  0.12700000000E+01 0. -1.
         -4   -1    0    0    0  501 -0.00000000000E+00 -0.00000000000E+00 -0.27994051302E+03  0.27994339379E+03  0.12700000000E+01 0. -1.
         25    2    1    2    0    0  0.00000000000E+00  0.00000000000E+00 -0.26601789960E+03  0.29392381096E+03  0.12500273493E+03 0.  0.
    9000005    1    3    3    0    0  0.16509092029E+01  0.59177822483E+02 -0.18007573106E+03  0.18956004086E+03  0.10000000000E+01 0.  0.
    9000005    1    3    3    0    0 -0.16509092029E+01 -0.59177822483E+02 -0.85942168544E+02  0.10436377010E+03  0.10000000000E+01 0.  0.
<mgrwt>
<rscale>  0 0.12500273E+03</rscale>
<asrwt>0</asrwt>
<pdfrwt beam="1">  1        4 0.21466088E-02 0.12500273E+03</pdfrwt>
<pdfrwt beam="2">  1       -4 0.43072435E-01 0.12500273E+03</pdfrwt>
<totfact> 0.76362765E+03</totfact>
</mgrwt>
</event>
<event>
 5    1  0.3225662E-002  0.1250039E+03  0.7818608E-02  0.1235063E+00
          4   -1    0    0  501    0  0.00000000000E+00  0.00000000000E+00  0.10884701793E+02  0.10958541560E+02  0.12700000000E+01 0.  1.
         -4   -1    0    0    0  501 -0.00000000000E+00 -0.00000000000E+00 -0.35760945457E+03  0.35761170967E+03  0.12700000000E+01 0.  1.
         25    2    1    2    0    0  0.00000000000E+00  0.00000000000E+00 -0.34672475277E+03  0.36857025123E+03  0.12500390357E+03 0.  0.
    9000005    1    3    3    0    0  0.45577111176E+02 -0.36285007631E+02 -0.24005381613E+03  0.24702370227E+03  0.10000000000E+01 0.  0.
    9000005    1    3    3    0    0 -0.45577111176E+02  0.36285007631E+02 -0.10667093664E+03  0.12154654897E+03  0.10000000000E+01 0.  0.
<mgrwt>
<rscale>  0 0.12500390E+03</rscale>
<asrwt>0</asrwt>
<pdfrwt beam="1">  1        4 0.16804232E-02 0.12500390E+03</pdfrwt>
<pdfrwt beam="2">  1       -4 0.55022684E-01 0.12500390E+03</pdfrwt>
<totfact> 0.67722940E+03</totfact>
</mgrwt>
</event>
<event>
 5    1  0.3225662E-002  0.1250014E+03  0.7818608E-02  0.1235067E+00
         -4   -1    0    0    0  501 -0.00000000000E+00  0.00000000000E+00  0.17474978783E+01  0.21602427722E+01  0.12700000000E+01 0.  1.
          4   -1    0    0  501    0  0.00000000000E+00 -0.00000000000E+00 -0.19988683466E+04  0.19988687500E+04  0.12700000000E+01 0.  1.
         25    2    1    2    0    0  0.00000000000E+00  0.00000000000E+00 -0.19971208487E+04  0.20010289928E+04  0.12500138291E+03 0.  0.
    9000005    1    3    3    0    0  0.55634157344E+02  0.20965922469E+02 -0.13067340088E+04  0.13080861972E+04  0.10000000000E+01 0.  0.
    9000005    1    3    3    0    0 -0.55634157344E+02 -0.20965922469E+02 -0.69038683985E+03  0.69294279562E+03  0.10000000000E+01 0.  0.
<mgrwt>
<rscale>  0 0.12500138E+03</rscale>
<asrwt>0</asrwt>
<pdfrwt beam="2">  1        4 0.30754835E+00 0.12500138E+03</pdfrwt>
<pdfrwt beam="1">  1       -4 0.30062807E-03 0.12500138E+03</pdfrwt>
<totfact> 0.98476162E+02</totfact>
</mgrwt>
</event>
<event>
 5    1  0.3225662E-002  0.1250026E+03  0.7818608E-02  0.1235065E+00
          4   -1    0    0  501    0  0.00000000000E+00  0.00000000000E+00  0.36962025500E+03  0.36962243682E+03  0.12700000000E+01 0. -1.
         -4   -1    0    0    0  501 -0.00000000000E+00 -0.00000000000E+00 -0.10528336781E+02  0.10604658192E+02  0.12700000000E+01 0. -1.
         25    2    1    2    0    0  0.00000000000E+00  0.00000000000E+00  0.35909191821E+03  0.38022709501E+03  0.12500255220E+03 0.  0.
    9000005    1    3    3    0    0  0.34818619613E+02 -0.88618543528E+01  0.33507872359E+03  0.33700091949E+03  0.10000000000E+01 0.  0.
    9000005    1    3    3    0    0 -0.34818619613E+02  0.88618543528E+01  0.24013194620E+02  0.43226175521E+02  0.10000000000E+01 0.  0.
<mgrwt>
<rscale>  0 0.12500255E+03</rscale>
<asrwt>0</asrwt>
<pdfrwt beam="1">  1        4 0.56870691E-01 0.12500255E+03</pdfrwt>
<pdfrwt beam="2">  1       -4 0.16257829E-02 0.12500255E+03</pdfrwt>
<totfact> 0.66518640E+03</totfact>
</mgrwt>
</event>
<event>
 5    1  0.3225662E-002  0.1249966E+03  0.7818608E-02  0.1235075E+00
         -4   -1    0    0    0  501 -0.00000000000E+00  0.00000000000E+00  0.70530273714E+01  0.71664562443E+01  0.12700000000E+01 0.  1.
          4   -1    0    0  501    0  0.00000000000E+00 -0.00000000000E+00 -0.54927858203E+03  0.54928005023E+03  0.12700000000E+01 0.  1.
         25    2    1    2    0    0  0.00000000000E+00  0.00000000000E+00 -0.54222555466E+03  0.55644650647E+03  0.12499664971E+03 0.  0.
    9000005    1    3    3    0    0 -0.30727901276E+02  0.51067496100E+02 -0.35474624880E+03  0.35971932685E+03  0.10000000000E+01 0.  0.
    9000005    1    3    3    0    0  0.30727901276E+02 -0.51067496100E+02 -0.18747930586E+03  0.19672717962E+03  0.10000000000E+01 0.  0.
<mgrwt>
<rscale>  0 0.12499665E+03</rscale>
<asrwt>0</asrwt>
<pdfrwt beam="2">  1        4 0.84513202E-01 0.12499665E+03</pdfrwt>
<pdfrwt beam="1">  1       -4 0.10939198E-02 0.12499665E+03</pdfrwt>
<totfact> 0.51741358E+03</totfact>
</mgrwt>
</event>
<event>
 5    1  0.3225662E-002  0.1250043E+03  0.7818608E-02  0.1235063E+00
         -4   -1    0    0    0  501 -0.00000000000E+00  0.00000000000E+00  0.88898195516E+02  0.88907266665E+02  0.12700000000E+01 0. -1.
          4   -1    0    0  501    0  0.00000000000E+00 -0.00000000000E+00 -0.43923212222E+02  0.43941568838E+02  0.12700000000E+01 0. -1.
         25    2    1    2    0    0  0.00000000000E+00  0.00000000000E+00  0.44974983293E+02  0.13284883550E+03  0.12500425582E+03 0.  0.
    9000005    1    3    3    0    0 -0.33367005890E+02 -0.51988268769E+02  0.12440170944E+02  0.63022972199E+02  0.10000000000E+01 0.  0.
    9000005    1    3    3    0    0  0.33367005890E+02  0.51988268769E+02  0.32534812349E+02  0.69825863305E+02  0.10000000000E+01 0.  0.
<mgrwt>
<rscale>  0 0.12500426E+03</rscale>
<asrwt>0</asrwt>
<pdfrwt beam="2">  1        4 0.67595271E-02 0.12500426E+03</pdfrwt>
<pdfrwt beam="1">  1       -4 0.13678755E-01 0.12500426E+03</pdfrwt>
<totfact> 0.10282627E+04</totfact>
</mgrwt>
</event>
<event>
 5    1  0.3225662E-002  0.1249994E+03  0.7818608E-02  0.1235070E+00
         -4   -1    0    0    0  501 -0.00000000000E+00  0.00000000000E+00  0.60631275620E+02  0.60644575053E+02  0.12700000000E+01 0. -1.
          4   -1    0    0  501    0  0.00000000000E+00 -0.00000000000E+00 -0.64399032974E+02  0.64411554460E+02  0.12700000000E+01 0. -1.
         25    2    1    2    0    0  0.00000000000E+00  0.00000000000E+00 -0.37677573534E+01  0.12505612951E+03  0.12499935813E+03 0.  0.
    9000005    1    3    3    0    0  0.47344334587E+02  0.39324275359E+02 -0.12720475442E+02  0.62854555487E+02  0.10000000000E+01 0.  0.
    9000005    1    3    3    0    0 -0.47344334587E+02 -0.39324275359E+02  0.89527180889E+01  0.62201574025E+02  0.10000000000E+01 0.  0.
<mgrwt>
<rscale>  0 0.12499936E+03</rscale>
<asrwt>0</asrwt>
<pdfrwt beam="2">  1        4 0.99095297E-02 0.12499936E+03</pdfrwt>
<pdfrwt beam="1">  1       -4 0.93298748E-02 0.12499936E+03</pdfrwt>
<totfact> 0.10451795E+04</totfact>
</mgrwt>
</event>
<event>
 5    1  0.3225662E-002  0.1250002E+03  0.7818608E-02  0.1235069E+00
          4   -1    0    0  501    0  0.00000000000E+00  0.00000000000E+00  0.13017531952E+03  0.13018151448E+03  0.12700000000E+01 0. -1.
         -4   -1    0    0    0  501 -0.00000000000E+00 -0.00000000000E+00 -0.29987369974E+02  0.30014250915E+02  0.12700000000E+01 0. -1.
         25    2    1    2    0    0  0.00000000000E+00  0.00000000000E+00  0.10018794955E+03  0.16019576539E+03  0.12500023206E+03 0.  0.
    9000005    1    3    3    0    0  0.45402697460E+02 -0.23533585967E+02  0.96123882099E+02  0.10888542288E+03  0.10000000000E+01 0.  0.
    9000005    1    3    3    0    0 -0.45402697460E+02  0.23533585967E+02  0.40640674475E+01  0.51310342519E+02  0.10000000000E+01 0.  0.
<mgrwt>
<rscale>  0 0.12500023E+03</rscale>
<asrwt>0</asrwt>
<pdfrwt beam="1">  1        4 0.20029516E-01 0.12500023E+03</pdfrwt>
<pdfrwt beam="2">  1       -4 0.46159859E-02 0.12500023E+03</pdfrwt>
<totfact> 0.97304549E+03</totfact>
</mgrwt>
</event>
<event>
 5    1  0.3225662E-002  0.1249962E+03  0.7818608E-02  0.1235075E+00
         -4   -1    0    0    0  501 -0.00000000000E+00  0.00000000000E+00  0.10785654193E+03  0.10786401873E+03  0.12700000000E+01 0. -1.
          4   -1    0    0  501    0  0.00000000000E+00 -0.00000000000E+00 -0.36195033671E+02  0.36217307499E+02  0.12700000000E+01 0. -1.
         25    2    1    2    0    0  0.00000000000E+00  0.00000000000E+00  0.71661508261E+02  0.14408132623E+03  0.12499622715E+03 0.  0.
    9000005    1    3    3    0    0 -0.23057380395E+02 -0.24997777286E+02 -0.24599898439E+02  0.41984362126E+02  0.10000000000E+01 0.  0.
    9000005    1    3    3    0    0  0.23057380395E+02  0.24997777286E+02  0.96261406700E+02  0.10209696411E+03  0.10000000000E+01 0.  0.
<mgrwt>
<rscale>  0 0.12499623E+03</rscale>
<asrwt>0</asrwt>
<pdfrwt beam="2">  1        4 0.55707552E-02 0.12499623E+03</pdfrwt>
<pdfrwt beam="1">  1       -4 0.16595603E-01 0.12499623E+03</pdfrwt>
<totfact> 0.10050541E+04</totfact>
</mgrwt>
</event>
<event>
 5    1  0.3225662E-002  0.1250014E+03  0.7818608E-02  0.1235067E+00
          4   -1    0    0  501    0  0.00000000000E+00  0.00000000000E+00  0.13972975200E+03  0.13973552338E+03  0.12700000000E+01 0.  1.
         -4   -1    0    0    0  501 -0.00000000000E+00 -0.00000000000E+00 -0.27935592379E+02  0.27964445669E+02  0.12700000000E+01 0.  1.
         25    2    1    2    0    0  0.00000000000E+00  0.00000000000E+00  0.11179415962E+03  0.16769996905E+03  0.12500138196E+03 0.  0.
    9000005    1    3    3    0    0 -0.29341359457E+02 -0.90780454564E+00 -0.18116555150E+02  0.34510129735E+02  0.10000000000E+01 0.  0.
    9000005    1    3    3    0    0  0.29341359457E+02  0.90780454564E+00  0.12991071477E+03  0.13318983931E+03  0.10000000000E+01 0.  0.
<mgrwt>
<rscale>  0 0.12500138E+03</rscale>
<asrwt>0</asrwt>
<pdfrwt beam="1">  1        4 0.21499548E-01 0.12500138E+03</pdfrwt>
<pdfrwt beam="2">  1       -4 0.43004470E-02 0.12500138E+03</pdfrwt>
<totfact> 0.95875515E+03</totfact>
</mgrwt>
</event>
<event>
 5    1  0.3225662E-002  0.1249994E+03  0.7818608E-02  0.1235070E+00
         -4   -1    0    0    0  501 -0.00000000000E+00  0.00000000000E+00  0.67119335297E+02  0.67131349389E+02  0.12700000000E+01 0.  1.
          4   -1    0    0  501    0  0.00000000000E+00 -0.00000000000E+00 -0.58173836417E+02  0.58187697527E+02  0.12700000000E+01 0.  1.
         25    2    1    2    0    0  0.00000000000E+00  0.00000000000E+00  0.89454988803E+01  0.12531904692E+03  0.12499936628E+03 0.  0.
    9000005    1    3    3    0    0  0.57065709476E+02 -0.19678941025E+02  0.20683656333E+02  0.63816687138E+02  0.10000000000E+01 0.  0.
    9000005    1    3    3    0    0 -0.57065709476E+02  0.19678941025E+02 -0.11738157453E+02  0.61502359778E+02  0.10000000000E+01 0.  0.
<mgrwt>
<rscale>  0 0.12499937E+03</rscale>
<asrwt>0</asrwt>
<pdfrwt beam="2">  1        4 0.89518114E-02 0.12499937E+03</pdfrwt>
<pdfrwt beam="1">  1       -4 0.10328042E-01 0.12499937E+03</pdfrwt>
<totfact> 0.10446086E+04</totfact>
</mgrwt>
</event>
<event>
 5    1  0.3225662E-002  0.1249829E+03  0.7818608E-02  0.1235096E+00
          4   -1    0    0  501    0  0.00000000000E+00  0.00000000000E+00  0.28100028365E+03  0.28100315356E+03  0.12700000000E+01 0.  1.
         -4   -1    0    0    0  501 -0.00000000000E+00 -0.00000000000E+00 -0.13865472342E+02  0.13923513323E+02  0.12700000000E+01 0.  1.
         25    2    1    2    0    0  0.00000000000E+00  0.00000000000E+00  0.26713481130E+03  0.29492666688E+03  0.12498292454E+03 0.  0.
    9000005    1    3    3    0    0 -0.39172786761E+02  0.22240350170E+02  0.31386696347E+02  0.54911429647E+02  0.10000000000E+01 0.  0.
    9000005    1    3    3    0    0  0.39172786761E+02 -0.22240350170E+02  0.23574811496E+03  0.24001523723E+03  0.10000000000E+01 0.  0.
<mgrwt>
<rscale>  0 0.12498292E+03</rscale>
<asrwt>0</asrwt>
<pdfrwt beam="1">  1        4 0.43235498E-01 0.12498292E+03</pdfrwt>
<pdfrwt beam="2">  1       -4 0.21378351E-02 0.12498292E+03</pdfrwt>
<totfact> 0.76268582E+03</totfact>
</mgrwt>
</event>
<event>
 5    1  0.3225662E-002  0.1249758E+03  0.7818608E-02  0.1235107E+00
         -4   -1    0    0    0  501 -0.00000000000E+00  0.00000000000E+00  0.83739352876E+01  0.84696925682E+01  0.12700000000E+01 0. -1.
          4   -1    0    0  501    0  0.00000000000E+00 -0.00000000000E+00 -0.46354886736E+03  0.46355060708E+03  0.12700000000E+01 0. -1.
         25    2    1    2    0    0  0.00000000000E+00  0.00000000000E+00 -0.45517493207E+03  0.47202029965E+03  0.12497577565E+03 0.  0.
    9000005    1    3    3    0    0  0.42234609510E+02  0.43690776373E+02 -0.17271321470E+03  0.18309423998E+03  0.10000000000E+01 0.  0.
    9000005    1    3    3    0    0 -0.42234609510E+02 -0.43690776373E+02 -0.28246171737E+03  0.28892605968E+03  0.10000000000E+01 0.  0.
<mgrwt>
<rscale>  0 0.12497578E+03</rscale>
<asrwt>0</asrwt>
<pdfrwt beam="2">  1        4 0.71322690E-01 0.12497578E+03</pdfrwt>
<pdfrwt beam="1">  1       -4 0.12957979E-02 0.12497578E+03</pdfrwt>
<totfact> 0.58133533E+03</totfact>
</mgrwt>
</event>
<event>
 5    1  0.3225662E-002  0.1250042E+03  0.7818608E-02  0.1235063E+00
         -4   -1    0    0    0  501 -0.00000000000E+00  0.00000000000E+00  0.64835995545E+01  0.66068118773E+01  0.12700000000E+01 0.  1.
          4   -1    0    0  501    0  0.00000000000E+00 -0.00000000000E+00 -0.59672687233E+03  0.59672822378E+03  0.12700000000E+01 0.  1.
         25    2    1    2    0    0  0.00000000000E+00  0.00000000000E+00 -0.59024327277E+03  0.60333503566E+03  0.12500417673E+03 0.  0.
    9000005    1    3    3    0    0  0.24445492246E+02 -0.49454453942E+02 -0.43684272855E+03  0.44031340497E+03  0.10000000000E+01 0.  0.
    9000005    1    3    3    0    0 -0.24445492246E+02  0.49454453942E+02 -0.15340054422E+03  0.16302163069E+03  0.10000000000E+01 0.  0.
<mgrwt>
<rscale>  0 0.12500418E+03</rscale>
<asrwt>0</asrwt>
<pdfrwt beam="2">  1        4 0.91813673E-01 0.12500418E+03</pdfrwt>
<pdfrwt beam="1">  1       -4 0.10070592E-02 0.12500418E+03</pdfrwt>
<totfact> 0.48653329E+03</totfact>
</mgrwt>
</event>
<event>
 5    1  0.3225662E-002  0.1249981E+03  0.7818608E-02  0.1235072E+00
          4   -1    0    0  501    0  0.00000000000E+00  0.00000000000E+00  0.12957435046E+02  0.13019524683E+02  0.12700000000E+01 0.  1.
         -4   -1    0    0    0  501 -0.00000000000E+00 -0.00000000000E+00 -0.30067475736E+03  0.30067743948E+03  0.12700000000E+01 0.  1.
         25    2    1    2    0    0  0.00000000000E+00  0.00000000000E+00 -0.28771732231E+03  0.31369696417E+03  0.12499811105E+03 0.  0.
    9000005    1    3    3    0    0 -0.18306255624E+02 -0.56846219727E+02 -0.19003284119E+03  0.19919862555E+03  0.10000000000E+01 0.  0.
    9000005    1    3    3    0    0  0.18306255624E+02  0.56846219727E+02 -0.97684481127E+02  0.11449833861E+03  0.10000000000E+01 0.  0.
<mgrwt>
<rscale>  0 0.12499811E+03</rscale>
<asrwt>0</asrwt>
<pdfrwt beam="1">  1        4 0.19984342E-02 0.12499811E+03</pdfrwt>
<pdfrwt beam="2">  1       -4 0.46262632E-01 0.12499811E+03</pdfrwt>
<totfact> 0.73915211E+03</totfact>
</mgrwt>
</event>
<event>
 5    1  0.3225662E-002  0.1250007E+03  0.7818608E-02  0.1235068E+00
         -4   -1    0    0    0  501 -0.00000000000E+00  0.00000000000E+00  0.54037519752E+02  0.54052441581E+02  0.12700000000E+01 0.  1.
          4   -1    0    0  501    0  0.00000000000E+00 -0.00000000000E+00 -0.72258047358E+02  0.72269207191E+02  0.12700000000E+01 0.  1.
         25    2    1    2    0    0  0.00000000000E+00  0.00000000000E+00 -0.18220527607E+02  0.12632164877E+03  0.12500068529E+03 0.  0.
    9000005    1    3    3    0    0 -0.46265362355E+01  0.59618356122E+02  0.92347989146E+01  0.60514748081E+02  0.10000000000E+01 0.  0.
    9000005    1    3    3    0    0  0.46265362355E+01 -0.59618356122E+02 -0.27455326521E+02  0.65806900692E+02  0.10000000000E+01 0.  0.
<mgrwt>
<rscale>  0 0.12500069E+03</rscale>
<asrwt>0</asrwt>
<pdfrwt beam="2">  1        4 0.11118629E-01 0.12500069E+03</pdfrwt>
<pdfrwt beam="1">  1       -4 0.83154708E-02 0.12500069E+03</pdfrwt>
<totfact> 0.10423759E+04</totfact>
</mgrwt>
</event>
<event>
 5    1  0.3225662E-002  0.1250178E+03  0.7818608E-02  0.1235041E+00
         -4   -1    0    0    0  501 -0.00000000000E+00  0.00000000000E+00  0.50462753954E+03  0.50462913764E+03  0.12700000000E+01 0. -1.
          4   -1    0    0  501    0  0.00000000000E+00 -0.00000000000E+00 -0.76893699125E+01  0.77935428177E+01  0.12700000000E+01 0. -1.
         25    2    1    2    0    0  0.00000000000E+00  0.00000000000E+00  0.49693816962E+03  0.51242268046E+03  0.12501783481E+03 0.  0.
    9000005    1    3    3    0    0 -0.46730548468E+02  0.39162995204E+02  0.19213777883E+03  0.20158226710E+03  0.10000000000E+01 0.  0.
    9000005    1    3    3    0    0  0.46730548468E+02 -0.39162995204E+02  0.30480039079E+03  0.31084041336E+03  0.10000000000E+01 0.  0.
<mgrwt>
<rscale>  0 0.12501783E+03</rscale>
<asrwt>0</asrwt>
<pdfrwt beam="2">  1        4 0.11911158E-02 0.12501783E+03</pdfrwt>
<pdfrwt beam="1">  1       -4 0.77643172E-01 0.12501783E+03</pdfrwt>
<totfact> 0.54891703E+03</totfact>
</mgrwt>
</event>
<event>
 5    1  0.3225662E-002  0.1249855E+03  0.7818608E-02  0.1235092E+00
          4   -1    0    0  501    0  0.00000000000E+00  0.00000000000E+00  0.16215112824E+02  0.16264771253E+02  0.12700000000E+01 0. -1.
         -4   -1    0    0    0  501 -0.00000000000E+00 -0.00000000000E+00 -0.24042639252E+03  0.24042974674E+03  0.12700000000E+01 0. -1.
         25    2    1    2    0    0  0.00000000000E+00  0.00000000000E+00 -0.22421127969E+03  0.25669451800E+03  0.12498550967E+03 0.  0.
    9000005    1    3    3    0    0 -0.27353276748E+02  0.20916603888E+02 -0.50196520702E+01  0.34812396844E+02  0.10000000000E+01 0.  0.
    9000005    1    3    3    0    0  0.27353276748E+02 -0.20916603888E+02 -0.21919162762E+03  0.22188212115E+03  0.10000000000E+01 0.  0.
<mgrwt>
<rscale>  0 0.12498551E+03</rscale>
<asrwt>0</asrwt>
<pdfrwt beam="1">  1        4 0.24987108E-02 0.12498551E+03</pdfrwt>
<pdfrwt beam="2">  1       -4 0.36992751E-01 0.12498551E+03</pdfrwt>
<totfact> 0.81398447E+03</totfact>
</mgrwt>
</event>
<event>
 5    1  0.3225662E-002  0.1250127E+03  0.7818608E-02  0.1235049E+00
          4   -1    0    0  501    0  0.00000000000E+00  0.00000000000E+00  0.32758114820E+02  0.32782723904E+02  0.12700000000E+01 0.  1.
         -4   -1    0    0    0  501 -0.00000000000E+00 -0.00000000000E+00 -0.11919674189E+03  0.11920350741E+03  0.12700000000E+01 0.  1.
         25    2    1    2    0    0  0.00000000000E+00  0.00000000000E+00 -0.86438627073E+02  0.15198623131E+03  0.12501271238E+03 0.  0.
    9000005    1    3    3    0    0 -0.45950758020E+02 -0.26354060808E+02 -0.83542374619E+02  0.98925916931E+02  0.10000000000E+01 0.  0.
    9000005    1    3    3    0    0  0.45950758020E+02  0.26354060808E+02 -0.28962524538E+01  0.53060314379E+02  0.10000000000E+01 0.  0.
<mgrwt>
<rscale>  0 0.12501271E+03</rscale>
<asrwt>0</asrwt>
<pdfrwt beam="1">  1        4 0.50421235E-02 0.12501271E+03</pdfrwt>
<pdfrwt beam="2">  1       -4 0.18340374E-01 0.12501271E+03</pdfrwt>
<totfact> 0.98880950E+03</totfact>
</mgrwt>
</event>
<event>
 5    1  0.3225662E-002  0.1250032E+03  0.7818608E-02  0.1235064E+00
         -4   -1    0    0    0  501 -0.00000000000E+00  0.00000000000E+00  0.31044319632E+02  0.31070286150E+02  0.12700000000E+01 0. -1.
          4   -1    0    0  501    0  0.00000000000E+00 -0.00000000000E+00 -0.12575277028E+03  0.12575918309E+03  0.12700000000E+01 0. -1.
         25    2    1    2    0    0  0.00000000000E+00  0.00000000000E+00 -0.94708450643E+02  0.15682946924E+03  0.12500316716E+03 0.  0.
    9000005    1    3    3    0    0 -0.53758953951E+02  0.31816116437E+02 -0.45124855546E+02  0.77068430521E+02  0.10000000000E+01 0.  0.
    9000005    1    3    3    0    0  0.53758953951E+02 -0.31816116437E+02 -0.49583595097E+02  0.79761038720E+02  0.10000000000E+01 0.  0.
<mgrwt>
<rscale>  0 0.12500317E+03</rscale>
<asrwt>0</asrwt>
<pdfrwt beam="2">  1        4 0.19349070E-01 0.12500317E+03</pdfrwt>
<pdfrwt beam="1">  1       -4 0.47785400E-02 0.12500317E+03</pdfrwt>
<totfact> 0.97950568E+03</totfact>
</mgrwt>
</event>
<event>
 5    1  0.3225662E-002  0.1249991E+03  0.7818608E-02  0.1235071E+00
          4   -1    0    0  501    0  0.00000000000E+00  0.00000000000E+00  0.44864592128E+02  0.44882563728E+02  0.12700000000E+01 0. -1.
         -4   -1    0    0    0  501 -0.00000000000E+00 -0.00000000000E+00 -0.87026253971E+02  0.87035520222E+02  0.12700000000E+01 0. -1.
         25    2    1    2    0    0  0.00000000000E+00  0.00000000000E+00 -0.42161661844E+02  0.13191808395E+03  0.12499910057E+03 0.  0.
    9000005    1    3    3    0    0  0.11508725290E+01 -0.11872904764E+02  0.43657124915E+02  0.45268476128E+02  0.10000000000E+01 0.  0.
    9000005    1    3    3    0    0 -0.11508725290E+01  0.11872904764E+02 -0.85818786758E+02  0.86649607822E+02  0.10000000000E+01 0.  0.
<mgrwt>
<rscale>  0 0.12499910E+03</rscale>
<asrwt>0</asrwt>
<pdfrwt beam="1">  1        4 0.69043402E-02 0.12499910E+03</pdfrwt>
<pdfrwt beam="2">  1       -4 0.13390750E-01 0.12499910E+03</pdfrwt>
<totfact> 0.10303656E+04</totfact>
</mgrwt>
</event>
<event>
 5    1  0.3225662E-002  0.1249966E+03  0.7818608E-02  0.1235075E+00
          4   -1    0    0  501    0  0.00000000000E+00  0.00000000000E+00  0.85706878409E+02  0.85716287289E+02  0.12700000000E+01 0. -1.
         -4   -1    0    0    0  501 -0.00000000000E+00 -0.00000000000E+00 -0.45553614697E+02  0.45571314574E+02  0.12700000000E+01 0. -1.
         25    2    1    2    0    0  0.00000000000E+00  0.00000000000E+00  0.40153263712E+02  0.13128760186E+03  0.12499659922E+03 0.  0.
    9000005    1    3    3    0    0 -0.26848069691E+02  0.28779095959E+02  0.71058004524E+02  0.81236046293E+02  0.10000000000E+01 0.  0.
    9000005    1    3    3    0    0  0.26848069691E+02 -0.28779095959E+02 -0.30904740812E+02  0.50051555570E+02  0.10000000000E+01 0.  0.
<mgrwt>
<rscale>  0 0.12499660E+03</rscale>
<asrwt>0</asrwt>
<pdfrwt beam="1">  1        4 0.13187759E-01 0.12499660E+03</pdfrwt>
<pdfrwt beam="2">  1       -4 0.70103338E-02 0.12499660E+03</pdfrwt>
<totfact> 0.10317719E+04</totfact>
</mgrwt>
</event>
<event>
 5    1  0.3225662E-002  0.1249485E+03  0.7818608E-02  0.1235150E+00
          4   -1    0    0  501    0  0.00000000000E+00  0.00000000000E+00  0.47610979391E+02  0.47627914699E+02  0.12700000000E+01 0.  1.
         -4   -1    0    0    0  501 -0.00000000000E+00 -0.00000000000E+00 -0.81941165003E+02  0.81951006229E+02  0.12700000000E+01 0.  1.
         25    2    1    2    0    0  0.00000000000E+00  0.00000000000E+00 -0.34330185611E+02  0.12957892093E+03  0.12494852982E+03 0.  0.
    9000005    1    3    3    0    0 -0.96970880102E+01  0.22829166332E+02 -0.76620559398E+02  0.80541383609E+02  0.10000000000E+01 0.  0.
    9000005    1    3    3    0    0  0.96970880102E+01 -0.22829166332E+02  0.42290373786E+02  0.49037537319E+02  0.10000000000E+01 0.  0.
<mgrwt>
<rscale>  0 0.12494853E+03</rscale>
<asrwt>0</asrwt>
<pdfrwt beam="1">  1        4 0.73268258E-02 0.12494853E+03</pdfrwt>
<pdfrwt beam="2">  1       -4 0.12608393E-01 0.12494853E+03</pdfrwt>
<totfact> 0.10365562E+04</totfact>
</mgrwt>
</event>
<event>
 5    1  0.3225662E-002  0.1250023E+03  0.7818608E-02  0.1235066E+00
         -4   -1    0    0    0  501 -0.00000000000E+00  0.00000000000E+00  0.34086314658E+02  0.34109965508E+02  0.12700000000E+01 0.  1.
          4   -1    0    0  501    0  0.00000000000E+00 -0.00000000000E+00 -0.11453611702E+03  0.11454315781E+03  0.12700000000E+01 0.  1.
         25    2    1    2    0    0  0.00000000000E+00  0.00000000000E+00 -0.80449802361E+02  0.14865312332E+03  0.12500232147E+03 0.  0.
    9000005    1    3    3    0    0  0.48964074159E+02  0.20926124715E+02 -0.13248429449E+01  0.53274181953E+02  0.10000000000E+01 0.  0.
    9000005    1    3    3    0    0 -0.48964074159E+02 -0.20926124715E+02 -0.79124959416E+02  0.95378941368E+02  0.10000000000E+01 0.  0.
<mgrwt>
<rscale>  0 0.12500232E+03</rscale>
<asrwt>0</asrwt>
<pdfrwt beam="2">  1        4 0.17623302E-01 0.12500232E+03</pdfrwt>
<pdfrwt beam="1">  1       -4 0.52464093E-02 0.12500232E+03</pdfrwt>
<totfact> 0.99567655E+03</totfact>
</mgrwt>
</event>
<event>
 5    1  0.3225662E-002  0.1250005E+03  0.7818608E-02  0.1235069E+00
          4   -1    0    0  501    0  0.00000000000E+00  0.00000000000E+00  0.15419162084E+04  0.15419167314E+04  0.12700000000E+01 0. -1.
         -4   -1    0    0    0  501 -0.00000000000E+00 -0.00000000000E+00 -0.23736715526E+01  0.26920654969E+01  0.12700000000E+01 0. -1.
         25    2    1    2    0    0  0.00000000000E+00  0.00000000000E+00  0.15395425368E+04  0.15446087969E+04  0.12500045097E+03 0.  0.
    9000005    1    3    3    0    0 -0.28271470312E+02 -0.79371000570E+00  0.81176446104E+02  0.85968141839E+02  0.10000000000E+01 0.  0.
    9000005    1    3    3    0    0  0.28271470312E+02  0.79371000570E+00  0.14583660907E+04  0.14586406550E+04  0.10000000000E+01 0.  0.
<mgrwt>
<rscale>  0 0.12500045E+03</rscale>
<asrwt>0</asrwt>
<pdfrwt beam="1">  1        4 0.23724247E+00 0.12500045E+03</pdfrwt>
<pdfrwt beam="2">  1       -4 0.38971222E-03 0.12500045E+03</pdfrwt>
<totfact> 0.17069830E+03</totfact>
</mgrwt>
</event>
<event>
 5    1  0.3225662E-002  0.1249929E+03  0.7818608E-02  0.1235080E+00
          4   -1    0    0  501    0  0.00000000000E+00  0.00000000000E+00  0.10454744319E+03  0.10455515663E+03  0.12700000000E+01 0.  1.
         -4   -1    0    0    0  501 -0.00000000000E+00 -0.00000000000E+00 -0.37339269315E+02  0.37360860977E+02  0.12700000000E+01 0.  1.
         25    2    1    2    0    0  0.00000000000E+00  0.00000000000E+00  0.67208173878E+02  0.14191601761E+03  0.12499286947E+03 0.  0.
    9000005    1    3    3    0    0 -0.60341867809E+02 -0.12958843991E+02  0.22495109697E+02  0.65697051749E+02  0.10000000000E+01 0.  0.
    9000005    1    3    3    0    0  0.60341867809E+02  0.12958843991E+02  0.44713064181E+02  0.76218965859E+02  0.10000000000E+01 0.  0.
<mgrwt>
<rscale>  0 0.12499287E+03</rscale>
<asrwt>0</asrwt>
<pdfrwt beam="1">  1        4 0.16086476E-01 0.12499287E+03</pdfrwt>
<pdfrwt beam="2">  1       -4 0.57467573E-02 0.12499287E+03</pdfrwt>
<totfact> 0.10095650E+04</totfact>
</mgrwt>
</event>
<event>
 5    1  0.3225662E-002  0.1249791E+03  0.7818608E-02  0.1235102E+00
          4   -1    0    0  501    0  0.00000000000E+00  0.00000000000E+00  0.60283558418E+02  0.60296934545E+02  0.12700000000E+01 0. -1.
         -4   -1    0    0    0  501 -0.00000000000E+00 -0.00000000000E+00 -0.64749469493E+02  0.64761923223E+02  0.12700000000E+01 0. -1.
         25    2    1    2    0    0  0.00000000000E+00  0.00000000000E+00 -0.44659110746E+01  0.12505885777E+03  0.12497909243E+03 0.  0.
    9000005    1    3    3    0    0  0.25080680828E+02 -0.18462508330E+02  0.51968382052E+02  0.60593873434E+02  0.10000000000E+01 0.  0.
    9000005    1    3    3    0    0 -0.25080680828E+02  0.18462508330E+02 -0.56434293126E+02  0.64464984335E+02  0.10000000000E+01 0.  0.
<mgrwt>
<rscale>  0 0.12497909E+03</rscale>
<asrwt>0</asrwt>
<pdfrwt beam="1">  1        4 0.92763806E-02 0.12497909E+03</pdfrwt>
<pdfrwt beam="2">  1       -4 0.99634437E-02 0.12497909E+03</pdfrwt>
<totfact> 0.10456524E+04</totfact>
</mgrwt>
</event>
<event>
 5    1  0.3225662E-002  0.1249994E+03  0.7818608E-02  0.1235070E+00
          4   -1    0    0  501    0  0.00000000000E+00  0.00000000000E+00  0.32506175679E+03  0.32506423769E+03  0.12700000000E+01 0.  1.
         -4   -1    0    0    0  501 -0.00000000000E+00 -0.00000000000E+00 -0.11980740708E+02  0.12047864870E+02  0.12700000000E+01 0.  1.
         25    2    1    2    0    0  0.00000000000E+00  0.00000000000E+00  0.31308101608E+03  0.33711210256E+03  0.12499938825E+03 0.  0.
    9000005    1    3    3    0    0  0.37504907836E+01  0.85738903735E+01  0.32317450091E+03  0.32331151513E+03  0.10000000000E+01 0.  0.
    9000005    1    3    3    0    0 -0.37504907836E+01 -0.85738903735E+01 -0.10093484834E+02  0.13800587428E+02  0.10000000000E+01 0.  0.
<mgrwt>
<rscale>  0 0.12499939E+03</rscale>
<asrwt>0</asrwt>
<pdfrwt beam="1">  1        4 0.50014858E-01 0.12499939E+03</pdfrwt>
<pdfrwt beam="2">  1       -4 0.18485450E-02 0.12499939E+03</pdfrwt>
<totfact> 0.71167008E+03</totfact>
</mgrwt>
</event>
<event>
 5    1  0.3225662E-002  0.1249976E+03  0.7818608E-02  0.1235073E+00
          4   -1    0    0  501    0  0.00000000000E+00  0.00000000000E+00  0.14647398140E+02  0.14702352610E+02  0.12700000000E+01 0.  1.
         -4   -1    0    0    0  501 -0.00000000000E+00 -0.00000000000E+00 -0.26611974323E+03  0.26612277362E+03  0.12700000000E+01 0.  1.
         25    2    1    2    0    0  0.00000000000E+00  0.00000000000E+00 -0.25147234509E+03  0.28082512623E+03  0.12499764468E+03 0.  0.
    9000005    1    3    3    0    0  0.55439337484E+02 -0.28479532260E+02 -0.11556433630E+03  0.13130392120E+03  0.10000000000E+01 0.  0.
    9000005    1    3    3    0    0 -0.55439337484E+02  0.28479532260E+02 -0.13590800880E+03  0.14952120503E+03  0.10000000000E+01 0.  0.
<mgrwt>
<rscale>  0 0.12499764E+03</rscale>
<asrwt>0</asrwt>
<pdfrwt beam="1">  1        4 0.22579064E-02 0.12499764E+03</pdfrwt>
<pdfrwt beam="2">  1       -4 0.40945956E-01 0.12499764E+03</pdfrwt>
<totfact> 0.78072915E+03</totfact>
</mgrwt>
</event>
<event>
 5    1  0.3225662E-002  0.1250003E+03  0.7818608E-02  0.1235069E+00
          4   -1    0    0  501    0  0.00000000000E+00  0.00000000000E+00  0.39960014046E+03  0.39960215860E+03  0.12700000000E+01 0. -1.
         -4   -1    0    0    0  501 -0.00000000000E+00 -0.00000000000E+00 -0.97321381964E+01  0.98146530185E+01  0.12700000000E+01 0. -1.
         25    2    1    2    0    0  0.00000000000E+00  0.00000000000E+00  0.38986800227E+03  0.40941681162E+03  0.12500026578E+03 0.  0.
    9000005    1    3    3    0    0  0.59001703732E+02  0.19848669337E+02  0.21290235764E+03  0.22181881031E+03  0.10000000000E+01 0.  0.
    9000005    1    3    3    0    0 -0.59001703732E+02 -0.19848669337E+02  0.17696564462E+03  0.18759800131E+03  0.10000000000E+01 0.  0.
<mgrwt>
<rscale>  0 0.12500027E+03</rscale>
<asrwt>0</asrwt>
<pdfrwt beam="1">  1        4 0.61483448E-01 0.12500027E+03</pdfrwt>
<pdfrwt beam="2">  1       -4 0.15037545E-02 0.12500027E+03</pdfrwt>
<totfact> 0.63646736E+03</totfact>
</mgrwt>
</event>
<event>
 5    1  0.3225662E-002  0.1250040E+03  0.7818608E-02  0.1235063E+00
         -4   -1    0    0    0  501 -0.00000000000E+00  0.00000000000E+00  0.33787975824E+01  0.36095945898E+01  0.12700000000E+01 0.  1.
          4   -1    0    0  501    0  0.00000000000E+00 -0.00000000000E+00 -0.11177659506E+04  0.11177666720E+04  0.12700000000E+01 0.  1.
         25    2    1    2    0    0  0.00000000000E+00  0.00000000000E+00 -0.11143871530E+04  0.11213762666E+04  0.12500401852E+03 0.  0.
    9000005    1    3    3    0    0  0.51057255419E+02  0.82350986342E+01 -0.87191648751E+03  0.87344949561E+03  0.10000000000E+01 0.  0.
    9000005    1    3    3    0    0 -0.51057255419E+02 -0.82350986342E+01 -0.24247066547E+03  0.24792677103E+03  0.10000000000E+01 0.  0.
<mgrwt>
<rscale>  0 0.12500402E+03</rscale>
<asrwt>0</asrwt>
<pdfrwt beam="2">  1        4 0.17198152E+00 0.12500402E+03</pdfrwt>
<pdfrwt beam="1">  1       -4 0.53762502E-03 0.12500402E+03</pdfrwt>
<totfact> 0.26863743E+03</totfact>
</mgrwt>
</event>
<event>
 5    1  0.3225662E-002  0.1250132E+03  0.7818608E-02  0.1235049E+00
         -4   -1    0    0    0  501 -0.00000000000E+00  0.00000000000E+00  0.73797946934E+01  0.74882754835E+01  0.12700000000E+01 0. -1.
          4   -1    0    0  501    0  0.00000000000E+00 -0.00000000000E+00 -0.52545669956E+03  0.52545823431E+03  0.12700000000E+01 0. -1.
         25    2    1    2    0    0  0.00000000000E+00  0.00000000000E+00 -0.51807690486E+03  0.53294650980E+03  0.12501321112E+03 0.  0.
    9000005    1    3    3    0    0  0.39248686934E+02 -0.42970966393E+02 -0.16190733248E+03  0.17205216561E+03  0.10000000000E+01 0.  0.
    9000005    1    3    3    0    0 -0.39248686934E+02  0.42970966393E+02 -0.35616957238E+03  0.36089434419E+03  0.10000000000E+01 0.  0.
<mgrwt>
<rscale>  0 0.12501321E+03</rscale>
<asrwt>0</asrwt>
<pdfrwt beam="2">  1        4 0.80847926E-01 0.12501321E+03</pdfrwt>
<pdfrwt beam="1">  1       -4 0.11438162E-02 0.12501321E+03</pdfrwt>
<totfact> 0.53380287E+03</totfact>
</mgrwt>
</event>
<event>
 5    1  0.3225662E-002  0.1249996E+03  0.7818608E-02  0.1235070E+00
         -4   -1    0    0    0  501 -0.00000000000E+00  0.00000000000E+00  0.43718756372E+02  0.43737198799E+02  0.12700000000E+01 0. -1.
          4   -1    0    0  501    0  0.00000000000E+00 -0.00000000000E+00 -0.89307207515E+02  0.89316237125E+02  0.12700000000E+01 0. -1.
         25    2    1    2    0    0  0.00000000000E+00  0.00000000000E+00 -0.45588451143E+02  0.13305343592E+03  0.12499963973E+03 0.  0.
    9000005    1    3    3    0    0 -0.20174000971E+02  0.45613831186E+02 -0.62871351617E+02  0.80258449803E+02  0.10000000000E+01 0.  0.
    9000005    1    3    3    0    0  0.20174000971E+02 -0.45613831186E+02  0.17282900475E+02  0.52794986120E+02  0.10000000000E+01 0.  0.
<mgrwt>
<rscale>  0 0.12499964E+03</rscale>
<asrwt>0</asrwt>
<pdfrwt beam="2">  1        4 0.13741684E-01 0.12499964E+03</pdfrwt>
<pdfrwt beam="1">  1       -4 0.67280758E-02 0.12499964E+03</pdfrwt>
<totfact> 0.10279348E+04</totfact>
</mgrwt>
</event>
<event>
 5    1  0.3225662E-002  0.1250142E+03  0.7818608E-02  0.1235047E+00
          4   -1    0    0  501    0  0.00000000000E+00  0.00000000000E+00  0.76400646826E+01  0.77449007969E+01  0.12700000000E+01 0. -1.
         -4   -1    0    0    0  501 -0.00000000000E+00 -0.00000000000E+00 -0.50781054548E+03  0.50781213357E+03  0.12700000000E+01 0. -1.
         25    2    1    2    0    0  0.00000000000E+00  0.00000000000E+00 -0.50017048080E+03  0.51555703437E+03  0.12501418249E+03 0.  0.
    9000005    1    3    3    0    0  0.62096284514E+02 -0.29382620775E+00 -0.22089463471E+03  0.22945909119E+03  0.10000000000E+01 0.  0.
    9000005    1    3    3    0    0 -0.62096284514E+02  0.29382620775E+00 -0.27927584609E+03  0.28609794318E+03  0.10000000000E+01 0.  0.
<mgrwt>
<rscale>  0 0.12501418E+03</rscale>
<asrwt>0</asrwt>
<pdfrwt beam="1">  1        4 0.11835814E-02 0.12501418E+03</pdfrwt>
<pdfrwt beam="2">  1       -4 0.78132859E-01 0.12501418E+03</pdfrwt>
<totfact> 0.54660189E+03</totfact>
</mgrwt>
</event>
<event>
 5    1  0.3225662E-002  0.1250017E+03  0.7818608E-02  0.1235067E+00
          4   -1    0    0  501    0  0.00000000000E+00  0.00000000000E+00  0.47575428835E+03  0.47575598344E+03  0.12700000000E+01 0. -1.
         -4   -1    0    0    0  501 -0.00000000000E+00 -0.00000000000E+00 -0.81600449677E+01  0.82582827437E+01  0.12700000000E+01 0. -1.
         25    2    1    2    0    0  0.00000000000E+00  0.00000000000E+00  0.46759424338E+03  0.48401426618E+03  0.12500173371E+03 0.  0.
    9000005    1    3    3    0    0  0.17831995095E+02 -0.25810058391E+02  0.44307542170E+03  0.44418573646E+03  0.10000000000E+01 0.  0.
    9000005    1    3    3    0    0 -0.17831995095E+02  0.25810058391E+02  0.24518821678E+02  0.39828529720E+02  0.10000000000E+01 0.  0.
<mgrwt>
<rscale>  0 0.12500173E+03</rscale>
<asrwt>0</asrwt>
<pdfrwt beam="1">  1        4 0.73200673E-01 0.12500173E+03</pdfrwt>
<pdfrwt beam="2">  1       -4 0.12630784E-02 0.12500173E+03</pdfrwt>
<totfact> 0.57124160E+03</totfact>
</mgrwt>
</event>
<event>
 5    1  0.3225662E-002  0.1250004E+03  0.7818608E-02  0.1235069E+00
         -4   -1    0    0    0  501 -0.00000000000E+00  0.00000000000E+00  0.12406092005E+03  0.12406742032E+03  0.12700000000E+01 0. -1.
          4   -1    0    0  501    0  0.00000000000E+00 -0.00000000000E+00 -0.31466609261E+02  0.31492227586E+02  0.12700000000E+01 0. -1.
         25    2    1    2    0    0  0.00000000000E+00  0.00000000000E+00  0.92594310794E+02  0.15555964791E+03  0.12500039066E+03 0.  0.
    9000005    1    3    3    0    0 -0.16884858427E+01  0.11162494321E+02 -0.30193139563E+02  0.32250239388E+02  0.10000000000E+01 0.  0.
    9000005    1    3    3    0    0  0.16884858427E+01 -0.11162494321E+02  0.12278745036E+03  0.12330940852E+03  0.10000000000E+01 0.  0.
<mgrwt>
<rscale>  0 0.12500039E+03</rscale>
<asrwt>0</asrwt>
<pdfrwt beam="2">  1        4 0.48434875E-02 0.12500039E+03</pdfrwt>
<pdfrwt beam="1">  1       -4 0.19088766E-01 0.12500039E+03</pdfrwt>
<totfact> 0.98204882E+03</totfact>
</mgrwt>
</event>
<event>
 5    1  0.3225662E-002  0.1250024E+03  0.7818608E-02  0.1235065E+00
          4   -1    0    0  501    0  0.00000000000E+00  0.00000000000E+00  0.48303424244E+03  0.48303591199E+03  0.12700000000E+01 0. -1.
         -4   -1    0    0    0  501 -0.00000000000E+00 -0.00000000000E+00 -0.80356615825E+01  0.81354014695E+01  0.12700000000E+01 0. -1.
         25    2    1    2    0    0  0.00000000000E+00  0.00000000000E+00  0.47499858086E+03  0.49117131346E+03  0.12500242936E+03 0.  0.
    9000005    1    3    3    0    0 -0.11012068283E+02 -0.31072661524E+02  0.44610839528E+03  0.44732591730E+03  0.10000000000E+01 0.  0.
    9000005    1    3    3    0    0  0.11012068283E+02  0.31072661524E+02  0.28890185574E+02  0.43845396161E+02  0.10000000000E+01 0.  0.
<mgrwt>
<rscale>  0 0.12500243E+03</rscale>
<asrwt>0</asrwt>
<pdfrwt beam="1">  1        4 0.74320776E-01 0.12500243E+03</pdfrwt>
<pdfrwt beam="2">  1       -4 0.12440561E-02 0.12500243E+03</pdfrwt>
<totfact> 0.56552899E+03</totfact>
</mgrwt>
</event>
<event>
 5    1  0.3225662E-002  0.1249998E+03  0.7818608E-02  0.1235070E+00
         -4   -1    0    0    0  501 -0.00000000000E+00  0.00000000000E+00  0.17140026485E+02  0.17187012769E+02  0.12700000000E+01 0.  1.
          4   -1    0    0  501    0  0.00000000000E+00 -0.00000000000E+00 -0.22754071370E+03  0.22754425787E+03  0.12700000000E+01 0.  1.
         25    2    1    2    0    0  0.00000000000E+00  0.00000000000E+00 -0.21040068721E+03  0.24473127064E+03  0.12499978260E+03 0.  0.
    9000005    1    3    3    0    0 -0.57811506280E+02  0.23676692928E+02 -0.10828380198E+03  0.12501655018E+03  0.10000000000E+01 0.  0.
    9000005    1    3    3    0    0  0.57811506280E+02 -0.23676692928E+02 -0.10211688523E+03  0.11971472046E+03  0.10000000000E+01 0.  0.
<mgrwt>
<rscale>  0 0.12499978E+03</rscale>
<asrwt>0</asrwt>
<pdfrwt beam="2">  1        4 0.35010148E-01 0.12499978E+03</pdfrwt>
<pdfrwt beam="1">  1       -4 0.26408143E-02 0.12499978E+03</pdfrwt>
<totfact> 0.83098140E+03</totfact>
</mgrwt>
</event>
<event>
 5    1  0.3225662E-002  0.1250006E+03  0.7818608E-02  0.1235068E+00
         -4   -1    0    0    0  501 -0.00000000000E+00  0.00000000000E+00  0.36912208581E+02  0.36934049905E+02  0.12700000000E+01 0.  1.
          4   -1    0    0  501    0  0.00000000000E+00 -0.00000000000E+00 -0.10576939842E+03  0.10577702275E+03  0.12700000000E+01 0.  1.
         25    2    1    2    0    0  0.00000000000E+00  0.00000000000E+00 -0.68857189834E+02  0.14271107265E+03  0.12500055066E+03 0.  0.
    9000005    1    3    3    0    0  0.23918778021E+02  0.27704611398E+02  0.23400026588E+02  0.43453592245E+02  0.10000000000E+01 0.  0.
    9000005    1    3    3    0    0 -0.23918778021E+02 -0.27704611398E+02 -0.92257216422E+02  0.99257480406E+02  0.10000000000E+01 0.  0.
<mgrwt>
<rscale>  0 0.12500055E+03</rscale>
<asrwt>0</asrwt>
<pdfrwt beam="2">  1        4 0.16274482E-01 0.12500055E+03</pdfrwt>
<pdfrwt beam="1">  1       -4 0.56810679E-02 0.12500055E+03</pdfrwt>
<totfact> 0.10077578E+04</totfact>
</mgrwt>
</event>
<event>
 5    1  0.3225662E-002  0.1249823E+03  0.7818608E-02  0.1235097E+00
         -4   -1    0    0    0  501 -0.00000000000E+00  0.00000000000E+00  0.99472282540E+01  0.10027973371E+02  0.12700000000E+01 0. -1.
          4   -1    0    0  501    0  0.00000000000E+00 -0.00000000000E+00 -0.39091725508E+03  0.39091931804E+03  0.12700000000E+01 0. -1.
         25    2    1    2    0    0  0.00000000000E+00  0.00000000000E+00 -0.38097002682E+03  0.40094729141E+03  0.12498227535E+03 0.  0.
    9000005    1    3    3    0    0  0.61860349551E+02  0.19668942042E+01 -0.16296862037E+03  0.17432826146E+03  0.10000000000E+01 0.  0.
    9000005    1    3    3    0    0 -0.61860349551E+02 -0.19668942042E+01 -0.21800140645E+03  0.22661902995E+03  0.10000000000E+01 0.  0.
<mgrwt>
<rscale>  0 0.12498228E+03</rscale>
<asrwt>0</asrwt>
<pdfrwt beam="2">  1        4 0.60147474E-01 0.12498228E+03</pdfrwt>
<pdfrwt beam="1">  1       -4 0.15367130E-02 0.12498228E+03</pdfrwt>
<totfact> 0.64485996E+03</totfact>
</mgrwt>
</event>
<event>
 5    1  0.3225662E-002  0.1250020E+03  0.7818608E-02  0.1235066E+00
          4   -1    0    0  501    0  0.00000000000E+00  0.00000000000E+00  0.48350145378E+01  0.49990264633E+01  0.12700000000E+01 0.  1.
         -4   -1    0    0    0  501 -0.00000000000E+00 -0.00000000000E+00 -0.79429542889E+03  0.79429644419E+03  0.12700000000E+01 0.  1.
         25    2    1    2    0    0  0.00000000000E+00  0.00000000000E+00 -0.78946041435E+03  0.79929547066E+03  0.12500201431E+03 0.  0.
    9000005    1    3    3    0    0 -0.27396697091E+02 -0.47210946381E+02 -0.20015931225E+03  0.20747096845E+03  0.10000000000E+01 0.  0.
    9000005    1    3    3    0    0  0.27396697091E+02  0.47210946381E+02 -0.58930110211E+03  0.59182450221E+03  0.10000000000E+01 0.  0.
<mgrwt>
<rscale>  0 0.12500201E+03</rscale>
<asrwt>0</asrwt>
<pdfrwt beam="1">  1        4 0.75654342E-03 0.12500201E+03</pdfrwt>
<pdfrwt beam="2">  1       -4 0.12221189E+00 0.12500201E+03</pdfrwt>
<totfact> 0.38294539E+03</totfact>
</mgrwt>
</event>
<event>
 5    1  0.3225662E-002  0.1250245E+03  0.7818608E-02  0.1235031E+00
         -4   -1    0    0    0  501 -0.00000000000E+00  0.00000000000E+00  0.31328104659E+03  0.31328362079E+03  0.12700000000E+01 0.  1.
          4   -1    0    0  501    0  0.00000000000E+00 -0.00000000000E+00 -0.12438771080E+02  0.12503436567E+02  0.12700000000E+01 0.  1.
         25    2    1    2    0    0  0.00000000000E+00  0.00000000000E+00  0.30084227551E+03  0.32578705735E+03  0.12502452561E+03 0.  0.
    9000005    1    3    3    0    0 -0.12406651503E+02 -0.21605329476E+02  0.29979577630E+03  0.30083088730E+03  0.10000000000E+01 0.  0.
    9000005    1    3    3    0    0  0.12406651503E+02  0.21605329476E+02  0.10464992087E+01  0.24956170056E+02  0.10000000000E+01 0.  0.
<mgrwt>
<rscale>  0 0.12502453E+03</rscale>
<asrwt>0</asrwt>
<pdfrwt beam="2">  1        4 0.19188294E-02 0.12502453E+03</pdfrwt>
<pdfrwt beam="1">  1       -4 0.48202256E-01 0.12502453E+03</pdfrwt>
<totfact> 0.72433702E+03</totfact>
</mgrwt>
</event>
<event>
 5    1  0.3225662E-002  0.1249996E+03  0.7818608E-02  0.1235070E+00
          4   -1    0    0  501    0  0.00000000000E+00  0.00000000000E+00  0.61038284615E+02  0.61051495385E+02  0.12700000000E+01 0. -1.
         -4   -1    0    0    0  501 -0.00000000000E+00 -0.00000000000E+00 -0.63969870216E+02  0.63982475691E+02  0.12700000000E+01 0. -1.
         25    2    1    2    0    0  0.00000000000E+00  0.00000000000E+00 -0.29315856012E+01  0.12503397108E+03  0.12499959891E+03 0.  0.
    9000005    1    3    3    0    0 -0.37561854342E+02  0.16131772805E+02  0.45813449600E+02  0.61408461630E+02  0.10000000000E+01 0.  0.
    9000005    1    3    3    0    0  0.37561854342E+02 -0.16131772805E+02 -0.48745035202E+02  0.63625509446E+02  0.10000000000E+01 0.  0.
<mgrwt>
<rscale>  0 0.12499960E+03</rscale>
<asrwt>0</asrwt>
<pdfrwt beam="1">  1        4 0.93924912E-02 0.12499960E+03</pdfrwt>
<pdfrwt beam="2">  1       -4 0.98435044E-02 0.12499960E+03</pdfrwt>
<totfact> 0.10452219E+04</totfact>
</mgrwt>
</event>
<event>
 5    1  0.3225662E-002  0.1249969E+03  0.7818608E-02  0.1235074E+00
         -4   -1    0    0    0  501 -0.00000000000E+00  0.00000000000E+00  0.47934492710E+02  0.47951313761E+02  0.12700000000E+01 0. -1.
          4   -1    0    0  501    0  0.00000000000E+00 -0.00000000000E+00 -0.81451368416E+02  0.81461268815E+02  0.12700000000E+01 0. -1.
         25    2    1    2    0    0  0.00000000000E+00  0.00000000000E+00 -0.33516875706E+02  0.12941258258E+03  0.12499694225E+03 0.  0.
    9000005    1    3    3    0    0  0.49141527387E+01 -0.11936733508E+02  0.46544142855E+02  0.48311403810E+02  0.10000000000E+01 0.  0.
    9000005    1    3    3    0    0 -0.49141527387E+01  0.11936733508E+02 -0.80061018561E+02  0.81101178765E+02  0.10000000000E+01 0.  0.
<mgrwt>
<rscale>  0 0.12499694E+03</rscale>
<asrwt>0</asrwt>
<pdfrwt beam="2">  1        4 0.12533035E-01 0.12499694E+03</pdfrwt>
<pdfrwt beam="1">  1       -4 0.73765928E-02 0.12499694E+03</pdfrwt>
<totfact> 0.10357805E+04</totfact>
</mgrwt>
</event>
<event>
 5    1  0.3225662E-002  0.1250004E+03  0.7818608E-02  0.1235069E+00
          4   -1    0    0  501    0  0.00000000000E+00  0.00000000000E+00  0.45576351661E+03  0.45576528605E+03  0.12700000000E+01 0. -1.
         -4   -1    0    0    0  501 -0.00000000000E+00 -0.00000000000E+00 -0.85220006194E+01  0.86161124967E+01  0.12700000000E+01 0. -1.
         25    2    1    2    0    0  0.00000000000E+00  0.00000000000E+00  0.44724151599E+03  0.46438139855E+03  0.12500043878E+03 0.  0.
    9000005    1    3    3    0    0  0.22475681223E+02 -0.35079070224E+02  0.39666259343E+03  0.39884572260E+03  0.10000000000E+01 0.  0.
    9000005    1    3    3    0    0 -0.22475681223E+02  0.35079070224E+02  0.50578922558E+02  0.65535675943E+02  0.10000000000E+01 0.  0.
<mgrwt>
<rscale>  0 0.12500044E+03</rscale>
<asrwt>0</asrwt>
<pdfrwt beam="1">  1        4 0.70124840E-01 0.12500044E+03</pdfrwt>
<pdfrwt beam="2">  1       -4 0.13184525E-02 0.12500044E+03</pdfrwt>
<totfact> 0.58737302E+03</totfact>
</mgrwt>
</event>
<event>
 5    1  0.3225662E-002  0.1249929E+03  0.7818608E-02  0.1235080E+00
          4   -1    0    0  501    0  0.00000000000E+00  0.00000000000E+00  0.17909523800E+02  0.17954496449E+02  0.12700000000E+01 0.  1.
         -4   -1    0    0    0  501 -0.00000000000E+00 -0.00000000000E+00 -0.21776512675E+03  0.21776883003E+03  0.12700000000E+01 0.  1.
         25    2    1    2    0    0  0.00000000000E+00  0.00000000000E+00 -0.19985560295E+03  0.23572332647E+03  0.12499289825E+03 0.  0.
    9000005    1    3    3    0    0 -0.49453887822E+02 -0.35572408693E+02 -0.12617649380E+03  0.14011634762E+03  0.10000000000E+01 0.  0.
    9000005    1    3    3    0    0  0.49453887822E+02  0.35572408693E+02 -0.73679109151E+02  0.95606978858E+02  0.10000000000E+01 0.  0.
<mgrwt>
<rscale>  0 0.12499290E+03</rscale>
<asrwt>0</asrwt>
<pdfrwt beam="1">  1        4 0.27590558E-02 0.12499290E+03</pdfrwt>
<pdfrwt beam="2">  1       -4 0.33506070E-01 0.12499290E+03</pdfrwt>
<totfact> 0.84451828E+03</totfact>
</mgrwt>
</event>
<event>
 5    1  0.3225662E-002  0.1250022E+03  0.7818608E-02  0.1235066E+00
         -4   -1    0    0    0  501 -0.00000000000E+00  0.00000000000E+00  0.28353840614E+02  0.28382268718E+02  0.12700000000E+01 0. -1.
          4   -1    0    0  501    0  0.00000000000E+00 -0.00000000000E+00 -0.13767244363E+03  0.13767830125E+03  0.12700000000E+01 0. -1.
         25    2    1    2    0    0  0.00000000000E+00  0.00000000000E+00 -0.10931860301E+03  0.16606056996E+03  0.12500222371E+03 0.  0.
    9000005    1    3    3    0    0 -0.12123778142E+02 -0.59290406424E+02 -0.33948485188E+02  0.69396238637E+02  0.10000000000E+01 0.  0.
    9000005    1    3    3    0    0  0.12123778142E+02  0.59290406424E+02 -0.75370117824E+02  0.96664331328E+02  0.10000000000E+01 0.  0.
<mgrwt>
<rscale>  0 0.12500222E+03</rscale>
<asrwt>0</asrwt>
<pdfrwt beam="2">  1        4 0.21183013E-01 0.12500222E+03</pdfrwt>
<pdfrwt beam="1">  1       -4 0.43647668E-02 0.12500222E+03</pdfrwt>
<totfact> 0.96182109E+03</totfact>
</mgrwt>
</event>
<event>
 5    1  0.3225662E-002  0.1249984E+03  0.7818608E-02  0.1235072E+00
         -4   -1    0    0    0  501 -0.00000000000E+00  0.00000000000E+00  0.31388551120E+03  0.31388808044E+03  0.12700000000E+01 0. -1.
          4   -1    0    0  501    0  0.00000000000E+00 -0.00000000000E+00 -0.12409486302E+02  0.12474303599E+02  0.12700000000E+01 0. -1.
         25    2    1    2    0    0  0.00000000000E+00  0.00000000000E+00  0.30147602490E+03  0.32636238404E+03  0.12499844850E+03 0.  0.
    9000005    1    3    3    0    0 -0.28101775424E+02  0.13387590437E+02  0.92598369166E+01  0.32491259431E+02  0.10000000000E+01 0.  0.
    9000005    1    3    3    0    0  0.28101775424E+02 -0.13387590437E+02  0.29221618798E+03  0.29387112461E+03  0.10000000000E+01 0.  0.
<mgrwt>
<rscale>  0 0.12499845E+03</rscale>
<asrwt>0</asrwt>
<pdfrwt beam="2">  1        4 0.19143354E-02 0.12499845E+03</pdfrwt>
<pdfrwt beam="1">  1       -4 0.48295260E-01 0.12499845E+03</pdfrwt>
<totfact> 0.72408229E+03</totfact>
</mgrwt>
</event>
<event>
 5    1  0.3225662E-002  0.1250047E+03  0.7818608E-02  0.1235062E+00
         -4   -1    0    0    0  501 -0.00000000000E+00  0.00000000000E+00  0.44605688535E+02  0.44623764405E+02  0.12700000000E+01 0. -1.
          4   -1    0    0  501    0  0.00000000000E+00 -0.00000000000E+00 -0.87539118163E+02  0.87548330131E+02  0.12700000000E+01 0. -1.
         25    2    1    2    0    0  0.00000000000E+00  0.00000000000E+00 -0.42933429628E+02  0.13217209454E+03  0.12500473269E+03 0.  0.
    9000005    1    3    3    0    0  0.51363617897E+01 -0.58479314587E+02 -0.44127622764E+02  0.73446984539E+02  0.10000000000E+01 0.  0.
    9000005    1    3    3    0    0 -0.51363617897E+01  0.58479314587E+02  0.11941931358E+01  0.58725109998E+02  0.10000000000E+01 0.  0.
<mgrwt>
<rscale>  0 0.12500473E+03</rscale>
<asrwt>0</asrwt>
<pdfrwt beam="2">  1        4 0.13469656E-01 0.12500473E+03</pdfrwt>
<pdfrwt beam="1">  1       -4 0.68645127E-02 0.12500473E+03</pdfrwt>
<totfact> 0.10296927E+04</totfact>
</mgrwt>
</event>
<event>
 5    1  0.3225662E-002  0.1250018E+03  0.7818608E-02  0.1235066E+00
          4   -1    0    0  501    0  0.00000000000E+00  0.00000000000E+00  0.35940585713E+02  0.35963017135E+02  0.12700000000E+01 0. -1.
         -4   -1    0    0    0  501 -0.00000000000E+00 -0.00000000000E+00 -0.10862941354E+03  0.10863683715E+03  0.12700000000E+01 0. -1.
         25    2    1    2    0    0  0.00000000000E+00  0.00000000000E+00 -0.72688827823E+02  0.14459985428E+03  0.12500180866E+03 0.  0.
    9000005    1    3    3    0    0  0.20644076971E+02  0.74235447227E+01 -0.10403421896E+03  0.10632688110E+03  0.10000000000E+01 0.  0.
    9000005    1    3    3    0    0 -0.20644076971E+02 -0.74235447227E+01  0.31345391138E+02  0.38272973178E+02  0.10000000000E+01 0.  0.
<mgrwt>
<rscale>  0 0.12500181E+03</rscale>
<asrwt>0</asrwt>
<pdfrwt beam="1">  1        4 0.55316175E-02 0.12500181E+03</pdfrwt>
<pdfrwt beam="2">  1       -4 0.16714514E-01 0.12500181E+03</pdfrwt>
<totfact> 0.10038716E+04</totfact>
</mgrwt>
</event>
<event>
 5    1  0.3225662E-002  0.1250056E+03  0.7818608E-02  0.1235060E+00
          4   -1    0    0  501    0  0.00000000000E+00  0.00000000000E+00  0.60758033022E+02  0.60771304715E+02  0.12700000000E+01 0.  1.
         -4   -1    0    0    0  501 -0.00000000000E+00 -0.00000000000E+00 -0.64271138419E+02  0.64283684818E+02  0.12700000000E+01 0.  1.
         25    2    1    2    0    0  0.00000000000E+00  0.00000000000E+00 -0.35131053973E+01  0.12505498953E+03  0.12500563386E+03 0.  0.
    9000005    1    3    3    0    0 -0.34978063894E+01 -0.55346066346E+02 -0.30580780363E+02  0.63337238945E+02  0.10000000000E+01 0.  0.
    9000005    1    3    3    0    0  0.34978063894E+01  0.55346066346E+02  0.27067674965E+02  0.61717750588E+02  0.10000000000E+01 0.  0.
<mgrwt>
<rscale>  0 0.12500563E+03</rscale>
<asrwt>0</asrwt>
<pdfrwt beam="1">  1        4 0.93493757E-02 0.12500563E+03</pdfrwt>
<pdfrwt beam="2">  1       -4 0.98898534E-02 0.12500563E+03</pdfrwt>
<totfact> 0.10450338E+04</totfact>
</mgrwt>
</event>
<event>
 5    1  0.3225662E-002  0.1249976E+03  0.7818608E-02  0.1235073E+00
          4   -1    0    0  501    0  0.00000000000E+00  0.00000000000E+00  0.10888315229E+02  0.10962130656E+02  0.12700000000E+01 0.  1.
         -4   -1    0    0    0  501 -0.00000000000E+00 -0.00000000000E+00 -0.35745565000E+03  0.35745790607E+03  0.12700000000E+01 0.  1.
         25    2    1    2    0    0  0.00000000000E+00  0.00000000000E+00 -0.34656733477E+03  0.36842003673E+03  0.12499762372E+03 0.  0.
    9000005    1    3    3    0    0  0.30085411359E+02  0.38533224371E+02 -0.28801201827E+03  0.29213329839E+03  0.10000000000E+01 0.  0.
    9000005    1    3    3    0    0 -0.30085411359E+02 -0.38533224371E+02 -0.58555316494E+02  0.76286738341E+02  0.10000000000E+01 0.  0.
<mgrwt>
<rscale>  0 0.12499762E+03</rscale>
<asrwt>0</asrwt>
<pdfrwt beam="1">  1        4 0.16809773E-02 0.12499762E+03</pdfrwt>
<pdfrwt beam="2">  1       -4 0.54999020E-01 0.12499762E+03</pdfrwt>
<totfact> 0.67748118E+03</totfact>
</mgrwt>
</event>
<event>
 5    1  0.3225662E-002  0.1249984E+03  0.7818608E-02  0.1235072E+00
          4   -1    0    0  501    0  0.00000000000E+00  0.00000000000E+00  0.30819563753E+02  0.30845719475E+02  0.12700000000E+01 0. -1.
         -4   -1    0    0    0  501 -0.00000000000E+00 -0.00000000000E+00 -0.12665939095E+03  0.12666575786E+03  0.12700000000E+01 0. -1.
         25    2    1    2    0    0  0.00000000000E+00  0.00000000000E+00 -0.95839827194E+02  0.15751147734E+03  0.12499837206E+03 0.  0.
    9000005    1    3    3    0    0 -0.25225829985E+02 -0.46148025599E+02 -0.53893382575E+01  0.52877478495E+02  0.10000000000E+01 0.  0.
    9000005    1    3    3    0    0  0.25225829985E+02  0.46148025599E+02 -0.90450488937E+02  0.10463399884E+03  0.10000000000E+01 0.  0.
<mgrwt>
<rscale>  0 0.12499837E+03</rscale>
<asrwt>0</asrwt>
<pdfrwt beam="1">  1        4 0.47439731E-02 0.12499837E+03</pdfrwt>
<pdfrwt beam="2">  1       -4 0.19488562E-01 0.12499837E+03</pdfrwt>
<totfact> 0.97828289E+03</totfact>
</mgrwt>
</event>
<event>
 5    1  0.3225662E-002  0.1249971E+03  0.7818608E-02  0.1235074E+00
          4   -1    0    0  501    0  0.00000000000E+00  0.00000000000E+00  0.49510084055E+02  0.49526369977E+02  0.12700000000E+01 0. -1.
         -4   -1    0    0    0  501 -0.00000000000E+00 -0.00000000000E+00 -0.78860085034E+02  0.78870310711E+02  0.12700000000E+01 0. -1.
         25    2    1    2    0    0  0.00000000000E+00  0.00000000000E+00 -0.29350000979E+02  0.12839668069E+03  0.12499714018E+03 0.  0.
    9000005    1    3    3    0    0  0.10454582111E+02 -0.53178782858E+02  0.17280401967E+02  0.56893703742E+02  0.10000000000E+01 0.  0.
    9000005    1    3    3    0    0 -0.10454582111E+02  0.53178782858E+02 -0.46630402946E+02  0.71502976947E+02  0.10000000000E+01 0.  0.
<mgrwt>
<rscale>  0 0.12499714E+03</rscale>
<asrwt>0</asrwt>
<pdfrwt beam="1">  1        4 0.76189754E-02 0.12499714E+03</pdfrwt>
<pdfrwt beam="2">  1       -4 0.12134360E-01 0.12499714E+03</pdfrwt>
<totfact> 0.10379600E+04</totfact>
</mgrwt>
</event>
<event>
 5    1  0.3225662E-002  0.1250016E+03  0.7818608E-02  0.1235067E+00
         -4   -1    0    0    0  501 -0.00000000000E+00  0.00000000000E+00  0.25420372402E+02  0.25452077185E+02  0.12700000000E+01 0. -1.
          4   -1    0    0  501    0  0.00000000000E+00 -0.00000000000E+00 -0.15353992635E+03  0.15354517864E+03  0.12700000000E+01 0. -1.
         25    2    1    2    0    0  0.00000000000E+00  0.00000000000E+00 -0.12811955395E+03  0.17899725582E+03  0.12500158995E+03 0.  0.
    9000005    1    3    3    0    0 -0.13862279385E+02 -0.60498012810E+02 -0.53617556252E+02  0.82024476116E+02  0.10000000000E+01 0.  0.
    9000005    1    3    3    0    0  0.13862279385E+02  0.60498012810E+02 -0.74501997695E+02  0.96972779708E+02  0.10000000000E+01 0.  0.
<mgrwt>
<rscale>  0 0.12500159E+03</rscale>
<asrwt>0</asrwt>
<pdfrwt beam="2">  1        4 0.23624369E-01 0.12500159E+03</pdfrwt>
<pdfrwt beam="1">  1       -4 0.39136695E-02 0.12500159E+03</pdfrwt>
<totfact> 0.93794468E+03</totfact>
</mgrwt>
</event>
<event>
 5    1  0.3225662E-002  0.1250011E+03  0.7818608E-02  0.1235068E+00
         -4   -1    0    0    0  501 -0.00000000000E+00  0.00000000000E+00  0.21348160863E+02  0.21385903587E+02  0.12700000000E+01 0. -1.
          4   -1    0    0  501    0  0.00000000000E+00 -0.00000000000E+00 -0.18277992190E+03  0.18278433399E+03  0.12700000000E+01 0. -1.
         25    2    1    2    0    0  0.00000000000E+00  0.00000000000E+00 -0.16143176104E+03  0.20417023757E+03  0.12500108975E+03 0.  0.
    9000005    1    3    3    0    0 -0.48477733124E+02 -0.57484130844E+01 -0.16990548927E+02  0.51699261259E+02  0.10000000000E+01 0.  0.
    9000005    1    3    3    0    0  0.48477733124E+02  0.57484130844E+01 -0.14444121211E+03  0.15247097631E+03  0.10000000000E+01 0.  0.
<mgrwt>
<rscale>  0 0.12500109E+03</rscale>
<asrwt>0</asrwt>
<pdfrwt beam="2">  1        4 0.28123230E-01 0.12500109E+03</pdfrwt>
<pdfrwt beam="1">  1       -4 0.32875752E-02 0.12500109E+03</pdfrwt>
<totfact> 0.89434717E+03</totfact>
</mgrwt>
</event>
<event>
 5    1  0.3225662E-002  0.1249981E+03  0.7818608E-02  0.1235072E+00
         -4   -1    0    0    0  501 -0.00000000000E+00  0.00000000000E+00  0.12613806312E+02  0.12677579014E+02  0.12700000000E+01 0.  1.
          4   -1    0    0  501    0  0.00000000000E+00 -0.00000000000E+00 -0.30882534156E+03  0.30882795290E+03  0.12700000000E+01 0.  1.
         25    2    1    2    0    0  0.00000000000E+00  0.00000000000E+00 -0.29621153525E+03  0.32150553191E+03  0.12499813372E+03 0.  0.
    9000005    1    3    3    0    0  0.18851513204E+02 -0.56389534682E+02 -0.19757903953E+03  0.20633379760E+03  0.10000000000E+01 0.  0.
    9000005    1    3    3    0    0 -0.18851513204E+02  0.56389534682E+02 -0.98632495723E+02  0.11517173431E+03  0.10000000000E+01 0.  0.
<mgrwt>
<rscale>  0 0.12499813E+03</rscale>
<asrwt>0</asrwt>
<pdfrwt beam="2">  1        4 0.47516692E-01 0.12499813E+03</pdfrwt>
<pdfrwt beam="1">  1       -4 0.19456923E-02 0.12499813E+03</pdfrwt>
<totfact> 0.72980440E+03</totfact>
</mgrwt>
</event>
<event>
 5    1  0.3225662E-002  0.1250104E+03  0.7818608E-02  0.1235053E+00
         -4   -1    0    0    0  501 -0.00000000000E+00  0.00000000000E+00  0.12627309880E+03  0.12627948519E+03  0.12700000000E+01 0. -1.
          4   -1    0    0  501    0  0.00000000000E+00 -0.00000000000E+00 -0.30919901098E+02  0.30945972014E+02  0.12700000000E+01 0. -1.
         25    2    1    2    0    0  0.00000000000E+00  0.00000000000E+00  0.95353197698E+02  0.15722545720E+03  0.12501044789E+03 0.  0.
    9000005    1    3    3    0    0  0.13083261843E+02 -0.61084382411E+02  0.50005721199E+02  0.80025281428E+02  0.10000000000E+01 0.  0.
    9000005    1    3    3    0    0 -0.13083261843E+02  0.61084382411E+02  0.45347476499E+02  0.77200175776E+02  0.10000000000E+01 0.  0.
<mgrwt>
<rscale>  0 0.12501045E+03</rscale>
<asrwt>0</asrwt>
<pdfrwt beam="2">  1        4 0.47594046E-02 0.12501045E+03</pdfrwt>
<pdfrwt beam="1">  1       -4 0.19429127E-01 0.12501045E+03</pdfrwt>
<totfact> 0.97857387E+03</totfact>
</mgrwt>
</event>
<event>
 5    1  0.3225662E-002  0.1250478E+03  0.7818608E-02  0.1234995E+00
         -4   -1    0    0    0  501 -0.00000000000E+00  0.00000000000E+00  0.17218029116E+03  0.17218497485E+03  0.12700000000E+01 0.  1.
          4   -1    0    0  501    0  0.00000000000E+00 -0.00000000000E+00 -0.22681563716E+02  0.22717091200E+02  0.12700000000E+01 0.  1.
         25    2    1    2    0    0  0.00000000000E+00  0.00000000000E+00  0.14949872744E+03  0.19490206605E+03  0.12504777424E+03 0.  0.
    9000005    1    3    3    0    0  0.24364346337E+02 -0.38152236243E+02  0.75472804254E+01  0.45903986151E+02  0.10000000000E+01 0.  0.
    9000005    1    3    3    0    0 -0.24364346337E+02  0.38152236243E+02  0.14195144702E+03  0.14899807990E+03  0.10000000000E+01 0.  0.
<mgrwt>
<rscale>  0 0.12504777E+03</rscale>
<asrwt>0</asrwt>
<pdfrwt beam="2">  1        4 0.34925645E-02 0.12504777E+03</pdfrwt>
<pdfrwt beam="1">  1       -4 0.26492369E-01 0.12504777E+03</pdfrwt>
<totfact> 0.90904028E+03</totfact>
</mgrwt>
</event>
<event>
 5    1  0.3225662E-002  0.1249989E+03  0.7818608E-02  0.1235071E+00
         -4   -1    0    0    0  501 -0.00000000000E+00  0.00000000000E+00  0.50895714782E+03  0.50895873233E+03  0.12700000000E+01 0.  1.
          4   -1    0    0  501    0  0.00000000000E+00 -0.00000000000E+00 -0.76207256451E+01  0.77258241864E+01  0.12700000000E+01 0.  1.
         25    2    1    2    0    0  0.00000000000E+00  0.00000000000E+00  0.50133642217E+03  0.51668455651E+03  0.12499889098E+03 0.  0.
    9000005    1    3    3    0    0 -0.38741079571E+02  0.41770253531E+02  0.14451211276E+03  0.15533955086E+03  0.10000000000E+01 0.  0.
    9000005    1    3    3    0    0  0.38741079571E+02 -0.41770253531E+02  0.35682430941E+03  0.36134500566E+03  0.10000000000E+01 0.  0.
<mgrwt>
<rscale>  0 0.12499889E+03</rscale>
<asrwt>0</asrwt>
<pdfrwt beam="2">  1        4 0.11806254E-02 0.12499889E+03</pdfrwt>
<pdfrwt beam="1">  1       -4 0.78309330E-01 0.12499889E+03</pdfrwt>
<totfact> 0.54594014E+03</totfact>
</mgrwt>
</event>
<event>
 5    1  0.3225662E-002  0.1249967E+03  0.7818608E-02  0.1235074E+00
          4   -1    0    0  501    0  0.00000000000E+00  0.00000000000E+00  0.35965596547E+02  0.35988012379E+02  0.12700000000E+01 0. -1.
         -4   -1    0    0    0  501 -0.00000000000E+00 -0.00000000000E+00 -0.10854501887E+03  0.10855244825E+03  0.12700000000E+01 0. -1.
         25    2    1    2    0    0  0.00000000000E+00  0.00000000000E+00 -0.72579422323E+02  0.14454046063E+03  0.12499668882E+03 0.  0.
    9000005    1    3    3    0    0 -0.27464072547E+02  0.98581303717E+01  0.27609564520E+02  0.40183903099E+02  0.10000000000E+01 0.  0.
    9000005    1    3    3    0    0  0.27464072547E+02 -0.98581303717E+01 -0.10018898684E+03  0.10435655753E+03  0.10000000000E+01 0.  0.
<mgrwt>
<rscale>  0 0.12499669E+03</rscale>
<asrwt>0</asrwt>
<pdfrwt beam="1">  1        4 0.55354645E-02 0.12499669E+03</pdfrwt>
<pdfrwt beam="2">  1       -4 0.16701529E-01 0.12499669E+03</pdfrwt>
<totfact> 0.10041082E+04</totfact>
</mgrwt>
</event>
<event>
 5    1  0.3225662E-002  0.1249970E+03  0.7818608E-02  0.1235074E+00
         -4   -1    0    0    0  501 -0.00000000000E+00  0.00000000000E+00  0.28099036944E+02  0.28127722574E+02  0.12700000000E+01 0.  1.
          4   -1    0    0  501    0  0.00000000000E+00 -0.00000000000E+00 -0.13890799489E+03  0.13891380041E+03  0.12700000000E+01 0.  1.
         25    2    1    2    0    0  0.00000000000E+00  0.00000000000E+00 -0.11080895795E+03  0.16704152299E+03  0.12499698092E+03 0.  0.
    9000005    1    3    3    0    0  0.61767274468E+02 -0.94734490131E+01 -0.54943716776E+02  0.83215109473E+02  0.10000000000E+01 0.  0.
    9000005    1    3    3    0    0 -0.61767274468E+02  0.94734490131E+01 -0.55865241174E+02  0.83826413515E+02  0.10000000000E+01 0.  0.
<mgrwt>
<rscale>  0 0.12499698E+03</rscale>
<asrwt>0</asrwt>
<pdfrwt beam="2">  1        4 0.21373113E-01 0.12499698E+03</pdfrwt>
<pdfrwt beam="1">  1       -4 0.43255820E-02 0.12499698E+03</pdfrwt>
<totfact> 0.96008662E+03</totfact>
</mgrwt>
</event>
<event>
 5    1  0.3225662E-002  0.1250105E+03  0.7818608E-02  0.1235053E+00
          4   -1    0    0  501    0  0.00000000000E+00  0.00000000000E+00  0.21375083260E+02  0.21412778530E+02  0.12700000000E+01 0. -1.
         -4   -1    0    0    0  501 -0.00000000000E+00 -0.00000000000E+00 -0.18257752631E+03  0.18258194328E+03  0.12700000000E+01 0. -1.
         25    2    1    2    0    0  0.00000000000E+00  0.00000000000E+00 -0.16120244305E+03  0.20399472181E+03  0.12501047509E+03 0.  0.
    9000005    1    3    3    0    0 -0.96205094820E+01 -0.77888908430E+00  0.20159516421E+02  0.22373354090E+02  0.10000000000E+01 0.  0.
    9000005    1    3    3    0    0  0.96205094820E+01  0.77888908430E+00 -0.18136195947E+03  0.18162136772E+03  0.10000000000E+01 0.  0.
<mgrwt>
<rscale>  0 0.12501048E+03</rscale>
<asrwt>0</asrwt>
<pdfrwt beam="1">  1        4 0.32917139E-02 0.12501048E+03</pdfrwt>
<pdfrwt beam="2">  1       -4 0.28092089E-01 0.12501048E+03</pdfrwt>
<totfact> 0.89445150E+03</totfact>
</mgrwt>
</event>
<event>
 5    1  0.3225662E-002  0.1249994E+03  0.7818608E-02  0.1235070E+00
          4   -1    0    0  501    0  0.00000000000E+00  0.00000000000E+00  0.83042742897E+01  0.84008256427E+01  0.12700000000E+01 0. -1.
         -4   -1    0    0    0  501 -0.00000000000E+00 -0.00000000000E+00 -0.46756968315E+03  0.46757140792E+03  0.12700000000E+01 0. -1.
         25    2    1    2    0    0  0.00000000000E+00  0.00000000000E+00 -0.45926540886E+03  0.47597223356E+03  0.12499940537E+03 0.  0.
    9000005    1    3    3    0    0 -0.71305895038E+00  0.16457403070E+02 -0.93081729030E-01  0.16503430949E+02  0.10000000000E+01 0.  0.
    9000005    1    3    3    0    0  0.71305895038E+00 -0.16457403070E+02 -0.45917232713E+03  0.45946880261E+03  0.10000000000E+01 0.  0.
<mgrwt>
<rscale>  0 0.12499941E+03</rscale>
<asrwt>0</asrwt>
<pdfrwt beam="1">  1        4 0.12851407E-02 0.12499941E+03</pdfrwt>
<pdfrwt beam="2">  1       -4 0.71941337E-01 0.12499941E+03</pdfrwt>
<totfact> 0.57778805E+03</totfact>
</mgrwt>
</event>
<event>
 5    1  0.3225662E-002  0.1250018E+03  0.7818608E-02  0.1235067E+00
          4   -1    0    0  501    0  0.00000000000E+00  0.00000000000E+00  0.52455116240E+02  0.52470488084E+02  0.12700000000E+01 0. -1.
         -4   -1    0    0    0  501 -0.00000000000E+00 -0.00000000000E+00 -0.74438820555E+02  0.74449653496E+02  0.12700000000E+01 0. -1.
         25    2    1    2    0    0  0.00000000000E+00  0.00000000000E+00 -0.21983704315E+02  0.12692014158E+03  0.12500175632E+03 0.  0.
    9000005    1    3    3    0    0 -0.36654495586E+02 -0.42546296861E+02  0.16844588133E+02  0.58638550226E+02  0.10000000000E+01 0.  0.
    9000005    1    3    3    0    0  0.36654495586E+02  0.42546296861E+02 -0.38828292448E+02  0.68281591353E+02  0.10000000000E+01 0.  0.
<mgrwt>
<rscale>  0 0.12500176E+03</rscale>
<asrwt>0</asrwt>
<pdfrwt beam="1">  1        4 0.80720336E-02 0.12500176E+03</pdfrwt>
<pdfrwt beam="2">  1       -4 0.11454142E-01 0.12500176E+03</pdfrwt>
<totfact> 0.10410468E+04</totfact>
</mgrwt>
</event>
<event>
 5    1  0.3225662E-002  0.1250017E+03  0.7818608E-02  0.1235067E+00
          4   -1    0    0  501    0  0.00000000000E+00  0.00000000000E+00  0.26215592497E+02  0.26246336696E+02  0.12700000000E+01 0. -1.
         -4   -1    0    0    0  501 -0.00000000000E+00 -0.00000000000E+00 -0.14888821255E+03  0.14889362893E+03  0.12700000000E+01 0. -1.
         25    2    1    2    0    0  0.00000000000E+00  0.00000000000E+00 -0.12267262006E+03  0.17513996563E+03  0.12500174339E+03 0.  0.
    9000005    1    3    3    0    0  0.15062938331E+00  0.52293581369E+02 -0.13396614924E+02  0.53991764492E+02  0.10000000000E+01 0.  0.
    9000005    1    3    3    0    0 -0.15062938331E+00 -0.52293581369E+02 -0.10927600513E+03  0.12114820114E+03  0.10000000000E+01 0.  0.
<mgrwt>
<rscale>  0 0.12500174E+03</rscale>
<asrwt>0</asrwt>
<pdfrwt beam="1">  1        4 0.40359498E-02 0.12500174E+03</pdfrwt>
<pdfrwt beam="2">  1       -4 0.22908660E-01 0.12500174E+03</pdfrwt>
<totfact> 0.94495517E+03</totfact>
</mgrwt>
</event>
<event>
 5    1  0.3225662E-002  0.1250003E+03  0.7818608E-02  0.1235069E+00
         -4   -1    0    0    0  501 -0.00000000000E+00  0.00000000000E+00  0.16733800119E+02  0.16781923800E+02  0.12700000000E+01 0.  1.
          4   -1    0    0  501    0  0.00000000000E+00 -0.00000000000E+00 -0.23305068727E+03  0.23305414765E+03  0.12700000000E+01 0.  1.
         25    2    1    2    0    0  0.00000000000E+00  0.00000000000E+00 -0.21631688715E+03  0.24983607145E+03  0.12500026772E+03 0.  0.
    9000005    1    3    3    0    0  0.57332482190E+02  0.64967358804E+01 -0.60188120151E+02  0.83383636875E+02  0.10000000000E+01 0.  0.
    9000005    1    3    3    0    0 -0.57332482190E+02 -0.64967358804E+01 -0.15612876700E+03  0.16645243457E+03  0.10000000000E+01 0.  0.
<mgrwt>
<rscale>  0 0.12500027E+03</rscale>
<asrwt>0</asrwt>
<pdfrwt beam="2">  1        4 0.35857918E-01 0.12500027E+03</pdfrwt>
<pdfrwt beam="1">  1       -4 0.25783990E-02 0.12500027E+03</pdfrwt>
<totfact> 0.82353436E+03</totfact>
</mgrwt>
</event>
<event>
 5    1  0.3225662E-002  0.1250086E+03  0.7818608E-02  0.1235056E+00
          4   -1    0    0  501    0  0.00000000000E+00  0.00000000000E+00  0.86600326897E+01  0.87526605204E+01  0.12700000000E+01 0. -1.
         -4   -1    0    0    0  501 -0.00000000000E+00 -0.00000000000E+00 -0.44863548736E+03  0.44863728492E+03  0.12700000000E+01 0. -1.
         25    2    1    2    0    0  0.00000000000E+00  0.00000000000E+00 -0.43997545467E+03  0.45738994544E+03  0.12500864561E+03 0.  0.
    9000005    1    3    3    0    0  0.41641317012E+01  0.52769629413E+02 -0.34154893941E+03  0.34562790946E+03  0.10000000000E+01 0.  0.
    9000005    1    3    3    0    0 -0.41641317012E+01 -0.52769629413E+02 -0.98426515261E+02  0.11176203599E+03  0.10000000000E+01 0.  0.
<mgrwt>
<rscale>  0 0.12500865E+03</rscale>
<asrwt>0</asrwt>
<pdfrwt beam="1">  1        4 0.13395766E-02 0.12500865E+03</pdfrwt>
<pdfrwt beam="2">  1       -4 0.69028090E-01 0.12500865E+03</pdfrwt>
<totfact> 0.59317623E+03</totfact>
</mgrwt>
</event>
<event>
 5    1  0.3225662E-002  0.1249948E+03  0.7818608E-02  0.1235077E+00
          4   -1    0    0  501    0  0.00000000000E+00  0.00000000000E+00  0.63599345541E+02  0.63612024439E+02  0.12700000000E+01 0.  1.
         -4   -1    0    0    0  501 -0.00000000000E+00 -0.00000000000E+00 -0.61389171837E+02  0.61402307113E+02  0.12700000000E+01 0.  1.
         25    2    1    2    0    0  0.00000000000E+00  0.00000000000E+00  0.22101737038E+01  0.12501433155E+03  0.12499479279E+03 0.  0.
    9000005    1    3    3    0    0  0.58024041388E+02 -0.19332408488E+02 -0.11718506957E+02  0.62280452811E+02  0.10000000000E+01 0.  0.
    9000005    1    3    3    0    0 -0.58024041388E+02  0.19332408488E+02  0.13928680661E+02  0.62733878741E+02  0.10000000000E+01 0.  0.
<mgrwt>
<rscale>  0 0.12499479E+03</rscale>
<asrwt>0</asrwt>
<pdfrwt beam="1">  1        4 0.97865004E-02 0.12499479E+03</pdfrwt>
<pdfrwt beam="2">  1       -4 0.94464737E-02 0.12499479E+03</pdfrwt>
<totfact> 0.10453781E+04</totfact>
</mgrwt>
</event>
<event>
 5    1  0.3225662E-002  0.1250072E+03  0.7818608E-02  0.1235058E+00
          4   -1    0    0  501    0  0.00000000000E+00  0.00000000000E+00  0.16713155539E+01  0.20990940143E+01  0.12700000000E+01 0.  1.
         -4   -1    0    0    0  501 -0.00000000000E+00 -0.00000000000E+00 -0.20718653595E+04  0.20718657487E+04  0.12700000000E+01 0.  1.
         25    2    1    2    0    0  0.00000000000E+00  0.00000000000E+00 -0.20701940439E+04  0.20739648428E+04  0.12500715734E+03 0.  0.
    9000005    1    3    3    0    0  0.42771136688E+01 -0.58174286254E+02 -0.14072468873E+04  0.14084556589E+04  0.10000000000E+01 0.  0.
    9000005    1    3    3    0    0 -0.42771136688E+01  0.58174286254E+02 -0.66294715666E+03  0.66550918386E+03  0.10000000000E+01 0.  0.
<mgrwt>
<rscale>  0 0.12500716E+03</rscale>
<asrwt>0</asrwt>
<pdfrwt beam="1">  1        4 0.29006311E-03 0.12500716E+03</pdfrwt>
<pdfrwt beam="2">  1       -4 0.31877963E+00 0.12500716E+03</pdfrwt>
<totfact> 0.89252776E+02</totfact>
</mgrwt>
</event>
<event>
 5    1  0.3225662E-002  0.1250091E+03  0.7818608E-02  0.1235055E+00
         -4   -1    0    0    0  501 -0.00000000000E+00  0.00000000000E+00  0.27282409713E+03  0.27282705305E+03  0.12700000000E+01 0. -1.
          4   -1    0    0  501    0  0.00000000000E+00 -0.00000000000E+00 -0.14288710689E+02  0.14345039322E+02  0.12700000000E+01 0. -1.
         25    2    1    2    0    0  0.00000000000E+00  0.00000000000E+00  0.25853538644E+03  0.28717209237E+03  0.12500905805E+03 0.  0.
    9000005    1    3    3    0    0 -0.40111247562E+02 -0.43133194323E+02  0.81276803489E+02  0.10038079208E+03  0.10000000000E+01 0.  0.
    9000005    1    3    3    0    0  0.40111247562E+02  0.43133194323E+02  0.17725858295E+03  0.18679130029E+03  0.10000000000E+01 0.  0.
<mgrwt>
<rscale>  0 0.12500906E+03</rscale>
<asrwt>0</asrwt>
<pdfrwt beam="2">  1        4 0.22028236E-02 0.12500906E+03</pdfrwt>
<pdfrwt beam="1">  1       -4 0.41977498E-01 0.12500906E+03</pdfrwt>
<totfact> 0.77221106E+03</totfact>
</mgrwt>
</event>
<event>
 5    1  0.3225662E-002  0.1250007E+03  0.7818608E-02  0.1235068E+00
          4   -1    0    0  501    0  0.00000000000E+00  0.00000000000E+00  0.16161418256E+03  0.16161917246E+03  0.12700000000E+01 0. -1.
         -4   -1    0    0    0  501 -0.00000000000E+00 -0.00000000000E+00 -0.24148430086E+02  0.24181802572E+02  0.12700000000E+01 0. -1.
         25    2    1    2    0    0  0.00000000000E+00  0.00000000000E+00  0.13746575248E+03  0.18580097503E+03  0.12500067687E+03 0.  0.
    9000005    1    3    3    0    0 -0.38334711987E+02 -0.40137873074E+02  0.26047230195E+02  0.61319305271E+02  0.10000000000E+01 0.  0.
    9000005    1    3    3    0    0  0.38334711987E+02  0.40137873074E+02  0.11141852228E+03  0.12448166976E+03  0.10000000000E+01 0.  0.
<mgrwt>
<rscale>  0 0.12500068E+03</rscale>
<asrwt>0</asrwt>
<pdfrwt beam="1">  1        4 0.24866671E-01 0.12500068E+03</pdfrwt>
<pdfrwt beam="2">  1       -4 0.37180941E-02 0.12500068E+03</pdfrwt>
<totfact> 0.92581704E+03</totfact>
</mgrwt>
</event>
<event>
 5    1  0.3225662E-002  0.1250022E+03  0.7818608E-02  0.1235066E+00
          4   -1    0    0  501    0  0.00000000000E+00  0.00000000000E+00  0.11582909503E+02  0.11652325628E+02  0.12700000000E+01 0. -1.
         -4   -1    0    0    0  501 -0.00000000000E+00 -0.00000000000E+00 -0.33617625346E+03  0.33617865234E+03  0.12700000000E+01 0. -1.
         25    2    1    2    0    0  0.00000000000E+00  0.00000000000E+00 -0.32459334396E+03  0.34783097797E+03  0.12500220116E+03 0.  0.
    9000005    1    3    3    0    0  0.55573518079E+02 -0.23830084944E+01 -0.83039340926E+02  0.99953122925E+02  0.10000000000E+01 0.  0.
    9000005    1    3    3    0    0 -0.55573518079E+02  0.23830084944E+01 -0.24155400303E+03  0.24787785504E+03  0.10000000000E+01 0.  0.
<mgrwt>
<rscale>  0 0.12500220E+03</rscale>
<asrwt>0</asrwt>
<pdfrwt beam="1">  1        4 0.17875106E-02 0.12500220E+03</pdfrwt>
<pdfrwt beam="2">  1       -4 0.51724940E-01 0.12500220E+03</pdfrwt>
<totfact> 0.69960431E+03</totfact>
</mgrwt>
</event>
<event>
 4    1  0.3225662E-002  0.1248918E+03  0.7818608E-02  0.1235239E+00
         -4   -1    0    0    0  501 -0.00000000000E+00  0.00000000000E+00  0.44643314570E+02  0.44661375211E+02  0.12700000000E+01 0.  1.
          4   -1    0    0  501    0  0.00000000000E+00 -0.00000000000E+00 -0.87307292271E+02  0.87316528697E+02  0.12700000000E+01 0.  1.
    9000005    1    1    2    0    0  0.48837182367E+02  0.27414908411E+02 -0.50499505071E+02  0.75417820157E+02  0.10000000000E+01 0.  0.
    9000005    1    1    2    0    0 -0.48837182367E+02 -0.27414908411E+02  0.78355273703E+01  0.56560083751E+02  0.10000000000E+01 0.  0.
<mgrwt>
<rscale>  0 0.12489176E+03</rscale>
<asrwt>0</asrwt>
<pdfrwt beam="2">  1        4 0.13433991E-01 0.12489176E+03</pdfrwt>
<pdfrwt beam="1">  1       -4 0.68703020E-02 0.12489176E+03</pdfrwt>
<totfact> 0.10327366E+04</totfact>
</mgrwt>
</event>
<event>
 5    1  0.3225662E-002  0.1250047E+03  0.7818608E-02  0.1235062E+00
         -4   -1    0    0    0  501 -0.00000000000E+00  0.00000000000E+00  0.49211892941E+03  0.49212056814E+03  0.12700000000E+01 0. -1.
          4   -1    0    0  501    0  0.00000000000E+00 -0.00000000000E+00 -0.78857522810E+01  0.79873643360E+01  0.12700000000E+01 0. -1.
         25    2    1    2    0    0  0.00000000000E+00  0.00000000000E+00  0.48423317713E+03  0.50010793248E+03  0.12500469707E+03 0.  0.
    9000005    1    3    3    0    0 -0.20939464199E+02  0.52067972992E+02  0.13211453847E+03  0.14354367366E+03  0.10000000000E+01 0.  0.
    9000005    1    3    3    0    0  0.20939464199E+02 -0.52067972992E+02  0.35211863866E+03  0.35656425882E+03  0.10000000000E+01 0.  0.
<mgrwt>
<rscale>  0 0.12500470E+03</rscale>
<asrwt>0</asrwt>
<pdfrwt beam="2">  1        4 0.12211350E-02 0.12500470E+03</pdfrwt>
<pdfrwt beam="1">  1       -4 0.75718548E-01 0.12500470E+03</pdfrwt>
<totfact> 0.55850223E+03</totfact>
</mgrwt>
</event>
<event>
 5    1  0.3225662E-002  0.1249994E+03  0.7818608E-02  0.1235070E+00
          4   -1    0    0  501    0  0.00000000000E+00  0.00000000000E+00  0.87214780789E+01  0.88134601537E+01  0.12700000000E+01 0.  1.
         -4   -1    0    0    0  501 -0.00000000000E+00 -0.00000000000E+00 -0.44544172925E+03  0.44544353970E+03  0.12700000000E+01 0.  1.
         25    2    1    2    0    0  0.00000000000E+00  0.00000000000E+00 -0.43672025117E+03  0.45425699985E+03  0.12499937652E+03 0.  0.
    9000005    1    3    3    0    0 -0.96981551973E+01 -0.61714961247E+02 -0.21270639319E+03  0.22169303183E+03  0.10000000000E+01 0.  0.
    9000005    1    3    3    0    0  0.96981551973E+01  0.61714961247E+02 -0.22401385798E+03  0.23256396803E+03  0.10000000000E+01 0.  0.
<mgrwt>
<rscale>  0 0.12499938E+03</rscale>
<asrwt>0</asrwt>
<pdfrwt beam="1">  1        4 0.13489810E-02 0.12499938E+03</pdfrwt>
<pdfrwt beam="2">  1       -4 0.68536694E-01 0.12499938E+03</pdfrwt>
<totfact> 0.59597603E+03</totfact>
</mgrwt>
</event>
<event>
 5    1  0.3225662E-002  0.1250003E+03  0.7818608E-02  0.1235069E+00
         -4   -1    0    0    0  501 -0.00000000000E+00  0.00000000000E+00  0.58488487984E+02  0.58502274543E+02  0.12700000000E+01 0.  1.
          4   -1    0    0  501    0  0.00000000000E+00 -0.00000000000E+00 -0.66759238070E+02  0.66771316953E+02  0.12700000000E+01 0.  1.
         25    2    1    2    0    0  0.00000000000E+00  0.00000000000E+00 -0.82707500856E+01  0.12527359150E+03  0.12500026968E+03 0.  0.
    9000005    1    3    3    0    0 -0.12650115945E+02 -0.34040302305E+02 -0.55104215810E+02  0.66001834932E+02  0.10000000000E+01 0.  0.
    9000005    1    3    3    0    0  0.12650115945E+02  0.34040302305E+02  0.46833465724E+02  0.59271756564E+02  0.10000000000E+01 0.  0.
<mgrwt>
<rscale>  0 0.12500027E+03</rscale>
<asrwt>0</asrwt>
<pdfrwt beam="2">  1        4 0.10272642E-01 0.12500027E+03</pdfrwt>
<pdfrwt beam="1">  1       -4 0.90002186E-02 0.12500027E+03</pdfrwt>
<totfact> 0.10446859E+04</totfact>
</mgrwt>
</event>
<event>
 5    1  0.3225662E-002  0.1250006E+03  0.7818608E-02  0.1235068E+00
         -4   -1    0    0    0  501 -0.00000000000E+00  0.00000000000E+00  0.42221101684E+02  0.42240198004E+02  0.12700000000E+01 0.  1.
          4   -1    0    0  501    0  0.00000000000E+00 -0.00000000000E+00 -0.92475462113E+02  0.92484182394E+02  0.12700000000E+01 0.  1.
         25    2    1    2    0    0  0.00000000000E+00  0.00000000000E+00 -0.50254360429E+02  0.13472438040E+03  0.12500063172E+03 0.  0.
    9000005    1    3    3    0    0  0.36188798085E+02 -0.29707072647E+02  0.19482766974E+02  0.50721962512E+02  0.10000000000E+01 0.  0.
    9000005    1    3    3    0    0 -0.36188798085E+02  0.29707072647E+02 -0.69737127403E+02  0.84002417885E+02  0.10000000000E+01 0.  0.
<mgrwt>
<rscale>  0 0.12500063E+03</rscale>
<asrwt>0</asrwt>
<pdfrwt beam="2">  1        4 0.14229134E-01 0.12500063E+03</pdfrwt>
<pdfrwt beam="1">  1       -4 0.64976939E-02 0.12500063E+03</pdfrwt>
<totfact> 0.10243738E+04</totfact>
</mgrwt>
</event>
<event>
 5    1  0.3225662E-002  0.1250012E+03  0.7818608E-02  0.1235067E+00
          4   -1    0    0  501    0  0.00000000000E+00  0.00000000000E+00  0.20828387089E+03  0.20828774273E+03  0.12700000000E+01 0. -1.
         -4   -1    0    0    0  501 -0.00000000000E+00 -0.00000000000E+00 -0.18729273943E+02  0.18772282824E+02  0.12700000000E+01 0. -1.
         25    2    1    2    0    0  0.00000000000E+00  0.00000000000E+00  0.18955459695E+03  0.22706002556E+03  0.12500123992E+03 0.  0.
    9000005    1    3    3    0    0  0.25031954073E+02 -0.10576728733E+02 -0.74438843872E+01  0.28193568950E+02  0.10000000000E+01 0.  0.
    9000005    1    3    3    0    0 -0.25031954073E+02  0.10576728733E+02  0.19699848133E+03  0.19886645661E+03  0.10000000000E+01 0.  0.
<mgrwt>
<rscale>  0 0.12500124E+03</rscale>
<asrwt>0</asrwt>
<pdfrwt beam="1">  1        4 0.32047279E-01 0.12500124E+03</pdfrwt>
<pdfrwt beam="2">  1       -4 0.28850330E-02 0.12500124E+03</pdfrwt>
<totfact> 0.85760713E+03</totfact>
</mgrwt>
</event>
<event>
 5    1  0.3225662E-002  0.1250054E+03  0.7818608E-02  0.1235061E+00
         -4   -1    0    0    0  501 -0.00000000000E+00  0.00000000000E+00  0.10943328602E+03  0.10944065510E+03  0.12700000000E+01 0. -1.
          4   -1    0    0  501    0  0.00000000000E+00 -0.00000000000E+00 -0.35678474520E+02  0.35701070629E+02  0.12700000000E+01 0. -1.
         25    2    1    2    0    0  0.00000000000E+00  0.00000000000E+00  0.73754811498E+02  0.14514172573E+03  0.12500539320E+03 0.  0.
    9000005    1    3    3    0    0 -0.57428619474E+02 -0.19886326616E+02  0.19968791150E+02  0.63978628783E+02  0.10000000000E+01 0.  0.
    9000005    1    3    3    0    0  0.57428619474E+02  0.19886326616E+02  0.53786020348E+02  0.81163096946E+02  0.10000000000E+01 0.  0.
<mgrwt>
<rscale>  0 0.12500539E+03</rscale>
<asrwt>0</asrwt>
<pdfrwt beam="2">  1        4 0.54913011E-02 0.12500539E+03</pdfrwt>
<pdfrwt beam="1">  1       -4 0.16838195E-01 0.12500539E+03</pdfrwt>
<totfact> 0.10026892E+04</totfact>
</mgrwt>
</event>
<event>
 5    1  0.3225662E-002  0.1250478E+03  0.7818608E-02  0.1234995E+00
          4   -1    0    0  501    0  0.00000000000E+00  0.00000000000E+00  0.14786357001E+02  0.14840796925E+02  0.12700000000E+01 0. -1.
         -4   -1    0    0    0  501 -0.00000000000E+00 -0.00000000000E+00 -0.26383959449E+03  0.26384265107E+03  0.12700000000E+01 0. -1.
         25    2    1    2    0    0  0.00000000000E+00  0.00000000000E+00 -0.24905323749E+03  0.27868344799E+03  0.12504778718E+03 0.  0.
    9000005    1    3    3    0    0  0.11602624964E+02  0.46295800200E+02 -0.21451179246E+03  0.21975948473E+03  0.10000000000E+01 0.  0.
    9000005    1    3    3    0    0 -0.11602624964E+02 -0.46295800200E+02 -0.34541445030E+02  0.58923963266E+02  0.10000000000E+01 0.  0.
<mgrwt>
<rscale>  0 0.12504779E+03</rscale>
<asrwt>0</asrwt>
<pdfrwt beam="1">  1        4 0.22792472E-02 0.12504779E+03</pdfrwt>
<pdfrwt beam="2">  1       -4 0.40595126E-01 0.12504779E+03</pdfrwt>
<totfact> 0.78269818E+03</totfact>
</mgrwt>
</event>
<event>
 5    1  0.3225662E-002  0.1250006E+03  0.7818608E-02  0.1235068E+00
         -4   -1    0    0    0  501 -0.00000000000E+00  0.00000000000E+00  0.43329457690E+03  0.43329643810E+03  0.12700000000E+01 0.  1.
          4   -1    0    0  501    0  0.00000000000E+00 -0.00000000000E+00 -0.89686936175E+01  0.90581656645E+01  0.12700000000E+01 0.  1.
         25    2    1    2    0    0  0.00000000000E+00  0.00000000000E+00  0.42432588328E+03  0.44235460376E+03  0.12500056099E+03 0.  0.
    9000005    1    3    3    0    0  0.25828743181E+02 -0.44011582451E+02  0.84512921712E+02  0.98729819712E+02  0.10000000000E+01 0.  0.
    9000005    1    3    3    0    0 -0.25828743181E+02  0.44011582451E+02  0.33981296157E+03  0.34362478405E+03  0.10000000000E+01 0.  0.
<mgrwt>
<rscale>  0 0.12500056E+03</rscale>
<asrwt>0</asrwt>
<pdfrwt beam="2">  1        4 0.13868247E-02 0.12500056E+03</pdfrwt>
<pdfrwt beam="1">  1       -4 0.66667729E-01 0.12500056E+03</pdfrwt>
<totfact> 0.60631115E+03</totfact>
</mgrwt>
</event>
<event>
 5    1  0.3225662E-002  0.1249914E+03  0.7818608E-02  0.1235083E+00
         -4   -1    0    0    0  501 -0.00000000000E+00  0.00000000000E+00  0.33924130801E+03  0.33924368522E+03  0.12700000000E+01 0. -1.
          4   -1    0    0  501    0  0.00000000000E+00 -0.00000000000E+00 -0.11475639193E+02  0.11545700278E+02  0.12700000000E+01 0. -1.
         25    2    1    2    0    0  0.00000000000E+00  0.00000000000E+00  0.32776566881E+03  0.35078938549E+03  0.12499143699E+03 0.  0.
    9000005    1    3    3    0    0 -0.84596363788E+00 -0.20344218813E+02  0.32968334384E+03  0.33031304864E+03  0.10000000000E+01 0.  0.
    9000005    1    3    3    0    0  0.84596363788E+00  0.20344218813E+02 -0.19176750262E+01  0.20476336857E+02  0.10000000000E+01 0.  0.
<mgrwt>
<rscale>  0 0.12499144E+03</rscale>
<asrwt>0</asrwt>
<pdfrwt beam="2">  1        4 0.17710553E-02 0.12499144E+03</pdfrwt>
<pdfrwt beam="1">  1       -4 0.52196538E-01 0.12499144E+03</pdfrwt>
<totfact> 0.69651000E+03</totfact>
</mgrwt>
</event>
<event>
 5    1  0.3225662E-002  0.1250096E+03  0.7818608E-02  0.1235054E+00
         -4   -1    0    0    0  501 -0.00000000000E+00  0.00000000000E+00  0.13983916188E+03  0.13984492875E+03  0.12700000000E+01 0. -1.
          4   -1    0    0  501    0  0.00000000000E+00 -0.00000000000E+00 -0.27917396581E+02  0.27946268658E+02  0.12700000000E+01 0. -1.
         25    2    1    2    0    0  0.00000000000E+00  0.00000000000E+00  0.11192176530E+03  0.16779119740E+03  0.12500961714E+03 0.  0.
    9000005    1    3    3    0    0 -0.53180007731E+02 -0.37350696910E+00  0.11899896807E+02  0.54505598554E+02  0.10000000000E+01 0.  0.
    9000005    1    3    3    0    0  0.53180007731E+02  0.37350696910E+00  0.10002186849E+03  0.11328559885E+03  0.10000000000E+01 0.  0.
<mgrwt>
<rscale>  0 0.12500962E+03</rscale>
<asrwt>0</asrwt>
<pdfrwt beam="2">  1        4 0.42976486E-02 0.12500962E+03</pdfrwt>
<pdfrwt beam="1">  1       -4 0.21516382E-01 0.12500962E+03</pdfrwt>
<totfact> 0.95840678E+03</totfact>
</mgrwt>
</event>
<event>
 5    1  0.3225662E-002  0.1250007E+03  0.7818608E-02  0.1235068E+00
         -4   -1    0    0    0  501 -0.00000000000E+00  0.00000000000E+00  0.23253135402E+01  0.26495250631E+01  0.12700000000E+01 0. -1.
          4   -1    0    0  501    0  0.00000000000E+00 -0.00000000000E+00 -0.15700959360E+04  0.15700964496E+04  0.12700000000E+01 0. -1.
         25    2    1    2    0    0  0.00000000000E+00  0.00000000000E+00 -0.15677706224E+04  0.15727459746E+04  0.12500070507E+03 0.  0.
    9000005    1    3    3    0    0 -0.21655715777E+02 -0.55478525205E+02 -0.10220979629E+04  0.10238320578E+04  0.10000000000E+01 0.  0.
    9000005    1    3    3    0    0  0.21655715777E+02  0.55478525205E+02 -0.54567265955E+03  0.54891391689E+03  0.10000000000E+01 0.  0.
<mgrwt>
<rscale>  0 0.12500071E+03</rscale>
<asrwt>0</asrwt>
<pdfrwt beam="2">  1        4 0.24157741E+00 0.12500071E+03</pdfrwt>
<pdfrwt beam="1">  1       -4 0.38272066E-03 0.12500071E+03</pdfrwt>
<totfact> 0.16543778E+03</totfact>
</mgrwt>
</event>
<event>
 5    1  0.3225662E-002  0.1249977E+03  0.7818608E-02  0.1235073E+00
          4   -1    0    0  501    0  0.00000000000E+00  0.00000000000E+00  0.14119163140E+02  0.14176165482E+02  0.12700000000E+01 0. -1.
         -4   -1    0    0    0  501 -0.00000000000E+00 -0.00000000000E+00 -0.27603705506E+03  0.27603997657E+03  0.12700000000E+01 0. -1.
         25    2    1    2    0    0  0.00000000000E+00  0.00000000000E+00 -0.26191789192E+03  0.29021614206E+03  0.12499770798E+03 0.  0.
    9000005    1    3    3    0    0 -0.19974978830E+02  0.59095468656E+02 -0.12232377929E+03  0.13731489786E+03  0.10000000000E+01 0.  0.
    9000005    1    3    3    0    0  0.19974978830E+02 -0.59095468656E+02 -0.13959411263E+03  0.15290124420E+03  0.10000000000E+01 0.  0.
<mgrwt>
<rscale>  0 0.12499771E+03</rscale>
<asrwt>0</asrwt>
<pdfrwt beam="1">  1        4 0.21767887E-02 0.12499771E+03</pdfrwt>
<pdfrwt beam="2">  1       -4 0.42471845E-01 0.12499771E+03</pdfrwt>
<totfact> 0.76846643E+03</totfact>
</mgrwt>
</event>
<event>
 5    1  0.3225662E-002  0.1250305E+03  0.7818608E-02  0.1235022E+00
          4   -1    0    0  501    0  0.00000000000E+00  0.00000000000E+00  0.41080161592E+01  0.42998484583E+01  0.12700000000E+01 0. -1.
         -4   -1    0    0    0  501 -0.00000000000E+00 -0.00000000000E+00 -0.92945091077E+03  0.92945177844E+03  0.12700000000E+01 0. -1.
         25    2    1    2    0    0  0.00000000000E+00  0.00000000000E+00 -0.92534289461E+03  0.93375162689E+03  0.12503050873E+03 0.  0.
    9000005    1    3    3    0    0  0.56058412451E+02 -0.21538090460E+02 -0.59217987552E+03  0.59521797681E+03  0.10000000000E+01 0.  0.
    9000005    1    3    3    0    0 -0.56058412451E+02  0.21538090460E+02 -0.33316301909E+03  0.33853365008E+03  0.10000000000E+01 0.  0.
<mgrwt>
<rscale>  0 0.12503051E+03</rscale>
<asrwt>0</asrwt>
<pdfrwt beam="1">  1        4 0.64682630E-03 0.12503051E+03</pdfrwt>
<pdfrwt beam="2">  1       -4 0.14300711E+00 0.12503051E+03</pdfrwt>
<totfact> 0.32878116E+03</totfact>
</mgrwt>
</event>
<event>
 5    1  0.3225662E-002  0.1250009E+03  0.7818608E-02  0.1235068E+00
         -4   -1    0    0    0  501 -0.00000000000E+00  0.00000000000E+00  0.82587934395E+02  0.82597698561E+02  0.12700000000E+01 0.  1.
          4   -1    0    0  501    0  0.00000000000E+00 -0.00000000000E+00 -0.47277677685E+02  0.47294732342E+02  0.12700000000E+01 0.  1.
         25    2    1    2    0    0  0.00000000000E+00  0.00000000000E+00  0.35310256709E+02  0.12989243090E+03  0.12500091750E+03 0.  0.
    9000005    1    3    3    0    0 -0.85722084747E+00 -0.39906246151E+02 -0.32310410210E+02  0.51363468705E+02  0.10000000000E+01 0.  0.
    9000005    1    3    3    0    0  0.85722084747E+00  0.39906246151E+02  0.67620666919E+02  0.78528962199E+02  0.10000000000E+01 0.  0.
<mgrwt>
<rscale>  0 0.12500092E+03</rscale>
<asrwt>0</asrwt>
<pdfrwt beam="2">  1        4 0.72755519E-02 0.12500092E+03</pdfrwt>
<pdfrwt beam="1">  1       -4 0.12707899E-01 0.12500092E+03</pdfrwt>
<totfact> 0.10346595E+04</totfact>
</mgrwt>
</event>
<event>
 5    1  0.3225662E-002  0.1249972E+03  0.7818608E-02  0.1235074E+00
          4   -1    0    0  501    0  0.00000000000E+00  0.00000000000E+00  0.30824124468E+02  0.30850276323E+02  0.12700000000E+01 0.  1.
         -4   -1    0    0    0  501 -0.00000000000E+00 -0.00000000000E+00 -0.12663827894E+03  0.12664464692E+03  0.12700000000E+01 0.  1.
         25    2    1    2    0    0  0.00000000000E+00  0.00000000000E+00 -0.95814154470E+02  0.15749492324E+03  0.12499719457E+03 0.  0.
    9000005    1    3    3    0    0  0.25495138477E+02 -0.57028633013E+02 -0.45795857827E+02  0.77463072902E+02  0.10000000000E+01 0.  0.
    9000005    1    3    3    0    0 -0.25495138477E+02  0.57028633013E+02 -0.50018296643E+02  0.80031850337E+02  0.10000000000E+01 0.  0.
<mgrwt>
<rscale>  0 0.12499719E+03</rscale>
<asrwt>0</asrwt>
<pdfrwt beam="1">  1        4 0.47446746E-02 0.12499719E+03</pdfrwt>
<pdfrwt beam="2">  1       -4 0.19485313E-01 0.12499719E+03</pdfrwt>
<totfact> 0.97834100E+03</totfact>
</mgrwt>
</event>
<event>
 5    1  0.3225662E-002  0.1250008E+03  0.7818608E-02  0.1235068E+00
          4   -1    0    0  501    0  0.00000000000E+00  0.00000000000E+00  0.34778166603E+03  0.34778398486E+03  0.12700000000E+01 0.  1.
         -4   -1    0    0    0  501 -0.00000000000E+00 -0.00000000000E+00 -0.11193785399E+02  0.11265599476E+02  0.12700000000E+01 0.  1.
         25    2    1    2    0    0  0.00000000000E+00  0.00000000000E+00  0.33658788063E+03  0.35904958434E+03  0.12500081050E+03 0.  0.
    9000005    1    3    3    0    0  0.16878645267E+01  0.37944888726E+02  0.31083560163E+03  0.31314922115E+03  0.10000000000E+01 0.  0.
    9000005    1    3    3    0    0 -0.16878645267E+01 -0.37944888726E+02  0.25752279003E+02  0.45900363189E+02  0.10000000000E+01 0.  0.
<mgrwt>
<rscale>  0 0.12500081E+03</rscale>
<asrwt>0</asrwt>
<pdfrwt beam="1">  1        4 0.53510569E-01 0.12500081E+03</pdfrwt>
<pdfrwt beam="2">  1       -4 0.17278235E-02 0.12500081E+03</pdfrwt>
<totfact> 0.68739101E+03</totfact>
</mgrwt>
</event>
<event>
 5    1  0.3225662E-002  0.1249441E+03  0.7818608E-02  0.1235157E+00
          4   -1    0    0  501    0  0.00000000000E+00  0.00000000000E+00  0.47568637956E+02  0.47585588333E+02  0.12700000000E+01 0. -1.
         -4   -1    0    0    0  501 -0.00000000000E+00 -0.00000000000E+00 -0.82008274948E+02  0.82018108123E+02  0.12700000000E+01 0. -1.
         25    2    1    2    0    0  0.00000000000E+00  0.00000000000E+00 -0.34439636992E+02  0.12960369646E+03  0.12494410566E+03 0.  0.
    9000005    1    3    3    0    0 -0.62014266345E+02 -0.73593651649E+01 -0.18622237157E+02  0.65174513444E+02  0.10000000000E+01 0.  0.
    9000005    1    3    3    0    0  0.62014266345E+02  0.73593651649E+01 -0.15817399835E+02  0.64429183011E+02  0.10000000000E+01 0.  0.
<mgrwt>
<rscale>  0 0.12494411E+03</rscale>
<asrwt>0</asrwt>
<pdfrwt beam="1">  1        4 0.73203123E-02 0.12494411E+03</pdfrwt>
<pdfrwt beam="2">  1       -4 0.12618718E-01 0.12494411E+03</pdfrwt>
<totfact> 0.10366066E+04</totfact>
</mgrwt>
</event>
<event>
 5    1  0.3225662E-002  0.1249827E+03  0.7818608E-02  0.1235096E+00
         -4   -1    0    0    0  501 -0.00000000000E+00  0.00000000000E+00  0.14161873179E+03  0.14162442619E+03  0.12700000000E+01 0.  1.
          4   -1    0    0  501    0  0.00000000000E+00 -0.00000000000E+00 -0.27554366612E+02  0.27583618679E+02  0.12700000000E+01 0.  1.
         25    2    1    2    0    0  0.00000000000E+00  0.00000000000E+00  0.11406436518E+03  0.16920804487E+03  0.12498273099E+03 0.  0.
    9000005    1    3    3    0    0  0.28783341028E+02  0.48345545309E+02  0.93821043261E+02  0.10940365913E+03  0.10000000000E+01 0.  0.
    9000005    1    3    3    0    0 -0.28783341028E+02 -0.48345545309E+02  0.20243321920E+02  0.59804385745E+02  0.10000000000E+01 0.  0.
<mgrwt>
<rscale>  0 0.12498273E+03</rscale>
<asrwt>0</asrwt>
<pdfrwt beam="2">  1        4 0.42418215E-02 0.12498273E+03</pdfrwt>
<pdfrwt beam="1">  1       -4 0.21790185E-01 0.12498273E+03</pdfrwt>
<totfact> 0.95633415E+03</totfact>
</mgrwt>
</event>
<event>
 5    1  0.3225662E-002  0.1250125E+03  0.7818608E-02  0.1235050E+00
         -4   -1    0    0    0  501 -0.00000000000E+00  0.00000000000E+00  0.38925019799E+02  0.38945732325E+02  0.12700000000E+01 0.  1.
          4   -1    0    0  501    0  0.00000000000E+00 -0.00000000000E+00 -0.10032177046E+03  0.10032980877E+03  0.12700000000E+01 0.  1.
         25    2    1    2    0    0  0.00000000000E+00  0.00000000000E+00 -0.61396750664E+02  0.13927554110E+03  0.12501246081E+03 0.  0.
    9000005    1    3    3    0    0  0.58663580412E+02 -0.16603404617E+02 -0.15384551299E+02  0.62886986971E+02  0.10000000000E+01 0.  0.
    9000005    1    3    3    0    0 -0.58663580412E+02  0.16603404617E+02 -0.46012199365E+02  0.76388554129E+02  0.10000000000E+01 0.  0.
<mgrwt>
<rscale>  0 0.12501246E+03</rscale>
<asrwt>0</asrwt>
<pdfrwt beam="2">  1        4 0.15436330E-01 0.12501246E+03</pdfrwt>
<pdfrwt beam="1">  1       -4 0.59906762E-02 0.12501246E+03</pdfrwt>
<totfact> 0.10145774E+04</totfact>
</mgrwt>
</event>
<event>
 5    1  0.3225662E-002  0.1250028E+03  0.7818608E-02  0.1235065E+00
         -4   -1    0    0    0  501 -0.00000000000E+00  0.00000000000E+00  0.31300907727E+03  0.31301165370E+03  0.12700000000E+01 0.  1.
          4   -1    0    0  501    0  0.00000000000E+00 -0.00000000000E+00 -0.12445282693E+02  0.12509914521E+02  0.12700000000E+01 0.  1.
         25    2    1    2    0    0  0.00000000000E+00  0.00000000000E+00  0.30056379458E+03  0.32552156822E+03  0.12500278704E+03 0.  0.
    9000005    1    3    3    0    0 -0.19844391223E+02  0.51451932268E+02  0.22684122422E+03  0.23345029921E+03  0.10000000000E+01 0.  0.
    9000005    1    3    3    0    0  0.19844391223E+02 -0.51451932268E+02  0.73722570357E+02  0.92071269011E+02  0.10000000000E+01 0.  0.
<mgrwt>
<rscale>  0 0.12500279E+03</rscale>
<asrwt>0</asrwt>
<pdfrwt beam="2">  1        4 0.19198290E-02 0.12500279E+03</pdfrwt>
<pdfrwt beam="1">  1       -4 0.48160407E-01 0.12500279E+03</pdfrwt>
<totfact> 0.72499710E+03</totfact>
</mgrwt>
</event>
<event>
 5    1  0.3225662E-002  0.1249903E+03  0.7818608E-02  0.1235084E+00
          4   -1    0    0  501    0  0.00000000000E+00  0.00000000000E+00  0.24399603544E+02  0.24432632955E+02  0.12700000000E+01 0.  1.
         -4   -1    0    0    0  501 -0.00000000000E+00 -0.00000000000E+00 -0.15992624023E+03  0.15993128279E+03  0.12700000000E+01 0.  1.
         25    2    1    2    0    0  0.00000000000E+00  0.00000000000E+00 -0.13552663669E+03  0.18436391575E+03  0.12499033633E+03 0.  0.
    9000005    1    3    3    0    0 -0.36897612110E+02 -0.50307484981E+02 -0.62575668688E+02  0.88368496289E+02  0.10000000000E+01 0.  0.
    9000005    1    3    3    0    0  0.36897612110E+02  0.50307484981E+02 -0.72950968001E+02  0.95995419457E+02  0.10000000000E+01 0.  0.
<mgrwt>
<rscale>  0 0.12499034E+03</rscale>
<asrwt>0</asrwt>
<pdfrwt beam="1">  1        4 0.37567139E-02 0.12499034E+03</pdfrwt>
<pdfrwt beam="2">  1       -4 0.24606965E-01 0.12499034E+03</pdfrwt>
<totfact> 0.92857440E+03</totfact>
</mgrwt>
</event>
<event>
 5    1  0.3225662E-002  0.1249977E+03  0.7818608E-02  0.1235073E+00
          4   -1    0    0  501    0  0.00000000000E+00  0.00000000000E+00  0.27194344781E+02  0.27223983692E+02  0.12700000000E+01 0.  1.
         -4   -1    0    0    0  501 -0.00000000000E+00 -0.00000000000E+00 -0.14352595163E+03  0.14353157036E+03  0.12700000000E+01 0.  1.
         25    2    1    2    0    0  0.00000000000E+00  0.00000000000E+00 -0.11633160685E+03  0.17075555405E+03  0.12499766593E+03 0.  0.
    9000005    1    3    3    0    0 -0.59155029795E+01  0.29103156805E+02 -0.13327626449E+03  0.13654870775E+03  0.10000000000E+01 0.  0.
    9000005    1    3    3    0    0  0.59155029795E+01 -0.29103156805E+02  0.16944657643E+02  0.34206846305E+02  0.10000000000E+01 0.  0.
<mgrwt>
<rscale>  0 0.12499767E+03</rscale>
<asrwt>0</asrwt>
<pdfrwt beam="1">  1        4 0.41864576E-02 0.12499767E+03</pdfrwt>
<pdfrwt beam="2">  1       -4 0.22083627E-01 0.12499767E+03</pdfrwt>
<totfact> 0.95312992E+03</totfact>
</mgrwt>
</event>
<event>
 5    1  0.3225662E-002  0.1249962E+03  0.7818608E-02  0.1235075E+00
         -4   -1    0    0    0  501 -0.00000000000E+00  0.00000000000E+00  0.48741826194E+01  0.50369193171E+01  0.12700000000E+01 0. -1.
          4   -1    0    0  501    0  0.00000000000E+00 -0.00000000000E+00 -0.78804677005E+03  0.78804779340E+03  0.12700000000E+01 0. -1.
         25    2    1    2    0    0  0.00000000000E+00  0.00000000000E+00 -0.78317258743E+03  0.79308471272E+03  0.12499623933E+03 0.  0.
    9000005    1    3    3    0    0  0.95668105037E+01  0.60715767059E+02 -0.32005884536E+03  0.32590887182E+03  0.10000000000E+01 0.  0.
    9000005    1    3    3    0    0 -0.95668105037E+01 -0.60715767059E+02 -0.46311374207E+03  0.46717584090E+03  0.10000000000E+01 0.  0.
<mgrwt>
<rscale>  0 0.12499624E+03</rscale>
<asrwt>0</asrwt>
<pdfrwt beam="2">  1        4 0.12125046E+00 0.12499624E+03</pdfrwt>
<pdfrwt beam="1">  1       -4 0.76247180E-03 0.12499624E+03</pdfrwt>
<totfact> 0.38578511E+03</totfact>
</mgrwt>
</event>
<event>
 4    1  0.3225662E-002  0.1250802E+03  0.7818608E-02  0.1234944E+00
         -4   -1    0    0    0  501 -0.00000000000E+00  0.00000000000E+00  0.53397337615E+01  0.54886844183E+01  0.12700000000E+01 0. -1.
          4   -1    0    0  501    0  0.00000000000E+00 -0.00000000000E+00 -0.72225831367E+03  0.72225943024E+03  0.12700000000E+01 0. -1.
    9000005    1    1    2    0    0  0.22705871533E+02 -0.10959941710E+02 -0.69140301371E+03  0.69186328440E+03  0.10000000000E+01 0.  0.
    9000005    1    1    2    0    0 -0.22705871533E+02  0.10959941710E+02 -0.25515566195E+02  0.35884830258E+02  0.10000000000E+01 0.  0.
<mgrwt>
<rscale>  0 0.12508025E+03</rscale>
<asrwt>0</asrwt>
<pdfrwt beam="2">  1        4 0.11112813E+00 0.12508025E+03</pdfrwt>
<pdfrwt beam="1">  1       -4 0.83304171E-03 0.12508025E+03</pdfrwt>
<totfact> 0.41588714E+03</totfact>
</mgrwt>
</event>
<event>
 5    1  0.3225662E-002  0.1250029E+03  0.7818608E-02  0.1235065E+00
         -4   -1    0    0    0  501 -0.00000000000E+00  0.00000000000E+00  0.98316893623E+02  0.98325095839E+02  0.12700000000E+01 0.  1.
          4   -1    0    0  501    0  0.00000000000E+00 -0.00000000000E+00 -0.39713029759E+02  0.39733331507E+02  0.12700000000E+01 0.  1.
         25    2    1    2    0    0  0.00000000000E+00  0.00000000000E+00  0.58603863864E+02  0.13805842735E+03  0.12500286597E+03 0.  0.
    9000005    1    3    3    0    0 -0.30611890715E+02  0.65364796187E+01  0.89040057454E+02  0.94387209145E+02  0.10000000000E+01 0.  0.
    9000005    1    3    3    0    0  0.30611890715E+02 -0.65364796187E+01 -0.30436193590E+02  0.43671218201E+02  0.10000000000E+01 0.  0.
<mgrwt>
<rscale>  0 0.12500287E+03</rscale>
<asrwt>0</asrwt>
<pdfrwt beam="2">  1        4 0.61118895E-02 0.12500287E+03</pdfrwt>
<pdfrwt beam="1">  1       -4 0.15127869E-01 0.12500287E+03</pdfrwt>
<totfact> 0.10173328E+04</totfact>
</mgrwt>
</event>
<event>
 5    1  0.3225662E-002  0.1250000E+03  0.7818608E-02  0.1235069E+00
          4   -1    0    0  501    0  0.00000000000E+00  0.00000000000E+00  0.43996332798E+02  0.44014658918E+02  0.12700000000E+01 0.  1.
         -4   -1    0    0    0  501 -0.00000000000E+00 -0.00000000000E+00 -0.88744508846E+02  0.88753595704E+02  0.12700000000E+01 0.  1.
         25    2    1    2    0    0  0.00000000000E+00  0.00000000000E+00 -0.44748176048E+02  0.13276825462E+03  0.12500004070E+03 0.  0.
    9000005    1    3    3    0    0 -0.23921528372E+02  0.34810947172E+02  0.26544737875E+02  0.49896539675E+02  0.10000000000E+01 0.  0.
    9000005    1    3    3    0    0  0.23921528372E+02 -0.34810947172E+02 -0.71292913923E+02  0.82871714947E+02  0.10000000000E+01 0.  0.
<mgrwt>
<rscale>  0 0.12500004E+03</rscale>
<asrwt>0</asrwt>
<pdfrwt beam="1">  1        4 0.67707753E-02 0.12500004E+03</pdfrwt>
<pdfrwt beam="2">  1       -4 0.13655110E-01 0.12500004E+03</pdfrwt>
<totfact> 0.10285318E+04</totfact>
</mgrwt>
</event>
<event>
 5    1  0.3225662E-002  0.1249992E+03  0.7818608E-02  0.1235070E+00
          4   -1    0    0  501    0  0.00000000000E+00  0.00000000000E+00  0.29951078022E+03  0.29951347276E+03  0.12700000000E+01 0.  1.
         -4   -1    0    0    0  501 -0.00000000000E+00 -0.00000000000E+00 -0.13008264050E+02  0.13070112226E+02  0.12700000000E+01 0.  1.
         25    2    1    2    0    0  0.00000000000E+00  0.00000000000E+00  0.28650251617E+03  0.31258358499E+03  0.12499922333E+03 0.  0.
    9000005    1    3    3    0    0  0.23814746348E+02 -0.50703144096E+02  0.73984088547E+02  0.92804074926E+02  0.10000000000E+01 0.  0.
    9000005    1    3    3    0    0 -0.23814746348E+02  0.50703144096E+02  0.21251842762E+03  0.21977951006E+03  0.10000000000E+01 0.  0.
<mgrwt>
<rscale>  0 0.12499922E+03</rscale>
<asrwt>0</asrwt>
<pdfrwt beam="1">  1        4 0.46083548E-01 0.12499922E+03</pdfrwt>
<pdfrwt beam="2">  1       -4 0.20062360E-02 0.12499922E+03</pdfrwt>
<totfact> 0.74048252E+03</totfact>
</mgrwt>
</event>
<event>
 5    1  0.3225662E-002  0.1249986E+03  0.7818608E-02  0.1235071E+00
         -4   -1    0    0    0  501 -0.00000000000E+00  0.00000000000E+00  0.26515849213E+03  0.26516153350E+03  0.12700000000E+01 0.  1.
          4   -1    0    0  501    0  0.00000000000E+00 -0.00000000000E+00 -0.14700932959E+02  0.14755688051E+02  0.12700000000E+01 0.  1.
         25    2    1    2    0    0  0.00000000000E+00  0.00000000000E+00  0.25045755917E+03  0.27991722155E+03  0.12499864789E+03 0.  0.
    9000005    1    3    3    0    0  0.22855977036E+01  0.22546969607E+02 -0.51854742214E+01  0.23269700003E+02  0.10000000000E+01 0.  0.
    9000005    1    3    3    0    0 -0.22855977036E+01 -0.22546969607E+02  0.25564303339E+03  0.25664752155E+03  0.10000000000E+01 0.  0.
<mgrwt>
<rscale>  0 0.12499865E+03</rscale>
<asrwt>0</asrwt>
<pdfrwt beam="2">  1        4 0.22661280E-02 0.12499865E+03</pdfrwt>
<pdfrwt beam="1">  1       -4 0.40798057E-01 0.12499865E+03</pdfrwt>
<totfact> 0.78191433E+03</totfact>
</mgrwt>
</event>
<event>
 5    1  0.3225662E-002  0.1250019E+03  0.7818608E-02  0.1235066E+00
         -4   -1    0    0    0  501 -0.00000000000E+00  0.00000000000E+00  0.75840437098E+02  0.75851069862E+02  0.12700000000E+01 0.  1.
          4   -1    0    0  501    0  0.00000000000E+00 -0.00000000000E+00 -0.51485631327E+02  0.51501292539E+02  0.12700000000E+01 0.  1.
         25    2    1    2    0    0  0.00000000000E+00  0.00000000000E+00  0.24354805771E+02  0.12735236240E+03  0.12500187057E+03 0.  0.
    9000005    1    3    3    0    0  0.32337413046E+02  0.39147139235E+02 -0.24937827004E+02  0.56578282127E+02  0.10000000000E+01 0.  0.
    9000005    1    3    3    0    0 -0.32337413046E+02 -0.39147139235E+02  0.49292632775E+02  0.70774080274E+02  0.10000000000E+01 0.  0.
<mgrwt>
<rscale>  0 0.12500187E+03</rscale>
<asrwt>0</asrwt>
<pdfrwt beam="2">  1        4 0.79228890E-02 0.12500187E+03</pdfrwt>
<pdfrwt beam="1">  1       -4 0.11669782E-01 0.12500187E+03</pdfrwt>
<totfact> 0.10401060E+04</totfact>
</mgrwt>
</event>
<event>
 5    1  0.3225662E-002  0.1249990E+03  0.7818608E-02  0.1235071E+00
         -4   -1    0    0    0  501 -0.00000000000E+00  0.00000000000E+00  0.37557720368E+02  0.37579186516E+02  0.12700000000E+01 0. -1.
          4   -1    0    0  501    0  0.00000000000E+00 -0.00000000000E+00 -0.10394982678E+03  0.10395758456E+03  0.12700000000E+01 0. -1.
         25    2    1    2    0    0  0.00000000000E+00  0.00000000000E+00 -0.66392106413E+02  0.14153677108E+03  0.12499898309E+03 0.  0.
    9000005    1    3    3    0    0  0.29682796083E+02 -0.32837148208E+02  0.16751744043E+02  0.47338859452E+02  0.10000000000E+01 0.  0.
    9000005    1    3    3    0    0 -0.29682796083E+02  0.32837148208E+02 -0.83143850456E+02  0.94197911624E+02  0.10000000000E+01 0.  0.
<mgrwt>
<rscale>  0 0.12499898E+03</rscale>
<asrwt>0</asrwt>
<pdfrwt beam="2">  1        4 0.15994529E-01 0.12499898E+03</pdfrwt>
<pdfrwt beam="1">  1       -4 0.57803589E-02 0.12499898E+03</pdfrwt>
<totfact> 0.10102066E+04</totfact>
</mgrwt>
</event>
<event>
 5    1  0.3225662E-002  0.1249991E+03  0.7818608E-02  0.1235071E+00
          4   -1    0    0  501    0  0.00000000000E+00  0.00000000000E+00  0.12350985644E+03  0.12351638571E+03  0.12700000000E+01 0. -1.
         -4   -1    0    0    0  501 -0.00000000000E+00 -0.00000000000E+00 -0.31606446345E+02  0.31631951419E+02  0.12700000000E+01 0. -1.
         25    2    1    2    0    0  0.00000000000E+00  0.00000000000E+00  0.91903410098E+02  0.15514833713E+03  0.12499907890E+03 0.  0.
    9000005    1    3    3    0    0  0.24581775475E+02  0.46101198207E+02  0.33946439691E+01  0.52365138874E+02  0.10000000000E+01 0.  0.
    9000005    1    3    3    0    0 -0.24581775475E+02 -0.46101198207E+02  0.88508766129E+02  0.10278319825E+03  0.10000000000E+01 0.  0.
<mgrwt>
<rscale>  0 0.12499908E+03</rscale>
<asrwt>0</asrwt>
<pdfrwt beam="1">  1        4 0.19003981E-01 0.12499908E+03</pdfrwt>
<pdfrwt beam="2">  1       -4 0.48649944E-02 0.12499908E+03</pdfrwt>
<totfact> 0.98288422E+03</totfact>
</mgrwt>
</event>
<event>
 5    1  0.3225662E-002  0.1250031E+03  0.7818608E-02  0.1235064E+00
          4   -1    0    0  501    0  0.00000000000E+00  0.00000000000E+00  0.80423868160E+03  0.80423968435E+03  0.12700000000E+01 0. -1.
         -4   -1    0    0    0  501 -0.00000000000E+00 -0.00000000000E+00 -0.47732788803E+01  0.49393411776E+01  0.12700000000E+01 0. -1.
         25    2    1    2    0    0  0.00000000000E+00  0.00000000000E+00  0.79946540272E+03  0.80917902553E+03  0.12500306079E+03 0.  0.
    9000005    1    3    3    0    0 -0.40458483478E+02  0.47628768600E+02  0.39824500373E+03  0.40311967389E+03  0.10000000000E+01 0.  0.
    9000005    1    3    3    0    0  0.40458483478E+02 -0.47628768600E+02  0.40122039899E+03  0.40605935163E+03  0.10000000000E+01 0.  0.
<mgrwt>
<rscale>  0 0.12500306E+03</rscale>
<asrwt>0</asrwt>
<pdfrwt beam="1">  1        4 0.12374187E+00 0.12500306E+03</pdfrwt>
<pdfrwt beam="2">  1       -4 0.74720180E-03 0.12500306E+03</pdfrwt>
<totfact> 0.37855691E+03</totfact>
</mgrwt>
</event>
<event>
 5    1  0.3225662E-002  0.1249973E+03  0.7818608E-02  0.1235074E+00
         -4   -1    0    0    0  501 -0.00000000000E+00  0.00000000000E+00  0.81377106014E+02  0.81387015446E+02  0.12700000000E+01 0. -1.
          4   -1    0    0  501    0  0.00000000000E+00 -0.00000000000E+00 -0.47978511347E+02  0.47995316970E+02  0.12700000000E+01 0. -1.
         25    2    1    2    0    0  0.00000000000E+00  0.00000000000E+00  0.33398594667E+02  0.12938233242E+03  0.12499728723E+03 0.  0.
    9000005    1    3    3    0    0  0.33309471727E+02  0.50040537040E+01 -0.37782942566E+02  0.50627188438E+02  0.10000000000E+01 0.  0.
    9000005    1    3    3    0    0 -0.33309471727E+02 -0.50040537040E+01  0.71181537232E+02  0.78755143978E+02  0.10000000000E+01 0.  0.
<mgrwt>
<rscale>  0 0.12499729E+03</rscale>
<asrwt>0</asrwt>
<pdfrwt beam="2">  1        4 0.73833645E-02 0.12499729E+03</pdfrwt>
<pdfrwt beam="1">  1       -4 0.12521610E-01 0.12499729E+03</pdfrwt>
<totfact> 0.10358373E+04</totfact>
</mgrwt>
</event>
<event>
 5    1  0.3225662E-002  0.1250005E+03  0.7818608E-02  0.1235069E+00
         -4   -1    0    0    0  501 -0.00000000000E+00  0.00000000000E+00  0.57414873521E+02  0.57428917816E+02  0.12700000000E+01 0. -1.
          4   -1    0    0  501    0  0.00000000000E+00 -0.00000000000E+00 -0.68007736292E+02  0.68019593468E+02  0.12700000000E+01 0. -1.
         25    2    1    2    0    0  0.00000000000E+00  0.00000000000E+00 -0.10592862771E+02  0.12544851128E+03  0.12500048097E+03 0.  0.
    9000005    1    3    3    0    0  0.15110499270E+02  0.34636488838E+02  0.44654109329E+02  0.58506435776E+02  0.10000000000E+01 0.  0.
    9000005    1    3    3    0    0 -0.15110499270E+02 -0.34636488838E+02 -0.55246972099E+02  0.66942075508E+02  0.10000000000E+01 0.  0.
<mgrwt>
<rscale>  0 0.12500048E+03</rscale>
<asrwt>0</asrwt>
<pdfrwt beam="2">  1        4 0.10464721E-01 0.12500048E+03</pdfrwt>
<pdfrwt beam="1">  1       -4 0.88350499E-02 0.12500048E+03</pdfrwt>
<totfact> 0.10442979E+04</totfact>
</mgrwt>
</event>
<event>
 5    1  0.3225662E-002  0.1249991E+03  0.7818608E-02  0.1235071E+00
         -4   -1    0    0    0  501 -0.00000000000E+00  0.00000000000E+00  0.82376419284E+02  0.82386208518E+02  0.12700000000E+01 0.  1.
          4   -1    0    0  501    0  0.00000000000E+00 -0.00000000000E+00 -0.47397746054E+02  0.47414757523E+02  0.12700000000E+01 0.  1.
         25    2    1    2    0    0  0.00000000000E+00  0.00000000000E+00  0.34978673230E+02  0.12980096604E+03  0.12499913281E+03 0.  0.
    9000005    1    3    3    0    0  0.47662194349E+02  0.37606451421E+02  0.32865798481E+02  0.69044121173E+02  0.10000000000E+01 0.  0.
    9000005    1    3    3    0    0 -0.47662194349E+02 -0.37606451421E+02  0.21128747491E+01  0.60756844869E+02  0.10000000000E+01 0.  0.
<mgrwt>
<rscale>  0 0.12499913E+03</rscale>
<asrwt>0</asrwt>
<pdfrwt beam="2">  1        4 0.72940225E-02 0.12499913E+03</pdfrwt>
<pdfrwt beam="1">  1       -4 0.12675357E-01 0.12499913E+03</pdfrwt>
<totfact> 0.10348970E+04</totfact>
</mgrwt>
</event>
<event>
 5    1  0.3225662E-002  0.1250026E+03  0.7818608E-02  0.1235065E+00
          4   -1    0    0  501    0  0.00000000000E+00  0.00000000000E+00  0.32049430771E+02  0.32074583594E+02  0.12700000000E+01 0. -1.
         -4   -1    0    0    0  501 -0.00000000000E+00 -0.00000000000E+00 -0.12181084398E+03  0.12181746431E+03  0.12700000000E+01 0. -1.
         25    2    1    2    0    0  0.00000000000E+00  0.00000000000E+00 -0.89761413207E+02  0.15389204790E+03  0.12500260440E+03 0.  0.
    9000005    1    3    3    0    0  0.50870255485E+02  0.25105438029E+02 -0.77157107090E+02  0.95772047521E+02  0.10000000000E+01 0.  0.
    9000005    1    3    3    0    0 -0.50870255485E+02 -0.25105438029E+02 -0.12604306116E+02  0.58120000382E+02  0.10000000000E+01 0.  0.
<mgrwt>
<rscale>  0 0.12500260E+03</rscale>
<asrwt>0</asrwt>
<pdfrwt beam="1">  1        4 0.49331258E-02 0.12500260E+03</pdfrwt>
<pdfrwt beam="2">  1       -4 0.18742574E-01 0.12500260E+03</pdfrwt>
<totfact> 0.98527672E+03</totfact>
</mgrwt>
</event>
<event>
 5    1  0.3225662E-002  0.1250002E+03  0.7818608E-02  0.1235069E+00
         -4   -1    0    0    0  501 -0.00000000000E+00  0.00000000000E+00  0.89900363044E+03  0.89900452749E+03  0.12700000000E+01 0. -1.
          4   -1    0    0  501    0  0.00000000000E+00 -0.00000000000E+00 -0.42513807932E+01  0.44370191175E+01  0.12700000000E+01 0. -1.
         25    2    1    2    0    0  0.00000000000E+00  0.00000000000E+00  0.89475224965E+03  0.90344154661E+03  0.12500015954E+03 0.  0.
    9000005    1    3    3    0    0  0.38096142246E+02  0.39378370067E+02  0.23015473664E+03  0.23658861951E+03  0.10000000000E+01 0.  0.
    9000005    1    3    3    0    0 -0.38096142246E+02 -0.39378370067E+02  0.66459751300E+03  0.66685292710E+03  0.10000000000E+01 0.  0.
<mgrwt>
<rscale>  0 0.12500016E+03</rscale>
<asrwt>0</asrwt>
<pdfrwt beam="2">  1        4 0.66840716E-03 0.12500016E+03</pdfrwt>
<pdfrwt beam="1">  1       -4 0.13832266E+00 0.12500016E+03</pdfrwt>
<totfact> 0.34028344E+03</totfact>
</mgrwt>
</event>
<event>
 5    1  0.3225662E-002  0.1249979E+03  0.7818608E-02  0.1235073E+00
         -4   -1    0    0    0  501 -0.00000000000E+00  0.00000000000E+00  0.18897795764E+03  0.18898222502E+03  0.12700000000E+01 0. -1.
          4   -1    0    0  501    0  0.00000000000E+00 -0.00000000000E+00 -0.20645680707E+02  0.20684705264E+02  0.12700000000E+01 0. -1.
         25    2    1    2    0    0  0.00000000000E+00  0.00000000000E+00  0.16833227694E+03  0.20966693029E+03  0.12499786477E+03 0.  0.
    9000005    1    3    3    0    0  0.33460842013E+02 -0.43182886986E+02  0.13506320493E+03  0.14569646188E+03  0.10000000000E+01 0.  0.
    9000005    1    3    3    0    0 -0.33460842013E+02  0.43182886986E+02  0.33269072002E+02  0.63970468410E+02  0.10000000000E+01 0.  0.
<mgrwt>
<rscale>  0 0.12499786E+03</rscale>
<asrwt>0</asrwt>
<pdfrwt beam="2">  1        4 0.31795887E-02 0.12499786E+03</pdfrwt>
<pdfrwt beam="1">  1       -4 0.29076862E-01 0.12499786E+03</pdfrwt>
<totfact> 0.88534530E+03</totfact>
</mgrwt>
</event>
<event>
 5    1  0.3225662E-002  0.1249972E+03  0.7818608E-02  0.1235074E+00
         -4   -1    0    0    0  501 -0.00000000000E+00  0.00000000000E+00  0.26590438367E+01  0.29467633304E+01  0.12700000000E+01 0.  1.
          4   -1    0    0  501    0  0.00000000000E+00 -0.00000000000E+00 -0.13932929312E+04  0.13932935100E+04  0.12700000000E+01 0.  1.
         25    2    1    2    0    0  0.00000000000E+00  0.00000000000E+00 -0.13906338874E+04  0.13962402734E+04  0.12499716881E+03 0.  0.
    9000005    1    3    3    0    0 -0.13423478764E+02 -0.58070109099E+02 -0.48552401368E+03  0.48916959760E+03  0.10000000000E+01 0.  0.
    9000005    1    3    3    0    0  0.13423478764E+02  0.58070109099E+02 -0.90510987372E+03  0.90707067578E+03  0.10000000000E+01 0.  0.
<mgrwt>
<rscale>  0 0.12499717E+03</rscale>
<asrwt>0</asrwt>
<pdfrwt beam="2">  1        4 0.21437438E+00 0.12499717E+03</pdfrwt>
<pdfrwt beam="1">  1       -4 0.43126157E-03 0.12499717E+03</pdfrwt>
<totfact> 0.20063068E+03</totfact>
</mgrwt>
</event>
<event>
 5    1  0.3225662E-002  0.1250022E+03  0.7818608E-02  0.1235066E+00
         -4   -1    0    0    0  501 -0.00000000000E+00  0.00000000000E+00  0.40511920632E+03  0.40512119696E+03  0.12700000000E+01 0.  1.
          4   -1    0    0  501    0  0.00000000000E+00 -0.00000000000E+00 -0.95987167537E+01  0.96823686832E+01  0.12700000000E+01 0.  1.
         25    2    1    2    0    0  0.00000000000E+00  0.00000000000E+00  0.39552048957E+03  0.41480356565E+03  0.12500216161E+03 0.  0.
    9000005    1    3    3    0    0 -0.52856236570E+02  0.31026649930E+02  0.23825937758E+03  0.24601822241E+03  0.10000000000E+01 0.  0.
    9000005    1    3    3    0    0  0.52856236570E+02 -0.31026649930E+02  0.15726111198E+03  0.16878534324E+03  0.10000000000E+01 0.  0.
<mgrwt>
<rscale>  0 0.12500216E+03</rscale>
<asrwt>0</asrwt>
<pdfrwt beam="2">  1        4 0.14833135E-02 0.12500216E+03</pdfrwt>
<pdfrwt beam="1">  1       -4 0.62332623E-01 0.12500216E+03</pdfrwt>
<totfact> 0.63135020E+03</totfact>
</mgrwt>
</event>
<event>
 5    1  0.3225662E-002  0.1249959E+03  0.7818608E-02  0.1235076E+00
         -4   -1    0    0    0  501 -0.00000000000E+00  0.00000000000E+00  0.52035112995E+01  0.53562514731E+01  0.12700000000E+01 0.  1.
          4   -1    0    0  501    0  0.00000000000E+00 -0.00000000000E+00 -0.73963502148E+03  0.73963611181E+03  0.12700000000E+01 0.  1.
         25    2    1    2    0    0  0.00000000000E+00  0.00000000000E+00 -0.73443151018E+03  0.74499236328E+03  0.12499591277E+03 0.  0.
    9000005    1    3    3    0    0 -0.27424518702E+00 -0.32754879384E+02 -0.50035979928E+02  0.59812679435E+02  0.10000000000E+01 0.  0.
    9000005    1    3    3    0    0  0.27424518702E+00  0.32754879384E+02 -0.68439553025E+03  0.68517968385E+03  0.10000000000E+01 0.  0.
<mgrwt>
<rscale>  0 0.12499591E+03</rscale>
<asrwt>0</asrwt>
<pdfrwt beam="2">  1        4 0.11380175E+00 0.12499591E+03</pdfrwt>
<pdfrwt beam="1">  1       -4 0.81237390E-03 0.12499591E+03</pdfrwt>
<totfact> 0.40818476E+03</totfact>
</mgrwt>
</event>
<event>
 5    1  0.3225662E-002  0.1249677E+03  0.7818608E-02  0.1235120E+00
          4   -1    0    0  501    0  0.00000000000E+00  0.00000000000E+00  0.10692992504E+03  0.10693746663E+03  0.12700000000E+01 0.  1.
         -4   -1    0    0    0  501 -0.00000000000E+00 -0.00000000000E+00 -0.36492172566E+02  0.36514265138E+02  0.12700000000E+01 0.  1.
         25    2    1    2    0    0  0.00000000000E+00  0.00000000000E+00  0.70437752473E+02  0.14345173177E+03  0.12496768532E+03 0.  0.
    9000005    1    3    3    0    0  0.40384838513E+02  0.44733992900E+02  0.16316120636E+02  0.62444223873E+02  0.10000000000E+01 0.  0.
    9000005    1    3    3    0    0 -0.40384838513E+02 -0.44733992900E+02  0.54121631836E+02  0.81007507893E+02  0.10000000000E+01 0.  0.
<mgrwt>
<rscale>  0 0.12496769E+03</rscale>
<asrwt>0</asrwt>
<pdfrwt beam="1">  1        4 0.16453037E-01 0.12496769E+03</pdfrwt>
<pdfrwt beam="2">  1       -4 0.56164600E-02 0.12496769E+03</pdfrwt>
<totfact> 0.10069868E+04</totfact>
</mgrwt>
</event>
<event>
 5    1  0.3225662E-002  0.1250009E+03  0.7818608E-02  0.1235068E+00
          4   -1    0    0  501    0  0.00000000000E+00  0.00000000000E+00  0.28122086135E+02  0.28150748277E+02  0.12700000000E+01 0.  1.
         -4   -1    0    0    0  501 -0.00000000000E+00 -0.00000000000E+00 -0.13880296081E+03  0.13880877072E+03  0.12700000000E+01 0.  1.
         25    2    1    2    0    0  0.00000000000E+00  0.00000000000E+00 -0.11068087467E+03  0.16695951900E+03  0.12500089986E+03 0.  0.
    9000005    1    3    3    0    0  0.55863466124E+02 -0.22262665836E+01 -0.92634560729E+02  0.10820279549E+03  0.10000000000E+01 0.  0.
    9000005    1    3    3    0    0 -0.55863466124E+02  0.22262665836E+01 -0.18046313943E+02  0.58756723507E+02  0.10000000000E+01 0.  0.
<mgrwt>
<rscale>  0 0.12500090E+03</rscale>
<asrwt>0</asrwt>
<pdfrwt beam="1">  1        4 0.43291266E-02 0.12500090E+03</pdfrwt>
<pdfrwt beam="2">  1       -4 0.21356953E-01 0.12500090E+03</pdfrwt>
<totfact> 0.96015632E+03</totfact>
</mgrwt>
</event>
<event>
 5    1  0.3225662E-002  0.1249992E+03  0.7818608E-02  0.1235071E+00
         -4   -1    0    0    0  501 -0.00000000000E+00  0.00000000000E+00  0.89325315082E+01  0.90223621710E+01  0.12700000000E+01 0. -1.
          4   -1    0    0  501    0  0.00000000000E+00 -0.00000000000E+00 -0.43502186853E+03  0.43502372234E+03  0.12700000000E+01 0. -1.
         25    2    1    2    0    0  0.00000000000E+00  0.00000000000E+00 -0.42608933702E+03  0.44404608451E+03  0.12499920818E+03 0.  0.
    9000005    1    3    3    0    0  0.84296470187E+00 -0.14285553907E+01  0.88717370760E+01  0.90806981416E+01  0.10000000000E+01 0.  0.
    9000005    1    3    3    0    0 -0.84296470187E+00  0.14285553907E+01 -0.43496107410E+03  0.43496538637E+03  0.10000000000E+01 0.  0.
<mgrwt>
<rscale>  0 0.12499921E+03</rscale>
<asrwt>0</asrwt>
<pdfrwt beam="2">  1        4 0.66933477E-01 0.12499921E+03</pdfrwt>
<pdfrwt beam="1">  1       -4 0.13812886E-02 0.12499921E+03</pdfrwt>
<totfact> 0.60484138E+03</totfact>
</mgrwt>
</event>
<event>
 5    1  0.3225662E-002  0.1250048E+03  0.7818608E-02  0.1235062E+00
         -4   -1    0    0    0  501 -0.00000000000E+00  0.00000000000E+00  0.46754856739E+02  0.46772102034E+02  0.12700000000E+01 0. -1.
          4   -1    0    0  501    0  0.00000000000E+00 -0.00000000000E+00 -0.83516407477E+02  0.83526063105E+02  0.12700000000E+01 0. -1.
         25    2    1    2    0    0  0.00000000000E+00  0.00000000000E+00 -0.36761550738E+02  0.13029816514E+03  0.12500480081E+03 0.  0.
    9000005    1    3    3    0    0  0.27066923839E+02  0.50691390889E+02  0.72217920279E+01  0.57925726206E+02  0.10000000000E+01 0.  0.
    9000005    1    3    3    0    0 -0.27066923839E+02 -0.50691390889E+02 -0.43983342766E+02  0.72372438934E+02  0.10000000000E+01 0.  0.
<mgrwt>
<rscale>  0 0.12500480E+03</rscale>
<asrwt>0</asrwt>
<pdfrwt beam="2">  1        4 0.12850747E-01 0.12500480E+03</pdfrwt>
<pdfrwt beam="1">  1       -4 0.71951242E-02 0.12500480E+03</pdfrwt>
<totfact> 0.10337013E+04</totfact>
</mgrwt>
</event>
<event>
 5    1  0.3225662E-002  0.1250000E+03  0.7818608E-02  0.1235069E+00
         -4   -1    0    0    0  501 -0.00000000000E+00  0.00000000000E+00  0.32795032176E+03  0.32795278081E+03  0.12700000000E+01 0. -1.
          4   -1    0    0  501    0  0.00000000000E+00 -0.00000000000E+00 -0.11874747077E+02  0.11942467004E+02  0.12700000000E+01 0. -1.
         25    2    1    2    0    0  0.00000000000E+00  0.00000000000E+00  0.31607557468E+03  0.33989524781E+03  0.12500004231E+03 0.  0.
    9000005    1    3    3    0    0 -0.57729988040E+02  0.17591527951E+02  0.20213846139E+03  0.21095774683E+03  0.10000000000E+01 0.  0.
    9000005    1    3    3    0    0  0.57729988040E+02 -0.17591527951E+02  0.11393711329E+03  0.12893750098E+03  0.10000000000E+01 0.  0.
<mgrwt>
<rscale>  0 0.12500004E+03</rscale>
<asrwt>0</asrwt>
<pdfrwt beam="2">  1        4 0.18322826E-02 0.12500004E+03</pdfrwt>
<pdfrwt beam="1">  1       -4 0.50459293E-01 0.12500004E+03</pdfrwt>
<totfact> 0.70850629E+03</totfact>
</mgrwt>
</event>
<event>
 5    1  0.3225662E-002  0.1250019E+03  0.7818608E-02  0.1235066E+00
          4   -1    0    0  501    0  0.00000000000E+00  0.00000000000E+00  0.76286248786E+02  0.76296819422E+02  0.12700000000E+01 0.  1.
         -4   -1    0    0    0  501 -0.00000000000E+00 -0.00000000000E+00 -0.51184715385E+02  0.51200468641E+02  0.12700000000E+01 0.  1.
         25    2    1    2    0    0  0.00000000000E+00  0.00000000000E+00  0.25101533401E+02  0.12749728806E+03  0.12500188592E+03 0.  0.
    9000005    1    3    3    0    0 -0.50931175656E+02 -0.32625848862E+02  0.28578704357E+02  0.66904207719E+02  0.10000000000E+01 0.  0.
    9000005    1    3    3    0    0  0.50931175656E+02  0.32625848862E+02 -0.34771709560E+01  0.60593080344E+02  0.10000000000E+01 0.  0.
<mgrwt>
<rscale>  0 0.12500189E+03</rscale>
<asrwt>0</asrwt>
<pdfrwt beam="1">  1        4 0.11738371E-01 0.12500189E+03</pdfrwt>
<pdfrwt beam="2">  1       -4 0.78765965E-02 0.12500189E+03</pdfrwt>
<totfact> 0.10397917E+04</totfact>
</mgrwt>
</event>
<event>
 4    1  0.3225662E-002  0.1250879E+03  0.7818608E-02  0.1234932E+00
         -4   -1    0    0    0  501 -0.00000000000E+00  0.00000000000E+00  0.44835663839E+03  0.44835843707E+03  0.12700000000E+01 0. -1.
          4   -1    0    0  501    0  0.00000000000E+00 -0.00000000000E+00 -0.86765828910E+01  0.87690359028E+01  0.12700000000E+01 0. -1.
    9000005    1    1    2    0    0 -0.41618812054E+02  0.24953933457E+02  0.75689681850E+02  0.89915250377E+02  0.10000000000E+01 0.  0.
    9000005    1    1    2    0    0  0.41618812054E+02 -0.24953933457E+02  0.36399037365E+03  0.36721222259E+03  0.10000000000E+01 0.  0.
<mgrwt>
<rscale>  0 0.12508787E+03</rscale>
<asrwt>0</asrwt>
<pdfrwt beam="2">  1        4 0.13421089E-02 0.12508787E+03</pdfrwt>
<pdfrwt beam="1">  1       -4 0.68985202E-01 0.12508787E+03</pdfrwt>
<totfact> 0.59236573E+03</totfact>
</mgrwt>
</event>
<event>
 5    1  0.3225662E-002  0.1250028E+03  0.7818608E-02  0.1235065E+00
         -4   -1    0    0    0  501 -0.00000000000E+00  0.00000000000E+00  0.12450249193E+03  0.12450896914E+03  0.12700000000E+01 0.  1.
          4   -1    0    0  501    0  0.00000000000E+00 -0.00000000000E+00 -0.31356129797E+02  0.31381838312E+02  0.12700000000E+01 0.  1.
         25    2    1    2    0    0  0.00000000000E+00  0.00000000000E+00  0.93146362128E+02  0.15589080745E+03  0.12500279625E+03 0.  0.
    9000005    1    3    3    0    0  0.15336993616E+02 -0.61117486851E+01 -0.28593329124E+02  0.33032640154E+02  0.10000000000E+01 0.  0.
    9000005    1    3    3    0    0 -0.15336993616E+02  0.61117486851E+01  0.12173969125E+03  0.12285816730E+03  0.10000000000E+01 0.  0.
<mgrwt>
<rscale>  0 0.12500280E+03</rscale>
<asrwt>0</asrwt>
<pdfrwt beam="2">  1        4 0.48264958E-02 0.12500280E+03</pdfrwt>
<pdfrwt beam="1">  1       -4 0.19156705E-01 0.12500280E+03</pdfrwt>
<totfact> 0.98134734E+03</totfact>
</mgrwt>
</event>
<event>
 5    1  0.3225662E-002  0.1249598E+03  0.7818608E-02  0.1235132E+00
          4   -1    0    0  501    0  0.00000000000E+00  0.00000000000E+00  0.25636900847E+02  0.25668338182E+02  0.12700000000E+01 0.  1.
         -4   -1    0    0    0  501 -0.00000000000E+00 -0.00000000000E+00 -0.15214276152E+03  0.15214806204E+03  0.12700000000E+01 0.  1.
         25    2    1    2    0    0  0.00000000000E+00  0.00000000000E+00 -0.12650586067E+03  0.17781640022E+03  0.12495975113E+03 0.  0.
    9000005    1    3    3    0    0 -0.36017114991E+02  0.36123789087E+02 -0.11934989737E+02  0.52398518016E+02  0.10000000000E+01 0.  0.
    9000005    1    3    3    0    0  0.36017114991E+02 -0.36123789087E+02 -0.11457087094E+03  0.12541788221E+03  0.10000000000E+01 0.  0.
<mgrwt>
<rscale>  0 0.12495975E+03</rscale>
<asrwt>0</asrwt>
<pdfrwt beam="1">  1        4 0.39469647E-02 0.12495975E+03</pdfrwt>
<pdfrwt beam="2">  1       -4 0.23409404E-01 0.12495975E+03</pdfrwt>
<totfact> 0.94096452E+03</totfact>
</mgrwt>
</event>
<event>
 5    1  0.3225662E-002  0.1249990E+03  0.7818608E-02  0.1235071E+00
         -4   -1    0    0    0  501 -0.00000000000E+00  0.00000000000E+00  0.10589305356E+03  0.10590066899E+03  0.12700000000E+01 0. -1.
          4   -1    0    0  501    0  0.00000000000E+00 -0.00000000000E+00 -0.36868163900E+02  0.36890031300E+02  0.12700000000E+01 0. -1.
         25    2    1    2    0    0  0.00000000000E+00  0.00000000000E+00  0.69024889663E+02  0.14279070029E+03  0.12499899478E+03 0.  0.
    9000005    1    3    3    0    0  0.51824547636E+02  0.94955577442E+01  0.72899616106E+02  0.89951672485E+02  0.10000000000E+01 0.  0.
    9000005    1    3    3    0    0 -0.51824547636E+02 -0.94955577442E+01 -0.38747264426E+01  0.52839027807E+02  0.10000000000E+01 0.  0.
<mgrwt>
<rscale>  0 0.12499899E+03</rscale>
<asrwt>0</asrwt>
<pdfrwt beam="2">  1        4 0.56742932E-02 0.12499899E+03</pdfrwt>
<pdfrwt beam="1">  1       -4 0.16293507E-01 0.12499899E+03</pdfrwt>
<totfact> 0.10076299E+04</totfact>
</mgrwt>
</event>
<event>
 5    1  0.3225662E-002  0.1250018E+03  0.7818608E-02  0.1235067E+00
         -4   -1    0    0    0  501 -0.00000000000E+00  0.00000000000E+00  0.19230364872E+03  0.19230784231E+03  0.12700000000E+01 0. -1.
          4   -1    0    0  501    0  0.00000000000E+00 -0.00000000000E+00 -0.20289227347E+02  0.20328936183E+02  0.12700000000E+01 0. -1.
         25    2    1    2    0    0  0.00000000000E+00  0.00000000000E+00  0.17201442138E+03  0.21263677849E+03  0.12500175361E+03 0.  0.
    9000005    1    3    3    0    0 -0.27297940469E+02  0.43629972187E+02  0.14630787754E+03  0.15509915234E+03  0.10000000000E+01 0.  0.
    9000005    1    3    3    0    0  0.27297940469E+02 -0.43629972187E+02  0.25706543840E+02  0.57537626151E+02  0.10000000000E+01 0.  0.
<mgrwt>
<rscale>  0 0.12500175E+03</rscale>
<asrwt>0</asrwt>
<pdfrwt beam="2">  1        4 0.31247966E-02 0.12500175E+03</pdfrwt>
<pdfrwt beam="1">  1       -4 0.29588555E-01 0.12500175E+03</pdfrwt>
<totfact> 0.88043610E+03</totfact>
</mgrwt>
</event>
<event>
 5    1  0.3225662E-002  0.1250002E+03  0.7818608E-02  0.1235069E+00
          4   -1    0    0  501    0  0.00000000000E+00  0.00000000000E+00  0.25960958723E+02  0.25992004113E+02  0.12700000000E+01 0. -1.
         -4   -1    0    0    0  501 -0.00000000000E+00 -0.00000000000E+00 -0.15034316022E+03  0.15034852418E+03  0.12700000000E+01 0. -1.
         25    2    1    2    0    0  0.00000000000E+00  0.00000000000E+00 -0.12438220149E+03  0.17634052830E+03  0.12500019948E+03 0.  0.
    9000005    1    3    3    0    0  0.12671436253E+02 -0.33470634134E+02 -0.13446102335E+03  0.13914602203E+03  0.10000000000E+01 0.  0.
    9000005    1    3    3    0    0 -0.12671436253E+02  0.33470634134E+02  0.10078821861E+02  0.37194506263E+02  0.10000000000E+01 0.  0.
<mgrwt>
<rscale>  0 0.12500020E+03</rscale>
<asrwt>0</asrwt>
<pdfrwt beam="1">  1        4 0.39967945E-02 0.12500020E+03</pdfrwt>
<pdfrwt beam="2">  1       -4 0.23132517E-01 0.12500020E+03</pdfrwt>
<totfact> 0.94279477E+03</totfact>
</mgrwt>
</event>
<event>
 5    1  0.3225662E-002  0.1249980E+03  0.7818608E-02  0.1235072E+00
          4   -1    0    0  501    0  0.00000000000E+00  0.00000000000E+00  0.19505591680E+01  0.23275697773E+01  0.12700000000E+01 0. -1.
         -4   -1    0    0    0  501 -0.00000000000E+00 -0.00000000000E+00 -0.18257130972E+04  0.18257135389E+04  0.12700000000E+01 0. -1.
         25    2    1    2    0    0  0.00000000000E+00  0.00000000000E+00 -0.18237625380E+04  0.18280411087E+04  0.12499799978E+03 0.  0.
    9000005    1    3    3    0    0 -0.53717615216E+02 -0.11826104131E+02 -0.13456385225E+04  0.13467625894E+04  0.10000000000E+01 0.  0.
    9000005    1    3    3    0    0  0.53717615216E+02  0.11826104131E+02 -0.47812401550E+03  0.48127851928E+03  0.10000000000E+01 0.  0.
<mgrwt>
<rscale>  0 0.12499800E+03</rscale>
<asrwt>0</asrwt>
<pdfrwt beam="1">  1        4 0.32912228E-03 0.12499800E+03</pdfrwt>
<pdfrwt beam="2">  1       -4 0.28090673E+00 0.12499800E+03</pdfrwt>
<totfact> 0.12277079E+03</totfact>
</mgrwt>
</event>
<event>
 5    1  0.3225662E-002  0.1250032E+03  0.7818608E-02  0.1235064E+00
          4   -1    0    0  501    0  0.00000000000E+00  0.00000000000E+00  0.30051557600E+02  0.30078381176E+02  0.12700000000E+01 0. -1.
         -4   -1    0    0    0  501 -0.00000000000E+00 -0.00000000000E+00 -0.12990367209E+03  0.12990988000E+03  0.12700000000E+01 0. -1.
         25    2    1    2    0    0  0.00000000000E+00  0.00000000000E+00 -0.99852114491E+02  0.15998826118E+03  0.12500319575E+03 0.  0.
    9000005    1    3    3    0    0  0.13102774186E+02  0.60579015218E+02 -0.60161040655E+02  0.86382003848E+02  0.10000000000E+01 0.  0.
    9000005    1    3    3    0    0 -0.13102774186E+02 -0.60579015218E+02 -0.39691073836E+02  0.73606257332E+02  0.10000000000E+01 0.  0.
<mgrwt>
<rscale>  0 0.12500320E+03</rscale>
<asrwt>0</asrwt>
<pdfrwt beam="1">  1        4 0.46258575E-02 0.12500320E+03</pdfrwt>
<pdfrwt beam="2">  1       -4 0.19987721E-01 0.12500320E+03</pdfrwt>
<totfact> 0.97338056E+03</totfact>
</mgrwt>
</event>
<event>
 5    1  0.3225662E-002  0.1249979E+03  0.7818608E-02  0.1235073E+00
          4   -1    0    0  501    0  0.00000000000E+00  0.00000000000E+00  0.13765244797E+03  0.13765830644E+03  0.12700000000E+01 0. -1.
         -4   -1    0    0    0  501 -0.00000000000E+00 -0.00000000000E+00 -0.28355988805E+02  0.28384414757E+02  0.12700000000E+01 0. -1.
         25    2    1    2    0    0  0.00000000000E+00  0.00000000000E+00  0.10929645917E+03  0.16604272120E+03  0.12499787709E+03 0.  0.
    9000005    1    3    3    0    0 -0.53338522714E+02 -0.55121336994E+01  0.12021688933E+02  0.54962738542E+02  0.10000000000E+01 0.  0.
    9000005    1    3    3    0    0  0.53338522714E+02  0.55121336994E+01  0.97274770236E+02  0.11107998266E+03  0.10000000000E+01 0.  0.
<mgrwt>
<rscale>  0 0.12499788E+03</rscale>
<asrwt>0</asrwt>
<pdfrwt beam="1">  1        4 0.21179937E-01 0.12499788E+03</pdfrwt>
<pdfrwt beam="2">  1       -4 0.43650971E-02 0.12499788E+03</pdfrwt>
<totfact> 0.96194868E+03</totfact>
</mgrwt>
</event>
<event>
 5    1  0.3225662E-002  0.1249994E+03  0.7818608E-02  0.1235070E+00
         -4   -1    0    0    0  501 -0.00000000000E+00  0.00000000000E+00  0.27109080341E+02  0.27138812371E+02  0.12700000000E+01 0.  1.
          4   -1    0    0  501    0  0.00000000000E+00 -0.00000000000E+00 -0.14398099484E+03  0.14398659582E+03  0.12700000000E+01 0.  1.
         25    2    1    2    0    0  0.00000000000E+00  0.00000000000E+00 -0.11687191450E+03  0.17112540819E+03  0.12499944372E+03 0.  0.
    9000005    1    3    3    0    0  0.26656513169E+01 -0.18237493489E+01  0.27001453074E+02  0.27212317556E+02  0.10000000000E+01 0.  0.
    9000005    1    3    3    0    0 -0.26656513169E+01  0.18237493489E+01 -0.14387336758E+03  0.14391309064E+03  0.10000000000E+01 0.  0.
<mgrwt>
<rscale>  0 0.12499944E+03</rscale>
<asrwt>0</asrwt>
<pdfrwt beam="2">  1        4 0.22153640E-01 0.12499944E+03</pdfrwt>
<pdfrwt beam="1">  1       -4 0.41733457E-02 0.12499944E+03</pdfrwt>
<totfact> 0.95240480E+03</totfact>
</mgrwt>
</event>
<event>
 5    1  0.3225662E-002  0.1249916E+03  0.7818608E-02  0.1235082E+00
         -4   -1    0    0    0  501 -0.00000000000E+00  0.00000000000E+00  0.20852596886E+02  0.20891234930E+02  0.12700000000E+01 0. -1.
          4   -1    0    0  501    0  0.00000000000E+00 -0.00000000000E+00 -0.18708736839E+03  0.18709167889E+03  0.12700000000E+01 0. -1.
         25    2    1    2    0    0  0.00000000000E+00  0.00000000000E+00 -0.16623477150E+03  0.20798291382E+03  0.12499157246E+03 0.  0.
    9000005    1    3    3    0    0 -0.56703491090E+02  0.21981384755E+02 -0.59220002577E+02  0.84890964671E+02  0.10000000000E+01 0.  0.
    9000005    1    3    3    0    0  0.56703491090E+02 -0.21981384755E+02 -0.10701476893E+03  0.12309194915E+03  0.10000000000E+01 0.  0.
<mgrwt>
<rscale>  0 0.12499157E+03</rscale>
<asrwt>0</asrwt>
<pdfrwt beam="2">  1        4 0.28785975E-01 0.12499157E+03</pdfrwt>
<pdfrwt beam="1">  1       -4 0.32113957E-02 0.12499157E+03</pdfrwt>
<totfact> 0.88823098E+03</totfact>
</mgrwt>
</event>
<event>
 5    1  0.3225662E-002  0.1249990E+03  0.7818608E-02  0.1235071E+00
          4   -1    0    0  501    0  0.00000000000E+00  0.00000000000E+00  0.70400046060E+01  0.71536399723E+01  0.12700000000E+01 0. -1.
         -4   -1    0    0    0  501 -0.00000000000E+00 -0.00000000000E+00 -0.55029923706E+03  0.55030070254E+03  0.12700000000E+01 0. -1.
         25    2    1    2    0    0  0.00000000000E+00  0.00000000000E+00 -0.54325923246E+03  0.55745434251E+03  0.12499900132E+03 0.  0.
    9000005    1    3    3    0    0 -0.34730445599E+02 -0.35563985790E+02 -0.10273897021E+03  0.11413718472E+03  0.10000000000E+01 0.  0.
    9000005    1    3    3    0    0  0.34730445599E+02  0.35563985790E+02 -0.44052026225E+03  0.44331715778E+03  0.10000000000E+01 0.  0.
<mgrwt>
<rscale>  0 0.12499900E+03</rscale>
<asrwt>0</asrwt>
<pdfrwt beam="1">  1        4 0.10919320E-02 0.12499900E+03</pdfrwt>
<pdfrwt beam="2">  1       -4 0.84670241E-01 0.12499900E+03</pdfrwt>
<totfact> 0.51669424E+03</totfact>
</mgrwt>
</event>
<event>
 5    1  0.3225662E-002  0.1250002E+03  0.7818608E-02  0.1235069E+00
         -4   -1    0    0    0  501 -0.00000000000E+00  0.00000000000E+00  0.10233922252E+03  0.10234710238E+03  0.12700000000E+01 0.  1.
          4   -1    0    0  501    0  0.00000000000E+00 -0.00000000000E+00 -0.38149816729E+02  0.38170949903E+02  0.12700000000E+01 0.  1.
         25    2    1    2    0    0  0.00000000000E+00  0.00000000000E+00  0.64189405788E+02  0.14051805228E+03  0.12500017281E+03 0.  0.
    9000005    1    3    3    0    0  0.15158317746E+02 -0.58741530413E+02  0.15235602574E+02  0.62557697991E+02  0.10000000000E+01 0.  0.
    9000005    1    3    3    0    0 -0.15158317746E+02  0.58741530413E+02  0.48953803214E+02  0.77960354291E+02  0.10000000000E+01 0.  0.
<mgrwt>
<rscale>  0 0.12500017E+03</rscale>
<asrwt>0</asrwt>
<pdfrwt beam="2">  1        4 0.58714344E-02 0.12500017E+03</pdfrwt>
<pdfrwt beam="1">  1       -4 0.15746727E-01 0.12500017E+03</pdfrwt>
<totfact> 0.10122821E+04</totfact>
</mgrwt>
</event>
<event>
 5    1  0.3225662E-002  0.1249924E+03  0.7818608E-02  0.1235081E+00
         -4   -1    0    0    0  501 -0.00000000000E+00  0.00000000000E+00  0.69583210362E+02  0.69594799118E+02  0.12700000000E+01 0. -1.
          4   -1    0    0  501    0  0.00000000000E+00 -0.00000000000E+00 -0.56107573824E+02  0.56121945266E+02  0.12700000000E+01 0. -1.
         25    2    1    2    0    0  0.00000000000E+00  0.00000000000E+00  0.13475636537E+02  0.12571674438E+03  0.12499242792E+03 0.  0.
    9000005    1    3    3    0    0 -0.37057494613E+02  0.23983074237E+02  0.51224559159E+02  0.67626926722E+02  0.10000000000E+01 0.  0.
    9000005    1    3    3    0    0  0.37057494613E+02 -0.23983074237E+02 -0.37748922622E+02  0.58089817662E+02  0.10000000000E+01 0.  0.
<mgrwt>
<rscale>  0 0.12499243E+03</rscale>
<asrwt>0</asrwt>
<pdfrwt beam="2">  1        4 0.86339314E-02 0.12499243E+03</pdfrwt>
<pdfrwt beam="1">  1       -4 0.10707106E-01 0.12499243E+03</pdfrwt>
<totfact> 0.10438959E+04</totfact>
</mgrwt>
</event>
<event>
 5    1  0.3225662E-002  0.1249997E+03  0.7818608E-02  0.1235070E+00
         -4   -1    0    0    0  501 -0.00000000000E+00  0.00000000000E+00  0.64243940563E+02  0.64256492271E+02  0.12700000000E+01 0. -1.
          4   -1    0    0  501    0  0.00000000000E+00 -0.00000000000E+00 -0.60777951785E+02  0.60791219129E+02  0.12700000000E+01 0. -1.
         25    2    1    2    0    0  0.00000000000E+00  0.00000000000E+00  0.34659887774E+01  0.12504771140E+03  0.12499966819E+03 0.  0.
    9000005    1    3    3    0    0 -0.26725261779E+02 -0.50551420460E+02 -0.23486683770E+02  0.61824833539E+02  0.10000000000E+01 0.  0.
    9000005    1    3    3    0    0  0.26725261779E+02  0.50551420460E+02  0.26952672547E+02  0.63222877861E+02  0.10000000000E+01 0.  0.
<mgrwt>
<rscale>  0 0.12499967E+03</rscale>
<asrwt>0</asrwt>
<pdfrwt beam="2">  1        4 0.93524401E-02 0.12499967E+03</pdfrwt>
<pdfrwt beam="1">  1       -4 0.98856693E-02 0.12499967E+03</pdfrwt>
<totfact> 0.10451905E+04</totfact>
</mgrwt>
</event>
<event>
 5    1  0.3225662E-002  0.1250031E+03  0.7818608E-02  0.1235064E+00
          4   -1    0    0  501    0  0.00000000000E+00  0.00000000000E+00  0.71667067923E+02  0.71678319768E+02  0.12700000000E+01 0.  1.
         -4   -1    0    0    0  501 -0.00000000000E+00 -0.00000000000E+00 -0.54485254102E+02  0.54500053344E+02  0.12700000000E+01 0.  1.
         25    2    1    2    0    0  0.00000000000E+00  0.00000000000E+00  0.17181813821E+02  0.12617837311E+03  0.12500306842E+03 0.  0.
    9000005    1    3    3    0    0  0.19443249077E+02 -0.59280009140E+02  0.49121433167E+01  0.62588246263E+02  0.10000000000E+01 0.  0.
    9000005    1    3    3    0    0 -0.19443249077E+02  0.59280009140E+02  0.12269670505E+02  0.63590126849E+02  0.10000000000E+01 0.  0.
<mgrwt>
<rscale>  0 0.12500307E+03</rscale>
<asrwt>0</asrwt>
<pdfrwt beam="1">  1        4 0.11027707E-01 0.12500307E+03</pdfrwt>
<pdfrwt beam="2">  1       -4 0.83843508E-02 0.12500307E+03</pdfrwt>
<totfact> 0.10426330E+04</totfact>
</mgrwt>
</event>
<event>
 5    1  0.3225662E-002  0.1250047E+03  0.7818608E-02  0.1235062E+00
         -4   -1    0    0    0  501 -0.00000000000E+00  0.00000000000E+00  0.31491556793E+03  0.31491812876E+03  0.12700000000E+01 0.  1.
          4   -1    0    0  501    0  0.00000000000E+00 -0.00000000000E+00 -0.12369922332E+02  0.12434945859E+02  0.12700000000E+01 0.  1.
         25    2    1    2    0    0  0.00000000000E+00  0.00000000000E+00  0.30254564559E+03  0.32735307462E+03  0.12500467109E+03 0.  0.
    9000005    1    3    3    0    0 -0.45165110867E+01  0.38100671778E+02  0.28045548836E+03  0.28306949855E+03  0.10000000000E+01 0.  0.
    9000005    1    3    3    0    0  0.45165110867E+01 -0.38100671778E+02  0.22090157236E+02  0.44283576065E+02  0.10000000000E+01 0.  0.
<mgrwt>
<rscale>  0 0.12500467E+03</rscale>
<asrwt>0</asrwt>
<pdfrwt beam="2">  1        4 0.19082640E-02 0.12500467E+03</pdfrwt>
<pdfrwt beam="1">  1       -4 0.48453743E-01 0.12500467E+03</pdfrwt>
<totfact> 0.72282546E+03</totfact>
</mgrwt>
</event>
<event>
 5    1  0.3225662E-002  0.1249993E+03  0.7818608E-02  0.1235070E+00
          4   -1    0    0  501    0  0.00000000000E+00  0.00000000000E+00  0.39118734135E+02  0.39139344147E+02  0.12700000000E+01 0. -1.
         -4   -1    0    0    0  501 -0.00000000000E+00 -0.00000000000E+00 -0.99804134240E+02  0.99812214239E+02  0.12700000000E+01 0. -1.
         25    2    1    2    0    0  0.00000000000E+00  0.00000000000E+00 -0.60685400105E+02  0.13895155839E+03  0.12499927117E+03 0.  0.
    9000005    1    3    3    0    0 -0.21738634072E+01  0.56517710794E+02 -0.80149953788E+00  0.56574019806E+02  0.10000000000E+01 0.  0.
    9000005    1    3    3    0    0  0.21738634072E+01 -0.56517710794E+02 -0.59883900567E+02  0.82377538581E+02  0.10000000000E+01 0.  0.
<mgrwt>
<rscale>  0 0.12499927E+03</rscale>
<asrwt>0</asrwt>
<pdfrwt beam="1">  1        4 0.60204737E-02 0.12499927E+03</pdfrwt>
<pdfrwt beam="2">  1       -4 0.15356689E-01 0.12499927E+03</pdfrwt>
<totfact> 0.10155528E+04</totfact>
</mgrwt>
</event>
<event>
 5    1  0.3225662E-002  0.1249934E+03  0.7818608E-02  0.1235080E+00
          4   -1    0    0  501    0  0.00000000000E+00  0.00000000000E+00  0.33959747649E+02  0.33983486583E+02  0.12700000000E+01 0. -1.
         -4   -1    0    0    0  501 -0.00000000000E+00 -0.00000000000E+00 -0.11494634787E+03  0.11495336354E+03  0.12700000000E+01 0. -1.
         25    2    1    2    0    0  0.00000000000E+00  0.00000000000E+00 -0.80986600222E+02  0.14893685012E+03  0.12499342346E+03 0.  0.
    9000005    1    3    3    0    0  0.17541322469E+02 -0.47692579014E+02  0.28400744804E+01  0.50905266035E+02  0.10000000000E+01 0.  0.
    9000005    1    3    3    0    0 -0.17541322469E+02  0.47692579014E+02 -0.83826674702E+02  0.98031584087E+02  0.10000000000E+01 0.  0.
<mgrwt>
<rscale>  0 0.12499342E+03</rscale>
<asrwt>0</asrwt>
<pdfrwt beam="1">  1        4 0.52269424E-02 0.12499342E+03</pdfrwt>
<pdfrwt beam="2">  1       -4 0.17686419E-01 0.12499342E+03</pdfrwt>
<totfact> 0.99530777E+03</totfact>
</mgrwt>
</event>
<event>
 5    1  0.3225662E-002  0.1250030E+03  0.7818608E-02  0.1235065E+00
         -4   -1    0    0    0  501 -0.00000000000E+00  0.00000000000E+00  0.10696859304E+02  0.10771986770E+02  0.12700000000E+01 0. -1.
          4   -1    0    0  501    0  0.00000000000E+00 -0.00000000000E+00 -0.36384076968E+03  0.36384298617E+03  0.12700000000E+01 0. -1.
         25    2    1    2    0    0  0.00000000000E+00  0.00000000000E+00 -0.35314391038E+03  0.37461497294E+03  0.12500302601E+03 0.  0.
    9000005    1    3    3    0    0  0.15661812627E+02  0.15518230755E+02 -0.35181274187E+03  0.35250434495E+03  0.10000000000E+01 0.  0.
    9000005    1    3    3    0    0 -0.15661812627E+02 -0.15518230755E+02 -0.13311685022E+01  0.22110627990E+02  0.10000000000E+01 0.  0.
<mgrwt>
<rscale>  0 0.12500303E+03</rscale>
<asrwt>0</asrwt>
<pdfrwt beam="2">  1        4 0.55981443E-01 0.12500303E+03</pdfrwt>
<pdfrwt beam="1">  1       -4 0.16516205E-02 0.12500303E+03</pdfrwt>
<totfact> 0.67094389E+03</totfact>
</mgrwt>
</event>
<event>
 5    1  0.3225662E-002  0.1250009E+03  0.7818608E-02  0.1235068E+00
          4   -1    0    0  501    0  0.00000000000E+00  0.00000000000E+00  0.57582705578E+02  0.57596708948E+02  0.12700000000E+01 0.  1.
         -4   -1    0    0    0  501 -0.00000000000E+00 -0.00000000000E+00 -0.67809945744E+02  0.67821837500E+02  0.12700000000E+01 0.  1.
         25    2    1    2    0    0  0.00000000000E+00  0.00000000000E+00 -0.10227240166E+02  0.12541854645E+03  0.12500086140E+03 0.  0.
    9000005    1    3    3    0    0 -0.42392795630E+02 -0.44390169259E+02  0.66587691195E+01  0.61749295174E+02  0.10000000000E+01 0.  0.
    9000005    1    3    3    0    0  0.42392795630E+02  0.44390169259E+02 -0.16886009285E+02  0.63669251274E+02  0.10000000000E+01 0.  0.
<mgrwt>
<rscale>  0 0.12500086E+03</rscale>
<asrwt>0</asrwt>
<pdfrwt beam="1">  1        4 0.88608696E-02 0.12500086E+03</pdfrwt>
<pdfrwt beam="2">  1       -4 0.10434291E-01 0.12500086E+03</pdfrwt>
<totfact> 0.10443553E+04</totfact>
</mgrwt>
</event>
<event>
 5    1  0.3225662E-002  0.1249990E+03  0.7818608E-02  0.1235071E+00
          4   -1    0    0  501    0  0.00000000000E+00  0.00000000000E+00  0.46731723364E+01  0.48426686533E+01  0.12700000000E+01 0. -1.
         -4   -1    0    0    0  501 -0.00000000000E+00 -0.00000000000E+00 -0.82081666420E+03  0.82081764670E+03  0.12700000000E+01 0. -1.
         25    2    1    2    0    0  0.00000000000E+00  0.00000000000E+00 -0.81614349186E+03  0.82566031535E+03  0.12499902813E+03 0.  0.
    9000005    1    3    3    0    0 -0.33008017947E+02 -0.36316275533E+02 -0.15252230128E+03  0.16022625722E+03  0.10000000000E+01 0.  0.
    9000005    1    3    3    0    0  0.33008017947E+02  0.36316275533E+02 -0.66362119059E+03  0.66543405813E+03  0.10000000000E+01 0.  0.
<mgrwt>
<rscale>  0 0.12499903E+03</rscale>
<asrwt>0</asrwt>
<pdfrwt beam="1">  1        4 0.73206400E-03 0.12499903E+03</pdfrwt>
<pdfrwt beam="2">  1       -4 0.12629249E+00 0.12499903E+03</pdfrwt>
<totfact> 0.37145347E+03</totfact>
</mgrwt>
</event>
<event>
 5    1  0.3225662E-002  0.1249984E+03  0.7818608E-02  0.1235072E+00
         -4   -1    0    0    0  501 -0.00000000000E+00  0.00000000000E+00  0.15578622883E+04  0.15578628059E+04  0.12700000000E+01 0. -1.
          4   -1    0    0  501    0  0.00000000000E+00 -0.00000000000E+00 -0.23460121297E+01  0.26677093007E+01  0.12700000000E+01 0. -1.
         25    2    1    2    0    0  0.00000000000E+00  0.00000000000E+00  0.15555162761E+04  0.15605305152E+04  0.12499841456E+03 0.  0.
    9000005    1    3    3    0    0 -0.38791499891E+02 -0.12652696453E+02  0.18685147852E+03  0.19125727756E+03  0.10000000000E+01 0.  0.
    9000005    1    3    3    0    0  0.38791499891E+02  0.12652696453E+02  0.13686647976E+04  0.13692732377E+04  0.10000000000E+01 0.  0.
<mgrwt>
<rscale>  0 0.12499841E+03</rscale>
<asrwt>0</asrwt>
<pdfrwt beam="2">  1        4 0.38571092E-03 0.12499841E+03</pdfrwt>
<pdfrwt beam="1">  1       -4 0.23969577E+00 0.12499841E+03</pdfrwt>
<totfact> 0.16771381E+03</totfact>
</mgrwt>
</event>
<event>
 5    1  0.3225662E-002  0.1249994E+03  0.7818608E-02  0.1235070E+00
         -4   -1    0    0    0  501 -0.00000000000E+00  0.00000000000E+00  0.30897329391E+02  0.30923419337E+02  0.12700000000E+01 0. -1.
          4   -1    0    0  501    0  0.00000000000E+00 -0.00000000000E+00 -0.12634283256E+03  0.12634921543E+03  0.12700000000E+01 0. -1.
         25    2    1    2    0    0  0.00000000000E+00  0.00000000000E+00 -0.95445503171E+02  0.15727263477E+03  0.12499935028E+03 0.  0.
    9000005    1    3    3    0    0  0.73313546619E+01  0.13217531821E+02  0.28569055060E+02  0.32336400784E+02  0.10000000000E+01 0.  0.
    9000005    1    3    3    0    0 -0.73313546619E+01 -0.13217531821E+02 -0.12401455823E+03  0.12493623398E+03  0.10000000000E+01 0.  0.
<mgrwt>
<rscale>  0 0.12499935E+03</rscale>
<asrwt>0</asrwt>
<pdfrwt beam="2">  1        4 0.19439857E-01 0.12499935E+03</pdfrwt>
<pdfrwt beam="1">  1       -4 0.47559332E-02 0.12499935E+03</pdfrwt>
<totfact> 0.97872621E+03</totfact>
</mgrwt>
</event>
<event>
 5    1  0.3225662E-002  0.1250009E+03  0.7818608E-02  0.1235068E+00
         -4   -1    0    0    0  501 -0.00000000000E+00  0.00000000000E+00  0.28616075533E+03  0.28616357349E+03  0.12700000000E+01 0.  1.
          4   -1    0    0  501    0  0.00000000000E+00 -0.00000000000E+00 -0.13618314733E+02  0.13677404585E+02  0.12700000000E+01 0.  1.
         25    2    1    2    0    0  0.00000000000E+00  0.00000000000E+00  0.27254244060E+03  0.29984097808E+03  0.12500092082E+03 0.  0.
    9000005    1    3    3    0    0 -0.20509875108E+02  0.54069347349E+02  0.79448705511E+02  0.98271288315E+02  0.10000000000E+01 0.  0.
    9000005    1    3    3    0    0  0.20509875108E+02 -0.54069347349E+02  0.19309373509E+03  0.20156968976E+03  0.10000000000E+01 0.  0.
<mgrwt>
<rscale>  0 0.12500092E+03</rscale>
<asrwt>0</asrwt>
<pdfrwt beam="2">  1        4 0.20998876E-02 0.12500092E+03</pdfrwt>
<pdfrwt beam="1">  1       -4 0.44029491E-01 0.12500092E+03</pdfrwt>
<totfact> 0.75617245E+03</totfact>
</mgrwt>
</event>
<event>
 5    1  0.3225662E-002  0.1250104E+03  0.7818608E-02  0.1235053E+00
         -4   -1    0    0    0  501 -0.00000000000E+00  0.00000000000E+00  0.17664243179E+03  0.17664699717E+03  0.12700000000E+01 0. -1.
          4   -1    0    0  501    0  0.00000000000E+00 -0.00000000000E+00 -0.22094475980E+02  0.22130945954E+02  0.12700000000E+01 0. -1.
         25    2    1    2    0    0  0.00000000000E+00  0.00000000000E+00  0.15454795581E+03  0.19877794312E+03  0.12501039968E+03 0.  0.
    9000005    1    3    3    0    0  0.37486994474E+02  0.35958865282E+02  0.22017786129E+02  0.56427809217E+02  0.10000000000E+01 0.  0.
    9000005    1    3    3    0    0 -0.37486994474E+02 -0.35958865282E+02  0.13253016968E+03  0.14235013391E+03  0.10000000000E+01 0.  0.
<mgrwt>
<rscale>  0 0.12501040E+03</rscale>
<asrwt>0</asrwt>
<pdfrwt beam="2">  1        4 0.34023068E-02 0.12501040E+03</pdfrwt>
<pdfrwt beam="1">  1       -4 0.27178915E-01 0.12501040E+03</pdfrwt>
<totfact> 0.90320991E+03</totfact>
</mgrwt>
</event>
<event>
 5    1  0.3225662E-002  0.1249993E+03  0.7818608E-02  0.1235070E+00
         -4   -1    0    0    0  501 -0.00000000000E+00  0.00000000000E+00  0.17680150869E+03  0.17680606996E+03  0.12700000000E+01 0.  1.
          4   -1    0    0  501    0  0.00000000000E+00 -0.00000000000E+00 -0.22070640720E+02  0.22107150016E+02  0.12700000000E+01 0.  1.
         25    2    1    2    0    0  0.00000000000E+00  0.00000000000E+00  0.15473086797E+03  0.19891321997E+03  0.12499931031E+03 0.  0.
    9000005    1    3    3    0    0 -0.14688473517E+02  0.59784535878E+02  0.60280842879E+02  0.86166826579E+02  0.10000000000E+01 0.  0.
    9000005    1    3    3    0    0  0.14688473517E+02 -0.59784535878E+02  0.94450025086E+02  0.11274639339E+03  0.10000000000E+01 0.  0.
<mgrwt>
<rscale>  0 0.12499931E+03</rscale>
<asrwt>0</asrwt>
<pdfrwt beam="2">  1        4 0.33986425E-02 0.12499931E+03</pdfrwt>
<pdfrwt beam="1">  1       -4 0.27203391E-01 0.12499931E+03</pdfrwt>
<totfact> 0.90320519E+03</totfact>
</mgrwt>
</event>
<event>
 5    1  0.3225662E-002  0.1250060E+03  0.7818608E-02  0.1235060E+00
          4   -1    0    0  501    0  0.00000000000E+00  0.00000000000E+00  0.22236800129E+03  0.22237162790E+03  0.12700000000E+01 0.  1.
         -4   -1    0    0    0  501 -0.00000000000E+00 -0.00000000000E+00 -0.17541570446E+02  0.17587484008E+02  0.12700000000E+01 0.  1.
         25    2    1    2    0    0  0.00000000000E+00  0.00000000000E+00  0.20482643084E+03  0.23995911191E+03  0.12500603433E+03 0.  0.
    9000005    1    3    3    0    0 -0.49757861406E+02  0.76518494371E+01  0.17349554817E+03  0.18065464513E+03  0.10000000000E+01 0.  0.
    9000005    1    3    3    0    0  0.49757861406E+02 -0.76518494371E+01  0.31330882672E+02  0.59304466784E+02  0.10000000000E+01 0.  0.
<mgrwt>
<rscale>  0 0.12500603E+03</rscale>
<asrwt>0</asrwt>
<pdfrwt beam="1">  1        4 0.34214270E-01 0.12500603E+03</pdfrwt>
<pdfrwt beam="2">  1       -4 0.27025142E-02 0.12500603E+03</pdfrwt>
<totfact> 0.83792186E+03</totfact>
</mgrwt>
</event>
<event>
 5    1  0.3225662E-002  0.1250006E+03  0.7818608E-02  0.1235068E+00
         -4   -1    0    0    0  501 -0.00000000000E+00  0.00000000000E+00  0.65294313248E+01  0.66517947522E+01  0.12700000000E+01 0.  1.
          4   -1    0    0  501    0  0.00000000000E+00 -0.00000000000E+00 -0.59258123532E+03  0.59258259623E+03  0.12700000000E+01 0.  1.
         25    2    1    2    0    0  0.00000000000E+00  0.00000000000E+00 -0.58605180399E+03  0.59923439098E+03  0.12500055347E+03 0.  0.
    9000005    1    3    3    0    0  0.23717193091E+02  0.50748810720E+02 -0.16023203402E+03  0.16974466638E+03  0.10000000000E+01 0.  0.
    9000005    1    3    3    0    0 -0.23717193091E+02 -0.50748810720E+02 -0.42581976998E+03  0.42948972460E+03  0.10000000000E+01 0.  0.
<mgrwt>
<rscale>  0 0.12500055E+03</rscale>
<asrwt>0</asrwt>
<pdfrwt beam="2">  1        4 0.91175819E-01 0.12500055E+03</pdfrwt>
<pdfrwt beam="1">  1       -4 0.10140456E-02 0.12500055E+03</pdfrwt>
<totfact> 0.48915396E+03</totfact>
</mgrwt>
</event>
<event>
 5    1  0.3225662E-002  0.1249991E+03  0.7818608E-02  0.1235071E+00
          4   -1    0    0  501    0  0.00000000000E+00  0.00000000000E+00  0.20189630513E+03  0.20190029947E+03  0.12700000000E+01 0. -1.
         -4   -1    0    0    0  501 -0.00000000000E+00 -0.00000000000E+00 -0.19322479051E+02  0.19364170436E+02  0.12700000000E+01 0. -1.
         25    2    1    2    0    0  0.00000000000E+00  0.00000000000E+00  0.18257382608E+03  0.22126446991E+03  0.12499905469E+03 0.  0.
    9000005    1    3    3    0    0 -0.37108381813E+02 -0.43636390810E+02  0.13550558641E+03  0.14711876343E+03  0.10000000000E+01 0.  0.
    9000005    1    3    3    0    0  0.37108381813E+02  0.43636390810E+02  0.47068239669E+02  0.74145706479E+02  0.10000000000E+01 0.  0.
<mgrwt>
<rscale>  0 0.12499905E+03</rscale>
<asrwt>0</asrwt>
<pdfrwt beam="1">  1        4 0.31064485E-01 0.12499905E+03</pdfrwt>
<pdfrwt beam="2">  1       -4 0.29762033E-02 0.12499905E+03</pdfrwt>
<totfact> 0.86670487E+03</totfact>
</mgrwt>
</event>
<event>
 5    1  0.3225662E-002  0.1249994E+03  0.7818608E-02  0.1235070E+00
         -4   -1    0    0    0  501 -0.00000000000E+00  0.00000000000E+00  0.42225282069E+02  0.42244376500E+02  0.12700000000E+01 0.  1.
          4   -1    0    0  501    0  0.00000000000E+00 -0.00000000000E+00 -0.92464549667E+02  0.92473270977E+02  0.12700000000E+01 0.  1.
         25    2    1    2    0    0  0.00000000000E+00  0.00000000000E+00 -0.50239267598E+02  0.13471764748E+03  0.12499944213E+03 0.  0.
    9000005    1    3    3    0    0  0.34663998052E+02  0.46659948485E+02 -0.49848481590E+02  0.76580772197E+02  0.10000000000E+01 0.  0.
    9000005    1    3    3    0    0 -0.34663998052E+02 -0.46659948485E+02 -0.39078600744E+00  0.58136875279E+02  0.10000000000E+01 0.  0.
<mgrwt>
<rscale>  0 0.12499944E+03</rscale>
<asrwt>0</asrwt>
<pdfrwt beam="2">  1        4 0.14227455E-01 0.12499944E+03</pdfrwt>
<pdfrwt beam="1">  1       -4 0.64983369E-02 0.12499944E+03</pdfrwt>
<totfact> 0.10244154E+04</totfact>
</mgrwt>
</event>
<event>
 5    1  0.3225662E-002  0.1250004E+03  0.7818608E-02  0.1235069E+00
          4   -1    0    0  501    0  0.00000000000E+00  0.00000000000E+00  0.33266872288E+03  0.33267114705E+03  0.12700000000E+01 0. -1.
         -4   -1    0    0    0  501 -0.00000000000E+00 -0.00000000000E+00 -0.11705419742E+02  0.11774113611E+02  0.12700000000E+01 0. -1.
         25    2    1    2    0    0  0.00000000000E+00  0.00000000000E+00  0.32096330314E+03  0.34444526066E+03  0.12500038253E+03 0.  0.
    9000005    1    3    3    0    0  0.52741083453E+01 -0.59100220112E+02  0.21452294655E+03  0.22257975386E+03  0.10000000000E+01 0.  0.
    9000005    1    3    3    0    0 -0.52741083453E+01  0.59100220112E+02  0.10644035659E+03  0.12186550680E+03  0.10000000000E+01 0.  0.
<mgrwt>
<rscale>  0 0.12500038E+03</rscale>
<asrwt>0</asrwt>
<pdfrwt beam="1">  1        4 0.51185275E-01 0.12500038E+03</pdfrwt>
<pdfrwt beam="2">  1       -4 0.18063044E-02 0.12500038E+03</pdfrwt>
<totfact> 0.70339401E+03</totfact>
</mgrwt>
</event>
<event>
 5    1  0.3225662E-002  0.1250092E+03  0.7818608E-02  0.1235055E+00
          4   -1    0    0  501    0  0.00000000000E+00  0.00000000000E+00  0.14518283513E+03  0.14518838975E+03  0.12700000000E+01 0. -1.
         -4   -1    0    0    0  501 -0.00000000000E+00 -0.00000000000E+00 -0.26888648497E+02  0.26918623999E+02  0.12700000000E+01 0. -1.
         25    2    1    2    0    0  0.00000000000E+00  0.00000000000E+00  0.11829418663E+03  0.17210701375E+03  0.12500923801E+03 0.  0.
    9000005    1    3    3    0    0 -0.15729148090E+02 -0.27803258081E+02  0.13310072147E+03  0.13688399949E+03  0.10000000000E+01 0.  0.
    9000005    1    3    3    0    0  0.15729148090E+02  0.27803258081E+02 -0.14806534836E+02  0.35223014258E+02  0.10000000000E+01 0.  0.
<mgrwt>
<rscale>  0 0.12500924E+03</rscale>
<asrwt>0</asrwt>
<pdfrwt beam="1">  1        4 0.22338554E-01 0.12500924E+03</pdfrwt>
<pdfrwt beam="2">  1       -4 0.41394482E-02 0.12500924E+03</pdfrwt>
<totfact> 0.95037667E+03</totfact>
</mgrwt>
</event>
<event>
 5    1  0.3225662E-002  0.1250040E+03  0.7818608E-02  0.1235063E+00
         -4   -1    0    0    0  501 -0.00000000000E+00  0.00000000000E+00  0.39862984377E+03  0.39863186682E+03  0.12700000000E+01 0.  1.
          4   -1    0    0  501    0  0.00000000000E+00 -0.00000000000E+00 -0.97566222504E+01  0.98389317376E+01  0.12700000000E+01 0.  1.
         25    2    1    2    0    0  0.00000000000E+00  0.00000000000E+00  0.38887322152E+03  0.40847079855E+03  0.12500404337E+03 0.  0.
    9000005    1    3    3    0    0  0.54500441797E+02 -0.81425519265E+01  0.98115229116E+02  0.11253531665E+03  0.10000000000E+01 0.  0.
    9000005    1    3    3    0    0 -0.54500441797E+02  0.81425519265E+01  0.29075799240E+03  0.29593548191E+03  0.10000000000E+01 0.  0.
<mgrwt>
<rscale>  0 0.12500404E+03</rscale>
<asrwt>0</asrwt>
<pdfrwt beam="2">  1        4 0.15075059E-02 0.12500404E+03</pdfrwt>
<pdfrwt beam="1">  1       -4 0.61334154E-01 0.12500404E+03</pdfrwt>
<totfact> 0.63731496E+03</totfact>
</mgrwt>
</event>
<event>
 5    1  0.3225662E-002  0.1249989E+03  0.7818608E-02  0.1235071E+00
         -4   -1    0    0    0  501 -0.00000000000E+00  0.00000000000E+00  0.19713387318E+02  0.19754253708E+02  0.12700000000E+01 0.  1.
          4   -1    0    0  501    0  0.00000000000E+00 -0.00000000000E+00 -0.19790056899E+03  0.19790464398E+03  0.12700000000E+01 0.  1.
         25    2    1    2    0    0  0.00000000000E+00  0.00000000000E+00 -0.17818718168E+03  0.21765889769E+03  0.12499889611E+03 0.  0.
    9000005    1    3    3    0    0  0.32850253140E+02 -0.90098144580E+01 -0.18032213658E+03  0.18351400172E+03  0.10000000000E+01 0.  0.
    9000005    1    3    3    0    0 -0.32850253140E+02  0.90098144580E+01  0.21349549023E+01  0.34144895964E+02  0.10000000000E+01 0.  0.
<mgrwt>
<rscale>  0 0.12499890E+03</rscale>
<asrwt>0</asrwt>
<pdfrwt beam="2">  1        4 0.30449697E-01 0.12499890E+03</pdfrwt>
<pdfrwt beam="1">  1       -4 0.30362860E-02 0.12499890E+03</pdfrwt>
<totfact> 0.87242311E+03</totfact>
</mgrwt>
</event>
<event>
 5    1  0.3225662E-002  0.1250014E+03  0.7818608E-02  0.1235067E+00
          4   -1    0    0  501    0  0.00000000000E+00  0.00000000000E+00  0.16481412257E+03  0.16481901559E+03  0.12700000000E+01 0.  1.
         -4   -1    0    0    0  501 -0.00000000000E+00 -0.00000000000E+00 -0.23679193061E+02  0.23713225930E+02  0.12700000000E+01 0.  1.
         25    2    1    2    0    0  0.00000000000E+00  0.00000000000E+00  0.14113492951E+03  0.18853224152E+03  0.12500135105E+03 0.  0.
    9000005    1    3    3    0    0 -0.38066665345E+02  0.15186366293E+02  0.14172127472E+03  0.14753174722E+03  0.10000000000E+01 0.  0.
    9000005    1    3    3    0    0  0.38066665345E+02 -0.15186366293E+02 -0.58634520431E+00  0.41000494294E+02  0.10000000000E+01 0.  0.
<mgrwt>
<rscale>  0 0.12500135E+03</rscale>
<asrwt>0</asrwt>
<pdfrwt beam="1">  1        4 0.25359013E-01 0.12500135E+03</pdfrwt>
<pdfrwt beam="2">  1       -4 0.36459471E-02 0.12500135E+03</pdfrwt>
<totfact> 0.92100541E+03</totfact>
</mgrwt>
</event>
<event>
 5    1  0.3225662E-002  0.1249989E+03  0.7818608E-02  0.1235071E+00
          4   -1    0    0  501    0  0.00000000000E+00  0.00000000000E+00  0.18164101975E+03  0.18164545949E+03  0.12700000000E+01 0. -1.
         -4   -1    0    0    0  501 -0.00000000000E+00 -0.00000000000E+00 -0.21481482703E+02  0.21518991592E+02  0.12700000000E+01 0. -1.
         25    2    1    2    0    0  0.00000000000E+00  0.00000000000E+00  0.16015953704E+03  0.20316445108E+03  0.12499886751E+03 0.  0.
    9000005    1    3    3    0    0  0.14915039873E+02  0.20014500918E+02 -0.13035356076E+02  0.28177281087E+02  0.10000000000E+01 0.  0.
    9000005    1    3    3    0    0 -0.14915039873E+02 -0.20014500918E+02  0.17319489312E+03  0.17498717000E+03  0.10000000000E+01 0.  0.
<mgrwt>
<rscale>  0 0.12499887E+03</rscale>
<asrwt>0</asrwt>
<pdfrwt beam="1">  1        4 0.27947998E-01 0.12499887E+03</pdfrwt>
<pdfrwt beam="2">  1       -4 0.33080704E-02 0.12499887E+03</pdfrwt>
<totfact> 0.89606797E+03</totfact>
</mgrwt>
</event>
<event>
 5    1  0.3225662E-002  0.1249936E+03  0.7818608E-02  0.1235079E+00
          4   -1    0    0  501    0  0.00000000000E+00  0.00000000000E+00  0.46413708831E+02  0.46431080834E+02  0.12700000000E+01 0.  1.
         -4   -1    0    0    0  501 -0.00000000000E+00 -0.00000000000E+00 -0.84115040195E+02  0.84124627113E+02  0.12700000000E+01 0.  1.
         25    2    1    2    0    0  0.00000000000E+00  0.00000000000E+00 -0.37701331364E+02  0.13055570795E+03  0.12499360980E+03 0.  0.
    9000005    1    3    3    0    0 -0.44001113861E+02 -0.35708792986E+02 -0.46359580639E+02  0.73221763394E+02  0.10000000000E+01 0.  0.
    9000005    1    3    3    0    0  0.44001113861E+02  0.35708792986E+02  0.86582492751E+01  0.57333944554E+02  0.10000000000E+01 0.  0.
<mgrwt>
<rscale>  0 0.12499361E+03</rscale>
<asrwt>0</asrwt>
<pdfrwt beam="1">  1        4 0.71426444E-02 0.12499361E+03</pdfrwt>
<pdfrwt beam="2">  1       -4 0.12942849E-01 0.12499361E+03</pdfrwt>
<totfact> 0.10334113E+04</totfact>
</mgrwt>
</event>
<event>
 5    1  0.3225662E-002  0.1250020E+03  0.7818608E-02  0.1235066E+00
          4   -1    0    0  501    0  0.00000000000E+00  0.00000000000E+00  0.10418961551E+02  0.10496078306E+02  0.12700000000E+01 0.  1.
         -4   -1    0    0    0  501 -0.00000000000E+00 -0.00000000000E+00 -0.37346871394E+03  0.37347087329E+03  0.12700000000E+01 0.  1.
         25    2    1    2    0    0  0.00000000000E+00  0.00000000000E+00 -0.36304975239E+03  0.38396695159E+03  0.12500198880E+03 0.  0.
    9000005    1    3    3    0    0  0.42193788746E+02 -0.29766593231E+02 -0.28964687156E+03  0.29421535664E+03  0.10000000000E+01 0.  0.
    9000005    1    3    3    0    0 -0.42193788746E+02  0.29766593231E+02 -0.73402880832E+02  0.89751594948E+02  0.10000000000E+01 0.  0.
<mgrwt>
<rscale>  0 0.12500199E+03</rscale>
<asrwt>0</asrwt>
<pdfrwt beam="1">  1        4 0.16090156E-02 0.12500199E+03</pdfrwt>
<pdfrwt beam="2">  1       -4 0.57462813E-01 0.12500199E+03</pdfrwt>
<totfact> 0.66139697E+03</totfact>
</mgrwt>
</event>
<event>
 5    1  0.3225662E-002  0.1250057E+03  0.7818608E-02  0.1235060E+00
         -4   -1    0    0    0  501 -0.00000000000E+00  0.00000000000E+00  0.39524005272E+02  0.39544404064E+02  0.12700000000E+01 0.  1.
          4   -1    0    0  501    0  0.00000000000E+00 -0.00000000000E+00 -0.98791421587E+02  0.98799584408E+02  0.12700000000E+01 0.  1.
         25    2    1    2    0    0  0.00000000000E+00  0.00000000000E+00 -0.59267416315E+02  0.13834398847E+03  0.12500572991E+03 0.  0.
    9000005    1    3    3    0    0  0.38229798661E+02 -0.48634596354E+02 -0.39455745595E+02  0.73379815539E+02  0.10000000000E+01 0.  0.
    9000005    1    3    3    0    0 -0.38229798661E+02  0.48634596354E+02 -0.19811670720E+02  0.64964172933E+02  0.10000000000E+01 0.  0.
<mgrwt>
<rscale>  0 0.12500573E+03</rscale>
<asrwt>0</asrwt>
<pdfrwt beam="2">  1        4 0.15200877E-01 0.12500573E+03</pdfrwt>
<pdfrwt beam="1">  1       -4 0.60828133E-02 0.12500573E+03</pdfrwt>
<totfact> 0.10166711E+04</totfact>
</mgrwt>
</event>
<event>
 5    1  0.3225662E-002  0.1249903E+03  0.7818608E-02  0.1235084E+00
         -4   -1    0    0    0  501 -0.00000000000E+00  0.00000000000E+00  0.28883161966E+02  0.28911069595E+02  0.12700000000E+01 0. -1.
          4   -1    0    0  501    0  0.00000000000E+00 -0.00000000000E+00 -0.13512594485E+03  0.13513191286E+03  0.12700000000E+01 0. -1.
         25    2    1    2    0    0  0.00000000000E+00  0.00000000000E+00 -0.10624278289E+03  0.16404298245E+03  0.12499028433E+03 0.  0.
    9000005    1    3    3    0    0 -0.51849980352E+02 -0.27556524662E+02 -0.81173990296E+02  0.10018981592E+03  0.10000000000E+01 0.  0.
    9000005    1    3    3    0    0  0.51849980352E+02  0.27556524662E+02 -0.25068792591E+02  0.63853166530E+02  0.10000000000E+01 0.  0.
<mgrwt>
<rscale>  0 0.12499028E+03</rscale>
<asrwt>0</asrwt>
<pdfrwt beam="2">  1        4 0.20791212E-01 0.12499028E+03</pdfrwt>
<pdfrwt beam="1">  1       -4 0.44461693E-02 0.12499028E+03</pdfrwt>
<totfact> 0.96590026E+03</totfact>
</mgrwt>
</event>
<event>
 5    1  0.3225662E-002  0.1250012E+03  0.7818608E-02  0.1235067E+00
         -4   -1    0    0    0  501 -0.00000000000E+00  0.00000000000E+00  0.11325260567E+02  0.11396246176E+02  0.12700000000E+01 0.  1.
          4   -1    0    0  501    0  0.00000000000E+00 -0.00000000000E+00 -0.34377182444E+03  0.34377417032E+03  0.12700000000E+01 0.  1.
         25    2    1    2    0    0  0.00000000000E+00  0.00000000000E+00 -0.33244656387E+03  0.35517041649E+03  0.12500122768E+03 0.  0.
    9000005    1    3    3    0    0 -0.51872815759E+01  0.49802707776E+02 -0.27246450052E+03  0.27702909889E+03  0.10000000000E+01 0.  0.
    9000005    1    3    3    0    0  0.51872815759E+01 -0.49802707776E+02 -0.59982063353E+02  0.78141317599E+02  0.10000000000E+01 0.  0.
<mgrwt>
<rscale>  0 0.12500123E+03</rscale>
<asrwt>0</asrwt>
<pdfrwt beam="2">  1        4 0.52893606E-01 0.12500123E+03</pdfrwt>
<pdfrwt beam="1">  1       -4 0.17479889E-02 0.12500123E+03</pdfrwt>
<totfact> 0.69157593E+03</totfact>
</mgrwt>
</event>
<event>
 5    1  0.3225662E-002  0.1249994E+03  0.7818608E-02  0.1235070E+00
         -4   -1    0    0    0  501 -0.00000000000E+00  0.00000000000E+00  0.31378376879E+02  0.31404067182E+02  0.12700000000E+01 0. -1.
          4   -1    0    0  501    0  0.00000000000E+00 -0.00000000000E+00 -0.12440754434E+03  0.12441402650E+03  0.12700000000E+01 0. -1.
         25    2    1    2    0    0  0.00000000000E+00  0.00000000000E+00 -0.93029167461E+02  0.15581809368E+03  0.12499940927E+03 0.  0.
    9000005    1    3    3    0    0 -0.21837175001E+02 -0.51138676295E+02 -0.82061755066E+02  0.99132023432E+02  0.10000000000E+01 0.  0.
    9000005    1    3    3    0    0  0.21837175001E+02  0.51138676295E+02 -0.10967412395E+02  0.56686070245E+02  0.10000000000E+01 0.  0.
<mgrwt>
<rscale>  0 0.12499941E+03</rscale>
<asrwt>0</asrwt>
<pdfrwt beam="2">  1        4 0.19142097E-01 0.12499941E+03</pdfrwt>
<pdfrwt beam="1">  1       -4 0.48299175E-02 0.12499941E+03</pdfrwt>
<totfact> 0.98156440E+03</totfact>
</mgrwt>
</event>
<event>
 5    1  0.3225662E-002  0.1250113E+03  0.7818608E-02  0.1235052E+00
         -4   -1    0    0    0  501 -0.00000000000E+00  0.00000000000E+00  0.63928693069E+02  0.63941306661E+02  0.12700000000E+01 0. -1.
          4   -1    0    0  501    0  0.00000000000E+00 -0.00000000000E+00 -0.61089014800E+02  0.61102214602E+02  0.12700000000E+01 0. -1.
         25    2    1    2    0    0  0.00000000000E+00  0.00000000000E+00  0.28396782694E+01  0.12504352126E+03  0.12501127324E+03 0.  0.
    9000005    1    3    3    0    0 -0.37490384459E+02 -0.36578928031E+02 -0.32683056569E+02  0.61747300261E+02  0.10000000000E+01 0.  0.
    9000005    1    3    3    0    0  0.37490384459E+02  0.36578928031E+02  0.35522734838E+02  0.63296221002E+02  0.10000000000E+01 0.  0.
<mgrwt>
<rscale>  0 0.12501127E+03</rscale>
<asrwt>0</asrwt>
<pdfrwt beam="2">  1        4 0.94002956E-02 0.12501127E+03</pdfrwt>
<pdfrwt beam="1">  1       -4 0.98371692E-02 0.12501127E+03</pdfrwt>
<totfact> 0.10449255E+04</totfact>
</mgrwt>
</event>
<event>
 5    1  0.3225662E-002  0.1250070E+03  0.7818608E-02  0.1235058E+00
         -4   -1    0    0    0  501 -0.00000000000E+00  0.00000000000E+00  0.24140380005E+02  0.24173763604E+02  0.12700000000E+01 0.  1.
          4   -1    0    0  501    0  0.00000000000E+00 -0.00000000000E+00 -0.16168428622E+03  0.16168927395E+03  0.12700000000E+01 0.  1.
         25    2    1    2    0    0  0.00000000000E+00  0.00000000000E+00 -0.13754390622E+03  0.18586303756E+03  0.12500697018E+03 0.  0.
    9000005    1    3    3    0    0  0.38382359907E+01  0.55012411010E+02 -0.11249027266E+03  0.12528431213E+03  0.10000000000E+01 0.  0.
    9000005    1    3    3    0    0 -0.38382359907E+01 -0.55012411010E+02 -0.25053633553E+02  0.60578725432E+02  0.10000000000E+01 0.  0.
<mgrwt>
<rscale>  0 0.12500697E+03</rscale>
<asrwt>0</asrwt>
<pdfrwt beam="2">  1        4 0.24877457E-01 0.12500697E+03</pdfrwt>
<pdfrwt beam="1">  1       -4 0.37168564E-02 0.12500697E+03</pdfrwt>
<totfact> 0.92557699E+03</totfact>
</mgrwt>
</event>
<event>
 5    1  0.3225662E-002  0.1249994E+03  0.7818608E-02  0.1235070E+00
         -4   -1    0    0    0  501 -0.00000000000E+00  0.00000000000E+00  0.37317822435E+02  0.37339426500E+02  0.12700000000E+01 0.  1.
          4   -1    0    0  501    0  0.00000000000E+00 -0.00000000000E+00 -0.10461838997E+03  0.10462609817E+03  0.12700000000E+01 0.  1.
         25    2    1    2    0    0  0.00000000000E+00  0.00000000000E+00 -0.67300567530E+02  0.14196552467E+03  0.12499937522E+03 0.  0.
    9000005    1    3    3    0    0 -0.29868480199E+00 -0.27161853175E+02  0.30267756785E+02  0.40681600034E+02  0.10000000000E+01 0.  0.
    9000005    1    3    3    0    0  0.29868480199E+00  0.27161853175E+02 -0.97568324315E+02  0.10128392464E+03  0.10000000000E+01 0.  0.
<mgrwt>
<rscale>  0 0.12499938E+03</rscale>
<asrwt>0</asrwt>
<pdfrwt beam="2">  1        4 0.16097392E-01 0.12499938E+03</pdfrwt>
<pdfrwt beam="1">  1       -4 0.57434583E-02 0.12499938E+03</pdfrwt>
<totfact> 0.10093153E+04</totfact>
</mgrwt>
</event>
<event>
 5    1  0.3225662E-002  0.1250001E+03  0.7818608E-02  0.1235069E+00
         -4   -1    0    0    0  501 -0.00000000000E+00  0.00000000000E+00  0.53878958178E+03  0.53879107856E+03  0.12700000000E+01 0. -1.
          4   -1    0    0  501    0  0.00000000000E+00 -0.00000000000E+00 -0.71929204643E+01  0.73041772162E+01  0.12700000000E+01 0. -1.
         25    2    1    2    0    0  0.00000000000E+00  0.00000000000E+00  0.53159666131E+03  0.54609525577E+03  0.12500007223E+03 0.  0.
    9000005    1    3    3    0    0  0.64233725076E+01 -0.54688707868E+02  0.13670610461E+03  0.14738274499E+03  0.10000000000E+01 0.  0.
    9000005    1    3    3    0    0 -0.64233725076E+01  0.54688707868E+02  0.39489055670E+03  0.39871251078E+03  0.10000000000E+01 0.  0.
<mgrwt>
<rscale>  0 0.12500007E+03</rscale>
<asrwt>0</asrwt>
<pdfrwt beam="2">  1        4 0.11152763E-02 0.12500007E+03</pdfrwt>
<pdfrwt beam="1">  1       -4 0.82899395E-01 0.12500007E+03</pdfrwt>
<totfact> 0.52457202E+03</totfact>
</mgrwt>
</event>
<event>
 5    1  0.3225662E-002  0.1249999E+03  0.7818608E-02  0.1235070E+00
         -4   -1    0    0    0  501 -0.00000000000E+00  0.00000000000E+00  0.84632366245E+02  0.84641894569E+02  0.12700000000E+01 0.  1.
          4   -1    0    0  501    0  0.00000000000E+00 -0.00000000000E+00 -0.46134536586E+02  0.46152013672E+02  0.12700000000E+01 0.  1.
         25    2    1    2    0    0  0.00000000000E+00  0.00000000000E+00  0.38497829659E+02  0.13079390824E+03  0.12499985418E+03 0.  0.
    9000005    1    3    3    0    0 -0.12887873942E+02  0.61118837722E+02  0.17254997734E+02  0.64810065314E+02  0.10000000000E+01 0.  0.
    9000005    1    3    3    0    0  0.12887873942E+02 -0.61118837722E+02  0.21242831926E+02  0.65983842927E+02  0.10000000000E+01 0.  0.
<mgrwt>
<rscale>  0 0.12499985E+03</rscale>
<asrwt>0</asrwt>
<pdfrwt beam="2">  1        4 0.70996984E-02 0.12499985E+03</pdfrwt>
<pdfrwt beam="1">  1       -4 0.13022441E-01 0.12499985E+03</pdfrwt>
<totfact> 0.10327544E+04</totfact>
</mgrwt>
</event>
<event>
 5    1  0.3225662E-002  0.1249969E+03  0.7818608E-02  0.1235074E+00
          4   -1    0    0  501    0  0.00000000000E+00  0.00000000000E+00  0.12583424107E+03  0.12584064974E+03  0.12700000000E+01 0. -1.
         -4   -1    0    0    0  501 -0.00000000000E+00 -0.00000000000E+00 -0.31021105987E+02  0.31047091920E+02  0.12700000000E+01 0. -1.
         25    2    1    2    0    0  0.00000000000E+00  0.00000000000E+00  0.94813135088E+02  0.15688774166E+03  0.12499693155E+03 0.  0.
    9000005    1    3    3    0    0 -0.53688622308E+02  0.22677952822E+02  0.75704189111E+02  0.95545182812E+02  0.10000000000E+01 0.  0.
    9000005    1    3    3    0    0  0.53688622308E+02 -0.22677952822E+02  0.19108945976E+02  0.61342558847E+02  0.10000000000E+01 0.  0.
<mgrwt>
<rscale>  0 0.12499693E+03</rscale>
<asrwt>0</asrwt>
<pdfrwt beam="1">  1        4 0.19361606E-01 0.12499693E+03</pdfrwt>
<pdfrwt beam="2">  1       -4 0.47749697E-02 0.12499693E+03</pdfrwt>
<totfact> 0.97952939E+03</totfact>
</mgrwt>
</event>
<event>
 5    1  0.3225662E-002  0.1249950E+03  0.7818608E-02  0.1235077E+00
         -4   -1    0    0    0  501 -0.00000000000E+00  0.00000000000E+00  0.12754463052E+02  0.12817535946E+02  0.12700000000E+01 0.  1.
          4   -1    0    0  501    0  0.00000000000E+00 -0.00000000000E+00 -0.30542093902E+03  0.30542357946E+03  0.12700000000E+01 0.  1.
         25    2    1    2    0    0  0.00000000000E+00  0.00000000000E+00 -0.29266647597E+03  0.31824111541E+03  0.12499496542E+03 0.  0.
    9000005    1    3    3    0    0  0.38991110550E+02  0.47848611557E+02 -0.17116703308E+03  0.18195864789E+03  0.10000000000E+01 0.  0.
    9000005    1    3    3    0    0 -0.38991110550E+02 -0.47848611557E+02 -0.12149944289E+03  0.13628246752E+03  0.10000000000E+01 0.  0.
<mgrwt>
<rscale>  0 0.12499497E+03</rscale>
<asrwt>0</asrwt>
<pdfrwt beam="2">  1        4 0.46992886E-01 0.12499497E+03</pdfrwt>
<pdfrwt beam="1">  1       -4 0.19672802E-02 0.12499497E+03</pdfrwt>
<totfact> 0.73374002E+03</totfact>
</mgrwt>
</event>
<event>
 5    1  0.3225662E-002  0.1250015E+03  0.7818608E-02  0.1235067E+00
          4   -1    0    0  501    0  0.00000000000E+00  0.00000000000E+00  0.48959392942E+02  0.48975861985E+02  0.12700000000E+01 0.  1.
         -4   -1    0    0    0  501 -0.00000000000E+00 -0.00000000000E+00 -0.79752444126E+02  0.79762555401E+02  0.12700000000E+01 0.  1.
         25    2    1    2    0    0  0.00000000000E+00  0.00000000000E+00 -0.30793051185E+02  0.12873841739E+03  0.12500147243E+03 0.  0.
    9000005    1    3    3    0    0  0.23230010623E+02 -0.50759454411E+02 -0.44328817585E+02  0.71289548141E+02  0.10000000000E+01 0.  0.
    9000005    1    3    3    0    0 -0.23230010623E+02  0.50759454411E+02  0.13535766400E+02  0.57448869246E+02  0.10000000000E+01 0.  0.
<mgrwt>
<rscale>  0 0.12500147E+03</rscale>
<asrwt>0</asrwt>
<pdfrwt beam="1">  1        4 0.75342589E-02 0.12500147E+03</pdfrwt>
<pdfrwt beam="2">  1       -4 0.12271651E-01 0.12500147E+03</pdfrwt>
<totfact> 0.10371226E+04</totfact>
</mgrwt>
</event>
<event>
 5    1  0.3225662E-002  0.1249954E+03  0.7818608E-02  0.1235077E+00
         -4   -1    0    0    0  501 -0.00000000000E+00  0.00000000000E+00  0.79236144794E+03  0.79236246572E+03  0.12700000000E+01 0.  1.
          4   -1    0    0  501    0  0.00000000000E+00 -0.00000000000E+00 -0.48466830233E+01  0.50103129971E+01  0.12700000000E+01 0.  1.
         25    2    1    2    0    0  0.00000000000E+00  0.00000000000E+00  0.78751476492E+03  0.79737277872E+03  0.12499537302E+03 0.  0.
    9000005    1    3    3    0    0  0.24551544870E+02 -0.57248239348E+02  0.42553943660E+03  0.43007551821E+03  0.10000000000E+01 0.  0.
    9000005    1    3    3    0    0 -0.24551544870E+02  0.57248239348E+02  0.36197532832E+03  0.36729726050E+03  0.10000000000E+01 0.  0.
<mgrwt>
<rscale>  0 0.12499537E+03</rscale>
<asrwt>0</asrwt>
<pdfrwt beam="2">  1        4 0.75830907E-03 0.12499537E+03</pdfrwt>
<pdfrwt beam="1">  1       -4 0.12191438E+00 0.12499537E+03</pdfrwt>
<totfact> 0.38386174E+03</totfact>
</mgrwt>
</event>
<event>
 5    1  0.3225662E-002  0.1250024E+03  0.7818608E-02  0.1235065E+00
          4   -1    0    0  501    0  0.00000000000E+00  0.00000000000E+00  0.14492728057E+03  0.14493284498E+03  0.12700000000E+01 0.  1.
         -4   -1    0    0    0  501 -0.00000000000E+00 -0.00000000000E+00 -0.26933182086E+02  0.26963108079E+02  0.12700000000E+01 0.  1.
         25    2    1    2    0    0  0.00000000000E+00  0.00000000000E+00  0.11799409849E+03  0.17189595306E+03  0.12500244558E+03 0.  0.
    9000005    1    3    3    0    0 -0.38696066348E+02  0.24321576178E+01  0.12639440480E+03  0.13221137057E+03  0.10000000000E+01 0.  0.
    9000005    1    3    3    0    0  0.38696066348E+02 -0.24321576178E+01 -0.84003063166E+01  0.39684582493E+02  0.10000000000E+01 0.  0.
<mgrwt>
<rscale>  0 0.12500245E+03</rscale>
<asrwt>0</asrwt>
<pdfrwt beam="1">  1        4 0.22299234E-01 0.12500245E+03</pdfrwt>
<pdfrwt beam="2">  1       -4 0.41462967E-02 0.12500245E+03</pdfrwt>
<totfact> 0.95091215E+03</totfact>
</mgrwt>
</event>
<event>
 5    1  0.3225662E-002  0.1249986E+03  0.7818608E-02  0.1235071E+00
         -4   -1    0    0    0  501 -0.00000000000E+00  0.00000000000E+00  0.12682883310E+03  0.12683519151E+03  0.12700000000E+01 0. -1.
          4   -1    0    0  501    0  0.00000000000E+00 -0.00000000000E+00 -0.30778490618E+02  0.30804681214E+02  0.12700000000E+01 0. -1.
         25    2    1    2    0    0  0.00000000000E+00  0.00000000000E+00  0.96050342485E+02  0.15763987273E+03  0.12499864472E+03 0.  0.
    9000005    1    3    3    0    0 -0.41832527518E+02  0.16293157844E+02 -0.67976729713E+01  0.45416249393E+02  0.10000000000E+01 0.  0.
    9000005    1    3    3    0    0  0.41832527518E+02 -0.16293157844E+02  0.10284801546E+03  0.11222362333E+03  0.10000000000E+01 0.  0.
<mgrwt>
<rscale>  0 0.12499864E+03</rscale>
<asrwt>0</asrwt>
<pdfrwt beam="2">  1        4 0.47376563E-02 0.12499864E+03</pdfrwt>
<pdfrwt beam="1">  1       -4 0.19514631E-01 0.12499864E+03</pdfrwt>
<totfact> 0.97802718E+03</totfact>
</mgrwt>
</event>
<event>
 5    1  0.3225662E-002  0.1250012E+03  0.7818608E-02  0.1235067E+00
         -4   -1    0    0    0  501 -0.00000000000E+00  0.00000000000E+00  0.45323088743E+02  0.45340878611E+02  0.12700000000E+01 0.  1.
          4   -1    0    0  501    0  0.00000000000E+00 -0.00000000000E+00 -0.86149002087E+02  0.86158362686E+02  0.12700000000E+01 0.  1.
         25    2    1    2    0    0  0.00000000000E+00  0.00000000000E+00 -0.40825913345E+02  0.13149924130E+03  0.12500118104E+03 0.  0.
    9000005    1    3    3    0    0  0.27971255073E+02 -0.55865642132E+02 -0.21886761130E+02  0.66207185365E+02  0.10000000000E+01 0.  0.
    9000005    1    3    3    0    0 -0.27971255073E+02  0.55865642132E+02 -0.18939152214E+02  0.65292055931E+02  0.10000000000E+01 0.  0.
<mgrwt>
<rscale>  0 0.12500118E+03</rscale>
<asrwt>0</asrwt>
<pdfrwt beam="2">  1        4 0.13255781E-01 0.12500118E+03</pdfrwt>
<pdfrwt beam="1">  1       -4 0.69748714E-02 0.12500118E+03</pdfrwt>
<totfact> 0.10312124E+04</totfact>
</mgrwt>
</event>
<event>
 5    1  0.3225662E-002  0.1249924E+03  0.7818608E-02  0.1235081E+00
          4   -1    0    0  501    0  0.00000000000E+00  0.00000000000E+00  0.99030990815E+01  0.99842010906E+01  0.12700000000E+01 0.  1.
         -4   -1    0    0    0  501 -0.00000000000E+00 -0.00000000000E+00 -0.39270891927E+03  0.39271097282E+03  0.12700000000E+01 0.  1.
         25    2    1    2    0    0  0.00000000000E+00  0.00000000000E+00 -0.38280582019E+03  0.40269517391E+03  0.12499242826E+03 0.  0.
    9000005    1    3    3    0    0 -0.23814993831E+02 -0.57112669593E+02 -0.21944622746E+03  0.22800582823E+03  0.10000000000E+01 0.  0.
    9000005    1    3    3    0    0  0.23814993831E+02  0.57112669593E+02 -0.16335959272E+03  0.17468934568E+03  0.10000000000E+01 0.  0.
<mgrwt>
<rscale>  0 0.12499243E+03</rscale>
<asrwt>0</asrwt>
<pdfrwt beam="1">  1        4 0.15299506E-02 0.12499243E+03</pdfrwt>
<pdfrwt beam="2">  1       -4 0.60423141E-01 0.12499243E+03</pdfrwt>
<totfact> 0.64302254E+03</totfact>
</mgrwt>
</event>
<event>
 5    1  0.3225662E-002  0.1249990E+03  0.7818608E-02  0.1235071E+00
          4   -1    0    0  501    0  0.00000000000E+00  0.00000000000E+00  0.30529694086E+03  0.30529958237E+03  0.12700000000E+01 0. -1.
         -4   -1    0    0    0  501 -0.00000000000E+00 -0.00000000000E+00 -0.12760502289E+02  0.12823545480E+02  0.12700000000E+01 0. -1.
         25    2    1    2    0    0  0.00000000000E+00  0.00000000000E+00  0.29253643857E+03  0.31812312785E+03  0.12499902633E+03 0.  0.
    9000005    1    3    3    0    0  0.26780466116E+02  0.20004796256E+02  0.28064360534E+03  0.28262911821E+03  0.10000000000E+01 0.  0.
    9000005    1    3    3    0    0 -0.26780466116E+02 -0.20004796256E+02  0.11892833227E+02  0.35494009647E+02  0.10000000000E+01 0.  0.
<mgrwt>
<rscale>  0 0.12499903E+03</rscale>
<asrwt>0</asrwt>
<pdfrwt beam="1">  1        4 0.46973811E-01 0.12499903E+03</pdfrwt>
<pdfrwt beam="2">  1       -4 0.19682070E-02 0.12499903E+03</pdfrwt>
<totfact> 0.73381495E+03</totfact>
</mgrwt>
</event>
<event>
 5    1  0.3225662E-002  0.1250007E+03  0.7818608E-02  0.1235068E+00
          4   -1    0    0  501    0  0.00000000000E+00  0.00000000000E+00  0.25680995732E+02  0.25712379154E+02  0.12700000000E+01 0. -1.
         -4   -1    0    0    0  501 -0.00000000000E+00 -0.00000000000E+00 -0.15198134968E+03  0.15198665583E+03  0.12700000000E+01 0. -1.
         25    2    1    2    0    0  0.00000000000E+00  0.00000000000E+00 -0.12630035395E+03  0.17769903499E+03  0.12500067051E+03 0.  0.
    9000005    1    3    3    0    0  0.61219224543E+02  0.12322641131E+02 -0.66529534817E+02  0.91251410625E+02  0.10000000000E+01 0.  0.
    9000005    1    3    3    0    0 -0.61219224543E+02 -0.12322641131E+02 -0.59770819136E+02  0.86447624364E+02  0.10000000000E+01 0.  0.
<mgrwt>
<rscale>  0 0.12500067E+03</rscale>
<asrwt>0</asrwt>
<pdfrwt beam="1">  1        4 0.39537448E-02 0.12500067E+03</pdfrwt>
<pdfrwt beam="2">  1       -4 0.23384568E-01 0.12500067E+03</pdfrwt>
<totfact> 0.94031418E+03</totfact>
</mgrwt>
</event>
<event>
 5    1  0.3225662E-002  0.1249980E+03  0.7818608E-02  0.1235072E+00
         -4   -1    0    0    0  501 -0.00000000000E+00  0.00000000000E+00  0.54344386272E+02  0.54359223866E+02  0.12700000000E+01 0.  1.
          4   -1    0    0  501    0  0.00000000000E+00 -0.00000000000E+00 -0.71846996065E+02  0.71858219735E+02  0.12700000000E+01 0.  1.
         25    2    1    2    0    0  0.00000000000E+00  0.00000000000E+00 -0.17502609792E+02  0.12621744360E+03  0.12499800686E+03 0.  0.
    9000005    1    3    3    0    0 -0.95232196928E+01 -0.96202567495E+01  0.52851108994E+02  0.54566297063E+02  0.10000000000E+01 0.  0.
    9000005    1    3    3    0    0  0.95232196928E+01  0.96202567495E+01 -0.70353718786E+02  0.71651146539E+02  0.10000000000E+01 0.  0.
<mgrwt>
<rscale>  0 0.12499801E+03</rscale>
<asrwt>0</asrwt>
<pdfrwt beam="2">  1        4 0.11055389E-01 0.12499801E+03</pdfrwt>
<pdfrwt beam="1">  1       -4 0.83626795E-02 0.12499801E+03</pdfrwt>
<totfact> 0.10426666E+04</totfact>
</mgrwt>
</event>
<event>
 5    1  0.3225662E-002  0.1250019E+03  0.7818608E-02  0.1235066E+00
          4   -1    0    0  501    0  0.00000000000E+00  0.00000000000E+00  0.24873248690E+02  0.24905649969E+02  0.12700000000E+01 0. -1.
         -4   -1    0    0    0  501 -0.00000000000E+00 -0.00000000000E+00 -0.15691384343E+03  0.15691898279E+03  0.12700000000E+01 0. -1.
         25    2    1    2    0    0  0.00000000000E+00  0.00000000000E+00 -0.13204059474E+03  0.18182463276E+03  0.12500191366E+03 0.  0.
    9000005    1    3    3    0    0 -0.61664400318E+02  0.35013156920E-01 -0.51267286441E+02  0.80198716645E+02  0.10000000000E+01 0.  0.
    9000005    1    3    3    0    0  0.61664400318E+02 -0.35013156920E-01 -0.80773308300E+02  0.10162591612E+03  0.10000000000E+01 0.  0.
<mgrwt>
<rscale>  0 0.12500191E+03</rscale>
<asrwt>0</asrwt>
<pdfrwt beam="1">  1        4 0.38295415E-02 0.12500191E+03</pdfrwt>
<pdfrwt beam="2">  1       -4 0.24143479E-01 0.12500191E+03</pdfrwt>
<totfact> 0.93285589E+03</totfact>
</mgrwt>
</event>
<event>
 5    1  0.3225662E-002  0.1249548E+03  0.7818608E-02  0.1235140E+00
         -4   -1    0    0    0  501 -0.00000000000E+00  0.00000000000E+00  0.27605638687E+02  0.27634836480E+02  0.12700000000E+01 0.  1.
          4   -1    0    0  501    0  0.00000000000E+00 -0.00000000000E+00 -0.14129269929E+03  0.14129840683E+03  0.12700000000E+01 0.  1.
         25    2    1    2    0    0  0.00000000000E+00  0.00000000000E+00 -0.11368706060E+03  0.16893324331E+03  0.12495476360E+03 0.  0.
    9000005    1    3    3    0    0  0.27724049319E+02 -0.34186549543E+02 -0.11677465637E+03  0.12479849138E+03  0.10000000000E+01 0.  0.
    9000005    1    3    3    0    0 -0.27724049319E+02  0.34186549543E+02  0.30875957677E+01  0.44134751929E+02  0.10000000000E+01 0.  0.
<mgrwt>
<rscale>  0 0.12495476E+03</rscale>
<asrwt>0</asrwt>
<pdfrwt beam="2">  1        4 0.21740023E-01 0.12495476E+03</pdfrwt>
<pdfrwt beam="1">  1       -4 0.42497064E-02 0.12495476E+03</pdfrwt>
<totfact> 0.95744862E+03</totfact>
</mgrwt>
</event>
<event>
 5    1  0.3225662E-002  0.1249936E+03  0.7818608E-02  0.1235079E+00
          4   -1    0    0  501    0  0.00000000000E+00  0.00000000000E+00  0.40342628019E+03  0.40342827918E+03  0.12700000000E+01 0. -1.
         -4   -1    0    0    0  501 -0.00000000000E+00 -0.00000000000E+00 -0.96380085949E+01  0.97213224242E+01  0.12700000000E+01 0. -1.
         25    2    1    2    0    0  0.00000000000E+00  0.00000000000E+00  0.39378827159E+03  0.41314960161E+03  0.12499356170E+03 0.  0.
    9000005    1    3    3    0    0 -0.33708338804E+02  0.89630599455E+01  0.25516063075E+02  0.43227977322E+02  0.10000000000E+01 0.  0.
    9000005    1    3    3    0    0  0.33708338804E+02 -0.89630599455E+01  0.36827220852E+03  0.36992162429E+03  0.10000000000E+01 0.  0.
<mgrwt>
<rscale>  0 0.12499356E+03</rscale>
<asrwt>0</asrwt>
<pdfrwt beam="1">  1        4 0.62072141E-01 0.12499356E+03</pdfrwt>
<pdfrwt beam="2">  1       -4 0.14893331E-02 0.12499356E+03</pdfrwt>
<totfact> 0.63302649E+03</totfact>
</mgrwt>
</event>
<event>
 5    1  0.3225662E-002  0.1249977E+03  0.7818608E-02  0.1235073E+00
          4   -1    0    0  501    0  0.00000000000E+00  0.00000000000E+00  0.22507295155E+03  0.22507653458E+03  0.12700000000E+01 0. -1.
         -4   -1    0    0    0  501 -0.00000000000E+00 -0.00000000000E+00 -0.17327896637E+02  0.17374374863E+02  0.12700000000E+01 0. -1.
         25    2    1    2    0    0  0.00000000000E+00  0.00000000000E+00  0.20774505491E+03  0.24245090944E+03  0.12499774258E+03 0.  0.
    9000005    1    3    3    0    0 -0.54366858191E+02  0.20089177514E+02  0.58558788855E+02  0.82398192182E+02  0.10000000000E+01 0.  0.
    9000005    1    3    3    0    0  0.54366858191E+02 -0.20089177514E+02  0.14918626606E+03  0.16005271726E+03  0.10000000000E+01 0.  0.
<mgrwt>
<rscale>  0 0.12499774E+03</rscale>
<asrwt>0</asrwt>
<pdfrwt beam="1">  1        4 0.34630456E-01 0.12499774E+03</pdfrwt>
<pdfrwt beam="2">  1       -4 0.26696814E-02 0.12499774E+03</pdfrwt>
<totfact> 0.83437897E+03</totfact>
</mgrwt>
</event>
<event>
 5    1  0.3225662E-002  0.1250005E+03  0.7818608E-02  0.1235069E+00
          4   -1    0    0  501    0  0.00000000000E+00  0.00000000000E+00  0.39703777263E+02  0.39724083740E+02  0.12700000000E+01 0. -1.
         -4   -1    0    0    0  501 -0.00000000000E+00 -0.00000000000E+00 -0.98336005298E+02  0.98344205919E+02  0.12700000000E+01 0. -1.
         25    2    1    2    0    0  0.00000000000E+00  0.00000000000E+00 -0.58632228035E+02  0.13806828966E+03  0.12500045778E+03 0.  0.
    9000005    1    3    3    0    0  0.52809602933E+02 -0.42646671219E+01 -0.65920269352E+02  0.84578504711E+02  0.10000000000E+01 0.  0.
    9000005    1    3    3    0    0 -0.52809602933E+02  0.42646671219E+01  0.72880413174E+01  0.53489784949E+02  0.10000000000E+01 0.  0.
<mgrwt>
<rscale>  0 0.12500046E+03</rscale>
<asrwt>0</asrwt>
<pdfrwt beam="1">  1        4 0.61104663E-02 0.12500046E+03</pdfrwt>
<pdfrwt beam="2">  1       -4 0.15130809E-01 0.12500046E+03</pdfrwt>
<totfact> 0.10173674E+04</totfact>
</mgrwt>
</event>
<event>
 5    1  0.3225662E-002  0.1250033E+03  0.7818608E-02  0.1235064E+00
          4   -1    0    0  501    0  0.00000000000E+00  0.00000000000E+00  0.12486135315E+03  0.12486781175E+03  0.12700000000E+01 0.  1.
         -4   -1    0    0    0  501 -0.00000000000E+00 -0.00000000000E+00 -0.31266180284E+02  0.31291962699E+02  0.12700000000E+01 0.  1.
         25    2    1    2    0    0  0.00000000000E+00  0.00000000000E+00  0.93595172869E+02  0.15615977445E+03  0.12500327504E+03 0.  0.
    9000005    1    3    3    0    0  0.61685396863E+02 -0.89127622046E+01  0.41082486182E+02  0.74654512169E+02  0.10000000000E+01 0.  0.
    9000005    1    3    3    0    0 -0.61685396863E+02  0.89127622046E+01  0.52512686686E+02  0.81505262279E+02  0.10000000000E+01 0.  0.
<mgrwt>
<rscale>  0 0.12500328E+03</rscale>
<asrwt>0</asrwt>
<pdfrwt beam="1">  1        4 0.19211919E-01 0.12500328E+03</pdfrwt>
<pdfrwt beam="2">  1       -4 0.48126617E-02 0.12500328E+03</pdfrwt>
<totfact> 0.98081077E+03</totfact>
</mgrwt>
</event>
<event>
 5    1  0.3225662E-002  0.1249986E+03  0.7818608E-02  0.1235071E+00
         -4   -1    0    0    0  501 -0.00000000000E+00  0.00000000000E+00  0.59976257508E+03  0.59976391969E+03  0.12700000000E+01 0.  1.
          4   -1    0    0  501    0  0.00000000000E+00 -0.00000000000E+00 -0.64495737545E+01  0.65734238883E+01  0.12700000000E+01 0.  1.
         25    2    1    2    0    0  0.00000000000E+00  0.00000000000E+00  0.59331300132E+03  0.60633734358E+03  0.12499862671E+03 0.  0.
    9000005    1    3    3    0    0 -0.28587746776E+02  0.34523674824E+02  0.50787435259E+03  0.50984948897E+03  0.10000000000E+01 0.  0.
    9000005    1    3    3    0    0  0.28587746776E+02 -0.34523674824E+02  0.85438648738E+02  0.96487854610E+02  0.10000000000E+01 0.  0.
<mgrwt>
<rscale>  0 0.12499863E+03</rscale>
<asrwt>0</asrwt>
<pdfrwt beam="2">  1        4 0.10018719E-02 0.12499863E+03</pdfrwt>
<pdfrwt beam="1">  1       -4 0.92280849E-01 0.12499863E+03</pdfrwt>
<totfact> 0.48471445E+03</totfact>
</mgrwt>
</event>
<event>
 5    1  0.3225662E-002  0.1250035E+03  0.7818608E-02  0.1235064E+00
         -4   -1    0    0    0  501 -0.00000000000E+00  0.00000000000E+00  0.37678016381E+02  0.37699414033E+02  0.12700000000E+01 0. -1.
          4   -1    0    0  501    0  0.00000000000E+00 -0.00000000000E+00 -0.10362553119E+03  0.10363331325E+03  0.12700000000E+01 0. -1.
         25    2    1    2    0    0  0.00000000000E+00  0.00000000000E+00 -0.65947514812E+02  0.14133272728E+03  0.12500346032E+03 0.  0.
    9000005    1    3    3    0    0 -0.20090336593E+02  0.58874090386E+02 -0.26219611648E+02  0.67514799697E+02  0.10000000000E+01 0.  0.
    9000005    1    3    3    0    0  0.20090336593E+02 -0.58874090386E+02 -0.39727903164E+02  0.73817927586E+02  0.10000000000E+01 0.  0.
<mgrwt>
<rscale>  0 0.12500346E+03</rscale>
<asrwt>0</asrwt>
<pdfrwt beam="2">  1        4 0.15944634E-01 0.12500346E+03</pdfrwt>
<pdfrwt beam="1">  1       -4 0.57988625E-02 0.12500346E+03</pdfrwt>
<totfact> 0.10105251E+04</totfact>
</mgrwt>
</event>
<event>
 5    1  0.3225662E-002  0.1250020E+03  0.7818608E-02  0.1235066E+00
         -4   -1    0    0    0  501 -0.00000000000E+00  0.00000000000E+00  0.42495082084E+03  0.42495271858E+03  0.12700000000E+01 0. -1.
          4   -1    0    0  501    0  0.00000000000E+00 -0.00000000000E+00 -0.91467398870E+01  0.92344870221E+01  0.12700000000E+01 0. -1.
         25    2    1    2    0    0  0.00000000000E+00  0.00000000000E+00  0.41580408095E+03  0.43418720561E+03  0.12500198309E+03 0.  0.
    9000005    1    3    3    0    0 -0.50829173631E+02 -0.34276904022E+02  0.24999565042E+03  0.25740500436E+03  0.10000000000E+01 0.  0.
    9000005    1    3    3    0    0  0.50829173631E+02  0.34276904022E+02  0.16580843053E+03  0.17678220125E+03  0.10000000000E+01 0.  0.
<mgrwt>
<rscale>  0 0.12500198E+03</rscale>
<asrwt>0</asrwt>
<pdfrwt beam="2">  1        4 0.14140865E-02 0.12500198E+03</pdfrwt>
<pdfrwt beam="1">  1       -4 0.65383946E-01 0.12500198E+03</pdfrwt>
<totfact> 0.61355588E+03</totfact>
</mgrwt>
</event>
<event>
 5    1  0.3225662E-002  0.1249960E+03  0.7818608E-02  0.1235076E+00
          4   -1    0    0  501    0  0.00000000000E+00  0.00000000000E+00  0.96438126069E+03  0.96438209693E+03  0.12700000000E+01 0.  1.
         -4   -1    0    0    0  501 -0.00000000000E+00 -0.00000000000E+00 -0.39498519159E+01  0.41490035138E+01  0.12700000000E+01 0.  1.
         25    2    1    2    0    0  0.00000000000E+00  0.00000000000E+00  0.96043140878E+03  0.96853110044E+03  0.12499600617E+03 0.  0.
    9000005    1    3    3    0    0 -0.38028357052E+02 -0.39511360952E+01  0.97214733836E+02  0.10446756382E+03  0.10000000000E+01 0.  0.
    9000005    1    3    3    0    0  0.38028357052E+02  0.39511360952E+01  0.86321667494E+03  0.86406353662E+03  0.10000000000E+01 0.  0.
<mgrwt>
<rscale>  0 0.12499601E+03</rscale>
<asrwt>0</asrwt>
<pdfrwt beam="1">  1        4 0.14838165E+00 0.12499601E+03</pdfrwt>
<pdfrwt beam="2">  1       -4 0.62305355E-03 0.12499601E+03</pdfrwt>
<totfact> 0.31669823E+03</totfact>
</mgrwt>
</event>
<event>
 5    1  0.3225662E-002  0.1249991E+03  0.7818608E-02  0.1235071E+00
         -4   -1    0    0    0  501 -0.00000000000E+00  0.00000000000E+00  0.82723036239E+01  0.83692238139E+01  0.12700000000E+01 0.  1.
          4   -1    0    0  501    0  0.00000000000E+00 -0.00000000000E+00 -0.46935332507E+03  0.46935504329E+03  0.12700000000E+01 0.  1.
         25    2    1    2    0    0  0.00000000000E+00  0.00000000000E+00 -0.46108102145E+03  0.47772426710E+03  0.12499906814E+03 0.  0.
    9000005    1    3    3    0    0  0.13350043526E+02 -0.10332389143E+02 -0.46049262085E+03  0.46080303361E+03  0.10000000000E+01 0.  0.
    9000005    1    3    3    0    0 -0.13350043526E+02  0.10332389143E+02 -0.58840060094E+00  0.16921233490E+02  0.10000000000E+01 0.  0.
<mgrwt>
<rscale>  0 0.12499907E+03</rscale>
<asrwt>0</asrwt>
<pdfrwt beam="2">  1        4 0.72215771E-01 0.12499907E+03</pdfrwt>
<pdfrwt beam="1">  1       -4 0.12802500E-02 0.12499907E+03</pdfrwt>
<totfact> 0.57636273E+03</totfact>
</mgrwt>
</event>
<event>
 5    1  0.3225662E-002  0.1250025E+03  0.7818608E-02  0.1235065E+00
         -4   -1    0    0    0  501 -0.00000000000E+00  0.00000000000E+00  0.47016090879E+02  0.47033240389E+02  0.12700000000E+01 0.  1.
          4   -1    0    0  501    0  0.00000000000E+00 -0.00000000000E+00 -0.83049422623E+02  0.83059132538E+02  0.12700000000E+01 0.  1.
         25    2    1    2    0    0  0.00000000000E+00  0.00000000000E+00 -0.36033331745E+02  0.13009237293E+03  0.12500249796E+03 0.  0.
    9000005    1    3    3    0    0 -0.56844520985E+02 -0.15148466208E+02  0.39281925559E+01  0.58967841162E+02  0.10000000000E+01 0.  0.
    9000005    1    3    3    0    0  0.56844520985E+02  0.15148466208E+02 -0.39961524301E+02  0.71124531766E+02  0.10000000000E+01 0.  0.
<mgrwt>
<rscale>  0 0.12500250E+03</rscale>
<asrwt>0</asrwt>
<pdfrwt beam="2">  1        4 0.12778900E-01 0.12500250E+03</pdfrwt>
<pdfrwt beam="1">  1       -4 0.72353108E-02 0.12500250E+03</pdfrwt>
<totfact> 0.10341949E+04</totfact>
</mgrwt>
</event>
<event>
 5    1  0.3225662E-002  0.1249937E+03  0.7818608E-02  0.1235079E+00
         -4   -1    0    0    0  501 -0.00000000000E+00  0.00000000000E+00  0.82767407543E+02  0.82777150539E+02  0.12700000000E+01 0. -1.
          4   -1    0    0  501    0  0.00000000000E+00 -0.00000000000E+00 -0.47169669162E+02  0.47186762856E+02  0.12700000000E+01 0. -1.
         25    2    1    2    0    0  0.00000000000E+00  0.00000000000E+00  0.35597738381E+02  0.12996391340E+03  0.12499367907E+03 0.  0.
    9000005    1    3    3    0    0 -0.39599470098E+02 -0.24032771341E+02 -0.25811297612E+02  0.53036923126E+02  0.10000000000E+01 0.  0.
    9000005    1    3    3    0    0  0.39599470098E+02  0.24032771341E+02  0.61409035992E+02  0.76926990269E+02  0.10000000000E+01 0.  0.
<mgrwt>
<rscale>  0 0.12499368E+03</rscale>
<asrwt>0</asrwt>
<pdfrwt beam="2">  1        4 0.72589366E-02 0.12499368E+03</pdfrwt>
<pdfrwt beam="1">  1       -4 0.12735512E-01 0.12499368E+03</pdfrwt>
<totfact> 0.10346756E+04</totfact>
</mgrwt>
</event>
<event>
 5    1  0.3225662E-002  0.1250027E+03  0.7818608E-02  0.1235065E+00
         -4   -1    0    0    0  501 -0.00000000000E+00  0.00000000000E+00  0.68638431372E+02  0.68650179615E+02  0.12700000000E+01 0. -1.
          4   -1    0    0  501    0  0.00000000000E+00 -0.00000000000E+00 -0.56889326800E+02  0.56903500804E+02  0.12700000000E+01 0. -1.
         25    2    1    2    0    0  0.00000000000E+00  0.00000000000E+00  0.11749104572E+02  0.12555368042E+03  0.12500274080E+03 0.  0.
    9000005    1    3    3    0    0 -0.70070228959E+01  0.59298262838E+02 -0.12646866430E+02  0.61043636654E+02  0.10000000000E+01 0.  0.
    9000005    1    3    3    0    0  0.70070228959E+01 -0.59298262838E+02  0.24395971001E+02  0.64510043765E+02  0.10000000000E+01 0.  0.
<mgrwt>
<rscale>  0 0.12500274E+03</rscale>
<asrwt>0</asrwt>
<pdfrwt beam="2">  1        4 0.87541982E-02 0.12500274E+03</pdfrwt>
<pdfrwt beam="1">  1       -4 0.10561753E-01 0.12500274E+03</pdfrwt>
<totfact> 0.10440123E+04</totfact>
</mgrwt>
</event>
<event>
 5    1  0.3225662E-002  0.1250029E+03  0.7818608E-02  0.1235065E+00
          4   -1    0    0  501    0  0.00000000000E+00  0.00000000000E+00  0.47496892295E+03  0.47497062085E+03  0.12700000000E+01 0.  1.
         -4   -1    0    0    0  501 -0.00000000000E+00 -0.00000000000E+00 -0.81738579318E+01  0.82719316661E+01  0.12700000000E+01 0.  1.
         25    2    1    2    0    0  0.00000000000E+00  0.00000000000E+00  0.46679506502E+03  0.48324255252E+03  0.12500292730E+03 0.  0.
    9000005    1    3    3    0    0 -0.58824791700E+02 -0.44571498645E+01  0.31311381834E+03  0.31862436432E+03  0.10000000000E+01 0.  0.
    9000005    1    3    3    0    0  0.58824791700E+02  0.44571498645E+01  0.15368124668E+03  0.16461818820E+03  0.10000000000E+01 0.  0.
<mgrwt>
<rscale>  0 0.12500293E+03</rscale>
<asrwt>0</asrwt>
<pdfrwt beam="1">  1        4 0.73079846E-01 0.12500293E+03</pdfrwt>
<pdfrwt beam="2">  1       -4 0.12651908E-02 0.12500293E+03</pdfrwt>
<totfact> 0.57184690E+03</totfact>
</mgrwt>
</event>
<event>
 5    1  0.3225662E-002  0.1250001E+03  0.7818608E-02  0.1235069E+00
         -4   -1    0    0    0  501 -0.00000000000E+00  0.00000000000E+00  0.55161635228E+02  0.55176253053E+02  0.12700000000E+01 0.  1.
          4   -1    0    0  501    0  0.00000000000E+00 -0.00000000000E+00 -0.70785058706E+02  0.70796450731E+02  0.12700000000E+01 0.  1.
         25    2    1    2    0    0  0.00000000000E+00  0.00000000000E+00 -0.15623423479E+02  0.12597270378E+03  0.12500012295E+03 0.  0.
    9000005    1    3    3    0    0  0.50668212916E+02  0.36540903082E+02 -0.61398020796E+01  0.62778997823E+02  0.10000000000E+01 0.  0.
    9000005    1    3    3    0    0 -0.50668212916E+02 -0.36540903082E+02 -0.94836213991E+01  0.63193705960E+02  0.10000000000E+01 0.  0.
<mgrwt>
<rscale>  0 0.12500012E+03</rscale>
<asrwt>0</asrwt>
<pdfrwt beam="2">  1        4 0.10892010E-01 0.12500012E+03</pdfrwt>
<pdfrwt beam="1">  1       -4 0.84884061E-02 0.12500012E+03</pdfrwt>
<totfact> 0.10431526E+04</totfact>
</mgrwt>
</event>
<event>
 5    1  0.3225662E-002  0.1250006E+03  0.7818608E-02  0.1235068E+00
         -4   -1    0    0    0  501 -0.00000000000E+00  0.00000000000E+00  0.11143072918E+02  0.11215211725E+02  0.12700000000E+01 0.  1.
          4   -1    0    0  501    0  0.00000000000E+00 -0.00000000000E+00 -0.34935325590E+03  0.34935556430E+03  0.12700000000E+01 0.  1.
         25    2    1    2    0    0  0.00000000000E+00  0.00000000000E+00 -0.33821018298E+03  0.36057077603E+03  0.12500062660E+03 0.  0.
    9000005    1    3    3    0    0  0.58034722468E+02 -0.23059215397E+02 -0.17589006747E+03  0.18664959754E+03  0.10000000000E+01 0.  0.
    9000005    1    3    3    0    0 -0.58034722468E+02  0.23059215397E+02 -0.16232011551E+03  0.17392117849E+03  0.10000000000E+01 0.  0.
<mgrwt>
<rscale>  0 0.12500063E+03</rscale>
<asrwt>0</asrwt>
<pdfrwt beam="2">  1        4 0.53752373E-01 0.12500063E+03</pdfrwt>
<pdfrwt beam="1">  1       -4 0.17200459E-02 0.12500063E+03</pdfrwt>
<totfact> 0.68576139E+03</totfact>
</mgrwt>
</event>
<event>
 5    1  0.3225662E-002  0.1250055E+03  0.7818608E-02  0.1235061E+00
          4   -1    0    0  501    0  0.00000000000E+00  0.00000000000E+00  0.12029215932E+03  0.12029886323E+03  0.12700000000E+01 0.  1.
         -4   -1    0    0    0  501 -0.00000000000E+00 -0.00000000000E+00 -0.32455873048E+02  0.32480711127E+02  0.12700000000E+01 0.  1.
         25    2    1    2    0    0  0.00000000000E+00  0.00000000000E+00  0.87836286269E+02  0.15277957435E+03  0.12500554049E+03 0.  0.
    9000005    1    3    3    0    0 -0.50431550604E+02 -0.77622876321E+01 -0.18218690260E+00  0.51035552291E+02  0.10000000000E+01 0.  0.
    9000005    1    3    3    0    0  0.50431550604E+02  0.77622876321E+01  0.88018473172E+02  0.10174402206E+03  0.10000000000E+01 0.  0.
<mgrwt>
<rscale>  0 0.12500554E+03</rscale>
<asrwt>0</asrwt>
<pdfrwt beam="1">  1        4 0.18508912E-01 0.12500554E+03</pdfrwt>
<pdfrwt beam="2">  1       -4 0.49956376E-02 0.12500554E+03</pdfrwt>
<totfact> 0.98740181E+03</totfact>
</mgrwt>
</event>
<event>
 5    1  0.3225662E-002  0.1249998E+03  0.7818608E-02  0.1235070E+00
          4   -1    0    0  501    0  0.00000000000E+00  0.00000000000E+00  0.47513127598E+01  0.49181168084E+01  0.12700000000E+01 0. -1.
         -4   -1    0    0    0  501 -0.00000000000E+00 -0.00000000000E+00 -0.80778843035E+03  0.80778942870E+03  0.12700000000E+01 0. -1.
         25    2    1    2    0    0  0.00000000000E+00  0.00000000000E+00 -0.80303711759E+03  0.81270754551E+03  0.12499976915E+03 0.  0.
    9000005    1    3    3    0    0  0.30351006907E+02  0.42927961539E+02 -0.18187727813E+03  0.18932600931E+03  0.10000000000E+01 0.  0.
    9000005    1    3    3    0    0 -0.30351006907E+02 -0.42927961539E+02 -0.62115983947E+03  0.62338153620E+03  0.10000000000E+01 0.  0.
<mgrwt>
<rscale>  0 0.12499977E+03</rscale>
<asrwt>0</asrwt>
<pdfrwt beam="1">  1        4 0.74387971E-03 0.12499977E+03</pdfrwt>
<pdfrwt beam="2">  1       -4 0.12428794E+00 0.12499977E+03</pdfrwt>
<totfact> 0.37703907E+03</totfact>
</mgrwt>
</event>
<event>
 5    1  0.3225662E-002  0.1249988E+03  0.7818608E-02  0.1235071E+00
         -4   -1    0    0    0  501 -0.00000000000E+00  0.00000000000E+00  0.17611348802E+02  0.17657080920E+02  0.12700000000E+01 0.  1.
          4   -1    0    0  501    0  0.00000000000E+00 -0.00000000000E+00 -0.22146341083E+03  0.22146705226E+03  0.12700000000E+01 0.  1.
         25    2    1    2    0    0  0.00000000000E+00  0.00000000000E+00 -0.20385206203E+03  0.23912413318E+03  0.12499875150E+03 0.  0.
    9000005    1    3    3    0    0 -0.27626513391E+02 -0.33027684384E+02 -0.18856499412E+03  0.19342132557E+03  0.10000000000E+01 0.  0.
    9000005    1    3    3    0    0  0.27626513391E+02  0.33027684384E+02 -0.15287067903E+02  0.45702807605E+02  0.10000000000E+01 0.  0.
<mgrwt>
<rscale>  0 0.12499875E+03</rscale>
<asrwt>0</asrwt>
<pdfrwt beam="2">  1        4 0.34075090E-01 0.12499875E+03</pdfrwt>
<pdfrwt beam="1">  1       -4 0.27132364E-02 0.12499875E+03</pdfrwt>
<totfact> 0.83930322E+03</totfact>
</mgrwt>
</event>
<event>
 5    1  0.3225662E-002  0.1249976E+03  0.7818608E-02  0.1235073E+00
          4   -1    0    0  501    0  0.00000000000E+00  0.00000000000E+00  0.86201413274E+02  0.86210768182E+02  0.12700000000E+01 0. -1.
         -4   -1    0    0    0  501 -0.00000000000E+00 -0.00000000000E+00 -0.45292939963E+02  0.45310741668E+02  0.12700000000E+01 0. -1.
         25    2    1    2    0    0  0.00000000000E+00  0.00000000000E+00  0.40908473311E+02  0.13152150985E+03  0.12499761744E+03 0.  0.
    9000005    1    3    3    0    0 -0.29681593500E+02 -0.38574072474E+02  0.61693524892E+02  0.78587830314E+02  0.10000000000E+01 0.  0.
    9000005    1    3    3    0    0  0.29681593500E+02  0.38574072474E+02 -0.20785051582E+02  0.52933679535E+02  0.10000000000E+01 0.  0.
<mgrwt>
<rscale>  0 0.12499762E+03</rscale>
<asrwt>0</asrwt>
<pdfrwt beam="1">  1        4 0.13263845E-01 0.12499762E+03</pdfrwt>
<pdfrwt beam="2">  1       -4 0.69702337E-02 0.12499762E+03</pdfrwt>
<totfact> 0.10312476E+04</totfact>
</mgrwt>
</event>
<event>
 5    1  0.3225662E-002  0.1250025E+03  0.7818608E-02  0.1235065E+00
         -4   -1    0    0    0  501 -0.00000000000E+00  0.00000000000E+00  0.69010907753E+02  0.69022592597E+02  0.12700000000E+01 0. -1.
          4   -1    0    0  501    0  0.00000000000E+00 -0.00000000000E+00 -0.56582076408E+02  0.56596327360E+02  0.12700000000E+01 0. -1.
         25    2    1    2    0    0  0.00000000000E+00  0.00000000000E+00  0.12428831345E+02  0.12561891996E+03  0.12500254878E+03 0.  0.
    9000005    1    3    3    0    0  0.59040958887E+02  0.17458030264E+02 -0.45525007741E+01  0.61744173088E+02  0.10000000000E+01 0.  0.
    9000005    1    3    3    0    0 -0.59040958887E+02 -0.17458030264E+02  0.16981332119E+02  0.63874746869E+02  0.10000000000E+01 0.  0.
<mgrwt>
<rscale>  0 0.12500255E+03</rscale>
<asrwt>0</asrwt>
<pdfrwt beam="2">  1        4 0.87069299E-02 0.12500255E+03</pdfrwt>
<pdfrwt beam="1">  1       -4 0.10619058E-01 0.12500255E+03</pdfrwt>
<totfact> 0.10438730E+04</totfact>
</mgrwt>
</event>
<event>
 5    1  0.3225662E-002  0.1250118E+03  0.7818608E-02  0.1235051E+00
         -4   -1    0    0    0  501 -0.00000000000E+00  0.00000000000E+00  0.77140984107E+02  0.77151437634E+02  0.12700000000E+01 0.  1.
          4   -1    0    0  501    0  0.00000000000E+00 -0.00000000000E+00 -0.50625493502E+02  0.50641420718E+02  0.12700000000E+01 0.  1.
         25    2    1    2    0    0  0.00000000000E+00  0.00000000000E+00  0.26515490605E+02  0.12779285835E+03  0.12501177306E+03 0.  0.
    9000005    1    3    3    0    0  0.54005934040E+02 -0.23752441116E+02  0.34336025739E+02  0.68269920419E+02  0.10000000000E+01 0.  0.
    9000005    1    3    3    0    0 -0.54005934040E+02  0.23752441116E+02 -0.78205351337E+01  0.59522937934E+02  0.10000000000E+01 0.  0.
<mgrwt>
<rscale>  0 0.12501177E+03</rscale>
<asrwt>0</asrwt>
<pdfrwt beam="2">  1        4 0.77905667E-02 0.12501177E+03</pdfrwt>
<pdfrwt beam="1">  1       -4 0.11869873E-01 0.12501177E+03</pdfrwt>
<totfact> 0.10389202E+04</totfact>
</mgrwt>
</event>
<event>
 5    1  0.3225662E-002  0.1249998E+03  0.7818608E-02  0.1235070E+00
         -4   -1    0    0    0  501 -0.00000000000E+00  0.00000000000E+00  0.19268246541E+02  0.19310055017E+02  0.12700000000E+01 0.  1.
          4   -1    0    0  501    0  0.00000000000E+00 -0.00000000000E+00 -0.20246592291E+03  0.20246990601E+03  0.12700000000E+01 0.  1.
         25    2    1    2    0    0  0.00000000000E+00  0.00000000000E+00 -0.18319767637E+03  0.22177996103E+03  0.12499984995E+03 0.  0.
    9000005    1    3    3    0    0  0.56646602362E+02  0.25127822757E+02 -0.10590274734E+03  0.12270548858E+03  0.10000000000E+01 0.  0.
    9000005    1    3    3    0    0 -0.56646602362E+02 -0.25127822757E+02 -0.77294929038E+02  0.99074472447E+02  0.10000000000E+01 0.  0.
<mgrwt>
<rscale>  0 0.12499985E+03</rscale>
<asrwt>0</asrwt>
<pdfrwt beam="2">  1        4 0.31152124E-01 0.12499985E+03</pdfrwt>
<pdfrwt beam="1">  1       -4 0.29678682E-02 0.12499985E+03</pdfrwt>
<totfact> 0.86587766E+03</totfact>
</mgrwt>
</event>
<event>
 5    1  0.3225662E-002  0.1250038E+03  0.7818608E-02  0.1235063E+00
          4   -1    0    0  501    0  0.00000000000E+00  0.00000000000E+00  0.33428484200E+02  0.33452600137E+02  0.12700000000E+01 0. -1.
         -4   -1    0    0    0  501 -0.00000000000E+00 -0.00000000000E+00 -0.11679138970E+03  0.11679829454E+03  0.12700000000E+01 0. -1.
         25    2    1    2    0    0  0.00000000000E+00  0.00000000000E+00 -0.83362905497E+02  0.15025089468E+03  0.12500382929E+03 0.  0.
    9000005    1    3    3    0    0  0.87063173187E+01 -0.40413136138E+02 -0.98013582394E+02  0.10637990349E+03  0.10000000000E+01 0.  0.
    9000005    1    3    3    0    0 -0.87063173187E+01  0.40413136138E+02  0.14650676897E+02  0.43870991182E+02  0.10000000000E+01 0.  0.
<mgrwt>
<rscale>  0 0.12500383E+03</rscale>
<asrwt>0</asrwt>
<pdfrwt beam="1">  1        4 0.51452300E-02 0.12500383E+03</pdfrwt>
<pdfrwt beam="2">  1       -4 0.17970292E-01 0.12500383E+03</pdfrwt>
<totfact> 0.99245157E+03</totfact>
</mgrwt>
</event>
<event>
 5    1  0.3225662E-002  0.1250030E+03  0.7818608E-02  0.1235065E+00
          4   -1    0    0  501    0  0.00000000000E+00  0.00000000000E+00  0.14482083798E+04  0.14482089367E+04  0.12700000000E+01 0. -1.
         -4   -1    0    0    0  501 -0.00000000000E+00 -0.00000000000E+00 -0.25473563797E+01  0.28463879787E+01  0.12700000000E+01 0. -1.
         25    2    1    2    0    0  0.00000000000E+00  0.00000000000E+00  0.14456610234E+04  0.14510553247E+04  0.12500304207E+03 0.  0.
    9000005    1    3    3    0    0  0.40074606901E+02  0.36067611498E+02  0.10896545080E+04  0.10909879896E+04  0.10000000000E+01 0.  0.
    9000005    1    3    3    0    0 -0.40074606901E+02 -0.36067611498E+02  0.35600651547E+03  0.36006733505E+03  0.10000000000E+01 0.  0.
<mgrwt>
<rscale>  0 0.12500304E+03</rscale>
<asrwt>0</asrwt>
<pdfrwt beam="1">  1        4 0.22282395E+00 0.12500304E+03</pdfrwt>
<pdfrwt beam="2">  1       -4 0.41494697E-03 0.12500304E+03</pdfrwt>
<totfact> 0.18909921E+03</totfact>
</mgrwt>
</event>
<event>
 5    1  0.3225662E-002  0.1249980E+03  0.7818608E-02  0.1235072E+00
          4   -1    0    0  501    0  0.00000000000E+00  0.00000000000E+00  0.17975661854E+03  0.17976110483E+03  0.12700000000E+01 0. -1.
         -4   -1    0    0    0  501 -0.00000000000E+00 -0.00000000000E+00 -0.21706744171E+02  0.21743864479E+02  0.12700000000E+01 0. -1.
         25    2    1    2    0    0  0.00000000000E+00  0.00000000000E+00  0.15804987437E+03  0.20150496931E+03  0.12499795945E+03 0.  0.
    9000005    1    3    3    0    0 -0.56846209939E+02  0.27313607803E+01  0.12063281375E+03  0.13338750942E+03  0.10000000000E+01 0.  0.
    9000005    1    3    3    0    0  0.56846209939E+02 -0.27313607803E+01  0.37417060622E+02  0.68117459889E+02  0.10000000000E+01 0.  0.
<mgrwt>
<rscale>  0 0.12499796E+03</rscale>
<asrwt>0</asrwt>
<pdfrwt beam="1">  1        4 0.27658063E-01 0.12499796E+03</pdfrwt>
<pdfrwt beam="2">  1       -4 0.33426998E-02 0.12499796E+03</pdfrwt>
<totfact> 0.89886405E+03</totfact>
</mgrwt>
</event>
<event>
 5    1  0.3225662E-002  0.1250002E+03  0.7818608E-02  0.1235069E+00
          4   -1    0    0  501    0  0.00000000000E+00  0.00000000000E+00  0.24962834464E+02  0.24995119613E+02  0.12700000000E+01 0.  1.
         -4   -1    0    0    0  501 -0.00000000000E+00 -0.00000000000E+00 -0.15634710880E+03  0.15635226678E+03  0.12700000000E+01 0.  1.
         25    2    1    2    0    0  0.00000000000E+00  0.00000000000E+00 -0.13138427433E+03  0.18134738640E+03  0.12500018805E+03 0.  0.
    9000005    1    3    3    0    0 -0.45909997323E+02 -0.41651211289E+02 -0.54203440702E+02  0.82350253430E+02  0.10000000000E+01 0.  0.
    9000005    1    3    3    0    0  0.45909997323E+02  0.41651211289E+02 -0.77180833629E+02  0.98997132968E+02  0.10000000000E+01 0.  0.
<mgrwt>
<rscale>  0 0.12500019E+03</rscale>
<asrwt>0</asrwt>
<pdfrwt beam="1">  1        4 0.38433164E-02 0.12500019E+03</pdfrwt>
<pdfrwt beam="2">  1       -4 0.24056281E-01 0.12500019E+03</pdfrwt>
<totfact> 0.93374636E+03</totfact>
</mgrwt>
</event>
<event>
 5    1  0.3225662E-002  0.1250016E+03  0.7818608E-02  0.1235067E+00
         -4   -1    0    0    0  501 -0.00000000000E+00  0.00000000000E+00  0.27428546989E+03  0.27428841006E+03  0.12700000000E+01 0. -1.
          4   -1    0    0  501    0  0.00000000000E+00 -0.00000000000E+00 -0.14210568537E+02  0.14267205688E+02  0.12700000000E+01 0. -1.
         25    2    1    2    0    0  0.00000000000E+00  0.00000000000E+00  0.26007490135E+03  0.28855561575E+03  0.12500155625E+03 0.  0.
    9000005    1    3    3    0    0  0.32906696818E+02  0.53119097606E+02  0.12789915391E+03  0.14235056304E+03  0.10000000000E+01 0.  0.
    9000005    1    3    3    0    0 -0.32906696818E+02 -0.53119097606E+02  0.13217574744E+03  0.14620505271E+03  0.10000000000E+01 0.  0.
<mgrwt>
<rscale>  0 0.12500156E+03</rscale>
<asrwt>0</asrwt>
<pdfrwt beam="2">  1        4 0.21908243E-02 0.12500156E+03</pdfrwt>
<pdfrwt beam="1">  1       -4 0.42202346E-01 0.12500156E+03</pdfrwt>
<totfact> 0.77054534E+03</totfact>
</mgrwt>
</event>
<event>
 5    1  0.3225662E-002  0.1249981E+03  0.7818608E-02  0.1235072E+00
          4   -1    0    0  501    0  0.00000000000E+00  0.00000000000E+00  0.26771322681E+02  0.26801429404E+02  0.12700000000E+01 0.  1.
         -4   -1    0    0    0  501 -0.00000000000E+00 -0.00000000000E+00 -0.14579252643E+03  0.14579805782E+03  0.12700000000E+01 0.  1.
         25    2    1    2    0    0  0.00000000000E+00  0.00000000000E+00 -0.11902120375E+03  0.17259948722E+03  0.12499814417E+03 0.  0.
    9000005    1    3    3    0    0 -0.24252197984E+02 -0.31944906676E+02 -0.12568164962E+03  0.13192999363E+03  0.10000000000E+01 0.  0.
    9000005    1    3    3    0    0  0.24252197984E+02  0.31944906676E+02  0.66604458665E+01  0.40669493588E+02  0.10000000000E+01 0.  0.
<mgrwt>
<rscale>  0 0.12499814E+03</rscale>
<asrwt>0</asrwt>
<pdfrwt beam="1">  1        4 0.41214065E-02 0.12499814E+03</pdfrwt>
<pdfrwt beam="2">  1       -4 0.22432360E-01 0.12499814E+03</pdfrwt>
<totfact> 0.94970292E+03</totfact>
</mgrwt>
</event>
<event>
 5    1  0.3225662E-002  0.1249918E+03  0.7818608E-02  0.1235082E+00
          4   -1    0    0  501    0  0.00000000000E+00  0.00000000000E+00  0.33008349032E+02  0.33032771694E+02  0.12700000000E+01 0. -1.
         -4   -1    0    0    0  501 -0.00000000000E+00 -0.00000000000E+00 -0.11825410323E+03  0.11826092267E+03  0.12700000000E+01 0. -1.
         25    2    1    2    0    0  0.00000000000E+00  0.00000000000E+00 -0.85245754197E+02  0.15129369436E+03  0.12499177311E+03 0.  0.
    9000005    1    3    3    0    0  0.33247468990E+02 -0.24415981944E+02 -0.99438334191E+02  0.10765926191E+03  0.10000000000E+01 0.  0.
    9000005    1    3    3    0    0 -0.33247468990E+02  0.24415981944E+02  0.14192579994E+02  0.43634432452E+02  0.10000000000E+01 0.  0.
<mgrwt>
<rscale>  0 0.12499177E+03</rscale>
<asrwt>0</asrwt>
<pdfrwt beam="1">  1        4 0.50806108E-02 0.12499177E+03</pdfrwt>
<pdfrwt beam="2">  1       -4 0.18195342E-01 0.12499177E+03</pdfrwt>
<totfact> 0.99064780E+03</totfact>
</mgrwt>
</event>
<event>
 5    1  0.3225662E-002  0.1250029E+03  0.7818608E-02  0.1235065E+00
         -4   -1    0    0    0  501 -0.00000000000E+00  0.00000000000E+00  0.67297745534E+02  0.67309727781E+02  0.12700000000E+01 0. -1.
          4   -1    0    0  501    0  0.00000000000E+00 -0.00000000000E+00 -0.58022894138E+02  0.58036791298E+02  0.12700000000E+01 0. -1.
         25    2    1    2    0    0  0.00000000000E+00  0.00000000000E+00  0.92748513952E+01  0.12534651908E+03  0.12500290787E+03 0.  0.
    9000005    1    3    3    0    0  0.42124832669E+02 -0.46078935105E+02  0.74130584236E+01  0.62878638845E+02  0.10000000000E+01 0.  0.
    9000005    1    3    3    0    0 -0.42124832669E+02  0.46078935105E+02  0.18617929716E+01  0.62467880234E+02  0.10000000000E+01 0.  0.
<mgrwt>
<rscale>  0 0.12500291E+03</rscale>
<asrwt>0</asrwt>
<pdfrwt beam="2">  1        4 0.89285899E-02 0.12500291E+03</pdfrwt>
<pdfrwt beam="1">  1       -4 0.10355490E-01 0.12500291E+03</pdfrwt>
<totfact> 0.10444654E+04</totfact>
</mgrwt>
</event>
<event>
 5    1  0.3225662E-002  0.1249994E+03  0.7818608E-02  0.1235070E+00
         -4   -1    0    0    0  501 -0.00000000000E+00  0.00000000000E+00  0.25557088370E+02  0.25588623761E+02  0.12700000000E+01 0.  1.
          4   -1    0    0  501    0  0.00000000000E+00 -0.00000000000E+00 -0.15271417196E+03  0.15271945265E+03  0.12700000000E+01 0.  1.
         25    2    1    2    0    0  0.00000000000E+00  0.00000000000E+00 -0.12715708359E+03  0.17830807641E+03  0.12499938482E+03 0.  0.
    9000005    1    3    3    0    0  0.31960845610E+02 -0.53693404098E+02 -0.62356216393E+02  0.88282359612E+02  0.10000000000E+01 0.  0.
    9000005    1    3    3    0    0 -0.31960845610E+02  0.53693404098E+02 -0.64800867200E+02  0.90025716802E+02  0.10000000000E+01 0.  0.
<mgrwt>
<rscale>  0 0.12499938E+03</rscale>
<asrwt>0</asrwt>
<pdfrwt beam="2">  1        4 0.23497319E-01 0.12499938E+03</pdfrwt>
<pdfrwt beam="1">  1       -4 0.39346918E-02 0.12499938E+03</pdfrwt>
<totfact> 0.93923740E+03</totfact>
</mgrwt>
</event>
<event>
 5    1  0.3225662E-002  0.1250035E+03  0.7818608E-02  0.1235064E+00
          4   -1    0    0  501    0  0.00000000000E+00  0.00000000000E+00  0.37284565884E+01  0.39388181643E+01  0.12700000000E+01 0. -1.
         -4   -1    0    0    0  501 -0.00000000000E+00 -0.00000000000E+00 -0.10187878573E+04  0.10187886489E+04  0.12700000000E+01 0. -1.
         25    2    1    2    0    0  0.00000000000E+00  0.00000000000E+00 -0.10150594007E+04  0.10227274670E+04  0.12500353943E+03 0.  0.
    9000005    1    3    3    0    0  0.60119711305E+01 -0.49017444977E+02 -0.19420398321E+03  0.20038722714E+03  0.10000000000E+01 0.  0.
    9000005    1    3    3    0    0 -0.60119711305E+01  0.49017444977E+02 -0.82085541749E+03  0.82234023988E+03  0.10000000000E+01 0.  0.
<mgrwt>
<rscale>  0 0.12500354E+03</rscale>
<asrwt>0</asrwt>
<pdfrwt beam="1">  1        4 0.58985207E-03 0.12500354E+03</pdfrwt>
<pdfrwt beam="2">  1       -4 0.15675262E+00 0.12500354E+03</pdfrwt>
<totfact> 0.29859563E+03</totfact>
</mgrwt>
</event>
<event>
 5    1  0.3225662E-002  0.1249996E+03  0.7818608E-02  0.1235070E+00
          4   -1    0    0  501    0  0.00000000000E+00  0.00000000000E+00  0.21146142975E+03  0.21146524341E+03  0.12700000000E+01 0.  1.
         -4   -1    0    0    0  501 -0.00000000000E+00 -0.00000000000E+00 -0.18446702834E+02  0.18490368991E+02  0.12700000000E+01 0.  1.
         25    2    1    2    0    0  0.00000000000E+00  0.00000000000E+00  0.19301472691E+03  0.22995561240E+03  0.12499959548E+03 0.  0.
    9000005    1    3    3    0    0  0.54089248077E+01 -0.55487409086E+02  0.44568064570E+02  0.71382220575E+02  0.10000000000E+01 0.  0.
    9000005    1    3    3    0    0 -0.54089248077E+01  0.55487409086E+02  0.14844666234E+03  0.15857339183E+03  0.10000000000E+01 0.  0.
<mgrwt>
<rscale>  0 0.12499960E+03</rscale>
<asrwt>0</asrwt>
<pdfrwt beam="1">  1        4 0.32536181E-01 0.12499960E+03</pdfrwt>
<pdfrwt beam="2">  1       -4 0.28416065E-02 0.12499960E+03</pdfrwt>
<totfact> 0.85317181E+03</totfact>
</mgrwt>
</event>
<event>
 5    1  0.3225662E-002  0.1249792E+03  0.7818608E-02  0.1235102E+00
          4   -1    0    0  501    0  0.00000000000E+00  0.00000000000E+00  0.69406223946E+02  0.69417842249E+02  0.12700000000E+01 0.  1.
         -4   -1    0    0    0  501 -0.00000000000E+00 -0.00000000000E+00 -0.56238744499E+02  0.56253082430E+02  0.12700000000E+01 0.  1.
         25    2    1    2    0    0  0.00000000000E+00  0.00000000000E+00  0.13167479447E+02  0.12567092468E+03  0.12497919345E+03 0.  0.
    9000005    1    3    3    0    0 -0.39815849499E+02 -0.29185936942E+02  0.45094919544E+02  0.66870565686E+02  0.10000000000E+01 0.  0.
    9000005    1    3    3    0    0  0.39815849499E+02  0.29185936942E+02 -0.31927440097E+02  0.58800358992E+02  0.10000000000E+01 0.  0.
<mgrwt>
<rscale>  0 0.12497919E+03</rscale>
<asrwt>0</asrwt>
<pdfrwt beam="1">  1        4 0.10679877E-01 0.12497919E+03</pdfrwt>
<pdfrwt beam="2">  1       -4 0.86541112E-02 0.12497919E+03</pdfrwt>
<totfact> 0.10443086E+04</totfact>
</mgrwt>
</event>
<event>
 5    1  0.3225662E-002  0.1250135E+03  0.7818608E-02  0.1235048E+00
         -4   -1    0    0    0  501 -0.00000000000E+00  0.00000000000E+00  0.41067817846E+01  0.42986691692E+01  0.12700000000E+01 0.  1.
          4   -1    0    0  501    0  0.00000000000E+00 -0.00000000000E+00 -0.92946548699E+03  0.92946635464E+03  0.12700000000E+01 0.  1.
         25    2    1    2    0    0  0.00000000000E+00  0.00000000000E+00 -0.92535870520E+03  0.93376502381E+03  0.12501354482E+03 0.  0.
    9000005    1    3    3    0    0 -0.22399947619E+02 -0.49292678265E+02 -0.69585717000E+03  0.69796112129E+03  0.10000000000E+01 0.  0.
    9000005    1    3    3    0    0  0.22399947619E+02  0.49292678265E+02 -0.22950153520E+03  0.23580390252E+03  0.10000000000E+01 0.  0.
<mgrwt>
<rscale>  0 0.12501354E+03</rscale>
<asrwt>0</asrwt>
<pdfrwt beam="2">  1        4 0.14300935E+00 0.12501354E+03</pdfrwt>
<pdfrwt beam="1">  1       -4 0.64664063E-03 0.12501354E+03</pdfrwt>
<totfact> 0.32889799E+03</totfact>
</mgrwt>
</event>
<event>
 5    1  0.3225662E-002  0.1250037E+03  0.7818608E-02  0.1235063E+00
         -4   -1    0    0    0  501 -0.00000000000E+00  0.00000000000E+00  0.39895184441E+02  0.39915393542E+02  0.12700000000E+01 0.  1.
          4   -1    0    0  501    0  0.00000000000E+00 -0.00000000000E+00 -0.97869516433E+02  0.97877756139E+02  0.12700000000E+01 0.  1.
         25    2    1    2    0    0  0.00000000000E+00  0.00000000000E+00 -0.57974331992E+02  0.13779314968E+03  0.12500371566E+03 0.  0.
    9000005    1    3    3    0    0  0.35061883542E+02  0.43751632095E+02  0.14402762157E+01  0.56094700143E+02  0.10000000000E+01 0.  0.
    9000005    1    3    3    0    0 -0.35061883542E+02 -0.43751632095E+02 -0.59414608207E+02  0.81698449538E+02  0.10000000000E+01 0.  0.
<mgrwt>
<rscale>  0 0.12500372E+03</rscale>
<asrwt>0</asrwt>
<pdfrwt beam="2">  1        4 0.15059037E-01 0.12500372E+03</pdfrwt>
<pdfrwt beam="1">  1       -4 0.61399091E-02 0.12500372E+03</pdfrwt>
<totfact> 0.10178675E+04</totfact>
</mgrwt>
</event>
<event>
 5    1  0.3225662E-002  0.1249944E+03  0.7818608E-02  0.1235078E+00
         -4   -1    0    0    0  501 -0.00000000000E+00  0.00000000000E+00  0.52320268231E+02  0.52335679682E+02  0.12700000000E+01 0.  1.
          4   -1    0    0  501    0  0.00000000000E+00 -0.00000000000E+00 -0.74621821186E+02  0.74632627564E+02  0.12700000000E+01 0.  1.
         25    2    1    2    0    0  0.00000000000E+00  0.00000000000E+00 -0.22301552955E+02  0.12696830725E+03  0.12499436700E+03 0.  0.
    9000005    1    3    3    0    0  0.45240340474E+02 -0.77480730945E+01  0.31923807880E+02  0.55918248832E+02  0.10000000000E+01 0.  0.
    9000005    1    3    3    0    0 -0.45240340474E+02  0.77480730945E+01 -0.54225360835E+02  0.71050058413E+02  0.10000000000E+01 0.  0.
<mgrwt>
<rscale>  0 0.12499437E+03</rscale>
<asrwt>0</asrwt>
<pdfrwt beam="2">  1        4 0.11482297E-01 0.12499437E+03</pdfrwt>
<pdfrwt beam="1">  1       -4 0.80512888E-02 0.12499437E+03</pdfrwt>
<totfact> 0.10411158E+04</totfact>
</mgrwt>
</event>
<event>
 5    1  0.3225662E-002  0.1250050E+03  0.7818608E-02  0.1235061E+00
          4   -1    0    0  501    0  0.00000000000E+00  0.00000000000E+00  0.56980027070E+01  0.58378193573E+01  0.12700000000E+01 0.  1.
         -4   -1    0    0    0  501 -0.00000000000E+00 -0.00000000000E+00 -0.67715237929E+03  0.67715357023E+03  0.12700000000E+01 0.  1.
         25    2    1    2    0    0  0.00000000000E+00  0.00000000000E+00 -0.67145437658E+03  0.68299138959E+03  0.12500503358E+03 0.  0.
    9000005    1    3    3    0    0  0.44198097304E+02 -0.36907160507E+02 -0.20301924635E+03  0.21102944034E+03  0.10000000000E+01 0.  0.
    9000005    1    3    3    0    0 -0.44198097304E+02  0.36907160507E+02 -0.46843513024E+03  0.47196194925E+03  0.10000000000E+01 0.  0.
<mgrwt>
<rscale>  0 0.12500503E+03</rscale>
<asrwt>0</asrwt>
<pdfrwt beam="1">  1        4 0.88746307E-03 0.12500503E+03</pdfrwt>
<pdfrwt beam="2">  1       -4 0.10418807E+00 0.12500503E+03</pdfrwt>
<totfact> 0.43995070E+03</totfact>
</mgrwt>
</event>
<event>
 5    1  0.3225662E-002  0.1250042E+03  0.7818608E-02  0.1235063E+00
         -4   -1    0    0    0  501 -0.00000000000E+00  0.00000000000E+00  0.15708984696E+02  0.15760237948E+02  0.12700000000E+01 0. -1.
          4   -1    0    0  501    0  0.00000000000E+00 -0.00000000000E+00 -0.24822230568E+03  0.24822555456E+03  0.12700000000E+01 0. -1.
         25    2    1    2    0    0  0.00000000000E+00  0.00000000000E+00 -0.23251332098E+03  0.26398579251E+03  0.12500421678E+03 0.  0.
    9000005    1    3    3    0    0 -0.55204798975E+02  0.15664325646E+02 -0.63988804807E+02  0.85956431222E+02  0.10000000000E+01 0.  0.
    9000005    1    3    3    0    0  0.55204798975E+02 -0.15664325646E+02 -0.16852451617E+03  0.17802936128E+03  0.10000000000E+01 0.  0.
<mgrwt>
<rscale>  0 0.12500422E+03</rscale>
<asrwt>0</asrwt>
<pdfrwt beam="2">  1        4 0.38192237E-01 0.12500422E+03</pdfrwt>
<pdfrwt beam="1">  1       -4 0.24209595E-02 0.12500422E+03</pdfrwt>
<totfact> 0.80342407E+03</totfact>
</mgrwt>
</event>
<event>
 5    1  0.3225662E-002  0.1249910E+03  0.7818608E-02  0.1235083E+00
         -4   -1    0    0    0  501 -0.00000000000E+00  0.00000000000E+00  0.15395624001E+02  0.15447916959E+02  0.12700000000E+01 0.  1.
          4   -1    0    0  501    0  0.00000000000E+00 -0.00000000000E+00 -0.25320408186E+03  0.25320726682E+03  0.12700000000E+01 0.  1.
         25    2    1    2    0    0  0.00000000000E+00  0.00000000000E+00 -0.23780845786E+03  0.26865518378E+03  0.12499098024E+03 0.  0.
    9000005    1    3    3    0    0  0.31844731006E+02 -0.20721673345E+02 -0.12271375321E+02  0.39938218430E+02  0.10000000000E+01 0.  0.
    9000005    1    3    3    0    0 -0.31844731006E+02  0.20721673345E+02 -0.22553708254E+03  0.22871696535E+03  0.10000000000E+01 0.  0.
<mgrwt>
<rscale>  0 0.12499098E+03</rscale>
<asrwt>0</asrwt>
<pdfrwt beam="2">  1        4 0.38958739E-01 0.12499098E+03</pdfrwt>
<pdfrwt beam="1">  1       -4 0.23728253E-02 0.12499098E+03</pdfrwt>
<totfact> 0.79722563E+03</totfact>
</mgrwt>
</event>
<event>
 5    1  0.3225662E-002  0.1250141E+03  0.7818608E-02  0.1235047E+00
         -4   -1    0    0    0  501 -0.00000000000E+00  0.00000000000E+00  0.15517098990E+02  0.15568983945E+02  0.12700000000E+01 0.  1.
          4   -1    0    0  501    0  0.00000000000E+00 -0.00000000000E+00 -0.25132154551E+03  0.25132475433E+03  0.12700000000E+01 0.  1.
         25    2    1    2    0    0  0.00000000000E+00  0.00000000000E+00 -0.23580444652E+03  0.26689373827E+03  0.12501412132E+03 0.  0.
    9000005    1    3    3    0    0 -0.53329827152E+02 -0.32321888645E+02 -0.10900764853E+03  0.12558838477E+03  0.10000000000E+01 0.  0.
    9000005    1    3    3    0    0  0.53329827152E+02  0.32321888645E+02 -0.12679679799E+03  0.14130535351E+03  0.10000000000E+01 0.  0.
<mgrwt>
<rscale>  0 0.12501412E+03</rscale>
<asrwt>0</asrwt>
<pdfrwt beam="2">  1        4 0.38669088E-01 0.12501412E+03</pdfrwt>
<pdfrwt beam="1">  1       -4 0.23914842E-02 0.12501412E+03</pdfrwt>
<totfact> 0.79923140E+03</totfact>
</mgrwt>
</event>
<event>
 5    1  0.3225662E-002  0.1249989E+03  0.7818608E-02  0.1235071E+00
          4   -1    0    0  501    0  0.00000000000E+00  0.00000000000E+00  0.19010568873E+03  0.19010993079E+03  0.12700000000E+01 0. -1.
         -4   -1    0    0    0  501 -0.00000000000E+00 -0.00000000000E+00 -0.20523325172E+02  0.20562581942E+02  0.12700000000E+01 0. -1.
         25    2    1    2    0    0  0.00000000000E+00  0.00000000000E+00  0.16958236356E+03  0.21067251274E+03  0.12499891837E+03 0.  0.
    9000005    1    3    3    0    0  0.58049343784E+00 -0.33840276244E+02  0.17332946000E+03  0.17660578409E+03  0.10000000000E+01 0.  0.
    9000005    1    3    3    0    0 -0.58049343784E+00  0.33840276244E+02 -0.37470964469E+01  0.34066728647E+02  0.10000000000E+01 0.  0.
<mgrwt>
<rscale>  0 0.12499892E+03</rscale>
<asrwt>0</asrwt>
<pdfrwt beam="1">  1        4 0.29250375E-01 0.12499892E+03</pdfrwt>
<pdfrwt beam="2">  1       -4 0.31607807E-02 0.12499892E+03</pdfrwt>
<totfact> 0.88368304E+03</totfact>
</mgrwt>
</event>
<event>
 5    1  0.3225662E-002  0.1250225E+03  0.7818608E-02  0.1235034E+00
         -4   -1    0    0    0  501 -0.00000000000E+00  0.00000000000E+00  0.34464351715E+01  0.36729845346E+01  0.12700000000E+01 0.  1.
          4   -1    0    0  501    0  0.00000000000E+00 -0.00000000000E+00 -0.10975196727E+04  0.10975204075E+04  0.12700000000E+01 0.  1.
         25    2    1    2    0    0  0.00000000000E+00  0.00000000000E+00 -0.10940732376E+04  0.11011933921E+04  0.12502254825E+03 0.  0.
    9000005    1    3    3    0    0 -0.24075836624E+02  0.57633034435E+02 -0.56759301431E+03  0.57102017693E+03  0.10000000000E+01 0.  0.
    9000005    1    3    3    0    0  0.24075836624E+02 -0.57633034435E+02 -0.52648022327E+03  0.53017321515E+03  0.10000000000E+01 0.  0.
<mgrwt>
<rscale>  0 0.12502255E+03</rscale>
<asrwt>0</asrwt>
<pdfrwt beam="2">  1        4 0.16886639E+00 0.12502255E+03</pdfrwt>
<pdfrwt beam="1">  1       -4 0.54770507E-03 0.12502255E+03</pdfrwt>
<totfact> 0.27435044E+03</totfact>
</mgrwt>
</event>
<event>
 5    1  0.3225662E-002  0.1249985E+03  0.7818608E-02  0.1235072E+00
          4   -1    0    0  501    0  0.00000000000E+00  0.00000000000E+00  0.10935726410E+03  0.10936463830E+03  0.12700000000E+01 0.  1.
         -4   -1    0    0    0  501 -0.00000000000E+00 -0.00000000000E+00 -0.35699350980E+02  0.35721933884E+02  0.12700000000E+01 0.  1.
         25    2    1    2    0    0  0.00000000000E+00  0.00000000000E+00  0.73657913118E+02  0.14508657219E+03  0.12499850105E+03 0.  0.
    9000005    1    3    3    0    0  0.33611791487E+02 -0.50374013201E+02  0.18927619062E+02  0.63455090389E+02  0.10000000000E+01 0.  0.
    9000005    1    3    3    0    0 -0.33611791487E+02  0.50374013201E+02  0.54730294056E+02  0.81631481797E+02  0.10000000000E+01 0.  0.
<mgrwt>
<rscale>  0 0.12499850E+03</rscale>
<asrwt>0</asrwt>
<pdfrwt beam="1">  1        4 0.16826499E-01 0.12499850E+03</pdfrwt>
<pdfrwt beam="2">  1       -4 0.54945121E-02 0.12499850E+03</pdfrwt>
<totfact> 0.10029568E+04</totfact>
</mgrwt>
</event>
<event>
 5    1  0.3225662E-002  0.1249956E+03  0.7818608E-02  0.1235076E+00
          4   -1    0    0  501    0  0.00000000000E+00  0.00000000000E+00  0.42834201864E+03  0.42834390136E+03  0.12700000000E+01 0.  1.
         -4   -1    0    0    0  501 -0.00000000000E+00 -0.00000000000E+00 -0.90726879326E+01  0.91611443784E+01  0.12700000000E+01 0.  1.
         25    2    1    2    0    0  0.00000000000E+00  0.00000000000E+00  0.41926933070E+03  0.43750504574E+03  0.12499557342E+03 0.  0.
    9000005    1    3    3    0    0  0.33990980167E+02  0.26972127518E+02  0.52240446900E+02  0.67918677018E+02  0.10000000000E+01 0.  0.
    9000005    1    3    3    0    0 -0.33990980167E+02 -0.26972127518E+02  0.36702888380E+03  0.36958636872E+03  0.10000000000E+01 0.  0.
<mgrwt>
<rscale>  0 0.12499557E+03</rscale>
<asrwt>0</asrwt>
<pdfrwt beam="1">  1        4 0.65905722E-01 0.12499557E+03</pdfrwt>
<pdfrwt beam="2">  1       -4 0.14027473E-02 0.12499557E+03</pdfrwt>
<totfact> 0.61067503E+03</totfact>
</mgrwt>
</event>
<event>
 5    1  0.3225662E-002  0.1250033E+03  0.7818608E-02  0.1235064E+00
         -4   -1    0    0    0  501 -0.00000000000E+00  0.00000000000E+00  0.12465816935E+02  0.12530342847E+02  0.12700000000E+01 0.  1.
          4   -1    0    0  501    0  0.00000000000E+00 -0.00000000000E+00 -0.31249866588E+03  0.31250124652E+03  0.12700000000E+01 0.  1.
         25    2    1    2    0    0  0.00000000000E+00  0.00000000000E+00 -0.30003284895E+03  0.32503158937E+03  0.12500329452E+03 0.  0.
    9000005    1    3    3    0    0  0.56763763225E+02 -0.23024606749E+02 -0.18219979167E+03  0.19222388357E+03  0.10000000000E+01 0.  0.
    9000005    1    3    3    0    0 -0.56763763225E+02  0.23024606749E+02 -0.11783305728E+03  0.13280770580E+03  0.10000000000E+01 0.  0.
<mgrwt>
<rscale>  0 0.12500329E+03</rscale>
<asrwt>0</asrwt>
<pdfrwt beam="2">  1        4 0.48081874E-01 0.12500329E+03</pdfrwt>
<pdfrwt beam="1">  1       -4 0.19229803E-02 0.12500329E+03</pdfrwt>
<totfact> 0.72556359E+03</totfact>
</mgrwt>
</event>
<event>
 5    1  0.3225662E-002  0.1250056E+03  0.7818608E-02  0.1235061E+00
          4   -1    0    0  501    0  0.00000000000E+00  0.00000000000E+00  0.15380252137E+02  0.15432597183E+02  0.12700000000E+01 0.  1.
         -4   -1    0    0    0  501 -0.00000000000E+00 -0.00000000000E+00 -0.25351541168E+03  0.25351859273E+03  0.12700000000E+01 0.  1.
         25    2    1    2    0    0  0.00000000000E+00  0.00000000000E+00 -0.23813515954E+03  0.26895118991E+03  0.12500555325E+03 0.  0.
    9000005    1    3    3    0    0  0.42774039441E+02  0.40081766192E+02 -0.72452129152E+02  0.93201273864E+02  0.10000000000E+01 0.  0.
    9000005    1    3    3    0    0 -0.42774039441E+02 -0.40081766192E+02 -0.16568303039E+03  0.17574991605E+03  0.10000000000E+01 0.  0.
<mgrwt>
<rscale>  0 0.12500555E+03</rscale>
<asrwt>0</asrwt>
<pdfrwt beam="1">  1        4 0.23704641E-02 0.12500555E+03</pdfrwt>
<pdfrwt beam="2">  1       -4 0.39006639E-01 0.12500555E+03</pdfrwt>
<totfact> 0.79656232E+03</totfact>
</mgrwt>
</event>
<event>
 5    1  0.3225662E-002  0.1250001E+03  0.7818608E-02  0.1235069E+00
          4   -1    0    0  501    0  0.00000000000E+00  0.00000000000E+00  0.90645809484E+02  0.90654705763E+02  0.12700000000E+01 0. -1.
         -4   -1    0    0    0  501 -0.00000000000E+00 -0.00000000000E+00 -0.43073272139E+02  0.43091990820E+02  0.12700000000E+01 0. -1.
         25    2    1    2    0    0  0.00000000000E+00  0.00000000000E+00  0.47572537344E+02  0.13374669658E+03  0.12500013015E+03 0.  0.
    9000005    1    3    3    0    0 -0.30393773634E+02 -0.53602456345E+02  0.34918782313E+02  0.70833086621E+02  0.10000000000E+01 0.  0.
    9000005    1    3    3    0    0  0.30393773634E+02  0.53602456345E+02  0.12653755032E+02  0.62913609962E+02  0.10000000000E+01 0.  0.
<mgrwt>
<rscale>  0 0.12500013E+03</rscale>
<asrwt>0</asrwt>
<pdfrwt beam="1">  1        4 0.13947633E-01 0.12500013E+03</pdfrwt>
<pdfrwt beam="2">  1       -4 0.66287815E-02 0.12500013E+03</pdfrwt>
<totfact> 0.10264525E+04</totfact>
</mgrwt>
</event>
<event>
 5    1  0.3225662E-002  0.1249985E+03  0.7818608E-02  0.1235072E+00
         -4   -1    0    0    0  501 -0.00000000000E+00  0.00000000000E+00  0.62884460017E+02  0.62897283022E+02  0.12700000000E+01 0.  1.
          4   -1    0    0  501    0  0.00000000000E+00 -0.00000000000E+00 -0.62090769918E+02  0.62103756803E+02  0.12700000000E+01 0.  1.
         25    2    1    2    0    0  0.00000000000E+00  0.00000000000E+00  0.79369009821E+00  0.12500103983E+03  0.12499852004E+03 0.  0.
    9000005    1    3    3    0    0  0.45847896774E+02 -0.37111169395E+02 -0.20240648540E+02  0.62369482808E+02  0.10000000000E+01 0.  0.
    9000005    1    3    3    0    0 -0.45847896774E+02  0.37111169395E+02  0.21034338638E+02  0.62631557017E+02  0.10000000000E+01 0.  0.
<mgrwt>
<rscale>  0 0.12499852E+03</rscale>
<asrwt>0</asrwt>
<pdfrwt beam="2">  1        4 0.95544115E-02 0.12499852E+03</pdfrwt>
<pdfrwt beam="1">  1       -4 0.96765177E-02 0.12499852E+03</pdfrwt>
<totfact> 0.10453190E+04</totfact>
</mgrwt>
</event>
<event>
 4    1  0.3225662E-002  0.1250825E+03  0.7818608E-02  0.1234940E+00
          4   -1    0    0  501    0  0.00000000000E+00  0.00000000000E+00  0.98783364933E+02  0.98791528420E+02  0.12700000000E+01 0.  1.
         -4   -1    0    0    0  501 -0.00000000000E+00 -0.00000000000E+00 -0.39575812020E+02  0.39596184122E+02  0.12700000000E+01 0.  1.
    9000005    1    1    2    0    0  0.31051904773E+02  0.27947095614E+02 -0.21876941215E+02  0.47168437543E+02  0.10000000000E+01 0.  0.
    9000005    1    1    2    0    0 -0.31051904773E+02 -0.27947095614E+02  0.81084494128E+02  0.91219274999E+02  0.10000000000E+01 0.  0.
<mgrwt>
<rscale>  0 0.12508247E+03</rscale>
<asrwt>0</asrwt>
<pdfrwt beam="1">  1        4 0.15199636E-01 0.12508247E+03</pdfrwt>
<pdfrwt beam="2">  1       -4 0.60907816E-02 0.12508247E+03</pdfrwt>
<totfact> 0.10148240E+04</totfact>
</mgrwt>
</event>
<event>
 5    1  0.3225662E-002  0.1250077E+03  0.7818608E-02  0.1235057E+00
         -4   -1    0    0    0  501 -0.00000000000E+00  0.00000000000E+00  0.14826890593E+03  0.14827434493E+03  0.12700000000E+01 0. -1.
          4   -1    0    0  501    0  0.00000000000E+00 -0.00000000000E+00 -0.26327724852E+02  0.26358338261E+02  0.12700000000E+01 0. -1.
         25    2    1    2    0    0  0.00000000000E+00  0.00000000000E+00  0.12194118108E+03  0.17463268319E+03  0.12500768935E+03 0.  0.
    9000005    1    3    3    0    0 -0.55487490883E+02  0.28367900006E+02  0.67542496174E+02  0.91905321852E+02  0.10000000000E+01 0.  0.
    9000005    1    3    3    0    0  0.55487490883E+02 -0.28367900006E+02  0.54398684902E+02  0.82727361341E+02  0.10000000000E+01 0.  0.
<mgrwt>
<rscale>  0 0.12500769E+03</rscale>
<asrwt>0</asrwt>
<pdfrwt beam="2">  1        4 0.40531926E-02 0.12500769E+03</pdfrwt>
<pdfrwt beam="1">  1       -4 0.22813374E-01 0.12500769E+03</pdfrwt>
<totfact> 0.94575841E+03</totfact>
</mgrwt>
</event>
<event>
 5    1  0.3225662E-002  0.1249955E+03  0.7818608E-02  0.1235076E+00
         -4   -1    0    0    0  501 -0.00000000000E+00  0.00000000000E+00  0.41490985492E+03  0.41491179859E+03  0.12700000000E+01 0.  1.
          4   -1    0    0  501    0  0.00000000000E+00 -0.00000000000E+00 -0.93692095238E+01  0.94548922311E+01  0.12700000000E+01 0.  1.
         25    2    1    2    0    0  0.00000000000E+00  0.00000000000E+00  0.40554064540E+03  0.42436669082E+03  0.12499549276E+03 0.  0.
    9000005    1    3    3    0    0 -0.53794496351E+02  0.13802094144E+01  0.94915669088E+02  0.10911341372E+03  0.10000000000E+01 0.  0.
    9000005    1    3    3    0    0  0.53794496351E+02 -0.13802094144E+01  0.31062497631E+03  0.31525327710E+03  0.10000000000E+01 0.  0.
<mgrwt>
<rscale>  0 0.12499549E+03</rscale>
<asrwt>0</asrwt>
<pdfrwt beam="2">  1        4 0.14481576E-02 0.12499549E+03</pdfrwt>
<pdfrwt beam="1">  1       -4 0.63839016E-01 0.12499549E+03</pdfrwt>
<totfact> 0.62256149E+03</totfact>
</mgrwt>
</event>
<event>
 5    1  0.3225662E-002  0.1250246E+03  0.7818608E-02  0.1235031E+00
         -4   -1    0    0    0  501 -0.00000000000E+00  0.00000000000E+00  0.15677063839E+03  0.15677578244E+03  0.12700000000E+01 0.  1.
          4   -1    0    0  501    0  0.00000000000E+00 -0.00000000000E+00 -0.24905042237E+02  0.24937402207E+02  0.12700000000E+01 0.  1.
         25    2    1    2    0    0  0.00000000000E+00  0.00000000000E+00  0.13186559615E+03  0.18171318465E+03  0.12502458169E+03 0.  0.
    9000005    1    3    3    0    0 -0.62363931541E+02 -0.29426599408E+01  0.61604802761E+02  0.87715853345E+02  0.10000000000E+01 0.  0.
    9000005    1    3    3    0    0  0.62363931541E+02  0.29426599408E+01  0.70260793391E+02  0.93997331306E+02  0.10000000000E+01 0.  0.
<mgrwt>
<rscale>  0 0.12502458E+03</rscale>
<asrwt>0</asrwt>
<pdfrwt beam="2">  1        4 0.38344298E-02 0.12502458E+03</pdfrwt>
<pdfrwt beam="1">  1       -4 0.24121445E-01 0.12502458E+03</pdfrwt>
<totfact> 0.93258128E+03</totfact>
</mgrwt>
</event>
<event>
 4    1  0.3225662E-002  0.1251327E+03  0.7818608E-02  0.1234862E+00
          4   -1    0    0  501    0  0.00000000000E+00  0.00000000000E+00  0.24941953360E+02  0.24974265503E+02  0.12700000000E+01 0.  1.
         -4   -1    0    0    0  501 -0.00000000000E+00 -0.00000000000E+00 -0.15680978297E+03  0.15681492574E+03  0.12700000000E+01 0.  1.
    9000005    1    1    2    0    0  0.29425660583E+02  0.48000065326E+02 -0.26316361424E+02  0.62156469098E+02  0.10000000000E+01 0.  0.
    9000005    1    1    2    0    0 -0.29425660583E+02 -0.48000065326E+02 -0.10555146819E+03  0.11963272215E+03  0.10000000000E+01 0.  0.
<mgrwt>
<rscale>  0 0.12513267E+03</rscale>
<asrwt>0</asrwt>
<pdfrwt beam="1">  1        4 0.38401048E-02 0.12513267E+03</pdfrwt>
<pdfrwt beam="2">  1       -4 0.24127463E-01 0.12513267E+03</pdfrwt>
<totfact> 0.93018990E+03</totfact>
</mgrwt>
</event>
<event>
 5    1  0.3225662E-002  0.1250030E+03  0.7818608E-02  0.1235065E+00
         -4   -1    0    0    0  501 -0.00000000000E+00  0.00000000000E+00  0.90538766104E+02  0.90547672900E+02  0.12700000000E+01 0.  1.
          4   -1    0    0  501    0  0.00000000000E+00 -0.00000000000E+00 -0.43126192001E+02  0.43144887721E+02  0.12700000000E+01 0.  1.
         25    2    1    2    0    0  0.00000000000E+00  0.00000000000E+00  0.47412574103E+02  0.13369256062E+03  0.12500299429E+03 0.  0.
    9000005    1    3    3    0    0 -0.43643606057E+01  0.60316354916E+02  0.40560118608E+02  0.72823303519E+02  0.10000000000E+01 0.  0.
    9000005    1    3    3    0    0  0.43643606057E+01 -0.60316354916E+02  0.68524554948E+01  0.60869257102E+02  0.10000000000E+01 0.  0.
<mgrwt>
<rscale>  0 0.12500299E+03</rscale>
<asrwt>0</asrwt>
<pdfrwt beam="2">  1        4 0.66369221E-02 0.12500299E+03</pdfrwt>
<pdfrwt beam="1">  1       -4 0.13931164E-01 0.12500299E+03</pdfrwt>
<totfact> 0.10265009E+04</totfact>
</mgrwt>
</event>
<event>
 5    1  0.3225662E-002  0.1250009E+03  0.7818608E-02  0.1235068E+00
         -4   -1    0    0    0  501 -0.00000000000E+00  0.00000000000E+00  0.76170293471E+03  0.76170399345E+03  0.12700000000E+01 0. -1.
          4   -1    0    0  501    0  0.00000000000E+00 -0.00000000000E+00 -0.50486796435E+01  0.52059644777E+01  0.12700000000E+01 0. -1.
         25    2    1    2    0    0  0.00000000000E+00  0.00000000000E+00  0.75665425506E+03  0.76690995793E+03  0.12500088746E+03 0.  0.
    9000005    1    3    3    0    0 -0.11569410382E+02 -0.41260827232E+01  0.24003463719E+01  0.12555376455E+02  0.10000000000E+01 0.  0.
    9000005    1    3    3    0    0  0.11569410382E+02  0.41260827232E+01  0.75425390869E+03  0.75435458147E+03  0.10000000000E+01 0.  0.
<mgrwt>
<rscale>  0 0.12500089E+03</rscale>
<asrwt>0</asrwt>
<pdfrwt beam="2">  1        4 0.78890033E-03 0.12500089E+03</pdfrwt>
<pdfrwt beam="1">  1       -4 0.11719723E+00 0.12500089E+03</pdfrwt>
<totfact> 0.39777329E+03</totfact>
</mgrwt>
</event>
<event>
 5    1  0.3225662E-002  0.1250177E+03  0.7818608E-02  0.1235042E+00
         -4   -1    0    0    0  501 -0.00000000000E+00  0.00000000000E+00  0.18278060757E+02  0.18322128835E+02  0.12700000000E+01 0.  1.
          4   -1    0    0  501    0  0.00000000000E+00 -0.00000000000E+00 -0.21346956851E+03  0.21347334630E+03  0.12700000000E+01 0.  1.
         25    2    1    2    0    0  0.00000000000E+00  0.00000000000E+00 -0.19519150776E+03  0.23179547514E+03  0.12501766913E+03 0.  0.
    9000005    1    3    3    0    0  0.23363824523E+02 -0.16478464252E+01 -0.20503404061E+03  0.20636991424E+03  0.10000000000E+01 0.  0.
    9000005    1    3    3    0    0 -0.23363824523E+02  0.16478464252E+01  0.98425328516E+01  0.25425560900E+02  0.10000000000E+01 0.  0.
<mgrwt>
<rscale>  0 0.12501767E+03</rscale>
<asrwt>0</asrwt>
<pdfrwt beam="2">  1        4 0.32845151E-01 0.12501767E+03</pdfrwt>
<pdfrwt beam="1">  1       -4 0.28156900E-02 0.12501767E+03</pdfrwt>
<totfact> 0.85001152E+03</totfact>
</mgrwt>
</event>
<event>
 5    1  0.3225662E-002  0.1249947E+03  0.7818608E-02  0.1235078E+00
         -4   -1    0    0    0  501 -0.00000000000E+00  0.00000000000E+00  0.95035227833E+02  0.95043713255E+02  0.12700000000E+01 0.  1.
          4   -1    0    0  501    0  0.00000000000E+00 -0.00000000000E+00 -0.41079584901E+02  0.41099211618E+02  0.12700000000E+01 0.  1.
         25    2    1    2    0    0  0.00000000000E+00  0.00000000000E+00  0.53955642933E+02  0.13614292487E+03  0.12499473824E+03 0.  0.
    9000005    1    3    3    0    0  0.56567763528E+02 -0.33557079135E+01 -0.17104494954E+01  0.56701836686E+02  0.10000000000E+01 0.  0.
    9000005    1    3    3    0    0 -0.56567763528E+02  0.33557079135E+01  0.55666092428E+02  0.79441088187E+02  0.10000000000E+01 0.  0.
<mgrwt>
<rscale>  0 0.12499474E+03</rscale>
<asrwt>0</asrwt>
<pdfrwt beam="2">  1        4 0.63220987E-02 0.12499474E+03</pdfrwt>
<pdfrwt beam="1">  1       -4 0.14622966E-01 0.12499474E+03</pdfrwt>
<totfact> 0.10215249E+04</totfact>
</mgrwt>
</event>
<event>
 5    1  0.3225662E-002  0.1249923E+03  0.7818608E-02  0.1235081E+00
         -4   -1    0    0    0  501 -0.00000000000E+00  0.00000000000E+00  0.19249727605E+01  0.23061700130E+01  0.12700000000E+01 0.  1.
          4   -1    0    0  501    0  0.00000000000E+00 -0.00000000000E+00 -0.18458192773E+04  0.18458197142E+04  0.12700000000E+01 0.  1.
         25    2    1    2    0    0  0.00000000000E+00  0.00000000000E+00 -0.18438943045E+04  0.18481258842E+04  0.12499231019E+03 0.  0.
    9000005    1    3    3    0    0 -0.55568026796E+02  0.19352161203E+02 -0.61093016366E+03  0.61375807662E+03  0.10000000000E+01 0.  0.
    9000005    1    3    3    0    0  0.55568026796E+02 -0.19352161203E+02 -0.12329641409E+04  0.12343678076E+04  0.10000000000E+01 0.  0.
<mgrwt>
<rscale>  0 0.12499231E+03</rscale>
<asrwt>0</asrwt>
<pdfrwt beam="2">  1        4 0.28400027E+00 0.12499231E+03</pdfrwt>
<pdfrwt beam="1">  1       -4 0.32550761E-03 0.12499231E+03</pdfrwt>
<totfact> 0.11978616E+03</totfact>
</mgrwt>
</event>
<event>
 5    1  0.3225662E-002  0.1250027E+03  0.7818608E-02  0.1235065E+00
          4   -1    0    0  501    0  0.00000000000E+00  0.00000000000E+00  0.50446368428E+03  0.50446528291E+03  0.12700000000E+01 0.  1.
         -4   -1    0    0    0  501 -0.00000000000E+00 -0.00000000000E+00 -0.76900146303E+01  0.77941789185E+01  0.12700000000E+01 0.  1.
         25    2    1    2    0    0  0.00000000000E+00  0.00000000000E+00  0.49677366965E+03  0.51225946183E+03  0.12500270946E+03 0.  0.
    9000005    1    3    3    0    0 -0.19468741029E+02  0.50826709989E+02  0.12254240088E+03  0.13408962055E+03  0.10000000000E+01 0.  0.
    9000005    1    3    3    0    0  0.19468741029E+02 -0.50826709989E+02  0.37423126877E+03  0.37816984128E+03  0.10000000000E+01 0.  0.
<mgrwt>
<rscale>  0 0.12500271E+03</rscale>
<asrwt>0</asrwt>
<pdfrwt beam="1">  1        4 0.77617940E-01 0.12500271E+03</pdfrwt>
<pdfrwt beam="2">  1       -4 0.11912147E-02 0.12500271E+03</pdfrwt>
<totfact> 0.54922297E+03</totfact>
</mgrwt>
</event>
<event>
 5    1  0.3225662E-002  0.1250045E+03  0.7818608E-02  0.1235062E+00
         -4   -1    0    0    0  501 -0.00000000000E+00  0.00000000000E+00  0.23901774776E+03  0.23902112175E+03  0.12700000000E+01 0.  1.
          4   -1    0    0  501    0  0.00000000000E+00 -0.00000000000E+00 -0.16315931157E+02  0.16365283668E+02  0.12700000000E+01 0.  1.
         25    2    1    2    0    0  0.00000000000E+00  0.00000000000E+00  0.22270181660E+03  0.25538640542E+03  0.12500446774E+03 0.  0.
    9000005    1    3    3    0    0 -0.32454920945E+02  0.24396314084E+01  0.23552534599E+01  0.32646912776E+02  0.10000000000E+01 0.  0.
    9000005    1    3    3    0    0  0.32454920945E+02 -0.24396314084E+01  0.22034656314E+03  0.22273949265E+03  0.10000000000E+01 0.  0.
<mgrwt>
<rscale>  0 0.12500447E+03</rscale>
<asrwt>0</asrwt>
<pdfrwt beam="2">  1        4 0.25141990E-02 0.12500447E+03</pdfrwt>
<pdfrwt beam="1">  1       -4 0.36776019E-01 0.12500447E+03</pdfrwt>
<totfact> 0.81549789E+03</totfact>
</mgrwt>
</event>
<event>
 5    1  0.3225662E-002  0.1250017E+03  0.7818608E-02  0.1235067E+00
          4   -1    0    0  501    0  0.00000000000E+00  0.00000000000E+00  0.27550690559E+02  0.27579946524E+02  0.12700000000E+01 0. -1.
         -4   -1    0    0    0  501 -0.00000000000E+00 -0.00000000000E+00 -0.14168051395E+03  0.14168620587E+03  0.12700000000E+01 0. -1.
         25    2    1    2    0    0  0.00000000000E+00  0.00000000000E+00 -0.11412982339E+03  0.16926615239E+03  0.12500165502E+03 0.  0.
    9000005    1    3    3    0    0 -0.61836212700E+02  0.33753421650E+01 -0.68413891527E+02  0.92285268000E+02  0.10000000000E+01 0.  0.
    9000005    1    3    3    0    0  0.61836212700E+02 -0.33753421650E+01 -0.45715931866E+02  0.76980884395E+02  0.10000000000E+01 0.  0.
<mgrwt>
<rscale>  0 0.12500166E+03</rscale>
<asrwt>0</asrwt>
<pdfrwt beam="1">  1        4 0.42412562E-02 0.12500166E+03</pdfrwt>
<pdfrwt beam="2">  1       -4 0.21799690E-01 0.12500166E+03</pdfrwt>
<totfact> 0.95581943E+03</totfact>
</mgrwt>
</event>
<event>
 5    1  0.3225662E-002  0.1249995E+03  0.7818608E-02  0.1235070E+00
         -4   -1    0    0    0  501 -0.00000000000E+00  0.00000000000E+00  0.19637258273E+02  0.19678282763E+02  0.12700000000E+01 0.  1.
          4   -1    0    0  501    0  0.00000000000E+00 -0.00000000000E+00 -0.19866805645E+03  0.19867211569E+03  0.12700000000E+01 0.  1.
         25    2    1    2    0    0  0.00000000000E+00  0.00000000000E+00 -0.17903079818E+03  0.21835039846E+03  0.12499947924E+03 0.  0.
    9000005    1    3    3    0    0  0.51366875618E+01  0.57290187999E+02 -0.13218430651E+03  0.14416047339E+03  0.10000000000E+01 0.  0.
    9000005    1    3    3    0    0 -0.51366875618E+01 -0.57290187999E+02 -0.46846491670E+02  0.74189925070E+02  0.10000000000E+01 0.  0.
<mgrwt>
<rscale>  0 0.12499948E+03</rscale>
<asrwt>0</asrwt>
<pdfrwt beam="2">  1        4 0.30567783E-01 0.12499948E+03</pdfrwt>
<pdfrwt beam="1">  1       -4 0.30245848E-02 0.12499948E+03</pdfrwt>
<totfact> 0.87131067E+03</totfact>
</mgrwt>
</event>
<event>
 5    1  0.3225662E-002  0.1250011E+03  0.7818608E-02  0.1235068E+00
          4   -1    0    0  501    0  0.00000000000E+00  0.00000000000E+00  0.72948520133E+02  0.72959574351E+02  0.12700000000E+01 0.  1.
         -4   -1    0    0    0  501 -0.00000000000E+00 -0.00000000000E+00 -0.53526367438E+02  0.53541431724E+02  0.12700000000E+01 0.  1.
         25    2    1    2    0    0  0.00000000000E+00  0.00000000000E+00  0.19422152695E+02  0.12650100608E+03  0.12500113809E+03 0.  0.
    9000005    1    3    3    0    0  0.33994727103E+02  0.47533714988E+02  0.32117781816E+02  0.66690684808E+02  0.10000000000E+01 0.  0.
    9000005    1    3    3    0    0 -0.33994727103E+02 -0.47533714988E+02 -0.12695629121E+02  0.59810321268E+02  0.10000000000E+01 0.  0.
<mgrwt>
<rscale>  0 0.12500114E+03</rscale>
<asrwt>0</asrwt>
<pdfrwt beam="1">  1        4 0.11224858E-01 0.12500114E+03</pdfrwt>
<pdfrwt beam="2">  1       -4 0.82368349E-02 0.12500114E+03</pdfrwt>
<totfact> 0.10419738E+04</totfact>
</mgrwt>
</event>
<event>
 5    1  0.3225662E-002  0.1250000E+03  0.7818608E-02  0.1235069E+00
          4   -1    0    0  501    0  0.00000000000E+00  0.00000000000E+00  0.44775591015E+03  0.44775771124E+03  0.12700000000E+01 0. -1.
         -4   -1    0    0    0  501 -0.00000000000E+00 -0.00000000000E+00 -0.86760166328E+01  0.87684756151E+01  0.12700000000E+01 0. -1.
         25    2    1    2    0    0  0.00000000000E+00  0.00000000000E+00  0.43907989351E+03  0.45652618685E+03  0.12500002557E+03 0.  0.
    9000005    1    3    3    0    0  0.53422431612E+02 -0.17992525191E+02  0.31805244289E+03  0.32301090321E+03  0.10000000000E+01 0.  0.
    9000005    1    3    3    0    0 -0.53422431612E+02  0.17992525191E+02  0.12102745062E+03  0.13351528364E+03  0.10000000000E+01 0.  0.
<mgrwt>
<rscale>  0 0.12500003E+03</rscale>
<asrwt>0</asrwt>
<pdfrwt beam="1">  1        4 0.68892777E-01 0.12500003E+03</pdfrwt>
<pdfrwt beam="2">  1       -4 0.13420225E-02 0.12500003E+03</pdfrwt>
<totfact> 0.59402536E+03</totfact>
</mgrwt>
</event>
<event>
 5    1  0.3225662E-002  0.1249999E+03  0.7818608E-02  0.1235069E+00
         -4   -1    0    0    0  501 -0.00000000000E+00  0.00000000000E+00  0.36386702113E+03  0.36386923746E+03  0.12700000000E+01 0.  1.
          4   -1    0    0  501    0  0.00000000000E+00 -0.00000000000E+00 -0.10695551378E+02  0.10770687967E+02  0.12700000000E+01 0.  1.
         25    2    1    2    0    0  0.00000000000E+00  0.00000000000E+00  0.35317146976E+03  0.37463992543E+03  0.12499994669E+03 0.  0.
    9000005    1    3    3    0    0  0.33914552680E+02  0.51806889833E+02  0.15131448840E+03  0.16349686577E+03  0.10000000000E+01 0.  0.
    9000005    1    3    3    0    0 -0.33914552680E+02 -0.51806889833E+02  0.20185698136E+03  0.21114305965E+03  0.10000000000E+01 0.  0.
<mgrwt>
<rscale>  0 0.12499995E+03</rscale>
<asrwt>0</asrwt>
<pdfrwt beam="2">  1        4 0.16514195E-02 0.12499995E+03</pdfrwt>
<pdfrwt beam="1">  1       -4 0.55985497E-01 0.12499995E+03</pdfrwt>
<totfact> 0.67096366E+03</totfact>
</mgrwt>
</event>
<event>
 5    1  0.3225662E-002  0.1249976E+03  0.7818608E-02  0.1235073E+00
         -4   -1    0    0    0  501 -0.00000000000E+00  0.00000000000E+00  0.15226007616E+03  0.15226537260E+03  0.12700000000E+01 0.  1.
          4   -1    0    0  501    0  0.00000000000E+00 -0.00000000000E+00 -0.25632677268E+02  0.25664119777E+02  0.12700000000E+01 0.  1.
         25    2    1    2    0    0  0.00000000000E+00  0.00000000000E+00  0.12662739889E+03  0.17792949238E+03  0.12499762440E+03 0.  0.
    9000005    1    3    3    0    0 -0.13107689902E+01 -0.10605565637E+02  0.15095678388E+03  0.15133785626E+03  0.10000000000E+01 0.  0.
    9000005    1    3    3    0    0  0.13107689902E+01  0.10605565637E+02 -0.24329384984E+02  0.26591636120E+02  0.10000000000E+01 0.  0.
<mgrwt>
<rscale>  0 0.12499762E+03</rscale>
<asrwt>0</asrwt>
<pdfrwt beam="2">  1        4 0.39463148E-02 0.12499762E+03</pdfrwt>
<pdfrwt beam="1">  1       -4 0.23427454E-01 0.12499762E+03</pdfrwt>
<totfact> 0.93996041E+03</totfact>
</mgrwt>
</event>
<event>
 5    1  0.3225662E-002  0.1250008E+03  0.7818608E-02  0.1235068E+00
         -4   -1    0    0    0  501 -0.00000000000E+00  0.00000000000E+00  0.35291026547E+03  0.35291255060E+03  0.12700000000E+01 0. -1.
          4   -1    0    0  501    0  0.00000000000E+00 -0.00000000000E+00 -0.11030066174E+02  0.11102939242E+02  0.12700000000E+01 0. -1.
         25    2    1    2    0    0  0.00000000000E+00  0.00000000000E+00  0.34188019929E+03  0.36401548984E+03  0.12500082471E+03 0.  0.
    9000005    1    3    3    0    0 -0.53378214847E+02 -0.25152452127E+02  0.11101708801E+03  0.12572857073E+03  0.10000000000E+01 0.  0.
    9000005    1    3    3    0    0  0.53378214847E+02  0.25152452127E+02  0.23086311128E+03  0.23828691911E+03  0.10000000000E+01 0.  0.
<mgrwt>
<rscale>  0 0.12500082E+03</rscale>
<asrwt>0</asrwt>
<pdfrwt beam="2">  1        4 0.17027149E-02 0.12500082E+03</pdfrwt>
<pdfrwt beam="1">  1       -4 0.54299660E-01 0.12500082E+03</pdfrwt>
<totfact> 0.68208471E+03</totfact>
</mgrwt>
</event>
<event>
 5    1  0.3225662E-002  0.1250118E+03  0.7818608E-02  0.1235051E+00
          4   -1    0    0  501    0  0.00000000000E+00  0.00000000000E+00  0.25617965771E+03  0.25618280568E+03  0.12700000000E+01 0.  1.
         -4   -1    0    0    0  501 -0.00000000000E+00 -0.00000000000E+00 -0.15221277362E+02  0.15274167229E+02  0.12700000000E+01 0.  1.
         25    2    1    2    0    0  0.00000000000E+00  0.00000000000E+00  0.24095838035E+03  0.27145697290E+03  0.12501178776E+03 0.  0.
    9000005    1    3    3    0    0  0.18824127519E+02  0.59092256359E+02  0.13726328886E+03  0.15062686682E+03  0.10000000000E+01 0.  0.
    9000005    1    3    3    0    0 -0.18824127519E+02 -0.59092256359E+02  0.10369509148E+03  0.12083010608E+03  0.10000000000E+01 0.  0.
<mgrwt>
<rscale>  0 0.12501179E+03</rscale>
<asrwt>0</asrwt>
<pdfrwt beam="1">  1        4 0.39416566E-01 0.12501179E+03</pdfrwt>
<pdfrwt beam="2">  1       -4 0.23460455E-02 0.12501179E+03</pdfrwt>
<totfact> 0.79303850E+03</totfact>
</mgrwt>
</event>
<event>
 5    1  0.3225662E-002  0.1249900E+03  0.7818608E-02  0.1235085E+00
         -4   -1    0    0    0  501 -0.00000000000E+00  0.00000000000E+00  0.11746492908E+04  0.11746499774E+04  0.12700000000E+01 0. -1.
          4   -1    0    0  501    0  0.00000000000E+00 -0.00000000000E+00 -0.32029442791E+01  0.34455408944E+01  0.12700000000E+01 0. -1.
         25    2    1    2    0    0  0.00000000000E+00  0.00000000000E+00  0.11714463466E+04  0.11780955183E+04  0.12499002888E+03 0.  0.
    9000005    1    3    3    0    0  0.58777369508E+01 -0.46665211345E+02  0.97348174088E+03  0.97461781718E+03  0.10000000000E+01 0.  0.
    9000005    1    3    3    0    0 -0.58777369508E+01  0.46665211345E+02  0.19796460567E+03  0.20347770109E+03  0.10000000000E+01 0.  0.
<mgrwt>
<rscale>  0 0.12499003E+03</rscale>
<asrwt>0</asrwt>
<pdfrwt beam="2">  1        4 0.51147458E-03 0.12499003E+03</pdfrwt>
<pdfrwt beam="1">  1       -4 0.18073405E+00 0.12499003E+03</pdfrwt>
<totfact> 0.25298896E+03</totfact>
</mgrwt>
</event>
<event>
 5    1  0.3225662E-002  0.1250007E+03  0.7818608E-02  0.1235068E+00
          4   -1    0    0  501    0  0.00000000000E+00  0.00000000000E+00  0.49526631855E+02  0.49542912338E+02  0.12700000000E+01 0. -1.
         -4   -1    0    0    0  501 -0.00000000000E+00 -0.00000000000E+00 -0.78838229393E+02  0.78848457904E+02  0.12700000000E+01 0. -1.
         25    2    1    2    0    0  0.00000000000E+00  0.00000000000E+00 -0.29311597538E+02  0.12839137024E+03  0.12500069681E+03 0.  0.
    9000005    1    3    3    0    0  0.35716174936E+02  0.36251095627E+01  0.37883509265E+02  0.52201023415E+02  0.10000000000E+01 0.  0.
    9000005    1    3    3    0    0 -0.35716174936E+02 -0.36251095627E+01 -0.67195106802E+02  0.76190346827E+02  0.10000000000E+01 0.  0.
<mgrwt>
<rscale>  0 0.12500070E+03</rscale>
<asrwt>0</asrwt>
<pdfrwt beam="1">  1        4 0.76215210E-02 0.12500070E+03</pdfrwt>
<pdfrwt beam="2">  1       -4 0.12130998E-01 0.12500070E+03</pdfrwt>
<totfact> 0.10378881E+04</totfact>
</mgrwt>
</event>
<event>
 5    1  0.3225662E-002  0.1250051E+03  0.7818608E-02  0.1235061E+00
         -4   -1    0    0    0  501 -0.00000000000E+00  0.00000000000E+00  0.44177646860E+02  0.44195897797E+02  0.12700000000E+01 0. -1.
          4   -1    0    0  501    0  0.00000000000E+00 -0.00000000000E+00 -0.88387617039E+02  0.88396740583E+02  0.12700000000E+01 0. -1.
         25    2    1    2    0    0  0.00000000000E+00  0.00000000000E+00 -0.44209970179E+02  0.13259263838E+03  0.12500514505E+03 0.  0.
    9000005    1    3    3    0    0 -0.46262046827E+02  0.34667763650E+02  0.30749258955E+01  0.57900656148E+02  0.10000000000E+01 0.  0.
    9000005    1    3    3    0    0  0.46262046827E+02 -0.34667763650E+02 -0.47284896074E+02  0.74691982232E+02  0.10000000000E+01 0.  0.
<mgrwt>
<rscale>  0 0.12500515E+03</rscale>
<asrwt>0</asrwt>
<pdfrwt beam="2">  1        4 0.13600201E-01 0.12500515E+03</pdfrwt>
<pdfrwt beam="1">  1       -4 0.67986668E-02 0.12500515E+03</pdfrwt>
<totfact> 0.10287871E+04</totfact>
</mgrwt>
</event>
<event>
 5    1  0.3225662E-002  0.1250008E+03  0.7818608E-02  0.1235068E+00
          4   -1    0    0  501    0  0.00000000000E+00  0.00000000000E+00  0.57361126734E+02  0.57375184184E+02  0.12700000000E+01 0. -1.
         -4   -1    0    0    0  501 -0.00000000000E+00 -0.00000000000E+00 -0.68071785664E+02  0.68083631685E+02  0.12700000000E+01 0. -1.
         25    2    1    2    0    0  0.00000000000E+00  0.00000000000E+00 -0.10710658930E+02  0.12545881587E+03  0.12500078506E+03 0.  0.
    9000005    1    3    3    0    0 -0.35400999080E+02 -0.29532634847E+02 -0.47698682542E+02  0.66344340928E+02  0.10000000000E+01 0.  0.
    9000005    1    3    3    0    0  0.35400999080E+02  0.29532634847E+02  0.36988023613E+02  0.59114474942E+02  0.10000000000E+01 0.  0.
<mgrwt>
<rscale>  0 0.12500079E+03</rscale>
<asrwt>0</asrwt>
<pdfrwt beam="1">  1        4 0.88267813E-02 0.12500079E+03</pdfrwt>
<pdfrwt beam="2">  1       -4 0.10474575E-01 0.12500079E+03</pdfrwt>
<totfact> 0.10442680E+04</totfact>
</mgrwt>
</event>
<event>
 5    1  0.3225662E-002  0.1250121E+03  0.7818608E-02  0.1235050E+00
         -4   -1    0    0    0  501 -0.00000000000E+00  0.00000000000E+00  0.31522951952E+02  0.31548524526E+02  0.12700000000E+01 0.  1.
          4   -1    0    0  501    0  0.00000000000E+00 -0.00000000000E+00 -0.12386253464E+03  0.12386904532E+03  0.12700000000E+01 0.  1.
         25    2    1    2    0    0  0.00000000000E+00  0.00000000000E+00 -0.92339582691E+02  0.15541756985E+03  0.12501208936E+03 0.  0.
    9000005    1    3    3    0    0 -0.12804625408E+02 -0.53950862761E+02 -0.82015772147E+02  0.99006267000E+02  0.10000000000E+01 0.  0.
    9000005    1    3    3    0    0  0.12804625408E+02  0.53950862761E+02 -0.10323810545E+02  0.56411302845E+02  0.10000000000E+01 0.  0.
<mgrwt>
<rscale>  0 0.12501209E+03</rscale>
<asrwt>0</asrwt>
<pdfrwt beam="2">  1        4 0.19058242E-01 0.12501209E+03</pdfrwt>
<pdfrwt beam="1">  1       -4 0.48521529E-02 0.12501209E+03</pdfrwt>
<totfact> 0.98206885E+03</totfact>
</mgrwt>
</event>
<event>
 5    1  0.3225662E-002  0.1249979E+03  0.7818608E-02  0.1235073E+00
          4   -1    0    0  501    0  0.00000000000E+00  0.00000000000E+00  0.40373194143E+03  0.40373393891E+03  0.12700000000E+01 0. -1.
         -4   -1    0    0    0  501 -0.00000000000E+00 -0.00000000000E+00 -0.96313180766E+01  0.97146892844E+01  0.12700000000E+01 0. -1.
         25    2    1    2    0    0  0.00000000000E+00  0.00000000000E+00  0.39410062335E+03  0.41344862820E+03  0.12499786731E+03 0.  0.
    9000005    1    3    3    0    0  0.56225830117E+02 -0.23699128880E+02  0.15241253316E+03  0.16417543345E+03  0.10000000000E+01 0.  0.
    9000005    1    3    3    0    0 -0.56225830117E+02  0.23699128880E+02  0.24168809019E+03  0.24927319475E+03  0.10000000000E+01 0.  0.
<mgrwt>
<rscale>  0 0.12499787E+03</rscale>
<asrwt>0</asrwt>
<pdfrwt beam="1">  1        4 0.62119180E-01 0.12499787E+03</pdfrwt>
<pdfrwt beam="2">  1       -4 0.14883079E-02 0.12499787E+03</pdfrwt>
<totfact> 0.63268447E+03</totfact>
</mgrwt>
</event>
<event>
 5    1  0.3225662E-002  0.1249997E+03  0.7818608E-02  0.1235070E+00
          4   -1    0    0  501    0  0.00000000000E+00  0.00000000000E+00  0.15908994806E+03  0.15909501712E+03  0.12700000000E+01 0. -1.
         -4   -1    0    0    0  501 -0.00000000000E+00 -0.00000000000E+00 -0.24531703239E+02  0.24564555030E+02  0.12700000000E+01 0. -1.
         25    2    1    2    0    0  0.00000000000E+00  0.00000000000E+00  0.13455824482E+03  0.18365957215E+03  0.12499966878E+03 0.  0.
    9000005    1    3    3    0    0 -0.20635727591E+02  0.56663271368E+02  0.91362315629E+02  0.10947434536E+03  0.10000000000E+01 0.  0.
    9000005    1    3    3    0    0  0.20635727591E+02 -0.56663271368E+02  0.43195929190E+02  0.74185226791E+02  0.10000000000E+01 0.  0.
<mgrwt>
<rscale>  0 0.12499967E+03</rscale>
<asrwt>0</asrwt>
<pdfrwt beam="1">  1        4 0.24478293E-01 0.12499967E+03</pdfrwt>
<pdfrwt beam="2">  1       -4 0.37770253E-02 0.12499967E+03</pdfrwt>
<totfact> 0.92963076E+03</totfact>
</mgrwt>
</event>
<event>
 5    1  0.3225662E-002  0.1250013E+03  0.7818608E-02  0.1235067E+00
         -4   -1    0    0    0  501 -0.00000000000E+00  0.00000000000E+00  0.42975934444E+01  0.44813178210E+01  0.12700000000E+01 0. -1.
          4   -1    0    0  501    0  0.00000000000E+00 -0.00000000000E+00 -0.88975126380E+03  0.88975217018E+03  0.12700000000E+01 0. -1.
         25    2    1    2    0    0  0.00000000000E+00  0.00000000000E+00 -0.88545367036E+03  0.89423348800E+03  0.12500131483E+03 0.  0.
    9000005    1    3    3    0    0 -0.11851536548E+02  0.42969133650E+02 -0.12938362747E+03  0.13685002164E+03  0.10000000000E+01 0.  0.
    9000005    1    3    3    0    0  0.11851536548E+02 -0.42969133650E+02 -0.75607004289E+03  0.75738346636E+03  0.10000000000E+01 0.  0.
<mgrwt>
<rscale>  0 0.12500131E+03</rscale>
<asrwt>0</asrwt>
<pdfrwt beam="2">  1        4 0.13689887E+00 0.12500131E+03</pdfrwt>
<pdfrwt beam="1">  1       -4 0.67537130E-03 0.12500131E+03</pdfrwt>
<totfact> 0.34380735E+03</totfact>
</mgrwt>
</event>
<event>
 5    1  0.3225662E-002  0.1249834E+03  0.7818608E-02  0.1235095E+00
         -4   -1    0    0    0  501 -0.00000000000E+00  0.00000000000E+00  0.12234891110E+03  0.12235550231E+03  0.12700000000E+01 0.  1.
          4   -1    0    0  501    0  0.00000000000E+00 -0.00000000000E+00 -0.31898576673E+02  0.31923848354E+02  0.12700000000E+01 0.  1.
         25    2    1    2    0    0  0.00000000000E+00  0.00000000000E+00  0.90450334424E+02  0.15427935067E+03  0.12498341908E+03 0.  0.
    9000005    1    3    3    0    0 -0.60753744964E+02 -0.36553622616E+01  0.27775357254E+02  0.66909264463E+02  0.10000000000E+01 0.  0.
    9000005    1    3    3    0    0  0.60753744964E+02  0.36553622616E+01  0.62674977170E+02  0.87370086206E+02  0.10000000000E+01 0.  0.
<mgrwt>
<rscale>  0 0.12498342E+03</rscale>
<asrwt>0</asrwt>
<pdfrwt beam="2">  1        4 0.49099242E-02 0.12498342E+03</pdfrwt>
<pdfrwt beam="1">  1       -4 0.18825361E-01 0.12498342E+03</pdfrwt>
<totfact> 0.98493884E+03</totfact>
</mgrwt>
</event>
<event>
 5    1  0.3225662E-002  0.1250024E+03  0.7818608E-02  0.1235066E+00
          4   -1    0    0  501    0  0.00000000000E+00  0.00000000000E+00  0.11408687613E+02  0.11479157332E+02  0.12700000000E+01 0. -1.
         -4   -1    0    0    0  501 -0.00000000000E+00 -0.00000000000E+00 -0.34127978282E+03  0.34128214582E+03  0.12700000000E+01 0. -1.
         25    2    1    2    0    0  0.00000000000E+00  0.00000000000E+00 -0.32987109520E+03  0.35276130316E+03  0.12500239019E+03 0.  0.
    9000005    1    3    3    0    0 -0.58931178790E+02  0.18293754193E+02 -0.13701961364E+03  0.15027614514E+03  0.10000000000E+01 0.  0.
    9000005    1    3    3    0    0  0.58931178790E+02 -0.18293754193E+02 -0.19285148156E+03  0.20248515801E+03  0.10000000000E+01 0.  0.
<mgrwt>
<rscale>  0 0.12500239E+03</rscale>
<asrwt>0</asrwt>
<pdfrwt beam="1">  1        4 0.17607855E-02 0.12500239E+03</pdfrwt>
<pdfrwt beam="2">  1       -4 0.52510177E-01 0.12500239E+03</pdfrwt>
<totfact> 0.69418175E+03</totfact>
</mgrwt>
</event>
<event>
 5    1  0.3225662E-002  0.1250009E+03  0.7818608E-02  0.1235068E+00
         -4   -1    0    0    0  501 -0.00000000000E+00  0.00000000000E+00  0.71825174466E+02  0.71836401546E+02  0.12700000000E+01 0. -1.
          4   -1    0    0  501    0  0.00000000000E+00 -0.00000000000E+00 -0.54363435418E+02  0.54378267814E+02  0.12700000000E+01 0. -1.
         25    2    1    2    0    0  0.00000000000E+00  0.00000000000E+00  0.17461739049E+02  0.12621466936E+03  0.12500092172E+03 0.  0.
    9000005    1    3    3    0    0 -0.20645633996E+01 -0.52969901141E+02  0.42146543706E+02  0.67730377197E+02  0.10000000000E+01 0.  0.
    9000005    1    3    3    0    0  0.20645633996E+01  0.52969901141E+02 -0.24684804657E+02  0.58484292163E+02  0.10000000000E+01 0.  0.
<mgrwt>
<rscale>  0 0.12500092E+03</rscale>
<asrwt>0</asrwt>
<pdfrwt beam="2">  1        4 0.83656101E-02 0.12500092E+03</pdfrwt>
<pdfrwt beam="1">  1       -4 0.11052031E-01 0.12500092E+03</pdfrwt>
<totfact> 0.10426041E+04</totfact>
</mgrwt>
</event>
<event>
 5    1  0.3225662E-002  0.1249989E+03  0.7818608E-02  0.1235071E+00
          4   -1    0    0  501    0  0.00000000000E+00  0.00000000000E+00  0.35258387718E+02  0.35281252876E+02  0.12700000000E+01 0. -1.
         -4   -1    0    0    0  501 -0.00000000000E+00 -0.00000000000E+00 -0.11072482791E+03  0.11073211104E+03  0.12700000000E+01 0. -1.
         25    2    1    2    0    0  0.00000000000E+00  0.00000000000E+00 -0.75466440194E+02  0.14601336392E+03  0.12499887538E+03 0.  0.
    9000005    1    3    3    0    0 -0.60006184224E+02  0.81796794176E+01 -0.55736271078E+02  0.82311488956E+02  0.10000000000E+01 0.  0.
    9000005    1    3    3    0    0  0.60006184224E+02 -0.81796794176E+01 -0.19730169116E+02  0.63701874963E+02  0.10000000000E+01 0.  0.
<mgrwt>
<rscale>  0 0.12499888E+03</rscale>
<asrwt>0</asrwt>
<pdfrwt beam="1">  1        4 0.54266865E-02 0.12499888E+03</pdfrwt>
<pdfrwt beam="2">  1       -4 0.17036908E-01 0.12499888E+03</pdfrwt>
<totfact> 0.10010693E+04</totfact>
</mgrwt>
</event>
<event>
 5    1  0.3225662E-002  0.1249913E+03  0.7818608E-02  0.1235083E+00
          4   -1    0    0  501    0  0.00000000000E+00  0.00000000000E+00  0.12408998784E+03  0.12409648658E+03  0.12700000000E+01 0. -1.
         -4   -1    0    0    0  501 -0.00000000000E+00 -0.00000000000E+00 -0.31454673979E+02  0.31480302018E+02  0.12700000000E+01 0. -1.
         25    2    1    2    0    0  0.00000000000E+00  0.00000000000E+00  0.92635313858E+02  0.15557678860E+03  0.12499134281E+03 0.  0.
    9000005    1    3    3    0    0 -0.40481345181E+02 -0.34007493410E+02  0.48584778169E+01  0.53102294888E+02  0.10000000000E+01 0.  0.
    9000005    1    3    3    0    0  0.40481345181E+02  0.34007493410E+02  0.87776836041E+02  0.10247449371E+03  0.10000000000E+01 0.  0.
<mgrwt>
<rscale>  0 0.12499134E+03</rscale>
<asrwt>0</asrwt>
<pdfrwt beam="1">  1        4 0.19093238E-01 0.12499134E+03</pdfrwt>
<pdfrwt beam="2">  1       -4 0.48416520E-02 0.12499134E+03</pdfrwt>
<totfact> 0.98221508E+03</totfact>
</mgrwt>
</event>
<event>
 5    1  0.3225662E-002  0.1250117E+03  0.7818608E-02  0.1235051E+00
          4   -1    0    0  501    0  0.00000000000E+00  0.00000000000E+00  0.17480355810E+01  0.21606777623E+01  0.12700000000E+01 0. -1.
         -4   -1    0    0    0  501 -0.00000000000E+00 -0.00000000000E+00 -0.19986999042E+04  0.19987003077E+04  0.12700000000E+01 0. -1.
         25    2    1    2    0    0  0.00000000000E+00  0.00000000000E+00 -0.19969518686E+04  0.20008609854E+04  0.12501166951E+03 0.  0.
    9000005    1    3    3    0    0  0.21336941825E+02 -0.11578228315E+02 -0.19202336185E+04  0.19203873230E+04  0.10000000000E+01 0.  0.
    9000005    1    3    3    0    0 -0.21336941825E+02  0.11578228315E+02 -0.76718250063E+02  0.80473662462E+02  0.10000000000E+01 0.  0.
<mgrwt>
<rscale>  0 0.12501167E+03</rscale>
<asrwt>0</asrwt>
<pdfrwt beam="1">  1        4 0.30070289E-03 0.12501167E+03</pdfrwt>
<pdfrwt beam="2">  1       -4 0.30752243E+00 0.12501167E+03</pdfrwt>
<totfact> 0.98475782E+02</totfact>
</mgrwt>
</event>
<event>
 5    1  0.3225662E-002  0.1250008E+03  0.7818608E-02  0.1235068E+00
         -4   -1    0    0    0  501 -0.00000000000E+00  0.00000000000E+00  0.97726567498E+02  0.97734819256E+02  0.12700000000E+01 0. -1.
          4   -1    0    0  501    0  0.00000000000E+00 -0.00000000000E+00 -0.39951671842E+02  0.39971852384E+02  0.12700000000E+01 0. -1.
         25    2    1    2    0    0  0.00000000000E+00  0.00000000000E+00  0.57774895656E+02  0.13770667164E+03  0.12500075538E+03 0.  0.
    9000005    1    3    3    0    0 -0.22641028894E+02 -0.44521279369E+02 -0.12487221902E+02  0.51494574636E+02  0.10000000000E+01 0.  0.
    9000005    1    3    3    0    0  0.22641028894E+02  0.44521279369E+02  0.70262117558E+02  0.86212097004E+02  0.10000000000E+01 0.  0.
<mgrwt>
<rscale>  0 0.12500076E+03</rscale>
<asrwt>0</asrwt>
<pdfrwt beam="2">  1        4 0.61485982E-02 0.12500076E+03</pdfrwt>
<pdfrwt beam="1">  1       -4 0.15037044E-01 0.12500076E+03</pdfrwt>
<totfact> 0.10181157E+04</totfact>
</mgrwt>
</event>
<event>
 5    1  0.3225662E-002  0.1249975E+03  0.7818608E-02  0.1235073E+00
          4   -1    0    0  501    0  0.00000000000E+00  0.00000000000E+00  0.87920890003E+02  0.87930061975E+02  0.12700000000E+01 0. -1.
         -4   -1    0    0    0  501 -0.00000000000E+00 -0.00000000000E+00 -0.44406779287E+02  0.44424936091E+02  0.12700000000E+01 0. -1.
         25    2    1    2    0    0  0.00000000000E+00  0.00000000000E+00  0.43514110716E+02  0.13235499807E+03  0.12499747070E+03 0.  0.
    9000005    1    3    3    0    0  0.20172816033E+02 -0.40039207676E+02  0.67851121269E+02  0.81331760804E+02  0.10000000000E+01 0.  0.
    9000005    1    3    3    0    0 -0.20172816033E+02  0.40039207676E+02 -0.24337010554E+02  0.51023237262E+02  0.10000000000E+01 0.  0.
<mgrwt>
<rscale>  0 0.12499747E+03</rscale>
<asrwt>0</asrwt>
<pdfrwt beam="1">  1        4 0.13528393E-01 0.12499747E+03</pdfrwt>
<pdfrwt beam="2">  1       -4 0.68339145E-02 0.12499747E+03</pdfrwt>
<totfact> 0.10294714E+04</totfact>
</mgrwt>
</event>
<event>
 5    1  0.3225662E-002  0.1249914E+03  0.7818608E-02  0.1235083E+00
          4   -1    0    0  501    0  0.00000000000E+00  0.00000000000E+00  0.69258936701E+02  0.69270579707E+02  0.12700000000E+01 0. -1.
         -4   -1    0    0    0  501 -0.00000000000E+00 -0.00000000000E+00 -0.56369339012E+02  0.56383643734E+02  0.12700000000E+01 0. -1.
         25    2    1    2    0    0  0.00000000000E+00  0.00000000000E+00  0.12889597689E+02  0.12565422344E+03  0.12499136826E+03 0.  0.
    9000005    1    3    3    0    0  0.12732615787E+02 -0.54883062868E+02  0.33614788502E+02  0.65614206546E+02  0.10000000000E+01 0.  0.
    9000005    1    3    3    0    0 -0.12732615787E+02  0.54883062868E+02 -0.20725190813E+02  0.60040016896E+02  0.10000000000E+01 0.  0.
<mgrwt>
<rscale>  0 0.12499137E+03</rscale>
<asrwt>0</asrwt>
<pdfrwt beam="1">  1        4 0.10657217E-01 0.12499137E+03</pdfrwt>
<pdfrwt beam="2">  1       -4 0.86742020E-02 0.12499137E+03</pdfrwt>
<totfact> 0.10440585E+04</totfact>
</mgrwt>
</event>
<event>
 5    1  0.3225662E-002  0.1249998E+03  0.7818608E-02  0.1235070E+00
         -4   -1    0    0    0  501 -0.00000000000E+00  0.00000000000E+00  0.28796214068E+02  0.28824205881E+02  0.12700000000E+01 0. -1.
          4   -1    0    0  501    0  0.00000000000E+00 -0.00000000000E+00 -0.13555422934E+03  0.13556017848E+03  0.12700000000E+01 0. -1.
         25    2    1    2    0    0  0.00000000000E+00  0.00000000000E+00 -0.10675801527E+03  0.16438438437E+03  0.12499980800E+03 0.  0.
    9000005    1    3    3    0    0 -0.23024850657E+02 -0.57798940839E+02 -0.45668495198E+02  0.77184666635E+02  0.10000000000E+01 0.  0.
    9000005    1    3    3    0    0  0.23024850657E+02  0.57798940839E+02 -0.61089520070E+02  0.87199717730E+02  0.10000000000E+01 0.  0.
<mgrwt>
<rscale>  0 0.12499981E+03</rscale>
<asrwt>0</asrwt>
<pdfrwt beam="2">  1        4 0.20857107E-01 0.12499981E+03</pdfrwt>
<pdfrwt beam="1">  1       -4 0.44327977E-02 0.12499981E+03</pdfrwt>
<totfact> 0.96504524E+03</totfact>
</mgrwt>
</event>
<event>
 5    1  0.3225662E-002  0.1249986E+03  0.7818608E-02  0.1235072E+00
         -4   -1    0    0    0  501 -0.00000000000E+00  0.00000000000E+00  0.10575800038E+02  0.10651781375E+02  0.12700000000E+01 0. -1.
          4   -1    0    0  501    0  0.00000000000E+00 -0.00000000000E+00 -0.36794974132E+03  0.36795193305E+03  0.12700000000E+01 0. -1.
         25    2    1    2    0    0  0.00000000000E+00  0.00000000000E+00 -0.35737394128E+03  0.37860371443E+03  0.12499855468E+03 0.  0.
    9000005    1    3    3    0    0  0.53238881737E+02  0.30388710073E+02 -0.21544838559E+03  0.22400191759E+03  0.10000000000E+01 0.  0.
    9000005    1    3    3    0    0 -0.53238881737E+02 -0.30388710073E+02 -0.14192555569E+03  0.15460179684E+03  0.10000000000E+01 0.  0.
<mgrwt>
<rscale>  0 0.12499855E+03</rscale>
<asrwt>0</asrwt>
<pdfrwt beam="2">  1        4 0.56613656E-01 0.12499855E+03</pdfrwt>
<pdfrwt beam="1">  1       -4 0.16330598E-02 0.12499855E+03</pdfrwt>
<totfact> 0.66690465E+03</totfact>
</mgrwt>
</event>
<event>
 5    1  0.3225662E-002  0.1249987E+03  0.7818608E-02  0.1235071E+00
          4   -1    0    0  501    0  0.00000000000E+00  0.00000000000E+00  0.87681348867E+01  0.88596325765E+01  0.12700000000E+01 0. -1.
         -4   -1    0    0    0  501 -0.00000000000E+00 -0.00000000000E+00 -0.44309129636E+03  0.44309311641E+03  0.12700000000E+01 0. -1.
         25    2    1    2    0    0  0.00000000000E+00  0.00000000000E+00 -0.43432316147E+03  0.45195274899E+03  0.12499871489E+03 0.  0.
    9000005    1    3    3    0    0 -0.60760798646E+02 -0.24241725672E+01 -0.26923440599E+03  0.27601796433E+03  0.10000000000E+01 0.  0.
    9000005    1    3    3    0    0  0.60760798646E+02  0.24241725672E+01 -0.16508875548E+03  0.17593478466E+03  0.10000000000E+01 0.  0.
<mgrwt>
<rscale>  0 0.12499871E+03</rscale>
<asrwt>0</asrwt>
<pdfrwt beam="1">  1        4 0.13561225E-02 0.12499871E+03</pdfrwt>
<pdfrwt beam="2">  1       -4 0.68175053E-01 0.12499871E+03</pdfrwt>
<totfact> 0.59796701E+03</totfact>
</mgrwt>
</event>
<event>
 5    1  0.3225662E-002  0.1250019E+03  0.7818608E-02  0.1235066E+00
          4   -1    0    0  501    0  0.00000000000E+00  0.00000000000E+00  0.55516512915E+02  0.55531037324E+02  0.12700000000E+01 0. -1.
         -4   -1    0    0    0  501 -0.00000000000E+00 -0.00000000000E+00 -0.70334637093E+02  0.70346102060E+02  0.12700000000E+01 0. -1.
         25    2    1    2    0    0  0.00000000000E+00  0.00000000000E+00 -0.14818124178E+02  0.12587713938E+03  0.12500190965E+03 0.  0.
    9000005    1    3    3    0    0  0.59114318549E+02  0.19670005198E+02 -0.12337982408E+02  0.63518796997E+02  0.10000000000E+01 0.  0.
    9000005    1    3    3    0    0 -0.59114318549E+02 -0.19670005198E+02 -0.24801417696E+01  0.62358342387E+02  0.10000000000E+01 0.  0.
<mgrwt>
<rscale>  0 0.12500191E+03</rscale>
<asrwt>0</asrwt>
<pdfrwt beam="1">  1        4 0.85430012E-02 0.12500191E+03</pdfrwt>
<pdfrwt beam="2">  1       -4 0.10822713E-01 0.12500191E+03</pdfrwt>
<totfact> 0.10433202E+04</totfact>
</mgrwt>
</event>
<event>
 5    1  0.3225662E-002  0.1249971E+03  0.7818608E-02  0.1235074E+00
         -4   -1    0    0    0  501 -0.00000000000E+00  0.00000000000E+00  0.41562726388E+02  0.41582125063E+02  0.12700000000E+01 0. -1.
          4   -1    0    0  501    0  0.00000000000E+00 -0.00000000000E+00 -0.93934420200E+02  0.93943005052E+02  0.12700000000E+01 0. -1.
         25    2    1    2    0    0  0.00000000000E+00  0.00000000000E+00 -0.52371693812E+02  0.13552513012E+03  0.12499706629E+03 0.  0.
    9000005    1    3    3    0    0 -0.19364404786E+01 -0.28068032602E+02  0.34312654147E+02  0.44383808878E+02  0.10000000000E+01 0.  0.
    9000005    1    3    3    0    0  0.19364404786E+01  0.28068032602E+02 -0.86684347959E+02  0.91141321238E+02  0.10000000000E+01 0.  0.
<mgrwt>
<rscale>  0 0.12499707E+03</rscale>
<asrwt>0</asrwt>
<pdfrwt beam="2">  1        4 0.14453602E-01 0.12499707E+03</pdfrwt>
<pdfrwt beam="1">  1       -4 0.63964182E-02 0.12499707E+03</pdfrwt>
<totfact> 0.10227691E+04</totfact>
</mgrwt>
</event>
<event>
 5    1  0.3225662E-002  0.1250025E+03  0.7818608E-02  0.1235065E+00
         -4   -1    0    0    0  501 -0.00000000000E+00  0.00000000000E+00  0.45810472257E+03  0.45810648297E+03  0.12700000000E+01 0.  1.
          4   -1    0    0  501    0  0.00000000000E+00 -0.00000000000E+00 -0.84782527487E+01  0.85728448995E+01  0.12700000000E+01 0.  1.
         25    2    1    2    0    0  0.00000000000E+00  0.00000000000E+00  0.44962646982E+03  0.46667932787E+03  0.12500253077E+03 0.  0.
    9000005    1    3    3    0    0  0.18607248601E+02 -0.57941412445E+02  0.27787045343E+03  0.28445812674E+03  0.10000000000E+01 0.  0.
    9000005    1    3    3    0    0 -0.18607248601E+02  0.57941412445E+02  0.17175601638E+03  0.18222120113E+03  0.10000000000E+01 0.  0.
<mgrwt>
<rscale>  0 0.12500253E+03</rscale>
<asrwt>0</asrwt>
<pdfrwt beam="2">  1        4 0.13117580E-02 0.12500253E+03</pdfrwt>
<pdfrwt beam="1">  1       -4 0.70485077E-01 0.12500253E+03</pdfrwt>
<totfact> 0.58542344E+03</totfact>
</mgrwt>
</event>
<event>
 5    1  0.3225662E-002  0.1249997E+03  0.7818608E-02  0.1235070E+00
          4   -1    0    0  501    0  0.00000000000E+00  0.00000000000E+00  0.22392103620E+02  0.22428089631E+02  0.12700000000E+01 0. -1.
         -4   -1    0    0    0  501 -0.00000000000E+00 -0.00000000000E+00 -0.17426835919E+03  0.17427298676E+03  0.12700000000E+01 0. -1.
         25    2    1    2    0    0  0.00000000000E+00  0.00000000000E+00 -0.15187625557E+03  0.19670107639E+03  0.12499966579E+03 0.  0.
    9000005    1    3    3    0    0  0.50223180451E+01 -0.10963032058E+02 -0.17242789510E+03  0.17285193305E+03  0.10000000000E+01 0.  0.
    9000005    1    3    3    0    0 -0.50223180451E+01  0.10963032058E+02  0.20551639534E+02  0.23849143339E+02  0.10000000000E+01 0.  0.
<mgrwt>
<rscale>  0 0.12499967E+03</rscale>
<asrwt>0</asrwt>
<pdfrwt beam="1">  1        4 0.34480632E-02 0.12499967E+03</pdfrwt>
<pdfrwt beam="2">  1       -4 0.26813640E-01 0.12499967E+03</pdfrwt>
<totfact> 0.90694924E+03</totfact>
</mgrwt>
</event>
<event>
 5    1  0.3225662E-002  0.1250011E+03  0.7818608E-02  0.1235068E+00
         -4   -1    0    0    0  501 -0.00000000000E+00  0.00000000000E+00  0.39053361117E+03  0.39053567616E+03  0.12700000000E+01 0. -1.
          4   -1    0    0  501    0  0.00000000000E+00 -0.00000000000E+00 -0.99601000407E+01  0.10040741647E+02  0.12700000000E+01 0. -1.
         25    2    1    2    0    0  0.00000000000E+00  0.00000000000E+00  0.38057351113E+03  0.40057641780E+03  0.12500107651E+03 0.  0.
    9000005    1    3    3    0    0 -0.31942402226E+02 -0.53655879967E+02  0.18240662788E+03  0.19280157782E+03  0.10000000000E+01 0.  0.
    9000005    1    3    3    0    0  0.31942402226E+02  0.53655879967E+02  0.19816688325E+03  0.20777483998E+03  0.10000000000E+01 0.  0.
<mgrwt>
<rscale>  0 0.12500108E+03</rscale>
<asrwt>0</asrwt>
<pdfrwt beam="2">  1        4 0.15386852E-02 0.12500108E+03</pdfrwt>
<pdfrwt beam="1">  1       -4 0.60088451E-01 0.12500108E+03</pdfrwt>
<totfact> 0.64495234E+03</totfact>
</mgrwt>
</event>
<event>
 5    1  0.3225662E-002  0.1249993E+03  0.7818608E-02  0.1235070E+00
         -4   -1    0    0    0  501 -0.00000000000E+00  0.00000000000E+00  0.89998563616E+03  0.89998653223E+03  0.12700000000E+01 0. -1.
          4   -1    0    0  501    0  0.00000000000E+00 -0.00000000000E+00 -0.42464774373E+01  0.44323211329E+01  0.12700000000E+01 0. -1.
         25    2    1    2    0    0  0.00000000000E+00  0.00000000000E+00  0.89573915872E+03  0.90441885336E+03  0.12499928739E+03 0.  0.
    9000005    1    3    3    0    0 -0.50934982876E+02 -0.74894075590E+01  0.19157510366E+03  0.19837460535E+03  0.10000000000E+01 0.  0.
    9000005    1    3    3    0    0  0.50934982876E+02  0.74894075590E+01  0.70416405506E+03  0.70604424801E+03  0.10000000000E+01 0.  0.
<mgrwt>
<rscale>  0 0.12499929E+03</rscale>
<asrwt>0</asrwt>
<pdfrwt beam="2">  1        4 0.66766930E-03 0.12499929E+03</pdfrwt>
<pdfrwt beam="1">  1       -4 0.13847359E+00 0.12499929E+03</pdfrwt>
<totfact> 0.33991831E+03</totfact>
</mgrwt>
</event>
<event>
 5    1  0.3225662E-002  0.1250045E+03  0.7818608E-02  0.1235062E+00
          4   -1    0    0  501    0  0.00000000000E+00  0.00000000000E+00  0.42775863793E+03  0.42776052322E+03  0.12700000000E+01 0. -1.
         -4   -1    0    0    0  501 -0.00000000000E+00 -0.00000000000E+00 -0.90864983445E+01  0.91748216421E+01  0.12700000000E+01 0. -1.
         25    2    1    2    0    0  0.00000000000E+00  0.00000000000E+00  0.41867213959E+03  0.43693534486E+03  0.12500454041E+03 0.  0.
    9000005    1    3    3    0    0  0.16435434221E+02 -0.56987434855E+02  0.27817262317E+03  0.28442696692E+03  0.10000000000E+01 0.  0.
    9000005    1    3    3    0    0 -0.16435434221E+02  0.56987434855E+02  0.14049951642E+03  0.15250837794E+03  0.10000000000E+01 0.  0.
<mgrwt>
<rscale>  0 0.12500454E+03</rscale>
<asrwt>0</asrwt>
<pdfrwt beam="1">  1        4 0.65815970E-01 0.12500454E+03</pdfrwt>
<pdfrwt beam="2">  1       -4 0.14048617E-02 0.12500454E+03</pdfrwt>
<totfact> 0.61106214E+03</totfact>
</mgrwt>
</event>
<event>
 5    1  0.3225662E-002  0.1250221E+03  0.7818608E-02  0.1235035E+00
          4   -1    0    0  501    0  0.00000000000E+00  0.00000000000E+00  0.99348467174E+01  0.10015691654E+02  0.12700000000E+01 0. -1.
         -4   -1    0    0    0  501 -0.00000000000E+00 -0.00000000000E+00 -0.39164999952E+03  0.39165205862E+03  0.12700000000E+01 0. -1.
         25    2    1    2    0    0  0.00000000000E+00  0.00000000000E+00 -0.38171515280E+03  0.40166775027E+03  0.12502209298E+03 0.  0.
    9000005    1    3    3    0    0  0.10941825999E+02  0.49860788480E+02 -0.30673184081E+03  0.31095215701E+03  0.10000000000E+01 0.  0.
    9000005    1    3    3    0    0 -0.10941825999E+02 -0.49860788480E+02 -0.74983311994E+02  0.90715593266E+02  0.10000000000E+01 0.  0.
<mgrwt>
<rscale>  0 0.12502209E+03</rscale>
<asrwt>0</asrwt>
<pdfrwt beam="1">  1        4 0.15348155E-02 0.12502209E+03</pdfrwt>
<pdfrwt beam="2">  1       -4 0.60260212E-01 0.12502209E+03</pdfrwt>
<totfact> 0.64359520E+03</totfact>
</mgrwt>
</event>
<event>
 5    1  0.3225662E-002  0.1250011E+03  0.7818608E-02  0.1235068E+00
         -4   -1    0    0    0  501 -0.00000000000E+00  0.00000000000E+00  0.30495883373E+03  0.30496147817E+03  0.12700000000E+01 0.  1.
          4   -1    0    0  501    0  0.00000000000E+00 -0.00000000000E+00 -0.12775143194E+02  0.12838114489E+02  0.12700000000E+01 0.  1.
         25    2    1    2    0    0  0.00000000000E+00  0.00000000000E+00  0.29218369054E+03  0.31779959266E+03  0.12500108832E+03 0.  0.
    9000005    1    3    3    0    0  0.31481020867E+01 -0.47187738024E+02  0.42235769370E+02  0.63414930268E+02  0.10000000000E+01 0.  0.
    9000005    1    3    3    0    0 -0.31481020867E+01  0.47187738024E+02  0.24994792117E+03  0.25438466239E+03  0.10000000000E+01 0.  0.
<mgrwt>
<rscale>  0 0.12500109E+03</rscale>
<asrwt>0</asrwt>
<pdfrwt beam="2">  1        4 0.19704540E-02 0.12500109E+03</pdfrwt>
<pdfrwt beam="1">  1       -4 0.46921790E-01 0.12500109E+03</pdfrwt>
<totfact> 0.73416828E+03</totfact>
</mgrwt>
</event>
<event>
 5    1  0.3225662E-002  0.1249993E+03  0.7818608E-02  0.1235070E+00
         -4   -1    0    0    0  501 -0.00000000000E+00  0.00000000000E+00  0.98129352608E+02  0.98137570498E+02  0.12700000000E+01 0.  1.
          4   -1    0    0  501    0  0.00000000000E+00 -0.00000000000E+00 -0.39786685098E+02  0.39806949282E+02  0.12700000000E+01 0.  1.
         25    2    1    2    0    0  0.00000000000E+00  0.00000000000E+00  0.58342667510E+02  0.13794451978E+03  0.12499929474E+03 0.  0.
    9000005    1    3    3    0    0 -0.23970639978E+01 -0.38974478668E+02 -0.24671315734E+02  0.46199888780E+02  0.10000000000E+01 0.  0.
    9000005    1    3    3    0    0  0.23970639978E+01  0.38974478668E+02  0.83013983244E+02  0.91744631000E+02  0.10000000000E+01 0.  0.
<mgrwt>
<rscale>  0 0.12499929E+03</rscale>
<asrwt>0</asrwt>
<pdfrwt beam="2">  1        4 0.61232195E-02 0.12499929E+03</pdfrwt>
<pdfrwt beam="1">  1       -4 0.15099014E-01 0.12499929E+03</pdfrwt>
<totfact> 0.10176527E+04</totfact>
</mgrwt>
</event>
<event>
 5    1  0.3225662E-002  0.1250069E+03  0.7818608E-02  0.1235058E+00
          4   -1    0    0  501    0  0.00000000000E+00  0.00000000000E+00  0.80504857403E+02  0.80514874188E+02  0.12700000000E+01 0.  1.
         -4   -1    0    0    0  501 -0.00000000000E+00 -0.00000000000E+00 -0.48505955771E+02  0.48522578716E+02  0.12700000000E+01 0.  1.
         25    2    1    2    0    0  0.00000000000E+00  0.00000000000E+00  0.31998901632E+02  0.12903745290E+03  0.12500693799E+03 0.  0.
    9000005    1    3    3    0    0  0.57032246467E+02 -0.14389761804E+02  0.37797643649E+02  0.69924275093E+02  0.10000000000E+01 0.  0.
    9000005    1    3    3    0    0 -0.57032246467E+02  0.14389761804E+02 -0.57987420176E+01  0.59113177811E+02  0.10000000000E+01 0.  0.
<mgrwt>
<rscale>  0 0.12500694E+03</rscale>
<asrwt>0</asrwt>
<pdfrwt beam="1">  1        4 0.12387412E-01 0.12500694E+03</pdfrwt>
<pdfrwt beam="2">  1       -4 0.74645040E-02 0.12500694E+03</pdfrwt>
<totfact> 0.10363519E+04</totfact>
</mgrwt>
</event>
<event>
 5    1  0.3225662E-002  0.1249991E+03  0.7818608E-02  0.1235071E+00
         -4   -1    0    0    0  501 -0.00000000000E+00  0.00000000000E+00  0.11961126357E+03  0.11961800563E+03  0.12700000000E+01 0. -1.
          4   -1    0    0  501    0  0.00000000000E+00 -0.00000000000E+00 -0.32637379524E+02  0.32662079575E+02  0.12700000000E+01 0. -1.
         25    2    1    2    0    0  0.00000000000E+00  0.00000000000E+00  0.86973884041E+02  0.15228008521E+03  0.12499907138E+03 0.  0.
    9000005    1    3    3    0    0 -0.27586935182E+02  0.55588840482E+02  0.52442012532E+02  0.81254678987E+02  0.10000000000E+01 0.  0.
    9000005    1    3    3    0    0  0.27586935182E+02 -0.55588840482E+02  0.34531871510E+02  0.71025406221E+02  0.10000000000E+01 0.  0.
<mgrwt>
<rscale>  0 0.12499907E+03</rscale>
<asrwt>0</asrwt>
<pdfrwt beam="2">  1        4 0.50235540E-02 0.12499907E+03</pdfrwt>
<pdfrwt beam="1">  1       -4 0.18404151E-01 0.12499907E+03</pdfrwt>
<totfact> 0.98853190E+03</totfact>
</mgrwt>
</event>
<event>
 5    1  0.3225662E-002  0.1249973E+03  0.7818608E-02  0.1235074E+00
          4   -1    0    0  501    0  0.00000000000E+00  0.00000000000E+00  0.30438484164E+02  0.30464967064E+02  0.12700000000E+01 0.  1.
         -4   -1    0    0    0  501 -0.00000000000E+00 -0.00000000000E+00 -0.12824155807E+03  0.12824784644E+03  0.12700000000E+01 0.  1.
         25    2    1    2    0    0  0.00000000000E+00  0.00000000000E+00 -0.97803073904E+02  0.15871281350E+03  0.12499726359E+03 0.  0.
    9000005    1    3    3    0    0  0.47805206347E+02 -0.31939249567E+02 -0.79993744143E+02  0.98516255100E+02  0.10000000000E+01 0.  0.
    9000005    1    3    3    0    0 -0.47805206347E+02  0.31939249567E+02 -0.17809329760E+02  0.60196558401E+02  0.10000000000E+01 0.  0.
<mgrwt>
<rscale>  0 0.12499726E+03</rscale>
<asrwt>0</asrwt>
<pdfrwt beam="1">  1        4 0.46853646E-02 0.12499726E+03</pdfrwt>
<pdfrwt beam="2">  1       -4 0.19731991E-01 0.12499726E+03</pdfrwt>
<totfact> 0.97597523E+03</totfact>
</mgrwt>
</event>
<event>
 5    1  0.3225662E-002  0.1250306E+03  0.7818608E-02  0.1235021E+00
         -4   -1    0    0    0  501 -0.00000000000E+00  0.00000000000E+00  0.44008122949E+02  0.44026444162E+02  0.12700000000E+01 0. -1.
          4   -1    0    0  501    0  0.00000000000E+00 -0.00000000000E+00 -0.88764197273E+02  0.88773282116E+02  0.12700000000E+01 0. -1.
         25    2    1    2    0    0  0.00000000000E+00  0.00000000000E+00 -0.44756074324E+02  0.13279972628E+03  0.12503064069E+03 0.  0.
    9000005    1    3    3    0    0 -0.31956189773E+02  0.44390151673E+02  0.97589785015E+01  0.55569067761E+02  0.10000000000E+01 0.  0.
    9000005    1    3    3    0    0  0.31956189773E+02 -0.44390151673E+02 -0.54515052826E+02  0.77230658517E+02  0.10000000000E+01 0.  0.
<mgrwt>
<rscale>  0 0.12503064E+03</rscale>
<asrwt>0</asrwt>
<pdfrwt beam="2">  1        4 0.13658138E-01 0.12503064E+03</pdfrwt>
<pdfrwt beam="1">  1       -4 0.67725887E-02 0.12503064E+03</pdfrwt>
<totfact> 0.10277553E+04</totfact>
</mgrwt>
</event>
<event>
 5    1  0.3225662E-002  0.1249863E+03  0.7818608E-02  0.1235091E+00
         -4   -1    0    0    0  501 -0.00000000000E+00  0.00000000000E+00  0.70111607122E+02  0.70123108554E+02  0.12700000000E+01 0.  1.
          4   -1    0    0  501    0  0.00000000000E+00 -0.00000000000E+00 -0.55679217689E+02  0.55693699666E+02  0.12700000000E+01 0.  1.
         25    2    1    2    0    0  0.00000000000E+00  0.00000000000E+00  0.14432389433E+02  0.12581680822E+03  0.12498630071E+03 0.  0.
    9000005    1    3    3    0    0  0.48134302402E+02 -0.71100545534E+01 -0.32248003057E+02  0.58381483749E+02  0.10000000000E+01 0.  0.
    9000005    1    3    3    0    0 -0.48134302402E+02  0.71100545534E+01  0.46680392490E+02  0.67435324471E+02  0.10000000000E+01 0.  0.
<mgrwt>
<rscale>  0 0.12498630E+03</rscale>
<asrwt>0</asrwt>
<pdfrwt beam="2">  1        4 0.85680322E-02 0.12498630E+03</pdfrwt>
<pdfrwt beam="1">  1       -4 0.10788400E-01 0.12498630E+03</pdfrwt>
<totfact> 0.10438202E+04</totfact>
</mgrwt>
</event>
<event>
 5    1  0.3225662E-002  0.1249989E+03  0.7818608E-02  0.1235071E+00
         -4   -1    0    0    0  501 -0.00000000000E+00  0.00000000000E+00  0.15950989586E+02  0.16001467707E+02  0.12700000000E+01 0.  1.
          4   -1    0    0  501    0  0.00000000000E+00 -0.00000000000E+00 -0.24444758589E+03  0.24445088494E+03  0.12700000000E+01 0.  1.
         25    2    1    2    0    0  0.00000000000E+00  0.00000000000E+00 -0.22849659631E+03  0.26045235265E+03  0.12499893390E+03 0.  0.
    9000005    1    3    3    0    0 -0.56747725934E+00  0.11353316431E+02  0.13788814572E+02  0.17898358352E+02  0.10000000000E+01 0.  0.
    9000005    1    3    3    0    0  0.56747725934E+00 -0.11353316431E+02 -0.24228541088E+03  0.24255399430E+03  0.10000000000E+01 0.  0.
<mgrwt>
<rscale>  0 0.12499893E+03</rscale>
<asrwt>0</asrwt>
<pdfrwt beam="2">  1        4 0.37611455E-01 0.12499893E+03</pdfrwt>
<pdfrwt beam="1">  1       -4 0.24581353E-02 0.12499893E+03</pdfrwt>
<totfact> 0.80844541E+03</totfact>
</mgrwt>
</event>
<event>
 5    1  0.3225662E-002  0.1250000E+03  0.7818608E-02  0.1235069E+00
          4   -1    0    0  501    0  0.00000000000E+00  0.00000000000E+00  0.19634029911E+03  0.19634440648E+03  0.12700000000E+01 0. -1.
         -4   -1    0    0    0  501 -0.00000000000E+00 -0.00000000000E+00 -0.19870710449E+02  0.19911253947E+02  0.12700000000E+01 0. -1.
         25    2    1    2    0    0  0.00000000000E+00  0.00000000000E+00  0.17646958867E+03  0.21625566043E+03  0.12499997977E+03 0.  0.
    9000005    1    3    3    0    0  0.25592624166E+02  0.47871366754E+02  0.34670433214E+02  0.64418080582E+02  0.10000000000E+01 0.  0.
    9000005    1    3    3    0    0 -0.25592624166E+02 -0.47871366754E+02  0.14179915545E+03  0.15183757985E+03  0.10000000000E+01 0.  0.
<mgrwt>
<rscale>  0 0.12499998E+03</rscale>
<asrwt>0</asrwt>
<pdfrwt beam="1">  1        4 0.30209635E-01 0.12499998E+03</pdfrwt>
<pdfrwt beam="2">  1       -4 0.30604670E-02 0.12499998E+03</pdfrwt>
<totfact> 0.87464370E+03</totfact>
</mgrwt>
</event>
<event>
 5    1  0.3225662E-002  0.1249992E+03  0.7818608E-02  0.1235071E+00
         -4   -1    0    0    0  501 -0.00000000000E+00  0.00000000000E+00  0.13605078738E+02  0.13664225827E+02  0.12700000000E+01 0.  1.
          4   -1    0    0  501    0  0.00000000000E+00 -0.00000000000E+00 -0.28643002668E+03  0.28643284219E+03  0.12700000000E+01 0.  1.
         25    2    1    2    0    0  0.00000000000E+00  0.00000000000E+00 -0.27282494794E+03  0.30009706802E+03  0.12499919204E+03 0.  0.
    9000005    1    3    3    0    0  0.50747293950E+02  0.36463457456E+02 -0.13503765608E+03  0.14879865635E+03  0.10000000000E+01 0.  0.
    9000005    1    3    3    0    0 -0.50747293950E+02 -0.36463457456E+02 -0.13778729187E+03  0.15129841167E+03  0.10000000000E+01 0.  0.
<mgrwt>
<rscale>  0 0.12499919E+03</rscale>
<asrwt>0</asrwt>
<pdfrwt beam="2">  1        4 0.44070920E-01 0.12499919E+03</pdfrwt>
<pdfrwt beam="1">  1       -4 0.20978556E-02 0.12499919E+03</pdfrwt>
<totfact> 0.75588022E+03</totfact>
</mgrwt>
</event>
<event>
 5    1  0.3225662E-002  0.1250025E+03  0.7818608E-02  0.1235065E+00
          4   -1    0    0  501    0  0.00000000000E+00  0.00000000000E+00  0.74469262928E+03  0.74469371221E+03  0.12700000000E+01 0.  1.
         -4   -1    0    0    0  501 -0.00000000000E+00 -0.00000000000E+00 -0.51676957093E+01  0.53214639851E+01  0.12700000000E+01 0.  1.
         25    2    1    2    0    0  0.00000000000E+00  0.00000000000E+00  0.73952493357E+03  0.75001517620E+03  0.12500254857E+03 0.  0.
    9000005    1    3    3    0    0 -0.59214604943E+02 -0.30513334609E+01  0.48821181188E+03  0.49180021689E+03  0.10000000000E+01 0.  0.
    9000005    1    3    3    0    0  0.59214604943E+02  0.30513334609E+01  0.25131312170E+03  0.25821495931E+03  0.10000000000E+01 0.  0.
<mgrwt>
<rscale>  0 0.12500255E+03</rscale>
<asrwt>0</asrwt>
<pdfrwt beam="1">  1        4 0.11457987E+00 0.12500255E+03</pdfrwt>
<pdfrwt beam="2">  1       -4 0.80694269E-03 0.12500255E+03</pdfrwt>
<totfact> 0.40571189E+03</totfact>
</mgrwt>
</event>
<event>
 5    1  0.3225662E-002  0.1250281E+03  0.7818608E-02  0.1235025E+00
         -4   -1    0    0    0  501 -0.00000000000E+00  0.00000000000E+00  0.19767512846E+02  0.19808267570E+02  0.12700000000E+01 0. -1.
          4   -1    0    0  501    0  0.00000000000E+00 -0.00000000000E+00 -0.19745207160E+03  0.19745615584E+03  0.12700000000E+01 0. -1.
         25    2    1    2    0    0  0.00000000000E+00  0.00000000000E+00 -0.17768455876E+03  0.21726442341E+03  0.12502810588E+03 0.  0.
    9000005    1    3    3    0    0 -0.81851279087E+01 -0.41981077597E+02 -0.16804897473E+03  0.17340953002E+03  0.10000000000E+01 0.  0.
    9000005    1    3    3    0    0  0.81851279087E+01  0.41981077597E+02 -0.96355840325E+01  0.43854893395E+02  0.10000000000E+01 0.  0.
<mgrwt>
<rscale>  0 0.12502811E+03</rscale>
<asrwt>0</asrwt>
<pdfrwt beam="2">  1        4 0.30380690E-01 0.12502811E+03</pdfrwt>
<pdfrwt beam="1">  1       -4 0.30446051E-02 0.12502811E+03</pdfrwt>
<totfact> 0.87248280E+03</totfact>
</mgrwt>
</event>
<event>
 5    1  0.3225662E-002  0.1250015E+03  0.7818608E-02  0.1235067E+00
          4   -1    0    0  501    0  0.00000000000E+00  0.00000000000E+00  0.60624175194E+02  0.60637476184E+02  0.12700000000E+01 0.  1.
         -4   -1    0    0    0  501 -0.00000000000E+00 -0.00000000000E+00 -0.64408800591E+02  0.64421320179E+02  0.12700000000E+01 0.  1.
         25    2    1    2    0    0  0.00000000000E+00  0.00000000000E+00 -0.37846253973E+01  0.12505879636E+03  0.12500151662E+03 0.  0.
    9000005    1    3    3    0    0  0.54709430586E+02 -0.25107501026E+02 -0.18687988899E+02  0.63037681841E+02  0.10000000000E+01 0.  0.
    9000005    1    3    3    0    0 -0.54709430586E+02  0.25107501026E+02  0.14903363502E+02  0.62021114522E+02  0.10000000000E+01 0.  0.
<mgrwt>
<rscale>  0 0.12500152E+03</rscale>
<asrwt>0</asrwt>
<pdfrwt beam="1">  1        4 0.93287824E-02 0.12500152E+03</pdfrwt>
<pdfrwt beam="2">  1       -4 0.99110324E-02 0.12500152E+03</pdfrwt>
<totfact> 0.10451227E+04</totfact>
</mgrwt>
</event>
<event>
 5    1  0.3225662E-002  0.1250026E+03  0.7818608E-02  0.1235065E+00
          4   -1    0    0  501    0  0.00000000000E+00  0.00000000000E+00  0.11743600035E+03  0.11744286730E+03  0.12700000000E+01 0.  1.
         -4   -1    0    0    0  501 -0.00000000000E+00 -0.00000000000E+00 -0.33244230697E+02  0.33268480197E+02  0.12700000000E+01 0.  1.
         25    2    1    2    0    0  0.00000000000E+00  0.00000000000E+00  0.84191769656E+02  0.15071134749E+03  0.12500262471E+03 0.  0.
    9000005    1    3    3    0    0 -0.22181440004E+02 -0.22373220875E+02 -0.22974727510E+02  0.39005325240E+02  0.10000000000E+01 0.  0.
    9000005    1    3    3    0    0  0.22181440004E+02  0.22373220875E+02  0.10716649717E+03  0.11170602225E+03  0.10000000000E+01 0.  0.
<mgrwt>
<rscale>  0 0.12500262E+03</rscale>
<asrwt>0</asrwt>
<pdfrwt beam="1">  1        4 0.18069470E-01 0.12500262E+03</pdfrwt>
<pdfrwt beam="2">  1       -4 0.51168907E-02 0.12500262E+03</pdfrwt>
<totfact> 0.99156234E+03</totfact>
</mgrwt>
</event>
<event>
 5    1  0.3225662E-002  0.1249992E+03  0.7818608E-02  0.1235071E+00
         -4   -1    0    0    0  501 -0.00000000000E+00  0.00000000000E+00  0.12719950554E+02  0.12783193736E+02  0.12700000000E+01 0. -1.
          4   -1    0    0  501    0  0.00000000000E+00 -0.00000000000E+00 -0.30626625570E+03  0.30626888886E+03  0.12700000000E+01 0. -1.
         25    2    1    2    0    0  0.00000000000E+00  0.00000000000E+00 -0.29354630515E+03  0.31905208260E+03  0.12499919256E+03 0.  0.
    9000005    1    3    3    0    0  0.53703698757E+02 -0.12094281718E+02 -0.22226826691E+03  0.22898589778E+03  0.10000000000E+01 0.  0.
    9000005    1    3    3    0    0 -0.53703698757E+02  0.12094281718E+02 -0.71278038245E+02  0.90066184812E+02  0.10000000000E+01 0.  0.
<mgrwt>
<rscale>  0 0.12499919E+03</rscale>
<asrwt>0</asrwt>
<pdfrwt beam="2">  1        4 0.47122947E-01 0.12499919E+03</pdfrwt>
<pdfrwt beam="1">  1       -4 0.19619831E-02 0.12499919E+03</pdfrwt>
<totfact> 0.73270323E+03</totfact>
</mgrwt>
</event>
<event>
 5    1  0.3225662E-002  0.1250018E+03  0.7818608E-02  0.1235066E+00
         -4   -1    0    0    0  501 -0.00000000000E+00  0.00000000000E+00  0.19436584974E+02  0.19478032125E+02  0.12700000000E+01 0. -1.
          4   -1    0    0  501    0  0.00000000000E+00 -0.00000000000E+00 -0.20072231879E+03  0.20072633649E+03  0.12700000000E+01 0. -1.
         25    2    1    2    0    0  0.00000000000E+00  0.00000000000E+00 -0.18128573382E+03  0.22020436861E+03  0.12500178667E+03 0.  0.
    9000005    1    3    3    0    0 -0.14016260189E+02  0.48904285658E+02 -0.15457927857E+03  0.16273855741E+03  0.10000000000E+01 0.  0.
    9000005    1    3    3    0    0  0.14016260189E+02 -0.48904285658E+02 -0.26706455248E+02  0.57465811204E+02  0.10000000000E+01 0.  0.
<mgrwt>
<rscale>  0 0.12500179E+03</rscale>
<asrwt>0</asrwt>
<pdfrwt beam="2">  1        4 0.30883853E-01 0.12500179E+03</pdfrwt>
<pdfrwt beam="1">  1       -4 0.29937413E-02 0.12500179E+03</pdfrwt>
<totfact> 0.86832557E+03</totfact>
</mgrwt>
</event>
<event>
 5    1  0.3225662E-002  0.1250003E+03  0.7818608E-02  0.1235069E+00
         -4   -1    0    0    0  501 -0.00000000000E+00  0.00000000000E+00  0.10275374759E+04  0.10275382608E+04  0.12700000000E+01 0. -1.
          4   -1    0    0  501    0  0.00000000000E+00 -0.00000000000E+00 -0.36947047609E+01  0.39068840871E+01  0.12700000000E+01 0. -1.
         25    2    1    2    0    0  0.00000000000E+00  0.00000000000E+00  0.10238427712E+04  0.10314451449E+04  0.12500026707E+03 0.  0.
    9000005    1    3    3    0    0  0.24570500965E+01  0.25247059940E+02  0.40656701930E+02  0.47931394123E+02  0.10000000000E+01 0.  0.
    9000005    1    3    3    0    0 -0.24570500965E+01 -0.25247059940E+02  0.98318606925E+03  0.98351375075E+03  0.10000000000E+01 0.  0.
<mgrwt>
<rscale>  0 0.12500027E+03</rscale>
<asrwt>0</asrwt>
<pdfrwt beam="2">  1        4 0.58479761E-03 0.12500027E+03</pdfrwt>
<pdfrwt beam="1">  1       -4 0.15809917E+00 0.12500027E+03</pdfrwt>
<totfact> 0.29581073E+03</totfact>
</mgrwt>
</event>
<event>
 5    1  0.3225662E-002  0.1249991E+03  0.7818608E-02  0.1235071E+00
          4   -1    0    0  501    0  0.00000000000E+00  0.00000000000E+00  0.13600646914E+01  0.18608266886E+01  0.12700000000E+01 0.  1.
         -4   -1    0    0    0  501 -0.00000000000E+00 -0.00000000000E+00 -0.24250344068E+04  0.24250347393E+04  0.12700000000E+01 0.  1.
         25    2    1    2    0    0  0.00000000000E+00  0.00000000000E+00 -0.24236743421E+04  0.24268955660E+04  0.12499908748E+03 0.  0.
    9000005    1    3    3    0    0  0.52951150262E+02  0.26296198531E+02 -0.16049089515E+04  0.16059978384E+04  0.10000000000E+01 0.  0.
    9000005    1    3    3    0    0 -0.52951150262E+02 -0.26296198531E+02 -0.81876539057E+03  0.82089772759E+03  0.10000000000E+01 0.  0.
<mgrwt>
<rscale>  0 0.12499909E+03</rscale>
<asrwt>0</asrwt>
<pdfrwt beam="1">  1        4 0.24778840E-03 0.12499909E+03</pdfrwt>
<pdfrwt beam="2">  1       -4 0.37311784E+00 0.12499909E+03</pdfrwt>
<totfact> 0.52696899E+02</totfact>
</mgrwt>
</event>
<event>
 5    1  0.3225662E-002  0.1249979E+03  0.7818608E-02  0.1235073E+00
          4   -1    0    0  501    0  0.00000000000E+00  0.00000000000E+00  0.64935855201E+01  0.66166118903E+01  0.12700000000E+01 0. -1.
         -4   -1    0    0    0  501 -0.00000000000E+00 -0.00000000000E+00 -0.59576677826E+03  0.59576813190E+03  0.12700000000E+01 0. -1.
         25    2    1    2    0    0  0.00000000000E+00  0.00000000000E+00 -0.58927319274E+03  0.60238474379E+03  0.12499793542E+03 0.  0.
    9000005    1    3    3    0    0  0.47501149134E+02  0.10141419213E+02 -0.48411674072E+03  0.48654827736E+03  0.10000000000E+01 0.  0.
    9000005    1    3    3    0    0 -0.47501149134E+02 -0.10141419213E+02 -0.10515645202E+03  0.11583646643E+03  0.10000000000E+01 0.  0.
<mgrwt>
<rscale>  0 0.12499794E+03</rscale>
<asrwt>0</asrwt>
<pdfrwt beam="1">  1        4 0.10085813E-02 0.12499794E+03</pdfrwt>
<pdfrwt beam="2">  1       -4 0.91665952E-01 0.12499794E+03</pdfrwt>
<totfact> 0.48719646E+03</totfact>
</mgrwt>
</event>
<event>
 5    1  0.3225662E-002  0.1249996E+03  0.7818608E-02  0.1235070E+00
          4   -1    0    0  501    0  0.00000000000E+00  0.00000000000E+00  0.35947539722E+01  0.38124999831E+01  0.12700000000E+01 0. -1.
         -4   -1    0    0    0  501 -0.00000000000E+00 -0.00000000000E+00 -0.10544852639E+04  0.10544860286E+04  0.12700000000E+01 0. -1.
         25    2    1    2    0    0  0.00000000000E+00  0.00000000000E+00 -0.10508905099E+04  0.10582985286E+04  0.12499964766E+03 0.  0.
    9000005    1    3    3    0    0 -0.47437146033E+02  0.32407602725E+02 -0.31725199136E+03  0.32241333961E+03  0.10000000000E+01 0.  0.
    9000005    1    3    3    0    0  0.47437146033E+02 -0.32407602725E+02 -0.73363851853E+03  0.73588518901E+03  0.10000000000E+01 0.  0.
<mgrwt>
<rscale>  0 0.12499965E+03</rscale>
<asrwt>0</asrwt>
<pdfrwt beam="1">  1        4 0.56984843E-03 0.12499965E+03</pdfrwt>
<pdfrwt beam="2">  1       -4 0.16224507E+00 0.12499965E+03</pdfrwt>
<totfact> 0.28737333E+03</totfact>
</mgrwt>
</event>
<event>
 5    1  0.3225662E-002  0.1250032E+03  0.7818608E-02  0.1235064E+00
         -4   -1    0    0    0  501 -0.00000000000E+00  0.00000000000E+00  0.74085638429E+01  0.75166294451E+01  0.12700000000E+01 0. -1.
          4   -1    0    0  501    0  0.00000000000E+00 -0.00000000000E+00 -0.52336171790E+03  0.52336325880E+03  0.12700000000E+01 0. -1.
         25    2    1    2    0    0  0.00000000000E+00  0.00000000000E+00 -0.51595315405E+03  0.53087988824E+03  0.12500319421E+03 0.  0.
    9000005    1    3    3    0    0 -0.36368925064E+02 -0.44632501965E+02 -0.36119452681E+03  0.36575571785E+03  0.10000000000E+01 0.  0.
    9000005    1    3    3    0    0  0.36368925064E+02  0.44632501965E+02 -0.15475862725E+03  0.16512417040E+03  0.10000000000E+01 0.  0.
<mgrwt>
<rscale>  0 0.12500319E+03</rscale>
<asrwt>0</asrwt>
<pdfrwt beam="2">  1        4 0.80525590E-01 0.12500319E+03</pdfrwt>
<pdfrwt beam="1">  1       -4 0.11482107E-02 0.12500319E+03</pdfrwt>
<totfact> 0.53541874E+03</totfact>
</mgrwt>
</event>
<event>
 5    1  0.3225662E-002  0.1249992E+03  0.7818608E-02  0.1235071E+00
         -4   -1    0    0    0  501 -0.00000000000E+00  0.00000000000E+00  0.19325133362E+02  0.19366819033E+02  0.12700000000E+01 0.  1.
          4   -1    0    0  501    0  0.00000000000E+00 -0.00000000000E+00 -0.20186910237E+03  0.20187309725E+03  0.12700000000E+01 0.  1.
         25    2    1    2    0    0  0.00000000000E+00  0.00000000000E+00 -0.18254396901E+03  0.22123991628E+03  0.12499919973E+03 0.  0.
    9000005    1    3    3    0    0  0.45085556766E+02 -0.17091171451E+02 -0.20910074231E+02  0.52564691332E+02  0.10000000000E+01 0.  0.
    9000005    1    3    3    0    0 -0.45085556766E+02  0.17091171451E+02 -0.16163389478E+03  0.16867522495E+03  0.10000000000E+01 0.  0.
<mgrwt>
<rscale>  0 0.12499920E+03</rscale>
<asrwt>0</asrwt>
<pdfrwt beam="2">  1        4 0.31060297E-01 0.12499920E+03</pdfrwt>
<pdfrwt beam="1">  1       -4 0.29766115E-02 0.12499920E+03</pdfrwt>
<totfact> 0.86674078E+03</totfact>
</mgrwt>
</event>
<event>
 5    1  0.3225662E-002  0.1250019E+03  0.7818608E-02  0.1235066E+00
          4   -1    0    0  501    0  0.00000000000E+00  0.00000000000E+00  0.12172673402E+03  0.12173335893E+03  0.12700000000E+01 0. -1.
         -4   -1    0    0    0  501 -0.00000000000E+00 -0.00000000000E+00 -0.32071251708E+02  0.32096387431E+02  0.12700000000E+01 0. -1.
         25    2    1    2    0    0  0.00000000000E+00  0.00000000000E+00  0.89655482316E+02  0.15382974636E+03  0.12500194141E+03 0.  0.
    9000005    1    3    3    0    0  0.33817161512E+02  0.37756146970E+02  0.89812614021E+02  0.10313308239E+03  0.10000000000E+01 0.  0.
    9000005    1    3    3    0    0 -0.33817161512E+02 -0.37756146970E+02 -0.15713170566E+00  0.50696663965E+02  0.10000000000E+01 0.  0.
<mgrwt>
<rscale>  0 0.12500194E+03</rscale>
<asrwt>0</asrwt>
<pdfrwt beam="1">  1        4 0.18729633E-01 0.12500194E+03</pdfrwt>
<pdfrwt beam="2">  1       -4 0.49364818E-02 0.12500194E+03</pdfrwt>
<totfact> 0.98541396E+03</totfact>
</mgrwt>
</event>
<event>
 5    1  0.3225662E-002  0.1249994E+03  0.7818608E-02  0.1235070E+00
         -4   -1    0    0    0  501 -0.00000000000E+00  0.00000000000E+00  0.41596350025E+03  0.41596543900E+03  0.12700000000E+01 0. -1.
          4   -1    0    0  501    0  0.00000000000E+00 -0.00000000000E+00 -0.93458512457E+01  0.94317461537E+01  0.12700000000E+01 0. -1.
         25    2    1    2    0    0  0.00000000000E+00  0.00000000000E+00  0.40661764901E+03  0.42539718515E+03  0.12499941061E+03 0.  0.
    9000005    1    3    3    0    0 -0.48235962967E+02 -0.14237287731E+02  0.77078110862E+02  0.92040445780E+02  0.10000000000E+01 0.  0.
    9000005    1    3    3    0    0  0.48235962967E+02  0.14237287731E+02  0.32953953815E+03  0.33335673938E+03  0.10000000000E+01 0.  0.
<mgrwt>
<rscale>  0 0.12499941E+03</rscale>
<asrwt>0</asrwt>
<pdfrwt beam="2">  1        4 0.14445799E-02 0.12499941E+03</pdfrwt>
<pdfrwt beam="1">  1       -4 0.64001131E-01 0.12499941E+03</pdfrwt>
<totfact> 0.62156247E+03</totfact>
</mgrwt>
</event>
<event>
 5    1  0.3225662E-002  0.1249998E+03  0.7818608E-02  0.1235070E+00
         -4   -1    0    0    0  501 -0.00000000000E+00  0.00000000000E+00  0.25797094604E+01  0.28753783925E+01  0.12700000000E+01 0. -1.
          4   -1    0    0  501    0  0.00000000000E+00 -0.00000000000E+00 -0.14318483998E+04  0.14318489630E+04  0.12700000000E+01 0. -1.
         25    2    1    2    0    0  0.00000000000E+00  0.00000000000E+00 -0.14292686903E+04  0.14347243414E+04  0.12499978666E+03 0.  0.
    9000005    1    3    3    0    0 -0.44319664100E+01  0.25759259997E+02 -0.13661512074E+04  0.13664015893E+04  0.10000000000E+01 0.  0.
    9000005    1    3    3    0    0  0.44319664100E+01 -0.25759259997E+02 -0.63117482928E+02  0.68322752089E+02  0.10000000000E+01 0.  0.
<mgrwt>
<rscale>  0 0.12499979E+03</rscale>
<asrwt>0</asrwt>
<pdfrwt beam="2">  1        4 0.22030656E+00 0.12499979E+03</pdfrwt>
<pdfrwt beam="1">  1       -4 0.41966661E-03 0.12499979E+03</pdfrwt>
<totfact> 0.19247978E+03</totfact>
</mgrwt>
</event>
<event>
 5    1  0.3225662E-002  0.1249997E+03  0.7818608E-02  0.1235070E+00
         -4   -1    0    0    0  501 -0.00000000000E+00  0.00000000000E+00  0.47811286694E+02  0.47828151076E+02  0.12700000000E+01 0. -1.
          4   -1    0    0  501    0  0.00000000000E+00 -0.00000000000E+00 -0.81664762742E+02  0.81674637273E+02  0.12700000000E+01 0. -1.
         25    2    1    2    0    0  0.00000000000E+00  0.00000000000E+00 -0.33853476048E+02  0.12950278835E+03  0.12499965740E+03 0.  0.
    9000005    1    3    3    0    0  0.45023152596E+02  0.41119308122E+02 -0.31107300461E+02  0.68458351661E+02  0.10000000000E+01 0.  0.
    9000005    1    3    3    0    0 -0.45023152596E+02 -0.41119308122E+02 -0.27461755874E+01  0.61044436688E+02  0.10000000000E+01 0.  0.
<mgrwt>
<rscale>  0 0.12499966E+03</rscale>
<asrwt>0</asrwt>
<pdfrwt beam="2">  1        4 0.12565866E-01 0.12499966E+03</pdfrwt>
<pdfrwt beam="1">  1       -4 0.73576394E-02 0.12499966E+03</pdfrwt>
<totfact> 0.10355235E+04</totfact>
</mgrwt>
</event>
<event>
 5    1  0.3225662E-002  0.1250112E+03  0.7818608E-02  0.1235052E+00
         -4   -1    0    0    0  501 -0.00000000000E+00  0.00000000000E+00  0.16792697796E+02  0.16840653172E+02  0.12700000000E+01 0. -1.
          4   -1    0    0  501    0  0.00000000000E+00 -0.00000000000E+00 -0.23227619153E+03  0.23227966344E+03  0.12700000000E+01 0. -1.
         25    2    1    2    0    0  0.00000000000E+00  0.00000000000E+00 -0.21548349373E+03  0.24912031662E+03  0.12501118382E+03 0.  0.
    9000005    1    3    3    0    0 -0.44385986574E+02 -0.20833820665E+02 -0.30515633250E+02  0.57761299849E+02  0.10000000000E+01 0.  0.
    9000005    1    3    3    0    0  0.44385986574E+02  0.20833820665E+02 -0.18496786048E+03  0.19135901677E+03  0.10000000000E+01 0.  0.
<mgrwt>
<rscale>  0 0.12501118E+03</rscale>
<asrwt>0</asrwt>
<pdfrwt beam="2">  1        4 0.35738752E-01 0.12501118E+03</pdfrwt>
<pdfrwt beam="1">  1       -4 0.25874481E-02 0.12501118E+03</pdfrwt>
<totfact> 0.82436996E+03</totfact>
</mgrwt>
</event>
<event>
 5    1  0.3225662E-002  0.1250106E+03  0.7818608E-02  0.1235053E+00
         -4   -1    0    0    0  501 -0.00000000000E+00  0.00000000000E+00  0.37229098690E+02  0.37250754211E+02  0.12700000000E+01 0.  1.
          4   -1    0    0  501    0  0.00000000000E+00 -0.00000000000E+00 -0.10488649365E+03  0.10489418215E+03  0.12700000000E+01 0.  1.
         25    2    1    2    0    0  0.00000000000E+00  0.00000000000E+00 -0.67657394958E+02  0.14214493636E+03  0.12501063891E+03 0.  0.
    9000005    1    3    3    0    0 -0.38860145377E+02  0.66210573049E+01  0.21315510954E+02  0.44825219529E+02  0.10000000000E+01 0.  0.
    9000005    1    3    3    0    0  0.38860145377E+02 -0.66210573049E+01 -0.88972905912E+02  0.97319716836E+02  0.10000000000E+01 0.  0.
<mgrwt>
<rscale>  0 0.12501064E+03</rscale>
<asrwt>0</asrwt>
<pdfrwt beam="2">  1        4 0.16138641E-01 0.12501064E+03</pdfrwt>
<pdfrwt beam="1">  1       -4 0.57298110E-02 0.12501064E+03</pdfrwt>
<totfact> 0.10086905E+04</totfact>
</mgrwt>
</event>
<event>
 5    1  0.3225662E-002  0.1250043E+03  0.7818608E-02  0.1235062E+00
          4   -1    0    0  501    0  0.00000000000E+00  0.00000000000E+00  0.17944637682E+02  0.17989522549E+02  0.12700000000E+01 0. -1.
         -4   -1    0    0    0  501 -0.00000000000E+00 -0.00000000000E+00 -0.21737987178E+03  0.21738358161E+03  0.12700000000E+01 0. -1.
         25    2    1    2    0    0  0.00000000000E+00  0.00000000000E+00 -0.19943523410E+03  0.23537310416E+03  0.12500434218E+03 0.  0.
    9000005    1    3    3    0    0  0.19940274794E+02 -0.23470845450E+01 -0.21115078714E+03  0.21210558285E+03  0.10000000000E+01 0.  0.
    9000005    1    3    3    0    0 -0.19940274794E+02  0.23470845450E+01  0.11715553047E+02  0.23267521310E+02  0.10000000000E+01 0.  0.
<mgrwt>
<rscale>  0 0.12500434E+03</rscale>
<asrwt>0</asrwt>
<pdfrwt beam="1">  1        4 0.27644517E-02 0.12500434E+03</pdfrwt>
<pdfrwt beam="2">  1       -4 0.33446793E-01 0.12500434E+03</pdfrwt>
<totfact> 0.84483142E+03</totfact>
</mgrwt>
</event>
<event>
 5    1  0.3225662E-002  0.1250014E+03  0.7818608E-02  0.1235067E+00
         -4   -1    0    0    0  501 -0.00000000000E+00  0.00000000000E+00  0.39451259473E+02  0.39471695860E+02  0.12700000000E+01 0.  1.
          4   -1    0    0  501    0  0.00000000000E+00 -0.00000000000E+00 -0.98966671762E+02  0.98974820130E+02  0.12700000000E+01 0.  1.
         25    2    1    2    0    0  0.00000000000E+00  0.00000000000E+00 -0.59515412289E+02  0.13844651599E+03  0.12500141395E+03 0.  0.
    9000005    1    3    3    0    0  0.51073322742E+02 -0.14406140019E+02 -0.66312495649E+02  0.84937437242E+02  0.10000000000E+01 0.  0.
    9000005    1    3    3    0    0 -0.51073322742E+02  0.14406140019E+02  0.67970833602E+01  0.53509078747E+02  0.10000000000E+01 0.  0.
<mgrwt>
<rscale>  0 0.12500141E+03</rscale>
<asrwt>0</asrwt>
<pdfrwt beam="2">  1        4 0.15227841E-01 0.12500141E+03</pdfrwt>
<pdfrwt beam="1">  1       -4 0.60716234E-02 0.12500141E+03</pdfrwt>
<totfact> 0.10165561E+04</totfact>
</mgrwt>
</event>
<event>
 5    1  0.3225662E-002  0.1250002E+03  0.7818608E-02  0.1235069E+00
         -4   -1    0    0    0  501 -0.00000000000E+00  0.00000000000E+00  0.67809277373E+03  0.67809396302E+03  0.12700000000E+01 0. -1.
          4   -1    0    0  501    0  0.00000000000E+00 -0.00000000000E+00 -0.56894509863E+01  0.58294727485E+01  0.12700000000E+01 0. -1.
         25    2    1    2    0    0  0.00000000000E+00  0.00000000000E+00  0.67240332275E+03  0.68392343577E+03  0.12500015023E+03 0.  0.
    9000005    1    3    3    0    0  0.48944564236E+02 -0.29418804299E+02  0.47507377813E+03  0.47849465105E+03  0.10000000000E+01 0.  0.
    9000005    1    3    3    0    0 -0.48944564236E+02  0.29418804299E+02  0.19732954461E+03  0.20542878472E+03  0.10000000000E+01 0.  0.
<mgrwt>
<rscale>  0 0.12500015E+03</rscale>
<asrwt>0</asrwt>
<pdfrwt beam="2">  1        4 0.88616264E-03 0.12500015E+03</pdfrwt>
<pdfrwt beam="1">  1       -4 0.10433282E+00 0.12500015E+03</pdfrwt>
<totfact> 0.43948911E+03</totfact>
</mgrwt>
</event>
<event>
 5    1  0.3225662E-002  0.1250026E+03  0.7818608E-02  0.1235065E+00
         -4   -1    0    0    0  501 -0.00000000000E+00  0.00000000000E+00  0.47850345934E+03  0.47850514470E+03  0.12700000000E+01 0.  1.
          4   -1    0    0  501    0  0.00000000000E+00 -0.00000000000E+00 -0.81127149745E+01  0.82115189982E+01  0.12700000000E+01 0.  1.
         25    2    1    2    0    0  0.00000000000E+00  0.00000000000E+00  0.47039074437E+03  0.48671666369E+03  0.12500263330E+03 0.  0.
    9000005    1    3    3    0    0 -0.55815846332E+02 -0.25812439551E+02  0.19188581344E+03  0.20150150405E+03  0.10000000000E+01 0.  0.
    9000005    1    3    3    0    0  0.55815846332E+02  0.25812439551E+02  0.27850493093E+03  0.28521515964E+03  0.10000000000E+01 0.  0.
<mgrwt>
<rscale>  0 0.12500263E+03</rscale>
<asrwt>0</asrwt>
<pdfrwt beam="2">  1        4 0.12558400E-02 0.12500263E+03</pdfrwt>
<pdfrwt beam="1">  1       -4 0.73623645E-01 0.12500263E+03</pdfrwt>
<totfact> 0.56906625E+03</totfact>
</mgrwt>
</event>
<event>
 5    1  0.3225662E-002  0.1249953E+03  0.7818608E-02  0.1235077E+00
          4   -1    0    0  501    0  0.00000000000E+00  0.00000000000E+00  0.28004652369E+03  0.28004940338E+03  0.12700000000E+01 0. -1.
         -4   -1    0    0    0  501 -0.00000000000E+00 -0.00000000000E+00 -0.13915660121E+02  0.13973492642E+02  0.12700000000E+01 0. -1.
         25    2    1    2    0    0  0.00000000000E+00  0.00000000000E+00  0.26613086357E+03  0.29402289602E+03  0.12499530727E+03 0.  0.
    9000005    1    3    3    0    0  0.53833532932E+02 -0.21152745591E+02  0.18870392715E+03  0.19737188259E+03  0.10000000000E+01 0.  0.
    9000005    1    3    3    0    0 -0.53833532932E+02  0.21152745591E+02  0.77426936421E+02  0.96651013432E+02  0.10000000000E+01 0.  0.
<mgrwt>
<rscale>  0 0.12499531E+03</rscale>
<asrwt>0</asrwt>
<pdfrwt beam="1">  1        4 0.43088747E-01 0.12499531E+03</pdfrwt>
<pdfrwt beam="2">  1       -4 0.21455411E-02 0.12499531E+03</pdfrwt>
<totfact> 0.76362724E+03</totfact>
</mgrwt>
</event>
<event>
 5    1  0.3225662E-002  0.1249980E+03  0.7818608E-02  0.1235072E+00
         -4   -1    0    0    0  501 -0.00000000000E+00  0.00000000000E+00  0.10802475129E+02  0.10876873122E+02  0.12700000000E+01 0. -1.
          4   -1    0    0  501    0  0.00000000000E+00 -0.00000000000E+00 -0.36027908174E+03  0.36028132014E+03  0.12700000000E+01 0. -1.
         25    2    1    2    0    0  0.00000000000E+00  0.00000000000E+00 -0.34947660661E+03  0.37115819326E+03  0.12499802340E+03 0.  0.
    9000005    1    3    3    0    0 -0.55263341230E+02 -0.28169596399E+02 -0.19726664345E+03  0.20679142067E+03  0.10000000000E+01 0.  0.
    9000005    1    3    3    0    0  0.55263341230E+02  0.28169596399E+02 -0.15220996316E+03  0.16436677259E+03  0.10000000000E+01 0.  0.
<mgrwt>
<rscale>  0 0.12499802E+03</rscale>
<asrwt>0</asrwt>
<pdfrwt beam="2">  1        4 0.55433437E-01 0.12499802E+03</pdfrwt>
<pdfrwt beam="1">  1       -4 0.16678146E-02 0.12499802E+03</pdfrwt>
<totfact> 0.67460894E+03</totfact>
</mgrwt>
</event>
<event>
 5    1  0.3225662E-002  0.1250169E+03  0.7818608E-02  0.1235043E+00
          4   -1    0    0  501    0  0.00000000000E+00  0.00000000000E+00  0.53420443388E+03  0.53420594351E+03  0.12700000000E+01 0. -1.
         -4   -1    0    0    0  501 -0.00000000000E+00 -0.00000000000E+00 -0.72575898226E+01  0.73678701151E+01  0.12700000000E+01 0. -1.
         25    2    1    2    0    0  0.00000000000E+00  0.00000000000E+00  0.52694684406E+03  0.54157381362E+03  0.12501687541E+03 0.  0.
    9000005    1    3    3    0    0  0.62190611389E+02 -0.36911330654E+01  0.28513699210E+03  0.29186538142E+03  0.10000000000E+01 0.  0.
    9000005    1    3    3    0    0 -0.62190611389E+02  0.36911330654E+01  0.24180985196E+03  0.24970843220E+03  0.10000000000E+01 0.  0.
<mgrwt>
<rscale>  0 0.12501688E+03</rscale>
<asrwt>0</asrwt>
<pdfrwt beam="1">  1        4 0.82193925E-01 0.12501688E+03</pdfrwt>
<pdfrwt beam="2">  1       -4 0.11251511E-02 0.12501688E+03</pdfrwt>
<totfact> 0.52757552E+03</totfact>
</mgrwt>
</event>
<event>
 5    1  0.3225662E-002  0.1250006E+03  0.7818608E-02  0.1235068E+00
          4   -1    0    0  501    0  0.00000000000E+00  0.00000000000E+00  0.12009476202E+03  0.12010147694E+03  0.12700000000E+01 0.  1.
         -4   -1    0    0    0  501 -0.00000000000E+00 -0.00000000000E+00 -0.32506680813E+02  0.32531480100E+02  0.12700000000E+01 0.  1.
         25    2    1    2    0    0  0.00000000000E+00  0.00000000000E+00  0.87588081205E+02  0.15263295704E+03  0.12500059043E+03 0.  0.
    9000005    1    3    3    0    0 -0.50682676056E+02 -0.34126124254E+02  0.27781837155E+02  0.67127911367E+02  0.10000000000E+01 0.  0.
    9000005    1    3    3    0    0  0.50682676056E+02  0.34126124254E+02  0.59806244050E+02  0.85505045676E+02  0.10000000000E+01 0.  0.
<mgrwt>
<rscale>  0 0.12500059E+03</rscale>
<asrwt>0</asrwt>
<pdfrwt beam="1">  1        4 0.18478541E-01 0.12500059E+03</pdfrwt>
<pdfrwt beam="2">  1       -4 0.50034520E-02 0.12500059E+03</pdfrwt>
<totfact> 0.98780111E+03</totfact>
</mgrwt>
</event>
<event>
 5    1  0.3225662E-002  0.1249972E+03  0.7818608E-02  0.1235074E+00
          4   -1    0    0  501    0  0.00000000000E+00  0.00000000000E+00  0.18828916388E+02  0.18871698184E+02  0.12700000000E+01 0. -1.
         -4   -1    0    0    0  501 -0.00000000000E+00 -0.00000000000E+00 -0.20717065771E+03  0.20717455036E+03  0.12700000000E+01 0. -1.
         25    2    1    2    0    0  0.00000000000E+00  0.00000000000E+00 -0.18834174132E+03  0.22604624854E+03  0.12499717979E+03 0.  0.
    9000005    1    3    3    0    0  0.80351996985E+01 -0.60644124544E+02 -0.11724490706E+03  0.13224841212E+03  0.10000000000E+01 0.  0.
    9000005    1    3    3    0    0 -0.80351996985E+01  0.60644124544E+02 -0.71096834262E+02  0.93797836425E+02  0.10000000000E+01 0.  0.
<mgrwt>
<rscale>  0 0.12499718E+03</rscale>
<asrwt>0</asrwt>
<pdfrwt beam="1">  1        4 0.29003468E-02 0.12499718E+03</pdfrwt>
<pdfrwt beam="2">  1       -4 0.31875998E-01 0.12499718E+03</pdfrwt>
<totfact> 0.85925829E+03</totfact>
</mgrwt>
</event>
<event>
 5    1  0.3225662E-002  0.1250018E+03  0.7818608E-02  0.1235066E+00
         -4   -1    0    0    0  501 -0.00000000000E+00  0.00000000000E+00  0.49410577823E+03  0.49410741037E+03  0.12700000000E+01 0. -1.
          4   -1    0    0  501    0  0.00000000000E+00 -0.00000000000E+00 -0.78532640294E+01  0.79552910641E+01  0.12700000000E+01 0. -1.
         25    2    1    2    0    0  0.00000000000E+00  0.00000000000E+00  0.48625251420E+03  0.50206270143E+03  0.12500179440E+03 0.  0.
    9000005    1    3    3    0    0  0.34943683432E+02 -0.50899782473E+02  0.28196618037E+03  0.28864818680E+03  0.10000000000E+01 0.  0.
    9000005    1    3    3    0    0 -0.34943683432E+02  0.50899782473E+02  0.20428633383E+03  0.21341451463E+03  0.10000000000E+01 0.  0.
<mgrwt>
<rscale>  0 0.12500179E+03</rscale>
<asrwt>0</asrwt>
<pdfrwt beam="2">  1        4 0.12161680E-02 0.12500179E+03</pdfrwt>
<pdfrwt beam="1">  1       -4 0.76024260E-01 0.12500179E+03</pdfrwt>
<totfact> 0.55702475E+03</totfact>
</mgrwt>
</event>
<event>
 5    1  0.3225662E-002  0.1250030E+03  0.7818608E-02  0.1235065E+00
          4   -1    0    0  501    0  0.00000000000E+00  0.00000000000E+00  0.16050444495E+02  0.16100610811E+02  0.12700000000E+01 0.  1.
         -4   -1    0    0    0  501 -0.00000000000E+00 -0.00000000000E+00 -0.24295330219E+03  0.24295662153E+03  0.12700000000E+01 0.  1.
         25    2    1    2    0    0  0.00000000000E+00  0.00000000000E+00 -0.22690285769E+03  0.25905723234E+03  0.12500297116E+03 0.  0.
    9000005    1    3    3    0    0 -0.15544466639E+01  0.34877393958E+02 -0.22086912233E+03  0.22361354635E+03  0.10000000000E+01 0.  0.
    9000005    1    3    3    0    0  0.15544466639E+01 -0.34877393958E+02 -0.60337353608E+01  0.35443685984E+02  0.10000000000E+01 0.  0.
<mgrwt>
<rscale>  0 0.12500297E+03</rscale>
<asrwt>0</asrwt>
<pdfrwt beam="1">  1        4 0.24734136E-02 0.12500297E+03</pdfrwt>
<pdfrwt beam="2">  1       -4 0.37381543E-01 0.12500297E+03</pdfrwt>
<totfact> 0.81033188E+03</totfact>
</mgrwt>
</event>
<event>
 5    1  0.3225662E-002  0.1250025E+03  0.7818608E-02  0.1235065E+00
         -4   -1    0    0    0  501 -0.00000000000E+00  0.00000000000E+00  0.10064333144E+02  0.10144146176E+02  0.12700000000E+01 0.  1.
          4   -1    0    0  501    0  0.00000000000E+00 -0.00000000000E+00 -0.38652973991E+03  0.38653182629E+03  0.12700000000E+01 0.  1.
         25    2    1    2    0    0  0.00000000000E+00  0.00000000000E+00 -0.37646540677E+03  0.39667597247E+03  0.12500249853E+03 0.  0.
    9000005    1    3    3    0    0  0.19795175009E+02 -0.53304162225E+02 -0.10595653744E+03  0.12025377537E+03  0.10000000000E+01 0.  0.
    9000005    1    3    3    0    0 -0.19795175009E+02  0.53304162225E+02 -0.27050886932E+03  0.27642219709E+03  0.10000000000E+01 0.  0.
<mgrwt>
<rscale>  0 0.12500250E+03</rscale>
<asrwt>0</asrwt>
<pdfrwt beam="2">  1        4 0.59472402E-01 0.12500250E+03</pdfrwt>
<pdfrwt beam="1">  1       -4 0.15546592E-02 0.12500250E+03</pdfrwt>
<totfact> 0.64873795E+03</totfact>
</mgrwt>
</event>
<event>
 5    1  0.3225662E-002  0.1249977E+03  0.7818608E-02  0.1235073E+00
         -4   -1    0    0    0  501 -0.00000000000E+00  0.00000000000E+00  0.34957847799E+03  0.34958078491E+03  0.12700000000E+01 0.  1.
          4   -1    0    0  501    0  0.00000000000E+00 -0.00000000000E+00 -0.11135328675E+02  0.11207517330E+02  0.12700000000E+01 0.  1.
         25    2    1    2    0    0  0.00000000000E+00  0.00000000000E+00  0.33844314932E+03  0.36078830223E+03  0.12499773482E+03 0.  0.
    9000005    1    3    3    0    0  0.17611180858E+02 -0.56068167399E+02  0.10790323974E+03  0.12287352129E+03  0.10000000000E+01 0.  0.
    9000005    1    3    3    0    0 -0.17611180858E+02  0.56068167399E+02  0.23053990957E+03  0.23791478095E+03  0.10000000000E+01 0.  0.
<mgrwt>
<rscale>  0 0.12499773E+03</rscale>
<asrwt>0</asrwt>
<pdfrwt beam="2">  1        4 0.17188581E-02 0.12499773E+03</pdfrwt>
<pdfrwt beam="1">  1       -4 0.53787029E-01 0.12499773E+03</pdfrwt>
<totfact> 0.68557229E+03</totfact>
</mgrwt>
</event>
<event>
 5    1  0.3225662E-002  0.1250005E+03  0.7818608E-02  0.1235068E+00
          4   -1    0    0  501    0  0.00000000000E+00  0.00000000000E+00  0.11865297329E+04  0.11865304125E+04  0.12700000000E+01 0.  1.
         -4   -1    0    0    0  501 -0.00000000000E+00 -0.00000000000E+00 -0.31690071192E+01  0.34140161279E+01  0.12700000000E+01 0.  1.
         25    2    1    2    0    0  0.00000000000E+00  0.00000000000E+00  0.11833607257E+04  0.11899444287E+04  0.12500054428E+03 0.  0.
    9000005    1    3    3    0    0 -0.33459619700E+02 -0.41544390270E+02  0.90158426293E+03  0.90316148372E+03  0.10000000000E+01 0.  0.
    9000005    1    3    3    0    0  0.33459619700E+02  0.41544390270E+02  0.28177646281E+03  0.28678294494E+03  0.10000000000E+01 0.  0.
<mgrwt>
<rscale>  0 0.12500054E+03</rscale>
<asrwt>0</asrwt>
<pdfrwt beam="1">  1        4 0.18256183E+00 0.12500054E+03</pdfrwt>
<pdfrwt beam="2">  1       -4 0.50643899E-03 0.12500054E+03</pdfrwt>
<totfact> 0.24977200E+03</totfact>
</mgrwt>
</event>
<event>
 5    1  0.3225662E-002  0.1249979E+03  0.7818608E-02  0.1235073E+00
          4   -1    0    0  501    0  0.00000000000E+00  0.00000000000E+00  0.61003538035E+03  0.61003670233E+03  0.12700000000E+01 0.  1.
         -4   -1    0    0    0  501 -0.00000000000E+00 -0.00000000000E+00 -0.63387817190E+01  0.64647547271E+01  0.12700000000E+01 0.  1.
         25    2    1    2    0    0  0.00000000000E+00  0.00000000000E+00  0.60369659864E+03  0.61650145705E+03  0.12499785336E+03 0.  0.
    9000005    1    3    3    0    0 -0.61876227398E+02 -0.65000600844E+01  0.33069053838E+03  0.33649390852E+03  0.10000000000E+01 0.  0.
    9000005    1    3    3    0    0  0.61876227398E+02  0.65000600844E+01  0.27300606026E+03  0.28000754853E+03  0.10000000000E+01 0.  0.
<mgrwt>
<rscale>  0 0.12499785E+03</rscale>
<asrwt>0</asrwt>
<pdfrwt beam="1">  1        4 0.93861376E-01 0.12499785E+03</pdfrwt>
<pdfrwt beam="2">  1       -4 0.98498924E-03 0.12499785E+03</pdfrwt>
<totfact> 0.47844542E+03</totfact>
</mgrwt>
</event>
<event>
 5    1  0.3225662E-002  0.1249994E+03  0.7818608E-02  0.1235070E+00
          4   -1    0    0  501    0  0.00000000000E+00  0.00000000000E+00  0.64806119064E+01  0.66038799718E+01  0.12700000000E+01 0. -1.
         -4   -1    0    0    0  501 -0.00000000000E+00 -0.00000000000E+00 -0.59695088676E+03  0.59695223771E+03  0.12700000000E+01 0. -1.
         25    2    1    2    0    0  0.00000000000E+00  0.00000000000E+00 -0.59047027485E+03  0.60355611768E+03  0.12499936681E+03 0.  0.
    9000005    1    3    3    0    0  0.57580426329E+02 -0.13799655075E+01 -0.17817073169E+03  0.18725175415E+03  0.10000000000E+01 0.  0.
    9000005    1    3    3    0    0 -0.57580426329E+02  0.13799655075E+01 -0.41229954316E+03  0.41630436352E+03  0.10000000000E+01 0.  0.
<mgrwt>
<rscale>  0 0.12499937E+03</rscale>
<asrwt>0</asrwt>
<pdfrwt beam="1">  1        4 0.10066038E-02 0.12499937E+03</pdfrwt>
<pdfrwt beam="2">  1       -4 0.91848141E-01 0.12499937E+03</pdfrwt>
<totfact> 0.48644597E+03</totfact>
</mgrwt>
</event>
<event>
 5    1  0.3225662E-002  0.1249563E+03  0.7818608E-02  0.1235138E+00
         -4   -1    0    0    0  501 -0.00000000000E+00  0.00000000000E+00  0.32362401043E+02  0.32387310806E+02  0.12700000000E+01 0.  1.
          4   -1    0    0  501    0  0.00000000000E+00 -0.00000000000E+00 -0.12054424865E+03  0.12055093854E+03  0.12700000000E+01 0.  1.
         25    2    1    2    0    0  0.00000000000E+00  0.00000000000E+00 -0.88181847606E+02  0.15293824934E+03  0.12495627181E+03 0.  0.
    9000005    1    3    3    0    0  0.39446826413E-01  0.19502857370E+02  0.28546804675E+02  0.34587325118E+02  0.10000000000E+01 0.  0.
    9000005    1    3    3    0    0 -0.39446826413E-01 -0.19502857370E+02 -0.11672865228E+03  0.11835092423E+03  0.10000000000E+01 0.  0.
<mgrwt>
<rscale>  0 0.12495627E+03</rscale>
<asrwt>0</asrwt>
<pdfrwt beam="2">  1        4 0.18547700E-01 0.12495627E+03</pdfrwt>
<pdfrwt beam="1">  1       -4 0.49812617E-02 0.12495627E+03</pdfrwt>
<totfact> 0.98818379E+03</totfact>
</mgrwt>
</event>
<event>
 5    1  0.3225662E-002  0.1249799E+03  0.7818608E-02  0.1235101E+00
         -4   -1    0    0    0  501 -0.00000000000E+00  0.00000000000E+00  0.16335485792E+03  0.16335979465E+03  0.12700000000E+01 0. -1.
          4   -1    0    0  501    0  0.00000000000E+00 -0.00000000000E+00 -0.23882811739E+02  0.23916554864E+02  0.12700000000E+01 0. -1.
         25    2    1    2    0    0  0.00000000000E+00  0.00000000000E+00  0.13947204618E+03  0.18727634951E+03  0.12497991607E+03 0.  0.
    9000005    1    3    3    0    0 -0.40171731786E+02  0.17997557755E+02  0.32899647063E+01  0.44153187740E+02  0.10000000000E+01 0.  0.
    9000005    1    3    3    0    0  0.40171731786E+02 -0.17997557755E+02  0.13618208148E+03  0.14312316177E+03  0.10000000000E+01 0.  0.
<mgrwt>
<rscale>  0 0.12497992E+03</rscale>
<asrwt>0</asrwt>
<pdfrwt beam="2">  1        4 0.36772542E-02 0.12497992E+03</pdfrwt>
<pdfrwt beam="1">  1       -4 0.25134492E-01 0.12497992E+03</pdfrwt>
<totfact> 0.92364949E+03</totfact>
</mgrwt>
</event>
<event>
 5    1  0.3225662E-002  0.1249994E+03  0.7818608E-02  0.1235070E+00
         -4   -1    0    0    0  501 -0.00000000000E+00  0.00000000000E+00  0.92790544962E+02  0.92799235634E+02  0.12700000000E+01 0.  1.
          4   -1    0    0  501    0  0.00000000000E+00 -0.00000000000E+00 -0.42076876148E+02  0.42096037894E+02  0.12700000000E+01 0.  1.
         25    2    1    2    0    0  0.00000000000E+00  0.00000000000E+00  0.50713668814E+02  0.13489527353E+03  0.12499943446E+03 0.  0.
    9000005    1    3    3    0    0  0.36651055311E+02  0.42692006803E+02  0.54699610386E+02  0.78479007872E+02  0.10000000000E+01 0.  0.
    9000005    1    3    3    0    0 -0.36651055311E+02 -0.42692006803E+02 -0.39859415719E+01  0.56416265655E+02  0.10000000000E+01 0.  0.
<mgrwt>
<rscale>  0 0.12499943E+03</rscale>
<asrwt>0</asrwt>
<pdfrwt beam="2">  1        4 0.64755081E-02 0.12499943E+03</pdfrwt>
<pdfrwt beam="1">  1       -4 0.14277611E-01 0.12499943E+03</pdfrwt>
<totfact> 0.10240409E+04</totfact>
</mgrwt>
</event>
<event>
 5    1  0.3225662E-002  0.1249960E+03  0.7818608E-02  0.1235075E+00
         -4   -1    0    0    0  501 -0.00000000000E+00  0.00000000000E+00  0.36419596959E+03  0.36419818392E+03  0.12700000000E+01 0.  1.
          4   -1    0    0  501    0  0.00000000000E+00 -0.00000000000E+00 -0.10685149166E+02  0.10760358390E+02  0.12700000000E+01 0.  1.
         25    2    1    2    0    0  0.00000000000E+00  0.00000000000E+00  0.35351082043E+03  0.37495854231E+03  0.12499603309E+03 0.  0.
    9000005    1    3    3    0    0 -0.18955941712E+02 -0.26354132760E+02  0.33693081819E+03  0.33849260596E+03  0.10000000000E+01 0.  0.
    9000005    1    3    3    0    0  0.18955941712E+02  0.26354132760E+02  0.16580002235E+02  0.36465936349E+02  0.10000000000E+01 0.  0.
<mgrwt>
<rscale>  0 0.12499603E+03</rscale>
<asrwt>0</asrwt>
<pdfrwt beam="2">  1        4 0.16498245E-02 0.12499603E+03</pdfrwt>
<pdfrwt beam="1">  1       -4 0.56036114E-01 0.12499603E+03</pdfrwt>
<totfact> 0.67069224E+03</totfact>
</mgrwt>
</event>
<event>
 5    1  0.3225662E-002  0.1250081E+03  0.7818608E-02  0.1235057E+00
         -4   -1    0    0    0  501 -0.00000000000E+00  0.00000000000E+00  0.34037516859E+03  0.34037753788E+03  0.12700000000E+01 0. -1.
          4   -1    0    0  501    0  0.00000000000E+00 -0.00000000000E+00 -0.11440247997E+02  0.11510524499E+02  0.12700000000E+01 0. -1.
         25    2    1    2    0    0  0.00000000000E+00  0.00000000000E+00  0.32893492059E+03  0.35188806238E+03  0.12500810557E+03 0.  0.
    9000005    1    3    3    0    0  0.59472367147E+02 -0.18826511760E+02  0.15380168580E+03  0.16597396951E+03  0.10000000000E+01 0.  0.
    9000005    1    3    3    0    0 -0.59472367147E+02  0.18826511760E+02  0.17513323479E+03  0.18591409287E+03  0.10000000000E+01 0.  0.
<mgrwt>
<rscale>  0 0.12500811E+03</rscale>
<asrwt>0</asrwt>
<pdfrwt beam="2">  1        4 0.17656263E-02 0.12500811E+03</pdfrwt>
<pdfrwt beam="1">  1       -4 0.52370999E-01 0.12500811E+03</pdfrwt>
<totfact> 0.69504875E+03</totfact>
</mgrwt>
</event>
<event>
 5    1  0.3225662E-002  0.1250019E+03  0.7818608E-02  0.1235066E+00
         -4   -1    0    0    0  501 -0.00000000000E+00  0.00000000000E+00  0.77394058949E+03  0.77394163149E+03  0.12700000000E+01 0. -1.
          4   -1    0    0  501    0  0.00000000000E+00 -0.00000000000E+00 -0.49664272069E+01  0.51262363584E+01  0.12700000000E+01 0. -1.
         25    2    1    2    0    0  0.00000000000E+00  0.00000000000E+00  0.76897416228E+03  0.77906786785E+03  0.12500192183E+03 0.  0.
    9000005    1    3    3    0    0  0.15025632234E+02  0.48961702343E+02  0.60767067273E+03  0.60982592960E+03  0.10000000000E+01 0.  0.
    9000005    1    3    3    0    0 -0.15025632234E+02 -0.48961702343E+02  0.16130348955E+03  0.16924193825E+03  0.10000000000E+01 0.  0.
<mgrwt>
<rscale>  0 0.12500192E+03</rscale>
<asrwt>0</asrwt>
<pdfrwt beam="2">  1        4 0.77643958E-03 0.12500192E+03</pdfrwt>
<pdfrwt beam="1">  1       -4 0.11908005E+00 0.12500192E+03</pdfrwt>
<totfact> 0.39214823E+03</totfact>
</mgrwt>
</event>
<event>
 5    1  0.3225662E-002  0.1249966E+03  0.7818608E-02  0.1235075E+00
         -4   -1    0    0    0  501 -0.00000000000E+00  0.00000000000E+00  0.10218571737E+04  0.10218579629E+04  0.12700000000E+01 0.  1.
          4   -1    0    0  501    0  0.00000000000E+00 -0.00000000000E+00 -0.37161870962E+01  0.39272059450E+01  0.12700000000E+01 0.  1.
         25    2    1    2    0    0  0.00000000000E+00  0.00000000000E+00  0.10181409866E+04  0.10257851688E+04  0.12499657603E+03 0.  0.
    9000005    1    3    3    0    0  0.33056754459E+02 -0.36629841014E+02  0.82377066248E+03  0.82524759838E+03  0.10000000000E+01 0.  0.
    9000005    1    3    3    0    0 -0.33056754459E+02  0.36629841014E+02  0.19437032411E+03  0.20053757045E+03  0.10000000000E+01 0.  0.
<mgrwt>
<rscale>  0 0.12499658E+03</rscale>
<asrwt>0</asrwt>
<pdfrwt beam="2">  1        4 0.58801355E-03 0.12499658E+03</pdfrwt>
<pdfrwt beam="1">  1       -4 0.15722521E+00 0.12499658E+03</pdfrwt>
<totfact> 0.29765247E+03</totfact>
</mgrwt>
</event>
<event>
 5    1  0.3225662E-002  0.1250000E+03  0.7818608E-02  0.1235069E+00
         -4   -1    0    0    0  501 -0.00000000000E+00  0.00000000000E+00  0.20092169249E+02  0.20132266766E+02  0.12700000000E+01 0. -1.
          4   -1    0    0  501    0  0.00000000000E+00 -0.00000000000E+00 -0.19418061423E+03  0.19418476728E+03  0.12700000000E+01 0. -1.
         25    2    1    2    0    0  0.00000000000E+00  0.00000000000E+00 -0.17408844498E+03  0.21431703404E+03  0.12500001762E+03 0.  0.
    9000005    1    3    3    0    0 -0.35404610974E+02 -0.38729137051E+02 -0.28855522645E+02  0.59892184149E+02  0.10000000000E+01 0.  0.
    9000005    1    3    3    0    0  0.35404610974E+02  0.38729137051E+02 -0.14523292233E+03  0.15442484989E+03  0.10000000000E+01 0.  0.
<mgrwt>
<rscale>  0 0.12500002E+03</rscale>
<asrwt>0</asrwt>
<pdfrwt beam="2">  1        4 0.29877343E-01 0.12500002E+03</pdfrwt>
<pdfrwt beam="1">  1       -4 0.30945070E-02 0.12500002E+03</pdfrwt>
<totfact> 0.87775636E+03</totfact>
</mgrwt>
</event>
<event>
 5    1  0.3225662E-002  0.1250060E+03  0.7818608E-02  0.1235060E+00
          4   -1    0    0  501    0  0.00000000000E+00  0.00000000000E+00  0.12552135574E+03  0.12552778038E+03  0.12700000000E+01 0.  1.
         -4   -1    0    0    0  501 -0.00000000000E+00 -0.00000000000E+00 -0.31102987541E+02  0.31128905120E+02  0.12700000000E+01 0.  1.
         25    2    1    2    0    0  0.00000000000E+00  0.00000000000E+00  0.94418368195E+02  0.15665668550E+03  0.12500595529E+03 0.  0.
    9000005    1    3    3    0    0 -0.53591071660E+02  0.30362723684E+02  0.33962963600E+02  0.70344728642E+02  0.10000000000E+01 0.  0.
    9000005    1    3    3    0    0  0.53591071660E+02 -0.30362723684E+02  0.60455404595E+02  0.86311956854E+02  0.10000000000E+01 0.  0.
<mgrwt>
<rscale>  0 0.12500596E+03</rscale>
<asrwt>0</asrwt>
<pdfrwt beam="1">  1        4 0.19313465E-01 0.12500596E+03</pdfrwt>
<pdfrwt beam="2">  1       -4 0.47875629E-02 0.12500596E+03</pdfrwt>
<totfact> 0.97978128E+03</totfact>
</mgrwt>
</event>
<event>
 5    1  0.3225662E-002  0.1250083E+03  0.7818608E-02  0.1235056E+00
         -4   -1    0    0    0  501 -0.00000000000E+00  0.00000000000E+00  0.11458781122E+03  0.11459484883E+03  0.12700000000E+01 0.  1.
          4   -1    0    0  501    0  0.00000000000E+00 -0.00000000000E+00 -0.34074164922E+02  0.34097824199E+02  0.12700000000E+01 0.  1.
         25    2    1    2    0    0  0.00000000000E+00  0.00000000000E+00  0.80513646294E+02  0.14869267303E+03  0.12500825482E+03 0.  0.
    9000005    1    3    3    0    0 -0.56296627922E+02  0.12091084824E+02  0.11358474255E+02  0.58698548406E+02  0.10000000000E+01 0.  0.
    9000005    1    3    3    0    0  0.56296627922E+02 -0.12091084824E+02  0.69155172039E+02  0.89994124627E+02  0.10000000000E+01 0.  0.
<mgrwt>
<rscale>  0 0.12500825E+03</rscale>
<asrwt>0</asrwt>
<pdfrwt beam="2">  1        4 0.52445405E-02 0.12500825E+03</pdfrwt>
<pdfrwt beam="1">  1       -4 0.17631256E-01 0.12500825E+03</pdfrwt>
<totfact> 0.99546437E+03</totfact>
</mgrwt>
</event>
<event>
 5    1  0.3225662E-002  0.1250010E+03  0.7818608E-02  0.1235068E+00
          4   -1    0    0  501    0  0.00000000000E+00  0.00000000000E+00  0.29095313261E+02  0.29123017594E+02  0.12700000000E+01 0.  1.
         -4   -1    0    0    0  501 -0.00000000000E+00 -0.00000000000E+00 -0.13416466949E+03  0.13417068025E+03  0.12700000000E+01 0.  1.
         25    2    1    2    0    0  0.00000000000E+00  0.00000000000E+00 -0.10506935623E+03  0.16329369785E+03  0.12500104855E+03 0.  0.
    9000005    1    3    3    0    0 -0.38198290943E+01  0.52078182135E+02 -0.76873408969E+01  0.52790371838E+02  0.10000000000E+01 0.  0.
    9000005    1    3    3    0    0  0.38198290943E+01 -0.52078182135E+02 -0.97382015334E+02  0.11050332601E+03  0.10000000000E+01 0.  0.
<mgrwt>
<rscale>  0 0.12500105E+03</rscale>
<asrwt>0</asrwt>
<pdfrwt beam="1">  1        4 0.44787956E-02 0.12500105E+03</pdfrwt>
<pdfrwt beam="2">  1       -4 0.20643312E-01 0.12500105E+03</pdfrwt>
<totfact> 0.96709240E+03</totfact>
</mgrwt>
</event>
<event>
 5    1  0.3225662E-002  0.1250121E+03  0.7818608E-02  0.1235050E+00
         -4   -1    0    0    0  501 -0.00000000000E+00  0.00000000000E+00  0.57908672011E+02  0.57922596576E+02  0.12700000000E+01 0. -1.
          4   -1    0    0  501    0  0.00000000000E+00 -0.00000000000E+00 -0.67440390854E+02  0.67452347761E+02  0.12700000000E+01 0. -1.
         25    2    1    2    0    0  0.00000000000E+00  0.00000000000E+00 -0.95317188425E+01  0.12537494434E+03  0.12501209143E+03 0.  0.
    9000005    1    3    3    0    0 -0.21848875625E+02 -0.41326023458E+02 -0.46368696006E+02  0.65850357253E+02  0.10000000000E+01 0.  0.
    9000005    1    3    3    0    0  0.21848875625E+02  0.41326023458E+02  0.36836977164E+02  0.59524587084E+02  0.10000000000E+01 0.  0.
<mgrwt>
<rscale>  0 0.12501209E+03</rscale>
<asrwt>0</asrwt>
<pdfrwt beam="2">  1        4 0.10377436E-01 0.12501209E+03</pdfrwt>
<pdfrwt beam="1">  1       -4 0.89110174E-02 0.12501209E+03</pdfrwt>
<totfact> 0.10441871E+04</totfact>
</mgrwt>
</event>
<event>
 5    1  0.3225662E-002  0.1249944E+03  0.7818608E-02  0.1235078E+00
          4   -1    0    0  501    0  0.00000000000E+00  0.00000000000E+00  0.55435360071E+02  0.55449905736E+02  0.12700000000E+01 0. -1.
         -4   -1    0    0    0  501 -0.00000000000E+00 -0.00000000000E+00 -0.70429134866E+02  0.70440584453E+02  0.12700000000E+01 0. -1.
         25    2    1    2    0    0  0.00000000000E+00  0.00000000000E+00 -0.14993774796E+02  0.12589049019E+03  0.12499440882E+03 0.  0.
    9000005    1    3    3    0    0 -0.49664655955E+02  0.37925068528E+02 -0.73880135752E+01  0.62932278034E+02  0.10000000000E+01 0.  0.
    9000005    1    3    3    0    0  0.49664655955E+02 -0.37925068528E+02 -0.76057612205E+01  0.62958212155E+02  0.10000000000E+01 0.  0.
<mgrwt>
<rscale>  0 0.12499441E+03</rscale>
<asrwt>0</asrwt>
<pdfrwt beam="1">  1        4 0.85305166E-02 0.12499441E+03</pdfrwt>
<pdfrwt beam="2">  1       -4 0.10837251E-01 0.12499441E+03</pdfrwt>
<totfact> 0.10434675E+04</totfact>
</mgrwt>
</event>
<event>
 5    1  0.3225662E-002  0.1249984E+03  0.7818608E-02  0.1235072E+00
          4   -1    0    0  501    0  0.00000000000E+00  0.00000000000E+00  0.61999191884E+02  0.62012197948E+02  0.12700000000E+01 0. -1.
         -4   -1    0    0    0  501 -0.00000000000E+00 -0.00000000000E+00 -0.62977187175E+02  0.62989991304E+02  0.12700000000E+01 0. -1.
         25    2    1    2    0    0  0.00000000000E+00  0.00000000000E+00 -0.97799529082E+00  0.12500218925E+03  0.12499836336E+03 0.  0.
    9000005    1    3    3    0    0 -0.91291115725E+01  0.48850660408E+02 -0.38377094471E+02  0.62797524477E+02  0.10000000000E+01 0.  0.
    9000005    1    3    3    0    0  0.91291115725E+01 -0.48850660408E+02  0.37399099180E+02  0.62204664775E+02  0.10000000000E+01 0.  0.
<mgrwt>
<rscale>  0 0.12499836E+03</rscale>
<asrwt>0</asrwt>
<pdfrwt beam="1">  1        4 0.95403226E-02 0.12499836E+03</pdfrwt>
<pdfrwt beam="2">  1       -4 0.96907835E-02 0.12499836E+03</pdfrwt>
<totfact> 0.10453202E+04</totfact>
</mgrwt>
</event>
<event>
 5    1  0.3225662E-002  0.1250006E+03  0.7818608E-02  0.1235068E+00
          4   -1    0    0  501    0  0.00000000000E+00  0.00000000000E+00  0.11769456927E+03  0.11770142113E+03  0.12700000000E+01 0. -1.
         -4   -1    0    0    0  501 -0.00000000000E+00 -0.00000000000E+00 -0.33170088415E+02  0.33194392079E+02  0.12700000000E+01 0. -1.
         25    2    1    2    0    0  0.00000000000E+00  0.00000000000E+00  0.84524480857E+02  0.15089581321E+03  0.12500063432E+03 0.  0.
    9000005    1    3    3    0    0 -0.96915610439E+01  0.57578845172E+02  0.15376421516E+02  0.60387781094E+02  0.10000000000E+01 0.  0.
    9000005    1    3    3    0    0  0.96915610439E+01 -0.57578845172E+02  0.69148059340E+02  0.90508032115E+02  0.10000000000E+01 0.  0.
<mgrwt>
<rscale>  0 0.12500063E+03</rscale>
<asrwt>0</asrwt>
<pdfrwt beam="1">  1        4 0.18109254E-01 0.12500063E+03</pdfrwt>
<pdfrwt beam="2">  1       -4 0.51054871E-02 0.12500063E+03</pdfrwt>
<totfact> 0.99124015E+03</totfact>
</mgrwt>
</event>
<event>
 5    1  0.3225662E-002  0.1249990E+03  0.7818608E-02  0.1235071E+00
         -4   -1    0    0    0  501 -0.00000000000E+00  0.00000000000E+00  0.57725816918E+02  0.57739785581E+02  0.12700000000E+01 0. -1.
          4   -1    0    0  501    0  0.00000000000E+00 -0.00000000000E+00 -0.67639871145E+02  0.67651792796E+02  0.12700000000E+01 0. -1.
         25    2    1    2    0    0  0.00000000000E+00  0.00000000000E+00 -0.99140542265E+01  0.12539157838E+03  0.12499903782E+03 0.  0.
    9000005    1    3    3    0    0 -0.53913442473E+02  0.30787615751E+02 -0.12096490591E+02  0.63260269108E+02  0.10000000000E+01 0.  0.
    9000005    1    3    3    0    0  0.53913442473E+02 -0.30787615751E+02  0.21824363646E+01  0.62131309269E+02  0.10000000000E+01 0.  0.
<mgrwt>
<rscale>  0 0.12499904E+03</rscale>
<asrwt>0</asrwt>
<pdfrwt beam="2">  1        4 0.10408126E-01 0.12499904E+03</pdfrwt>
<pdfrwt beam="1">  1       -4 0.88828865E-02 0.12499904E+03</pdfrwt>
<totfact> 0.10444580E+04</totfact>
</mgrwt>
</event>
<event>
 5    1  0.3225662E-002  0.1250034E+03  0.7818608E-02  0.1235064E+00
         -4   -1    0    0    0  501 -0.00000000000E+00  0.00000000000E+00  0.33975710429E+03  0.33975947789E+03  0.12700000000E+01 0.  1.
          4   -1    0    0  501    0  0.00000000000E+00 -0.00000000000E+00 -0.11460325472E+02  0.11530479605E+02  0.12700000000E+01 0.  1.
         25    2    1    2    0    0  0.00000000000E+00  0.00000000000E+00  0.32829677882E+03  0.35128995750E+03  0.12500343697E+03 0.  0.
    9000005    1    3    3    0    0  0.50768585708E+02 -0.34596842128E+02  0.19632217122E+03  0.20571287197E+03  0.10000000000E+01 0.  0.
    9000005    1    3    3    0    0 -0.50768585708E+02  0.34596842128E+02  0.13197460760E+03  0.14557708553E+03  0.10000000000E+01 0.  0.
<mgrwt>
<rscale>  0 0.12500344E+03</rscale>
<asrwt>0</asrwt>
<pdfrwt beam="2">  1        4 0.17687061E-02 0.12500344E+03</pdfrwt>
<pdfrwt beam="1">  1       -4 0.52275901E-01 0.12500344E+03</pdfrwt>
<totfact> 0.69577585E+03</totfact>
</mgrwt>
</event>
<event>
 5    1  0.3225662E-002  0.1249998E+03  0.7818608E-02  0.1235070E+00
         -4   -1    0    0    0  501 -0.00000000000E+00  0.00000000000E+00  0.91401592337E+02  0.91410415062E+02  0.12700000000E+01 0. -1.
          4   -1    0    0  501    0  0.00000000000E+00 -0.00000000000E+00 -0.42716739351E+02  0.42735614197E+02  0.12700000000E+01 0. -1.
         25    2    1    2    0    0  0.00000000000E+00  0.00000000000E+00  0.48684852986E+02  0.13414602926E+03  0.12499976902E+03 0.  0.
    9000005    1    3    3    0    0  0.47276822872E+02 -0.22396936455E+02 -0.12342337041E+02  0.53759222716E+02  0.10000000000E+01 0.  0.
    9000005    1    3    3    0    0 -0.47276822872E+02  0.22396936455E+02  0.61027190027E+02  0.80386806542E+02  0.10000000000E+01 0.  0.
<mgrwt>
<rscale>  0 0.12499977E+03</rscale>
<asrwt>0</asrwt>
<pdfrwt beam="2">  1        4 0.65739367E-02 0.12499977E+03</pdfrwt>
<pdfrwt beam="1">  1       -4 0.14063914E-01 0.12499977E+03</pdfrwt>
<totfact> 0.10256155E+04</totfact>
</mgrwt>
</event>
<event>
 5    1  0.3225662E-002  0.1250030E+03  0.7818608E-02  0.1235065E+00
         -4   -1    0    0    0  501 -0.00000000000E+00  0.00000000000E+00  0.20184466489E+02  0.20224381015E+02  0.12700000000E+01 0.  1.
          4   -1    0    0  501    0  0.00000000000E+00 -0.00000000000E+00 -0.19330378866E+03  0.19330796054E+03  0.12700000000E+01 0.  1.
         25    2    1    2    0    0  0.00000000000E+00  0.00000000000E+00 -0.17311932217E+03  0.21353234156E+03  0.12500304470E+03 0.  0.
    9000005    1    3    3    0    0 -0.16360681424E+02  0.28894116850E+02  0.38774643834E+01  0.33445128423E+02  0.10000000000E+01 0.  0.
    9000005    1    3    3    0    0  0.16360681424E+02 -0.28894116850E+02 -0.17699678655E+03  0.18008721313E+03  0.10000000000E+01 0.  0.
<mgrwt>
<rscale>  0 0.12500304E+03</rscale>
<asrwt>0</asrwt>
<pdfrwt beam="2">  1        4 0.29742434E-01 0.12500304E+03</pdfrwt>
<pdfrwt beam="1">  1       -4 0.31086939E-02 0.12500304E+03</pdfrwt>
<totfact> 0.87896252E+03</totfact>
</mgrwt>
</event>
<event>
 5    1  0.3225662E-002  0.1249881E+03  0.7818608E-02  0.1235088E+00
          4   -1    0    0  501    0  0.00000000000E+00  0.00000000000E+00  0.23766350799E+03  0.23766690121E+03  0.12700000000E+01 0. -1.
         -4   -1    0    0    0  501 -0.00000000000E+00 -0.00000000000E+00 -0.16404878158E+02  0.16453963880E+02  0.12700000000E+01 0. -1.
         25    2    1    2    0    0  0.00000000000E+00  0.00000000000E+00  0.22125862983E+03  0.25412086509E+03  0.12498813063E+03 0.  0.
    9000005    1    3    3    0    0  0.89310267294E+01 -0.51323249719E+02  0.18078567939E+03  0.18814436232E+03  0.10000000000E+01 0.  0.
    9000005    1    3    3    0    0 -0.89310267294E+01  0.51323249719E+02  0.40472950443E+02  0.65976502770E+02  0.10000000000E+01 0.  0.
<mgrwt>
<rscale>  0 0.12498813E+03</rscale>
<asrwt>0</asrwt>
<pdfrwt beam="1">  1        4 0.36567647E-01 0.12498813E+03</pdfrwt>
<pdfrwt beam="2">  1       -4 0.25278647E-02 0.12498813E+03</pdfrwt>
<totfact> 0.81759873E+03</totfact>
</mgrwt>
</event>
<event>
 5    1  0.3225662E-002  0.1250021E+03  0.7818608E-02  0.1235066E+00
         -4   -1    0    0    0  501 -0.00000000000E+00  0.00000000000E+00  0.81413707758E+01  0.82398311942E+01  0.12700000000E+01 0.  1.
          4   -1    0    0  501    0  0.00000000000E+00 -0.00000000000E+00 -0.47683522046E+03  0.47683691171E+03  0.12700000000E+01 0.  1.
         25    2    1    2    0    0  0.00000000000E+00  0.00000000000E+00 -0.46869384969E+03  0.48507674291E+03  0.12500208709E+03 0.  0.
    9000005    1    3    3    0    0  0.36706510012E+02 -0.40249308162E+02 -0.35319603681E+03  0.35737349524E+03  0.10000000000E+01 0.  0.
    9000005    1    3    3    0    0 -0.36706510012E+02  0.40249308162E+02 -0.11549781288E+03  0.12770324767E+03  0.10000000000E+01 0.  0.
<mgrwt>
<rscale>  0 0.12500209E+03</rscale>
<asrwt>0</asrwt>
<pdfrwt beam="2">  1        4 0.73366947E-01 0.12500209E+03</pdfrwt>
<pdfrwt beam="1">  1       -4 0.12602229E-02 0.12500209E+03</pdfrwt>
<totfact> 0.57038497E+03</totfact>
</mgrwt>
</event>
<event>
 5    1  0.3225662E-002  0.1250020E+03  0.7818608E-02  0.1235066E+00
         -4   -1    0    0    0  501 -0.00000000000E+00  0.00000000000E+00  0.71169705967E+03  0.71169819280E+03  0.12700000000E+01 0.  1.
          4   -1    0    0  501    0  0.00000000000E+00 -0.00000000000E+00 -0.54142041590E+01  0.55611605511E+01  0.12700000000E+01 0.  1.
         25    2    1    2    0    0  0.00000000000E+00  0.00000000000E+00  0.70628285551E+03  0.71725935336E+03  0.12500203194E+03 0.  0.
    9000005    1    3    3    0    0  0.60991258476E+01 -0.61570960113E+02  0.40355557400E+03  0.40827231571E+03  0.10000000000E+01 0.  0.
    9000005    1    3    3    0    0 -0.60991258476E+01  0.61570960113E+02  0.30272728151E+03  0.30898703765E+03  0.10000000000E+01 0.  0.
<mgrwt>
<rscale>  0 0.12500203E+03</rscale>
<asrwt>0</asrwt>
<pdfrwt beam="2">  1        4 0.84434654E-03 0.12500203E+03</pdfrwt>
<pdfrwt beam="1">  1       -4 0.10950318E+00 0.12500203E+03</pdfrwt>
<totfact> 0.42189265E+03</totfact>
</mgrwt>
</event>
<event>
 5    1  0.3225662E-002  0.1250021E+03  0.7818608E-02  0.1235066E+00
          4   -1    0    0  501    0  0.00000000000E+00  0.00000000000E+00  0.75905496677E+02  0.75916120329E+02  0.12700000000E+01 0. -1.
         -4   -1    0    0    0  501 -0.00000000000E+00 -0.00000000000E+00 -0.51441683640E+02  0.51457358227E+02  0.12700000000E+01 0. -1.
         25    2    1    2    0    0  0.00000000000E+00  0.00000000000E+00  0.24463813037E+02  0.12737347856E+03  0.12500209955E+03 0.  0.
    9000005    1    3    3    0    0  0.21876976451E+02 -0.44317781474E+02  0.51202885653E+02  0.71171647112E+02  0.10000000000E+01 0.  0.
    9000005    1    3    3    0    0 -0.21876976451E+02  0.44317781474E+02 -0.26739072615E+02  0.56201831445E+02  0.10000000000E+01 0.  0.
<mgrwt>
<rscale>  0 0.12500210E+03</rscale>
<asrwt>0</asrwt>
<pdfrwt beam="1">  1        4 0.11679792E-01 0.12500210E+03</pdfrwt>
<pdfrwt beam="2">  1       -4 0.79161282E-02 0.12500210E+03</pdfrwt>
<totfact> 0.10400549E+04</totfact>
</mgrwt>
</event>
<event>
 5    1  0.3225662E-002  0.1249993E+03  0.7818608E-02  0.1235070E+00
         -4   -1    0    0    0  501 -0.00000000000E+00  0.00000000000E+00  0.17685144985E+03  0.17685600983E+03  0.12700000000E+01 0. -1.
          4   -1    0    0  501    0  0.00000000000E+00 -0.00000000000E+00 -0.22064389610E+02  0.22100909232E+02  0.12700000000E+01 0. -1.
         25    2    1    2    0    0  0.00000000000E+00  0.00000000000E+00  0.15478706024E+03  0.19895691906E+03  0.12499928650E+03 0.  0.
    9000005    1    3    3    0    0 -0.49186537911E+01  0.64833170569E+01 -0.21225192475E+02  0.22753798601E+02  0.10000000000E+01 0.  0.
    9000005    1    3    3    0    0  0.49186537911E+01 -0.64833170569E+01  0.17601225271E+03  0.17620312046E+03  0.10000000000E+01 0.  0.
<mgrwt>
<rscale>  0 0.12499929E+03</rscale>
<asrwt>0</asrwt>
<pdfrwt beam="2">  1        4 0.33976816E-02 0.12499929E+03</pdfrwt>
<pdfrwt beam="1">  1       -4 0.27211074E-01 0.12499929E+03</pdfrwt>
<totfact> 0.90313172E+03</totfact>
</mgrwt>
</event>
<event>
 5    1  0.3225662E-002  0.1249978E+03  0.7818608E-02  0.1235073E+00
         -4   -1    0    0    0  501 -0.00000000000E+00  0.00000000000E+00  0.72007067392E+02  0.72018266116E+02  0.12700000000E+01 0.  1.
          4   -1    0    0  501    0  0.00000000000E+00 -0.00000000000E+00 -0.54223418131E+02  0.54238288818E+02  0.12700000000E+01 0.  1.
         25    2    1    2    0    0  0.00000000000E+00  0.00000000000E+00  0.17783649260E+02  0.12625655493E+03  0.12499783791E+03 0.  0.
    9000005    1    3    3    0    0  0.26090242276E+02 -0.44907147585E+01  0.66067916684E+02  0.71181717288E+02  0.10000000000E+01 0.  0.
    9000005    1    3    3    0    0 -0.26090242276E+02  0.44907147585E+01 -0.48284267424E+02  0.55074837646E+02  0.10000000000E+01 0.  0.
<mgrwt>
<rscale>  0 0.12499784E+03</rscale>
<asrwt>0</asrwt>
<pdfrwt beam="2">  1        4 0.83440697E-02 0.12499784E+03</pdfrwt>
<pdfrwt beam="1">  1       -4 0.11080016E-01 0.12499784E+03</pdfrwt>
<totfact> 0.10425851E+04</totfact>
</mgrwt>
</event>
<event>
 5    1  0.3225662E-002  0.1250010E+03  0.7818608E-02  0.1235068E+00
         -4   -1    0    0    0  501 -0.00000000000E+00  0.00000000000E+00  0.16040442299E+03  0.16040945052E+03  0.12700000000E+01 0. -1.
          4   -1    0    0  501    0  0.00000000000E+00 -0.00000000000E+00 -0.24330909317E+02  0.24364031854E+02  0.12700000000E+01 0. -1.
         25    2    1    2    0    0  0.00000000000E+00  0.00000000000E+00  0.13607351368E+03  0.18477348237E+03  0.12500095465E+03 0.  0.
    9000005    1    3    3    0    0  0.35697079348E+02 -0.47786071365E+02  0.95592742534E+02  0.11267991177E+03  0.10000000000E+01 0.  0.
    9000005    1    3    3    0    0 -0.35697079348E+02  0.47786071365E+02  0.40480771143E+02  0.72093570607E+02  0.10000000000E+01 0.  0.
<mgrwt>
<rscale>  0 0.12500095E+03</rscale>
<asrwt>0</asrwt>
<pdfrwt beam="2">  1        4 0.37461516E-02 0.12500095E+03</pdfrwt>
<pdfrwt beam="1">  1       -4 0.24680537E-01 0.12500095E+03</pdfrwt>
<totfact> 0.92762765E+03</totfact>
</mgrwt>
</event>
<event>
 5    1  0.3225662E-002  0.1250028E+03  0.7818608E-02  0.1235065E+00
         -4   -1    0    0    0  501 -0.00000000000E+00  0.00000000000E+00  0.36589188504E+02  0.36611222533E+02  0.12700000000E+01 0. -1.
          4   -1    0    0  501    0  0.00000000000E+00 -0.00000000000E+00 -0.10670658715E+03  0.10671414452E+03  0.12700000000E+01 0. -1.
         25    2    1    2    0    0  0.00000000000E+00  0.00000000000E+00 -0.70117398648E+02  0.14332536706E+03  0.12500284496E+03 0.  0.
    9000005    1    3    3    0    0 -0.12900264626E+02  0.48005633326E+02 -0.78484608892E+02  0.92907435070E+02  0.10000000000E+01 0.  0.
    9000005    1    3    3    0    0  0.12900264626E+02 -0.48005633326E+02  0.83672102442E+01  0.50417931986E+02  0.10000000000E+01 0.  0.
<mgrwt>
<rscale>  0 0.12500284E+03</rscale>
<asrwt>0</asrwt>
<pdfrwt beam="2">  1        4 0.16418674E-01 0.12500284E+03</pdfrwt>
<pdfrwt beam="1">  1       -4 0.56313822E-02 0.12500284E+03</pdfrwt>
<totfact> 0.10064480E+04</totfact>
</mgrwt>
</event>
<event>
 5    1  0.3225662E-002  0.1250027E+03  0.7818608E-02  0.1235065E+00
         -4   -1    0    0    0  501 -0.00000000000E+00  0.00000000000E+00  0.52738714714E+03  0.52738867628E+03  0.12700000000E+01 0.  1.
          4   -1    0    0  501    0  0.00000000000E+00 -0.00000000000E+00 -0.73511337140E+01  0.74600312922E+01  0.12700000000E+01 0.  1.
         25    2    1    2    0    0  0.00000000000E+00  0.00000000000E+00  0.52003601342E+03  0.53484870757E+03  0.12500273890E+03 0.  0.
    9000005    1    3    3    0    0 -0.17210559625E+02 -0.36942150790E+02  0.57310060485E+02  0.70330426562E+02  0.10000000000E+01 0.  0.
    9000005    1    3    3    0    0  0.17210559625E+02  0.36942150790E+02  0.46272595294E+03  0.46451828101E+03  0.10000000000E+01 0.  0.
<mgrwt>
<rscale>  0 0.12500274E+03</rscale>
<asrwt>0</asrwt>
<pdfrwt beam="2">  1        4 0.11394377E-02 0.12500274E+03</pdfrwt>
<pdfrwt beam="1">  1       -4 0.81144999E-01 0.12500274E+03</pdfrwt>
<totfact> 0.53255193E+03</totfact>
</mgrwt>
</event>
<event>
 5    1  0.3225662E-002  0.1250267E+03  0.7818608E-02  0.1235027E+00
          4   -1    0    0  501    0  0.00000000000E+00  0.00000000000E+00  0.49504475024E+01  0.51107563504E+01  0.12700000000E+01 0.  1.
         -4   -1    0    0    0  501 -0.00000000000E+00 -0.00000000000E+00 -0.77666900175E+03  0.77667004009E+03  0.12700000000E+01 0.  1.
         25    2    1    2    0    0  0.00000000000E+00  0.00000000000E+00 -0.77171855425E+03  0.78178079644E+03  0.12502674401E+03 0.  0.
    9000005    1    3    3    0    0  0.33970875079E+02  0.32456302131E+02 -0.12808394483E+03  0.13643287296E+03  0.10000000000E+01 0.  0.
    9000005    1    3    3    0    0 -0.33970875079E+02 -0.32456302131E+02 -0.64363460942E+03  0.64534792348E+03  0.10000000000E+01 0.  0.
<mgrwt>
<rscale>  0 0.12502674E+03</rscale>
<asrwt>0</asrwt>
<pdfrwt beam="1">  1        4 0.77401925E-03 0.12502674E+03</pdfrwt>
<pdfrwt beam="2">  1       -4 0.11949985E+00 0.12502674E+03</pdfrwt>
<totfact> 0.39068324E+03</totfact>
</mgrwt>
</event>
<event>
 5    1  0.3225662E-002  0.1249951E+03  0.7818608E-02  0.1235077E+00
         -4   -1    0    0    0  501 -0.00000000000E+00  0.00000000000E+00  0.10910146914E+03  0.10910886063E+03  0.12700000000E+01 0. -1.
          4   -1    0    0  501    0  0.00000000000E+00 -0.00000000000E+00 -0.35781134009E+02  0.35803665329E+02  0.12700000000E+01 0. -1.
         25    2    1    2    0    0  0.00000000000E+00  0.00000000000E+00  0.73320335133E+02  0.14491252596E+03  0.12499507445E+03 0.  0.
    9000005    1    3    3    0    0  0.93292494497E+01  0.35759496044E+02 -0.21759428409E+02  0.42898125569E+02  0.10000000000E+01 0.  0.
    9000005    1    3    3    0    0 -0.93292494497E+01 -0.35759496044E+02  0.95079763543E+02  0.10201440039E+03  0.10000000000E+01 0.  0.
<mgrwt>
<rscale>  0 0.12499507E+03</rscale>
<asrwt>0</asrwt>
<pdfrwt beam="2">  1        4 0.55070916E-02 0.12499507E+03</pdfrwt>
<pdfrwt beam="1">  1       -4 0.16787143E-01 0.12499507E+03</pdfrwt>
<totfact> 0.10033879E+04</totfact>
</mgrwt>
</event>
<event>
 5    1  0.3225662E-002  0.1250000E+03  0.7818608E-02  0.1235069E+00
         -4   -1    0    0    0  501 -0.00000000000E+00  0.00000000000E+00  0.19674316015E+03  0.19674725911E+03  0.12700000000E+01 0.  1.
          4   -1    0    0  501    0  0.00000000000E+00 -0.00000000000E+00 -0.19829960007E+02  0.19870586651E+02  0.12700000000E+01 0.  1.
         25    2    1    2    0    0  0.00000000000E+00  0.00000000000E+00  0.17691320014E+03  0.21661784576E+03  0.12500004286E+03 0.  0.
    9000005    1    3    3    0    0  0.40488880233E+01  0.30252943227E+02  0.18295548929E+03  0.18548677886E+03  0.10000000000E+01 0.  0.
    9000005    1    3    3    0    0 -0.40488880233E+01 -0.30252943227E+02 -0.60422891513E+01  0.31131066899E+02  0.10000000000E+01 0.  0.
<mgrwt>
<rscale>  0 0.12500004E+03</rscale>
<asrwt>0</asrwt>
<pdfrwt beam="2">  1        4 0.30542034E-02 0.12500004E+03</pdfrwt>
<pdfrwt beam="1">  1       -4 0.30271620E-01 0.12500004E+03</pdfrwt>
<totfact> 0.87406291E+03</totfact>
</mgrwt>
</event>
<event>
 5    1  0.3225662E-002  0.1249969E+03  0.7818608E-02  0.1235074E+00
         -4   -1    0    0    0  501 -0.00000000000E+00  0.00000000000E+00  0.56746834598E+02  0.56761044185E+02  0.12700000000E+01 0.  1.
          4   -1    0    0  501    0  0.00000000000E+00 -0.00000000000E+00 -0.68804307834E+02  0.68816027759E+02  0.12700000000E+01 0.  1.
         25    2    1    2    0    0  0.00000000000E+00  0.00000000000E+00 -0.12057473235E+02  0.12557707194E+03  0.12499687331E+03 0.  0.
    9000005    1    3    3    0    0  0.10870989736E+02  0.61329710533E+02 -0.95129172155E+00  0.62301017390E+02  0.10000000000E+01 0.  0.
    9000005    1    3    3    0    0 -0.10870989736E+02 -0.61329710533E+02 -0.11106181514E+02  0.63276054553E+02  0.10000000000E+01 0.  0.
<mgrwt>
<rscale>  0 0.12499687E+03</rscale>
<asrwt>0</asrwt>
<pdfrwt beam="2">  1        4 0.10587273E-01 0.12499687E+03</pdfrwt>
<pdfrwt beam="1">  1       -4 0.87322768E-02 0.12499687E+03</pdfrwt>
<totfact> 0.10440989E+04</totfact>
</mgrwt>
</event>
<event>
 5    1  0.3225662E-002  0.1249938E+03  0.7818608E-02  0.1235079E+00
         -4   -1    0    0    0  501 -0.00000000000E+00  0.00000000000E+00  0.15137068754E+03  0.15137601510E+03  0.12700000000E+01 0. -1.
          4   -1    0    0  501    0  0.00000000000E+00 -0.00000000000E+00 -0.25781896302E+02  0.25813157051E+02  0.12700000000E+01 0. -1.
         25    2    1    2    0    0  0.00000000000E+00  0.00000000000E+00  0.12558879124E+03  0.17718917215E+03  0.12499383281E+03 0.  0.
    9000005    1    3    3    0    0  0.52527219437E+02  0.68018003264E+01  0.15789348714E+02  0.55278176547E+02  0.10000000000E+01 0.  0.
    9000005    1    3    3    0    0 -0.52527219437E+02 -0.68018003264E+01  0.10979944253E+03  0.12191099560E+03  0.10000000000E+01 0.  0.
<mgrwt>
<rscale>  0 0.12499383E+03</rscale>
<asrwt>0</asrwt>
<pdfrwt beam="2">  1        4 0.39692600E-02 0.12499383E+03</pdfrwt>
<pdfrwt beam="1">  1       -4 0.23290613E-01 0.12499383E+03</pdfrwt>
<totfact> 0.94138442E+03</totfact>
</mgrwt>
</event>
<event>
 5    1  0.3225662E-002  0.1249967E+03  0.7818608E-02  0.1235074E+00
          4   -1    0    0  501    0  0.00000000000E+00  0.00000000000E+00  0.21245322478E+03  0.21245702064E+03  0.12700000000E+01 0.  1.
         -4   -1    0    0    0  501 -0.00000000000E+00 -0.00000000000E+00 -0.18359529846E+02  0.18403402842E+02  0.12700000000E+01 0.  1.
         25    2    1    2    0    0  0.00000000000E+00  0.00000000000E+00  0.19409369494E+03  0.23086042349E+03  0.12499669083E+03 0.  0.
    9000005    1    3    3    0    0  0.21161739815E+02  0.15582824165E+02 -0.76662245518E+01  0.27393697082E+02  0.10000000000E+01 0.  0.
    9000005    1    3    3    0    0 -0.21161739815E+02 -0.15582824165E+02  0.20175991949E+03  0.20346672640E+03  0.10000000000E+01 0.  0.
<mgrwt>
<rscale>  0 0.12499669E+03</rscale>
<asrwt>0</asrwt>
<pdfrwt beam="1">  1        4 0.32688780E-01 0.12499669E+03</pdfrwt>
<pdfrwt beam="2">  1       -4 0.28282098E-02 0.12499669E+03</pdfrwt>
<totfact> 0.85183940E+03</totfact>
</mgrwt>
</event>
<event>
 5    1  0.3225662E-002  0.1250011E+03  0.7818608E-02  0.1235068E+00
          4   -1    0    0  501    0  0.00000000000E+00  0.00000000000E+00  0.29560000379E+02  0.29587269601E+02  0.12700000000E+01 0. -1.
         -4   -1    0    0    0  501 -0.00000000000E+00 -0.00000000000E+00 -0.13205750568E+03  0.13206361235E+03  0.12700000000E+01 0. -1.
         25    2    1    2    0    0  0.00000000000E+00  0.00000000000E+00 -0.10249750530E+03  0.16165088195E+03  0.12500107616E+03 0.  0.
    9000005    1    3    3    0    0  0.20803103857E+02  0.66849513998E+01  0.24465185574E+02  0.32817724029E+02  0.10000000000E+01 0.  0.
    9000005    1    3    3    0    0 -0.20803103857E+02 -0.66849513998E+01 -0.12696269088E+03  0.12883315792E+03  0.10000000000E+01 0.  0.
<mgrwt>
<rscale>  0 0.12500108E+03</rscale>
<asrwt>0</asrwt>
<pdfrwt beam="1">  1        4 0.45502598E-02 0.12500108E+03</pdfrwt>
<pdfrwt beam="2">  1       -4 0.20319106E-01 0.12500108E+03</pdfrwt>
<totfact> 0.97023103E+03</totfact>
</mgrwt>
</event>
<event>
 5    1  0.3225662E-002  0.1250013E+03  0.7818608E-02  0.1235067E+00
         -4   -1    0    0    0  501 -0.00000000000E+00  0.00000000000E+00  0.13882247127E+02  0.13940218266E+02  0.12700000000E+01 0.  1.
          4   -1    0    0  501    0  0.00000000000E+00 -0.00000000000E+00 -0.28074471044E+03  0.28074758297E+03  0.12700000000E+01 0.  1.
         25    2    1    2    0    0  0.00000000000E+00  0.00000000000E+00 -0.26686246332E+03  0.29468780123E+03  0.12500130347E+03 0.  0.
    9000005    1    3    3    0    0 -0.34418727480E+02 -0.13558955342E+02 -0.25217038070E+03  0.25487133023E+03  0.10000000000E+01 0.  0.
    9000005    1    3    3    0    0  0.34418727480E+02  0.13558955342E+02 -0.14692082612E+02  0.39816470999E+02  0.10000000000E+01 0.  0.
<mgrwt>
<rscale>  0 0.12500130E+03</rscale>
<asrwt>0</asrwt>
<pdfrwt beam="2">  1        4 0.43196170E-01 0.12500130E+03</pdfrwt>
<pdfrwt beam="1">  1       -4 0.21404108E-02 0.12500130E+03</pdfrwt>
<totfact> 0.76267854E+03</totfact>
</mgrwt>
</event>
<event>
 5    1  0.3225662E-002  0.1250033E+03  0.7818608E-02  0.1235064E+00
          4   -1    0    0  501    0  0.00000000000E+00  0.00000000000E+00  0.20580075597E+03  0.20580467453E+03  0.12700000000E+01 0. -1.
         -4   -1    0    0    0  501 -0.00000000000E+00 -0.00000000000E+00 -0.18956387443E+02  0.18998882201E+02  0.12700000000E+01 0. -1.
         25    2    1    2    0    0  0.00000000000E+00  0.00000000000E+00  0.18684436853E+03  0.22480355673E+03  0.12500328423E+03 0.  0.
    9000005    1    3    3    0    0  0.61903304204E+02  0.71754075624E+01  0.10184769559E+03  0.11940460059E+03  0.10000000000E+01 0.  0.
    9000005    1    3    3    0    0 -0.61903304204E+02 -0.71754075624E+01  0.84996672935E+02  0.10539895614E+03  0.10000000000E+01 0.  0.
<mgrwt>
<rscale>  0 0.12500328E+03</rscale>
<asrwt>0</asrwt>
<pdfrwt beam="1">  1        4 0.31665225E-01 0.12500328E+03</pdfrwt>
<pdfrwt beam="2">  1       -4 0.29199375E-02 0.12500328E+03</pdfrwt>
<totfact> 0.86107595E+03</totfact>
</mgrwt>
</event>
<event>
 5    1  0.3225662E-002  0.1250038E+03  0.7818608E-02  0.1235063E+00
          4   -1    0    0  501    0  0.00000000000E+00  0.00000000000E+00  0.74270747434E+02  0.74281604885E+02  0.12700000000E+01 0. -1.
         -4   -1    0    0    0  501 -0.00000000000E+00 -0.00000000000E+00 -0.52575553214E+02  0.52590889855E+02  0.12700000000E+01 0. -1.
         25    2    1    2    0    0  0.00000000000E+00  0.00000000000E+00  0.21695194220E+02  0.12687249474E+03  0.12500379382E+03 0.  0.
    9000005    1    3    3    0    0 -0.30889982951E+01 -0.29739619333E+02 -0.44849907415E+02  0.53911975141E+02  0.10000000000E+01 0.  0.
    9000005    1    3    3    0    0  0.30889982951E+01  0.29739619333E+02  0.66545101635E+02  0.72960519599E+02  0.10000000000E+01 0.  0.
<mgrwt>
<rscale>  0 0.12500379E+03</rscale>
<asrwt>0</asrwt>
<pdfrwt beam="1">  1        4 0.11428284E-01 0.12500379E+03</pdfrwt>
<pdfrwt beam="2">  1       -4 0.80905616E-02 0.12500379E+03</pdfrwt>
<totfact> 0.10411025E+04</totfact>
</mgrwt>
</event>
<event>
 5    1  0.3225662E-002  0.1250015E+03  0.7818608E-02  0.1235067E+00
          4   -1    0    0  501    0  0.00000000000E+00  0.00000000000E+00  0.25153712026E+01  0.28177991921E+01  0.12700000000E+01 0. -1.
         -4   -1    0    0    0  501 -0.00000000000E+00 -0.00000000000E+00 -0.14646210210E+04  0.14646215716E+04  0.12700000000E+01 0. -1.
         25    2    1    2    0    0  0.00000000000E+00  0.00000000000E+00 -0.14621056498E+04  0.14674393708E+04  0.12500150335E+03 0.  0.
    9000005    1    3    3    0    0 -0.40858062369E+02  0.39603877968E+02 -0.42775512426E+03  0.43152438487E+03  0.10000000000E+01 0.  0.
    9000005    1    3    3    0    0  0.40858062369E+02 -0.39603877968E+02 -0.10343505255E+04  0.10359149859E+04  0.10000000000E+01 0.  0.
<mgrwt>
<rscale>  0 0.12500150E+03</rscale>
<asrwt>0</asrwt>
<pdfrwt beam="1">  1        4 0.41028740E-03 0.12500150E+03</pdfrwt>
<pdfrwt beam="2">  1       -4 0.22534897E+00 0.12500150E+03</pdfrwt>
<totfact> 0.18577828E+03</totfact>
</mgrwt>
</event>
<event>
 5    1  0.3225662E-002  0.1249993E+03  0.7818608E-02  0.1235070E+00
         -4   -1    0    0    0  501 -0.00000000000E+00  0.00000000000E+00  0.20588374539E+02  0.20627507512E+02  0.12700000000E+01 0. -1.
          4   -1    0    0  501    0  0.00000000000E+00 -0.00000000000E+00 -0.18950734320E+03  0.18951159866E+03  0.12700000000E+01 0. -1.
         25    2    1    2    0    0  0.00000000000E+00  0.00000000000E+00 -0.16891896866E+03  0.21013910617E+03  0.12499930388E+03 0.  0.
    9000005    1    3    3    0    0  0.12658516029E+02  0.34750465545E+02 -0.16914156017E+03  0.17314069498E+03  0.10000000000E+01 0.  0.
    9000005    1    3    3    0    0 -0.12658516029E+02 -0.34750465545E+02  0.22259150421E+00  0.36998411190E+02  0.10000000000E+01 0.  0.
<mgrwt>
<rscale>  0 0.12499930E+03</rscale>
<asrwt>0</asrwt>
<pdfrwt beam="2">  1        4 0.29158312E-01 0.12499930E+03</pdfrwt>
<pdfrwt beam="1">  1       -4 0.31707799E-02 0.12499930E+03</pdfrwt>
<totfact> 0.88454545E+03</totfact>
</mgrwt>
</event>
<event>
 5    1  0.3225662E-002  0.1249994E+03  0.7818608E-02  0.1235070E+00
          4   -1    0    0  501    0  0.00000000000E+00  0.00000000000E+00  0.39145918135E+03  0.39146124146E+03  0.12700000000E+01 0.  1.
         -4   -1    0    0    0  501 -0.00000000000E+00 -0.00000000000E+00 -0.99360921559E+01  0.10016927040E+02  0.12700000000E+01 0.  1.
         25    2    1    2    0    0  0.00000000000E+00  0.00000000000E+00  0.38152308920E+03  0.40147816850E+03  0.12499940877E+03 0.  0.
    9000005    1    3    3    0    0  0.40251699649E+02 -0.75965494993E+01  0.39180835479E+02  0.56692545875E+02  0.10000000000E+01 0.  0.
    9000005    1    3    3    0    0 -0.40251699649E+02  0.75965494993E+01  0.34234225372E+03  0.34478562263E+03  0.10000000000E+01 0.  0.
<mgrwt>
<rscale>  0 0.12499941E+03</rscale>
<asrwt>0</asrwt>
<pdfrwt beam="1">  1        4 0.60230861E-01 0.12499941E+03</pdfrwt>
<pdfrwt beam="2">  1       -4 0.15350062E-02 0.12499941E+03</pdfrwt>
<totfact> 0.64410120E+03</totfact>
</mgrwt>
</event>
<event>
 5    1  0.3225662E-002  0.1250015E+03  0.7818608E-02  0.1235067E+00
         -4   -1    0    0    0  501 -0.00000000000E+00  0.00000000000E+00  0.34934885742E+02  0.34957962495E+02  0.12700000000E+01 0.  1.
          4   -1    0    0  501    0  0.00000000000E+00 -0.00000000000E+00 -0.11175431595E+03  0.11176153199E+03  0.12700000000E+01 0.  1.
         25    2    1    2    0    0  0.00000000000E+00  0.00000000000E+00 -0.76819430204E+02  0.14671949448E+03  0.12500154081E+03 0.  0.
    9000005    1    3    3    0    0  0.19771760708E+01 -0.28561675894E+02 -0.10360963109E+03  0.10749713583E+03  0.10000000000E+01 0.  0.
    9000005    1    3    3    0    0 -0.19771760708E+01  0.28561675894E+02  0.26790200890E+02  0.39222358660E+02  0.10000000000E+01 0.  0.
<mgrwt>
<rscale>  0 0.12500154E+03</rscale>
<asrwt>0</asrwt>
<pdfrwt beam="2">  1        4 0.17195302E-01 0.12500154E+03</pdfrwt>
<pdfrwt beam="1">  1       -4 0.53769281E-02 0.12500154E+03</pdfrwt>
<totfact> 0.99958217E+03</totfact>
</mgrwt>
</event>
<event>
 5    1  0.3225662E-002  0.1250095E+03  0.7818608E-02  0.1235054E+00
          4   -1    0    0  501    0  0.00000000000E+00  0.00000000000E+00  0.33854201184E+03  0.33854439396E+03  0.12700000000E+01 0.  1.
         -4   -1    0    0    0  501 -0.00000000000E+00 -0.00000000000E+00 -0.11502841341E+02  0.11572737745E+02  0.12700000000E+01 0.  1.
         25    2    1    2    0    0  0.00000000000E+00  0.00000000000E+00  0.32703917050E+03  0.35011713170E+03  0.12500954712E+03 0.  0.
    9000005    1    3    3    0    0  0.45770068693E+02 -0.34517215006E+02  0.93809738253E+02  0.10994364152E+03  0.10000000000E+01 0.  0.
    9000005    1    3    3    0    0 -0.45770068693E+02  0.34517215006E+02  0.23322943224E+03  0.24017349018E+03  0.10000000000E+01 0.  0.
<mgrwt>
<rscale>  0 0.12500955E+03</rscale>
<asrwt>0</asrwt>
<pdfrwt beam="1">  1        4 0.52088944E-01 0.12500955E+03</pdfrwt>
<pdfrwt beam="2">  1       -4 0.17752279E-02 0.12500955E+03</pdfrwt>
<totfact> 0.69696945E+03</totfact>
</mgrwt>
</event>
<event>
 5    1  0.3225662E-002  0.1249955E+03  0.7818608E-02  0.1235076E+00
         -4   -1    0    0    0  501 -0.00000000000E+00  0.00000000000E+00  0.84721434464E+02  0.84730952772E+02  0.12700000000E+01 0. -1.
          4   -1    0    0  501    0  0.00000000000E+00 -0.00000000000E+00 -0.46082841237E+02  0.46100337922E+02  0.12700000000E+01 0. -1.
         25    2    1    2    0    0  0.00000000000E+00  0.00000000000E+00  0.38638593227E+02  0.13083129069E+03  0.12499554287E+03 0.  0.
    9000005    1    3    3    0    0 -0.36594132562E+02 -0.47224508280E+02  0.38496451475E+02  0.71079262070E+02  0.10000000000E+01 0.  0.
    9000005    1    3    3    0    0  0.36594132562E+02  0.47224508280E+02  0.14214175122E+00  0.59752028623E+02  0.10000000000E+01 0.  0.
<mgrwt>
<rscale>  0 0.12499554E+03</rscale>
<asrwt>0</asrwt>
<pdfrwt beam="2">  1        4 0.70917461E-02 0.12499554E+03</pdfrwt>
<pdfrwt beam="1">  1       -4 0.13036145E-01 0.12499554E+03</pdfrwt>
<totfact> 0.10327746E+04</totfact>
</mgrwt>
</event>
<event>
 5    1  0.3225662E-002  0.1249975E+03  0.7818608E-02  0.1235073E+00
          4   -1    0    0  501    0  0.00000000000E+00  0.00000000000E+00  0.71212856278E+03  0.71212969523E+03  0.12700000000E+01 0.  1.
         -4   -1    0    0    0  501 -0.00000000000E+00 -0.00000000000E+00 -0.54104340849E+01  0.55574901697E+01  0.12700000000E+01 0.  1.
         25    2    1    2    0    0  0.00000000000E+00  0.00000000000E+00  0.70671812869E+03  0.71768718540E+03  0.12499753061E+03 0.  0.
    9000005    1    3    3    0    0  0.62792515175E+01 -0.28516568430E+02  0.36139764560E+02  0.46472639877E+02  0.10000000000E+01 0.  0.
    9000005    1    3    3    0    0 -0.62792515175E+01  0.28516568430E+02  0.67057836413E+03  0.67121454552E+03  0.10000000000E+01 0.  0.
<mgrwt>
<rscale>  0 0.12499753E+03</rscale>
<asrwt>0</asrwt>
<pdfrwt beam="1">  1        4 0.10956966E+00 0.12499753E+03</pdfrwt>
<pdfrwt beam="2">  1       -4 0.84377345E-03 0.12499753E+03</pdfrwt>
<totfact> 0.42171577E+03</totfact>
</mgrwt>
</event>
<event>
 5    1  0.3225662E-002  0.1249905E+03  0.7818608E-02  0.1235084E+00
         -4   -1    0    0    0  501 -0.00000000000E+00  0.00000000000E+00  0.65586824653E+02  0.65599119416E+02  0.12700000000E+01 0. -1.
          4   -1    0    0  501    0  0.00000000000E+00 -0.00000000000E+00 -0.59524726634E+02  0.59538273244E+02  0.12700000000E+01 0. -1.
         25    2    1    2    0    0  0.00000000000E+00  0.00000000000E+00  0.60620980191E+01  0.12513739266E+03  0.12499047167E+03 0.  0.
    9000005    1    3    3    0    0  0.41269919768E+01  0.34267939563E+02 -0.49119821708E+02  0.60042323650E+02  0.10000000000E+01 0.  0.
    9000005    1    3    3    0    0 -0.41269919768E+01 -0.34267939563E+02  0.55181919727E+02  0.65095069010E+02  0.10000000000E+01 0.  0.
<mgrwt>
<rscale>  0 0.12499047E+03</rscale>
<asrwt>0</asrwt>
<pdfrwt beam="2">  1        4 0.91596381E-02 0.12499047E+03</pdfrwt>
<pdfrwt beam="1">  1       -4 0.10092269E-01 0.12499047E+03</pdfrwt>
<totfact> 0.10452130E+04</totfact>
</mgrwt>
</event>
<event>
 5    1  0.3225662E-002  0.1250006E+03  0.7818608E-02  0.1235068E+00
         -4   -1    0    0    0  501 -0.00000000000E+00  0.00000000000E+00  0.24230253058E+03  0.24230585883E+03  0.12700000000E+01 0. -1.
          4   -1    0    0  501    0  0.00000000000E+00 -0.00000000000E+00 -0.16093065553E+02  0.16143099420E+02  0.12700000000E+01 0. -1.
         25    2    1    2    0    0  0.00000000000E+00  0.00000000000E+00  0.22620946502E+03  0.25844895825E+03  0.12500056782E+03 0.  0.
    9000005    1    3    3    0    0 -0.52557017796E+02 -0.33433968763E+02  0.12348702269E+03  0.13831165952E+03  0.10000000000E+01 0.  0.
    9000005    1    3    3    0    0  0.52557017796E+02  0.33433968763E+02  0.10272244233E+03  0.12013729873E+03  0.10000000000E+01 0.  0.
<mgrwt>
<rscale>  0 0.12500057E+03</rscale>
<asrwt>0</asrwt>
<pdfrwt beam="2">  1        4 0.24799612E-02 0.12500057E+03</pdfrwt>
<pdfrwt beam="1">  1       -4 0.37281414E-01 0.12500057E+03</pdfrwt>
<totfact> 0.81123198E+03</totfact>
</mgrwt>
</event>
<event>
 5    1  0.3225662E-002  0.1249963E+03  0.7818608E-02  0.1235075E+00
         -4   -1    0    0    0  501 -0.00000000000E+00  0.00000000000E+00  0.30559780420E+03  0.30560044311E+03  0.12700000000E+01 0. -1.
          4   -1    0    0  501    0  0.00000000000E+00 -0.00000000000E+00 -0.12747309550E+02  0.12810417666E+02  0.12700000000E+01 0. -1.
         25    2    1    2    0    0  0.00000000000E+00  0.00000000000E+00  0.29285049465E+03  0.31841086078E+03  0.12499625613E+03 0.  0.
    9000005    1    3    3    0    0  0.13532010797E+02 -0.49175654532E+02  0.23840078194E+03  0.24379764795E+03  0.10000000000E+01 0.  0.
    9000005    1    3    3    0    0 -0.13532010797E+02  0.49175654532E+02  0.54449712702E+02  0.74613212826E+02  0.10000000000E+01 0.  0.
<mgrwt>
<rscale>  0 0.12499626E+03</rscale>
<asrwt>0</asrwt>
<pdfrwt beam="2">  1        4 0.19661820E-02 0.12499626E+03</pdfrwt>
<pdfrwt beam="1">  1       -4 0.47020104E-01 0.12499626E+03</pdfrwt>
<totfact> 0.73351618E+03</totfact>
</mgrwt>
</event>
<event>
 5    1  0.3225662E-002  0.1250008E+03  0.7818608E-02  0.1235068E+00
         -4   -1    0    0    0  501 -0.00000000000E+00  0.00000000000E+00  0.60372964268E+01  0.61694285104E+01  0.12700000000E+01 0.  1.
          4   -1    0    0  501    0  0.00000000000E+00 -0.00000000000E+00 -0.63989102034E+03  0.63989228063E+03  0.12700000000E+01 0.  1.
         25    2    1    2    0    0  0.00000000000E+00  0.00000000000E+00 -0.63385372391E+03  0.64606170914E+03  0.12500075480E+03 0.  0.
    9000005    1    3    3    0    0 -0.47816897104E+02 -0.36877089611E+02 -0.23376089038E+03  0.24143638760E+03  0.10000000000E+01 0.  0.
    9000005    1    3    3    0    0  0.47816897104E+02  0.36877089611E+02 -0.40009283353E+03  0.40462532153E+03  0.10000000000E+01 0.  0.
<mgrwt>
<rscale>  0 0.12500075E+03</rscale>
<asrwt>0</asrwt>
<pdfrwt beam="2">  1        4 0.98454981E-01 0.12500075E+03</pdfrwt>
<pdfrwt beam="1">  1       -4 0.93907629E-03 0.12500075E+03</pdfrwt>
<totfact> 0.46082552E+03</totfact>
</mgrwt>
</event>
<event>
 5    1  0.3225662E-002  0.1250032E+03  0.7818608E-02  0.1235064E+00
         -4   -1    0    0    0  501 -0.00000000000E+00  0.00000000000E+00  0.11807003658E+02  0.11875109911E+02  0.12700000000E+01 0.  1.
          4   -1    0    0  501    0  0.00000000000E+00 -0.00000000000E+00 -0.32983778736E+03  0.32984023234E+03  0.12700000000E+01 0.  1.
         25    2    1    2    0    0  0.00000000000E+00  0.00000000000E+00 -0.31803078371E+03  0.34171534225E+03  0.12500318295E+03 0.  0.
    9000005    1    3    3    0    0 -0.23495409396E+02  0.17674878381E+02 -0.30976374270E+03  0.31115753547E+03  0.10000000000E+01 0.  0.
    9000005    1    3    3    0    0  0.23495409396E+02 -0.17674878381E+02 -0.82670410049E+01  0.30557806784E+02  0.10000000000E+01 0.  0.
<mgrwt>
<rscale>  0 0.12500318E+03</rscale>
<asrwt>0</asrwt>
<pdfrwt beam="2">  1        4 0.50749695E-01 0.12500318E+03</pdfrwt>
<pdfrwt beam="1">  1       -4 0.18218894E-02 0.12500318E+03</pdfrwt>
<totfact> 0.70640714E+03</totfact>
</mgrwt>
</event>
<event>
 5    1  0.3225662E-002  0.1250023E+03  0.7818608E-02  0.1235066E+00
         -4   -1    0    0    0  501 -0.00000000000E+00  0.00000000000E+00  0.46240388652E+03  0.46240563056E+03  0.12700000000E+01 0. -1.
          4   -1    0    0  501    0  0.00000000000E+00 -0.00000000000E+00 -0.83985062423E+01  0.84939865258E+01  0.12700000000E+01 0. -1.
         25    2    1    2    0    0  0.00000000000E+00  0.00000000000E+00  0.45400538028E+03  0.47089961708E+03  0.12500225616E+03 0.  0.
    9000005    1    3    3    0    0 -0.41204085311E+02 -0.45159365112E+02  0.27586601318E+03  0.28256008588E+03  0.10000000000E+01 0.  0.
    9000005    1    3    3    0    0  0.41204085311E+02  0.45159365112E+02  0.17813936710E+03  0.18833953120E+03  0.10000000000E+01 0.  0.
<mgrwt>
<rscale>  0 0.12500226E+03</rscale>
<asrwt>0</asrwt>
<pdfrwt beam="2">  1        4 0.12995564E-02 0.12500226E+03</pdfrwt>
<pdfrwt beam="1">  1       -4 0.71146551E-01 0.12500226E+03</pdfrwt>
<totfact> 0.58192173E+03</totfact>
</mgrwt>
</event>
<event>
 5    1  0.3225662E-002  0.1249980E+03  0.7818608E-02  0.1235072E+00
         -4   -1    0    0    0  501 -0.00000000000E+00  0.00000000000E+00  0.30029791165E+02  0.30056634167E+02  0.12700000000E+01 0.  1.
          4   -1    0    0  501    0  0.00000000000E+00 -0.00000000000E+00 -0.12998695313E+03  0.12999315707E+03  0.12700000000E+01 0.  1.
         25    2    1    2    0    0  0.00000000000E+00  0.00000000000E+00 -0.99957161969E+02  0.16004979124E+03  0.12499800577E+03 0.  0.
    9000005    1    3    3    0    0 -0.11849876409E+02  0.61330906920E+02 -0.52278224125E+02  0.81461109937E+02  0.10000000000E+01 0.  0.
    9000005    1    3    3    0    0  0.11849876409E+02 -0.61330906920E+02 -0.47678937844E+02  0.78588681300E+02  0.10000000000E+01 0.  0.
<mgrwt>
<rscale>  0 0.12499801E+03</rscale>
<asrwt>0</asrwt>
<pdfrwt beam="2">  1        4 0.20000535E-01 0.12499801E+03</pdfrwt>
<pdfrwt beam="1">  1       -4 0.46225100E-02 0.12499801E+03</pdfrwt>
<totfact> 0.97337550E+03</totfact>
</mgrwt>
</event>
<event>
 4    1  0.3225662E-002  0.1251076E+03  0.7818608E-02  0.1234901E+00
         -4   -1    0    0    0  501 -0.00000000000E+00  0.00000000000E+00  0.18874788576E+02  0.18917466633E+02  0.12700000000E+01 0. -1.
          4   -1    0    0  501    0  0.00000000000E+00 -0.00000000000E+00 -0.20703357278E+03  0.20703746801E+03  0.12700000000E+01 0. -1.
    9000005    1    1    2    0    0 -0.32262699524E+02 -0.23266457547E+02 -0.18125488550E+03  0.18557085802E+03  0.10000000000E+01 0.  0.
    9000005    1    1    2    0    0  0.32262699524E+02  0.23266457547E+02 -0.69038987053E+01  0.40384076623E+02  0.10000000000E+01 0.  0.
<mgrwt>
<rscale>  0 0.12510757E+03</rscale>
<asrwt>0</asrwt>
<pdfrwt beam="2">  1        4 0.31854900E-01 0.12510757E+03</pdfrwt>
<pdfrwt beam="1">  1       -4 0.29073963E-02 0.12510757E+03</pdfrwt>
<totfact> 0.85728621E+03</totfact>
</mgrwt>
</event>
<event>
 5    1  0.3225662E-002  0.1249998E+03  0.7818608E-02  0.1235070E+00
         -4   -1    0    0    0  501 -0.00000000000E+00  0.00000000000E+00  0.45735845012E+03  0.45736021339E+03  0.12700000000E+01 0.  1.
          4   -1    0    0  501    0  0.00000000000E+00 -0.00000000000E+00 -0.84918611886E+01  0.85863034215E+01  0.12700000000E+01 0.  1.
         25    2    1    2    0    0  0.00000000000E+00  0.00000000000E+00  0.44886658893E+03  0.46594651682E+03  0.12499976750E+03 0.  0.
    9000005    1    3    3    0    0 -0.57184424258E+02  0.51380834707E+01  0.13246120570E+03  0.14437253650E+03  0.10000000000E+01 0.  0.
    9000005    1    3    3    0    0  0.57184424258E+02 -0.51380834707E+01  0.31640538323E+03  0.32157398031E+03  0.10000000000E+01 0.  0.
<mgrwt>
<rscale>  0 0.12499977E+03</rscale>
<asrwt>0</asrwt>
<pdfrwt beam="2">  1        4 0.13138405E-02 0.12499977E+03</pdfrwt>
<pdfrwt beam="1">  1       -4 0.70370246E-01 0.12499977E+03</pdfrwt>
<totfact> 0.58607114E+03</totfact>
</mgrwt>
</event>
<event>
 5    1  0.3225662E-002  0.1250006E+03  0.7818608E-02  0.1235068E+00
         -4   -1    0    0    0  501 -0.00000000000E+00  0.00000000000E+00  0.54507386916E+02  0.54522180151E+02  0.12700000000E+01 0.  1.
          4   -1    0    0  501    0  0.00000000000E+00 -0.00000000000E+00 -0.71635115774E+02  0.71646372637E+02  0.12700000000E+01 0.  1.
         25    2    1    2    0    0  0.00000000000E+00  0.00000000000E+00 -0.17127728858E+02  0.12616855279E+03  0.12500057847E+03 0.  0.
    9000005    1    3    3    0    0  0.10620820308E+02 -0.11218118017E+02 -0.69682426152E+02  0.71381289638E+02  0.10000000000E+01 0.  0.
    9000005    1    3    3    0    0 -0.10620820308E+02  0.11218118017E+02  0.52554697294E+02  0.54787263150E+02  0.10000000000E+01 0.  0.
<mgrwt>
<rscale>  0 0.12500058E+03</rscale>
<asrwt>0</asrwt>
<pdfrwt beam="2">  1        4 0.11022791E-01 0.12500058E+03</pdfrwt>
<pdfrwt beam="1">  1       -4 0.83877557E-02 0.12500058E+03</pdfrwt>
<totfact> 0.10427130E+04</totfact>
</mgrwt>
</event>
<event>
 5    1  0.3225662E-002  0.1249978E+03  0.7818608E-02  0.1235073E+00
          4   -1    0    0  501    0  0.00000000000E+00  0.00000000000E+00  0.13854404530E+03  0.13854986607E+03  0.12700000000E+01 0.  1.
         -4   -1    0    0    0  501 -0.00000000000E+00 -0.00000000000E+00 -0.28173288319E+02  0.28201898424E+02  0.12700000000E+01 0.  1.
         25    2    1    2    0    0  0.00000000000E+00  0.00000000000E+00  0.11037075698E+03  0.16675176450E+03  0.12499778784E+03 0.  0.
    9000005    1    3    3    0    0  0.56956890445E+01  0.60720199411E+02  0.73365931773E+02  0.95409346687E+02  0.10000000000E+01 0.  0.
    9000005    1    3    3    0    0 -0.56956890445E+01 -0.60720199411E+02  0.37004825211E+02  0.71342417811E+02  0.10000000000E+01 0.  0.
<mgrwt>
<rscale>  0 0.12499779E+03</rscale>
<asrwt>0</asrwt>
<pdfrwt beam="1">  1        4 0.21317117E-01 0.12499779E+03</pdfrwt>
<pdfrwt beam="2">  1       -4 0.43370005E-02 0.12499779E+03</pdfrwt>
<totfact> 0.96061433E+03</totfact>
</mgrwt>
</event>
<event>
 5    1  0.3225662E-002  0.1250016E+03  0.7818608E-02  0.1235067E+00
          4   -1    0    0  501    0  0.00000000000E+00  0.00000000000E+00  0.44699583242E+02  0.44717621157E+02  0.12700000000E+01 0.  1.
         -4   -1    0    0    0  501 -0.00000000000E+00 -0.00000000000E+00 -0.87350880456E+02  0.87360112273E+02  0.12700000000E+01 0.  1.
         25    2    1    2    0    0  0.00000000000E+00  0.00000000000E+00 -0.42651297214E+02  0.13207773343E+03  0.12500157805E+03 0.  0.
    9000005    1    3    3    0    0 -0.31406198832E+02  0.26748155518E+01  0.35690544081E+02  0.47626871618E+02  0.10000000000E+01 0.  0.
    9000005    1    3    3    0    0  0.31406198832E+02 -0.26748155518E+01 -0.78341841295E+02  0.84450861812E+02  0.10000000000E+01 0.  0.
<mgrwt>
<rscale>  0 0.12500158E+03</rscale>
<asrwt>0</asrwt>
<pdfrwt beam="1">  1        4 0.68789566E-02 0.12500158E+03</pdfrwt>
<pdfrwt beam="2">  1       -4 0.13440695E-01 0.12500158E+03</pdfrwt>
<totfact> 0.10299673E+04</totfact>
</mgrwt>
</event>
<event>
 5    1  0.3225662E-002  0.1249997E+03  0.7818608E-02  0.1235070E+00
          4   -1    0    0  501    0  0.00000000000E+00  0.00000000000E+00  0.88036290835E+01  0.88947616629E+01  0.12700000000E+01 0.  1.
         -4   -1    0    0    0  501 -0.00000000000E+00 -0.00000000000E+00 -0.44132987756E+03  0.44133170488E+03  0.12700000000E+01 0.  1.
         25    2    1    2    0    0  0.00000000000E+00  0.00000000000E+00 -0.43252624848E+03  0.45022646654E+03  0.12499966220E+03 0.  0.
    9000005    1    3    3    0    0  0.16780312064E+02 -0.14022818850E+01 -0.43302227283E+03  0.43335070559E+03  0.10000000000E+01 0.  0.
    9000005    1    3    3    0    0 -0.16780312064E+02  0.14022818850E+01  0.49602435241E+00  0.16875760949E+02  0.10000000000E+01 0.  0.
<mgrwt>
<rscale>  0 0.12499966E+03</rscale>
<asrwt>0</asrwt>
<pdfrwt beam="1">  1        4 0.13615556E-02 0.12499966E+03</pdfrwt>
<pdfrwt beam="2">  1       -4 0.67904038E-01 0.12499966E+03</pdfrwt>
<totfact> 0.59944634E+03</totfact>
</mgrwt>
</event>
<event>
 5    1  0.3225662E-002  0.1249928E+03  0.7818608E-02  0.1235081E+00
         -4   -1    0    0    0  501 -0.00000000000E+00  0.00000000000E+00  0.15246971942E+03  0.15247500857E+03  0.12700000000E+01 0.  1.
          4   -1    0    0  501    0  0.00000000000E+00 -0.00000000000E+00 -0.25595392219E+02  0.25626880474E+02  0.12700000000E+01 0.  1.
         25    2    1    2    0    0  0.00000000000E+00  0.00000000000E+00  0.12687432720E+03  0.17810188905E+03  0.12499275171E+03 0.  0.
    9000005    1    3    3    0    0  0.61603514600E+02 -0.61788643965E+01  0.75496346710E+02  0.97641536975E+02  0.10000000000E+01 0.  0.
    9000005    1    3    3    0    0 -0.61603514600E+02  0.61788643965E+01  0.51377980488E+02  0.80460352071E+02  0.10000000000E+01 0.  0.
<mgrwt>
<rscale>  0 0.12499275E+03</rscale>
<asrwt>0</asrwt>
<pdfrwt beam="2">  1        4 0.39405816E-02 0.12499275E+03</pdfrwt>
<pdfrwt beam="1">  1       -4 0.23459709E-01 0.12499275E+03</pdfrwt>
<totfact> 0.93975063E+03</totfact>
</mgrwt>
</event>
<event>
 5    1  0.3225662E-002  0.1250137E+03  0.7818608E-02  0.1235048E+00
          4   -1    0    0  501    0  0.00000000000E+00  0.00000000000E+00  0.11999500550E+03  0.12000172601E+03  0.12700000000E+01 0. -1.
         -4   -1    0    0    0  501 -0.00000000000E+00 -0.00000000000E+00 -0.32540544491E+02  0.32565317990E+02  0.12700000000E+01 0. -1.
         25    2    1    2    0    0  0.00000000000E+00  0.00000000000E+00  0.87454461010E+02  0.15256704400E+03  0.12501367991E+03 0.  0.
    9000005    1    3    3    0    0 -0.72713805646E+01 -0.34457708653E+02 -0.19285019572E+02  0.40163648251E+02  0.10000000000E+01 0.  0.
    9000005    1    3    3    0    0  0.72713805646E+01  0.34457708653E+02  0.10673948058E+03  0.11240339575E+03  0.10000000000E+01 0.  0.
<mgrwt>
<rscale>  0 0.12501368E+03</rscale>
<asrwt>0</asrwt>
<pdfrwt beam="1">  1        4 0.18463193E-01 0.12501368E+03</pdfrwt>
<pdfrwt beam="2">  1       -4 0.50086602E-02 0.12501368E+03</pdfrwt>
<totfact> 0.98764034E+03</totfact>
</mgrwt>
</event>
<event>
 5    1  0.3225662E-002  0.1250152E+03  0.7818608E-02  0.1235046E+00
          4   -1    0    0  501    0  0.00000000000E+00  0.00000000000E+00  0.70985255004E+02  0.70996614905E+02  0.12700000000E+01 0. -1.
         -4   -1    0    0    0  501 -0.00000000000E+00 -0.00000000000E+00 -0.55019307744E+02  0.55033963374E+02  0.12700000000E+01 0. -1.
         25    2    1    2    0    0  0.00000000000E+00  0.00000000000E+00  0.15965947260E+02  0.12603057828E+03  0.12501517984E+03 0.  0.
    9000005    1    3    3    0    0  0.58055127036E+02 -0.16869049923E+02 -0.79961982039E+01  0.60990997747E+02  0.10000000000E+01 0.  0.
    9000005    1    3    3    0    0 -0.58055127036E+02  0.16869049923E+02  0.23962145464E+02  0.65039580532E+02  0.10000000000E+01 0.  0.
<mgrwt>
<rscale>  0 0.12501518E+03</rscale>
<asrwt>0</asrwt>
<pdfrwt beam="1">  1        4 0.10922810E-01 0.12501518E+03</pdfrwt>
<pdfrwt beam="2">  1       -4 0.84665101E-02 0.12501518E+03</pdfrwt>
<totfact> 0.10426715E+04</totfact>
</mgrwt>
</event>
<event>
 5    1  0.3225662E-002  0.1249991E+03  0.7818608E-02  0.1235071E+00
         -4   -1    0    0    0  501 -0.00000000000E+00  0.00000000000E+00  0.16186162152E+02  0.16235909128E+02  0.12700000000E+01 0. -1.
          4   -1    0    0  501    0  0.00000000000E+00 -0.00000000000E+00 -0.24090746748E+03  0.24091081501E+03  0.12700000000E+01 0. -1.
         25    2    1    2    0    0  0.00000000000E+00  0.00000000000E+00 -0.22472130533E+03  0.25714672414E+03  0.12499909066E+03 0.  0.
    9000005    1    3    3    0    0 -0.60921013991E+02 -0.21111178697E+01 -0.14066972294E+03  0.15331274479E+03  0.10000000000E+01 0.  0.
    9000005    1    3    3    0    0  0.60921013991E+02  0.21111178697E+01 -0.84051582396E+02  0.10383397935E+03  0.10000000000E+01 0.  0.
<mgrwt>
<rscale>  0 0.12499909E+03</rscale>
<asrwt>0</asrwt>
<pdfrwt beam="2">  1        4 0.37066769E-01 0.12499909E+03</pdfrwt>
<pdfrwt beam="1">  1       -4 0.24942632E-02 0.12499909E+03</pdfrwt>
<totfact> 0.81309800E+03</totfact>
</mgrwt>
</event>
<event>
 5    1  0.3225662E-002  0.1250187E+03  0.7818608E-02  0.1235040E+00
          4   -1    0    0  501    0  0.00000000000E+00  0.00000000000E+00  0.27398132853E+03  0.27398427196E+03  0.12700000000E+01 0.  1.
         -4   -1    0    0    0  501 -0.00000000000E+00 -0.00000000000E+00 -0.14230327341E+02  0.14286886163E+02  0.12700000000E+01 0.  1.
         25    2    1    2    0    0  0.00000000000E+00  0.00000000000E+00  0.25975100119E+03  0.28827115812E+03  0.12501871055E+03 0.  0.
    9000005    1    3    3    0    0  0.26826908634E+02  0.29406681107E+02  0.18764834938E+02  0.44017666350E+02  0.10000000000E+01 0.  0.
    9000005    1    3    3    0    0 -0.26826908634E+02 -0.29406681107E+02  0.24098616625E+03  0.24425349177E+03  0.10000000000E+01 0.  0.
<mgrwt>
<rscale>  0 0.12501871E+03</rscale>
<asrwt>0</asrwt>
<pdfrwt beam="1">  1        4 0.42155549E-01 0.12501871E+03</pdfrwt>
<pdfrwt beam="2">  1       -4 0.21938583E-02 0.12501871E+03</pdfrwt>
<totfact> 0.77062001E+03</totfact>
</mgrwt>
</event>
<event>
 5    1  0.3225662E-002  0.1249999E+03  0.7818608E-02  0.1235069E+00
         -4   -1    0    0    0  501 -0.00000000000E+00  0.00000000000E+00  0.21348165134E+03  0.21348542892E+03  0.12700000000E+01 0. -1.
          4   -1    0    0  501    0  0.00000000000E+00 -0.00000000000E+00 -0.18271807661E+02  0.18315890784E+02  0.12700000000E+01 0. -1.
         25    2    1    2    0    0  0.00000000000E+00  0.00000000000E+00  0.19520984368E+03  0.23180131970E+03  0.12499987498E+03 0.  0.
    9000005    1    3    3    0    0 -0.15026727521E+02 -0.51812594362E+02  0.39113135256E+02  0.66642215030E+02  0.10000000000E+01 0.  0.
    9000005    1    3    3    0    0  0.15026727521E+02  0.51812594362E+02  0.15609670842E+03  0.16515910467E+03  0.10000000000E+01 0.  0.
<mgrwt>
<rscale>  0 0.12499987E+03</rscale>
<asrwt>0</asrwt>
<pdfrwt beam="2">  1        4 0.28147289E-02 0.12499987E+03</pdfrwt>
<pdfrwt beam="1">  1       -4 0.32847012E-01 0.12499987E+03</pdfrwt>
<totfact> 0.85034005E+03</totfact>
</mgrwt>
</event>
<event>
 5    1  0.3225662E-002  0.1249985E+03  0.7818608E-02  0.1235072E+00
         -4   -1    0    0    0  501 -0.00000000000E+00  0.00000000000E+00  0.37423495839E+03  0.37423711331E+03  0.12700000000E+01 0.  1.
          4   -1    0    0  501    0  0.00000000000E+00 -0.00000000000E+00 -0.10396882176E+02  0.10474161493E+02  0.12700000000E+01 0.  1.
         25    2    1    2    0    0  0.00000000000E+00  0.00000000000E+00  0.36383807621E+03  0.38471127480E+03  0.12499847703E+03 0.  0.
    9000005    1    3    3    0    0 -0.57941548739E+02  0.11101066639E+02  0.11849259847E+03  0.13237051274E+03  0.10000000000E+01 0.  0.
    9000005    1    3    3    0    0  0.57941548739E+02 -0.11101066639E+02  0.24534547774E+03  0.25234076206E+03  0.10000000000E+01 0.  0.
<mgrwt>
<rscale>  0 0.12499848E+03</rscale>
<asrwt>0</asrwt>
<pdfrwt beam="2">  1        4 0.16056306E-02 0.12499848E+03</pdfrwt>
<pdfrwt beam="1">  1       -4 0.57580722E-01 0.12499848E+03</pdfrwt>
<totfact> 0.66069639E+03</totfact>
</mgrwt>
</event>
<event>
 5    1  0.3225662E-002  0.1249979E+03  0.7818608E-02  0.1235073E+00
         -4   -1    0    0    0  501 -0.00000000000E+00  0.00000000000E+00  0.26967781614E+02  0.26997669255E+02  0.12700000000E+01 0. -1.
          4   -1    0    0  501    0  0.00000000000E+00 -0.00000000000E+00 -0.14473101905E+03  0.14473659101E+03  0.12700000000E+01 0. -1.
         25    2    1    2    0    0  0.00000000000E+00  0.00000000000E+00 -0.11776323744E+03  0.17173426026E+03  0.12499790420E+03 0.  0.
    9000005    1    3    3    0    0 -0.25660599540E+02  0.54696196342E+02 -0.80820082176E+02  0.10091098030E+03  0.10000000000E+01 0.  0.
    9000005    1    3    3    0    0  0.25660599540E+02 -0.54696196342E+02 -0.36943155263E+02  0.70823279957E+02  0.10000000000E+01 0.  0.
<mgrwt>
<rscale>  0 0.12499790E+03</rscale>
<asrwt>0</asrwt>
<pdfrwt beam="2">  1        4 0.22269038E-01 0.12499790E+03</pdfrwt>
<pdfrwt beam="1">  1       -4 0.41516172E-02 0.12499790E+03</pdfrwt>
<totfact> 0.95130853E+03</totfact>
</mgrwt>
</event>
<event>
 5    1  0.3225662E-002  0.1250041E+03  0.7818608E-02  0.1235063E+00
          4   -1    0    0  501    0  0.00000000000E+00  0.00000000000E+00  0.16414347648E+02  0.16463405137E+02  0.12700000000E+01 0.  1.
         -4   -1    0    0    0  501 -0.00000000000E+00 -0.00000000000E+00 -0.23758766237E+03  0.23759105667E+03  0.12700000000E+01 0.  1.
         25    2    1    2    0    0  0.00000000000E+00  0.00000000000E+00 -0.22117331472E+03  0.25405446181E+03  0.12500413761E+03 0.  0.
    9000005    1    3    3    0    0  0.31087313314E+02  0.30607302420E+02 -0.19644572252E+02  0.47855378271E+02  0.10000000000E+01 0.  0.
    9000005    1    3    3    0    0 -0.31087313314E+02 -0.30607302420E+02 -0.20152874247E+03  0.20619908354E+03  0.10000000000E+01 0.  0.
<mgrwt>
<rscale>  0 0.12500414E+03</rscale>
<asrwt>0</asrwt>
<pdfrwt beam="1">  1        4 0.25293192E-02 0.12500414E+03</pdfrwt>
<pdfrwt beam="2">  1       -4 0.36555980E-01 0.12500414E+03</pdfrwt>
<totfact> 0.81740210E+03</totfact>
</mgrwt>
</event>
<event>
 5    1  0.3225662E-002  0.1250016E+03  0.7818608E-02  0.1235067E+00
         -4   -1    0    0    0  501 -0.00000000000E+00  0.00000000000E+00  0.31313930497E+03  0.31314188034E+03  0.12700000000E+01 0. -1.
          4   -1    0    0  501    0  0.00000000000E+00 -0.00000000000E+00 -0.12439841335E+02  0.12504501287E+02  0.12700000000E+01 0. -1.
         25    2    1    2    0    0  0.00000000000E+00  0.00000000000E+00  0.30069946364E+03  0.32564638162E+03  0.12500159371E+03 0.  0.
    9000005    1    3    3    0    0  0.32463362290E+02 -0.40900255273E+02  0.23978790552E+03  0.24540973983E+03  0.10000000000E+01 0.  0.
    9000005    1    3    3    0    0 -0.32463362290E+02  0.40900255273E+02  0.60911558121E+02  0.80236641787E+02  0.10000000000E+01 0.  0.
<mgrwt>
<rscale>  0 0.12500159E+03</rscale>
<asrwt>0</asrwt>
<pdfrwt beam="2">  1        4 0.19189937E-02 0.12500159E+03</pdfrwt>
<pdfrwt beam="1">  1       -4 0.48180449E-01 0.12500159E+03</pdfrwt>
<totfact> 0.72486997E+03</totfact>
</mgrwt>
</event>
<event>
 5    1  0.3225662E-002  0.1249998E+03  0.7818608E-02  0.1235070E+00
         -4   -1    0    0    0  501 -0.00000000000E+00  0.00000000000E+00  0.12302879057E+02  0.12368255054E+02  0.12700000000E+01 0. -1.
          4   -1    0    0  501    0  0.00000000000E+00 -0.00000000000E+00 -0.31659813804E+03  0.31660068527E+03  0.12700000000E+01 0. -1.
         25    2    1    2    0    0  0.00000000000E+00  0.00000000000E+00 -0.30429525899E+03  0.32896894032E+03  0.12499983622E+03 0.  0.
    9000005    1    3    3    0    0 -0.15026964633E+02 -0.35985878661E+02 -0.28065831950E+03  0.28335646355E+03  0.10000000000E+01 0.  0.
    9000005    1    3    3    0    0  0.15026964633E+02  0.35985878661E+02 -0.23636939481E+02  0.45612476770E+02  0.10000000000E+01 0.  0.
<mgrwt>
<rscale>  0 0.12499984E+03</rscale>
<asrwt>0</asrwt>
<pdfrwt beam="2">  1        4 0.48712625E-01 0.12499984E+03</pdfrwt>
<pdfrwt beam="1">  1       -4 0.18979757E-02 0.12499984E+03</pdfrwt>
<totfact> 0.72102200E+03</totfact>
</mgrwt>
</event>
<event>
 5    1  0.3225662E-002  0.1249848E+03  0.7818608E-02  0.1235093E+00
          4   -1    0    0  501    0  0.00000000000E+00  0.00000000000E+00  0.74319369893E+02  0.74330220243E+02  0.12700000000E+01 0. -1.
         -4   -1    0    0    0  501 -0.00000000000E+00 -0.00000000000E+00 -0.52525193237E+02  0.52540544578E+02  0.12700000000E+01 0. -1.
         25    2    1    2    0    0  0.00000000000E+00  0.00000000000E+00  0.21794176656E+02  0.12687076482E+03  0.12498481840E+03 0.  0.
    9000005    1    3    3    0    0 -0.32629262661E+02 -0.44925178699E+02  0.39988933382E+02  0.68432852168E+02  0.10000000000E+01 0.  0.
    9000005    1    3    3    0    0  0.32629262661E+02  0.44925178699E+02 -0.18194756725E+02  0.58437912653E+02  0.10000000000E+01 0.  0.
<mgrwt>
<rscale>  0 0.12498482E+03</rscale>
<asrwt>0</asrwt>
<pdfrwt beam="1">  1        4 0.11435765E-01 0.12498482E+03</pdfrwt>
<pdfrwt beam="2">  1       -4 0.80828146E-02 0.12498482E+03</pdfrwt>
<totfact> 0.10415524E+04</totfact>
</mgrwt>
</event>
<event>
 5    1  0.3225662E-002  0.1250005E+03  0.7818608E-02  0.1235068E+00
          4   -1    0    0  501    0  0.00000000000E+00  0.00000000000E+00  0.81897650517E+02  0.81907496972E+02  0.12700000000E+01 0. -1.
         -4   -1    0    0    0  501 -0.00000000000E+00 -0.00000000000E+00 -0.47675954306E+02  0.47692866542E+02  0.12700000000E+01 0. -1.
         25    2    1    2    0    0  0.00000000000E+00  0.00000000000E+00  0.34221696211E+02  0.12960036351E+03  0.12500051892E+03 0.  0.
    9000005    1    3    3    0    0 -0.79465810016E+01 -0.61807743522E+02  0.12254785824E+02  0.63517911525E+02  0.10000000000E+01 0.  0.
    9000005    1    3    3    0    0  0.79465810016E+01  0.61807743522E+02  0.21966910387E+02  0.66082451989E+02  0.10000000000E+01 0.  0.
<mgrwt>
<rscale>  0 0.12500052E+03</rscale>
<asrwt>0</asrwt>
<pdfrwt beam="1">  1        4 0.12601697E-01 0.12500052E+03</pdfrwt>
<pdfrwt beam="2">  1       -4 0.73368206E-02 0.12500052E+03</pdfrwt>
<totfact> 0.10352943E+04</totfact>
</mgrwt>
</event>
<event>
 5    1  0.3225662E-002  0.1249791E+03  0.7818608E-02  0.1235102E+00
         -4   -1    0    0    0  501 -0.00000000000E+00  0.00000000000E+00  0.25797822206E+03  0.25798134808E+03  0.12700000000E+01 0. -1.
          4   -1    0    0  501    0  0.00000000000E+00 -0.00000000000E+00 -0.15106863802E+02  0.15160152833E+02  0.12700000000E+01 0. -1.
         25    2    1    2    0    0  0.00000000000E+00  0.00000000000E+00  0.24287135826E+03  0.27314150091E+03  0.12497912969E+03 0.  0.
    9000005    1    3    3    0    0 -0.24252841001E+02  0.53830425441E+02  0.76751447754E+02  0.96838524008E+02  0.10000000000E+01 0.  0.
    9000005    1    3    3    0    0  0.24252841001E+02 -0.53830425441E+02  0.16611991050E+03  0.17630297690E+03  0.10000000000E+01 0.  0.
<mgrwt>
<rscale>  0 0.12497913E+03</rscale>
<asrwt>0</asrwt>
<pdfrwt beam="2">  1        4 0.23284726E-02 0.12497913E+03</pdfrwt>
<pdfrwt beam="1">  1       -4 0.39693295E-01 0.12497913E+03</pdfrwt>
<totfact> 0.79133093E+03</totfact>
</mgrwt>
</event>
<event>
 5    1  0.3225662E-002  0.1249994E+03  0.7818608E-02  0.1235070E+00
         -4   -1    0    0    0  501 -0.00000000000E+00  0.00000000000E+00  0.27388687922E+02  0.27418116750E+02  0.12700000000E+01 0. -1.
          4   -1    0    0  501    0  0.00000000000E+00 -0.00000000000E+00 -0.14251245220E+03  0.14251811089E+03  0.12700000000E+01 0. -1.
         25    2    1    2    0    0  0.00000000000E+00  0.00000000000E+00 -0.11512376428E+03  0.16993622764E+03  0.12499936145E+03 0.  0.
    9000005    1    3    3    0    0  0.38631098370E+02 -0.67589251989E+01 -0.12370618874E+03  0.12977775605E+03  0.10000000000E+01 0.  0.
    9000005    1    3    3    0    0 -0.38631098370E+02  0.67589251989E+01  0.85824244658E+01  0.40158471595E+02  0.10000000000E+01 0.  0.
<mgrwt>
<rscale>  0 0.12499936E+03</rscale>
<asrwt>0</asrwt>
<pdfrwt beam="2">  1        4 0.21927691E-01 0.12499936E+03</pdfrwt>
<pdfrwt beam="1">  1       -4 0.42163434E-02 0.12499936E+03</pdfrwt>
<totfact> 0.95461892E+03</totfact>
</mgrwt>
</event>
<event>
 5    1  0.3225662E-002  0.1250062E+03  0.7818608E-02  0.1235060E+00
          4   -1    0    0  501    0  0.00000000000E+00  0.00000000000E+00  0.17040895103E+02  0.17088153964E+02  0.12700000000E+01 0.  1.
         -4   -1    0    0    0  501 -0.00000000000E+00 -0.00000000000E+00 -0.22888435083E+03  0.22888787420E+03  0.12700000000E+01 0.  1.
         25    2    1    2    0    0  0.00000000000E+00  0.00000000000E+00 -0.21184345573E+03  0.24597602816E+03  0.12500622663E+03 0.  0.
    9000005    1    3    3    0    0  0.35878157121E+01 -0.62270823490E+02 -0.11357085660E+03  0.12957572052E+03  0.10000000000E+01 0.  0.
    9000005    1    3    3    0    0 -0.35878157121E+01  0.62270823490E+02 -0.98272599127E+02  0.11640030764E+03  0.10000000000E+01 0.  0.
<mgrwt>
<rscale>  0 0.12500623E+03</rscale>
<asrwt>0</asrwt>
<pdfrwt beam="1">  1        4 0.26255827E-02 0.12500623E+03</pdfrwt>
<pdfrwt beam="2">  1       -4 0.35216881E-01 0.12500623E+03</pdfrwt>
<totfact> 0.82903815E+03</totfact>
</mgrwt>
</event>
<event>
 5    1  0.3225662E-002  0.1250043E+03  0.7818608E-02  0.1235062E+00
          4   -1    0    0  501    0  0.00000000000E+00  0.00000000000E+00  0.10142256094E+03  0.10143051202E+03  0.12700000000E+01 0.  1.
         -4   -1    0    0    0  501 -0.00000000000E+00 -0.00000000000E+00 -0.38497348492E+02  0.38518290991E+02  0.12700000000E+01 0.  1.
         25    2    1    2    0    0  0.00000000000E+00  0.00000000000E+00  0.62925212452E+02  0.13994880301E+03  0.12500434033E+03 0.  0.
    9000005    1    3    3    0    0 -0.38147693364E+02 -0.38824342542E+02 -0.29159252290E+01  0.54516774508E+02  0.10000000000E+01 0.  0.
    9000005    1    3    3    0    0  0.38147693364E+02  0.38824342542E+02  0.65841137681E+02  0.85432028501E+02  0.10000000000E+01 0.  0.
<mgrwt>
<rscale>  0 0.12500434E+03</rscale>
<asrwt>0</asrwt>
<pdfrwt beam="1">  1        4 0.15605693E-01 0.12500434E+03</pdfrwt>
<pdfrwt beam="2">  1       -4 0.59248917E-02 0.12500434E+03</pdfrwt>
<totfact> 0.10133656E+04</totfact>
</mgrwt>
</event>
<event>
 5    1  0.3225662E-002  0.1249966E+03  0.7818608E-02  0.1235075E+00
          4   -1    0    0  501    0  0.00000000000E+00  0.00000000000E+00  0.17550446124E+03  0.17550905622E+03  0.12700000000E+01 0.  1.
         -4   -1    0    0    0  501 -0.00000000000E+00 -0.00000000000E+00 -0.22233062850E+02  0.22269305865E+02  0.12700000000E+01 0.  1.
         25    2    1    2    0    0  0.00000000000E+00  0.00000000000E+00  0.15327139839E+03  0.19777836209E+03  0.12499663573E+03 0.  0.
    9000005    1    3    3    0    0 -0.10020396971E+02 -0.60473217329E+02  0.95860199600E+02  0.11378750475E+03  0.10000000000E+01 0.  0.
    9000005    1    3    3    0    0  0.10020396971E+02  0.60473217329E+02  0.57411198790E+02  0.83990857336E+02  0.10000000000E+01 0.  0.
<mgrwt>
<rscale>  0 0.12499664E+03</rscale>
<asrwt>0</asrwt>
<pdfrwt beam="1">  1        4 0.27003827E-01 0.12499664E+03</pdfrwt>
<pdfrwt beam="2">  1       -4 0.34236127E-02 0.12499664E+03</pdfrwt>
<totfact> 0.90518058E+03</totfact>
</mgrwt>
</event>
<event>
 5    1  0.3225662E-002  0.1250006E+03  0.7818608E-02  0.1235068E+00
         -4   -1    0    0    0  501 -0.00000000000E+00  0.00000000000E+00  0.18346997990E+03  0.18347437539E+03  0.12700000000E+01 0. -1.
          4   -1    0    0  501    0  0.00000000000E+00 -0.00000000000E+00 -0.21267576956E+02  0.21305462435E+02  0.12700000000E+01 0. -1.
         25    2    1    2    0    0  0.00000000000E+00  0.00000000000E+00  0.16220240295E+03  0.20477983783E+03  0.12500064983E+03 0.  0.
    9000005    1    3    3    0    0  0.10837272353E+01 -0.41304829157E+02  0.42958538801E+01  0.41553793292E+02  0.10000000000E+01 0.  0.
    9000005    1    3    3    0    0 -0.10837272353E+01  0.41304829157E+02  0.15790654907E+03  0.16322604454E+03  0.10000000000E+01 0.  0.
<mgrwt>
<rscale>  0 0.12500065E+03</rscale>
<asrwt>0</asrwt>
<pdfrwt beam="2">  1        4 0.32751874E-02 0.12500065E+03</pdfrwt>
<pdfrwt beam="1">  1       -4 0.28229402E-01 0.12500065E+03</pdfrwt>
<totfact> 0.89334264E+03</totfact>
</mgrwt>
</event>
<event>
 5    1  0.3225662E-002  0.1249988E+03  0.7818608E-02  0.1235071E+00
         -4   -1    0    0    0  501 -0.00000000000E+00  0.00000000000E+00  0.22740152267E+03  0.22740506902E+03  0.12700000000E+01 0. -1.
          4   -1    0    0  501    0  0.00000000000E+00 -0.00000000000E+00 -0.17150286366E+02  0.17197244618E+02  0.12700000000E+01 0. -1.
         25    2    1    2    0    0  0.00000000000E+00  0.00000000000E+00  0.21025123631E+03  0.24460231363E+03  0.12499883786E+03 0.  0.
    9000005    1    3    3    0    0  0.78287488818E+01  0.53528134234E+02  0.43909870146E+02  0.69682330327E+02  0.10000000000E+01 0.  0.
    9000005    1    3    3    0    0 -0.78287488818E+01 -0.53528134234E+02  0.16634136616E+03  0.17491998331E+03  0.10000000000E+01 0.  0.
<mgrwt>
<rscale>  0 0.12499884E+03</rscale>
<asrwt>0</asrwt>
<pdfrwt beam="2">  1        4 0.26423904E-02 0.12499884E+03</pdfrwt>
<pdfrwt beam="1">  1       -4 0.34988737E-01 0.12499884E+03</pdfrwt>
<totfact> 0.83118824E+03</totfact>
</mgrwt>
</event>
<event>
 5    1  0.3225662E-002  0.1249735E+03  0.7818608E-02  0.1235111E+00
         -4   -1    0    0    0  501 -0.00000000000E+00  0.00000000000E+00  0.43169450644E+03  0.43169637454E+03  0.12700000000E+01 0. -1.
          4   -1    0    0  501    0  0.00000000000E+00 -0.00000000000E+00 -0.89983239316E+01  0.90875042547E+01  0.12700000000E+01 0. -1.
         25    2    1    2    0    0  0.00000000000E+00  0.00000000000E+00  0.42269618251E+03  0.44078387880E+03  0.12497345757E+03 0.  0.
    9000005    1    3    3    0    0  0.55076837811E+01  0.53943444500E+02  0.32081996649E+03  0.32537160399E+03  0.10000000000E+01 0.  0.
    9000005    1    3    3    0    0 -0.55076837811E+01 -0.53943444500E+02  0.10187621602E+03  0.11541227481E+03  0.10000000000E+01 0.  0.
<mgrwt>
<rscale>  0 0.12497346E+03</rscale>
<asrwt>0</asrwt>
<pdfrwt beam="2">  1        4 0.13913611E-02 0.12497346E+03</pdfrwt>
<pdfrwt beam="1">  1       -4 0.66421552E-01 0.12497346E+03</pdfrwt>
<totfact> 0.60806071E+03</totfact>
</mgrwt>
</event>
<event>
 5    1  0.3225662E-002  0.1250212E+03  0.7818608E-02  0.1235036E+00
          4   -1    0    0  501    0  0.00000000000E+00  0.00000000000E+00  0.45212827264E+03  0.45213005631E+03  0.12700000000E+01 0.  1.
         -4   -1    0    0    0  501 -0.00000000000E+00 -0.00000000000E+00 -0.85941595097E+01  0.86874897225E+01  0.12700000000E+01 0.  1.
         25    2    1    2    0    0  0.00000000000E+00  0.00000000000E+00  0.44353411313E+03  0.46081754603E+03  0.12502120309E+03 0.  0.
    9000005    1    3    3    0    0 -0.17535643916E+02 -0.85286643335E+01  0.28864290305E+01  0.19737487059E+02  0.10000000000E+01 0.  0.
    9000005    1    3    3    0    0  0.17535643916E+02  0.85286643335E+01  0.44064768410E+03  0.44108005897E+03  0.10000000000E+01 0.  0.
<mgrwt>
<rscale>  0 0.12502120E+03</rscale>
<asrwt>0</asrwt>
<pdfrwt beam="1">  1        4 0.69565515E-01 0.12502120E+03</pdfrwt>
<pdfrwt beam="2">  1       -4 0.13294948E-02 0.12502120E+03</pdfrwt>
<totfact> 0.59010438E+03</totfact>
</mgrwt>
</event>
<event>
 5    1  0.3225662E-002  0.1249981E+03  0.7818608E-02  0.1235072E+00
         -4   -1    0    0    0  501 -0.00000000000E+00  0.00000000000E+00  0.26588961831E+02  0.26619274807E+02  0.12700000000E+01 0. -1.
          4   -1    0    0  501    0  0.00000000000E+00 -0.00000000000E+00 -0.14679125374E+03  0.14679674749E+03  0.12700000000E+01 0. -1.
         25    2    1    2    0    0  0.00000000000E+00  0.00000000000E+00 -0.12020229191E+03  0.17341602230E+03  0.12499810323E+03 0.  0.
    9000005    1    3    3    0    0  0.69090806969E+00 -0.96772319641E+01 -0.14574684783E+03  0.14607282370E+03  0.10000000000E+01 0.  0.
    9000005    1    3    3    0    0 -0.69090806969E+00  0.96772319641E+01  0.25544555919E+02  0.27343198598E+02  0.10000000000E+01 0.  0.
<mgrwt>
<rscale>  0 0.12499810E+03</rscale>
<asrwt>0</asrwt>
<pdfrwt beam="2">  1        4 0.22586024E-01 0.12499810E+03</pdfrwt>
<pdfrwt beam="1">  1       -4 0.40933640E-02 0.12499810E+03</pdfrwt>
<totfact> 0.94819781E+03</totfact>
</mgrwt>
</event>
<event>
 5    1  0.3225662E-002  0.1249994E+03  0.7818608E-02  0.1235070E+00
          4   -1    0    0  501    0  0.00000000000E+00  0.00000000000E+00  0.20210049309E+04  0.20210053299E+04  0.12700000000E+01 0. -1.
         -4   -1    0    0    0  501 -0.00000000000E+00 -0.00000000000E+00 -0.17237417190E+01  0.21410711137E+01  0.12700000000E+01 0. -1.
         25    2    1    2    0    0  0.00000000000E+00  0.00000000000E+00  0.20192811891E+04  0.20231464010E+04  0.12499935637E+03 0.  0.
    9000005    1    3    3    0    0 -0.44062647624E+02 -0.18276330381E+02  0.16630256300E+04  0.16637099469E+04  0.10000000000E+01 0.  0.
    9000005    1    3    3    0    0  0.44062647624E+02  0.18276330381E+02  0.35625555912E+03  0.35943645415E+03  0.10000000000E+01 0.  0.
<mgrwt>
<rscale>  0 0.12499936E+03</rscale>
<asrwt>0</asrwt>
<pdfrwt beam="1">  1        4 0.31095612E+00 0.12499936E+03</pdfrwt>
<pdfrwt beam="2">  1       -4 0.29732385E-03 0.12499936E+03</pdfrwt>
<totfact> 0.95622124E+02</totfact>
</mgrwt>
</event>
<event>
 5    1  0.3225662E-002  0.1250003E+03  0.7818608E-02  0.1235069E+00
          4   -1    0    0  501    0  0.00000000000E+00  0.00000000000E+00  0.24838302108E+02  0.24870748915E+02  0.12700000000E+01 0.  1.
         -4   -1    0    0    0  501 -0.00000000000E+00 -0.00000000000E+00 -0.15713030256E+03  0.15713543484E+03  0.12700000000E+01 0.  1.
         25    2    1    2    0    0  0.00000000000E+00  0.00000000000E+00 -0.13229200045E+03  0.18200618375E+03  0.12500031017E+03 0.  0.
    9000005    1    3    3    0    0 -0.59510666125E+02 -0.72124797346E+01 -0.40438227638E+02  0.72317283557E+02  0.10000000000E+01 0.  0.
    9000005    1    3    3    0    0  0.59510666125E+02  0.72124797346E+01 -0.91853772810E+02  0.10968890019E+03  0.10000000000E+01 0.  0.
<mgrwt>
<rscale>  0 0.12500031E+03</rscale>
<asrwt>0</asrwt>
<pdfrwt beam="1">  1        4 0.38241680E-02 0.12500031E+03</pdfrwt>
<pdfrwt beam="2">  1       -4 0.24176783E-01 0.12500031E+03</pdfrwt>
<totfact> 0.93256477E+03</totfact>
</mgrwt>
</event>
<event>
 5    1  0.3225662E-002  0.1250004E+03  0.7818608E-02  0.1235069E+00
          4   -1    0    0  501    0  0.00000000000E+00  0.00000000000E+00  0.38626709369E+03  0.38626918149E+03  0.12700000000E+01 0. -1.
         -4   -1    0    0    0  501 -0.00000000000E+00 -0.00000000000E+00 -0.10070883684E+02  0.10150645210E+02  0.12700000000E+01 0. -1.
         25    2    1    2    0    0  0.00000000000E+00  0.00000000000E+00  0.37619621000E+03  0.39641982670E+03  0.12500036231E+03 0.  0.
    9000005    1    3    3    0    0 -0.59612290518E+02 -0.17909820705E+02  0.17047333649E+03  0.18148428393E+03  0.10000000000E+01 0.  0.
    9000005    1    3    3    0    0  0.59612290518E+02  0.17909820705E+02  0.20572287351E+03  0.21493554277E+03  0.10000000000E+01 0.  0.
<mgrwt>
<rscale>  0 0.12500036E+03</rscale>
<asrwt>0</asrwt>
<pdfrwt beam="1">  1        4 0.59431993E-01 0.12500036E+03</pdfrwt>
<pdfrwt beam="2">  1       -4 0.15556631E-02 0.12500036E+03</pdfrwt>
<totfact> 0.64901973E+03</totfact>
</mgrwt>
</event>
<event>
 5    1  0.3225662E-002  0.1250207E+03  0.7818608E-02  0.1235037E+00
         -4   -1    0    0    0  501 -0.00000000000E+00  0.00000000000E+00  0.35249290023E+02  0.35272161078E+02  0.12700000000E+01 0. -1.
          4   -1    0    0  501    0  0.00000000000E+00 -0.00000000000E+00 -0.11079215293E+03  0.11079943164E+03  0.12700000000E+01 0. -1.
         25    2    1    2    0    0  0.00000000000E+00  0.00000000000E+00 -0.75542862908E+02  0.14607159272E+03  0.12502074253E+03 0.  0.
    9000005    1    3    3    0    0  0.34591511846E+02  0.29217619365E+02 -0.88110862702E+02  0.99069501358E+02  0.10000000000E+01 0.  0.
    9000005    1    3    3    0    0 -0.34591511846E+02 -0.29217619365E+02  0.12567999794E+02  0.47002091358E+02  0.10000000000E+01 0.  0.
<mgrwt>
<rscale>  0 0.12502074E+03</rscale>
<asrwt>0</asrwt>
<pdfrwt beam="2">  1        4 0.17047266E-01 0.12502074E+03</pdfrwt>
<pdfrwt beam="1">  1       -4 0.54252870E-02 0.12502074E+03</pdfrwt>
<totfact> 0.10004588E+04</totfact>
</mgrwt>
</event>
<event>
 5    1  0.3225662E-002  0.1249904E+03  0.7818608E-02  0.1235084E+00
         -4   -1    0    0    0  501 -0.00000000000E+00  0.00000000000E+00  0.16317238911E+03  0.16317733135E+03  0.12700000000E+01 0.  1.
          4   -1    0    0  501    0  0.00000000000E+00 -0.00000000000E+00 -0.23913592754E+02  0.23947292506E+02  0.12700000000E+01 0.  1.
         25    2    1    2    0    0  0.00000000000E+00  0.00000000000E+00  0.13925879636E+03  0.18712462386E+03  0.12499044960E+03 0.  0.
    9000005    1    3    3    0    0  0.50317034773E+02  0.26601884435E+02  0.31017015645E+02  0.64826842460E+02  0.10000000000E+01 0.  0.
    9000005    1    3    3    0    0 -0.50317034773E+02 -0.26601884435E+02  0.10824178071E+03  0.12229778140E+03  0.10000000000E+01 0.  0.
<mgrwt>
<rscale>  0 0.12499045E+03</rscale>
<asrwt>0</asrwt>
<pdfrwt beam="2">  1        4 0.36819866E-02 0.12499045E+03</pdfrwt>
<pdfrwt beam="1">  1       -4 0.25106418E-01 0.12499045E+03</pdfrwt>
<totfact> 0.92369804E+03</totfact>
</mgrwt>
</event>
<event>
 5    1  0.3225662E-002  0.1250002E+03  0.7818608E-02  0.1235069E+00
         -4   -1    0    0    0  501 -0.00000000000E+00  0.00000000000E+00  0.14343130857E+03  0.14343693101E+03  0.12700000000E+01 0.  1.
          4   -1    0    0  501    0  0.00000000000E+00 -0.00000000000E+00 -0.27213419357E+02  0.27243037516E+02  0.12700000000E+01 0.  1.
         25    2    1    2    0    0  0.00000000000E+00  0.00000000000E+00  0.11621788921E+03  0.17067996853E+03  0.12500021553E+03 0.  0.
    9000005    1    3    3    0    0  0.44904703380E+02 -0.31761877554E+02  0.17603198418E+02  0.57759171098E+02  0.10000000000E+01 0.  0.
    9000005    1    3    3    0    0 -0.44904703380E+02  0.31761877554E+02  0.98614690796E+02  0.11292079743E+03  0.10000000000E+01 0.  0.
<mgrwt>
<rscale>  0 0.12500022E+03</rscale>
<asrwt>0</asrwt>
<pdfrwt beam="2">  1        4 0.41893907E-02 0.12500022E+03</pdfrwt>
<pdfrwt beam="1">  1       -4 0.22069066E-01 0.12500022E+03</pdfrwt>
<totfact> 0.95321590E+03</totfact>
</mgrwt>
</event>
<event>
 5    1  0.3225662E-002  0.1250012E+03  0.7818608E-02  0.1235067E+00
          4   -1    0    0  501    0  0.00000000000E+00  0.00000000000E+00  0.64896550467E+02  0.64908975978E+02  0.12700000000E+01 0. -1.
         -4   -1    0    0    0  501 -0.00000000000E+00 -0.00000000000E+00 -0.60168216429E+02  0.60181618192E+02  0.12700000000E+01 0. -1.
         25    2    1    2    0    0  0.00000000000E+00  0.00000000000E+00  0.47283340382E+01  0.12509059417E+03  0.12500119842E+03 0.  0.
    9000005    1    3    3    0    0 -0.26977614177E+02  0.29332444191E+02 -0.45806948672E+02  0.60724463732E+02  0.10000000000E+01 0.  0.
    9000005    1    3    3    0    0  0.26977614177E+02 -0.29332444191E+02  0.50535282711E+02  0.64366130438E+02  0.10000000000E+01 0.  0.
<mgrwt>
<rscale>  0 0.12500120E+03</rscale>
<asrwt>0</asrwt>
<pdfrwt beam="1">  1        4 0.99860714E-02 0.12500120E+03</pdfrwt>
<pdfrwt beam="2">  1       -4 0.92586354E-02 0.12500120E+03</pdfrwt>
<totfact> 0.10450612E+04</totfact>
</mgrwt>
</event>
<event>
 5    1  0.3225662E-002  0.1249986E+03  0.7818608E-02  0.1235072E+00
         -4   -1    0    0    0  501 -0.00000000000E+00  0.00000000000E+00  0.19955481204E+02  0.19995852822E+02  0.12700000000E+01 0. -1.
          4   -1    0    0  501    0  0.00000000000E+00 -0.00000000000E+00 -0.19550353326E+03  0.19550765820E+03  0.12700000000E+01 0. -1.
         25    2    1    2    0    0  0.00000000000E+00  0.00000000000E+00 -0.17554805205E+03  0.21550351102E+03  0.12499857873E+03 0.  0.
    9000005    1    3    3    0    0 -0.90257462187E+01  0.60883175010E+02 -0.69130693965E+02  0.92564993071E+02  0.10000000000E+01 0.  0.
    9000005    1    3    3    0    0  0.90257462187E+01 -0.60883175010E+02 -0.10641735809E+03  0.12293851795E+03  0.10000000000E+01 0.  0.
<mgrwt>
<rscale>  0 0.12499858E+03</rscale>
<asrwt>0</asrwt>
<pdfrwt beam="2">  1        4 0.30080888E-01 0.12499858E+03</pdfrwt>
<pdfrwt beam="1">  1       -4 0.30734970E-02 0.12499858E+03</pdfrwt>
<totfact> 0.87587681E+03</totfact>
</mgrwt>
</event>
<event>
 5    1  0.3225662E-002  0.1250025E+03  0.7818608E-02  0.1235065E+00
          4   -1    0    0  501    0  0.00000000000E+00  0.00000000000E+00  0.23022815022E+03  0.23023165302E+03  0.12700000000E+01 0. -1.
         -4   -1    0    0    0  501 -0.00000000000E+00 -0.00000000000E+00 -0.16940136712E+02  0.16987675880E+02  0.12700000000E+01 0. -1.
         25    2    1    2    0    0  0.00000000000E+00  0.00000000000E+00  0.21328801351E+03  0.24721932890E+03  0.12500247948E+03 0.  0.
    9000005    1    3    3    0    0 -0.17395510003E+02  0.18980332148E+02 -0.59737870997E+01  0.26448873492E+02  0.10000000000E+01 0.  0.
    9000005    1    3    3    0    0  0.17395510003E+02 -0.18980332148E+02  0.21926180061E+03  0.22077045541E+03  0.10000000000E+01 0.  0.
<mgrwt>
<rscale>  0 0.12500248E+03</rscale>
<asrwt>0</asrwt>
<pdfrwt beam="1">  1        4 0.35423642E-01 0.12500248E+03</pdfrwt>
<pdfrwt beam="2">  1       -4 0.26101012E-02 0.12500248E+03</pdfrwt>
<totfact> 0.82729218E+03</totfact>
</mgrwt>
</event>
<event>
 5    1  0.3225662E-002  0.1250062E+03  0.7818608E-02  0.1235060E+00
         -4   -1    0    0    0  501 -0.00000000000E+00  0.00000000000E+00  0.18486591964E+02  0.18530164123E+02  0.12700000000E+01 0. -1.
          4   -1    0    0  501    0  0.00000000000E+00 -0.00000000000E+00 -0.21102846811E+03  0.21103228960E+03  0.12700000000E+01 0. -1.
         25    2    1    2    0    0  0.00000000000E+00  0.00000000000E+00 -0.19254187615E+03  0.22956245372E+03  0.12500618420E+03 0.  0.
    9000005    1    3    3    0    0  0.42633922422E+02  0.10633509440E+02 -0.14660930870E+02  0.46332124472E+02  0.10000000000E+01 0.  0.
    9000005    1    3    3    0    0 -0.42633922422E+02 -0.10633509440E+02 -0.17788094528E+03  0.18323032925E+03  0.10000000000E+01 0.  0.
<mgrwt>
<rscale>  0 0.12500618E+03</rscale>
<asrwt>0</asrwt>
<pdfrwt beam="2">  1        4 0.32469562E-01 0.12500618E+03</pdfrwt>
<pdfrwt beam="1">  1       -4 0.28477369E-02 0.12500618E+03</pdfrwt>
<totfact> 0.85365049E+03</totfact>
</mgrwt>
</event>
<event>
 5    1  0.3225662E-002  0.1250200E+03  0.7818608E-02  0.1235038E+00
         -4   -1    0    0    0  501 -0.00000000000E+00  0.00000000000E+00  0.10989433958E+04  0.10989441296E+04  0.12700000000E+01 0.  1.
          4   -1    0    0  501    0  0.00000000000E+00 -0.00000000000E+00 -0.34415291424E+01  0.36683815012E+01  0.12700000000E+01 0.  1.
         25    2    1    2    0    0  0.00000000000E+00  0.00000000000E+00  0.10955018667E+04  0.11026125112E+04  0.12502003790E+03 0.  0.
    9000005    1    3    3    0    0 -0.21000955034E+02  0.41163655214E+01  0.10656671762E+04  0.10658825053E+04  0.10000000000E+01 0.  0.
    9000005    1    3    3    0    0  0.21000955034E+02 -0.41163655214E+01  0.29834690430E+02  0.36730005861E+02  0.10000000000E+01 0.  0.
<mgrwt>
<rscale>  0 0.12502004E+03</rscale>
<asrwt>0</asrwt>
<pdfrwt beam="2">  1        4 0.54697144E-03 0.12502004E+03</pdfrwt>
<pdfrwt beam="1">  1       -4 0.16908610E+00 0.12502004E+03</pdfrwt>
<totfact> 0.27395009E+03</totfact>
</mgrwt>
</event>
<event>
 4    1  0.3225662E-002  0.1248810E+03  0.7818608E-02  0.1235255E+00
         -4   -1    0    0    0  501 -0.00000000000E+00  0.00000000000E+00  0.19505573083E+02  0.19546873952E+02  0.12700000000E+01 0. -1.
          4   -1    0    0  501    0  0.00000000000E+00 -0.00000000000E+00 -0.19962752583E+03  0.19963156556E+03  0.12700000000E+01 0. -1.
    9000005    1    1    2    0    0 -0.17822062735E+02 -0.32062797478E+02 -0.13951909587E+01  0.36723227801E+02  0.10000000000E+01 0.  0.
    9000005    1    1    2    0    0  0.17822062735E+02  0.32062797478E+02 -0.17872676179E+03  0.18245521171E+03  0.10000000000E+01 0.  0.
<mgrwt>
<rscale>  0 0.12488103E+03</rscale>
<asrwt>0</asrwt>
<pdfrwt beam="2">  1        4 0.30715413E-01 0.12488103E+03</pdfrwt>
<pdfrwt beam="1">  1       -4 0.30043453E-02 0.12488103E+03</pdfrwt>
<totfact> 0.87230138E+03</totfact>
</mgrwt>
</event>
<event>
 5    1  0.3225662E-002  0.1249950E+03  0.7818608E-02  0.1235077E+00
          4   -1    0    0  501    0  0.00000000000E+00  0.00000000000E+00  0.12792229653E+03  0.12792860059E+03  0.12700000000E+01 0. -1.
         -4   -1    0    0    0  501 -0.00000000000E+00 -0.00000000000E+00 -0.30513400445E+02  0.30539818381E+02  0.12700000000E+01 0. -1.
         25    2    1    2    0    0  0.00000000000E+00  0.00000000000E+00  0.97408896085E+02  0.15846841897E+03  0.12499498700E+03 0.  0.
    9000005    1    3    3    0    0  0.47053740711E+02 -0.78279656934E+01  0.99883392104E+02  0.11069337641E+03  0.10000000000E+01 0.  0.
    9000005    1    3    3    0    0 -0.47053740711E+02  0.78279656934E+01 -0.24744960193E+01  0.47775042568E+02  0.10000000000E+01 0.  0.
<mgrwt>
<rscale>  0 0.12499499E+03</rscale>
<asrwt>0</asrwt>
<pdfrwt beam="1">  1        4 0.19682870E-01 0.12499499E+03</pdfrwt>
<pdfrwt beam="2">  1       -4 0.46968864E-02 0.12499499E+03</pdfrwt>
<totfact> 0.97649881E+03</totfact>
</mgrwt>
</event>
<event>
 5    1  0.3225662E-002  0.1249944E+03  0.7818608E-02  0.1235078E+00
          4   -1    0    0  501    0  0.00000000000E+00  0.00000000000E+00  0.21629958334E+03  0.21630331170E+03  0.12700000000E+01 0.  1.
         -4   -1    0    0    0  501 -0.00000000000E+00 -0.00000000000E+00 -0.18031598729E+02  0.18076267666E+02  0.12700000000E+01 0.  1.
         25    2    1    2    0    0  0.00000000000E+00  0.00000000000E+00  0.19826798461E+03  0.23437957937E+03  0.12499437389E+03 0.  0.
    9000005    1    3    3    0    0  0.35245144966E+02 -0.43992008509E+02  0.48561963489E+02  0.74409551499E+02  0.10000000000E+01 0.  0.
    9000005    1    3    3    0    0 -0.35245144966E+02  0.43992008509E+02  0.14970602112E+03  0.15997002787E+03  0.10000000000E+01 0.  0.
<mgrwt>
<rscale>  0 0.12499437E+03</rscale>
<asrwt>0</asrwt>
<pdfrwt beam="1">  1        4 0.33280581E-01 0.12499437E+03</pdfrwt>
<pdfrwt beam="2">  1       -4 0.27778151E-02 0.12499437E+03</pdfrwt>
<totfact> 0.84652236E+03</totfact>
</mgrwt>
</event>
<event>
 5    1  0.3225662E-002  0.1249889E+03  0.7818608E-02  0.1235087E+00
         -4   -1    0    0    0  501 -0.00000000000E+00  0.00000000000E+00  0.49555687420E+02  0.49571958360E+02  0.12700000000E+01 0.  1.
          4   -1    0    0  501    0  0.00000000000E+00 -0.00000000000E+00 -0.78777092072E+02  0.78787328520E+02  0.12700000000E+01 0.  1.
         25    2    1    2    0    0  0.00000000000E+00  0.00000000000E+00 -0.29221404652E+02  0.12835928688E+03  0.12498886366E+03 0.  0.
    9000005    1    3    3    0    0  0.27344574088E+02  0.29073825648E+02 -0.63985663917E+02  0.75420012310E+02  0.10000000000E+01 0.  0.
    9000005    1    3    3    0    0 -0.27344574088E+02 -0.29073825648E+02  0.34764259264E+02  0.52939274571E+02  0.10000000000E+01 0.  0.
<mgrwt>
<rscale>  0 0.12498886E+03</rscale>
<asrwt>0</asrwt>
<pdfrwt beam="2">  1        4 0.12121592E-01 0.12498886E+03</pdfrwt>
<pdfrwt beam="1">  1       -4 0.76259909E-02 0.12498886E+03</pdfrwt>
<totfact> 0.10382346E+04</totfact>
</mgrwt>
</event>
<event>
 5    1  0.3225662E-002  0.1250131E+03  0.7818608E-02  0.1235049E+00
         -4   -1    0    0    0  501 -0.00000000000E+00  0.00000000000E+00  0.91684918779E+01  0.92560328065E+01  0.12700000000E+01 0. -1.
          4   -1    0    0  501    0  0.00000000000E+00 -0.00000000000E+00 -0.42402783280E+03  0.42402973467E+03  0.12700000000E+01 0. -1.
         25    2    1    2    0    0  0.00000000000E+00  0.00000000000E+00 -0.41485934092E+03  0.43328576748E+03  0.12501313352E+03 0.  0.
    9000005    1    3    3    0    0  0.59361419170E+02  0.15828573655E+02 -0.24721221358E+03  0.25473358705E+03  0.10000000000E+01 0.  0.
    9000005    1    3    3    0    0 -0.59361419170E+02 -0.15828573655E+02 -0.16764712734E+03  0.17855218043E+03  0.10000000000E+01 0.  0.
<mgrwt>
<rscale>  0 0.12501313E+03</rscale>
<asrwt>0</asrwt>
<pdfrwt beam="2">  1        4 0.65241916E-01 0.12501313E+03</pdfrwt>
<pdfrwt beam="1">  1       -4 0.14174178E-02 0.12501313E+03</pdfrwt>
<totfact> 0.61421503E+03</totfact>
</mgrwt>
</event>
<event>
 5    1  0.3225662E-002  0.1249976E+03  0.7818608E-02  0.1235073E+00
         -4   -1    0    0    0  501 -0.00000000000E+00  0.00000000000E+00  0.16335472683E+02  0.16384766333E+02  0.12700000000E+01 0.  1.
          4   -1    0    0  501    0  0.00000000000E+00 -0.00000000000E+00 -0.23870634844E+03  0.23870972684E+03  0.12700000000E+01 0.  1.
         25    2    1    2    0    0  0.00000000000E+00  0.00000000000E+00 -0.22237087576E+03  0.25509449317E+03  0.12499757621E+03 0.  0.
    9000005    1    3    3    0    0 -0.58179168823E+02  0.21334178029E+02 -0.94714855334E+02  0.11318951655E+03  0.10000000000E+01 0.  0.
    9000005    1    3    3    0    0  0.58179168823E+02 -0.21334178029E+02 -0.12765602043E+03  0.14190497661E+03  0.10000000000E+01 0.  0.
<mgrwt>
<rscale>  0 0.12499758E+03</rscale>
<asrwt>0</asrwt>
<pdfrwt beam="2">  1        4 0.36728103E-01 0.12499758E+03</pdfrwt>
<pdfrwt beam="1">  1       -4 0.25172015E-02 0.12499758E+03</pdfrwt>
<totfact> 0.81603851E+03</totfact>
</mgrwt>
</event>
<event>
 5    1  0.3225662E-002  0.1249995E+03  0.7818608E-02  0.1235070E+00
         -4   -1    0    0    0  501 -0.00000000000E+00  0.00000000000E+00  0.20754980252E+02  0.20793799683E+02  0.12700000000E+01 0.  1.
          4   -1    0    0  501    0  0.00000000000E+00 -0.00000000000E+00 -0.18798959779E+03  0.18799388760E+03  0.12700000000E+01 0.  1.
         25    2    1    2    0    0  0.00000000000E+00  0.00000000000E+00 -0.16723461754E+03  0.20878768729E+03  0.12499952424E+03 0.  0.
    9000005    1    3    3    0    0  0.44089192410E+01  0.29712187088E+01  0.20384722793E+02  0.21090368248E+02  0.10000000000E+01 0.  0.
    9000005    1    3    3    0    0 -0.44089192410E+01 -0.29712187088E+01 -0.18761934033E+03  0.18769731904E+03  0.10000000000E+01 0.  0.
<mgrwt>
<rscale>  0 0.12499952E+03</rscale>
<asrwt>0</asrwt>
<pdfrwt beam="2">  1        4 0.28924792E-01 0.12499952E+03</pdfrwt>
<pdfrwt beam="1">  1       -4 0.31963901E-02 0.12499952E+03</pdfrwt>
<totfact> 0.88675195E+03</totfact>
</mgrwt>
</event>
<event>
 5    1  0.3225662E-002  0.1250004E+03  0.7818608E-02  0.1235069E+00
         -4   -1    0    0    0  501 -0.00000000000E+00  0.00000000000E+00  0.60743124122E+02  0.60756399071E+02  0.12700000000E+01 0. -1.
          4   -1    0    0  501    0  0.00000000000E+00 -0.00000000000E+00 -0.64281492090E+02  0.64294036468E+02  0.12700000000E+01 0. -1.
         25    2    1    2    0    0  0.00000000000E+00  0.00000000000E+00 -0.35383679681E+01  0.12505043554E+03  0.12500036552E+03 0.  0.
    9000005    1    3    3    0    0  0.45689621880E+02  0.25655006160E+02 -0.35835018488E+02  0.63489128508E+02  0.10000000000E+01 0.  0.
    9000005    1    3    3    0    0 -0.45689621880E+02 -0.25655006160E+02  0.32296650520E+02  0.61561307032E+02  0.10000000000E+01 0.  0.
<mgrwt>
<rscale>  0 0.12500037E+03</rscale>
<asrwt>0</asrwt>
<pdfrwt beam="2">  1        4 0.98914464E-02 0.12500037E+03</pdfrwt>
<pdfrwt beam="1">  1       -4 0.93470821E-02 0.12500037E+03</pdfrwt>
<totfact> 0.10451681E+04</totfact>
</mgrwt>
</event>
<event>
 5    1  0.3225662E-002  0.1250018E+03  0.7818608E-02  0.1235066E+00
          4   -1    0    0  501    0  0.00000000000E+00  0.00000000000E+00  0.20014052798E+02  0.20054306505E+02  0.12700000000E+01 0. -1.
         -4   -1    0    0    0  501 -0.00000000000E+00 -0.00000000000E+00 -0.19494271538E+03  0.19494685220E+03  0.12700000000E+01 0. -1.
         25    2    1    2    0    0  0.00000000000E+00  0.00000000000E+00 -0.17492866259E+03  0.21500115870E+03  0.12500184498E+03 0.  0.
    9000005    1    3    3    0    0 -0.93758907820E+01  0.17630879842E+01  0.18762596076E+02  0.21072513346E+02  0.10000000000E+01 0.  0.
    9000005    1    3    3    0    0  0.93758907820E+01 -0.17630879842E+01 -0.19369125866E+03  0.19392864536E+03  0.10000000000E+01 0.  0.
<mgrwt>
<rscale>  0 0.12500184E+03</rscale>
<asrwt>0</asrwt>
<pdfrwt beam="1">  1        4 0.30824998E-02 0.12500184E+03</pdfrwt>
<pdfrwt beam="2">  1       -4 0.29994600E-01 0.12500184E+03</pdfrwt>
<totfact> 0.87661970E+03</totfact>
</mgrwt>
</event>
<event>
 5    1  0.3225662E-002  0.1250017E+03  0.7818608E-02  0.1235067E+00
          4   -1    0    0  501    0  0.00000000000E+00  0.00000000000E+00  0.68085831969E+03  0.68085950415E+03  0.12700000000E+01 0.  1.
         -4   -1    0    0    0  501 -0.00000000000E+00 -0.00000000000E+00 -0.56659137727E+01  0.58065031542E+01  0.12700000000E+01 0.  1.
         25    2    1    2    0    0  0.00000000000E+00  0.00000000000E+00  0.67519240592E+03  0.68666600730E+03  0.12500168230E+03 0.  0.
    9000005    1    3    3    0    0  0.58855387875E+02  0.11009814622E+02  0.23930187701E+03  0.24668109178E+03  0.10000000000E+01 0.  0.
    9000005    1    3    3    0    0 -0.58855387875E+02 -0.11009814622E+02  0.43589052891E+03  0.43998491553E+03  0.10000000000E+01 0.  0.
<mgrwt>
<rscale>  0 0.12500168E+03</rscale>
<asrwt>0</asrwt>
<pdfrwt beam="1">  1        4 0.10475842E+00 0.12500168E+03</pdfrwt>
<pdfrwt beam="2">  1       -4 0.88258405E-03 0.12500168E+03</pdfrwt>
<totfact> 0.43798345E+03</totfact>
</mgrwt>
</event>
<event>
 5    1  0.3225662E-002  0.1249975E+03  0.7818608E-02  0.1235073E+00
          4   -1    0    0  501    0  0.00000000000E+00  0.00000000000E+00  0.25691144999E+02  0.25722516039E+02  0.12700000000E+01 0. -1.
         -4   -1    0    0    0  501 -0.00000000000E+00 -0.00000000000E+00 -0.15191360855E+03  0.15191891707E+03  0.12700000000E+01 0. -1.
         25    2    1    2    0    0  0.00000000000E+00  0.00000000000E+00 -0.12622246356E+03  0.17764143311E+03  0.12499747378E+03 0.  0.
    9000005    1    3    3    0    0  0.31451731822E+02 -0.21431211484E+02  0.73270621802E+01  0.38771047193E+02  0.10000000000E+01 0.  0.
    9000005    1    3    3    0    0 -0.31451731822E+02  0.21431211484E+02 -0.13354952574E+03  0.13887038592E+03  0.10000000000E+01 0.  0.
<mgrwt>
<rscale>  0 0.12499747E+03</rscale>
<asrwt>0</asrwt>
<pdfrwt beam="1">  1        4 0.39553054E-02 0.12499747E+03</pdfrwt>
<pdfrwt beam="2">  1       -4 0.23374145E-01 0.12499747E+03</pdfrwt>
<totfact> 0.94048612E+03</totfact>
</mgrwt>
</event>
<event>
 5    1  0.3225662E-002  0.1249999E+03  0.7818608E-02  0.1235069E+00
         -4   -1    0    0    0  501 -0.00000000000E+00  0.00000000000E+00  0.17953354393E+03  0.17953803579E+03  0.12700000000E+01 0.  1.
          4   -1    0    0  501    0  0.00000000000E+00 -0.00000000000E+00 -0.21734438207E+02  0.21771511297E+02  0.12700000000E+01 0.  1.
         25    2    1    2    0    0  0.00000000000E+00  0.00000000000E+00  0.15779910572E+03  0.20130954709E+03  0.12499990393E+03 0.  0.
    9000005    1    3    3    0    0 -0.29954432152E+02  0.39608665784E+02  0.17804697192E+02  0.52764776630E+02  0.10000000000E+01 0.  0.
    9000005    1    3    3    0    0  0.29954432152E+02 -0.39608665784E+02  0.13999440853E+03  0.14854477046E+03  0.10000000000E+01 0.  0.
<mgrwt>
<rscale>  0 0.12499990E+03</rscale>
<asrwt>0</asrwt>
<pdfrwt beam="2">  1        4 0.33469569E-02 0.12499990E+03</pdfrwt>
<pdfrwt beam="1">  1       -4 0.27623743E-01 0.12499990E+03</pdfrwt>
<totfact> 0.89915302E+03</totfact>
</mgrwt>
</event>
<event>
 5    1  0.3225662E-002  0.1249966E+03  0.7818608E-02  0.1235075E+00
         -4   -1    0    0    0  501 -0.00000000000E+00  0.00000000000E+00  0.73009945709E+02  0.73020990629E+02  0.12700000000E+01 0.  1.
          4   -1    0    0  501    0  0.00000000000E+00 -0.00000000000E+00 -0.53477420198E+02  0.53492498269E+02  0.12700000000E+01 0.  1.
         25    2    1    2    0    0  0.00000000000E+00  0.00000000000E+00  0.19532525511E+02  0.12651348890E+03  0.12499657323E+03 0.  0.
    9000005    1    3    3    0    0 -0.18414936104E+02  0.24256827534E+02 -0.45462709865E+02  0.54729896236E+02  0.10000000000E+01 0.  0.
    9000005    1    3    3    0    0  0.18414936104E+02 -0.24256827534E+02  0.64995235376E+02  0.71783592661E+02  0.10000000000E+01 0.  0.
<mgrwt>
<rscale>  0 0.12499657E+03</rscale>
<asrwt>0</asrwt>
<pdfrwt beam="2">  1        4 0.82293049E-02 0.12499657E+03</pdfrwt>
<pdfrwt beam="1">  1       -4 0.11234309E-01 0.12499657E+03</pdfrwt>
<totfact> 0.10420540E+04</totfact>
</mgrwt>
</event>
<event>
 5    1  0.3225662E-002  0.1249992E+03  0.7818608E-02  0.1235070E+00
          4   -1    0    0  501    0  0.00000000000E+00  0.00000000000E+00  0.91789949615E+01  0.92664366670E+01  0.12700000000E+01 0.  1.
         -4   -1    0    0    0  501 -0.00000000000E+00 -0.00000000000E+00 -0.42345310838E+03  0.42345501284E+03  0.12700000000E+01 0.  1.
         25    2    1    2    0    0  0.00000000000E+00  0.00000000000E+00 -0.41427411342E+03  0.43272144951E+03  0.12499924725E+03 0.  0.
    9000005    1    3    3    0    0  0.20994593252E+02  0.58347384442E+02 -0.18031928195E+03  0.19068621780E+03  0.10000000000E+01 0.  0.
    9000005    1    3    3    0    0 -0.20994593252E+02 -0.58347384442E+02 -0.23395483147E+03  0.24203523170E+03  0.10000000000E+01 0.  0.
<mgrwt>
<rscale>  0 0.12499925E+03</rscale>
<asrwt>0</asrwt>
<pdfrwt beam="1">  1        4 0.14190262E-02 0.12499925E+03</pdfrwt>
<pdfrwt beam="2">  1       -4 0.65153490E-01 0.12499925E+03</pdfrwt>
<totfact> 0.61491108E+03</totfact>
</mgrwt>
</event>
<event>
 5    1  0.3225662E-002  0.1250020E+03  0.7818608E-02  0.1235066E+00
         -4   -1    0    0    0  501 -0.00000000000E+00  0.00000000000E+00  0.26019387438E+02  0.26050363196E+02  0.12700000000E+01 0.  1.
          4   -1    0    0  501    0  0.00000000000E+00 -0.00000000000E+00 -0.15001038439E+03  0.15001576025E+03  0.12700000000E+01 0.  1.
         25    2    1    2    0    0  0.00000000000E+00  0.00000000000E+00 -0.12399099695E+03  0.17606612345E+03  0.12500204999E+03 0.  0.
    9000005    1    3    3    0    0  0.24120497341E+02 -0.40716137990E+02 -0.11948214123E+03  0.12851686410E+03  0.10000000000E+01 0.  0.
    9000005    1    3    3    0    0 -0.24120497341E+02  0.40716137990E+02 -0.45088557190E+01  0.47549259349E+02  0.10000000000E+01 0.  0.
<mgrwt>
<rscale>  0 0.12500205E+03</rscale>
<asrwt>0</asrwt>
<pdfrwt beam="2">  1        4 0.23081317E-01 0.12500205E+03</pdfrwt>
<pdfrwt beam="1">  1       -4 0.40057790E-02 0.12500205E+03</pdfrwt>
<totfact> 0.94325607E+03</totfact>
</mgrwt>
</event>
<event>
 5    1  0.3225662E-002  0.1249993E+03  0.7818608E-02  0.1235070E+00
         -4   -1    0    0    0  501 -0.00000000000E+00  0.00000000000E+00  0.73696901541E+02  0.73707843522E+02  0.12700000000E+01 0. -1.
          4   -1    0    0  501    0  0.00000000000E+00 -0.00000000000E+00 -0.52981178916E+02  0.52996398173E+02  0.12700000000E+01 0. -1.
         25    2    1    2    0    0  0.00000000000E+00  0.00000000000E+00  0.20715722625E+02  0.12670424170E+03  0.12499929480E+03 0.  0.
    9000005    1    3    3    0    0 -0.16889656897E+01 -0.62268239463E+02  0.52876692034E+01  0.62523161280E+02  0.10000000000E+01 0.  0.
    9000005    1    3    3    0    0  0.16889656897E+01  0.62268239463E+02  0.15428053421E+02  0.64181080415E+02  0.10000000000E+01 0.  0.
<mgrwt>
<rscale>  0 0.12499929E+03</rscale>
<asrwt>0</asrwt>
<pdfrwt beam="2">  1        4 0.81529630E-02 0.12499929E+03</pdfrwt>
<pdfrwt beam="1">  1       -4 0.11339997E-01 0.12499929E+03</pdfrwt>
<totfact> 0.10415744E+04</totfact>
</mgrwt>
</event>
<event>
 5    1  0.3225662E-002  0.1250003E+03  0.7818608E-02  0.1235069E+00
         -4   -1    0    0    0  501 -0.00000000000E+00  0.00000000000E+00  0.32005479360E+03  0.32005731332E+03  0.12700000000E+01 0. -1.
          4   -1    0    0  501    0  0.00000000000E+00 -0.00000000000E+00 -0.12169387416E+02  0.12235476700E+02  0.12700000000E+01 0. -1.
         25    2    1    2    0    0  0.00000000000E+00  0.00000000000E+00  0.30788540618E+03  0.33229279002E+03  0.12500029982E+03 0.  0.
    9000005    1    3    3    0    0  0.95819441512E+01 -0.12558480204E+02  0.31467290626E+03  0.31507073335E+03  0.10000000000E+01 0.  0.
    9000005    1    3    3    0    0 -0.95819441512E+01  0.12558480204E+02 -0.67875000718E+01  0.17222056671E+02  0.10000000000E+01 0.  0.
<mgrwt>
<rscale>  0 0.12500030E+03</rscale>
<asrwt>0</asrwt>
<pdfrwt beam="2">  1        4 0.18774909E-02 0.12500030E+03</pdfrwt>
<pdfrwt beam="1">  1       -4 0.49244481E-01 0.12500030E+03</pdfrwt>
<totfact> 0.71717045E+03</totfact>
</mgrwt>
</event>
<event>
 5    1  0.3225662E-002  0.1249944E+03  0.7818608E-02  0.1235078E+00
         -4   -1    0    0    0  501 -0.00000000000E+00  0.00000000000E+00  0.13534426167E+03  0.13535022005E+03  0.12700000000E+01 0. -1.
          4   -1    0    0  501    0  0.00000000000E+00 -0.00000000000E+00 -0.28838420097E+02  0.28866370983E+02  0.12700000000E+01 0. -1.
         25    2    1    2    0    0  0.00000000000E+00  0.00000000000E+00  0.10650584158E+03  0.16421659103E+03  0.12499437780E+03 0.  0.
    9000005    1    3    3    0    0 -0.10612696945E+02  0.55375916153E+02  0.17859037702E+02  0.59152909091E+02  0.10000000000E+01 0.  0.
    9000005    1    3    3    0    0  0.10612696945E+02 -0.55375916153E+02  0.88646803875E+02  0.10506368194E+03  0.10000000000E+01 0.  0.
<mgrwt>
<rscale>  0 0.12499438E+03</rscale>
<asrwt>0</asrwt>
<pdfrwt beam="2">  1        4 0.44392884E-02 0.12499438E+03</pdfrwt>
<pdfrwt beam="1">  1       -4 0.20824802E-01 0.12499438E+03</pdfrwt>
<totfact> 0.96548158E+03</totfact>
</mgrwt>
</event>
<event>
 5    1  0.3225662E-002  0.1250009E+03  0.7818608E-02  0.1235068E+00
          4   -1    0    0  501    0  0.00000000000E+00  0.00000000000E+00  0.54671535079E+03  0.54671682587E+03  0.12700000000E+01 0. -1.
         -4   -1    0    0    0  501 -0.00000000000E+00 -0.00000000000E+00 -0.70871181416E+01  0.72000099689E+01  0.12700000000E+01 0. -1.
         25    2    1    2    0    0  0.00000000000E+00  0.00000000000E+00  0.53962823265E+03  0.55391683584E+03  0.12500092621E+03 0.  0.
    9000005    1    3    3    0    0 -0.60001603138E+02 -0.15724721453E+02  0.30351784337E+03  0.30979273795E+03  0.10000000000E+01 0.  0.
    9000005    1    3    3    0    0  0.60001603138E+02  0.15724721453E+02  0.23611038928E+03  0.24412409789E+03  0.10000000000E+01 0.  0.
<mgrwt>
<rscale>  0 0.12500093E+03</rscale>
<asrwt>0</asrwt>
<pdfrwt beam="1">  1        4 0.84118845E-01 0.12500093E+03</pdfrwt>
<pdfrwt beam="2">  1       -4 0.10991234E-02 0.12500093E+03</pdfrwt>
<totfact> 0.51910957E+03</totfact>
</mgrwt>
</event>
<event>
 5    1  0.3225662E-002  0.1250008E+03  0.7818608E-02  0.1235068E+00
         -4   -1    0    0    0  501 -0.00000000000E+00  0.00000000000E+00  0.37054355370E+02  0.37076112955E+02  0.12700000000E+01 0.  1.
          4   -1    0    0  501    0  0.00000000000E+00 -0.00000000000E+00 -0.10536428951E+03  0.10537194315E+03  0.12700000000E+01 0.  1.
         25    2    1    2    0    0  0.00000000000E+00  0.00000000000E+00 -0.68309934140E+02  0.14244805611E+03  0.12500080635E+03 0.  0.
    9000005    1    3    3    0    0 -0.37230215851E+02 -0.21019331670E+02 -0.86095175047E+02  0.96131578800E+02  0.10000000000E+01 0.  0.
    9000005    1    3    3    0    0  0.37230215851E+02  0.21019331670E+02  0.17785240907E+02  0.46316477309E+02  0.10000000000E+01 0.  0.
<mgrwt>
<rscale>  0 0.12500081E+03</rscale>
<asrwt>0</asrwt>
<pdfrwt beam="2">  1        4 0.16212153E-01 0.12500081E+03</pdfrwt>
<pdfrwt beam="1">  1       -4 0.57029325E-02 0.12500081E+03</pdfrwt>
<totfact> 0.10082915E+04</totfact>
</mgrwt>
</event>
<event>
 5    1  0.3225662E-002  0.1249971E+03  0.7818608E-02  0.1235074E+00
          4   -1    0    0  501    0  0.00000000000E+00  0.00000000000E+00  0.56026022017E+02  0.56040414372E+02  0.12700000000E+01 0.  1.
         -4   -1    0    0    0  501 -0.00000000000E+00 -0.00000000000E+00 -0.69689718029E+02  0.69701289077E+02  0.12700000000E+01 0.  1.
         25    2    1    2    0    0  0.00000000000E+00  0.00000000000E+00 -0.13663696012E+02  0.12574170345E+03  0.12499711756E+03 0.  0.
    9000005    1    3    3    0    0  0.59039111222E+02  0.20253023553E+02 -0.98943600225E+01  0.63203638955E+02  0.10000000000E+01 0.  0.
    9000005    1    3    3    0    0 -0.59039111222E+02 -0.20253023553E+02 -0.37693359897E+01  0.62538064494E+02  0.10000000000E+01 0.  0.
<mgrwt>
<rscale>  0 0.12499712E+03</rscale>
<asrwt>0</asrwt>
<pdfrwt beam="1">  1        4 0.86213852E-02 0.12499712E+03</pdfrwt>
<pdfrwt beam="2">  1       -4 0.10723492E-01 0.12499712E+03</pdfrwt>
<totfact> 0.10437306E+04</totfact>
</mgrwt>
</event>
<event>
 5    1  0.3225662E-002  0.1250018E+03  0.7818608E-02  0.1235066E+00
          4   -1    0    0  501    0  0.00000000000E+00  0.00000000000E+00  0.36716988037E+02  0.36738945419E+02  0.12700000000E+01 0.  1.
         -4   -1    0    0    0  501 -0.00000000000E+00 -0.00000000000E+00 -0.10633363476E+03  0.10634121864E+03  0.12700000000E+01 0.  1.
         25    2    1    2    0    0  0.00000000000E+00  0.00000000000E+00 -0.69616646725E+02  0.14308016406E+03  0.12500182337E+03 0.  0.
    9000005    1    3    3    0    0  0.55475158529E+02 -0.27945578854E+02 -0.26968240457E+02  0.67725435286E+02  0.10000000000E+01 0.  0.
    9000005    1    3    3    0    0 -0.55475158529E+02  0.27945578854E+02 -0.42648406268E+02  0.75354728773E+02  0.10000000000E+01 0.  0.
<mgrwt>
<rscale>  0 0.12500182E+03</rscale>
<asrwt>0</asrwt>
<pdfrwt beam="1">  1        4 0.56510398E-02 0.12500182E+03</pdfrwt>
<pdfrwt beam="2">  1       -4 0.16361293E-01 0.12500182E+03</pdfrwt>
<totfact> 0.10069728E+04</totfact>
</mgrwt>
</event>
<event>
 5    1  0.3225662E-002  0.1249929E+03  0.7818608E-02  0.1235080E+00
          4   -1    0    0  501    0  0.00000000000E+00  0.00000000000E+00  0.26258653161E+02  0.26289347003E+02  0.12700000000E+01 0. -1.
         -4   -1    0    0    0  501 -0.00000000000E+00 -0.00000000000E+00 -0.14862319447E+03  0.14862862050E+03  0.12700000000E+01 0. -1.
         25    2    1    2    0    0  0.00000000000E+00  0.00000000000E+00 -0.12236454130E+03  0.17491796751E+03  0.12499285735E+03 0.  0.
    9000005    1    3    3    0    0 -0.54032356439E+02 -0.31387490281E+02 -0.60670937693E+02  0.87101278803E+02  0.10000000000E+01 0.  0.
    9000005    1    3    3    0    0  0.54032356439E+02  0.31387490281E+02 -0.61693603611E+02  0.87816688705E+02  0.10000000000E+01 0.  0.
<mgrwt>
<rscale>  0 0.12499286E+03</rscale>
<asrwt>0</asrwt>
<pdfrwt beam="1">  1        4 0.40425713E-02 0.12499286E+03</pdfrwt>
<pdfrwt beam="2">  1       -4 0.22867885E-01 0.12499286E+03</pdfrwt>
<totfact> 0.94555017E+03</totfact>
</mgrwt>
</event>
<event>
 5    1  0.3225662E-002  0.1250009E+03  0.7818608E-02  0.1235068E+00
         -4   -1    0    0    0  501 -0.00000000000E+00  0.00000000000E+00  0.60681459818E+02  0.60694748254E+02  0.12700000000E+01 0. -1.
          4   -1    0    0  501    0  0.00000000000E+00 -0.00000000000E+00 -0.64347388520E+02  0.64359920054E+02  0.12700000000E+01 0. -1.
         25    2    1    2    0    0  0.00000000000E+00  0.00000000000E+00 -0.36659287019E+01  0.12505466831E+03  0.12500092413E+03 0.  0.
    9000005    1    3    3    0    0 -0.58746173071E+02 -0.78218562608E+01  0.18000126618E+02  0.61945934848E+02  0.10000000000E+01 0.  0.
    9000005    1    3    3    0    0  0.58746173071E+02  0.78218562608E+01 -0.21666055320E+02  0.63108733461E+02  0.10000000000E+01 0.  0.
<mgrwt>
<rscale>  0 0.12500092E+03</rscale>
<asrwt>0</asrwt>
<pdfrwt beam="2">  1        4 0.99015844E-02 0.12500092E+03</pdfrwt>
<pdfrwt beam="1">  1       -4 0.93375954E-02 0.12500092E+03</pdfrwt>
<totfact> 0.10451457E+04</totfact>
</mgrwt>
</event>
<event>
 5    1  0.3225662E-002  0.1249995E+03  0.7818608E-02  0.1235070E+00
          4   -1    0    0  501    0  0.00000000000E+00  0.00000000000E+00  0.73790945146E+01  0.74875854490E+01  0.12700000000E+01 0. -1.
         -4   -1    0    0    0  501 -0.00000000000E+00 -0.00000000000E+00 -0.52539024813E+03  0.52539178308E+03  0.12700000000E+01 0. -1.
         25    2    1    2    0    0  0.00000000000E+00  0.00000000000E+00 -0.51801115362E+03  0.53287936853E+03  0.12499946454E+03 0.  0.
    9000005    1    3    3    0    0  0.12483511989E+02 -0.35849154567E+02 -0.47383880649E+02  0.60722583115E+02  0.10000000000E+01 0.  0.
    9000005    1    3    3    0    0 -0.12483511989E+02  0.35849154567E+02 -0.47062727297E+03  0.47215678542E+03  0.10000000000E+01 0.  0.
<mgrwt>
<rscale>  0 0.12499946E+03</rscale>
<asrwt>0</asrwt>
<pdfrwt beam="1">  1        4 0.11437093E-02 0.12499946E+03</pdfrwt>
<pdfrwt beam="2">  1       -4 0.80837703E-01 0.12499946E+03</pdfrwt>
<totfact> 0.53401265E+03</totfact>
</mgrwt>
</event>
<event>
 5    1  0.3225662E-002  0.1250052E+03  0.7818608E-02  0.1235061E+00
          4   -1    0    0  501    0  0.00000000000E+00  0.00000000000E+00  0.82380284708E+01  0.83353472085E+01  0.12700000000E+01 0. -1.
         -4   -1    0    0    0  501 -0.00000000000E+00 -0.00000000000E+00 -0.47132946943E+03  0.47133118043E+03  0.12700000000E+01 0. -1.
         25    2    1    2    0    0  0.00000000000E+00  0.00000000000E+00 -0.46309144096E+03  0.47966652764E+03  0.12500518011E+03 0.  0.
    9000005    1    3    3    0    0 -0.48233219608E+02  0.14599612902E+02 -0.89726913794E+02  0.10291506804E+03  0.10000000000E+01 0.  0.
    9000005    1    3    3    0    0  0.48233219608E+02 -0.14599612902E+02 -0.37336452716E+03  0.37675145960E+03  0.10000000000E+01 0.  0.
<mgrwt>
<rscale>  0 0.12500518E+03</rscale>
<asrwt>0</asrwt>
<pdfrwt beam="1">  1        4 0.12750070E-02 0.12500518E+03</pdfrwt>
<pdfrwt beam="2">  1       -4 0.72519823E-01 0.12500518E+03</pdfrwt>
<totfact> 0.57470702E+03</totfact>
</mgrwt>
</event>
<event>
 5    1  0.3225662E-002  0.1249897E+03  0.7818608E-02  0.1235085E+00
          4   -1    0    0  501    0  0.00000000000E+00  0.00000000000E+00  0.52630722341E+03  0.52630875568E+03  0.12700000000E+01 0.  1.
         -4   -1    0    0    0  501 -0.00000000000E+00 -0.00000000000E+00 -0.73648764789E+01  0.74735738138E+01  0.12700000000E+01 0.  1.
         25    2    1    2    0    0  0.00000000000E+00  0.00000000000E+00  0.51894234693E+03  0.53378232950E+03  0.12498966297E+03 0.  0.
    9000005    1    3    3    0    0  0.39026519065E+02 -0.25309950258E+02  0.43766068856E+03  0.44012673298E+03  0.10000000000E+01 0.  0.
    9000005    1    3    3    0    0 -0.39026519065E+02  0.25309950258E+02  0.81281658371E+02  0.93655596522E+02  0.10000000000E+01 0.  0.
<mgrwt>
<rscale>  0 0.12498966E+03</rscale>
<asrwt>0</asrwt>
<pdfrwt beam="1">  1        4 0.80978853E-01 0.12498966E+03</pdfrwt>
<pdfrwt beam="2">  1       -4 0.11415367E-02 0.12498966E+03</pdfrwt>
<totfact> 0.53347440E+03</totfact>
</mgrwt>
</event>
<event>
 5    1  0.3225662E-002  0.1249879E+03  0.7818608E-02  0.1235088E+00
          4   -1    0    0  501    0  0.00000000000E+00  0.00000000000E+00  0.33198615939E+02  0.33222898733E+02  0.12700000000E+01 0. -1.
         -4   -1    0    0    0  501 -0.00000000000E+00 -0.00000000000E+00 -0.11756948099E+03  0.11757634013E+03  0.12700000000E+01 0. -1.
         25    2    1    2    0    0  0.00000000000E+00  0.00000000000E+00 -0.84370865047E+02  0.15079923887E+03  0.12498786971E+03 0.  0.
    9000005    1    3    3    0    0  0.27042959854E+02  0.41265051436E+02 -0.88449516950E+02  0.10128397305E+03  0.10000000000E+01 0.  0.
    9000005    1    3    3    0    0 -0.27042959854E+02 -0.41265051436E+02  0.40786519030E+01  0.49515265819E+02  0.10000000000E+01 0.  0.
<mgrwt>
<rscale>  0 0.12498787E+03</rscale>
<asrwt>0</asrwt>
<pdfrwt beam="1">  1        4 0.51098750E-02 0.12498787E+03</pdfrwt>
<pdfrwt beam="2">  1       -4 0.18090008E-01 0.12498787E+03</pdfrwt>
<totfact> 0.99171689E+03</totfact>
</mgrwt>
</event>
<event>
 5    1  0.3225662E-002  0.1249924E+03  0.7818608E-02  0.1235081E+00
          4   -1    0    0  501    0  0.00000000000E+00  0.00000000000E+00  0.30492307777E+02  0.30518743971E+02  0.12700000000E+01 0.  1.
         -4   -1    0    0    0  501 -0.00000000000E+00 -0.00000000000E+00 -0.12800542395E+03  0.12801172392E+03  0.12700000000E+01 0.  1.
         25    2    1    2    0    0  0.00000000000E+00  0.00000000000E+00 -0.97513116173E+02  0.15853046789E+03  0.12499240546E+03 0.  0.
    9000005    1    3    3    0    0 -0.30218488343E+02 -0.12451603154E+02 -0.11630670835E+03  0.12081576829E+03  0.10000000000E+01 0.  0.
    9000005    1    3    3    0    0  0.30218488343E+02  0.12451603154E+02  0.18793592182E+02  0.37714699601E+02  0.10000000000E+01 0.  0.
<mgrwt>
<rscale>  0 0.12499241E+03</rscale>
<asrwt>0</asrwt>
<pdfrwt beam="1">  1        4 0.46936425E-02 0.12499241E+03</pdfrwt>
<pdfrwt beam="2">  1       -4 0.19695660E-01 0.12499241E+03</pdfrwt>
<totfact> 0.97643519E+03</totfact>
</mgrwt>
</event>
<event>
 5    1  0.3225662E-002  0.1249991E+03  0.7818608E-02  0.1235071E+00
         -4   -1    0    0    0  501 -0.00000000000E+00  0.00000000000E+00  0.14699733389E+03  0.14700281994E+03  0.12700000000E+01 0.  1.
          4   -1    0    0  501    0  0.00000000000E+00 -0.00000000000E+00 -0.26552075034E+02  0.26582430073E+02  0.12700000000E+01 0.  1.
         25    2    1    2    0    0  0.00000000000E+00  0.00000000000E+00  0.12044525885E+03  0.17358525001E+03  0.12499911456E+03 0.  0.
    9000005    1    3    3    0    0 -0.56066066498E+02 -0.71401900288E+01  0.97246532417E+02  0.11248232836E+03  0.10000000000E+01 0.  0.
    9000005    1    3    3    0    0  0.56066066498E+02  0.71401900288E+01  0.23198726438E+02  0.61102921654E+02  0.10000000000E+01 0.  0.
<mgrwt>
<rscale>  0 0.12499911E+03</rscale>
<asrwt>0</asrwt>
<pdfrwt beam="2">  1        4 0.40876917E-02 0.12499911E+03</pdfrwt>
<pdfrwt beam="1">  1       -4 0.22617731E-01 0.12499911E+03</pdfrwt>
<totfact> 0.94786472E+03</totfact>
</mgrwt>
</event>
<event>
 5    1  0.3225662E-002  0.1250043E+03  0.7818608E-02  0.1235063E+00
         -4   -1    0    0    0  501 -0.00000000000E+00  0.00000000000E+00  0.12431533223E+04  0.12431539710E+04  0.12700000000E+01 0.  1.
          4   -1    0    0  501    0  0.00000000000E+00 -0.00000000000E+00 -0.30134356948E+01  0.32701215094E+01  0.12700000000E+01 0.  1.
         25    2    1    2    0    0  0.00000000000E+00  0.00000000000E+00  0.12401398866E+04  0.12464240925E+04  0.12500432021E+03 0.  0.
    9000005    1    3    3    0    0 -0.58488001528E+01 -0.39763717249E+02  0.14289946377E+03  0.14844735908E+03  0.10000000000E+01 0.  0.
    9000005    1    3    3    0    0  0.58488001528E+01  0.39763717249E+02  0.10972404229E+04  0.10979767335E+04  0.10000000000E+01 0.  0.
<mgrwt>
<rscale>  0 0.12500432E+03</rscale>
<asrwt>0</asrwt>
<pdfrwt beam="2">  1        4 0.48340072E-03 0.12500432E+03</pdfrwt>
<pdfrwt beam="1">  1       -4 0.19127405E+00 0.12500432E+03</pdfrwt>
<totfact> 0.23526686E+03</totfact>
</mgrwt>
</event>
<event>
 5    1  0.3225662E-002  0.1249945E+03  0.7818608E-02  0.1235078E+00
          4   -1    0    0  501    0  0.00000000000E+00  0.00000000000E+00  0.21565295319E+01  0.25027024637E+01  0.12700000000E+01 0. -1.
         -4   -1    0    0    0  501 -0.00000000000E+00 -0.00000000000E+00 -0.16762840889E+04  0.16762845700E+04  0.12700000000E+01 0. -1.
         25    2    1    2    0    0  0.00000000000E+00  0.00000000000E+00 -0.16741275594E+04  0.16787872725E+04  0.12499448440E+03 0.  0.
    9000005    1    3    3    0    0 -0.14164039383E+02 -0.19559820186E+02 -0.16111421586E+04  0.16113234504E+04  0.10000000000E+01 0.  0.
    9000005    1    3    3    0    0  0.14164039383E+02  0.19559820186E+02 -0.62985400779E+02  0.67463822073E+02  0.10000000000E+01 0.  0.
<mgrwt>
<rscale>  0 0.12499448E+03</rscale>
<asrwt>0</asrwt>
<pdfrwt beam="1">  1        4 0.35844081E-03 0.12499448E+03</pdfrwt>
<pdfrwt beam="2">  1       -4 0.25791556E+00 0.12499448E+03</pdfrwt>
<totfact> 0.14666791E+03</totfact>
</mgrwt>
</event>
<event>
 5    1  0.3225662E-002  0.1250028E+03  0.7818608E-02  0.1235065E+00
          4   -1    0    0  501    0  0.00000000000E+00  0.00000000000E+00  0.54755799431E+02  0.54770525571E+02  0.12700000000E+01 0.  1.
         -4   -1    0    0    0  501 -0.00000000000E+00 -0.00000000000E+00 -0.71312662507E+02  0.71323970261E+02  0.12700000000E+01 0.  1.
         25    2    1    2    0    0  0.00000000000E+00  0.00000000000E+00 -0.16556863076E+02  0.12609449583E+03  0.12500276863E+03 0.  0.
    9000005    1    3    3    0    0  0.44996597962E+02 -0.42533118977E+02 -0.16817765507E+02  0.64168506876E+02  0.10000000000E+01 0.  0.
    9000005    1    3    3    0    0 -0.44996597962E+02  0.42533118977E+02  0.26090243128E+00  0.61925988956E+02  0.10000000000E+01 0.  0.
<mgrwt>
<rscale>  0 0.12500277E+03</rscale>
<asrwt>0</asrwt>
<pdfrwt beam="1">  1        4 0.84259718E-02 0.12500277E+03</pdfrwt>
<pdfrwt beam="2">  1       -4 0.10973181E-01 0.12500277E+03</pdfrwt>
<totfact> 0.10428236E+04</totfact>
</mgrwt>
</event>
<event>
 5    1  0.3225662E-002  0.1249991E+03  0.7818608E-02  0.1235071E+00
          4   -1    0    0  501    0  0.00000000000E+00  0.00000000000E+00  0.52628397498E+02  0.52643718744E+02  0.12700000000E+01 0.  1.
         -4   -1    0    0    0  501 -0.00000000000E+00 -0.00000000000E+00 -0.74190623259E+02  0.74201492435E+02  0.12700000000E+01 0.  1.
         25    2    1    2    0    0  0.00000000000E+00  0.00000000000E+00 -0.21562225761E+02  0.12684521118E+03  0.12499911207E+03 0.  0.
    9000005    1    3    3    0    0 -0.40737364477E+02 -0.31558288364E+02  0.25092597790E+02  0.57324487724E+02  0.10000000000E+01 0.  0.
    9000005    1    3    3    0    0  0.40737364477E+02  0.31558288364E+02 -0.46654823552E+02  0.69520723454E+02  0.10000000000E+01 0.  0.
<mgrwt>
<rscale>  0 0.12499911E+03</rscale>
<asrwt>0</asrwt>
<pdfrwt beam="1">  1        4 0.80986912E-02 0.12499911E+03</pdfrwt>
<pdfrwt beam="2">  1       -4 0.11415957E-01 0.12499911E+03</pdfrwt>
<totfact> 0.10412719E+04</totfact>
</mgrwt>
</event>
<event>
 5    1  0.3225662E-002  0.1249959E+03  0.7818608E-02  0.1235076E+00
          4   -1    0    0  501    0  0.00000000000E+00  0.00000000000E+00  0.19071001381E+03  0.19071424243E+03  0.12700000000E+01 0. -1.
         -4   -1    0    0    0  501 -0.00000000000E+00 -0.00000000000E+00 -0.20457167279E+02  0.20496550761E+02  0.12700000000E+01 0. -1.
         25    2    1    2    0    0  0.00000000000E+00  0.00000000000E+00  0.17025284653E+03  0.21121079320E+03  0.12499586957E+03 0.  0.
    9000005    1    3    3    0    0 -0.45732080944E+02 -0.32003384360E+02  0.37652425367E+02  0.67337545054E+02  0.10000000000E+01 0.  0.
    9000005    1    3    3    0    0  0.45732080944E+02  0.32003384360E+02  0.13260042116E+03  0.14387324814E+03  0.10000000000E+01 0.  0.
<mgrwt>
<rscale>  0 0.12499587E+03</rscale>
<asrwt>0</asrwt>
<pdfrwt beam="1">  1        4 0.29343356E-01 0.12499587E+03</pdfrwt>
<pdfrwt beam="2">  1       -4 0.31506114E-02 0.12499587E+03</pdfrwt>
<totfact> 0.88286675E+03</totfact>
</mgrwt>
</event>
<event>
 5    1  0.3225662E-002  0.1249974E+03  0.7818608E-02  0.1235073E+00
         -4   -1    0    0    0  501 -0.00000000000E+00  0.00000000000E+00  0.32023662865E+01  0.34450036042E+01  0.12700000000E+01 0. -1.
          4   -1    0    0  501    0  0.00000000000E+00 -0.00000000000E+00 -0.11749850030E+04  0.11749856893E+04  0.12700000000E+01 0. -1.
         25    2    1    2    0    0  0.00000000000E+00  0.00000000000E+00 -0.11717826367E+04  0.11784306929E+04  0.12499740154E+03 0.  0.
    9000005    1    3    3    0    0 -0.51254089235E+02 -0.95493075262E+01 -0.26109344765E+03  0.26624980627E+03  0.10000000000E+01 0.  0.
    9000005    1    3    3    0    0  0.51254089235E+02  0.95493075262E+01 -0.91068918906E+03  0.91218088667E+03  0.10000000000E+01 0.  0.
<mgrwt>
<rscale>  0 0.12499740E+03</rscale>
<asrwt>0</asrwt>
<pdfrwt beam="2">  1        4 0.18078531E+00 0.12499740E+03</pdfrwt>
<pdfrwt beam="1">  1       -4 0.51138988E-03 0.12499740E+03</pdfrwt>
<totfact> 0.25285899E+03</totfact>
</mgrwt>
</event>
<event>
 5    1  0.3225662E-002  0.1250000E+03  0.7818608E-02  0.1235069E+00
          4   -1    0    0  501    0  0.00000000000E+00  0.00000000000E+00  0.14407164517E+03  0.14407724262E+03  0.12700000000E+01 0.  1.
         -4   -1    0    0    0  501 -0.00000000000E+00 -0.00000000000E+00 -0.27092266373E+02  0.27122016835E+02  0.12700000000E+01 0.  1.
         25    2    1    2    0    0  0.00000000000E+00  0.00000000000E+00  0.11697937880E+03  0.17119925946E+03  0.12500004550E+03 0.  0.
    9000005    1    3    3    0    0  0.40682089590E+02 -0.41184084015E+02  0.90728760132E+02  0.10762838429E+03  0.10000000000E+01 0.  0.
    9000005    1    3    3    0    0 -0.40682089590E+02  0.41184084015E+02  0.26250618666E+02  0.63570875171E+02  0.10000000000E+01 0.  0.
<mgrwt>
<rscale>  0 0.12500005E+03</rscale>
<asrwt>0</asrwt>
<pdfrwt beam="1">  1        4 0.22167588E-01 0.12500005E+03</pdfrwt>
<pdfrwt beam="2">  1       -4 0.41707600E-02 0.12500005E+03</pdfrwt>
<totfact> 0.95225484E+03</totfact>
</mgrwt>
</event>
<event>
 5    1  0.3225662E-002  0.1250099E+03  0.7818608E-02  0.1235054E+00
          4   -1    0    0  501    0  0.00000000000E+00  0.00000000000E+00  0.34854866919E+01  0.37096519351E+01  0.12700000000E+01 0.  1.
         -4   -1    0    0    0  501 -0.00000000000E+00 -0.00000000000E+00 -0.10857500854E+04  0.10857508282E+04  0.12700000000E+01 0.  1.
         25    2    1    2    0    0  0.00000000000E+00  0.00000000000E+00 -0.10822645987E+04  0.10894604801E+04  0.12500990388E+03 0.  0.
    9000005    1    3    3    0    0 -0.51309596497E+02 -0.31740673070E+02 -0.39906881956E+03  0.40360508887E+03  0.10000000000E+01 0.  0.
    9000005    1    3    3    0    0  0.51309596497E+02  0.31740673070E+02 -0.68319577916E+03  0.68585539123E+03  0.10000000000E+01 0.  0.
<mgrwt>
<rscale>  0 0.12500990E+03</rscale>
<asrwt>0</asrwt>
<pdfrwt beam="1">  1        4 0.55353020E-03 0.12500990E+03</pdfrwt>
<pdfrwt beam="2">  1       -4 0.16705552E+00 0.12500990E+03</pdfrwt>
<totfact> 0.27787959E+03</totfact>
</mgrwt>
</event>
<event>
 5    1  0.3225662E-002  0.1249974E+03  0.7818608E-02  0.1235073E+00
          4   -1    0    0  501    0  0.00000000000E+00  0.00000000000E+00  0.24830391829E+02  0.24862848959E+02  0.12700000000E+01 0. -1.
         -4   -1    0    0    0  501 -0.00000000000E+00 -0.00000000000E+00 -0.15717289653E+03  0.15717802742E+03  0.12700000000E+01 0. -1.
         25    2    1    2    0    0  0.00000000000E+00  0.00000000000E+00 -0.13234250470E+03  0.18204087638E+03  0.12499736846E+03 0.  0.
    9000005    1    3    3    0    0  0.35203633274E+02 -0.33997579700E+02 -0.95799158625E+01  0.49878913472E+02  0.10000000000E+01 0.  0.
    9000005    1    3    3    0    0 -0.35203633274E+02  0.33997579700E+02 -0.12276258884E+03  0.13216196291E+03  0.10000000000E+01 0.  0.
<mgrwt>
<rscale>  0 0.12499737E+03</rscale>
<asrwt>0</asrwt>
<pdfrwt beam="1">  1        4 0.38229518E-02 0.12499737E+03</pdfrwt>
<pdfrwt beam="2">  1       -4 0.24183336E-01 0.12499737E+03</pdfrwt>
<totfact> 0.93256425E+03</totfact>
</mgrwt>
</event>
<event>
 5    1  0.3225662E-002  0.1249994E+03  0.7818608E-02  0.1235070E+00
         -4   -1    0    0    0  501 -0.00000000000E+00  0.00000000000E+00  0.20696299578E+03  0.20696689234E+03  0.12700000000E+01 0. -1.
          4   -1    0    0  501    0  0.00000000000E+00 -0.00000000000E+00 -0.18848521087E+02  0.18891258485E+02  0.12700000000E+01 0. -1.
         25    2    1    2    0    0  0.00000000000E+00  0.00000000000E+00  0.18811447470E+03  0.22585815082E+03  0.12499939481E+03 0.  0.
    9000005    1    3    3    0    0  0.40035271026E+02 -0.33126601336E+02  0.31334566840E+02  0.60688134930E+02  0.10000000000E+01 0.  0.
    9000005    1    3    3    0    0 -0.40035271026E+02  0.33126601336E+02  0.15677990786E+03  0.16517001589E+03  0.10000000000E+01 0.  0.
<mgrwt>
<rscale>  0 0.12499939E+03</rscale>
<asrwt>0</asrwt>
<pdfrwt beam="2">  1        4 0.29033596E-02 0.12499939E+03</pdfrwt>
<pdfrwt beam="1">  1       -4 0.31844049E-01 0.12499939E+03</pdfrwt>
<totfact> 0.85950825E+03</totfact>
</mgrwt>
</event>
<event>
 5    1  0.3225662E-002  0.1250129E+03  0.7818608E-02  0.1235049E+00
          4   -1    0    0  501    0  0.00000000000E+00  0.00000000000E+00  0.16246326651E+03  0.16246823033E+03  0.12700000000E+01 0.  1.
         -4   -1    0    0    0  501 -0.00000000000E+00 -0.00000000000E+00 -0.24026771302E+02  0.24060312534E+02  0.12700000000E+01 0.  1.
         25    2    1    2    0    0  0.00000000000E+00  0.00000000000E+00  0.13843649521E+03  0.18652854286E+03  0.12501293572E+03 0.  0.
    9000005    1    3    3    0    0  0.28971662198E+02  0.15652637422E+01 -0.13376519041E+02  0.31964644887E+02  0.10000000000E+01 0.  0.
    9000005    1    3    3    0    0 -0.28971662198E+02 -0.15652637422E+01  0.15181301425E+03  0.15456389798E+03  0.10000000000E+01 0.  0.
<mgrwt>
<rscale>  0 0.12501294E+03</rscale>
<asrwt>0</asrwt>
<pdfrwt beam="1">  1        4 0.24997310E-01 0.12501294E+03</pdfrwt>
<pdfrwt beam="2">  1       -4 0.36993884E-02 0.12501294E+03</pdfrwt>
<totfact> 0.92428076E+03</totfact>
</mgrwt>
</event>
<event>
 5    1  0.3225662E-002  0.1249986E+03  0.7818608E-02  0.1235072E+00
          4   -1    0    0  501    0  0.00000000000E+00  0.00000000000E+00  0.23353749706E+02  0.23388256141E+02  0.12700000000E+01 0.  1.
         -4   -1    0    0    0  501 -0.00000000000E+00 -0.00000000000E+00 -0.16710015648E+03  0.16710498256E+03  0.12700000000E+01 0.  1.
         25    2    1    2    0    0  0.00000000000E+00  0.00000000000E+00 -0.14374640677E+03  0.19049323870E+03  0.12499857811E+03 0.  0.
    9000005    1    3    3    0    0 -0.50920323308E+02  0.27083683281E+02 -0.35210692000E+02  0.67581048061E+02  0.10000000000E+01 0.  0.
    9000005    1    3    3    0    0  0.50920323308E+02 -0.27083683281E+02 -0.10853571477E+03  0.12291219064E+03  0.10000000000E+01 0.  0.
<mgrwt>
<rscale>  0 0.12499858E+03</rscale>
<asrwt>0</asrwt>
<pdfrwt beam="1">  1        4 0.35959103E-02 0.12499858E+03</pdfrwt>
<pdfrwt beam="2">  1       -4 0.25710741E-01 0.12499858E+03</pdfrwt>
<totfact> 0.91764486E+03</totfact>
</mgrwt>
</event>
<event>
 5    1  0.3225662E-002  0.1249963E+03  0.7818608E-02  0.1235075E+00
         -4   -1    0    0    0  501 -0.00000000000E+00  0.00000000000E+00  0.11098707578E+02  0.11171132884E+02  0.12700000000E+01 0. -1.
          4   -1    0    0  501    0  0.00000000000E+00 -0.00000000000E+00 -0.35071649448E+03  0.35071879391E+03  0.12700000000E+01 0. -1.
         25    2    1    2    0    0  0.00000000000E+00  0.00000000000E+00 -0.33961778690E+03  0.36188992679E+03  0.12499631168E+03 0.  0.
    9000005    1    3    3    0    0 -0.64039318245E+00  0.28399687725E+02 -0.33095681464E+03  0.33217520306E+03  0.10000000000E+01 0.  0.
    9000005    1    3    3    0    0  0.64039318245E+00 -0.28399687725E+02 -0.86609722605E+01  0.29714723738E+02  0.10000000000E+01 0.  0.
<mgrwt>
<rscale>  0 0.12499631E+03</rscale>
<asrwt>0</asrwt>
<pdfrwt beam="2">  1        4 0.53962123E-01 0.12499631E+03</pdfrwt>
<pdfrwt beam="1">  1       -4 0.17132418E-02 0.12499631E+03</pdfrwt>
<totfact> 0.68441611E+03</totfact>
</mgrwt>
</event>
<event>
 5    1  0.3225662E-002  0.1250115E+03  0.7818608E-02  0.1235051E+00
         -4   -1    0    0    0  501 -0.00000000000E+00  0.00000000000E+00  0.10264679381E+02  0.10342946523E+02  0.12700000000E+01 0.  1.
          4   -1    0    0  501    0  0.00000000000E+00 -0.00000000000E+00 -0.37909751169E+03  0.37909963897E+03  0.12700000000E+01 0.  1.
         25    2    1    2    0    0  0.00000000000E+00  0.00000000000E+00 -0.36883283230E+03  0.38944258549E+03  0.12501147631E+03 0.  0.
    9000005    1    3    3    0    0  0.15638881706E+02 -0.48851540198E+02 -0.73183077670E+02  0.89374551512E+02  0.10000000000E+01 0.  0.
    9000005    1    3    3    0    0 -0.15638881706E+02  0.48851540198E+02 -0.29564975463E+03  0.30006803398E+03  0.10000000000E+01 0.  0.
<mgrwt>
<rscale>  0 0.12501148E+03</rscale>
<asrwt>0</asrwt>
<pdfrwt beam="2">  1        4 0.58328867E-01 0.12501148E+03</pdfrwt>
<pdfrwt beam="1">  1       -4 0.15853659E-02 0.12501148E+03</pdfrwt>
<totfact> 0.65576088E+03</totfact>
</mgrwt>
</event>
<event>
 5    1  0.3225662E-002  0.1250011E+03  0.7818608E-02  0.1235068E+00
          4   -1    0    0  501    0  0.00000000000E+00  0.00000000000E+00  0.29101381174E+02  0.29129079735E+02  0.12700000000E+01 0. -1.
         -4   -1    0    0    0  501 -0.00000000000E+00 -0.00000000000E+00 -0.13413678156E+03  0.13414279357E+03  0.12700000000E+01 0. -1.
         25    2    1    2    0    0  0.00000000000E+00  0.00000000000E+00 -0.10503540038E+03  0.16327187331E+03  0.12500107711E+03 0.  0.
    9000005    1    3    3    0    0  0.46952262100E+02  0.35274416711E+02 -0.80425560447E+02  0.99589508303E+02  0.10000000000E+01 0.  0.
    9000005    1    3    3    0    0 -0.46952262100E+02 -0.35274416711E+02 -0.24609839937E+02  0.63682365003E+02  0.10000000000E+01 0.  0.
<mgrwt>
<rscale>  0 0.12500108E+03</rscale>
<asrwt>0</asrwt>
<pdfrwt beam="1">  1        4 0.44797288E-02 0.12500108E+03</pdfrwt>
<pdfrwt beam="2">  1       -4 0.20639021E-01 0.12500108E+03</pdfrwt>
<totfact> 0.96713336E+03</totfact>
</mgrwt>
</event>
<event>
 5    1  0.3225662E-002  0.1249997E+03  0.7818608E-02  0.1235070E+00
         -4   -1    0    0    0  501 -0.00000000000E+00  0.00000000000E+00  0.97196393187E+02  0.97204689952E+02  0.12700000000E+01 0. -1.
          4   -1    0    0  501    0  0.00000000000E+00 -0.00000000000E+00 -0.40169021858E+02  0.40189093260E+02  0.12700000000E+01 0. -1.
         25    2    1    2    0    0  0.00000000000E+00  0.00000000000E+00  0.57027371329E+02  0.13739378321E+03  0.12499972234E+03 0.  0.
    9000005    1    3    3    0    0  0.18061036295E+01 -0.23351698793E+02  0.92195038338E+02  0.95128801848E+02  0.10000000000E+01 0.  0.
    9000005    1    3    3    0    0 -0.18061036295E+01  0.23351698793E+02 -0.35167667009E+02  0.42264981364E+02  0.10000000000E+01 0.  0.
<mgrwt>
<rscale>  0 0.12499972E+03</rscale>
<asrwt>0</asrwt>
<pdfrwt beam="2">  1        4 0.61820318E-02 0.12499972E+03</pdfrwt>
<pdfrwt beam="1">  1       -4 0.14955473E-01 0.12499972E+03</pdfrwt>
<totfact> 0.10187922E+04</totfact>
</mgrwt>
</event>
<event>
 5    1  0.3225662E-002  0.1250018E+03  0.7818608E-02  0.1235066E+00
          4   -1    0    0  501    0  0.00000000000E+00  0.00000000000E+00  0.67439900934E+02  0.67451857928E+02  0.12700000000E+01 0. -1.
         -4   -1    0    0    0  501 -0.00000000000E+00 -0.00000000000E+00 -0.57899571979E+02  0.57913498731E+02  0.12700000000E+01 0. -1.
         25    2    1    2    0    0  0.00000000000E+00  0.00000000000E+00  0.95403289552E+01  0.12536535666E+03  0.12500181908E+03 0.  0.
    9000005    1    3    3    0    0  0.37158330636E+02  0.23010911711E+02 -0.40026505308E+02  0.59273642714E+02  0.10000000000E+01 0.  0.
    9000005    1    3    3    0    0 -0.37158330636E+02 -0.23010911711E+02  0.49566834263E+02  0.66091713946E+02  0.10000000000E+01 0.  0.
<mgrwt>
<rscale>  0 0.12500182E+03</rscale>
<asrwt>0</asrwt>
<pdfrwt beam="1">  1        4 0.10377360E-01 0.12500182E+03</pdfrwt>
<pdfrwt beam="2">  1       -4 0.89096175E-02 0.12500182E+03</pdfrwt>
<totfact> 0.10444503E+04</totfact>
</mgrwt>
</event>
<event>
 5    1  0.3225662E-002  0.1249989E+03  0.7818608E-02  0.1235071E+00
         -4   -1    0    0    0  501 -0.00000000000E+00  0.00000000000E+00  0.10022412790E+03  0.10023217404E+03  0.12700000000E+01 0. -1.
          4   -1    0    0  501    0  0.00000000000E+00 -0.00000000000E+00 -0.38954526232E+02  0.38975223078E+02  0.12700000000E+01 0. -1.
         25    2    1    2    0    0  0.00000000000E+00  0.00000000000E+00  0.61269601667E+02  0.13920739712E+03  0.12499894129E+03 0.  0.
    9000005    1    3    3    0    0 -0.51249693844E+02 -0.33910543346E+02  0.17999310847E+02  0.64042417663E+02  0.10000000000E+01 0.  0.
    9000005    1    3    3    0    0  0.51249693844E+02  0.33910543346E+02  0.43270290820E+02  0.75164979457E+02  0.10000000000E+01 0.  0.
<mgrwt>
<rscale>  0 0.12499894E+03</rscale>
<asrwt>0</asrwt>
<pdfrwt beam="2">  1        4 0.59952150E-02 0.12499894E+03</pdfrwt>
<pdfrwt beam="1">  1       -4 0.15421308E-01 0.12499894E+03</pdfrwt>
<totfact> 0.10150281E+04</totfact>
</mgrwt>
</event>
<event>
 5    1  0.3225662E-002  0.1249976E+03  0.7818608E-02  0.1235073E+00
          4   -1    0    0  501    0  0.00000000000E+00  0.00000000000E+00  0.10248334353E+03  0.10249121231E+03  0.12700000000E+01 0. -1.
         -4   -1    0    0    0  501 -0.00000000000E+00 -0.00000000000E+00 -0.38094560498E+02  0.38115724308E+02  0.12700000000E+01 0. -1.
         25    2    1    2    0    0  0.00000000000E+00  0.00000000000E+00  0.64388783032E+02  0.14060693662E+03  0.12499758096E+03 0.  0.
    9000005    1    3    3    0    0  0.56358940002E+02  0.26986905840E+02  0.31418628677E+02  0.69948219655E+02  0.10000000000E+01 0.  0.
    9000005    1    3    3    0    0 -0.56358940002E+02 -0.26986905840E+02  0.32970154354E+02  0.70658716965E+02  0.10000000000E+01 0.  0.
<mgrwt>
<rscale>  0 0.12499758E+03</rscale>
<asrwt>0</asrwt>
<pdfrwt beam="1">  1        4 0.15768902E-01 0.12499758E+03</pdfrwt>
<pdfrwt beam="2">  1       -4 0.58629349E-02 0.12499758E+03</pdfrwt>
<totfact> 0.10121574E+04</totfact>
</mgrwt>
</event>
<event>
 5    1  0.3225662E-002  0.1250005E+03  0.7818608E-02  0.1235068E+00
          4   -1    0    0  501    0  0.00000000000E+00  0.00000000000E+00  0.71979639658E+02  0.71990842649E+02  0.12700000000E+01 0. -1.
         -4   -1    0    0    0  501 -0.00000000000E+00 -0.00000000000E+00 -0.54246417576E+02  0.54261281959E+02  0.12700000000E+01 0. -1.
         25    2    1    2    0    0  0.00000000000E+00  0.00000000000E+00  0.17733222083E+02  0.12625212461E+03  0.12500052721E+03 0.  0.
    9000005    1    3    3    0    0  0.28948735293E+02  0.53716681282E+02  0.22483883829E+02  0.65038728117E+02  0.10000000000E+01 0.  0.
    9000005    1    3    3    0    0 -0.28948735293E+02 -0.53716681282E+02 -0.47506617464E+01  0.61213396491E+02  0.10000000000E+01 0.  0.
<mgrwt>
<rscale>  0 0.12500053E+03</rscale>
<asrwt>0</asrwt>
<pdfrwt beam="1">  1        4 0.11075796E-01 0.12500053E+03</pdfrwt>
<pdfrwt beam="2">  1       -4 0.83476079E-02 0.12500053E+03</pdfrwt>
<totfact> 0.10425315E+04</totfact>
</mgrwt>
</event>
<event>
 5    1  0.3225662E-002  0.1250005E+03  0.7818608E-02  0.1235069E+00
         -4   -1    0    0    0  501 -0.00000000000E+00  0.00000000000E+00  0.37626262031E+02  0.37647689098E+02  0.12700000000E+01 0.  1.
          4   -1    0    0  501    0  0.00000000000E+00 -0.00000000000E+00 -0.10376301310E+03  0.10377078484E+03  0.12700000000E+01 0.  1.
         25    2    1    2    0    0  0.00000000000E+00  0.00000000000E+00 -0.66136751068E+02  0.14141847394E+03  0.12500045972E+03 0.  0.
    9000005    1    3    3    0    0  0.38137166897E+02 -0.16070875318E+01 -0.89047053781E+02  0.96888616547E+02  0.10000000000E+01 0.  0.
    9000005    1    3    3    0    0 -0.38137166897E+02  0.16070875318E+01  0.22910302713E+02  0.44529857396E+02  0.10000000000E+01 0.  0.
<mgrwt>
<rscale>  0 0.12500046E+03</rscale>
<asrwt>0</asrwt>
<pdfrwt beam="2">  1        4 0.15965786E-01 0.12500046E+03</pdfrwt>
<pdfrwt beam="1">  1       -4 0.57909018E-02 0.12500046E+03</pdfrwt>
<totfact> 0.10104167E+04</totfact>
</mgrwt>
</event>
<event>
 5    1  0.3225662E-002  0.1249960E+03  0.7818608E-02  0.1235076E+00
          4   -1    0    0  501    0  0.00000000000E+00  0.00000000000E+00  0.12102002218E+02  0.12168457490E+02  0.12700000000E+01 0. -1.
         -4   -1    0    0    0  501 -0.00000000000E+00 -0.00000000000E+00 -0.32180493459E+03  0.32180744060E+03  0.12700000000E+01 0. -1.
         25    2    1    2    0    0  0.00000000000E+00  0.00000000000E+00 -0.30970293237E+03  0.33397589809E+03  0.12499597668E+03 0.  0.
    9000005    1    3    3    0    0  0.17169580238E+02 -0.44243306665E+01 -0.31495627666E+03  0.31545653488E+03  0.10000000000E+01 0.  0.
    9000005    1    3    3    0    0 -0.17169580238E+02  0.44243306665E+01  0.52533442953E+01  0.18519363209E+02  0.10000000000E+01 0.  0.
<mgrwt>
<rscale>  0 0.12499598E+03</rscale>
<asrwt>0</asrwt>
<pdfrwt beam="1">  1        4 0.18671515E-02 0.12499598E+03</pdfrwt>
<pdfrwt beam="2">  1       -4 0.49513750E-01 0.12499598E+03</pdfrwt>
<totfact> 0.71530517E+03</totfact>
</mgrwt>
</event>
<event>
 4    1  0.3225662E-002  0.1251030E+03  0.7818608E-02  0.1234908E+00
         -4   -1    0    0    0  501 -0.00000000000E+00  0.00000000000E+00  0.72373628572E+03  0.72373740000E+03  0.12700000000E+01 0.  1.
          4   -1    0    0  501    0  0.00000000000E+00 -0.00000000000E+00 -0.53305222871E+01  0.54797233373E+01  0.12700000000E+01 0.  1.
    9000005    1    1    2    0    0 -0.19874161716E+02 -0.57463657272E+02  0.27380578798E+03  0.28047756371E+03  0.10000000000E+01 0.  0.
    9000005    1    1    2    0    0  0.19874161716E+02  0.57463657272E+02  0.44459997545E+03  0.44873955963E+03  0.10000000000E+01 0.  0.
<mgrwt>
<rscale>  0 0.12510305E+03</rscale>
<asrwt>0</asrwt>
<pdfrwt beam="2">  1        4 0.83164310E-03 0.12510305E+03</pdfrwt>
<pdfrwt beam="1">  1       -4 0.11135560E+00 0.12510305E+03</pdfrwt>
<totfact> 0.41494870E+03</totfact>
</mgrwt>
</event>
<event>
 5    1  0.3225662E-002  0.1250019E+03  0.7818608E-02  0.1235066E+00
         -4   -1    0    0    0  501 -0.00000000000E+00  0.00000000000E+00  0.30355179704E+02  0.30381735218E+02  0.12700000000E+01 0.  1.
          4   -1    0    0  501    0  0.00000000000E+00 -0.00000000000E+00 -0.12860265511E+03  0.12860892582E+03  0.12700000000E+01 0.  1.
         25    2    1    2    0    0  0.00000000000E+00  0.00000000000E+00 -0.98247475406E+02  0.15899066104E+03  0.12500185549E+03 0.  0.
    9000005    1    3    3    0    0 -0.13284924032E+02 -0.11179384539E+02  0.27231952685E+02  0.32311717569E+02  0.10000000000E+01 0.  0.
    9000005    1    3    3    0    0  0.13284924032E+02  0.11179384539E+02 -0.12547942809E+03  0.12667894347E+03  0.10000000000E+01 0.  0.
<mgrwt>
<rscale>  0 0.12500186E+03</rscale>
<asrwt>0</asrwt>
<pdfrwt beam="2">  1        4 0.19787549E-01 0.12500186E+03</pdfrwt>
<pdfrwt beam="1">  1       -4 0.46725528E-02 0.12500186E+03</pdfrwt>
<totfact> 0.97533663E+03</totfact>
</mgrwt>
</event>
<event>
 5    1  0.3225662E-002  0.1250050E+03  0.7818608E-02  0.1235061E+00
         -4   -1    0    0    0  501 -0.00000000000E+00  0.00000000000E+00  0.13495059713E+03  0.13495657289E+03  0.12700000000E+01 0. -1.
          4   -1    0    0  501    0  0.00000000000E+00 -0.00000000000E+00 -0.28927546282E+02  0.28955411133E+02  0.12700000000E+01 0. -1.
         25    2    1    2    0    0  0.00000000000E+00  0.00000000000E+00  0.10602305085E+03  0.16391198402E+03  0.12500500468E+03 0.  0.
    9000005    1    3    3    0    0  0.40507930870E+02  0.46992473405E+02  0.43166036535E+02  0.75587642709E+02  0.10000000000E+01 0.  0.
    9000005    1    3    3    0    0 -0.40507930870E+02 -0.46992473405E+02  0.62857014317E+02  0.88324341316E+02  0.10000000000E+01 0.  0.
<mgrwt>
<rscale>  0 0.12500500E+03</rscale>
<asrwt>0</asrwt>
<pdfrwt beam="2">  1        4 0.44529949E-02 0.12500500E+03</pdfrwt>
<pdfrwt beam="1">  1       -4 0.20764233E-01 0.12500500E+03</pdfrwt>
<totfact> 0.96582982E+03</totfact>
</mgrwt>
</event>
<event>
 5    1  0.3225662E-002  0.1249995E+03  0.7818608E-02  0.1235070E+00
          4   -1    0    0  501    0  0.00000000000E+00  0.00000000000E+00  0.45742831486E+02  0.45760458175E+02  0.12700000000E+01 0. -1.
         -4   -1    0    0    0  501 -0.00000000000E+00 -0.00000000000E+00 -0.85356427791E+02  0.85365875297E+02  0.12700000000E+01 0. -1.
         25    2    1    2    0    0  0.00000000000E+00  0.00000000000E+00 -0.39613596305E+02  0.13112633347E+03  0.12499951327E+03 0.  0.
    9000005    1    3    3    0    0 -0.44415532634E+02 -0.54488731507E+01  0.25952252488E+02  0.51739242041E+02  0.10000000000E+01 0.  0.
    9000005    1    3    3    0    0  0.44415532634E+02  0.54488731507E+01 -0.65565848793E+02  0.79387091430E+02  0.10000000000E+01 0.  0.
<mgrwt>
<rscale>  0 0.12499951E+03</rscale>
<asrwt>0</asrwt>
<pdfrwt beam="1">  1        4 0.70394414E-02 0.12499951E+03</pdfrwt>
<pdfrwt beam="2">  1       -4 0.13133841E-01 0.12499951E+03</pdfrwt>
<totfact> 0.10320495E+04</totfact>
</mgrwt>
</event>
<event>
 5    1  0.3225662E-002  0.1249982E+03  0.7818608E-02  0.1235072E+00
         -4   -1    0    0    0  501 -0.00000000000E+00  0.00000000000E+00  0.65870664980E+01  0.67083787199E+01  0.12700000000E+01 0. -1.
          4   -1    0    0  501    0  0.00000000000E+00 -0.00000000000E+00 -0.58746871470E+03  0.58747008745E+03  0.12700000000E+01 0. -1.
         25    2    1    2    0    0  0.00000000000E+00  0.00000000000E+00 -0.58088164820E+03  0.59417846617E+03  0.12499824177E+03 0.  0.
    9000005    1    3    3    0    0  0.61096260484E+02  0.20876118878E+01 -0.22882318539E+03  0.23685050420E+03  0.10000000000E+01 0.  0.
    9000005    1    3    3    0    0 -0.61096260484E+02 -0.20876118878E+01 -0.35205846280E+03  0.35732796196E+03  0.10000000000E+01 0.  0.
<mgrwt>
<rscale>  0 0.12499824E+03</rscale>
<asrwt>0</asrwt>
<pdfrwt beam="2">  1        4 0.90389198E-01 0.12499824E+03</pdfrwt>
<pdfrwt beam="1">  1       -4 0.10228326E-02 0.12499824E+03</pdfrwt>
<totfact> 0.49239072E+03</totfact>
</mgrwt>
</event>
<event>
 5    1  0.3225662E-002  0.1250019E+03  0.7818608E-02  0.1235066E+00
         -4   -1    0    0    0  501 -0.00000000000E+00  0.00000000000E+00  0.48710534930E+02  0.48727088085E+02  0.12700000000E+01 0.  1.
          4   -1    0    0  501    0  0.00000000000E+00 -0.00000000000E+00 -0.80160298318E+02  0.80170358153E+02  0.12700000000E+01 0.  1.
         25    2    1    2    0    0  0.00000000000E+00  0.00000000000E+00 -0.31449763387E+02  0.12889744624E+03  0.12500185610E+03 0.  0.
    9000005    1    3    3    0    0  0.33873108923E+00  0.59922753610E+02 -0.34012133370E+02  0.68910640364E+02  0.10000000000E+01 0.  0.
    9000005    1    3    3    0    0 -0.33873108923E+00 -0.59922753610E+02  0.25623699830E+01  0.59986805874E+02  0.10000000000E+01 0.  0.
<mgrwt>
<rscale>  0 0.12500186E+03</rscale>
<asrwt>0</asrwt>
<pdfrwt beam="2">  1        4 0.12334401E-01 0.12500186E+03</pdfrwt>
<pdfrwt beam="1">  1       -4 0.74959756E-02 0.12500186E+03</pdfrwt>
<totfact> 0.10367717E+04</totfact>
</mgrwt>
</event>
<event>
 5    1  0.3225662E-002  0.1249956E+03  0.7818608E-02  0.1235076E+00
         -4   -1    0    0    0  501 -0.00000000000E+00  0.00000000000E+00  0.22378042595E+03  0.22378402967E+03  0.12700000000E+01 0. -1.
          4   -1    0    0  501    0  0.00000000000E+00 -0.00000000000E+00 -0.17427651444E+02  0.17473864337E+02  0.12700000000E+01 0. -1.
         25    2    1    2    0    0  0.00000000000E+00  0.00000000000E+00  0.20635277450E+03  0.24125789401E+03  0.12499561543E+03 0.  0.
    9000005    1    3    3    0    0  0.46584098398E+02  0.48790620857E+01  0.18301693301E+03  0.18891818663E+03  0.10000000000E+01 0.  0.
    9000005    1    3    3    0    0 -0.46584098398E+02 -0.48790620857E+01  0.23335841487E+02  0.52339707377E+02  0.10000000000E+01 0.  0.
<mgrwt>
<rscale>  0 0.12499562E+03</rscale>
<asrwt>0</asrwt>
<pdfrwt beam="2">  1        4 0.26850094E-02 0.12499562E+03</pdfrwt>
<pdfrwt beam="1">  1       -4 0.34431587E-01 0.12499562E+03</pdfrwt>
<totfact> 0.83618557E+03</totfact>
</mgrwt>
</event>
<event>
 5    1  0.3225662E-002  0.1250031E+03  0.7818608E-02  0.1235064E+00
         -4   -1    0    0    0  501 -0.00000000000E+00  0.00000000000E+00  0.14716163604E+02  0.14770862236E+02  0.12700000000E+01 0.  1.
          4   -1    0    0  501    0  0.00000000000E+00 -0.00000000000E+00 -0.26490414683E+03  0.26490719112E+03  0.12700000000E+01 0.  1.
         25    2    1    2    0    0  0.00000000000E+00  0.00000000000E+00 -0.25018798323E+03  0.27967805336E+03  0.12500314628E+03 0.  0.
    9000005    1    3    3    0    0  0.16197810053E+02  0.40024209292E+02 -0.22617600156E+03  0.23026265450E+03  0.10000000000E+01 0.  0.
    9000005    1    3    3    0    0 -0.16197810053E+02 -0.40024209292E+02 -0.24011981671E+02  0.49415398853E+02  0.10000000000E+01 0.  0.
<mgrwt>
<rscale>  0 0.12500315E+03</rscale>
<asrwt>0</asrwt>
<pdfrwt beam="2">  1        4 0.40758922E-01 0.12500315E+03</pdfrwt>
<pdfrwt beam="1">  1       -4 0.22684671E-02 0.12500315E+03</pdfrwt>
<totfact> 0.78215344E+03</totfact>
</mgrwt>
</event>
<event>
 5    1  0.3225662E-002  0.1250019E+03  0.7818608E-02  0.1235066E+00
         -4   -1    0    0    0  501 -0.00000000000E+00  0.00000000000E+00  0.94230041112E+02  0.94238599034E+02  0.12700000000E+01 0.  1.
          4   -1    0    0  501    0  0.00000000000E+00 -0.00000000000E+00 -0.41435521674E+02  0.41454979874E+02  0.12700000000E+01 0.  1.
         25    2    1    2    0    0  0.00000000000E+00  0.00000000000E+00  0.52794519438E+02  0.13569357891E+03  0.12500194428E+03 0.  0.
    9000005    1    3    3    0    0  0.26678861626E+02 -0.72264393393E+01 -0.34444721728E+02  0.44174901676E+02  0.10000000000E+01 0.  0.
    9000005    1    3    3    0    0 -0.26678861626E+02  0.72264393393E+01  0.87239241166E+02  0.91518677233E+02  0.10000000000E+01 0.  0.
<mgrwt>
<rscale>  0 0.12500194E+03</rscale>
<asrwt>0</asrwt>
<pdfrwt beam="2">  1        4 0.63768509E-02 0.12500194E+03</pdfrwt>
<pdfrwt beam="1">  1       -4 0.14499084E-01 0.12500194E+03</pdfrwt>
<totfact> 0.10223024E+04</totfact>
</mgrwt>
</event>
<event>
 5    1  0.3225662E-002  0.1249948E+03  0.7818608E-02  0.1235077E+00
         -4   -1    0    0    0  501 -0.00000000000E+00  0.00000000000E+00  0.46682577199E+01  0.48379262230E+01  0.12700000000E+01 0.  1.
          4   -1    0    0  501    0  0.00000000000E+00 -0.00000000000E+00 -0.82159460788E+03  0.82159558945E+03  0.12700000000E+01 0.  1.
         25    2    1    2    0    0  0.00000000000E+00  0.00000000000E+00 -0.81692635016E+03  0.82643351567E+03  0.12499477683E+03 0.  0.
    9000005    1    3    3    0    0  0.39879497820E+02  0.42644948843E+02 -0.55570741323E+03  0.55876712065E+03  0.10000000000E+01 0.  0.
    9000005    1    3    3    0    0 -0.39879497820E+02 -0.42644948843E+02 -0.26121893694E+03  0.26766639502E+03  0.10000000000E+01 0.  0.
<mgrwt>
<rscale>  0 0.12499478E+03</rscale>
<asrwt>0</asrwt>
<pdfrwt beam="2">  1        4 0.12641218E+00 0.12499478E+03</pdfrwt>
<pdfrwt beam="1">  1       -4 0.73132108E-03 0.12499478E+03</pdfrwt>
<totfact> 0.37115813E+03</totfact>
</mgrwt>
</event>
<event>
 5    1  0.3225662E-002  0.1250002E+03  0.7818608E-02  0.1235069E+00
         -4   -1    0    0    0  501 -0.00000000000E+00  0.00000000000E+00  0.82822139320E+02  0.82831875878E+02  0.12700000000E+01 0.  1.
          4   -1    0    0  501    0  0.00000000000E+00 -0.00000000000E+00 -0.47143414589E+02  0.47160517799E+02  0.12700000000E+01 0.  1.
         25    2    1    2    0    0  0.00000000000E+00  0.00000000000E+00  0.35678724731E+02  0.12999239368E+03  0.12500020406E+03 0.  0.
    9000005    1    3    3    0    0 -0.22127452102E+02 -0.34387983280E+02 -0.31303654334E+02  0.51508021757E+02  0.10000000000E+01 0.  0.
    9000005    1    3    3    0    0  0.22127452102E+02  0.34387983280E+02  0.66982379065E+02  0.78484371921E+02  0.10000000000E+01 0.  0.
<mgrwt>
<rscale>  0 0.12500020E+03</rscale>
<asrwt>0</asrwt>
<pdfrwt beam="2">  1        4 0.72548977E-02 0.12500020E+03</pdfrwt>
<pdfrwt beam="1">  1       -4 0.12743932E-01 0.12500020E+03</pdfrwt>
<totfact> 0.10344623E+04</totfact>
</mgrwt>
</event>
<event>
 5    1  0.3225662E-002  0.1250008E+03  0.7818608E-02  0.1235068E+00
          4   -1    0    0  501    0  0.00000000000E+00  0.00000000000E+00  0.72810433098E+03  0.72810543858E+03  0.12700000000E+01 0. -1.
         -4   -1    0    0    0  501 -0.00000000000E+00 -0.00000000000E+00 -0.52887454727E+01  0.54390926335E+01  0.12700000000E+01 0. -1.
         25    2    1    2    0    0  0.00000000000E+00  0.00000000000E+00  0.72281558551E+03  0.73354453122E+03  0.12500083449E+03 0.  0.
    9000005    1    3    3    0    0 -0.30054565111E+02 -0.43386358290E+02  0.16504709996E+03  0.17328357734E+03  0.10000000000E+01 0.  0.
    9000005    1    3    3    0    0  0.30054565111E+02  0.43386358290E+02  0.55776848555E+03  0.56026095388E+03  0.10000000000E+01 0.  0.
<mgrwt>
<rscale>  0 0.12500083E+03</rscale>
<asrwt>0</asrwt>
<pdfrwt beam="1">  1        4 0.11202754E+00 0.12500083E+03</pdfrwt>
<pdfrwt beam="2">  1       -4 0.82530473E-03 0.12500083E+03</pdfrwt>
<totfact> 0.41373137E+03</totfact>
</mgrwt>
</event>
<event>
 5    1  0.3225662E-002  0.1250005E+03  0.7818608E-02  0.1235069E+00
          4   -1    0    0  501    0  0.00000000000E+00  0.00000000000E+00  0.32209929823E+03  0.32210180195E+03  0.12700000000E+01 0. -1.
         -4   -1    0    0    0  501 -0.00000000000E+00 -0.00000000000E+00 -0.12091753982E+02  0.12158265269E+02  0.12700000000E+01 0. -1.
         25    2    1    2    0    0  0.00000000000E+00  0.00000000000E+00  0.31000754425E+03  0.33426006722E+03  0.12500046019E+03 0.  0.
    9000005    1    3    3    0    0 -0.61596903898E+02  0.91307567550E+01  0.14092244161E+03  0.15407038599E+03  0.10000000000E+01 0.  0.
    9000005    1    3    3    0    0  0.61596903898E+02 -0.91307567550E+01  0.16908510264E+03  0.18018968123E+03  0.10000000000E+01 0.  0.
<mgrwt>
<rscale>  0 0.12500046E+03</rscale>
<asrwt>0</asrwt>
<pdfrwt beam="1">  1        4 0.49559047E-01 0.12500046E+03</pdfrwt>
<pdfrwt beam="2">  1       -4 0.18655787E-02 0.12500046E+03</pdfrwt>
<totfact> 0.71490843E+03</totfact>
</mgrwt>
</event>
<event>
 5    1  0.3225662E-002  0.1249979E+03  0.7818608E-02  0.1235073E+00
         -4   -1    0    0    0  501 -0.00000000000E+00  0.00000000000E+00  0.11499441495E+03  0.11500142768E+03  0.12700000000E+01 0. -1.
          4   -1    0    0  501    0  0.00000000000E+00 -0.00000000000E+00 -0.33947978130E+02  0.33971725289E+02  0.12700000000E+01 0. -1.
         25    2    1    2    0    0  0.00000000000E+00  0.00000000000E+00  0.81046436817E+02  0.14897315297E+03  0.12499790152E+03 0.  0.
    9000005    1    3    3    0    0 -0.19840494323E+02  0.16525760857E+02 -0.27298488076E+02  0.37589272912E+02  0.10000000000E+01 0.  0.
    9000005    1    3    3    0    0  0.19840494323E+02 -0.16525760857E+02  0.10834492489E+03  0.11138388006E+03  0.10000000000E+01 0.  0.
<mgrwt>
<rscale>  0 0.12499790E+03</rscale>
<asrwt>0</asrwt>
<pdfrwt beam="2">  1        4 0.52251321E-02 0.12499790E+03</pdfrwt>
<pdfrwt beam="1">  1       -4 0.17693814E-01 0.12499790E+03</pdfrwt>
<totfact> 0.99513480E+03</totfact>
</mgrwt>
</event>
<event>
 5    1  0.3225662E-002  0.1249990E+03  0.7818608E-02  0.1235071E+00
         -4   -1    0    0    0  501 -0.00000000000E+00  0.00000000000E+00  0.49512601986E+02  0.49528887080E+02  0.12700000000E+01 0. -1.
          4   -1    0    0  501    0  0.00000000000E+00 -0.00000000000E+00 -0.78858446675E+02  0.78868672564E+02  0.12700000000E+01 0. -1.
         25    2    1    2    0    0  0.00000000000E+00  0.00000000000E+00 -0.29345844690E+02  0.12839755964E+03  0.12499901888E+03 0.  0.
    9000005    1    3    3    0    0  0.44725332594E+02 -0.21390287194E+02  0.24404668709E+02  0.55267419124E+02  0.10000000000E+01 0.  0.
    9000005    1    3    3    0    0 -0.44725332594E+02  0.21390287194E+02 -0.53750513399E+02  0.73130140520E+02  0.10000000000E+01 0.  0.
<mgrwt>
<rscale>  0 0.12499902E+03</rscale>
<asrwt>0</asrwt>
<pdfrwt beam="2">  1        4 0.12134108E-01 0.12499902E+03</pdfrwt>
<pdfrwt beam="1">  1       -4 0.76193627E-02 0.12499902E+03</pdfrwt>
<totfact> 0.10379141E+04</totfact>
</mgrwt>
</event>
<event>
 5    1  0.3225662E-002  0.1249923E+03  0.7818608E-02  0.1235081E+00
         -4   -1    0    0    0  501 -0.00000000000E+00  0.00000000000E+00  0.61013341864E+03  0.61013474040E+03  0.12700000000E+01 0.  1.
          4   -1    0    0  501    0  0.00000000000E+00 -0.00000000000E+00 -0.63371689296E+01  0.64631733725E+01  0.12700000000E+01 0.  1.
         25    2    1    2    0    0  0.00000000000E+00  0.00000000000E+00  0.60379624971E+03  0.61659791377E+03  0.12499230417E+03 0.  0.
    9000005    1    3    3    0    0  0.39707346025E+01  0.43882396355E+02  0.83315182950E+02  0.94254183744E+02  0.10000000000E+01 0.  0.
    9000005    1    3    3    0    0 -0.39707346025E+01 -0.43882396355E+02  0.52048106676E+03  0.52234373003E+03  0.10000000000E+01 0.  0.
<mgrwt>
<rscale>  0 0.12499230E+03</rscale>
<asrwt>0</asrwt>
<pdfrwt beam="2">  1        4 0.98474345E-03 0.12499230E+03</pdfrwt>
<pdfrwt beam="1">  1       -4 0.93876468E-01 0.12499230E+03</pdfrwt>
<totfact> 0.47844459E+03</totfact>
</mgrwt>
</event>
<event>
 5    1  0.3225662E-002  0.1250001E+03  0.7818608E-02  0.1235069E+00
          4   -1    0    0  501    0  0.00000000000E+00  0.00000000000E+00  0.16202834333E+02  0.16252530278E+02  0.12700000000E+01 0.  1.
         -4   -1    0    0    0  501 -0.00000000000E+00 -0.00000000000E+00 -0.24066415801E+03  0.24066750892E+03  0.12700000000E+01 0.  1.
         25    2    1    2    0    0  0.00000000000E+00  0.00000000000E+00 -0.22446132368E+03  0.25692003920E+03  0.12500008286E+03 0.  0.
    9000005    1    3    3    0    0 -0.34100091943E+02 -0.47395062725E+02 -0.66448864742E+02  0.88462194562E+02  0.10000000000E+01 0.  0.
    9000005    1    3    3    0    0  0.34100091943E+02  0.47395062725E+02 -0.15801245894E+03  0.16845784464E+03  0.10000000000E+01 0.  0.
<mgrwt>
<rscale>  0 0.12500008E+03</rscale>
<asrwt>0</asrwt>
<pdfrwt beam="1">  1        4 0.24968245E-02 0.12500008E+03</pdfrwt>
<pdfrwt beam="2">  1       -4 0.37029333E-01 0.12500008E+03</pdfrwt>
<totfact> 0.81340093E+03</totfact>
</mgrwt>
</event>
<event>
 5    1  0.3225662E-002  0.1250062E+03  0.7818608E-02  0.1235060E+00
          4   -1    0    0  501    0  0.00000000000E+00  0.00000000000E+00  0.63376704725E+03  0.63376831972E+03  0.12700000000E+01 0.  1.
         -4   -1    0    0    0  501 -0.00000000000E+00 -0.00000000000E+00 -0.60974517667E+01  0.62283077996E+01  0.12700000000E+01 0.  1.
         25    2    1    2    0    0  0.00000000000E+00  0.00000000000E+00  0.62766959548E+03  0.63999662751E+03  0.12500624841E+03 0.  0.
    9000005    1    3    3    0    0  0.53622334328E+02  0.29575195684E+02  0.24997289941E+03  0.25736646514E+03  0.10000000000E+01 0.  0.
    9000005    1    3    3    0    0 -0.53622334328E+02 -0.29575195684E+02  0.37769669607E+03  0.38263016237E+03  0.10000000000E+01 0.  0.
<mgrwt>
<rscale>  0 0.12500625E+03</rscale>
<asrwt>0</asrwt>
<pdfrwt beam="1">  1        4 0.97512744E-01 0.12500625E+03</pdfrwt>
<pdfrwt beam="2">  1       -4 0.94823365E-03 0.12500625E+03</pdfrwt>
<totfact> 0.46430075E+03</totfact>
</mgrwt>
</event>
<event>
 5    1  0.3225662E-002  0.1249916E+03  0.7818608E-02  0.1235082E+00
          4   -1    0    0  501    0  0.00000000000E+00  0.00000000000E+00  0.83803644058E+02  0.83813266596E+02  0.12700000000E+01 0.  1.
         -4   -1    0    0    0  501 -0.00000000000E+00 -0.00000000000E+00 -0.46584729571E+02  0.46602037823E+02  0.12700000000E+01 0.  1.
         25    2    1    2    0    0  0.00000000000E+00  0.00000000000E+00  0.37218914487E+02  0.13041530442E+03  0.12499161584E+03 0.  0.
    9000005    1    3    3    0    0 -0.25449401289E+02  0.50439362656E+02 -0.92497978906E+01  0.57256965446E+02  0.10000000000E+01 0.  0.
    9000005    1    3    3    0    0  0.25449401289E+02 -0.50439362656E+02  0.46468712378E+02  0.73158338972E+02  0.10000000000E+01 0.  0.
<mgrwt>
<rscale>  0 0.12499162E+03</rscale>
<asrwt>0</asrwt>
<pdfrwt beam="1">  1        4 0.12894940E-01 0.12499162E+03</pdfrwt>
<pdfrwt beam="2">  1       -4 0.71689531E-02 0.12499162E+03</pdfrwt>
<totfact> 0.10337587E+04</totfact>
</mgrwt>
</event>
<event>
 5    1  0.3225662E-002  0.1249860E+03  0.7818608E-02  0.1235091E+00
         -4   -1    0    0    0  501 -0.00000000000E+00  0.00000000000E+00  0.91409000445E+03  0.91409088669E+03  0.12700000000E+01 0.  1.
          4   -1    0    0  501    0  0.00000000000E+00 -0.00000000000E+00 -0.41771339253E+01  0.43659303510E+01  0.12700000000E+01 0.  1.
         25    2    1    2    0    0  0.00000000000E+00  0.00000000000E+00  0.90991287052E+03  0.91845681704E+03  0.12498597053E+03 0.  0.
    9000005    1    3    3    0    0 -0.20489731025E+02 -0.58937181214E+02  0.43063663211E+03  0.43513484039E+03  0.10000000000E+01 0.  0.
    9000005    1    3    3    0    0  0.20489731025E+02  0.58937181214E+02  0.47927623841E+03  0.48332197665E+03  0.10000000000E+01 0.  0.
<mgrwt>
<rscale>  0 0.12498597E+03</rscale>
<asrwt>0</asrwt>
<pdfrwt beam="2">  1        4 0.65722638E-03 0.12498597E+03</pdfrwt>
<pdfrwt beam="1">  1       -4 0.14064388E+00 0.12498597E+03</pdfrwt>
<totfact> 0.33473208E+03</totfact>
</mgrwt>
</event>
<event>
 5    1  0.3225662E-002  0.1249959E+03  0.7818608E-02  0.1235076E+00
         -4   -1    0    0    0  501 -0.00000000000E+00  0.00000000000E+00  0.12903773667E+02  0.12966120269E+02  0.12700000000E+01 0.  1.
          4   -1    0    0  501    0  0.00000000000E+00 -0.00000000000E+00 -0.30190868999E+03  0.30191136115E+03  0.12700000000E+01 0.  1.
         25    2    1    2    0    0  0.00000000000E+00  0.00000000000E+00 -0.28900491633E+03  0.31487748142E+03  0.12499594652E+03 0.  0.
    9000005    1    3    3    0    0 -0.27366867082E+02 -0.33465637768E+02 -0.25817235729E+03  0.26176871546E+03  0.10000000000E+01 0.  0.
    9000005    1    3    3    0    0  0.27366867082E+02  0.33465637768E+02 -0.30832559034E+02  0.53108765959E+02  0.10000000000E+01 0.  0.
<mgrwt>
<rscale>  0 0.12499595E+03</rscale>
<asrwt>0</asrwt>
<pdfrwt beam="2">  1        4 0.46452487E-01 0.12499595E+03</pdfrwt>
<pdfrwt beam="1">  1       -4 0.19901975E-02 0.12499595E+03</pdfrwt>
<totfact> 0.73776185E+03</totfact>
</mgrwt>
</event>
<event>
 5    1  0.3225662E-002  0.1250010E+03  0.7818608E-02  0.1235068E+00
         -4   -1    0    0    0  501 -0.00000000000E+00  0.00000000000E+00  0.42761091706E+02  0.42779946983E+02  0.12700000000E+01 0.  1.
          4   -1    0    0  501    0  0.00000000000E+00 -0.00000000000E+00 -0.91308560821E+02  0.91317392534E+02  0.12700000000E+01 0.  1.
         25    2    1    2    0    0  0.00000000000E+00  0.00000000000E+00 -0.48547469115E+02  0.13409733952E+03  0.12500095883E+03 0.  0.
    9000005    1    3    3    0    0 -0.25098534619E+02 -0.57137362870E+02 -0.27782079718E+02  0.68318801433E+02  0.10000000000E+01 0.  0.
    9000005    1    3    3    0    0  0.25098534619E+02  0.57137362870E+02 -0.20765389397E+02  0.65778538085E+02  0.10000000000E+01 0.  0.
<mgrwt>
<rscale>  0 0.12500096E+03</rscale>
<asrwt>0</asrwt>
<pdfrwt beam="2">  1        4 0.14049601E-01 0.12500096E+03</pdfrwt>
<pdfrwt beam="1">  1       -4 0.65807593E-02 0.12500096E+03</pdfrwt>
<totfact> 0.10256910E+04</totfact>
</mgrwt>
</event>
<event>
 5    1  0.3225662E-002  0.1249999E+03  0.7818608E-02  0.1235069E+00
         -4   -1    0    0    0  501 -0.00000000000E+00  0.00000000000E+00  0.12787274610E+03  0.12787905261E+03  0.12700000000E+01 0. -1.
          4   -1    0    0  501    0  0.00000000000E+00 -0.00000000000E+00 -0.30527652719E+02  0.30554058332E+02  0.12700000000E+01 0. -1.
         25    2    1    2    0    0  0.00000000000E+00  0.00000000000E+00  0.97345093382E+02  0.15843311094E+03  0.12499993374E+03 0.  0.
    9000005    1    3    3    0    0  0.29409977972E+02 -0.54097579079E+02  0.35154505533E+02  0.70910747604E+02  0.10000000000E+01 0.  0.
    9000005    1    3    3    0    0 -0.29409977972E+02  0.54097579079E+02  0.62190587849E+02  0.87522363334E+02  0.10000000000E+01 0.  0.
<mgrwt>
<rscale>  0 0.12499993E+03</rscale>
<asrwt>0</asrwt>
<pdfrwt beam="2">  1        4 0.46990782E-02 0.12499993E+03</pdfrwt>
<pdfrwt beam="1">  1       -4 0.19675247E-01 0.12499993E+03</pdfrwt>
<totfact> 0.97645867E+03</totfact>
</mgrwt>
</event>
<event>
 5    1  0.3225662E-002  0.1250056E+03  0.7818608E-02  0.1235060E+00
          4   -1    0    0  501    0  0.00000000000E+00  0.00000000000E+00  0.78087739513E+03  0.78087842788E+03  0.12700000000E+01 0. -1.
         -4   -1    0    0    0  501 -0.00000000000E+00 -0.00000000000E+00 -0.49211856402E+01  0.50824175454E+01  0.12700000000E+01 0. -1.
         25    2    1    2    0    0  0.00000000000E+00  0.00000000000E+00  0.77595620949E+03  0.78596084542E+03  0.12500564584E+03 0.  0.
    9000005    1    3    3    0    0 -0.42383041310E+02 -0.44200809498E+02  0.30955699506E+03  0.31555754933E+03  0.10000000000E+01 0.  0.
    9000005    1    3    3    0    0  0.42383041310E+02  0.44200809498E+02  0.46639921443E+03  0.47040329609E+03  0.10000000000E+01 0.  0.
<mgrwt>
<rscale>  0 0.12500565E+03</rscale>
<asrwt>0</asrwt>
<pdfrwt beam="1">  1        4 0.12014739E+00 0.12500565E+03</pdfrwt>
<pdfrwt beam="2">  1       -4 0.76958786E-03 0.12500565E+03</pdfrwt>
<totfact> 0.38894432E+03</totfact>
</mgrwt>
</event>
<event>
 5    1  0.3225662E-002  0.1249981E+03  0.7818608E-02  0.1235072E+00
          4   -1    0    0  501    0  0.00000000000E+00  0.00000000000E+00  0.18164892106E+02  0.18209234065E+02  0.12700000000E+01 0.  1.
         -4   -1    0    0    0  501 -0.00000000000E+00 -0.00000000000E+00 -0.21472907822E+03  0.21473283385E+03  0.12700000000E+01 0.  1.
         25    2    1    2    0    0  0.00000000000E+00  0.00000000000E+00 -0.19656418611E+03  0.23294206792E+03  0.12499811095E+03 0.  0.
    9000005    1    3    3    0    0  0.55088323101E+02 -0.29501912437E+02 -0.97883464312E+02  0.11613465790E+03  0.10000000000E+01 0.  0.
    9000005    1    3    3    0    0 -0.55088323101E+02  0.29501912437E+02 -0.98680721802E+02  0.11680741002E+03  0.10000000000E+01 0.  0.
<mgrwt>
<rscale>  0 0.12499811E+03</rscale>
<asrwt>0</asrwt>
<pdfrwt beam="1">  1        4 0.27982988E-02 0.12499811E+03</pdfrwt>
<pdfrwt beam="2">  1       -4 0.33038941E-01 0.12499811E+03</pdfrwt>
<totfact> 0.84863454E+03</totfact>
</mgrwt>
</event>
<event>
 5    1  0.3225662E-002  0.1249995E+03  0.7818608E-02  0.1235070E+00
         -4   -1    0    0    0  501 -0.00000000000E+00  0.00000000000E+00  0.27124361963E+02  0.27154077261E+02  0.12700000000E+01 0.  1.
          4   -1    0    0  501    0  0.00000000000E+00 -0.00000000000E+00 -0.14390005671E+03  0.14390566084E+03  0.12700000000E+01 0.  1.
         25    2    1    2    0    0  0.00000000000E+00  0.00000000000E+00 -0.11677569474E+03  0.17105973810E+03  0.12499948446E+03 0.  0.
    9000005    1    3    3    0    0 -0.27631276261E+02  0.27481672438E+02 -0.12524058728E+03  0.13116758156E+03  0.10000000000E+01 0.  0.
    9000005    1    3    3    0    0  0.27631276261E+02 -0.27481672438E+02  0.84648925406E+01  0.39892156541E+02  0.10000000000E+01 0.  0.
<mgrwt>
<rscale>  0 0.12499948E+03</rscale>
<asrwt>0</asrwt>
<pdfrwt beam="2">  1        4 0.22141187E-01 0.12499948E+03</pdfrwt>
<pdfrwt beam="1">  1       -4 0.41756957E-02 0.12499948E+03</pdfrwt>
<totfact> 0.95252586E+03</totfact>
</mgrwt>
</event>
<event>
 5    1  0.3225662E-002  0.1249964E+03  0.7818608E-02  0.1235075E+00
         -4   -1    0    0    0  501 -0.00000000000E+00  0.00000000000E+00  0.46590233214E+02  0.46607539421E+02  0.12700000000E+01 0. -1.
          4   -1    0    0  501    0  0.00000000000E+00 -0.00000000000E+00 -0.83800142163E+02  0.83809765103E+02  0.12700000000E+01 0. -1.
         25    2    1    2    0    0  0.00000000000E+00  0.00000000000E+00 -0.37209908949E+02  0.13041730452E+03  0.12499638393E+03 0.  0.
    9000005    1    3    3    0    0  0.20742574026E+02 -0.54435953735E+02  0.49921725488E+01  0.58476056835E+02  0.10000000000E+01 0.  0.
    9000005    1    3    3    0    0 -0.20742574026E+02  0.54435953735E+02 -0.42202081498E+02  0.71941247689E+02  0.10000000000E+01 0.  0.
<mgrwt>
<rscale>  0 0.12499638E+03</rscale>
<asrwt>0</asrwt>
<pdfrwt beam="2">  1        4 0.12894401E-01 0.12499638E+03</pdfrwt>
<pdfrwt beam="1">  1       -4 0.71697997E-02 0.12499638E+03</pdfrwt>
<totfact> 0.10336432E+04</totfact>
</mgrwt>
</event>
<event>
 5    1  0.3225662E-002  0.1249971E+03  0.7818608E-02  0.1235074E+00
          4   -1    0    0  501    0  0.00000000000E+00  0.00000000000E+00  0.29992329513E+03  0.29992598397E+03  0.12700000000E+01 0.  1.
         -4   -1    0    0    0  501 -0.00000000000E+00 -0.00000000000E+00 -0.12989846590E+02  0.13051782041E+02  0.12700000000E+01 0.  1.
         25    2    1    2    0    0  0.00000000000E+00  0.00000000000E+00  0.28693344854E+03  0.31297776601E+03  0.12499711248E+03 0.  0.
    9000005    1    3    3    0    0  0.54898523575E+02  0.21887132103E+02  0.19430073499E+03  0.20309276220E+03  0.10000000000E+01 0.  0.
    9000005    1    3    3    0    0 -0.54898523575E+02 -0.21887132103E+02  0.92632713553E+02  0.10988500381E+03  0.10000000000E+01 0.  0.
<mgrwt>
<rscale>  0 0.12499711E+03</rscale>
<asrwt>0</asrwt>
<pdfrwt beam="1">  1        4 0.46147020E-01 0.12499711E+03</pdfrwt>
<pdfrwt beam="2">  1       -4 0.20034089E-02 0.12499711E+03</pdfrwt>
<totfact> 0.74003920E+03</totfact>
</mgrwt>
</event>
