<event>
 5    1  0.3243498E-002  0.1249783E+03  0.7818608E-02  0.1235103E+00
          4   -1    0    0  501    0  0.00000000000E+00  0.00000000000E+00  0.22809061023E+02  0.22844390225E+02  0.12700000000E+01 0.  1.
         -4   -1    0    0    0  501 -0.00000000000E+00 -0.00000000000E+00 -0.17102909327E+03  0.17103380848E+03  0.12700000000E+01 0.  1.
         25    2    1    2    0    0  0.00000000000E+00  0.00000000000E+00 -0.14822003224E+03  0.19387819871E+03  0.12497831002E+03 0.  0.
    9000005    1    3    3    0    0 -0.61883885870E+02 -0.84498290090E+01 -0.71477585855E+02  0.94926604387E+02  0.10000000000E+01 0.  0.
    9000005    1    3    3    0    0  0.61883885870E+02  0.84498290090E+01 -0.76742446388E+02  0.98951594320E+02  0.10000000000E+01 0.  0.
<mgrwt>
<rscale>  0 0.12497831E+03</rscale>
<asrwt>0</asrwt>
<pdfrwt beam="1">  1        4 0.35121668E-02 0.12497831E+03</pdfrwt>
<pdfrwt beam="2">  1       -4 0.26315248E-01 0.12497831E+03</pdfrwt>
<totfact> 0.91221162E+03</totfact>
</mgrwt>
</event>
<event>
 5    1  0.3243498E-002  0.1250017E+03  0.7818608E-02  0.1235067E+00
         -4   -1    0    0    0  501 -0.00000000000E+00  0.00000000000E+00  0.58158886904E+01  0.59529371960E+01  0.12700000000E+01 0. -1.
          4   -1    0    0  501    0  0.00000000000E+00 -0.00000000000E+00 -0.66371044134E+03  0.66371165640E+03  0.12700000000E+01 0. -1.
         25    2    1    2    0    0  0.00000000000E+00  0.00000000000E+00 -0.65789455265E+03  0.66966459360E+03  0.12500170204E+03 0.  0.
    9000005    1    3    3    0    0  0.47985012996E+02  0.12487038773E+02 -0.53272466014E+03  0.53502808443E+03  0.10000000000E+01 0.  0.
    9000005    1    3    3    0    0 -0.47985012996E+02 -0.12487038773E+02 -0.12516989251E+03  0.13463650916E+03  0.10000000000E+01 0.  0.
<mgrwt>
<rscale>  0 0.12500170E+03</rscale>
<asrwt>0</asrwt>
<pdfrwt beam="2">  1        4 0.10211988E+00 0.12500170E+03</pdfrwt>
<pdfrwt beam="1">  1       -4 0.90538829E-03 0.12500170E+03</pdfrwt>
<totfact> 0.44735496E+03</totfact>
</mgrwt>
</event>
<event>
 5    1  0.3243498E-002  0.1250037E+03  0.7818608E-02  0.1235063E+00
          4   -1    0    0  501    0  0.00000000000E+00  0.00000000000E+00  0.11373027053E+03  0.11373736121E+03  0.12700000000E+01 0.  1.
         -4   -1    0    0    0  501 -0.00000000000E+00 -0.00000000000E+00 -0.34328752442E+02  0.34352236379E+02  0.12700000000E+01 0.  1.
         25    2    1    2    0    0  0.00000000000E+00  0.00000000000E+00  0.79401518086E+02  0.14808959759E+03  0.12500371130E+03 0.  0.
    9000005    1    3    3    0    0 -0.10294628883E+02 -0.57736201506E+02  0.65275442434E+02  0.87757231799E+02  0.10000000000E+01 0.  0.
    9000005    1    3    3    0    0  0.10294628883E+02  0.57736201506E+02  0.14126075653E+02  0.60332365787E+02  0.10000000000E+01 0.  0.
<mgrwt>
<rscale>  0 0.12500371E+03</rscale>
<asrwt>0</asrwt>
<pdfrwt beam="1">  1        4 0.17499316E-01 0.12500371E+03</pdfrwt>
<pdfrwt beam="2">  1       -4 0.52836985E-02 0.12500371E+03</pdfrwt>
<totfact> 0.99677552E+03</totfact>
</mgrwt>
</event>
<event>
 5    1  0.3243498E-002  0.1249959E+03  0.7818608E-02  0.1235076E+00
          4   -1    0    0  501    0  0.00000000000E+00  0.00000000000E+00  0.22028552160E+04  0.22028555821E+04  0.12700000000E+01 0. -1.
         -4   -1    0    0    0  501 -0.00000000000E+00 -0.00000000000E+00 -0.15453303781E+01  0.20002364804E+01  0.12700000000E+01 0. -1.
         25    2    1    2    0    0  0.00000000000E+00  0.00000000000E+00  0.22013098856E+04  0.22048558186E+04  0.12499587257E+03 0.  0.
    9000005    1    3    3    0    0  0.33887391226E+02 -0.48844689155E+02  0.14403379070E+04  0.14415645824E+04  0.10000000000E+01 0.  0.
    9000005    1    3    3    0    0 -0.33887391226E+02  0.48844689155E+02  0.76097197861E+03  0.76329123614E+03  0.10000000000E+01 0.  0.
<mgrwt>
<rscale>  0 0.12499587E+03</rscale>
<asrwt>0</asrwt>
<pdfrwt beam="1">  1        4 0.33893630E+00 0.12499587E+03</pdfrwt>
<pdfrwt beam="2">  1       -4 0.27276369E-03 0.12499587E+03</pdfrwt>
<totfact> 0.74194976E+02</totfact>
</mgrwt>
</event>
<event>
 5    1  0.3243498E-002  0.1250032E+03  0.7818608E-02  0.1235064E+00
         -4   -1    0    0    0  501 -0.00000000000E+00  0.00000000000E+00  0.60265848003E+02  0.60279228060E+02  0.12700000000E+01 0.  1.
          4   -1    0    0  501    0  0.00000000000E+00 -0.00000000000E+00 -0.64793465124E+02  0.64805910400E+02  0.12700000000E+01 0.  1.
         25    2    1    2    0    0  0.00000000000E+00  0.00000000000E+00 -0.45276171206E+01  0.12508513846E+03  0.12500317015E+03 0.  0.
    9000005    1    3    3    0    0  0.45357903964E+02  0.39088420500E+02  0.15642172002E+02  0.61894439283E+02  0.10000000000E+01 0.  0.
    9000005    1    3    3    0    0 -0.45357903964E+02 -0.39088420500E+02 -0.20169789123E+02  0.63190699177E+02  0.10000000000E+01 0.  0.
<mgrwt>
<rscale>  0 0.12500317E+03</rscale>
<asrwt>0</asrwt>
<pdfrwt beam="2">  1        4 0.99702119E-02 0.12500317E+03</pdfrwt>
<pdfrwt beam="1">  1       -4 0.92736555E-02 0.12500317E+03</pdfrwt>
<totfact> 0.10450265E+04</totfact>
</mgrwt>
</event>
<event>
 5    1  0.3243498E-002  0.1249973E+03  0.7818608E-02  0.1235074E+00
          4   -1    0    0  501    0  0.00000000000E+00  0.00000000000E+00  0.12267327123E+02  0.12332891580E+02  0.12700000000E+01 0. -1.
         -4   -1    0    0    0  501 -0.00000000000E+00 -0.00000000000E+00 -0.31749778640E+03  0.31750032641E+03  0.12700000000E+01 0. -1.
         25    2    1    2    0    0  0.00000000000E+00  0.00000000000E+00 -0.30523045928E+03  0.32983321799E+03  0.12499727364E+03 0.  0.
    9000005    1    3    3    0    0  0.38290940614E+02  0.31935577128E+02 -0.25201500756E+03  0.25690200710E+03  0.10000000000E+01 0.  0.
    9000005    1    3    3    0    0 -0.38290940614E+02 -0.31935577128E+02 -0.53215451726E+02  0.72931210891E+02  0.10000000000E+01 0.  0.
<mgrwt>
<rscale>  0 0.12499727E+03</rscale>
<asrwt>0</asrwt>
<pdfrwt beam="1">  1        4 0.18925201E-02 0.12499727E+03</pdfrwt>
<pdfrwt beam="2">  1       -4 0.48851046E-01 0.12499727E+03</pdfrwt>
<totfact> 0.72006010E+03</totfact>
</mgrwt>
</event>
<event>
 5    1  0.3243498E-002  0.1250004E+03  0.7818608E-02  0.1235069E+00
         -4   -1    0    0    0  501 -0.00000000000E+00  0.00000000000E+00  0.88250303167E+02  0.88259440907E+02  0.12700000000E+01 0.  1.
          4   -1    0    0  501    0  0.00000000000E+00 -0.00000000000E+00 -0.44243034036E+02  0.44261258011E+02  0.12700000000E+01 0.  1.
         25    2    1    2    0    0  0.00000000000E+00  0.00000000000E+00  0.44007269131E+02  0.13252069892E+03  0.12500038362E+03 0.  0.
    9000005    1    3    3    0    0 -0.32574896770E+02  0.96005195492E+01  0.77619028340E+02  0.84729023573E+02  0.10000000000E+01 0.  0.
    9000005    1    3    3    0    0  0.32574896770E+02 -0.96005195492E+01 -0.33611759209E+02  0.47791675345E+02  0.10000000000E+01 0.  0.
<mgrwt>
<rscale>  0 0.12500038E+03</rscale>
<asrwt>0</asrwt>
<pdfrwt beam="2">  1        4 0.68087254E-02 0.12500038E+03</pdfrwt>
<pdfrwt beam="1">  1       -4 0.13579074E-01 0.12500038E+03</pdfrwt>
<totfact> 0.10290508E+04</totfact>
</mgrwt>
</event>
<event>
 5    1  0.3243498E-002  0.1250025E+03  0.7818608E-02  0.1235065E+00
         -4   -1    0    0    0  501 -0.00000000000E+00  0.00000000000E+00  0.10900355959E+03  0.10901095772E+03  0.12700000000E+01 0. -1.
          4   -1    0    0  501    0  0.00000000000E+00 -0.00000000000E+00 -0.35817575681E+02  0.35840084091E+02  0.12700000000E+01 0. -1.
         25    2    1    2    0    0  0.00000000000E+00  0.00000000000E+00  0.73185983905E+02  0.14485104181E+03  0.12500254427E+03 0.  0.
    9000005    1    3    3    0    0  0.57526284361E+01  0.38210222876E+02 -0.20320861665E+02  0.43669798316E+02  0.10000000000E+01 0.  0.
    9000005    1    3    3    0    0 -0.57526284361E+01 -0.38210222876E+02  0.93506845570E+02  0.10118124349E+03  0.10000000000E+01 0.  0.
<mgrwt>
<rscale>  0 0.12500254E+03</rscale>
<asrwt>0</asrwt>
<pdfrwt beam="2">  1        4 0.55126969E-02 0.12500254E+03</pdfrwt>
<pdfrwt beam="1">  1       -4 0.16772078E-01 0.12500254E+03</pdfrwt>
<totfact> 0.10033441E+04</totfact>
</mgrwt>
</event>
<event>
 5    1  0.3243498E-002  0.1249994E+03  0.7818608E-02  0.1235070E+00
          4   -1    0    0  501    0  0.00000000000E+00  0.00000000000E+00  0.14801696373E+03  0.14802241199E+03  0.12700000000E+01 0. -1.
         -4   -1    0    0    0  501 -0.00000000000E+00 -0.00000000000E+00 -0.26369103913E+02  0.26399669339E+02  0.12700000000E+01 0. -1.
         25    2    1    2    0    0  0.00000000000E+00  0.00000000000E+00  0.12164785981E+03  0.17442208133E+03  0.12499944263E+03 0.  0.
    9000005    1    3    3    0    0 -0.25567068167E+02 -0.42295386535E+02  0.11418962623E+03  0.12443008252E+03  0.10000000000E+01 0.  0.
    9000005    1    3    3    0    0  0.25567068167E+02  0.42295386535E+02  0.74582335830E+01  0.49991998810E+02  0.10000000000E+01 0.  0.
<mgrwt>
<rscale>  0 0.12499944E+03</rscale>
<asrwt>0</asrwt>
<pdfrwt beam="1">  1        4 0.22774610E-01 0.12499944E+03</pdfrwt>
<pdfrwt beam="2">  1       -4 0.40595556E-02 0.12499944E+03</pdfrwt>
<totfact> 0.94631975E+03</totfact>
</mgrwt>
</event>
<event>
 5    1  0.3243498E-002  0.1250005E+03  0.7818608E-02  0.1235068E+00
         -4   -1    0    0    0  501 -0.00000000000E+00  0.00000000000E+00  0.17619359067E+03  0.17619816768E+03  0.12700000000E+01 0. -1.
          4   -1    0    0  501    0  0.00000000000E+00 -0.00000000000E+00 -0.22147345001E+02  0.22183728059E+02  0.12700000000E+01 0. -1.
         25    2    1    2    0    0  0.00000000000E+00  0.00000000000E+00  0.15404624567E+03  0.19838189574E+03  0.12500052301E+03 0.  0.
    9000005    1    3    3    0    0  0.35035031340E+02 -0.44266483859E+02  0.11955802703E+03  0.13221988066E+03  0.10000000000E+01 0.  0.
    9000005    1    3    3    0    0 -0.35035031340E+02  0.44266483859E+02  0.34488218637E+02  0.66162015076E+02  0.10000000000E+01 0.  0.
<mgrwt>
<rscale>  0 0.12500052E+03</rscale>
<asrwt>0</asrwt>
<pdfrwt beam="2">  1        4 0.34104346E-02 0.12500052E+03</pdfrwt>
<pdfrwt beam="1">  1       -4 0.27109857E-01 0.12500052E+03</pdfrwt>
<totfact> 0.90407940E+03</totfact>
</mgrwt>
</event>
<event>
 5    1  0.3243498E-002  0.1250039E+03  0.7818608E-02  0.1235063E+00
         -4   -1    0    0    0  501 -0.00000000000E+00  0.00000000000E+00  0.92776954771E+02  0.92785646716E+02  0.12700000000E+01 0. -1.
          4   -1    0    0  501    0  0.00000000000E+00 -0.00000000000E+00 -0.42086026172E+02  0.42105183754E+02  0.12700000000E+01 0. -1.
         25    2    1    2    0    0  0.00000000000E+00  0.00000000000E+00  0.50690928599E+02  0.13489083047E+03  0.12500386355E+03 0.  0.
    9000005    1    3    3    0    0  0.69370330642E+01 -0.27158859003E+02  0.85618069364E+02  0.90095393066E+02  0.10000000000E+01 0.  0.
    9000005    1    3    3    0    0 -0.69370330642E+01  0.27158859003E+02 -0.34927140766E+02  0.44795437403E+02  0.10000000000E+01 0.  0.
<mgrwt>
<rscale>  0 0.12500386E+03</rscale>
<asrwt>0</asrwt>
<pdfrwt beam="2">  1        4 0.64769156E-02 0.12500386E+03</pdfrwt>
<pdfrwt beam="1">  1       -4 0.14275520E-01 0.12500386E+03</pdfrwt>
<totfact> 0.10239480E+04</totfact>
</mgrwt>
</event>
<event>
 5    1  0.3243498E-002  0.1250032E+03  0.7818608E-02  0.1235064E+00
          4   -1    0    0  501    0  0.00000000000E+00  0.00000000000E+00  0.43540464119E+02  0.43558982032E+02  0.12700000000E+01 0. -1.
         -4   -1    0    0    0  501 -0.00000000000E+00 -0.00000000000E+00 -0.89677833229E+02  0.89686825524E+02  0.12700000000E+01 0. -1.
         25    2    1    2    0    0  0.00000000000E+00  0.00000000000E+00 -0.46137369110E+02  0.13324580756E+03  0.12500315357E+03 0.  0.
    9000005    1    3    3    0    0  0.24061802488E+02 -0.35406773844E+02 -0.71599230086E+02  0.83426972389E+02  0.10000000000E+01 0.  0.
    9000005    1    3    3    0    0 -0.24061802488E+02  0.35406773844E+02  0.25461860976E+02  0.49818835167E+02  0.10000000000E+01 0.  0.
<mgrwt>
<rscale>  0 0.12500315E+03</rscale>
<asrwt>0</asrwt>
<pdfrwt beam="1">  1        4 0.67006491E-02 0.12500315E+03</pdfrwt>
<pdfrwt beam="2">  1       -4 0.13798706E-01 0.12500315E+03</pdfrwt>
<totfact> 0.10274448E+04</totfact>
</mgrwt>
</event>
<event>
 5    1  0.3243498E-002  0.1249825E+03  0.7818608E-02  0.1235097E+00
         -4   -1    0    0    0  501 -0.00000000000E+00  0.00000000000E+00  0.90734165993E+02  0.90743053610E+02  0.12700000000E+01 0.  1.
          4   -1    0    0  501    0  0.00000000000E+00 -0.00000000000E+00 -0.43019135773E+02  0.43037877999E+02  0.12700000000E+01 0.  1.
         25    2    1    2    0    0  0.00000000000E+00  0.00000000000E+00  0.47715030220E+02  0.13378093161E+03  0.12498245298E+03 0.  0.
    9000005    1    3    3    0    0 -0.51599310310E+02 -0.33188314534E+02  0.36531690378E+02  0.71410905666E+02  0.10000000000E+01 0.  0.
    9000005    1    3    3    0    0  0.51599310310E+02  0.33188314534E+02  0.11183339842E+02  0.62370025943E+02  0.10000000000E+01 0.  0.
<mgrwt>
<rscale>  0 0.12498245E+03</rscale>
<asrwt>0</asrwt>
<pdfrwt beam="2">  1        4 0.66204540E-02 0.12498245E+03</pdfrwt>
<pdfrwt beam="1">  1       -4 0.13961228E-01 0.12498245E+03</pdfrwt>
<totfact> 0.10267893E+04</totfact>
</mgrwt>
</event>
<event>
 5    1  0.3243498E-002  0.1250033E+03  0.7818608E-02  0.1235064E+00
          4   -1    0    0  501    0  0.00000000000E+00  0.00000000000E+00  0.50447868412E+01  0.52021893731E+01  0.12700000000E+01 0.  1.
         -4   -1    0    0    0  501 -0.00000000000E+00 -0.00000000000E+00 -0.76230256174E+03  0.76230361965E+03  0.12700000000E+01 0.  1.
         25    2    1    2    0    0  0.00000000000E+00  0.00000000000E+00 -0.75725777490E+03  0.76750580903E+03  0.12500331693E+03 0.  0.
    9000005    1    3    3    0    0  0.43957369415E+01 -0.28252122510E+02 -0.71981820991E+03  0.72038653530E+03  0.10000000000E+01 0.  0.
    9000005    1    3    3    0    0 -0.43957369415E+01  0.28252122510E+02 -0.37439564994E+02  0.47119273727E+02  0.10000000000E+01 0.  0.
<mgrwt>
<rscale>  0 0.12500332E+03</rscale>
<asrwt>0</asrwt>
<pdfrwt beam="1">  1        4 0.78831092E-03 0.12500332E+03</pdfrwt>
<pdfrwt beam="2">  1       -4 0.11728942E+00 0.12500332E+03</pdfrwt>
<totfact> 0.39747644E+03</totfact>
</mgrwt>
</event>
<event>
 5    1  0.3243498E-002  0.1250017E+03  0.7818608E-02  0.1235067E+00
         -4   -1    0    0    0  501 -0.00000000000E+00  0.00000000000E+00  0.37694526013E+02  0.37715914298E+02  0.12700000000E+01 0.  1.
          4   -1    0    0  501    0  0.00000000000E+00 -0.00000000000E+00 -0.10357720089E+03  0.10358498658E+03  0.12700000000E+01 0.  1.
         25    2    1    2    0    0  0.00000000000E+00  0.00000000000E+00 -0.65882674882E+02  0.14130090088E+03  0.12500167095E+03 0.  0.
    9000005    1    3    3    0    0 -0.48285553781E+02 -0.27643102520E+02 -0.77540289422E+00  0.55652826258E+02  0.10000000000E+01 0.  0.
    9000005    1    3    3    0    0  0.48285553781E+02  0.27643102520E+02 -0.65107271987E+02  0.85648074622E+02  0.10000000000E+01 0.  0.
<mgrwt>
<rscale>  0 0.12500167E+03</rscale>
<asrwt>0</asrwt>
<pdfrwt beam="2">  1        4 0.15937198E-01 0.12500167E+03</pdfrwt>
<pdfrwt beam="1">  1       -4 0.58014021E-02 0.12500167E+03</pdfrwt>
<totfact> 0.10106314E+04</totfact>
</mgrwt>
</event>
<event>
 5    1  0.3243498E-002  0.1249957E+03  0.7818608E-02  0.1235076E+00
          4   -1    0    0  501    0  0.00000000000E+00  0.00000000000E+00  0.43757781594E+02  0.43776207580E+02  0.12700000000E+01 0.  1.
         -4   -1    0    0    0  501 -0.00000000000E+00 -0.00000000000E+00 -0.89222024733E+02  0.89231062963E+02  0.12700000000E+01 0.  1.
         25    2    1    2    0    0  0.00000000000E+00  0.00000000000E+00 -0.45464243139E+02  0.13300727054E+03  0.12499574638E+03 0.  0.
    9000005    1    3    3    0    0  0.29023583271E+02  0.48590490427E+02  0.54529245310E+01  0.56869486825E+02  0.10000000000E+01 0.  0.
    9000005    1    3    3    0    0 -0.29023583271E+02 -0.48590490427E+02 -0.50917167670E+02  0.76137783717E+02  0.10000000000E+01 0.  0.
<mgrwt>
<rscale>  0 0.12499575E+03</rscale>
<asrwt>0</asrwt>
<pdfrwt beam="1">  1        4 0.67340791E-02 0.12499575E+03</pdfrwt>
<pdfrwt beam="2">  1       -4 0.13728578E-01 0.12499575E+03</pdfrwt>
<totfact> 0.10281232E+04</totfact>
</mgrwt>
</event>
<event>
 5    1  0.3243498E-002  0.1250023E+03  0.7818608E-02  0.1235066E+00
         -4   -1    0    0    0  501 -0.00000000000E+00  0.00000000000E+00  0.76805371612E+02  0.76815870811E+02  0.12700000000E+01 0.  1.
          4   -1    0    0  501    0  0.00000000000E+00 -0.00000000000E+00 -0.50839064432E+02  0.50854924759E+02  0.12700000000E+01 0.  1.
         25    2    1    2    0    0  0.00000000000E+00  0.00000000000E+00  0.25966307180E+02  0.12767079557E+03  0.12500233171E+03 0.  0.
    9000005    1    3    3    0    0 -0.21643701911E+02 -0.35468286250E+02 -0.34692509402E+02  0.54138889631E+02  0.10000000000E+01 0.  0.
    9000005    1    3    3    0    0  0.21643701911E+02  0.35468286250E+02  0.60658816582E+02  0.73531905939E+02  0.10000000000E+01 0.  0.
<mgrwt>
<rscale>  0 0.12500233E+03</rscale>
<asrwt>0</asrwt>
<pdfrwt beam="2">  1        4 0.78234221E-02 0.12500233E+03</pdfrwt>
<pdfrwt beam="1">  1       -4 0.11818239E-01 0.12500233E+03</pdfrwt>
<totfact> 0.10394056E+04</totfact>
</mgrwt>
</event>
<event>
 5    1  0.3243498E-002  0.1249982E+03  0.7818608E-02  0.1235072E+00
          4   -1    0    0  501    0  0.00000000000E+00  0.00000000000E+00  0.19020736104E+03  0.19021160084E+03  0.12700000000E+01 0. -1.
         -4   -1    0    0    0  501 -0.00000000000E+00 -0.00000000000E+00 -0.20512095700E+02  0.20551373920E+02  0.12700000000E+01 0. -1.
         25    2    1    2    0    0  0.00000000000E+00  0.00000000000E+00  0.16969526534E+03  0.21076297476E+03  0.12499819379E+03 0.  0.
    9000005    1    3    3    0    0 -0.49261017063E+02 -0.13480717994E+02  0.24129233889E+02  0.56494225260E+02  0.10000000000E+01 0.  0.
    9000005    1    3    3    0    0  0.49261017063E+02  0.13480717994E+02  0.14556603145E+03  0.15426874950E+03  0.10000000000E+01 0.  0.
<mgrwt>
<rscale>  0 0.12499819E+03</rscale>
<asrwt>0</asrwt>
<pdfrwt beam="1">  1        4 0.29266017E-01 0.12499819E+03</pdfrwt>
<pdfrwt beam="2">  1       -4 0.31590547E-02 0.12499819E+03</pdfrwt>
<totfact> 0.88354997E+03</totfact>
</mgrwt>
</event>
<event>
 5    1  0.3243498E-002  0.1250005E+03  0.7818608E-02  0.1235068E+00
         -4   -1    0    0    0  501 -0.00000000000E+00  0.00000000000E+00  0.59382586916E+02  0.59396165944E+02  0.12700000000E+01 0.  1.
          4   -1    0    0  501    0  0.00000000000E+00 -0.00000000000E+00 -0.65754376311E+02  0.65766639751E+02  0.12700000000E+01 0.  1.
         25    2    1    2    0    0  0.00000000000E+00  0.00000000000E+00 -0.63717893948E+01  0.12516280569E+03  0.12500051292E+03 0.  0.
    9000005    1    3    3    0    0  0.32503722124E+01  0.49524632911E+01 -0.65477518458E+02  0.65752545468E+02  0.10000000000E+01 0.  0.
    9000005    1    3    3    0    0 -0.32503722124E+01 -0.49524632911E+01  0.59105729063E+02  0.59410260227E+02  0.10000000000E+01 0.  0.
<mgrwt>
<rscale>  0 0.12500051E+03</rscale>
<asrwt>0</asrwt>
<pdfrwt beam="2">  1        4 0.10118046E-01 0.12500051E+03</pdfrwt>
<pdfrwt beam="1">  1       -4 0.91377705E-02 0.12500051E+03</pdfrwt>
<totfact> 0.10449206E+04</totfact>
</mgrwt>
</event>
<event>
 5    1  0.3243498E-002  0.1249950E+03  0.7818608E-02  0.1235077E+00
          4   -1    0    0  501    0  0.00000000000E+00  0.00000000000E+00  0.33015383014E+03  0.33015627278E+03  0.12700000000E+01 0.  1.
         -4   -1    0    0    0  501 -0.00000000000E+00 -0.00000000000E+00 -0.11794073981E+02  0.11862254468E+02  0.12700000000E+01 0.  1.
         25    2    1    2    0    0  0.00000000000E+00  0.00000000000E+00  0.31835975616E+03  0.34201852725E+03  0.12499495446E+03 0.  0.
    9000005    1    3    3    0    0  0.76446358972E+01 -0.61560083915E+02  0.13854872902E+03  0.15180525256E+03  0.10000000000E+01 0.  0.
    9000005    1    3    3    0    0 -0.76446358972E+01  0.61560083915E+02  0.17981102713E+03  0.19021327469E+03  0.10000000000E+01 0.  0.
<mgrwt>
<rscale>  0 0.12499495E+03</rscale>
<asrwt>0</asrwt>
<pdfrwt beam="1">  1        4 0.50798325E-01 0.12499495E+03</pdfrwt>
<pdfrwt beam="2">  1       -4 0.18199056E-02 0.12499495E+03</pdfrwt>
<totfact> 0.70619523E+03</totfact>
</mgrwt>
</event>
<event>
 5    1  0.3243498E-002  0.1249987E+03  0.7818608E-02  0.1235071E+00
          4   -1    0    0  501    0  0.00000000000E+00  0.00000000000E+00  0.56103506286E+02  0.56117878769E+02  0.12700000000E+01 0. -1.
         -4   -1    0    0    0  501 -0.00000000000E+00 -0.00000000000E+00 -0.69595231807E+02  0.69606818561E+02  0.12700000000E+01 0. -1.
         25    2    1    2    0    0  0.00000000000E+00  0.00000000000E+00 -0.13491725521E+02  0.12572469733E+03  0.12499869144E+03 0.  0.
    9000005    1    3    3    0    0  0.42435042862E+02  0.92830770340E+01 -0.51931839120E+02  0.67711330634E+02  0.10000000000E+01 0.  0.
    9000005    1    3    3    0    0 -0.42435042862E+02 -0.92830770340E+01  0.38440113599E+02  0.58013366696E+02  0.10000000000E+01 0.  0.
<mgrwt>
<rscale>  0 0.12499869E+03</rscale>
<asrwt>0</asrwt>
<pdfrwt beam="1">  1        4 0.86333056E-02 0.12499869E+03</pdfrwt>
<pdfrwt beam="2">  1       -4 0.10708956E-01 0.12499869E+03</pdfrwt>
<totfact> 0.10437309E+04</totfact>
</mgrwt>
</event>
<event>
 5    1  0.3243498E-002  0.1250061E+03  0.7818608E-02  0.1235060E+00
         -4   -1    0    0    0  501 -0.00000000000E+00  0.00000000000E+00  0.26318153070E+03  0.26318459492E+03  0.12700000000E+01 0. -1.
          4   -1    0    0  501    0  0.00000000000E+00 -0.00000000000E+00 -0.14813548975E+02  0.14867889333E+02  0.12700000000E+01 0. -1.
         25    2    1    2    0    0  0.00000000000E+00  0.00000000000E+00  0.24836798173E+03  0.27805248425E+03  0.12500611846E+03 0.  0.
    9000005    1    3    3    0    0 -0.56244278967E+02  0.25344404131E+02  0.10195482327E+03  0.11917023003E+03  0.10000000000E+01 0.  0.
    9000005    1    3    3    0    0  0.56244278967E+02 -0.25344404131E+02  0.14641315846E+03  0.15888225422E+03  0.10000000000E+01 0.  0.
<mgrwt>
<rscale>  0 0.12500612E+03</rscale>
<asrwt>0</asrwt>
<pdfrwt beam="2">  1        4 0.22834233E-02 0.12500612E+03</pdfrwt>
<pdfrwt beam="1">  1       -4 0.40493881E-01 0.12500612E+03</pdfrwt>
<totfact> 0.78426373E+03</totfact>
</mgrwt>
</event>
<event>
 5    1  0.3243498E-002  0.1250012E+03  0.7818608E-02  0.1235067E+00
         -4   -1    0    0    0  501 -0.00000000000E+00  0.00000000000E+00  0.12290309856E+03  0.12290966006E+03  0.12700000000E+01 0.  1.
          4   -1    0    0  501    0  0.00000000000E+00 -0.00000000000E+00 -0.31763680494E+02  0.31789059416E+02  0.12700000000E+01 0.  1.
         25    2    1    2    0    0  0.00000000000E+00  0.00000000000E+00  0.91139418063E+02  0.15469871947E+03  0.12500120112E+03 0.  0.
    9000005    1    3    3    0    0 -0.32312116699E+02  0.28111456401E+02 -0.10750258247E+02  0.44168936131E+02  0.10000000000E+01 0.  0.
    9000005    1    3    3    0    0  0.32312116699E+02 -0.28111456401E+02  0.10188967631E+03  0.11052978334E+03  0.10000000000E+01 0.  0.
<mgrwt>
<rscale>  0 0.12500120E+03</rscale>
<asrwt>0</asrwt>
<pdfrwt beam="2">  1        4 0.48891770E-02 0.12500120E+03</pdfrwt>
<pdfrwt beam="1">  1       -4 0.18910626E-01 0.12500120E+03</pdfrwt>
<totfact> 0.98372019E+03</totfact>
</mgrwt>
</event>
<event>
 5    1  0.3243498E-002  0.1249991E+03  0.7818608E-02  0.1235071E+00
         -4   -1    0    0    0  501 -0.00000000000E+00  0.00000000000E+00  0.62450285238E+03  0.62450414373E+03  0.12700000000E+01 0. -1.
          4   -1    0    0  501    0  0.00000000000E+00 -0.00000000000E+00 -0.61891103575E+01  0.63180682979E+01  0.12700000000E+01 0. -1.
         25    2    1    2    0    0  0.00000000000E+00  0.00000000000E+00  0.61831374202E+03  0.63082221202E+03  0.12499911843E+03 0.  0.
    9000005    1    3    3    0    0 -0.16839931386E+02 -0.58661844186E+02  0.24137432589E+03  0.24897260985E+03  0.10000000000E+01 0.  0.
    9000005    1    3    3    0    0  0.16839931386E+02  0.58661844186E+02  0.37693941613E+03  0.38184960218E+03  0.10000000000E+01 0.  0.
<mgrwt>
<rscale>  0 0.12499912E+03</rscale>
<asrwt>0</asrwt>
<pdfrwt beam="2">  1        4 0.96218996E-03 0.12499912E+03</pdfrwt>
<pdfrwt beam="1">  1       -4 0.96087385E-01 0.12499912E+03</pdfrwt>
<totfact> 0.46978989E+03</totfact>
</mgrwt>
</event>
<event>
 5    1  0.3243498E-002  0.1250041E+03  0.7818608E-02  0.1235063E+00
          4   -1    0    0  501    0  0.00000000000E+00  0.00000000000E+00  0.75100860209E+01  0.76167113665E+01  0.12700000000E+01 0. -1.
         -4   -1    0    0    0  501 -0.00000000000E+00 -0.00000000000E+00 -0.51639429195E+03  0.51639585364E+03  0.12700000000E+01 0. -1.
         25    2    1    2    0    0  0.00000000000E+00  0.00000000000E+00 -0.50888420593E+03  0.52401256501E+03  0.12500413290E+03 0.  0.
    9000005    1    3    3    0    0  0.48732311758E+02  0.38696297375E+02 -0.27862019350E+03  0.28548634620E+03  0.10000000000E+01 0.  0.
    9000005    1    3    3    0    0 -0.48732311758E+02 -0.38696297375E+02 -0.23026401243E+03  0.23852621881E+03  0.10000000000E+01 0.  0.
<mgrwt>
<rscale>  0 0.12500413E+03</rscale>
<asrwt>0</asrwt>
<pdfrwt beam="1">  1        4 0.11637203E-02 0.12500413E+03</pdfrwt>
<pdfrwt beam="2">  1       -4 0.79453570E-01 0.12500413E+03</pdfrwt>
<totfact> 0.54043364E+03</totfact>
</mgrwt>
</event>
<event>
 5    1  0.3243498E-002  0.1249976E+03  0.7818608E-02  0.1235073E+00
         -4   -1    0    0    0  501 -0.00000000000E+00  0.00000000000E+00  0.13490801077E+02  0.13550446993E+02  0.12700000000E+01 0.  1.
          4   -1    0    0  501    0  0.00000000000E+00 -0.00000000000E+00 -0.28883830412E+03  0.28884109615E+03  0.12700000000E+01 0.  1.
         25    2    1    2    0    0  0.00000000000E+00  0.00000000000E+00 -0.27534750304E+03  0.30239154315E+03  0.12499759171E+03 0.  0.
    9000005    1    3    3    0    0 -0.21740859610E+02  0.14824973608E+02 -0.27479350317E+03  0.27605237583E+03  0.10000000000E+01 0.  0.
    9000005    1    3    3    0    0  0.21740859610E+02 -0.14824973608E+02 -0.55399987625E+00  0.26339167316E+02  0.10000000000E+01 0.  0.
<mgrwt>
<rscale>  0 0.12499759E+03</rscale>
<asrwt>0</asrwt>
<pdfrwt beam="2">  1        4 0.44441461E-01 0.12499759E+03</pdfrwt>
<pdfrwt beam="1">  1       -4 0.20803110E-02 0.12499759E+03</pdfrwt>
<totfact> 0.75303851E+03</totfact>
</mgrwt>
</event>
<event>
 5    1  0.3243498E-002  0.1250004E+03  0.7818608E-02  0.1235069E+00
         -4   -1    0    0    0  501 -0.00000000000E+00  0.00000000000E+00  0.11725208697E+02  0.11793787304E+02  0.12700000000E+01 0.  1.
          4   -1    0    0  501    0  0.00000000000E+00 -0.00000000000E+00 -0.33211045249E+03  0.33211288074E+03  0.12700000000E+01 0.  1.
         25    2    1    2    0    0  0.00000000000E+00  0.00000000000E+00 -0.32038524379E+03  0.34390666804E+03  0.12500036754E+03 0.  0.
    9000005    1    3    3    0    0 -0.48216063684E+01  0.23541471276E+02 -0.31890452351E+03  0.31981016849E+03  0.10000000000E+01 0.  0.
    9000005    1    3    3    0    0  0.48216063684E+01 -0.23541471276E+02 -0.14807202806E+01  0.24096499546E+02  0.10000000000E+01 0.  0.
<mgrwt>
<rscale>  0 0.12500037E+03</rscale>
<asrwt>0</asrwt>
<pdfrwt beam="2">  1        4 0.51099371E-01 0.12500037E+03</pdfrwt>
<pdfrwt beam="1">  1       -4 0.18093406E-02 0.12500037E+03</pdfrwt>
<totfact> 0.70399570E+03</totfact>
</mgrwt>
</event>
<event>
 5    1  0.3243498E-002  0.1250004E+03  0.7818608E-02  0.1235069E+00
          4   -1    0    0  501    0  0.00000000000E+00  0.00000000000E+00  0.50840778680E+02  0.50856638473E+02  0.12700000000E+01 0.  1.
         -4   -1    0    0    0  501 -0.00000000000E+00 -0.00000000000E+00 -0.76800354220E+02  0.76810854105E+02  0.12700000000E+01 0.  1.
         25    2    1    2    0    0  0.00000000000E+00  0.00000000000E+00 -0.25959575541E+02  0.12766749258E+03  0.12500035639E+03 0.  0.
    9000005    1    3    3    0    0  0.15353541682E+02  0.20093255102E+02 -0.71346336211E+02  0.75701848284E+02  0.10000000000E+01 0.  0.
    9000005    1    3    3    0    0 -0.15353541682E+02 -0.20093255102E+02  0.45386760670E+02  0.51965644294E+02  0.10000000000E+01 0.  0.
<mgrwt>
<rscale>  0 0.12500036E+03</rscale>
<asrwt>0</asrwt>
<pdfrwt beam="1">  1        4 0.78236859E-02 0.12500036E+03</pdfrwt>
<pdfrwt beam="2">  1       -4 0.11817467E-01 0.12500036E+03</pdfrwt>
<totfact> 0.10394591E+04</totfact>
</mgrwt>
</event>
<event>
 5    1  0.3243498E-002  0.1249969E+03  0.7818608E-02  0.1235074E+00
          4   -1    0    0  501    0  0.00000000000E+00  0.00000000000E+00  0.51113480665E+02  0.51129255868E+02  0.12700000000E+01 0.  1.
         -4   -1    0    0    0  501 -0.00000000000E+00 -0.00000000000E+00 -0.76386399100E+02  0.76396955878E+02  0.12700000000E+01 0.  1.
         25    2    1    2    0    0  0.00000000000E+00  0.00000000000E+00 -0.25272918435E+02  0.12752621175E+03  0.12499685707E+03 0.  0.
    9000005    1    3    3    0    0 -0.33930181270E+02  0.49353827350E+02  0.55568314609E+01  0.60157591798E+02  0.10000000000E+01 0.  0.
    9000005    1    3    3    0    0  0.33930181270E+02 -0.49353827350E+02 -0.30829749896E+02  0.67368619948E+02  0.10000000000E+01 0.  0.
<mgrwt>
<rscale>  0 0.12499686E+03</rscale>
<asrwt>0</asrwt>
<pdfrwt beam="1">  1        4 0.78656380E-02 0.12499686E+03</pdfrwt>
<pdfrwt beam="2">  1       -4 0.11753779E-01 0.12499686E+03</pdfrwt>
<totfact> 0.10398471E+04</totfact>
</mgrwt>
</event>
<event>
 5    1  0.3243498E-002  0.1250040E+03  0.7818608E-02  0.1235063E+00
         -4   -1    0    0    0  501 -0.00000000000E+00  0.00000000000E+00  0.51530100699E+02  0.51545748399E+02  0.12700000000E+01 0.  1.
          4   -1    0    0  501    0  0.00000000000E+00 -0.00000000000E+00 -0.75777617199E+02  0.75788258777E+02  0.12700000000E+01 0.  1.
         25    2    1    2    0    0  0.00000000000E+00  0.00000000000E+00 -0.24247516501E+02  0.12733400718E+03  0.12500402924E+03 0.  0.
    9000005    1    3    3    0    0 -0.34187015194E+02  0.47468684401E+02 -0.34521636418E+02  0.67932108665E+02  0.10000000000E+01 0.  0.
    9000005    1    3    3    0    0  0.34187015194E+02 -0.47468684401E+02  0.10274119917E+02  0.59401898511E+02  0.10000000000E+01 0.  0.
<mgrwt>
<rscale>  0 0.12500403E+03</rscale>
<asrwt>0</asrwt>
<pdfrwt beam="2">  1        4 0.11660117E-01 0.12500403E+03</pdfrwt>
<pdfrwt beam="1">  1       -4 0.79297301E-02 0.12500403E+03</pdfrwt>
<totfact> 0.10400951E+04</totfact>
</mgrwt>
</event>
<event>
 5    1  0.3243498E-002  0.1250002E+03  0.7818608E-02  0.1235069E+00
         -4   -1    0    0    0  501 -0.00000000000E+00  0.00000000000E+00  0.38221857209E+03  0.38222068200E+03  0.12700000000E+01 0.  1.
          4   -1    0    0  501    0  0.00000000000E+00 -0.00000000000E+00 -0.10178376666E+02  0.10257302353E+02  0.12700000000E+01 0.  1.
         25    2    1    2    0    0  0.00000000000E+00  0.00000000000E+00  0.37204019542E+03  0.39247798435E+03  0.12500024477E+03 0.  0.
    9000005    1    3    3    0    0 -0.21827788602E+02 -0.58541772317E+02  0.19008229489E+03  0.20008965563E+03  0.10000000000E+01 0.  0.
    9000005    1    3    3    0    0  0.21827788602E+02  0.58541772317E+02  0.18195790053E+03  0.19238832872E+03  0.10000000000E+01 0.  0.
<mgrwt>
<rscale>  0 0.12500024E+03</rscale>
<asrwt>0</asrwt>
<pdfrwt beam="2">  1        4 0.15721378E-02 0.12500024E+03</pdfrwt>
<pdfrwt beam="1">  1       -4 0.58809083E-01 0.12500024E+03</pdfrwt>
<totfact> 0.65290656E+03</totfact>
</mgrwt>
</event>
<event>
 5    1  0.3243498E-002  0.1249994E+03  0.7818608E-02  0.1235070E+00
          4   -1    0    0  501    0  0.00000000000E+00  0.00000000000E+00  0.27269904872E+03  0.27270200600E+03  0.12700000000E+01 0. -1.
         -4   -1    0    0    0  501 -0.00000000000E+00 -0.00000000000E+00 -0.14293070374E+02  0.14349381894E+02  0.12700000000E+01 0. -1.
         25    2    1    2    0    0  0.00000000000E+00  0.00000000000E+00  0.25840597835E+03  0.28705138789E+03  0.12499939857E+03 0.  0.
    9000005    1    3    3    0    0  0.29759131418E+02  0.48240140409E+02  0.18963404219E+03  0.19792621607E+03  0.10000000000E+01 0.  0.
    9000005    1    3    3    0    0 -0.29759131418E+02 -0.48240140409E+02  0.68771936160E+02  0.89125171824E+02  0.10000000000E+01 0.  0.
<mgrwt>
<rscale>  0 0.12499940E+03</rscale>
<asrwt>0</asrwt>
<pdfrwt beam="1">  1        4 0.41958256E-01 0.12499940E+03</pdfrwt>
<pdfrwt beam="2">  1       -4 0.22034932E-02 0.12499940E+03</pdfrwt>
<totfact> 0.77253370E+03</totfact>
</mgrwt>
</event>
<event>
 5    1  0.3243498E-002  0.1250014E+03  0.7818608E-02  0.1235067E+00
          4   -1    0    0  501    0  0.00000000000E+00  0.00000000000E+00  0.21569079217E+01  0.25030285221E+01  0.12700000000E+01 0. -1.
         -4   -1    0    0    0  501 -0.00000000000E+00 -0.00000000000E+00 -0.16762164230E+04  0.16762169041E+04  0.12700000000E+01 0. -1.
         25    2    1    2    0    0  0.00000000000E+00  0.00000000000E+00 -0.16740595151E+04  0.16787199327E+04  0.12500140880E+03 0.  0.
    9000005    1    3    3    0    0  0.54142863372E+02 -0.30784834951E+02 -0.90574728366E+03  0.90788672067E+03  0.10000000000E+01 0.  0.
    9000005    1    3    3    0    0 -0.54142863372E+02  0.30784834951E+02 -0.76831223144E+03  0.77083321198E+03  0.10000000000E+01 0.  0.
<mgrwt>
<rscale>  0 0.12500141E+03</rscale>
<asrwt>0</asrwt>
<pdfrwt beam="1">  1        4 0.35849500E-03 0.12500141E+03</pdfrwt>
<pdfrwt beam="2">  1       -4 0.25790515E+00 0.12500141E+03</pdfrwt>
<totfact> 0.14665710E+03</totfact>
</mgrwt>
</event>
<event>
 5    1  0.3243498E-002  0.1250002E+03  0.7818608E-02  0.1235069E+00
          4   -1    0    0  501    0  0.00000000000E+00  0.00000000000E+00  0.10839263510E+03  0.10840007492E+03  0.12700000000E+01 0. -1.
         -4   -1    0    0    0  501 -0.00000000000E+00 -0.00000000000E+00 -0.36018192038E+02  0.36040575158E+02  0.12700000000E+01 0. -1.
         25    2    1    2    0    0  0.00000000000E+00  0.00000000000E+00  0.72374443058E+02  0.14444065008E+03  0.12500016555E+03 0.  0.
    9000005    1    3    3    0    0  0.80088007315E+01 -0.24389311007E+02  0.10202450437E+03  0.10520921477E+03  0.10000000000E+01 0.  0.
    9000005    1    3    3    0    0 -0.80088007315E+01  0.24389311007E+02 -0.29650061313E+02  0.39231435309E+02  0.10000000000E+01 0.  0.
<mgrwt>
<rscale>  0 0.12500017E+03</rscale>
<asrwt>0</asrwt>
<pdfrwt beam="1">  1        4 0.16678084E-01 0.12500017E+03</pdfrwt>
<pdfrwt beam="2">  1       -4 0.55435543E-02 0.12500017E+03</pdfrwt>
<totfact> 0.10042328E+04</totfact>
</mgrwt>
</event>
<event>
 5    1  0.3243498E-002  0.1250166E+03  0.7818608E-02  0.1235043E+00
         -4   -1    0    0    0  501 -0.00000000000E+00  0.00000000000E+00  0.46680485240E+03  0.46680657999E+03  0.12700000000E+01 0.  1.
          4   -1    0    0  501    0  0.00000000000E+00 -0.00000000000E+00 -0.83203584731E+01  0.84167253206E+01  0.12700000000E+01 0.  1.
         25    2    1    2    0    0  0.00000000000E+00  0.00000000000E+00  0.45848449392E+03  0.47522330531E+03  0.12501663386E+03 0.  0.
    9000005    1    3    3    0    0  0.20223796609E+02  0.37404415752E+02  0.55120464761E+02  0.69622969647E+02  0.10000000000E+01 0.  0.
    9000005    1    3    3    0    0 -0.20223796609E+02 -0.37404415752E+02  0.40336402916E+03  0.40560033566E+03  0.10000000000E+01 0.  0.
<mgrwt>
<rscale>  0 0.12501663E+03</rscale>
<asrwt>0</asrwt>
<pdfrwt beam="2">  1        4 0.12876011E-02 0.12501663E+03</pdfrwt>
<pdfrwt beam="1">  1       -4 0.71823665E-01 0.12501663E+03</pdfrwt>
<totfact> 0.57818155E+03</totfact>
</mgrwt>
</event>
<event>
 5    1  0.3243498E-002  0.1249960E+03  0.7818608E-02  0.1235075E+00
          4   -1    0    0  501    0  0.00000000000E+00  0.00000000000E+00  0.81391011286E+02  0.81400919026E+02  0.12700000000E+01 0.  1.
         -4   -1    0    0    0  501 -0.00000000000E+00 -0.00000000000E+00 -0.47969347238E+02  0.47986156070E+02  0.12700000000E+01 0.  1.
         25    2    1    2    0    0  0.00000000000E+00  0.00000000000E+00  0.33421664049E+02  0.12938707510E+03  0.12499603023E+03 0.  0.
    9000005    1    3    3    0    0  0.27715863764E+02 -0.49913688202E+02 -0.95874979814E+01  0.57900479201E+02  0.10000000000E+01 0.  0.
    9000005    1    3    3    0    0 -0.27715863764E+02  0.49913688202E+02  0.43009162030E+02  0.71486595895E+02  0.10000000000E+01 0.  0.
<mgrwt>
<rscale>  0 0.12499603E+03</rscale>
<asrwt>0</asrwt>
<pdfrwt beam="1">  1        4 0.12523749E-01 0.12499603E+03</pdfrwt>
<pdfrwt beam="2">  1       -4 0.73819549E-02 0.12499603E+03</pdfrwt>
<totfact> 0.10358565E+04</totfact>
</mgrwt>
</event>
<event>
 5    1  0.3243498E-002  0.1250024E+03  0.7818608E-02  0.1235066E+00
          4   -1    0    0  501    0  0.00000000000E+00  0.00000000000E+00  0.20107870187E+02  0.20147936456E+02  0.12700000000E+01 0.  1.
         -4   -1    0    0    0  501 -0.00000000000E+00 -0.00000000000E+00 -0.19403659662E+03  0.19404075275E+03  0.12700000000E+01 0.  1.
         25    2    1    2    0    0  0.00000000000E+00  0.00000000000E+00 -0.17392872643E+03  0.21418868921E+03  0.12500237080E+03 0.  0.
    9000005    1    3    3    0    0  0.18743156206E+02  0.59155256355E+02 -0.99642694173E+02  0.11738959392E+03  0.10000000000E+01 0.  0.
    9000005    1    3    3    0    0 -0.18743156206E+02 -0.59155256355E+02 -0.74286032260E+02  0.96799095284E+02  0.10000000000E+01 0.  0.
<mgrwt>
<rscale>  0 0.12500237E+03</rscale>
<asrwt>0</asrwt>
<pdfrwt beam="1">  1        4 0.30969203E-02 0.12500237E+03</pdfrwt>
<pdfrwt beam="2">  1       -4 0.29855185E-01 0.12500237E+03</pdfrwt>
<totfact> 0.87791699E+03</totfact>
</mgrwt>
</event>
<event>
 5    1  0.3243498E-002  0.1250028E+03  0.7818608E-02  0.1235065E+00
          4   -1    0    0  501    0  0.00000000000E+00  0.00000000000E+00  0.26072774421E+03  0.26073083726E+03  0.12700000000E+01 0.  1.
         -4   -1    0    0    0  501 -0.00000000000E+00 -0.00000000000E+00 -0.14952683395E+02  0.15006519940E+02  0.12700000000E+01 0.  1.
         25    2    1    2    0    0  0.00000000000E+00  0.00000000000E+00  0.24577506081E+03  0.27573735720E+03  0.12500283853E+03 0.  0.
    9000005    1    3    3    0    0 -0.15336729742E+02  0.56334563770E+01 -0.10168789975E+02  0.19270583787E+02  0.10000000000E+01 0.  0.
    9000005    1    3    3    0    0  0.15336729742E+02 -0.56334563770E+01  0.25594385079E+03  0.25646677342E+03  0.10000000000E+01 0.  0.
<mgrwt>
<rscale>  0 0.12500284E+03</rscale>
<asrwt>0</asrwt>
<pdfrwt beam="1">  1        4 0.40116338E-01 0.12500284E+03</pdfrwt>
<pdfrwt beam="2">  1       -4 0.23047921E-02 0.12500284E+03</pdfrwt>
<totfact> 0.78741747E+03</totfact>
</mgrwt>
</event>
<event>
 5    1  0.3243498E-002  0.1250004E+03  0.7818608E-02  0.1235069E+00
         -4   -1    0    0    0  501 -0.00000000000E+00  0.00000000000E+00  0.12872768227E+03  0.12873394690E+03  0.12700000000E+01 0. -1.
          4   -1    0    0  501    0  0.00000000000E+00 -0.00000000000E+00 -0.30324962937E+02  0.30351544889E+02  0.12700000000E+01 0. -1.
         25    2    1    2    0    0  0.00000000000E+00  0.00000000000E+00  0.98402719336E+02  0.15908549178E+03  0.12500039409E+03 0.  0.
    9000005    1    3    3    0    0  0.55804406547E+02 -0.10225711644E+02  0.82548916963E+02  0.10016995887E+03  0.10000000000E+01 0.  0.
    9000005    1    3    3    0    0 -0.55804406547E+02  0.10225711644E+02  0.15853802373E+02  0.58915532912E+02  0.10000000000E+01 0.  0.
<mgrwt>
<rscale>  0 0.12500039E+03</rscale>
<asrwt>0</asrwt>
<pdfrwt beam="2">  1        4 0.46679056E-02 0.12500039E+03</pdfrwt>
<pdfrwt beam="1">  1       -4 0.19806785E-01 0.12500039E+03</pdfrwt>
<totfact> 0.97518521E+03</totfact>
</mgrwt>
</event>
<event>
 5    1  0.3243498E-002  0.1249909E+03  0.7818608E-02  0.1235084E+00
          4   -1    0    0  501    0  0.00000000000E+00  0.00000000000E+00  0.10072868933E+04  0.10072876940E+04  0.12700000000E+01 0.  1.
         -4   -1    0    0    0  501 -0.00000000000E+00 -0.00000000000E+00 -0.37726094444E+01  0.39806383936E+01  0.12700000000E+01 0.  1.
         25    2    1    2    0    0  0.00000000000E+00  0.00000000000E+00  0.10035142839E+04  0.10112683324E+04  0.12499088779E+03 0.  0.
    9000005    1    3    3    0    0  0.28790305295E+02  0.53166352020E+02  0.62946214255E+03  0.63235996993E+03  0.10000000000E+01 0.  0.
    9000005    1    3    3    0    0 -0.28790305295E+02 -0.53166352020E+02  0.37405214135E+03  0.37890836242E+03  0.10000000000E+01 0.  0.
<mgrwt>
<rscale>  0 0.12499089E+03</rscale>
<asrwt>0</asrwt>
<pdfrwt beam="1">  1        4 0.15498336E+00 0.12499089E+03</pdfrwt>
<pdfrwt beam="2">  1       -4 0.59646493E-03 0.12499089E+03</pdfrwt>
<totfact> 0.30241276E+03</totfact>
</mgrwt>
</event>
<event>
 5    1  0.3243498E-002  0.1249999E+03  0.7818608E-02  0.1235069E+00
         -4   -1    0    0    0  501 -0.00000000000E+00  0.00000000000E+00  0.27590933183E+03  0.27591225470E+03  0.12700000000E+01 0.  1.
          4   -1    0    0  501    0  0.00000000000E+00 -0.00000000000E+00 -0.14126231818E+02  0.14183205751E+02  0.12700000000E+01 0.  1.
         25    2    1    2    0    0  0.00000000000E+00  0.00000000000E+00  0.26178310001E+03  0.29009546045E+03  0.12499993888E+03 0.  0.
    9000005    1    3    3    0    0 -0.90515529625E+01  0.54047396672E+02  0.20059932415E+03  0.20795225546E+03  0.10000000000E+01 0.  0.
    9000005    1    3    3    0    0  0.90515529625E+01 -0.54047396672E+02  0.61183775860E+02  0.82143204993E+02  0.10000000000E+01 0.  0.
<mgrwt>
<rscale>  0 0.12499994E+03</rscale>
<asrwt>0</asrwt>
<pdfrwt beam="2">  1        4 0.21778739E-02 0.12499994E+03</pdfrwt>
<pdfrwt beam="1">  1       -4 0.42452196E-01 0.12499994E+03</pdfrwt>
<totfact> 0.76858387E+03</totfact>
</mgrwt>
</event>
<event>
 5    1  0.3243498E-002  0.1250053E+03  0.7818608E-02  0.1235061E+00
          4   -1    0    0  501    0  0.00000000000E+00  0.00000000000E+00  0.63447299474E+02  0.63460008750E+02  0.12700000000E+01 0. -1.
         -4   -1    0    0    0  501 -0.00000000000E+00 -0.00000000000E+00 -0.61546629508E+02  0.61559731187E+02  0.12700000000E+01 0. -1.
         25    2    1    2    0    0  0.00000000000E+00  0.00000000000E+00  0.19006699666E+01  0.12501973994E+03  0.12500529120E+03 0.  0.
    9000005    1    3    3    0    0 -0.32672777651E+02 -0.52868970971E+02 -0.56034534983E+01  0.62410232992E+02  0.10000000000E+01 0.  0.
    9000005    1    3    3    0    0  0.32672777651E+02  0.52868970971E+02  0.75041234650E+01  0.62609506945E+02  0.10000000000E+01 0.  0.
<mgrwt>
<rscale>  0 0.12500529E+03</rscale>
<asrwt>0</asrwt>
<pdfrwt beam="1">  1        4 0.97631084E-02 0.12500529E+03</pdfrwt>
<pdfrwt beam="2">  1       -4 0.94706977E-02 0.12500529E+03</pdfrwt>
<totfact> 0.10451184E+04</totfact>
</mgrwt>
</event>
<event>
 5    1  0.3243498E-002  0.1249980E+03  0.7818608E-02  0.1235072E+00
          4   -1    0    0  501    0  0.00000000000E+00  0.00000000000E+00  0.17192215839E+02  0.17239059877E+02  0.12700000000E+01 0.  1.
         -4   -1    0    0    0  501 -0.00000000000E+00 -0.00000000000E+00 -0.22684524648E+03  0.22684880152E+03  0.12700000000E+01 0.  1.
         25    2    1    2    0    0  0.00000000000E+00  0.00000000000E+00 -0.20965303065E+03  0.24408786140E+03  0.12499796328E+03 0.  0.
    9000005    1    3    3    0    0 -0.21852369456E+00 -0.57158993221E+02 -0.15414706052E+03  0.16440655256E+03  0.10000000000E+01 0.  0.
    9000005    1    3    3    0    0  0.21852369456E+00  0.57158993221E+02 -0.55505970131E+02  0.79681308842E+02  0.10000000000E+01 0.  0.
<mgrwt>
<rscale>  0 0.12499796E+03</rscale>
<asrwt>0</asrwt>
<pdfrwt beam="1">  1        4 0.26488333E-02 0.12499796E+03</pdfrwt>
<pdfrwt beam="2">  1       -4 0.34903143E-01 0.12499796E+03</pdfrwt>
<totfact> 0.83196072E+03</totfact>
</mgrwt>
</event>
<event>
 5    1  0.3243498E-002  0.1249918E+03  0.7818608E-02  0.1235082E+00
         -4   -1    0    0    0  501 -0.00000000000E+00  0.00000000000E+00  0.64200856666E+03  0.64200982279E+03  0.12700000000E+01 0.  1.
          4   -1    0    0  501    0  0.00000000000E+00 -0.00000000000E+00 -0.60160670086E+01  0.61486553207E+01  0.12700000000E+01 0.  1.
         25    2    1    2    0    0  0.00000000000E+00  0.00000000000E+00  0.63599249965E+03  0.64815847811E+03  0.12499181229E+03 0.  0.
    9000005    1    3    3    0    0  0.20804060283E+02  0.45365917202E+02  0.12301031139E+03  0.13275319987E+03  0.10000000000E+01 0.  0.
    9000005    1    3    3    0    0 -0.20804060283E+02 -0.45365917202E+02  0.51298218826E+03  0.51540527824E+03  0.10000000000E+01 0.  0.
<mgrwt>
<rscale>  0 0.12499181E+03</rscale>
<asrwt>0</asrwt>
<pdfrwt beam="2">  1        4 0.93584423E-03 0.12499181E+03</pdfrwt>
<pdfrwt beam="1">  1       -4 0.98780873E-01 0.12499181E+03</pdfrwt>
<totfact> 0.45970362E+03</totfact>
</mgrwt>
</event>
<event>
 5    1  0.3243498E-002  0.1250025E+03  0.7818608E-02  0.1235065E+00
          4   -1    0    0  501    0  0.00000000000E+00  0.00000000000E+00  0.18785833762E+02  0.18828713449E+02  0.12700000000E+01 0. -1.
         -4   -1    0    0    0  501 -0.00000000000E+00 -0.00000000000E+00 -0.20766248565E+03  0.20766636908E+03  0.12700000000E+01 0. -1.
         25    2    1    2    0    0  0.00000000000E+00  0.00000000000E+00 -0.18887665188E+03  0.22649508252E+03  0.12500253110E+03 0.  0.
    9000005    1    3    3    0    0  0.40319314928E+02 -0.74615212502E+01 -0.89875853732E+01  0.41989262275E+02  0.10000000000E+01 0.  0.
    9000005    1    3    3    0    0 -0.40319314928E+02  0.74615212502E+01 -0.17988906651E+03  0.18450582025E+03  0.10000000000E+01 0.  0.
<mgrwt>
<rscale>  0 0.12500253E+03</rscale>
<asrwt>0</asrwt>
<pdfrwt beam="1">  1        4 0.28937256E-02 0.12500253E+03</pdfrwt>
<pdfrwt beam="2">  1       -4 0.31951670E-01 0.12500253E+03</pdfrwt>
<totfact> 0.85845853E+03</totfact>
</mgrwt>
</event>
<event>
 5    1  0.3243498E-002  0.1249940E+03  0.7818608E-02  0.1235079E+00
          4   -1    0    0  501    0  0.00000000000E+00  0.00000000000E+00  0.24742948270E+03  0.24743274200E+03  0.12700000000E+01 0. -1.
         -4   -1    0    0    0  501 -0.00000000000E+00 -0.00000000000E+00 -0.15756886046E+02  0.15807983991E+02  0.12700000000E+01 0. -1.
         25    2    1    2    0    0  0.00000000000E+00  0.00000000000E+00  0.23167259666E+03  0.26324072599E+03  0.12499395096E+03 0.  0.
    9000005    1    3    3    0    0 -0.26488232113E+02  0.24506121771E+02  0.22327871406E+03  0.22617816118E+03  0.10000000000E+01 0.  0.
    9000005    1    3    3    0    0  0.26488232113E+02 -0.24506121771E+02  0.83938826003E+01  0.37062564804E+02  0.10000000000E+01 0.  0.
<mgrwt>
<rscale>  0 0.12499395E+03</rscale>
<asrwt>0</asrwt>
<pdfrwt beam="1">  1        4 0.38070258E-01 0.12499395E+03</pdfrwt>
<pdfrwt beam="2">  1       -4 0.24283175E-02 0.12499395E+03</pdfrwt>
<totfact> 0.80464240E+03</totfact>
</mgrwt>
</event>
<event>
 5    1  0.3243498E-002  0.1250017E+03  0.7818608E-02  0.1235067E+00
         -4   -1    0    0    0  501 -0.00000000000E+00  0.00000000000E+00  0.77230369070E+02  0.77240810500E+02  0.12700000000E+01 0. -1.
          4   -1    0    0  501    0  0.00000000000E+00 -0.00000000000E+00 -0.50558737929E+02  0.50574686168E+02  0.12700000000E+01 0. -1.
         25    2    1    2    0    0  0.00000000000E+00  0.00000000000E+00  0.26671631141E+02  0.12781549667E+03  0.12500170111E+03 0.  0.
    9000005    1    3    3    0    0 -0.41820695247E+02  0.29427918498E+02  0.50066326494E+02  0.71572410793E+02  0.10000000000E+01 0.  0.
    9000005    1    3    3    0    0  0.41820695247E+02 -0.29427918498E+02 -0.23394695352E+02  0.56243085875E+02  0.10000000000E+01 0.  0.
<mgrwt>
<rscale>  0 0.12500170E+03</rscale>
<asrwt>0</asrwt>
<pdfrwt beam="2">  1        4 0.77802974E-02 0.12500170E+03</pdfrwt>
<pdfrwt beam="1">  1       -4 0.11883625E-01 0.12500170E+03</pdfrwt>
<totfact> 0.10391075E+04</totfact>
</mgrwt>
</event>
<event>
 5    1  0.3243498E-002  0.1249956E+03  0.7818608E-02  0.1235076E+00
          4   -1    0    0  501    0  0.00000000000E+00  0.00000000000E+00  0.16223879377E+02  0.16273511055E+02  0.12700000000E+01 0.  1.
         -4   -1    0    0    0  501 -0.00000000000E+00 -0.00000000000E+00 -0.24033562524E+03  0.24033898074E+03  0.12700000000E+01 0.  1.
         25    2    1    2    0    0  0.00000000000E+00  0.00000000000E+00 -0.22411174587E+03  0.25661249179E+03  0.12499558515E+03 0.  0.
    9000005    1    3    3    0    0  0.96032660683E+01 -0.28799416917E+02  0.77492096880E-01  0.30374909695E+02  0.10000000000E+01 0.  0.
    9000005    1    3    3    0    0 -0.96032660683E+01  0.28799416917E+02 -0.22418923796E+03  0.22623758210E+03  0.10000000000E+01 0.  0.
<mgrwt>
<rscale>  0 0.12499559E+03</rscale>
<asrwt>0</asrwt>
<pdfrwt beam="1">  1        4 0.25000576E-02 0.12499559E+03</pdfrwt>
<pdfrwt beam="2">  1       -4 0.36978785E-01 0.12499559E+03</pdfrwt>
<totfact> 0.81391814E+03</totfact>
</mgrwt>
</event>
<event>
 5    1  0.3243498E-002  0.1249954E+03  0.7818608E-02  0.1235076E+00
         -4   -1    0    0    0  501 -0.00000000000E+00  0.00000000000E+00  0.53539759807E+03  0.53539910433E+03  0.12700000000E+01 0.  1.
          4   -1    0    0  501    0  0.00000000000E+00 -0.00000000000E+00 -0.72386471134E+01  0.73492116606E+01  0.12700000000E+01 0.  1.
         25    2    1    2    0    0  0.00000000000E+00  0.00000000000E+00  0.52815895095E+03  0.54274831599E+03  0.12499542806E+03 0.  0.
    9000005    1    3    3    0    0 -0.17579015494E+02 -0.32433272598E+02  0.45068908438E+02  0.58250712141E+02  0.10000000000E+01 0.  0.
    9000005    1    3    3    0    0  0.17579015494E+02  0.32433272598E+02  0.48309004251E+03  0.48449760385E+03  0.10000000000E+01 0.  0.
<mgrwt>
<rscale>  0 0.12499543E+03</rscale>
<asrwt>0</asrwt>
<pdfrwt beam="2">  1        4 0.11222587E-02 0.12499543E+03</pdfrwt>
<pdfrwt beam="1">  1       -4 0.82377491E-01 0.12499543E+03</pdfrwt>
<totfact> 0.52699039E+03</totfact>
</mgrwt>
</event>
<event>
 5    1  0.3243498E-002  0.1250006E+03  0.7818608E-02  0.1235068E+00
          4   -1    0    0  501    0  0.00000000000E+00  0.00000000000E+00  0.20990848493E+04  0.20990852335E+04  0.12700000000E+01 0.  1.
         -4   -1    0    0    0  501 -0.00000000000E+00 -0.00000000000E+00 -0.16438405880E+01  0.20772847370E+01  0.12700000000E+01 0.  1.
         25    2    1    2    0    0  0.00000000000E+00  0.00000000000E+00  0.20974410088E+04  0.21011625183E+04  0.12500057192E+03 0.  0.
    9000005    1    3    3    0    0  0.71972270157E+01  0.55343507172E+02  0.15213502746E+04  0.15223739232E+04  0.10000000000E+01 0.  0.
    9000005    1    3    3    0    0 -0.71972270157E+01 -0.55343507172E+02  0.57609073416E+03  0.57878859513E+03  0.10000000000E+01 0.  0.
<mgrwt>
<rscale>  0 0.12500057E+03</rscale>
<asrwt>0</asrwt>
<pdfrwt beam="1">  1        4 0.32296839E+00 0.12500057E+03</pdfrwt>
<pdfrwt beam="2">  1       -4 0.28627095E-03 0.12500057E+03</pdfrwt>
<totfact> 0.85980021E+02</totfact>
</mgrwt>
</event>
<event>
 5    1  0.3243498E-002  0.1249979E+03  0.7818608E-02  0.1235073E+00
          4   -1    0    0  501    0  0.00000000000E+00  0.00000000000E+00  0.38890359780E+01  0.40911490853E+01  0.12700000000E+01 0.  1.
         -4   -1    0    0    0  501 -0.00000000000E+00 -0.00000000000E+00 -0.97875205198E+03  0.97875287594E+03  0.12700000000E+01 0.  1.
         25    2    1    2    0    0  0.00000000000E+00  0.00000000000E+00 -0.97486301600E+03  0.98284402502E+03  0.12499791020E+03 0.  0.
    9000005    1    3    3    0    0  0.17175436490E+01 -0.59607693908E+02 -0.63434171106E+03  0.63713925756E+03  0.10000000000E+01 0.  0.
    9000005    1    3    3    0    0 -0.17175436490E+01  0.59607693908E+02 -0.34052130494E+03  0.34570476746E+03  0.10000000000E+01 0.  0.
<mgrwt>
<rscale>  0 0.12499791E+03</rscale>
<asrwt>0</asrwt>
<pdfrwt beam="1">  1        4 0.61392455E-03 0.12499791E+03</pdfrwt>
<pdfrwt beam="2">  1       -4 0.15059266E+00 0.12499791E+03</pdfrwt>
<totfact> 0.31179278E+03</totfact>
</mgrwt>
</event>
<event>
 5    1  0.3243498E-002  0.1250011E+03  0.7818608E-02  0.1235068E+00
          4   -1    0    0  501    0  0.00000000000E+00  0.00000000000E+00  0.17666036894E+03  0.17666493386E+03  0.12700000000E+01 0.  1.
         -4   -1    0    0    0  501 -0.00000000000E+00 -0.00000000000E+00 -0.22088937791E+02  0.22125416894E+02  0.12700000000E+01 0.  1.
         25    2    1    2    0    0  0.00000000000E+00  0.00000000000E+00  0.15457143115E+03  0.19879035075E+03  0.12500110489E+03 0.  0.
    9000005    1    3    3    0    0 -0.17058711618E+02 -0.44910327764E+02  0.13725432280E+02  0.49973239571E+02  0.10000000000E+01 0.  0.
    9000005    1    3    3    0    0  0.17058711618E+02  0.44910327764E+02  0.14084599887E+03  0.14881711118E+03  0.10000000000E+01 0.  0.
<mgrwt>
<rscale>  0 0.12500110E+03</rscale>
<asrwt>0</asrwt>
<pdfrwt beam="1">  1        4 0.27181675E-01 0.12500110E+03</pdfrwt>
<pdfrwt beam="2">  1       -4 0.34014554E-02 0.12500110E+03</pdfrwt>
<totfact> 0.90337684E+03</totfact>
</mgrwt>
</event>
<event>
 5    1  0.3243498E-002  0.1250006E+03  0.7818608E-02  0.1235068E+00
         -4   -1    0    0    0  501 -0.00000000000E+00  0.00000000000E+00  0.33943391692E+03  0.33943629278E+03  0.12700000000E+01 0. -1.
          4   -1    0    0  501    0  0.00000000000E+00 -0.00000000000E+00 -0.11470777557E+02  0.11540868155E+02  0.12700000000E+01 0. -1.
         25    2    1    2    0    0  0.00000000000E+00  0.00000000000E+00  0.32796313936E+03  0.35097716094E+03  0.12500058686E+03 0.  0.
    9000005    1    3    3    0    0 -0.25162165348E+02 -0.32138325884E+02  0.29684975919E+03  0.29964443276E+03  0.10000000000E+01 0.  0.
    9000005    1    3    3    0    0  0.25162165348E+02  0.32138325884E+02  0.31113380175E+02  0.51332728171E+02  0.10000000000E+01 0.  0.
<mgrwt>
<rscale>  0 0.12500059E+03</rscale>
<asrwt>0</asrwt>
<pdfrwt beam="2">  1        4 0.17703092E-02 0.12500059E+03</pdfrwt>
<pdfrwt beam="1">  1       -4 0.52226180E-01 0.12500059E+03</pdfrwt>
<totfact> 0.69616281E+03</totfact>
</mgrwt>
</event>
<event>
 5    1  0.3243498E-002  0.1249989E+03  0.7818608E-02  0.1235071E+00
          4   -1    0    0  501    0  0.00000000000E+00  0.00000000000E+00  0.14434759526E+03  0.14435318202E+03  0.12700000000E+01 0.  1.
         -4   -1    0    0    0  501 -0.00000000000E+00 -0.00000000000E+00 -0.27039941281E+02  0.27069749251E+02  0.12700000000E+01 0.  1.
         25    2    1    2    0    0  0.00000000000E+00  0.00000000000E+00  0.11730765398E+03  0.17142293127E+03  0.12499894272E+03 0.  0.
    9000005    1    3    3    0    0  0.58372980477E+02 -0.16990482229E+02  0.78484720279E+02  0.99282086267E+02  0.10000000000E+01 0.  0.
    9000005    1    3    3    0    0 -0.58372980477E+02  0.16990482229E+02  0.38822933703E+02  0.72140845001E+02  0.10000000000E+01 0.  0.
<mgrwt>
<rscale>  0 0.12499894E+03</rscale>
<asrwt>0</asrwt>
<pdfrwt beam="1">  1        4 0.22210045E-01 0.12499894E+03</pdfrwt>
<pdfrwt beam="2">  1       -4 0.41627137E-02 0.12499894E+03</pdfrwt>
<totfact> 0.95186343E+03</totfact>
</mgrwt>
</event>
<event>
 5    1  0.3243498E-002  0.1249983E+03  0.7818608E-02  0.1235072E+00
         -4   -1    0    0    0  501 -0.00000000000E+00  0.00000000000E+00  0.26184235877E+02  0.26215016850E+02  0.12700000000E+01 0. -1.
          4   -1    0    0  501    0  0.00000000000E+00 -0.00000000000E+00 -0.14905805916E+03  0.14906346937E+03  0.12700000000E+01 0. -1.
         25    2    1    2    0    0  0.00000000000E+00  0.00000000000E+00 -0.12287382329E+03  0.17527848622E+03  0.12499828512E+03 0.  0.
    9000005    1    3    3    0    0 -0.11525588348E+02 -0.60930905059E+02 -0.72274063399E+02  0.95236309348E+02  0.10000000000E+01 0.  0.
    9000005    1    3    3    0    0  0.11525588348E+02  0.60930905059E+02 -0.50599759887E+02  0.80042176874E+02  0.10000000000E+01 0.  0.
<mgrwt>
<rscale>  0 0.12499829E+03</rscale>
<asrwt>0</asrwt>
<pdfrwt beam="2">  1        4 0.22934793E-01 0.12499829E+03</pdfrwt>
<pdfrwt beam="1">  1       -4 0.40311280E-02 0.12499829E+03</pdfrwt>
<totfact> 0.94477496E+03</totfact>
</mgrwt>
</event>
<event>
 4    1  0.3243498E-002  0.1249042E+03  0.7818608E-02  0.1235219E+00
         -4   -1    0    0    0  501 -0.00000000000E+00  0.00000000000E+00  0.25231104810E+02  0.25263047123E+02  0.12700000000E+01 0. -1.
          4   -1    0    0  501    0  0.00000000000E+00 -0.00000000000E+00 -0.15444932448E+03  0.15445454584E+03  0.12700000000E+01 0. -1.
    9000005    1    1    2    0    0 -0.24958614141E+02  0.53766742132E+02 -0.92858525486E+02  0.11017032602E+03  0.10000000000E+01 0.  0.
    9000005    1    1    2    0    0  0.24958614141E+02 -0.53766742132E+02 -0.36359694183E+02  0.69547266951E+02  0.10000000000E+01 0.  0.
<mgrwt>
<rscale>  0 0.12490422E+03</rscale>
<asrwt>0</asrwt>
<pdfrwt beam="2">  1        4 0.23764293E-01 0.12490422E+03</pdfrwt>
<pdfrwt beam="1">  1       -4 0.38845673E-02 0.12490422E+03</pdfrwt>
<totfact> 0.93869304E+03</totfact>
</mgrwt>
</event>
<event>
 5    1  0.3243498E-002  0.1249981E+03  0.7818608E-02  0.1235072E+00
          4   -1    0    0  501    0  0.00000000000E+00  0.00000000000E+00  0.54102986247E+02  0.54117890026E+02  0.12700000000E+01 0.  1.
         -4   -1    0    0    0  501 -0.00000000000E+00 -0.00000000000E+00 -0.72167628555E+02  0.72178802368E+02  0.12700000000E+01 0.  1.
         25    2    1    2    0    0  0.00000000000E+00  0.00000000000E+00 -0.18064642308E+02  0.12629669239E+03  0.12499809282E+03 0.  0.
    9000005    1    3    3    0    0  0.30043034530E+02 -0.52825861067E+01 -0.64139208596E+02  0.71030470356E+02  0.10000000000E+01 0.  0.
    9000005    1    3    3    0    0 -0.30043034530E+02  0.52825861067E+01  0.46074566288E+02  0.55266222038E+02  0.10000000000E+01 0.  0.
<mgrwt>
<rscale>  0 0.12499809E+03</rscale>
<asrwt>0</asrwt>
<pdfrwt beam="1">  1        4 0.83255423E-02 0.12499809E+03</pdfrwt>
<pdfrwt beam="2">  1       -4 0.11104718E-01 0.12499809E+03</pdfrwt>
<totfact> 0.10424914E+04</totfact>
</mgrwt>
</event>
<event>
 5    1  0.3243498E-002  0.1250042E+03  0.7818608E-02  0.1235063E+00
         -4   -1    0    0    0  501 -0.00000000000E+00  0.00000000000E+00  0.47076793101E+02  0.47093920507E+02  0.12700000000E+01 0. -1.
          4   -1    0    0  501    0  0.00000000000E+00 -0.00000000000E+00 -0.82944626080E+02  0.82954348262E+02  0.12700000000E+01 0. -1.
         25    2    1    2    0    0  0.00000000000E+00  0.00000000000E+00 -0.35867832979E+02  0.13004826877E+03  0.12500420300E+03 0.  0.
    9000005    1    3    3    0    0 -0.56820343547E+02 -0.25638486643E+02 -0.13324649628E+02  0.63752880138E+02  0.10000000000E+01 0.  0.
    9000005    1    3    3    0    0  0.56820343547E+02  0.25638486643E+02 -0.22543183351E+02  0.66295388631E+02  0.10000000000E+01 0.  0.
<mgrwt>
<rscale>  0 0.12500420E+03</rscale>
<asrwt>0</asrwt>
<pdfrwt beam="2">  1        4 0.12762777E-01 0.12500420E+03</pdfrwt>
<pdfrwt beam="1">  1       -4 0.72446489E-02 0.12500420E+03</pdfrwt>
<totfact> 0.10342494E+04</totfact>
</mgrwt>
</event>
<event>
 5    1  0.3243498E-002  0.1249982E+03  0.7818608E-02  0.1235072E+00
          4   -1    0    0  501    0  0.00000000000E+00  0.00000000000E+00  0.12043402554E+03  0.12044072155E+03  0.12700000000E+01 0. -1.
         -4   -1    0    0    0  501 -0.00000000000E+00 -0.00000000000E+00 -0.32413799015E+02  0.32438669310E+02  0.12700000000E+01 0. -1.
         25    2    1    2    0    0  0.00000000000E+00  0.00000000000E+00  0.88020226528E+02  0.15287939086E+03  0.12499819148E+03 0.  0.
    9000005    1    3    3    0    0  0.22296877426E+02 -0.45770329332E+02  0.88328916609E+02  0.10195622247E+03  0.10000000000E+01 0.  0.
    9000005    1    3    3    0    0 -0.22296877426E+02  0.45770329332E+02 -0.30869008152E+00  0.50923168398E+02  0.10000000000E+01 0.  0.
<mgrwt>
<rscale>  0 0.12499819E+03</rscale>
<asrwt>0</asrwt>
<pdfrwt beam="1">  1        4 0.18530740E-01 0.12499819E+03</pdfrwt>
<pdfrwt beam="2">  1       -4 0.49891666E-02 0.12499819E+03</pdfrwt>
<totfact> 0.98736818E+03</totfact>
</mgrwt>
</event>
<event>
 5    1  0.3243498E-002  0.1249973E+03  0.7818608E-02  0.1235073E+00
          4   -1    0    0  501    0  0.00000000000E+00  0.00000000000E+00  0.52108825130E+03  0.52108979893E+03  0.12700000000E+01 0. -1.
         -4   -1    0    0    0  501 -0.00000000000E+00 -0.00000000000E+00 -0.74406504952E+01  0.75482567386E+01  0.12700000000E+01 0. -1.
         25    2    1    2    0    0  0.00000000000E+00  0.00000000000E+00  0.51364760081E+03  0.52863805566E+03  0.12499734430E+03 0.  0.
    9000005    1    3    3    0    0 -0.12485809713E+02  0.57614204541E+02  0.16914657306E+03  0.17912804132E+03  0.10000000000E+01 0.  0.
    9000005    1    3    3    0    0  0.12485809713E+02 -0.57614204541E+02  0.34450102774E+03  0.34951001434E+03  0.10000000000E+01 0.  0.
<mgrwt>
<rscale>  0 0.12499734E+03</rscale>
<asrwt>0</asrwt>
<pdfrwt beam="1">  1        4 0.80175803E-01 0.12499734E+03</pdfrwt>
<pdfrwt beam="2">  1       -4 0.11531122E-02 0.12499734E+03</pdfrwt>
<totfact> 0.53712050E+03</totfact>
</mgrwt>
</event>
<event>
 5    1  0.3243498E-002  0.1249914E+03  0.7818608E-02  0.1235083E+00
          4   -1    0    0  501    0  0.00000000000E+00  0.00000000000E+00  0.35857235801E+02  0.35879719331E+02  0.12700000000E+01 0. -1.
         -4   -1    0    0    0  501 -0.00000000000E+00 -0.00000000000E+00 -0.10886357875E+03  0.10887098640E+03  0.12700000000E+01 0. -1.
         25    2    1    2    0    0  0.00000000000E+00  0.00000000000E+00 -0.73006342954E+02  0.14475070573E+03  0.12499136249E+03 0.  0.
    9000005    1    3    3    0    0 -0.46843361576E+02 -0.12326366404E+02 -0.82221459420E+02  0.95433789727E+02  0.10000000000E+01 0.  0.
    9000005    1    3    3    0    0  0.46843361576E+02  0.12326366404E+02  0.92151164663E+01  0.49316916002E+02  0.10000000000E+01 0.  0.
<mgrwt>
<rscale>  0 0.12499136E+03</rscale>
<asrwt>0</asrwt>
<pdfrwt beam="1">  1        4 0.55187972E-02 0.12499136E+03</pdfrwt>
<pdfrwt beam="2">  1       -4 0.16750542E-01 0.12499136E+03</pdfrwt>
<totfact> 0.10038008E+04</totfact>
</mgrwt>
</event>
<event>
 5    1  0.3243498E-002  0.1249897E+03  0.7818608E-02  0.1235085E+00
          4   -1    0    0  501    0  0.00000000000E+00  0.00000000000E+00  0.70747340690E+01  0.71878204031E+01  0.12700000000E+01 0. -1.
         -4   -1    0    0    0  501 -0.00000000000E+00 -0.00000000000E+00 -0.54755880881E+03  0.54756028162E+03  0.12700000000E+01 0. -1.
         25    2    1    2    0    0  0.00000000000E+00  0.00000000000E+00 -0.54048407474E+03  0.55474810202E+03  0.12498968616E+03 0.  0.
    9000005    1    3    3    0    0  0.24110391356E+02  0.45661225666E+02 -0.42642829181E+03  0.42954434760E+03  0.10000000000E+01 0.  0.
    9000005    1    3    3    0    0 -0.24110391356E+02 -0.45661225666E+02 -0.11405578293E+03  0.12520375442E+03  0.10000000000E+01 0.  0.
<mgrwt>
<rscale>  0 0.12498969E+03</rscale>
<asrwt>0</asrwt>
<pdfrwt beam="1">  1        4 0.10972333E-02 0.12498969E+03</pdfrwt>
<pdfrwt beam="2">  1       -4 0.84248596E-01 0.12498969E+03</pdfrwt>
<totfact> 0.51866336E+03</totfact>
</mgrwt>
</event>
<event>
 5    1  0.3243498E-002  0.1249985E+03  0.7818608E-02  0.1235072E+00
          4   -1    0    0  501    0  0.00000000000E+00  0.00000000000E+00  0.87964455106E+02  0.87973622536E+02  0.12700000000E+01 0.  1.
         -4   -1    0    0    0  501 -0.00000000000E+00 -0.00000000000E+00 -0.44385545031E+02  0.44403710518E+02  0.12700000000E+01 0.  1.
         25    2    1    2    0    0  0.00000000000E+00  0.00000000000E+00  0.43578910074E+02  0.13237733305E+03  0.12499854760E+03 0.  0.
    9000005    1    3    3    0    0  0.29561019786E+02 -0.53953540874E+02  0.10172857386E+02  0.62364456953E+02  0.10000000000E+01 0.  0.
    9000005    1    3    3    0    0 -0.29561019786E+02  0.53953540874E+02  0.33406052688E+02  0.70012876100E+02  0.10000000000E+01 0.  0.
<mgrwt>
<rscale>  0 0.12499855E+03</rscale>
<asrwt>0</asrwt>
<pdfrwt beam="1">  1        4 0.13535095E-01 0.12499855E+03</pdfrwt>
<pdfrwt beam="2">  1       -4 0.68306480E-02 0.12499855E+03</pdfrwt>
<totfact> 0.10293988E+04</totfact>
</mgrwt>
</event>
<event>
 5    1  0.3243498E-002  0.1249980E+03  0.7818608E-02  0.1235072E+00
          4   -1    0    0  501    0  0.00000000000E+00  0.00000000000E+00  0.51573445800E+01  0.53114125349E+01  0.12700000000E+01 0.  1.
         -4   -1    0    0    0  501 -0.00000000000E+00 -0.00000000000E+00 -0.74609015394E+03  0.74609123484E+03  0.12700000000E+01 0.  1.
         25    2    1    2    0    0  0.00000000000E+00  0.00000000000E+00 -0.74093280936E+03  0.75140264738E+03  0.12499804197E+03 0.  0.
    9000005    1    3    3    0    0 -0.12137058471E+02  0.23273326033E+02 -0.29556887221E+02  0.39541945769E+02  0.10000000000E+01 0.  0.
    9000005    1    3    3    0    0  0.12137058471E+02 -0.23273326033E+02 -0.71137592214E+03  0.71186070161E+03  0.10000000000E+01 0.  0.
<mgrwt>
<rscale>  0 0.12499804E+03</rscale>
<asrwt>0</asrwt>
<pdfrwt beam="1">  1        4 0.80537275E-03 0.12499804E+03</pdfrwt>
<pdfrwt beam="2">  1       -4 0.11479495E+00 0.12499804E+03</pdfrwt>
<totfact> 0.40508895E+03</totfact>
</mgrwt>
</event>
<event>
 5    1  0.3243498E-002  0.1249873E+03  0.7818608E-02  0.1235089E+00
          4   -1    0    0  501    0  0.00000000000E+00  0.00000000000E+00  0.94883891550E+02  0.94892390505E+02  0.12700000000E+01 0.  1.
         -4   -1    0    0    0  501 -0.00000000000E+00 -0.00000000000E+00 -0.41140224571E+02  0.41159822373E+02  0.12700000000E+01 0.  1.
         25    2    1    2    0    0  0.00000000000E+00  0.00000000000E+00  0.53743666979E+02  0.13605221288E+03  0.12498729091E+03 0.  0.
    9000005    1    3    3    0    0  0.43300285991E+02 -0.34141483625E+02 -0.51223849004E+01  0.55387674604E+02  0.10000000000E+01 0.  0.
    9000005    1    3    3    0    0 -0.43300285991E+02  0.34141483625E+02  0.58866051880E+02  0.80664538274E+02  0.10000000000E+01 0.  0.
<mgrwt>
<rscale>  0 0.12498729E+03</rscale>
<asrwt>0</asrwt>
<pdfrwt beam="1">  1        4 0.14599683E-01 0.12498729E+03</pdfrwt>
<pdfrwt beam="2">  1       -4 0.63314266E-02 0.12498729E+03</pdfrwt>
<totfact> 0.10218869E+04</totfact>
</mgrwt>
</event>
<event>
 5    1  0.3243498E-002  0.1250224E+03  0.7818608E-02  0.1235034E+00
         -4   -1    0    0    0  501 -0.00000000000E+00  0.00000000000E+00  0.18922916101E+02  0.18965485857E+02  0.12700000000E+01 0. -1.
          4   -1    0    0  501    0  0.00000000000E+00 -0.00000000000E+00 -0.20622692000E+03  0.20623083046E+03  0.12700000000E+01 0. -1.
         25    2    1    2    0    0  0.00000000000E+00  0.00000000000E+00 -0.18730400390E+03  0.22519631632E+03  0.12502236203E+03 0.  0.
    9000005    1    3    3    0    0  0.22350842657E+02 -0.45659718840E+02 -0.15915103863E+03  0.16707609999E+03  0.10000000000E+01 0.  0.
    9000005    1    3    3    0    0 -0.22350842657E+02  0.45659718840E+02 -0.28152965267E+02  0.58120216322E+02  0.10000000000E+01 0.  0.
<mgrwt>
<rscale>  0 0.12502236E+03</rscale>
<asrwt>0</asrwt>
<pdfrwt beam="2">  1        4 0.31730792E-01 0.12502236E+03</pdfrwt>
<pdfrwt beam="1">  1       -4 0.29147934E-02 0.12502236E+03</pdfrwt>
<totfact> 0.86009770E+03</totfact>
</mgrwt>
</event>
<event>
 5    1  0.3243498E-002  0.1249980E+03  0.7818608E-02  0.1235072E+00
          4   -1    0    0  501    0  0.00000000000E+00  0.00000000000E+00  0.25987709122E+03  0.25988019439E+03  0.12700000000E+01 0. -1.
         -4   -1    0    0    0  501 -0.00000000000E+00 -0.00000000000E+00 -0.15000638025E+02  0.15054303078E+02  0.12700000000E+01 0. -1.
         25    2    1    2    0    0  0.00000000000E+00  0.00000000000E+00  0.24487645319E+03  0.27493449747E+03  0.12499800228E+03 0.  0.
    9000005    1    3    3    0    0 -0.53513582937E+02 -0.54792865939E+01  0.52488273935E+02  0.75164785911E+02  0.10000000000E+01 0.  0.
    9000005    1    3    3    0    0  0.53513582937E+02  0.54792865939E+01  0.19238817926E+03  0.19976971156E+03  0.10000000000E+01 0.  0.
<mgrwt>
<rscale>  0 0.12499800E+03</rscale>
<asrwt>0</asrwt>
<pdfrwt beam="1">  1        4 0.39985456E-01 0.12499800E+03</pdfrwt>
<pdfrwt beam="2">  1       -4 0.23121573E-02 0.12499800E+03</pdfrwt>
<totfact> 0.78858086E+03</totfact>
</mgrwt>
</event>
<event>
 5    1  0.3243498E-002  0.1249998E+03  0.7818608E-02  0.1235070E+00
         -4   -1    0    0    0  501 -0.00000000000E+00  0.00000000000E+00  0.10085884788E+04  0.10085892784E+04  0.12700000000E+01 0.  1.
          4   -1    0    0  501    0  0.00000000000E+00 -0.00000000000E+00 -0.37680423781E+01  0.39763102700E+01  0.12700000000E+01 0.  1.
         25    2    1    2    0    0  0.00000000000E+00  0.00000000000E+00  0.10048204365E+04  0.10125655887E+04  0.12499984749E+03 0.  0.
    9000005    1    3    3    0    0  0.42699767538E+02  0.44855394548E+02  0.43465376148E+03  0.43904460928E+03  0.10000000000E+01 0.  0.
    9000005    1    3    3    0    0 -0.42699767538E+02 -0.44855394548E+02  0.57016667498E+03  0.57352097942E+03  0.10000000000E+01 0.  0.
<mgrwt>
<rscale>  0 0.12499985E+03</rscale>
<asrwt>0</asrwt>
<pdfrwt beam="2">  1        4 0.59578047E-03 0.12499985E+03</pdfrwt>
<pdfrwt beam="1">  1       -4 0.15518366E+00 0.12499985E+03</pdfrwt>
<totfact> 0.30193033E+03</totfact>
</mgrwt>
</event>
<event>
 5    1  0.3243498E-002  0.1249990E+03  0.7818608E-02  0.1235071E+00
          4   -1    0    0  501    0  0.00000000000E+00  0.00000000000E+00  0.27498137369E+03  0.27498430642E+03  0.12700000000E+01 0.  1.
         -4   -1    0    0    0  501 -0.00000000000E+00 -0.00000000000E+00 -0.14173875024E+02  0.14230658214E+02  0.12700000000E+01 0.  1.
         25    2    1    2    0    0  0.00000000000E+00  0.00000000000E+00  0.26080749867E+03  0.28921496463E+03  0.12499897762E+03 0.  0.
    9000005    1    3    3    0    0  0.49555879470E+02  0.28307801872E+02  0.71502431406E+02  0.91491609089E+02  0.10000000000E+01 0.  0.
    9000005    1    3    3    0    0 -0.49555879470E+02 -0.28307801872E+02  0.18930506726E+03  0.19772335555E+03  0.10000000000E+01 0.  0.
<mgrwt>
<rscale>  0 0.12499898E+03</rscale>
<asrwt>0</asrwt>
<pdfrwt beam="1">  1        4 0.42309421E-01 0.12499898E+03</pdfrwt>
<pdfrwt beam="2">  1       -4 0.21851897E-02 0.12499898E+03</pdfrwt>
<totfact> 0.76973667E+03</totfact>
</mgrwt>
</event>
<event>
 5    1  0.3243498E-002  0.1250049E+03  0.7818608E-02  0.1235062E+00
          4   -1    0    0  501    0  0.00000000000E+00  0.00000000000E+00  0.29845243929E+02  0.29872252764E+02  0.12700000000E+01 0.  1.
         -4   -1    0    0    0  501 -0.00000000000E+00 -0.00000000000E+00 -0.13080443936E+03  0.13081060453E+03  0.12700000000E+01 0.  1.
         25    2    1    2    0    0  0.00000000000E+00  0.00000000000E+00 -0.10095919543E+03  0.16068285729E+03  0.12500488584E+03 0.  0.
    9000005    1    3    3    0    0 -0.24169214592E+02 -0.57309471798E+02 -0.42657687207E+02  0.75426817311E+02  0.10000000000E+01 0.  0.
    9000005    1    3    3    0    0  0.24169214592E+02  0.57309471798E+02 -0.58301508225E+02  0.85256039980E+02  0.10000000000E+01 0.  0.
<mgrwt>
<rscale>  0 0.12500489E+03</rscale>
<asrwt>0</asrwt>
<pdfrwt beam="1">  1        4 0.45941279E-02 0.12500489E+03</pdfrwt>
<pdfrwt beam="2">  1       -4 0.20126311E-01 0.12500489E+03</pdfrwt>
<totfact> 0.97200623E+03</totfact>
</mgrwt>
</event>
<event>
 5    1  0.3243498E-002  0.1249997E+03  0.7818608E-02  0.1235070E+00
         -4   -1    0    0    0  501 -0.00000000000E+00  0.00000000000E+00  0.68073705719E+02  0.68085551407E+02  0.12700000000E+01 0. -1.
          4   -1    0    0  501    0  0.00000000000E+00 -0.00000000000E+00 -0.57358480055E+02  0.57372538154E+02  0.12700000000E+01 0. -1.
         25    2    1    2    0    0  0.00000000000E+00  0.00000000000E+00  0.10715225664E+02  0.12545808956E+03  0.12499966470E+03 0.  0.
    9000005    1    3    3    0    0  0.51469621779E+02 -0.32268103445E+02  0.20070041195E+02  0.63985615724E+02  0.10000000000E+01 0.  0.
    9000005    1    3    3    0    0 -0.51469621779E+02  0.32268103445E+02 -0.93548155313E+01  0.61472473837E+02  0.10000000000E+01 0.  0.
<mgrwt>
<rscale>  0 0.12499966E+03</rscale>
<asrwt>0</asrwt>
<pdfrwt beam="2">  1        4 0.88263742E-02 0.12499966E+03</pdfrwt>
<pdfrwt beam="1">  1       -4 0.10474870E-01 0.12499966E+03</pdfrwt>
<totfact> 0.10442960E+04</totfact>
</mgrwt>
</event>
<event>
 5    1  0.3243498E-002  0.1249995E+03  0.7818608E-02  0.1235070E+00
          4   -1    0    0  501    0  0.00000000000E+00  0.00000000000E+00  0.12435328106E+03  0.12435976605E+03  0.12700000000E+01 0. -1.
         -4   -1    0    0    0  501 -0.00000000000E+00 -0.00000000000E+00 -0.31392133207E+02  0.31417812261E+02  0.12700000000E+01 0. -1.
         25    2    1    2    0    0  0.00000000000E+00  0.00000000000E+00  0.92961147858E+02  0.15577757831E+03  0.12499951557E+03 0.  0.
    9000005    1    3    3    0    0 -0.50002414889E+01 -0.21979306128E+02 -0.26155529093E+02  0.34542785280E+02  0.10000000000E+01 0.  0.
    9000005    1    3    3    0    0  0.50002414889E+01  0.21979306128E+02  0.11911667695E+03  0.12123479303E+03  0.10000000000E+01 0.  0.
<mgrwt>
<rscale>  0 0.12499952E+03</rscale>
<asrwt>0</asrwt>
<pdfrwt beam="1">  1        4 0.19133748E-01 0.12499952E+03</pdfrwt>
<pdfrwt beam="2">  1       -4 0.48320331E-02 0.12499952E+03</pdfrwt>
<totfact> 0.98164136E+03</totfact>
</mgrwt>
</event>
<event>
 5    1  0.3243498E-002  0.1249996E+03  0.7818608E-02  0.1235070E+00
          4   -1    0    0  501    0  0.00000000000E+00  0.00000000000E+00  0.38824384753E+02  0.38845150939E+02  0.12700000000E+01 0. -1.
         -4   -1    0    0    0  501 -0.00000000000E+00 -0.00000000000E+00 -0.10056092608E+03  0.10056894528E+03  0.12700000000E+01 0. -1.
         25    2    1    2    0    0  0.00000000000E+00  0.00000000000E+00 -0.61736541330E+02  0.13941409622E+03  0.12499955876E+03 0.  0.
    9000005    1    3    3    0    0 -0.35176215829E+02 -0.45379886269E+02 -0.58381173569E+02  0.81890546861E+02  0.10000000000E+01 0.  0.
    9000005    1    3    3    0    0  0.35176215829E+02  0.45379886269E+02 -0.33553677608E+01  0.57523549358E+02  0.10000000000E+01 0.  0.
<mgrwt>
<rscale>  0 0.12499956E+03</rscale>
<asrwt>0</asrwt>
<pdfrwt beam="1">  1        4 0.59751966E-02 0.12499956E+03</pdfrwt>
<pdfrwt beam="2">  1       -4 0.15473126E-01 0.12499956E+03</pdfrwt>
<totfact> 0.10145844E+04</totfact>
</mgrwt>
</event>
<event>
 5    1  0.3243498E-002  0.1250015E+03  0.7818608E-02  0.1235067E+00
          4   -1    0    0  501    0  0.00000000000E+00  0.00000000000E+00  0.23518111443E+02  0.23552377074E+02  0.12700000000E+01 0. -1.
         -4   -1    0    0    0  501 -0.00000000000E+00 -0.00000000000E+00 -0.16594174939E+03  0.16594660916E+03  0.12700000000E+01 0. -1.
         25    2    1    2    0    0  0.00000000000E+00  0.00000000000E+00 -0.14242363795E+03  0.18949898624E+03  0.12500149254E+03 0.  0.
    9000005    1    3    3    0    0 -0.14351727592E+02 -0.59220086334E+02 -0.92237045976E+02  0.11055163210E+03  0.10000000000E+01 0.  0.
    9000005    1    3    3    0    0  0.14351727592E+02  0.59220086334E+02 -0.50186591976E+02  0.78947354132E+02  0.10000000000E+01 0.  0.
<mgrwt>
<rscale>  0 0.12500149E+03</rscale>
<asrwt>0</asrwt>
<pdfrwt beam="1">  1        4 0.36211807E-02 0.12500149E+03</pdfrwt>
<pdfrwt beam="2">  1       -4 0.25532509E-01 0.12500149E+03</pdfrwt>
<totfact> 0.91931489E+03</totfact>
</mgrwt>
</event>
<event>
 5    1  0.3243498E-002  0.1249996E+03  0.7818608E-02  0.1235070E+00
         -4   -1    0    0    0  501 -0.00000000000E+00  0.00000000000E+00  0.28249175838E+03  0.28249461314E+03  0.12700000000E+01 0.  1.
          4   -1    0    0  501    0  0.00000000000E+00 -0.00000000000E+00 -0.13795665043E+02  0.13853998483E+02  0.12700000000E+01 0.  1.
         25    2    1    2    0    0  0.00000000000E+00  0.00000000000E+00  0.26869609333E+03  0.29634861162E+03  0.12499963614E+03 0.  0.
    9000005    1    3    3    0    0  0.42623385874E+02  0.40677081757E+02  0.18372946690E+03  0.19294790750E+03  0.10000000000E+01 0.  0.
    9000005    1    3    3    0    0 -0.42623385874E+02 -0.40677081757E+02  0.84966626437E+02  0.10340070412E+03  0.10000000000E+01 0.  0.
<mgrwt>
<rscale>  0 0.12499964E+03</rscale>
<asrwt>0</asrwt>
<pdfrwt beam="2">  1        4 0.21271170E-02 0.12499964E+03</pdfrwt>
<pdfrwt beam="1">  1       -4 0.43464974E-01 0.12499964E+03</pdfrwt>
<totfact> 0.76059772E+03</totfact>
</mgrwt>
</event>
<event>
 5    1  0.3243498E-002  0.1250008E+03  0.7818608E-02  0.1235068E+00
         -4   -1    0    0    0  501 -0.00000000000E+00  0.00000000000E+00  0.21616800234E+03  0.21617173297E+03  0.12700000000E+01 0. -1.
          4   -1    0    0  501    0  0.00000000000E+00 -0.00000000000E+00 -0.18044451104E+02  0.18089088304E+02  0.12700000000E+01 0. -1.
         25    2    1    2    0    0  0.00000000000E+00  0.00000000000E+00  0.19812355123E+03  0.23426082127E+03  0.12500076332E+03 0.  0.
    9000005    1    3    3    0    0  0.19782156585E+02  0.48129609862E+02  0.16391410792E+03  0.17197856797E+03  0.10000000000E+01 0.  0.
    9000005    1    3    3    0    0 -0.19782156585E+02 -0.48129609862E+02  0.34209443307E+02  0.62282253300E+02  0.10000000000E+01 0.  0.
<mgrwt>
<rscale>  0 0.12500076E+03</rscale>
<asrwt>0</asrwt>
<pdfrwt beam="2">  1        4 0.27797901E-02 0.12500076E+03</pdfrwt>
<pdfrwt beam="1">  1       -4 0.33260335E-01 0.12500076E+03</pdfrwt>
<totfact> 0.84658168E+03</totfact>
</mgrwt>
</event>
<event>
 5    1  0.3243498E-002  0.1249998E+03  0.7818608E-02  0.1235070E+00
         -4   -1    0    0    0  501 -0.00000000000E+00  0.00000000000E+00  0.12366491376E+01  0.17726254792E+01  0.12700000000E+01 0. -1.
          4   -1    0    0  501    0  0.00000000000E+00 -0.00000000000E+00 -0.25955970889E+04  0.25955973996E+04  0.12700000000E+01 0. -1.
         25    2    1    2    0    0  0.00000000000E+00  0.00000000000E+00 -0.25943604398E+04  0.25973700251E+04  0.12499982309E+03 0.  0.
    9000005    1    3    3    0    0 -0.31796899336E+02  0.50313921622E+02 -0.90144796241E+03  0.90341129197E+03  0.10000000000E+01 0.  0.
    9000005    1    3    3    0    0  0.31796899336E+02 -0.50313921622E+02 -0.16929124774E+04  0.16939587331E+04  0.10000000000E+01 0.  0.
<mgrwt>
<rscale>  0 0.12499982E+03</rscale>
<asrwt>0</asrwt>
<pdfrwt beam="2">  1        4 0.39936030E+00 0.12499982E+03</pdfrwt>
<pdfrwt beam="1">  1       -4 0.23150864E-03 0.12499982E+03</pdfrwt>
<totfact> 0.39489091E+02</totfact>
</mgrwt>
</event>
<event>
 5    1  0.3243498E-002  0.1250021E+03  0.7818608E-02  0.1235066E+00
         -4   -1    0    0    0  501 -0.00000000000E+00  0.00000000000E+00  0.58097689549E+02  0.58111568821E+02  0.12700000000E+01 0. -1.
          4   -1    0    0  501    0  0.00000000000E+00 -0.00000000000E+00 -0.67210281434E+02  0.67222279271E+02  0.12700000000E+01 0. -1.
         25    2    1    2    0    0  0.00000000000E+00  0.00000000000E+00 -0.91125918855E+01  0.12533384809E+03  0.12500213657E+03 0.  0.
    9000005    1    3    3    0    0 -0.50844484202E+02  0.33632749621E+02 -0.18342696662E+02  0.63669285701E+02  0.10000000000E+01 0.  0.
    9000005    1    3    3    0    0  0.50844484202E+02 -0.33632749621E+02  0.92301047763E+01  0.61664562392E+02  0.10000000000E+01 0.  0.
<mgrwt>
<rscale>  0 0.12500214E+03</rscale>
<asrwt>0</asrwt>
<pdfrwt beam="2">  1        4 0.10342034E-01 0.12500214E+03</pdfrwt>
<pdfrwt beam="1">  1       -4 0.89400967E-02 0.12500214E+03</pdfrwt>
<totfact> 0.10445111E+04</totfact>
</mgrwt>
</event>
<event>
 5    1  0.3243498E-002  0.1250001E+03  0.7818608E-02  0.1235069E+00
         -4   -1    0    0    0  501 -0.00000000000E+00  0.00000000000E+00  0.75613292670E+01  0.76672420259E+01  0.12700000000E+01 0. -1.
          4   -1    0    0  501    0  0.00000000000E+00 -0.00000000000E+00 -0.51291000931E+03  0.51291158161E+03  0.12700000000E+01 0. -1.
         25    2    1    2    0    0  0.00000000000E+00  0.00000000000E+00 -0.50534868004E+03  0.52057882364E+03  0.12500009279E+03 0.  0.
    9000005    1    3    3    0    0  0.28843863155E+01  0.20272018461E+02 -0.67855703250E+01  0.21594406256E+02  0.10000000000E+01 0.  0.
    9000005    1    3    3    0    0 -0.28843863155E+01 -0.20272018461E+02 -0.49856310972E+03  0.49898441738E+03  0.10000000000E+01 0.  0.
<mgrwt>
<rscale>  0 0.12500009E+03</rscale>
<asrwt>0</asrwt>
<pdfrwt beam="2">  1        4 0.78917473E-01 0.12500009E+03</pdfrwt>
<pdfrwt beam="1">  1       -4 0.11715499E-02 0.12500009E+03</pdfrwt>
<totfact> 0.54302222E+03</totfact>
</mgrwt>
</event>
<event>
 5    1  0.3243498E-002  0.1249983E+03  0.7818608E-02  0.1235072E+00
         -4   -1    0    0    0  501 -0.00000000000E+00  0.00000000000E+00  0.20629227137E+02  0.20668282760E+02  0.12700000000E+01 0. -1.
          4   -1    0    0  501    0  0.00000000000E+00 -0.00000000000E+00 -0.18912956949E+03  0.18913383345E+03  0.12700000000E+01 0. -1.
         25    2    1    2    0    0  0.00000000000E+00  0.00000000000E+00 -0.16850034235E+03  0.20980211621E+03  0.12499825036E+03 0.  0.
    9000005    1    3    3    0    0 -0.53322693324E+02  0.32209406358E+02 -0.75961807519E+02  0.98244346823E+02  0.10000000000E+01 0.  0.
    9000005    1    3    3    0    0  0.53322693324E+02 -0.32209406358E+02 -0.92538534835E+02  0.11155776939E+03  0.10000000000E+01 0.  0.
<mgrwt>
<rscale>  0 0.12499825E+03</rscale>
<asrwt>0</asrwt>
<pdfrwt beam="2">  1        4 0.29100188E-01 0.12499825E+03</pdfrwt>
<pdfrwt beam="1">  1       -4 0.31770597E-02 0.12499825E+03</pdfrwt>
<totfact> 0.88511671E+03</totfact>
</mgrwt>
</event>
<event>
 5    1  0.3243498E-002  0.1249984E+03  0.7818608E-02  0.1235072E+00
         -4   -1    0    0    0  501 -0.00000000000E+00  0.00000000000E+00  0.42189279950E+03  0.42189471100E+03  0.12700000000E+01 0. -1.
          4   -1    0    0  501    0  0.00000000000E+00 -0.00000000000E+00 -0.92131431786E+01  0.93002638257E+01  0.12700000000E+01 0. -1.
         25    2    1    2    0    0  0.00000000000E+00  0.00000000000E+00  0.41267965632E+03  0.43119497483E+03  0.12499843028E+03 0.  0.
    9000005    1    3    3    0    0  0.29507291386E+02 -0.52069890152E+02  0.14432385111E+03  0.15624444856E+03  0.10000000000E+01 0.  0.
    9000005    1    3    3    0    0 -0.29507291386E+02  0.52069890152E+02  0.26835580521E+03  0.27495052627E+03  0.10000000000E+01 0.  0.
<mgrwt>
<rscale>  0 0.12499843E+03</rscale>
<asrwt>0</asrwt>
<pdfrwt beam="2">  1        4 0.14242551E-02 0.12499843E+03</pdfrwt>
<pdfrwt beam="1">  1       -4 0.64913442E-01 0.12499843E+03</pdfrwt>
<totfact> 0.61629949E+03</totfact>
</mgrwt>
</event>
<event>
 5    1  0.3243498E-002  0.1250123E+03  0.7818608E-02  0.1235050E+00
         -4   -1    0    0    0  501 -0.00000000000E+00  0.00000000000E+00  0.39650876889E+02  0.39671210444E+02  0.12700000000E+01 0.  1.
          4   -1    0    0  501    0  0.00000000000E+00 -0.00000000000E+00 -0.98485851443E+02  0.98494039588E+02  0.12700000000E+01 0.  1.
         25    2    1    2    0    0  0.00000000000E+00  0.00000000000E+00 -0.58834974554E+02  0.13816525003E+03  0.12501232773E+03 0.  0.
    9000005    1    3    3    0    0  0.92526876350E+01  0.70868357924E+01  0.38444616507E+02  0.40184872880E+02  0.10000000000E+01 0.  0.
    9000005    1    3    3    0    0 -0.92526876350E+01 -0.70868357924E+01 -0.97279591061E+02  0.97980377152E+02  0.10000000000E+01 0.  0.
<mgrwt>
<rscale>  0 0.12501233E+03</rscale>
<asrwt>0</asrwt>
<pdfrwt beam="2">  1        4 0.15153863E-01 0.12501233E+03</pdfrwt>
<pdfrwt beam="1">  1       -4 0.61023289E-02 0.12501233E+03</pdfrwt>
<totfact> 0.10168929E+04</totfact>
</mgrwt>
</event>
<event>
 5    1  0.3243498E-002  0.1250003E+03  0.7818608E-02  0.1235069E+00
         -4   -1    0    0    0  501 -0.00000000000E+00  0.00000000000E+00  0.50839368118E+03  0.50839526744E+03  0.12700000000E+01 0.  1.
          4   -1    0    0  501    0  0.00000000000E+00 -0.00000000000E+00 -0.76294596976E+01  0.77344395580E+01  0.12700000000E+01 0.  1.
         25    2    1    2    0    0  0.00000000000E+00  0.00000000000E+00  0.50076422148E+03  0.51612970700E+03  0.12500027575E+03 0.  0.
    9000005    1    3    3    0    0 -0.16014016293E+02  0.49295152437E+02  0.39453231420E+03  0.39792362046E+03  0.10000000000E+01 0.  0.
    9000005    1    3    3    0    0  0.16014016293E+02 -0.49295152437E+02  0.10623190727E+03  0.11820608654E+03  0.10000000000E+01 0.  0.
<mgrwt>
<rscale>  0 0.12500028E+03</rscale>
<asrwt>0</asrwt>
<pdfrwt beam="2">  1        4 0.11819600E-02 0.12500028E+03</pdfrwt>
<pdfrwt beam="1">  1       -4 0.78222636E-01 0.12500028E+03</pdfrwt>
<totfact> 0.54633918E+03</totfact>
</mgrwt>
</event>
<event>
 5    1  0.3243498E-002  0.1249971E+03  0.7818608E-02  0.1235074E+00
         -4   -1    0    0    0  501 -0.00000000000E+00  0.00000000000E+00  0.33398107606E+03  0.33398349071E+03  0.12700000000E+01 0. -1.
          4   -1    0    0  501    0  0.00000000000E+00 -0.00000000000E+00 -0.11658532151E+02  0.11727500668E+02  0.12700000000E+01 0. -1.
         25    2    1    2    0    0  0.00000000000E+00  0.00000000000E+00  0.32232254391E+03  0.34571099138E+03  0.12499706895E+03 0.  0.
    9000005    1    3    3    0    0  0.20940080374E+01  0.40190127523E+02  0.28941059282E+02  0.49580400687E+02  0.10000000000E+01 0.  0.
    9000005    1    3    3    0    0 -0.20940080374E+01 -0.40190127523E+02  0.29338148463E+03  0.29613059069E+03  0.10000000000E+01 0.  0.
<mgrwt>
<rscale>  0 0.12499707E+03</rscale>
<asrwt>0</asrwt>
<pdfrwt beam="2">  1        4 0.17991114E-02 0.12499707E+03</pdfrwt>
<pdfrwt beam="1">  1       -4 0.51387194E-01 0.12499707E+03</pdfrwt>
<totfact> 0.70203544E+03</totfact>
</mgrwt>
</event>
<event>
 5    1  0.3243498E-002  0.1250059E+03  0.7818608E-02  0.1235060E+00
         -4   -1    0    0    0  501 -0.00000000000E+00  0.00000000000E+00  0.46254991903E+03  0.46255166251E+03  0.12700000000E+01 0.  1.
          4   -1    0    0  501    0  0.00000000000E+00 -0.00000000000E+00 -0.83963162685E+01  0.84918211757E+01  0.12700000000E+01 0.  1.
         25    2    1    2    0    0  0.00000000000E+00  0.00000000000E+00  0.45415360276E+03  0.47104348369E+03  0.12500587436E+03 0.  0.
    9000005    1    3    3    0    0  0.24306537065E+02 -0.56236473652E+02  0.27357493617E+03  0.28035262512E+03  0.10000000000E+01 0.  0.
    9000005    1    3    3    0    0 -0.24306537065E+02  0.56236473652E+02  0.18057866659E+03  0.19069085856E+03  0.10000000000E+01 0.  0.
<mgrwt>
<rscale>  0 0.12500587E+03</rscale>
<asrwt>0</asrwt>
<pdfrwt beam="2">  1        4 0.12992213E-02 0.12500587E+03</pdfrwt>
<pdfrwt beam="1">  1       -4 0.71169024E-01 0.12500587E+03</pdfrwt>
<totfact> 0.58175646E+03</totfact>
</mgrwt>
</event>
<event>
 5    1  0.3243498E-002  0.1249966E+03  0.7818608E-02  0.1235075E+00
          4   -1    0    0  501    0  0.00000000000E+00  0.00000000000E+00  0.10234326542E+04  0.10234334422E+04  0.12700000000E+01 0.  1.
         -4   -1    0    0    0  501 -0.00000000000E+00 -0.00000000000E+00 -0.37101444222E+01  0.39214884462E+01  0.12700000000E+01 0.  1.
         25    2    1    2    0    0  0.00000000000E+00  0.00000000000E+00  0.10197225098E+04  0.10273549306E+04  0.12499662613E+03 0.  0.
    9000005    1    3    3    0    0  0.11965175605E+02  0.65856953749E+01  0.86668114679E+01  0.16206493509E+02  0.10000000000E+01 0.  0.
    9000005    1    3    3    0    0 -0.11965175605E+02 -0.65856953749E+01  0.10110556983E+04  0.10111484371E+04  0.10000000000E+01 0.  0.
<mgrwt>
<rscale>  0 0.12499663E+03</rscale>
<asrwt>0</asrwt>
<pdfrwt beam="1">  1        4 0.15746750E+00 0.12499663E+03</pdfrwt>
<pdfrwt beam="2">  1       -4 0.58710928E-03 0.12499663E+03</pdfrwt>
<totfact> 0.29714683E+03</totfact>
</mgrwt>
</event>
<event>
 5    1  0.3243498E-002  0.1249999E+03  0.7818608E-02  0.1235069E+00
          4   -1    0    0  501    0  0.00000000000E+00  0.00000000000E+00  0.53358257003E+02  0.53373368738E+02  0.12700000000E+01 0. -1.
         -4   -1    0    0    0  501 -0.00000000000E+00 -0.00000000000E+00 -0.73176903954E+02  0.73187923678E+02  0.12700000000E+01 0. -1.
         25    2    1    2    0    0  0.00000000000E+00  0.00000000000E+00 -0.19818646951E+02  0.12656129242E+03  0.12499992788E+03 0.  0.
    9000005    1    3    3    0    0 -0.37963564993E+01 -0.62236638795E+02 -0.14136877641E+02  0.63942652749E+02  0.10000000000E+01 0.  0.
    9000005    1    3    3    0    0  0.37963564993E+01  0.62236638795E+02 -0.56817693104E+01  0.62618639667E+02  0.10000000000E+01 0.  0.
<mgrwt>
<rscale>  0 0.12499993E+03</rscale>
<asrwt>0</asrwt>
<pdfrwt beam="1">  1        4 0.82109727E-02 0.12499993E+03</pdfrwt>
<pdfrwt beam="2">  1       -4 0.11259995E-01 0.12499993E+03</pdfrwt>
<totfact> 0.10418709E+04</totfact>
</mgrwt>
</event>
<event>
 5    1  0.3243498E-002  0.1250014E+03  0.7818608E-02  0.1235067E+00
         -4   -1    0    0    0  501 -0.00000000000E+00  0.00000000000E+00  0.80864976747E+02  0.80874948929E+02  0.12700000000E+01 0. -1.
          4   -1    0    0  501    0  0.00000000000E+00 -0.00000000000E+00 -0.48285617505E+02  0.48302316279E+02  0.12700000000E+01 0. -1.
         25    2    1    2    0    0  0.00000000000E+00  0.00000000000E+00  0.32579359242E+02  0.12917726521E+03  0.12500140478E+03 0.  0.
    9000005    1    3    3    0    0 -0.20101475466E+02  0.48505411347E+02  0.51311238473E+02  0.73421300994E+02  0.10000000000E+01 0.  0.
    9000005    1    3    3    0    0  0.20101475466E+02 -0.48505411347E+02 -0.18731879232E+02  0.55755964214E+02  0.10000000000E+01 0.  0.
<mgrwt>
<rscale>  0 0.12500140E+03</rscale>
<asrwt>0</asrwt>
<pdfrwt beam="2">  1        4 0.74306082E-02 0.12500140E+03</pdfrwt>
<pdfrwt beam="1">  1       -4 0.12442817E-01 0.12500140E+03</pdfrwt>
<totfact> 0.10361811E+04</totfact>
</mgrwt>
</event>
<event>
 5    1  0.3243498E-002  0.1249987E+03  0.7818608E-02  0.1235071E+00
         -4   -1    0    0    0  501 -0.00000000000E+00  0.00000000000E+00  0.44913181597E+02  0.44931133763E+02  0.12700000000E+01 0. -1.
          4   -1    0    0  501    0  0.00000000000E+00 -0.00000000000E+00 -0.86931599933E+02  0.86940876271E+02  0.12700000000E+01 0. -1.
         25    2    1    2    0    0  0.00000000000E+00  0.00000000000E+00 -0.42018418335E+02  0.13187201003E+03  0.12499871820E+03 0.  0.
    9000005    1    3    3    0    0  0.70475170228E+00 -0.62215802256E+02 -0.27148758194E+02  0.67892251375E+02  0.10000000000E+01 0.  0.
    9000005    1    3    3    0    0 -0.70475170228E+00  0.62215802256E+02 -0.14869660141E+02  0.63979758659E+02  0.10000000000E+01 0.  0.
<mgrwt>
<rscale>  0 0.12499872E+03</rscale>
<asrwt>0</asrwt>
<pdfrwt beam="2">  1        4 0.13376187E-01 0.12499872E+03</pdfrwt>
<pdfrwt beam="1">  1       -4 0.69118148E-02 0.12499872E+03</pdfrwt>
<totfact> 0.10304729E+04</totfact>
</mgrwt>
</event>
<event>
 5    1  0.3243498E-002  0.1250014E+03  0.7818608E-02  0.1235067E+00
          4   -1    0    0  501    0  0.00000000000E+00  0.00000000000E+00  0.10659153009E+02  0.10734544372E+02  0.12700000000E+01 0.  1.
         -4   -1    0    0    0  501 -0.00000000000E+00 -0.00000000000E+00 -0.36510940789E+03  0.36511161667E+03  0.12700000000E+01 0.  1.
         25    2    1    2    0    0  0.00000000000E+00  0.00000000000E+00 -0.35445025488E+03  0.37584616104E+03  0.12500141434E+03 0.  0.
    9000005    1    3    3    0    0 -0.11847334192E+02  0.16482534704E+02 -0.35493577601E+03  0.35551714216E+03  0.10000000000E+01 0.  0.
    9000005    1    3    3    0    0  0.11847334192E+02 -0.16482534704E+02  0.48552113756E+00  0.20329018877E+02  0.10000000000E+01 0.  0.
<mgrwt>
<rscale>  0 0.12500141E+03</rscale>
<asrwt>0</asrwt>
<pdfrwt beam="1">  1        4 0.16458392E-02 0.12500141E+03</pdfrwt>
<pdfrwt beam="2">  1       -4 0.56176638E-01 0.12500141E+03</pdfrwt>
<totfact> 0.66969633E+03</totfact>
</mgrwt>
</event>
<event>
 5    1  0.3243498E-002  0.1249993E+03  0.7818608E-02  0.1235070E+00
         -4   -1    0    0    0  501 -0.00000000000E+00  0.00000000000E+00  0.32892400497E+03  0.32892645675E+03  0.12700000000E+01 0. -1.
          4   -1    0    0  501    0  0.00000000000E+00 -0.00000000000E+00 -0.11839261513E+02  0.11907183259E+02  0.12700000000E+01 0. -1.
         25    2    1    2    0    0  0.00000000000E+00  0.00000000000E+00  0.31708474346E+03  0.34083364000E+03  0.12499934250E+03 0.  0.
    9000005    1    3    3    0    0  0.37263088141E+02 -0.50133943463E+02  0.16346468201E+03  0.17499614936E+03  0.10000000000E+01 0.  0.
    9000005    1    3    3    0    0 -0.37263088141E+02  0.50133943463E+02  0.15362006145E+03  0.16583749065E+03  0.10000000000E+01 0.  0.
<mgrwt>
<rscale>  0 0.12499934E+03</rscale>
<asrwt>0</asrwt>
<pdfrwt beam="2">  1        4 0.18268383E-02 0.12499934E+03</pdfrwt>
<pdfrwt beam="1">  1       -4 0.50609103E-01 0.12499934E+03</pdfrwt>
<totfact> 0.70745911E+03</totfact>
</mgrwt>
</event>
<event>
 5    1  0.3243498E-002  0.1250012E+03  0.7818608E-02  0.1235067E+00
          4   -1    0    0  501    0  0.00000000000E+00  0.00000000000E+00  0.72906680669E+02  0.72917741231E+02  0.12700000000E+01 0.  1.
         -4   -1    0    0    0  501 -0.00000000000E+00 -0.00000000000E+00 -0.53557144935E+02  0.53572200567E+02  0.12700000000E+01 0.  1.
         25    2    1    2    0    0  0.00000000000E+00  0.00000000000E+00  0.19349535734E+02  0.12648994180E+03  0.12500120337E+03 0.  0.
    9000005    1    3    3    0    0  0.61049976068E+02  0.35205031844E+01 -0.33561666491E+01  0.61251590797E+02  0.10000000000E+01 0.  0.
    9000005    1    3    3    0    0 -0.61049976068E+02 -0.35205031844E+01  0.22705702383E+02  0.65238351001E+02  0.10000000000E+01 0.  0.
<mgrwt>
<rscale>  0 0.12500120E+03</rscale>
<asrwt>0</asrwt>
<pdfrwt beam="1">  1        4 0.11218421E-01 0.12500120E+03</pdfrwt>
<pdfrwt beam="2">  1       -4 0.82415697E-02 0.12500120E+03</pdfrwt>
<totfact> 0.10419964E+04</totfact>
</mgrwt>
</event>
<event>
 4    1  0.3243498E-002  0.1250806E+03  0.7818608E-02  0.1234943E+00
          4   -1    0    0  501    0  0.00000000000E+00  0.00000000000E+00  0.11211690482E+03  0.11212409752E+03  0.12700000000E+01 0.  1.
         -4   -1    0    0    0  501 -0.00000000000E+00 -0.00000000000E+00 -0.34865911776E+02  0.34889034150E+02  0.12700000000E+01 0.  1.
    9000005    1    1    2    0    0 -0.15007759885E+02  0.18614782528E+02 -0.29286240214E+02  0.37820984270E+02  0.10000000000E+01 0.  0.
    9000005    1    1    2    0    0  0.15007759885E+02 -0.18614782528E+02  0.10653723325E+03  0.10919214740E+03  0.10000000000E+01 0.  0.
<mgrwt>
<rscale>  0 0.12508055E+03</rscale>
<asrwt>0</asrwt>
<pdfrwt beam="1">  1        4 0.17251087E-01 0.12508055E+03</pdfrwt>
<pdfrwt beam="2">  1       -4 0.53663183E-02 0.12508055E+03</pdfrwt>
<totfact> 0.99721494E+03</totfact>
</mgrwt>
</event>
<event>
 5    1  0.3243498E-002  0.1249971E+03  0.7818608E-02  0.1235074E+00
          4   -1    0    0  501    0  0.00000000000E+00  0.00000000000E+00  0.10280839652E+03  0.10281624043E+03  0.12700000000E+01 0.  1.
         -4   -1    0    0    0  501 -0.00000000000E+00 -0.00000000000E+00 -0.37973788493E+02  0.37995019575E+02  0.12700000000E+01 0.  1.
         25    2    1    2    0    0  0.00000000000E+00  0.00000000000E+00  0.64834608028E+02  0.14081126000E+03  0.12499713815E+03 0.  0.
    9000005    1    3    3    0    0 -0.45377886406E+02  0.25698555664E+02 -0.63699117947E+01  0.52546589938E+02  0.10000000000E+01 0.  0.
    9000005    1    3    3    0    0  0.45377886406E+02 -0.25698555664E+02  0.71204519823E+02  0.88264670061E+02  0.10000000000E+01 0.  0.
<mgrwt>
<rscale>  0 0.12499714E+03</rscale>
<asrwt>0</asrwt>
<pdfrwt beam="1">  1        4 0.15818913E-01 0.12499714E+03</pdfrwt>
<pdfrwt beam="2">  1       -4 0.58443579E-02 0.12499714E+03</pdfrwt>
<totfact> 0.10117452E+04</totfact>
</mgrwt>
</event>
<event>
 5    1  0.3243498E-002  0.1249969E+03  0.7818608E-02  0.1235074E+00
         -4   -1    0    0    0  501 -0.00000000000E+00  0.00000000000E+00  0.55111278752E+02  0.55125909930E+02  0.12700000000E+01 0. -1.
          4   -1    0    0  501    0  0.00000000000E+00 -0.00000000000E+00 -0.70846127605E+02  0.70857509811E+02  0.12700000000E+01 0. -1.
         25    2    1    2    0    0  0.00000000000E+00  0.00000000000E+00 -0.15734848853E+02  0.12598341974E+03  0.12499694629E+03 0.  0.
    9000005    1    3    3    0    0 -0.30345346828E+01 -0.22454383459E+02 -0.66564923049E+02  0.70322803683E+02  0.10000000000E+01 0.  0.
    9000005    1    3    3    0    0  0.30345346828E+01  0.22454383459E+02  0.50830074196E+02  0.55660616059E+02  0.10000000000E+01 0.  0.
<mgrwt>
<rscale>  0 0.12499695E+03</rscale>
<asrwt>0</asrwt>
<pdfrwt beam="2">  1        4 0.10901405E-01 0.12499695E+03</pdfrwt>
<pdfrwt beam="1">  1       -4 0.84806593E-02 0.12499695E+03</pdfrwt>
<totfact> 0.10432039E+04</totfact>
</mgrwt>
</event>
<event>
 5    1  0.3243498E-002  0.1249983E+03  0.7818608E-02  0.1235072E+00
         -4   -1    0    0    0  501 -0.00000000000E+00  0.00000000000E+00  0.15718031575E+02  0.15769255423E+02  0.12700000000E+01 0.  1.
          4   -1    0    0  501    0  0.00000000000E+00 -0.00000000000E+00 -0.24805632274E+03  0.24805957380E+03  0.12700000000E+01 0.  1.
         25    2    1    2    0    0  0.00000000000E+00  0.00000000000E+00 -0.23233829117E+03  0.26382882922E+03  0.12499827833E+03 0.  0.
    9000005    1    3    3    0    0  0.57239783563E+02  0.17662130552E+02 -0.78601850436E+02  0.98831141701E+02  0.10000000000E+01 0.  0.
    9000005    1    3    3    0    0 -0.57239783563E+02 -0.17662130552E+02 -0.15373644073E+03  0.16499768752E+03  0.10000000000E+01 0.  0.
<mgrwt>
<rscale>  0 0.12499828E+03</rscale>
<asrwt>0</asrwt>
<pdfrwt beam="2">  1        4 0.38166699E-01 0.12499828E+03</pdfrwt>
<pdfrwt beam="1">  1       -4 0.24223493E-02 0.12499828E+03</pdfrwt>
<totfact> 0.80374804E+03</totfact>
</mgrwt>
</event>
<event>
 5    1  0.3243498E-002  0.1249999E+03  0.7818608E-02  0.1235069E+00
         -4   -1    0    0    0  501 -0.00000000000E+00  0.00000000000E+00  0.76622879149E+03  0.76622984398E+03  0.12700000000E+01 0. -1.
          4   -1    0    0  501    0  0.00000000000E+00 -0.00000000000E+00 -0.50178472494E+01  0.51760690701E+01  0.12700000000E+01 0. -1.
         25    2    1    2    0    0  0.00000000000E+00  0.00000000000E+00  0.76121094424E+03  0.77140591305E+03  0.12499992424E+03 0.  0.
    9000005    1    3    3    0    0  0.92865323733E+01  0.41148196890E+01  0.80215695926E-01  0.10206755564E+02  0.10000000000E+01 0.  0.
    9000005    1    3    3    0    0 -0.92865323733E+01 -0.41148196890E+01  0.76113072855E+03  0.76119915749E+03  0.10000000000E+01 0.  0.
<mgrwt>
<rscale>  0 0.12499992E+03</rscale>
<asrwt>0</asrwt>
<pdfrwt beam="2">  1        4 0.78422861E-03 0.12499992E+03</pdfrwt>
<pdfrwt beam="1">  1       -4 0.11789357E+00 0.12499992E+03</pdfrwt>
<totfact> 0.39570680E+03</totfact>
</mgrwt>
</event>
<event>
 5    1  0.3243498E-002  0.1249912E+03  0.7818608E-02  0.1235083E+00
         -4   -1    0    0    0  501 -0.00000000000E+00  0.00000000000E+00  0.35995277318E+03  0.35995501361E+03  0.12700000000E+01 0.  1.
          4   -1    0    0  501    0  0.00000000000E+00 -0.00000000000E+00 -0.10811139006E+02  0.10885477785E+02  0.12700000000E+01 0.  1.
         25    2    1    2    0    0  0.00000000000E+00  0.00000000000E+00  0.34914163417E+03  0.37084049139E+03  0.12499115705E+03 0.  0.
    9000005    1    3    3    0    0  0.35055059813E+02 -0.49275848199E+02  0.12787285260E+03  0.14145470253E+03  0.10000000000E+01 0.  0.
    9000005    1    3    3    0    0 -0.35055059813E+02  0.49275848199E+02  0.22126878157E+03  0.22938578886E+03  0.10000000000E+01 0.  0.
<mgrwt>
<rscale>  0 0.12499116E+03</rscale>
<asrwt>0</asrwt>
<pdfrwt beam="2">  1        4 0.16691427E-02 0.12499116E+03</pdfrwt>
<pdfrwt beam="1">  1       -4 0.55383246E-01 0.12499116E+03</pdfrwt>
<totfact> 0.67504287E+03</totfact>
</mgrwt>
</event>
<event>
 5    1  0.3243498E-002  0.1249997E+03  0.7818608E-02  0.1235070E+00
         -4   -1    0    0    0  501 -0.00000000000E+00  0.00000000000E+00  0.60572877309E+03  0.60573010446E+03  0.12700000000E+01 0.  1.
          4   -1    0    0  501    0  0.00000000000E+00 -0.00000000000E+00 -0.63849377171E+01  0.65100176383E+01  0.12700000000E+01 0.  1.
         25    2    1    2    0    0  0.00000000000E+00  0.00000000000E+00  0.59934383538E+03  0.61224012210E+03  0.12499973643E+03 0.  0.
    9000005    1    3    3    0    0 -0.50897381997E+02  0.34307233792E+02  0.24219604673E+03  0.24985486754E+03  0.10000000000E+01 0.  0.
    9000005    1    3    3    0    0  0.50897381997E+02 -0.34307233792E+02  0.35714778865E+03  0.36238525456E+03  0.10000000000E+01 0.  0.
<mgrwt>
<rscale>  0 0.12499974E+03</rscale>
<asrwt>0</asrwt>
<pdfrwt beam="2">  1        4 0.99202224E-03 0.12499974E+03</pdfrwt>
<pdfrwt beam="1">  1       -4 0.93198749E-01 0.12499974E+03</pdfrwt>
<totfact> 0.48104267E+03</totfact>
</mgrwt>
</event>
<event>
 5    1  0.3243498E-002  0.1250000E+03  0.7818608E-02  0.1235069E+00
          4   -1    0    0  501    0  0.00000000000E+00  0.00000000000E+00  0.43541964139E+02  0.43560481414E+02  0.12700000000E+01 0. -1.
         -4   -1    0    0    0  501 -0.00000000000E+00 -0.00000000000E+00 -0.89670171820E+02  0.89679164883E+02  0.12700000000E+01 0. -1.
         25    2    1    2    0    0  0.00000000000E+00  0.00000000000E+00 -0.46128207681E+02  0.13323964630E+03  0.12499996721E+03 0.  0.
    9000005    1    3    3    0    0  0.34323395881E+02 -0.52216912099E+02 -0.23852116377E+02  0.66892636887E+02  0.10000000000E+01 0.  0.
    9000005    1    3    3    0    0 -0.34323395881E+02  0.52216912099E+02 -0.22276091304E+02  0.66347009411E+02  0.10000000000E+01 0.  0.
<mgrwt>
<rscale>  0 0.12499997E+03</rscale>
<asrwt>0</asrwt>
<pdfrwt beam="1">  1        4 0.67008799E-02 0.12499997E+03</pdfrwt>
<pdfrwt beam="2">  1       -4 0.13797527E-01 0.12499997E+03</pdfrwt>
<totfact> 0.10275317E+04</totfact>
</mgrwt>
</event>
<event>
 5    1  0.3243498E-002  0.1250000E+03  0.7818608E-02  0.1235069E+00
          4   -1    0    0  501    0  0.00000000000E+00  0.00000000000E+00  0.47929560439E+02  0.47946383220E+02  0.12700000000E+01 0. -1.
         -4   -1    0    0    0  501 -0.00000000000E+00 -0.00000000000E+00 -0.81463748000E+02  0.81473646894E+02  0.12700000000E+01 0. -1.
         25    2    1    2    0    0  0.00000000000E+00  0.00000000000E+00 -0.33534187561E+02  0.12942003011E+03  0.12500000984E+03 0.  0.
    9000005    1    3    3    0    0  0.38832106148E+02 -0.27370965325E+01 -0.67381556494E+02  0.77824792456E+02  0.10000000000E+01 0.  0.
    9000005    1    3    3    0    0 -0.38832106148E+02  0.27370965325E+01  0.33847368933E+02  0.51595237658E+02  0.10000000000E+01 0.  0.
<mgrwt>
<rscale>  0 0.12500001E+03</rscale>
<asrwt>0</asrwt>
<pdfrwt beam="1">  1        4 0.73758340E-02 0.12500001E+03</pdfrwt>
<pdfrwt beam="2">  1       -4 0.12534940E-01 0.12500001E+03</pdfrwt>
<totfact> 0.10356928E+04</totfact>
</mgrwt>
</event>
<event>
 5    1  0.3243498E-002  0.1249988E+03  0.7818608E-02  0.1235071E+00
         -4   -1    0    0    0  501 -0.00000000000E+00  0.00000000000E+00  0.52627801130E+01  0.54138484018E+01  0.12700000000E+01 0.  1.
          4   -1    0    0  501    0  0.00000000000E+00 -0.00000000000E+00 -0.73157268837E+03  0.73157379072E+03  0.12700000000E+01 0.  1.
         25    2    1    2    0    0  0.00000000000E+00  0.00000000000E+00 -0.72630990826E+03  0.73698763912E+03  0.12499878954E+03 0.  0.
    9000005    1    3    3    0    0  0.10112988022E+02  0.56646067786E+02 -0.21944288382E+03  0.22686389924E+03  0.10000000000E+01 0.  0.
    9000005    1    3    3    0    0 -0.10112988022E+02 -0.56646067786E+02 -0.50686702444E+03  0.51012373988E+03  0.10000000000E+01 0.  0.
<mgrwt>
<rscale>  0 0.12499879E+03</rscale>
<asrwt>0</asrwt>
<pdfrwt beam="2">  1        4 0.11256127E+00 0.12499879E+03</pdfrwt>
<pdfrwt beam="1">  1       -4 0.82136450E-03 0.12499879E+03</pdfrwt>
<totfact> 0.41205501E+03</totfact>
</mgrwt>
</event>
<event>
 5    1  0.3243498E-002  0.1250001E+03  0.7818608E-02  0.1235069E+00
         -4   -1    0    0    0  501 -0.00000000000E+00  0.00000000000E+00  0.80964504306E+01  0.81954505413E+01  0.12700000000E+01 0. -1.
          4   -1    0    0  501    0  0.00000000000E+00 -0.00000000000E+00 -0.47943377672E+03  0.47943545880E+03  0.12700000000E+01 0. -1.
         25    2    1    2    0    0  0.00000000000E+00  0.00000000000E+00 -0.47133732629E+03  0.48763090934E+03  0.12500011439E+03 0.  0.
    9000005    1    3    3    0    0 -0.98049420982E+01  0.30978540456E+02 -0.44390732217E+03  0.44509607675E+03  0.10000000000E+01 0.  0.
    9000005    1    3    3    0    0  0.98049420982E+01 -0.30978540456E+02 -0.27430004117E+02  0.42534832599E+02  0.10000000000E+01 0.  0.
<mgrwt>
<rscale>  0 0.12500011E+03</rscale>
<asrwt>0</asrwt>
<pdfrwt beam="2">  1        4 0.73766765E-01 0.12500011E+03</pdfrwt>
<pdfrwt beam="1">  1       -4 0.12533529E-02 0.12500011E+03</pdfrwt>
<totfact> 0.56836857E+03</totfact>
</mgrwt>
</event>
<event>
 5    1  0.3243498E-002  0.1250020E+03  0.7818608E-02  0.1235066E+00
          4   -1    0    0  501    0  0.00000000000E+00  0.00000000000E+00  0.86034135057E+01  0.86966444075E+01  0.12700000000E+01 0.  1.
         -4   -1    0    0    0  501 -0.00000000000E+00 -0.00000000000E+00 -0.45150825276E+03  0.45151003888E+03  0.12700000000E+01 0.  1.
         25    2    1    2    0    0  0.00000000000E+00  0.00000000000E+00 -0.44290483926E+03  0.46020668329E+03  0.12500197882E+03 0.  0.
    9000005    1    3    3    0    0  0.28135339936E+02  0.24654705891E+02 -0.37154772598E+02  0.52734514340E+02  0.10000000000E+01 0.  0.
    9000005    1    3    3    0    0 -0.28135339936E+02 -0.24654705891E+02 -0.40575006666E+03  0.40747216895E+03  0.10000000000E+01 0.  0.
<mgrwt>
<rscale>  0 0.12500198E+03</rscale>
<asrwt>0</asrwt>
<pdfrwt beam="1">  1        4 0.13309114E-02 0.12500198E+03</pdfrwt>
<pdfrwt beam="2">  1       -4 0.69470099E-01 0.12500198E+03</pdfrwt>
<totfact> 0.59087111E+03</totfact>
</mgrwt>
</event>
<event>
 5    1  0.3243498E-002  0.1249961E+03  0.7818608E-02  0.1235075E+00
          4   -1    0    0  501    0  0.00000000000E+00  0.00000000000E+00  0.16905054406E+03  0.16905531446E+03  0.12700000000E+01 0.  1.
         -4   -1    0    0    0  501 -0.00000000000E+00 -0.00000000000E+00 -0.23083001990E+02  0.23117912555E+02  0.12700000000E+01 0.  1.
         25    2    1    2    0    0  0.00000000000E+00  0.00000000000E+00  0.14596754207E+03  0.19217322702E+03  0.12499610331E+03 0.  0.
    9000005    1    3    3    0    0  0.16141600465E+02  0.59306775688E+02  0.90320785834E+02  0.10925515668E+03  0.10000000000E+01 0.  0.
    9000005    1    3    3    0    0 -0.16141600465E+02 -0.59306775688E+02  0.55646756238E+02  0.82918070334E+02  0.10000000000E+01 0.  0.
<mgrwt>
<rscale>  0 0.12499610E+03</rscale>
<asrwt>0</asrwt>
<pdfrwt beam="1">  1        4 0.26010829E-01 0.12499610E+03</pdfrwt>
<pdfrwt beam="2">  1       -4 0.35542834E-02 0.12499610E+03</pdfrwt>
<totfact> 0.91478531E+03</totfact>
</mgrwt>
</event>
<event>
 5    1  0.3243498E-002  0.1249979E+03  0.7818608E-02  0.1235073E+00
          4   -1    0    0  501    0  0.00000000000E+00  0.00000000000E+00  0.84281703473E+01  0.85233183329E+01  0.12700000000E+01 0.  1.
         -4   -1    0    0    0  501 -0.00000000000E+00 -0.00000000000E+00 -0.46076254228E+03  0.46076429253E+03  0.12700000000E+01 0.  1.
         25    2    1    2    0    0  0.00000000000E+00  0.00000000000E+00 -0.45233437193E+03  0.46928761086E+03  0.12499791068E+03 0.  0.
    9000005    1    3    3    0    0 -0.11433488206E+02 -0.49463678386E+02 -0.89365094179E+02  0.10278375450E+03  0.10000000000E+01 0.  0.
    9000005    1    3    3    0    0  0.11433488206E+02  0.49463678386E+02 -0.36296927776E+03  0.36650385636E+03  0.10000000000E+01 0.  0.
<mgrwt>
<rscale>  0 0.12499791E+03</rscale>
<asrwt>0</asrwt>
<pdfrwt beam="1">  1        4 0.13040957E-02 0.12499791E+03</pdfrwt>
<pdfrwt beam="2">  1       -4 0.70893979E-01 0.12499791E+03</pdfrwt>
<totfact> 0.58331272E+03</totfact>
</mgrwt>
</event>
<event>
 5    1  0.3243498E-002  0.1249899E+03  0.7818608E-02  0.1235085E+00
         -4   -1    0    0    0  501 -0.00000000000E+00  0.00000000000E+00  0.66058040644E+02  0.66070247719E+02  0.12700000000E+01 0. -1.
          4   -1    0    0  501    0  0.00000000000E+00 -0.00000000000E+00 -0.59099584739E+02  0.59113228776E+02  0.12700000000E+01 0. -1.
         25    2    1    2    0    0  0.00000000000E+00  0.00000000000E+00  0.69584559046E+01  0.12518347650E+03  0.12498993031E+03 0.  0.
    9000005    1    3    3    0    0 -0.40940111599E+02 -0.26998165591E+02  0.42264211000E+02  0.64747642540E+02  0.10000000000E+01 0.  0.
    9000005    1    3    3    0    0  0.40940111599E+02  0.26998165591E+02 -0.35305755095E+02  0.60435833955E+02  0.10000000000E+01 0.  0.
<mgrwt>
<rscale>  0 0.12498993E+03</rscale>
<asrwt>0</asrwt>
<pdfrwt beam="2">  1        4 0.90942324E-02 0.12498993E+03</pdfrwt>
<pdfrwt beam="1">  1       -4 0.10164764E-01 0.12498993E+03</pdfrwt>
<totfact> 0.10451257E+04</totfact>
</mgrwt>
</event>
<event>
 5    1  0.3243498E-002  0.1249995E+03  0.7818608E-02  0.1235070E+00
          4   -1    0    0  501    0  0.00000000000E+00  0.00000000000E+00  0.24336807569E+02  0.24369922089E+02  0.12700000000E+01 0. -1.
         -4   -1    0    0    0  501 -0.00000000000E+00 -0.00000000000E+00 -0.16036180586E+03  0.16036683472E+03  0.12700000000E+01 0. -1.
         25    2    1    2    0    0  0.00000000000E+00  0.00000000000E+00 -0.13602499829E+03  0.18473675681E+03  0.12499947662E+03 0.  0.
    9000005    1    3    3    0    0 -0.30512759342E+02  0.35016643744E+01  0.12420137774E+02  0.33144380494E+02  0.10000000000E+01 0.  0.
    9000005    1    3    3    0    0  0.30512759342E+02 -0.35016643744E+01 -0.14844513606E+03  0.15159237631E+03  0.10000000000E+01 0.  0.
<mgrwt>
<rscale>  0 0.12499948E+03</rscale>
<asrwt>0</asrwt>
<pdfrwt beam="1">  1        4 0.37470584E-02 0.12499948E+03</pdfrwt>
<pdfrwt beam="2">  1       -4 0.24673981E-01 0.12499948E+03</pdfrwt>
<totfact> 0.92772342E+03</totfact>
</mgrwt>
</event>
<event>
 5    1  0.3243498E-002  0.1250033E+03  0.7818608E-02  0.1235064E+00
          4   -1    0    0  501    0  0.00000000000E+00  0.00000000000E+00  0.14372471036E+02  0.14428472673E+02  0.12700000000E+01 0. -1.
         -4   -1    0    0    0  501 -0.00000000000E+00 -0.00000000000E+00 -0.27121530208E+03  0.27121827554E+03  0.12700000000E+01 0. -1.
         25    2    1    2    0    0  0.00000000000E+00  0.00000000000E+00 -0.25684283105E+03  0.28564674821E+03  0.12500329956E+03 0.  0.
    9000005    1    3    3    0    0 -0.53846501378E+02  0.14273062289E+02 -0.63696192819E+02  0.84624884032E+02  0.10000000000E+01 0.  0.
    9000005    1    3    3    0    0  0.53846501378E+02 -0.14273062289E+02 -0.19314663823E+03  0.20102186418E+03  0.10000000000E+01 0.  0.
<mgrwt>
<rscale>  0 0.12500330E+03</rscale>
<asrwt>0</asrwt>
<pdfrwt beam="1">  1        4 0.22156861E-02 0.12500330E+03</pdfrwt>
<pdfrwt beam="2">  1       -4 0.41729964E-01 0.12500330E+03</pdfrwt>
<totfact> 0.77429621E+03</totfact>
</mgrwt>
</event>
<event>
 5    1  0.3243498E-002  0.1249998E+03  0.7818608E-02  0.1235070E+00
          4   -1    0    0  501    0  0.00000000000E+00  0.00000000000E+00  0.13898508877E+03  0.13899089107E+03  0.12700000000E+01 0. -1.
         -4   -1    0    0    0  501 -0.00000000000E+00 -0.00000000000E+00 -0.28084688346E+02  0.28113388616E+02  0.12700000000E+01 0. -1.
         25    2    1    2    0    0  0.00000000000E+00  0.00000000000E+00  0.11090040042E+03  0.16710427968E+03  0.12499976590E+03 0.  0.
    9000005    1    3    3    0    0  0.10005929457E+02 -0.57852077808E+02  0.26832717548E+02  0.64559865722E+02  0.10000000000E+01 0.  0.
    9000005    1    3    3    0    0 -0.10005929457E+02  0.57852077808E+02  0.84067682874E+02  0.10254441396E+03  0.10000000000E+01 0.  0.
<mgrwt>
<rscale>  0 0.12499977E+03</rscale>
<asrwt>0</asrwt>
<pdfrwt beam="1">  1        4 0.21384975E-01 0.12499977E+03</pdfrwt>
<pdfrwt beam="2">  1       -4 0.43233754E-02 0.12499977E+03</pdfrwt>
<totfact> 0.95990858E+03</totfact>
</mgrwt>
</event>
<event>
 5    1  0.3243498E-002  0.1249990E+03  0.7818608E-02  0.1235071E+00
         -4   -1    0    0    0  501 -0.00000000000E+00  0.00000000000E+00  0.21442091909E+02  0.21479669583E+02  0.12700000000E+01 0. -1.
          4   -1    0    0  501    0  0.00000000000E+00 -0.00000000000E+00 -0.18197460041E+03  0.18197903202E+03  0.12700000000E+01 0. -1.
         25    2    1    2    0    0  0.00000000000E+00  0.00000000000E+00 -0.16053250851E+03  0.20345870161E+03  0.12499902788E+03 0.  0.
    9000005    1    3    3    0    0 -0.54628694357E+02  0.29143427432E+02 -0.94034910214E+02  0.11259306350E+03  0.10000000000E+01 0.  0.
    9000005    1    3    3    0    0  0.54628694357E+02 -0.29143427432E+02 -0.66497598292E+02  0.90865638105E+02  0.10000000000E+01 0.  0.
<mgrwt>
<rscale>  0 0.12499903E+03</rscale>
<asrwt>0</asrwt>
<pdfrwt beam="2">  1        4 0.27999323E-01 0.12499903E+03</pdfrwt>
<pdfrwt beam="1">  1       -4 0.33020150E-02 0.12499903E+03</pdfrwt>
<totfact> 0.89557377E+03</totfact>
</mgrwt>
</event>
<event>
 5    1  0.3243498E-002  0.1249989E+03  0.7818608E-02  0.1235071E+00
          4   -1    0    0  501    0  0.00000000000E+00  0.00000000000E+00  0.59650198354E+01  0.60987180323E+01  0.12700000000E+01 0.  1.
         -4   -1    0    0    0  501 -0.00000000000E+00 -0.00000000000E+00 -0.64745650879E+03  0.64745775435E+03  0.12700000000E+01 0.  1.
         25    2    1    2    0    0  0.00000000000E+00  0.00000000000E+00 -0.64149148895E+03  0.65355647239E+03  0.12499892879E+03 0.  0.
    9000005    1    3    3    0    0  0.15237729800E+02 -0.54438752672E+02 -0.18148536387E+03  0.19008867273E+03  0.10000000000E+01 0.  0.
    9000005    1    3    3    0    0 -0.15237729800E+02  0.54438752672E+02 -0.46000612508E+03  0.46346779966E+03  0.10000000000E+01 0.  0.
<mgrwt>
<rscale>  0 0.12499893E+03</rscale>
<asrwt>0</asrwt>
<pdfrwt beam="1">  1        4 0.92807616E-03 0.12499893E+03</pdfrwt>
<pdfrwt beam="2">  1       -4 0.99619019E-01 0.12499893E+03</pdfrwt>
<totfact> 0.45653423E+03</totfact>
</mgrwt>
</event>
<event>
 5    1  0.3243498E-002  0.1249993E+03  0.7818608E-02  0.1235070E+00
         -4   -1    0    0    0  501 -0.00000000000E+00  0.00000000000E+00  0.60508468513E+01  0.61826893516E+01  0.12700000000E+01 0.  1.
          4   -1    0    0  501    0  0.00000000000E+00 -0.00000000000E+00 -0.63847384282E+03  0.63847510591E+03  0.12700000000E+01 0.  1.
         25    2    1    2    0    0  0.00000000000E+00  0.00000000000E+00 -0.63242299597E+03  0.64465779526E+03  0.12499930864E+03 0.  0.
    9000005    1    3    3    0    0  0.30689186217E+01  0.44384919511E+01 -0.63729534635E+03  0.63731897583E+03  0.10000000000E+01 0.  0.
    9000005    1    3    3    0    0 -0.30689186217E+01 -0.44384919511E+01  0.48723503855E+01  0.73388194272E+01  0.10000000000E+01 0.  0.
<mgrwt>
<rscale>  0 0.12499931E+03</rscale>
<asrwt>0</asrwt>
<pdfrwt beam="2">  1        4 0.98236931E-01 0.12499931E+03</pdfrwt>
<pdfrwt beam="1">  1       -4 0.94113891E-03 0.12499931E+03</pdfrwt>
<totfact> 0.46165401E+03</totfact>
</mgrwt>
</event>
<event>
 5    1  0.3243498E-002  0.1249937E+03  0.7818608E-02  0.1235079E+00
          4   -1    0    0  501    0  0.00000000000E+00  0.00000000000E+00  0.26353512107E+02  0.26384095596E+02  0.12700000000E+01 0.  1.
         -4   -1    0    0    0  501 -0.00000000000E+00 -0.00000000000E+00 -0.14809083862E+03  0.14809628417E+03  0.12700000000E+01 0.  1.
         25    2    1    2    0    0  0.00000000000E+00  0.00000000000E+00 -0.12173732652E+03  0.17448037976E+03  0.12499370486E+03 0.  0.
    9000005    1    3    3    0    0  0.54877022953E+02  0.21835565819E+02 -0.89359558180E+02  0.10711867354E+03  0.10000000000E+01 0.  0.
    9000005    1    3    3    0    0 -0.54877022953E+02 -0.21835565819E+02 -0.32377768336E+02  0.67361706223E+02  0.10000000000E+01 0.  0.
<mgrwt>
<rscale>  0 0.12499370E+03</rscale>
<asrwt>0</asrwt>
<pdfrwt beam="1">  1        4 0.40571580E-02 0.12499370E+03</pdfrwt>
<pdfrwt beam="2">  1       -4 0.22785977E-01 0.12499370E+03</pdfrwt>
<totfact> 0.94633458E+03</totfact>
</mgrwt>
</event>
<event>
 5    1  0.3243498E-002  0.1250014E+03  0.7818608E-02  0.1235067E+00
         -4   -1    0    0    0  501 -0.00000000000E+00  0.00000000000E+00  0.47323789707E+02  0.47340827752E+02  0.12700000000E+01 0.  1.
          4   -1    0    0  501    0  0.00000000000E+00 -0.00000000000E+00 -0.82508178710E+02  0.82517952314E+02  0.12700000000E+01 0.  1.
         25    2    1    2    0    0  0.00000000000E+00  0.00000000000E+00 -0.35184389003E+02  0.12985878007E+03  0.12500144611E+03 0.  0.
    9000005    1    3    3    0    0 -0.51100236228E+02 -0.33000980700E+02 -0.32467886584E+02  0.68959861724E+02  0.10000000000E+01 0.  0.
    9000005    1    3    3    0    0  0.51100236228E+02  0.33000980700E+02 -0.27165024194E+01  0.60898918341E+02  0.10000000000E+01 0.  0.
<mgrwt>
<rscale>  0 0.12500145E+03</rscale>
<asrwt>0</asrwt>
<pdfrwt beam="2">  1        4 0.12695628E-01 0.12500145E+03</pdfrwt>
<pdfrwt beam="1">  1       -4 0.72826455E-02 0.12500145E+03</pdfrwt>
<totfact> 0.10347192E+04</totfact>
</mgrwt>
</event>
<event>
 5    1  0.3243498E-002  0.1250033E+03  0.7818608E-02  0.1235064E+00
         -4   -1    0    0    0  501 -0.00000000000E+00  0.00000000000E+00  0.18167124634E+02  0.18211461157E+02  0.12700000000E+01 0. -1.
          4   -1    0    0  501    0  0.00000000000E+00 -0.00000000000E+00 -0.21472053878E+03  0.21472429456E+03  0.12700000000E+01 0. -1.
         25    2    1    2    0    0  0.00000000000E+00  0.00000000000E+00 -0.19655341415E+03  0.23293575572E+03  0.12500328667E+03 0.  0.
    9000005    1    3    3    0    0  0.49805097309E+01 -0.36470566021E+01  0.17606739794E+02  0.18684319233E+02  0.10000000000E+01 0.  0.
    9000005    1    3    3    0    0 -0.49805097309E+01  0.36470566021E+01 -0.21416015394E+03  0.21425143648E+03  0.10000000000E+01 0.  0.
<mgrwt>
<rscale>  0 0.12500329E+03</rscale>
<asrwt>0</asrwt>
<pdfrwt beam="2">  1        4 0.33037627E-01 0.12500329E+03</pdfrwt>
<pdfrwt beam="1">  1       -4 0.27986418E-02 0.12500329E+03</pdfrwt>
<totfact> 0.84854618E+03</totfact>
</mgrwt>
</event>
<event>
 5    1  0.3243498E-002  0.1249984E+03  0.7818608E-02  0.1235072E+00
         -4   -1    0    0    0  501 -0.00000000000E+00  0.00000000000E+00  0.67511827581E+03  0.67511947034E+03  0.12700000000E+01 0. -1.
          4   -1    0    0  501    0  0.00000000000E+00 -0.00000000000E+00 -0.57149715378E+01  0.58543829459E+01  0.12700000000E+01 0. -1.
         25    2    1    2    0    0  0.00000000000E+00  0.00000000000E+00  0.66940330427E+03  0.68097385329E+03  0.12499842035E+03 0.  0.
    9000005    1    3    3    0    0  0.58804598959E+02 -0.19219436237E+02  0.28665422162E+03  0.29325587864E+03  0.10000000000E+01 0.  0.
    9000005    1    3    3    0    0 -0.58804598959E+02  0.19219436237E+02  0.38274908266E+03  0.38771797464E+03  0.10000000000E+01 0.  0.
<mgrwt>
<rscale>  0 0.12499842E+03</rscale>
<asrwt>0</asrwt>
<pdfrwt beam="2">  1        4 0.89004294E-03 0.12499842E+03</pdfrwt>
<pdfrwt beam="1">  1       -4 0.10387508E+00 0.12499842E+03</pdfrwt>
<totfact> 0.44111827E+03</totfact>
</mgrwt>
</event>
<event>
 5    1  0.3243498E-002  0.1250446E+03  0.7818608E-02  0.1235000E+00
         -4   -1    0    0    0  501 -0.00000000000E+00  0.00000000000E+00  0.22158834739E+02  0.22195198962E+02  0.12700000000E+01 0. -1.
          4   -1    0    0  501    0  0.00000000000E+00 -0.00000000000E+00 -0.17622648218E+03  0.17623105834E+03  0.12700000000E+01 0. -1.
         25    2    1    2    0    0  0.00000000000E+00  0.00000000000E+00 -0.15406764744E+03  0.19842625730E+03  0.12504455045E+03 0.  0.
    9000005    1    3    3    0    0 -0.38812223503E+02  0.39125885899E+02 -0.30206817940E+02  0.62854399136E+02  0.10000000000E+01 0.  0.
    9000005    1    3    3    0    0  0.38812223503E+02 -0.39125885899E+02 -0.12386082950E+03  0.13557185816E+03  0.10000000000E+01 0.  0.
<mgrwt>
<rscale>  0 0.12504455E+03</rscale>
<asrwt>0</asrwt>
<pdfrwt beam="2">  1        4 0.27114915E-01 0.12504455E+03</pdfrwt>
<pdfrwt beam="1">  1       -4 0.34122009E-02 0.12504455E+03</pdfrwt>
<totfact> 0.90311410E+03</totfact>
</mgrwt>
</event>
<event>
 5    1  0.3243498E-002  0.1249993E+03  0.7818608E-02  0.1235070E+00
         -4   -1    0    0    0  501 -0.00000000000E+00  0.00000000000E+00  0.23761962409E+02  0.23795876902E+02  0.12700000000E+01 0.  1.
          4   -1    0    0  501    0  0.00000000000E+00 -0.00000000000E+00 -0.16423540613E+03  0.16424031639E+03  0.12700000000E+01 0.  1.
         25    2    1    2    0    0  0.00000000000E+00  0.00000000000E+00 -0.14047344372E+03  0.18803619329E+03  0.12499928638E+03 0.  0.
    9000005    1    3    3    0    0  0.39746976304E+02 -0.40240144330E+02 -0.30263298264E+02  0.64155736788E+02  0.10000000000E+01 0.  0.
    9000005    1    3    3    0    0 -0.39746976304E+02  0.40240144330E+02 -0.11021014546E+03  0.12388045650E+03  0.10000000000E+01 0.  0.
<mgrwt>
<rscale>  0 0.12499929E+03</rscale>
<asrwt>0</asrwt>
<pdfrwt beam="2">  1        4 0.25269971E-01 0.12499929E+03</pdfrwt>
<pdfrwt beam="1">  1       -4 0.36586732E-02 0.12499929E+03</pdfrwt>
<totfact> 0.92191612E+03</totfact>
</mgrwt>
</event>
<event>
 5    1  0.3243498E-002  0.1249978E+03  0.7818608E-02  0.1235073E+00
          4   -1    0    0  501    0  0.00000000000E+00  0.00000000000E+00  0.12433837688E+02  0.12498528699E+02  0.12700000000E+01 0.  1.
         -4   -1    0    0    0  501 -0.00000000000E+00 -0.00000000000E+00 -0.31327075277E+03  0.31327332705E+03  0.12700000000E+01 0.  1.
         25    2    1    2    0    0  0.00000000000E+00  0.00000000000E+00 -0.30083691509E+03  0.32577185575E+03  0.12499781007E+03 0.  0.
    9000005    1    3    3    0    0 -0.55699161390E+02  0.28226970453E+02 -0.14405869732E+03  0.15701295078E+03  0.10000000000E+01 0.  0.
    9000005    1    3    3    0    0  0.55699161390E+02 -0.28226970453E+02 -0.15677821777E+03  0.16875890497E+03  0.10000000000E+01 0.  0.
<mgrwt>
<rscale>  0 0.12499781E+03</rscale>
<asrwt>0</asrwt>
<pdfrwt beam="1">  1        4 0.19180726E-02 0.12499781E+03</pdfrwt>
<pdfrwt beam="2">  1       -4 0.48200669E-01 0.12499781E+03</pdfrwt>
<totfact> 0.72478378E+03</totfact>
</mgrwt>
</event>
<event>
 5    1  0.3243498E-002  0.1250059E+03  0.7818608E-02  0.1235060E+00
         -4   -1    0    0    0  501 -0.00000000000E+00  0.00000000000E+00  0.43775952311E+02  0.43794370652E+02  0.12700000000E+01 0. -1.
          4   -1    0    0  501    0  0.00000000000E+00 -0.00000000000E+00 -0.89199560757E+02  0.89208601263E+02  0.12700000000E+01 0. -1.
         25    2    1    2    0    0  0.00000000000E+00  0.00000000000E+00 -0.45423608446E+02  0.13300297191E+03  0.12500594519E+03 0.  0.
    9000005    1    3    3    0    0 -0.25060853207E+02 -0.57209615975E+02 -0.25002452230E+02  0.67283795530E+02  0.10000000000E+01 0.  0.
    9000005    1    3    3    0    0  0.25060853207E+02  0.57209615975E+02 -0.20421156216E+02  0.65719176384E+02  0.10000000000E+01 0.  0.
<mgrwt>
<rscale>  0 0.12500595E+03</rscale>
<asrwt>0</asrwt>
<pdfrwt beam="2">  1        4 0.13725121E-01 0.12500595E+03</pdfrwt>
<pdfrwt beam="1">  1       -4 0.67368742E-02 0.12500595E+03</pdfrwt>
<totfact> 0.10278958E+04</totfact>
</mgrwt>
</event>
<event>
 5    1  0.3243498E-002  0.1250025E+03  0.7818608E-02  0.1235065E+00
          4   -1    0    0  501    0  0.00000000000E+00  0.00000000000E+00  0.54672345934E+01  0.56128026956E+01  0.12700000000E+01 0. -1.
         -4   -1    0    0    0  501 -0.00000000000E+00 -0.00000000000E+00 -0.70497932249E+03  0.70498046642E+03  0.12700000000E+01 0. -1.
         25    2    1    2    0    0  0.00000000000E+00  0.00000000000E+00 -0.69951208790E+03  0.71059326912E+03  0.12500253199E+03 0.  0.
    9000005    1    3    3    0    0 -0.10508047050E+01 -0.62431678901E+02 -0.36434853713E+03  0.36966156851E+03  0.10000000000E+01 0.  0.
    9000005    1    3    3    0    0  0.10508047050E+01  0.62431678901E+02 -0.33516355076E+03  0.34093170061E+03  0.10000000000E+01 0.  0.
<mgrwt>
<rscale>  0 0.12500253E+03</rscale>
<asrwt>0</asrwt>
<pdfrwt beam="1">  1        4 0.85239911E-03 0.12500253E+03</pdfrwt>
<pdfrwt beam="2">  1       -4 0.10846957E+00 0.12500253E+03</pdfrwt>
<totfact> 0.42531030E+03</totfact>
</mgrwt>
</event>
<event>
 5    1  0.3243498E-002  0.1249988E+03  0.7818608E-02  0.1235071E+00
          4   -1    0    0  501    0  0.00000000000E+00  0.00000000000E+00  0.35033040917E+02  0.35056053056E+02  0.12700000000E+01 0.  1.
         -4   -1    0    0    0  501 -0.00000000000E+00 -0.00000000000E+00 -0.11143657557E+03  0.11144381218E+03  0.12700000000E+01 0.  1.
         25    2    1    2    0    0  0.00000000000E+00  0.00000000000E+00 -0.76403534650E+02  0.14649986524E+03  0.12499884163E+03 0.  0.
    9000005    1    3    3    0    0 -0.62231744144E+02 -0.53648169814E+01 -0.40427463442E+02  0.74410691711E+02  0.10000000000E+01 0.  0.
    9000005    1    3    3    0    0  0.62231744144E+02  0.53648169814E+01 -0.35976071208E+02  0.72089173529E+02  0.10000000000E+01 0.  0.
<mgrwt>
<rscale>  0 0.12499884E+03</rscale>
<asrwt>0</asrwt>
<pdfrwt beam="1">  1        4 0.53920255E-02 0.12499884E+03</pdfrwt>
<pdfrwt beam="2">  1       -4 0.17146415E-01 0.12499884E+03</pdfrwt>
<totfact> 0.10000864E+04</totfact>
</mgrwt>
</event>
<event>
 5    1  0.3243498E-002  0.1249993E+03  0.7818608E-02  0.1235070E+00
          4   -1    0    0  501    0  0.00000000000E+00  0.00000000000E+00  0.76665542220E+01  0.77710329840E+01  0.12700000000E+01 0.  1.
         -4   -1    0    0    0  501 -0.00000000000E+00 -0.00000000000E+00 -0.50595893697E+03  0.50596053087E+03  0.12700000000E+01 0.  1.
         25    2    1    2    0    0  0.00000000000E+00  0.00000000000E+00 -0.49829238275E+03  0.51373156386E+03  0.12499928399E+03 0.  0.
    9000005    1    3    3    0    0 -0.41569733532E+02  0.82188278281E+01 -0.43791496715E+03  0.43996148733E+03  0.10000000000E+01 0.  0.
    9000005    1    3    3    0    0  0.41569733532E+02 -0.82188278281E+01 -0.60377415600E+02  0.73770076530E+02  0.10000000000E+01 0.  0.
<mgrwt>
<rscale>  0 0.12499928E+03</rscale>
<asrwt>0</asrwt>
<pdfrwt beam="1">  1        4 0.11876297E-02 0.12499928E+03</pdfrwt>
<pdfrwt beam="2">  1       -4 0.77847970E-01 0.12499928E+03</pdfrwt>
<totfact> 0.54815361E+03</totfact>
</mgrwt>
</event>
<event>
 5    1  0.3243498E-002  0.1250187E+03  0.7818608E-02  0.1235040E+00
          4   -1    0    0  501    0  0.00000000000E+00  0.00000000000E+00  0.52784514996E+03  0.52784667778E+03  0.12700000000E+01 0.  1.
         -4   -1    0    0    0  501 -0.00000000000E+00 -0.00000000000E+00 -0.73465661895E+01  0.74555304826E+01  0.12700000000E+01 0.  1.
         25    2    1    2    0    0  0.00000000000E+00  0.00000000000E+00  0.52049858377E+03  0.53530220826E+03  0.12501871243E+03 0.  0.
    9000005    1    3    3    0    0 -0.11746142635E+02 -0.59741781246E+01 -0.13513884839E+01  0.13284913319E+02  0.10000000000E+01 0.  0.
    9000005    1    3    3    0    0  0.11746142635E+02  0.59741781246E+01  0.52184997226E+03  0.52201729494E+03  0.10000000000E+01 0.  0.
<mgrwt>
<rscale>  0 0.12501871E+03</rscale>
<asrwt>0</asrwt>
<pdfrwt beam="1">  1        4 0.81215483E-01 0.12501871E+03</pdfrwt>
<pdfrwt beam="2">  1       -4 0.11387398E-02 0.12501871E+03</pdfrwt>
<totfact> 0.53203851E+03</totfact>
</mgrwt>
</event>
<event>
 5    1  0.3243498E-002  0.1250001E+03  0.7818608E-02  0.1235069E+00
          4   -1    0    0  501    0  0.00000000000E+00  0.00000000000E+00  0.94852913155E+01  0.95699347615E+01  0.12700000000E+01 0.  1.
         -4   -1    0    0    0  501 -0.00000000000E+00 -0.00000000000E+00 -0.40990757589E+03  0.40990954328E+03  0.12700000000E+01 0.  1.
         25    2    1    2    0    0  0.00000000000E+00  0.00000000000E+00 -0.40042228458E+03  0.41947947804E+03  0.12500010606E+03 0.  0.
    9000005    1    3    3    0    0  0.51730885569E+02 -0.72546990599E+01 -0.85103554407E+02  0.99861554929E+02  0.10000000000E+01 0.  0.
    9000005    1    3    3    0    0 -0.51730885569E+02  0.72546990599E+01 -0.31531873017E+03  0.31961792311E+03  0.10000000000E+01 0.  0.
<mgrwt>
<rscale>  0 0.12500011E+03</rscale>
<asrwt>0</asrwt>
<pdfrwt beam="1">  1        4 0.14659383E-02 0.12500011E+03</pdfrwt>
<pdfrwt beam="2">  1       -4 0.63069353E-01 0.12500011E+03</pdfrwt>
<totfact> 0.62701188E+03</totfact>
</mgrwt>
</event>
<event>
 5    1  0.3243498E-002  0.1250037E+03  0.7818608E-02  0.1235063E+00
          4   -1    0    0  501    0  0.00000000000E+00  0.00000000000E+00  0.96677512078E+02  0.96685853369E+02  0.12700000000E+01 0.  1.
         -4   -1    0    0    0  501 -0.00000000000E+00 -0.00000000000E+00 -0.40387302292E+02  0.40407265267E+02  0.12700000000E+01 0.  1.
         25    2    1    2    0    0  0.00000000000E+00  0.00000000000E+00  0.56290209787E+02  0.13709311864E+03  0.12500374178E+03 0.  0.
    9000005    1    3    3    0    0  0.80473623079E+01  0.54746059477E+02  0.59998745388E+02  0.81625611890E+02  0.10000000000E+01 0.  0.
    9000005    1    3    3    0    0 -0.80473623079E+01 -0.54746059477E+02 -0.37085356007E+01  0.55467506746E+02  0.10000000000E+01 0.  0.
<mgrwt>
<rscale>  0 0.12500374E+03</rscale>
<asrwt>0</asrwt>
<pdfrwt beam="1">  1        4 0.14875641E-01 0.12500374E+03</pdfrwt>
<pdfrwt beam="2">  1       -4 0.62156084E-02 0.12500374E+03</pdfrwt>
<totfact> 0.10193279E+04</totfact>
</mgrwt>
</event>
<event>
 5    1  0.3243498E-002  0.1249970E+03  0.7818608E-02  0.1235074E+00
          4   -1    0    0  501    0  0.00000000000E+00  0.00000000000E+00  0.88744481956E+01  0.89648608900E+01  0.12700000000E+01 0. -1.
         -4   -1    0    0    0  501 -0.00000000000E+00 -0.00000000000E+00 -0.43782482932E+03  0.43782667126E+03  0.12700000000E+01 0. -1.
         25    2    1    2    0    0  0.00000000000E+00  0.00000000000E+00 -0.42895038112E+03  0.44679153215E+03  0.12499697491E+03 0.  0.
    9000005    1    3    3    0    0  0.77085851281E+01  0.30614143470E+02 -0.40724253284E+03  0.40846557825E+03  0.10000000000E+01 0.  0.
    9000005    1    3    3    0    0 -0.77085851281E+01 -0.30614143470E+02 -0.21707848285E+02  0.38325953899E+02  0.10000000000E+01 0.  0.
<mgrwt>
<rscale>  0 0.12499697E+03</rscale>
<asrwt>0</asrwt>
<pdfrwt beam="1">  1        4 0.13723966E-02 0.12499697E+03</pdfrwt>
<pdfrwt beam="2">  1       -4 0.67364746E-01 0.12499697E+03</pdfrwt>
<totfact> 0.60246777E+03</totfact>
</mgrwt>
</event>
<event>
 5    1  0.3243498E-002  0.1249998E+03  0.7818608E-02  0.1235070E+00
         -4   -1    0    0    0  501 -0.00000000000E+00  0.00000000000E+00  0.18754855224E+02  0.18797805576E+02  0.12700000000E+01 0.  1.
          4   -1    0    0  501    0  0.00000000000E+00 -0.00000000000E+00 -0.20799577340E+03  0.20799965061E+03  0.12700000000E+01 0.  1.
         25    2    1    2    0    0  0.00000000000E+00  0.00000000000E+00 -0.18924091818E+03  0.22679745619E+03  0.12499984408E+03 0.  0.
    9000005    1    3    3    0    0 -0.16644807866E+02 -0.59265528434E+02 -0.75096852680E+02  0.97108134427E+02  0.10000000000E+01 0.  0.
    9000005    1    3    3    0    0  0.16644807866E+02  0.59265528434E+02 -0.11414406550E+03  0.12968932176E+03  0.10000000000E+01 0.  0.
<mgrwt>
<rscale>  0 0.12499984E+03</rscale>
<asrwt>0</asrwt>
<pdfrwt beam="2">  1        4 0.32002950E-01 0.12499984E+03</pdfrwt>
<pdfrwt beam="1">  1       -4 0.28889646E-02 0.12499984E+03</pdfrwt>
<totfact> 0.85804088E+03</totfact>
</mgrwt>
</event>
<event>
 5    1  0.3243498E-002  0.1249957E+03  0.7818608E-02  0.1235076E+00
         -4   -1    0    0    0  501 -0.00000000000E+00  0.00000000000E+00  0.11681690321E+02  0.11750522914E+02  0.12700000000E+01 0.  1.
          4   -1    0    0  501    0  0.00000000000E+00 -0.00000000000E+00 -0.33331553944E+03  0.33331795891E+03  0.12700000000E+01 0.  1.
         25    2    1    2    0    0  0.00000000000E+00  0.00000000000E+00 -0.32163384912E+03  0.34506848183E+03  0.12499569692E+03 0.  0.
    9000005    1    3    3    0    0 -0.59020010616E+02 -0.10090411425E+02 -0.11144824609E+03  0.12651833706E+03  0.10000000000E+01 0.  0.
    9000005    1    3    3    0    0  0.59020010616E+02  0.10090411425E+02 -0.21018560304E+03  0.21855014477E+03  0.10000000000E+01 0.  0.
<mgrwt>
<rscale>  0 0.12499570E+03</rscale>
<asrwt>0</asrwt>
<pdfrwt beam="2">  1        4 0.51284787E-01 0.12499570E+03</pdfrwt>
<pdfrwt beam="1">  1       -4 0.18026643E-02 0.12499570E+03</pdfrwt>
<totfact> 0.70277209E+03</totfact>
</mgrwt>
</event>
<event>
 5    1  0.3243498E-002  0.1250003E+03  0.7818608E-02  0.1235069E+00
         -4   -1    0    0    0  501 -0.00000000000E+00  0.00000000000E+00  0.45357918204E+02  0.45375694417E+02  0.12700000000E+01 0. -1.
          4   -1    0    0  501    0  0.00000000000E+00 -0.00000000000E+00 -0.86081610965E+02  0.86090978890E+02  0.12700000000E+01 0. -1.
         25    2    1    2    0    0  0.00000000000E+00  0.00000000000E+00 -0.40723692761E+02  0.13146667331E+03  0.12500026815E+03 0.  0.
    9000005    1    3    3    0    0 -0.51154428439E+02 -0.15533897706E+02  0.13672492035E+02  0.55190710861E+02  0.10000000000E+01 0.  0.
    9000005    1    3    3    0    0  0.51154428439E+02  0.15533897706E+02 -0.54396184795E+02  0.76275962447E+02  0.10000000000E+01 0.  0.
<mgrwt>
<rscale>  0 0.12500027E+03</rscale>
<asrwt>0</asrwt>
<pdfrwt beam="2">  1        4 0.13245413E-01 0.12500027E+03</pdfrwt>
<pdfrwt beam="1">  1       -4 0.69802293E-02 0.12500027E+03</pdfrwt>
<totfact> 0.10313033E+04</totfact>
</mgrwt>
</event>
<event>
 5    1  0.3243498E-002  0.1249996E+03  0.7818608E-02  0.1235070E+00
         -4   -1    0    0    0  501 -0.00000000000E+00  0.00000000000E+00  0.36354162252E+01  0.38508636863E+01  0.12700000000E+01 0.  1.
          4   -1    0    0  501    0  0.00000000000E+00 -0.00000000000E+00 -0.10433525194E+04  0.10433532923E+04  0.12700000000E+01 0.  1.
         25    2    1    2    0    0  0.00000000000E+00  0.00000000000E+00 -0.10397171032E+04  0.10472041560E+04  0.12499955906E+03 0.  0.
    9000005    1    3    3    0    0 -0.36129465006E+02 -0.41300682484E+02 -0.26934852671E+03  0.27488309053E+03  0.10000000000E+01 0.  0.
    9000005    1    3    3    0    0  0.36129465006E+02  0.41300682484E+02 -0.77036857644E+03  0.77232106548E+03  0.10000000000E+01 0.  0.
<mgrwt>
<rscale>  0 0.12499956E+03</rscale>
<asrwt>0</asrwt>
<pdfrwt beam="2">  1        4 0.16053217E+00 0.12499956E+03</pdfrwt>
<pdfrwt beam="1">  1       -4 0.57592797E-03 0.12499956E+03</pdfrwt>
<totfact> 0.29082551E+03</totfact>
</mgrwt>
</event>
<event>
 5    1  0.3243498E-002  0.1250021E+03  0.7818608E-02  0.1235066E+00
         -4   -1    0    0    0  501 -0.00000000000E+00  0.00000000000E+00  0.29836365791E+02  0.29863382656E+02  0.12700000000E+01 0. -1.
          4   -1    0    0  501    0  0.00000000000E+00 -0.00000000000E+00 -0.13083739532E+03  0.13084355893E+03  0.12700000000E+01 0. -1.
         25    2    1    2    0    0  0.00000000000E+00  0.00000000000E+00 -0.10100102953E+03  0.16070694159E+03  0.12500205242E+03 0.  0.
    9000005    1    3    3    0    0  0.39023515429E+02  0.29374713694E+02 -0.10061832609E+03  0.11185149130E+03  0.10000000000E+01 0.  0.
    9000005    1    3    3    0    0 -0.39023515429E+02 -0.29374713694E+02 -0.38270344041E+00  0.48855450289E+02  0.10000000000E+01 0.  0.
<mgrwt>
<rscale>  0 0.12500205E+03</rscale>
<asrwt>0</asrwt>
<pdfrwt beam="2">  1        4 0.20131382E-01 0.12500205E+03</pdfrwt>
<pdfrwt beam="1">  1       -4 0.45927625E-02 0.12500205E+03</pdfrwt>
<totfact> 0.97202181E+03</totfact>
</mgrwt>
</event>
<event>
 5    1  0.3243498E-002  0.1249891E+03  0.7818608E-02  0.1235086E+00
         -4   -1    0    0    0  501 -0.00000000000E+00  0.00000000000E+00  0.38204503728E+03  0.38204714815E+03  0.12700000000E+01 0. -1.
          4   -1    0    0  501    0  0.00000000000E+00 -0.00000000000E+00 -0.10181202922E+02  0.10260106868E+02  0.12700000000E+01 0. -1.
         25    2    1    2    0    0  0.00000000000E+00  0.00000000000E+00  0.37186383436E+03  0.39230725502E+03  0.12498908367E+03 0.  0.
    9000005    1    3    3    0    0  0.23459791826E+02 -0.57043298398E+02  0.21736127493E+03  0.22594517822E+03  0.10000000000E+01 0.  0.
    9000005    1    3    3    0    0 -0.23459791826E+02  0.57043298398E+02  0.15450255943E+03  0.16636207680E+03  0.10000000000E+01 0.  0.
<mgrwt>
<rscale>  0 0.12498908E+03</rscale>
<asrwt>0</asrwt>
<pdfrwt beam="2">  1        4 0.15725708E-02 0.12498908E+03</pdfrwt>
<pdfrwt beam="1">  1       -4 0.58782392E-01 0.12498908E+03</pdfrwt>
<totfact> 0.65323661E+03</totfact>
</mgrwt>
</event>
<event>
 5    1  0.3243498E-002  0.1249977E+03  0.7818608E-02  0.1235073E+00
          4   -1    0    0  501    0  0.00000000000E+00  0.00000000000E+00  0.76521649905E+03  0.76521755293E+03  0.12700000000E+01 0. -1.
         -4   -1    0    0    0  501 -0.00000000000E+00 -0.00000000000E+00 -0.50245134957E+01  0.51825318010E+01  0.12700000000E+01 0. -1.
         25    2    1    2    0    0  0.00000000000E+00  0.00000000000E+00  0.76019198555E+03  0.77040008473E+03  0.12499774261E+03 0.  0.
    9000005    1    3    3    0    0  0.12843930127E+02 -0.54514626382E+02  0.55093182609E+03  0.55377223480E+03  0.10000000000E+01 0.  0.
    9000005    1    3    3    0    0 -0.12843930127E+02  0.54514626382E+02  0.20926015946E+03  0.21662784994E+03  0.10000000000E+01 0.  0.
<mgrwt>
<rscale>  0 0.12499774E+03</rscale>
<asrwt>0</asrwt>
<pdfrwt beam="1">  1        4 0.11773785E+00 0.12499774E+03</pdfrwt>
<pdfrwt beam="2">  1       -4 0.78523838E-03 0.12499774E+03</pdfrwt>
<totfact> 0.39618831E+03</totfact>
</mgrwt>
</event>
<event>
 5    1  0.3243498E-002  0.1249979E+03  0.7818608E-02  0.1235073E+00
         -4   -1    0    0    0  501 -0.00000000000E+00  0.00000000000E+00  0.29493992146E+02  0.29521322340E+02  0.12700000000E+01 0.  1.
          4   -1    0    0  501    0  0.00000000000E+00 -0.00000000000E+00 -0.13234608778E+03  0.13235218113E+03  0.12700000000E+01 0.  1.
         25    2    1    2    0    0  0.00000000000E+00  0.00000000000E+00 -0.10285209563E+03  0.16187350347E+03  0.12499791018E+03 0.  0.
    9000005    1    3    3    0    0 -0.24997953432E+02  0.55003750834E+02 -0.72097952132E+02  0.94071382382E+02  0.10000000000E+01 0.  0.
    9000005    1    3    3    0    0  0.24997953432E+02 -0.55003750834E+02 -0.30754143497E+02  0.67802121086E+02  0.10000000000E+01 0.  0.
<mgrwt>
<rscale>  0 0.12499791E+03</rscale>
<asrwt>0</asrwt>
<pdfrwt beam="2">  1        4 0.20363507E-01 0.12499791E+03</pdfrwt>
<pdfrwt beam="1">  1       -4 0.45401084E-02 0.12499791E+03</pdfrwt>
<totfact> 0.96987355E+03</totfact>
</mgrwt>
</event>
<event>
 5    1  0.3243498E-002  0.1250004E+03  0.7818608E-02  0.1235069E+00
         -4   -1    0    0    0  501 -0.00000000000E+00  0.00000000000E+00  0.66986219212E+01  0.68179495190E+01  0.12700000000E+01 0.  1.
          4   -1    0    0  501    0  0.00000000000E+00 -0.00000000000E+00 -0.57787752409E+03  0.57787891963E+03  0.12700000000E+01 0.  1.
         25    2    1    2    0    0  0.00000000000E+00  0.00000000000E+00 -0.57117890217E+03  0.58469686914E+03  0.12500036202E+03 0.  0.
    9000005    1    3    3    0    0  0.33480188982E+02  0.35176753238E+02 -0.10161521053E+03  0.11262760778E+03  0.10000000000E+01 0.  0.
    9000005    1    3    3    0    0 -0.33480188982E+02 -0.35176753238E+02 -0.46956369164E+03  0.47206926137E+03  0.10000000000E+01 0.  0.
<mgrwt>
<rscale>  0 0.12500036E+03</rscale>
<asrwt>0</asrwt>
<pdfrwt beam="2">  1        4 0.88913482E-01 0.12500036E+03</pdfrwt>
<pdfrwt beam="1">  1       -4 0.10398441E-02 0.12500036E+03</pdfrwt>
<totfact> 0.49847679E+03</totfact>
</mgrwt>
</event>
<event>
 5    1  0.3243498E-002  0.1249992E+03  0.7818608E-02  0.1235070E+00
          4   -1    0    0  501    0  0.00000000000E+00  0.00000000000E+00  0.19215458806E+03  0.19215878490E+03  0.12700000000E+01 0. -1.
         -4   -1    0    0    0  501 -0.00000000000E+00 -0.00000000000E+00 -0.20304178351E+02  0.20343858005E+02  0.12700000000E+01 0. -1.
         25    2    1    2    0    0  0.00000000000E+00  0.00000000000E+00  0.17185040971E+03  0.21250264290E+03  0.12499923969E+03 0.  0.
    9000005    1    3    3    0    0  0.14924176486E+02 -0.19277044692E+02 -0.11894833987E+02  0.27144475892E+02  0.10000000000E+01 0.  0.
    9000005    1    3    3    0    0 -0.14924176486E+02  0.19277044692E+02  0.18374524370E+03  0.18535816701E+03  0.10000000000E+01 0.  0.
<mgrwt>
<rscale>  0 0.12499924E+03</rscale>
<asrwt>0</asrwt>
<pdfrwt beam="1">  1        4 0.29565619E-01 0.12499924E+03</pdfrwt>
<pdfrwt beam="2">  1       -4 0.31270949E-02 0.12499924E+03</pdfrwt>
<totfact> 0.88070288E+03</totfact>
</mgrwt>
</event>
<event>
 5    1  0.3243498E-002  0.1250048E+03  0.7818608E-02  0.1235062E+00
          4   -1    0    0  501    0  0.00000000000E+00  0.00000000000E+00  0.61654141647E+02  0.61667220484E+02  0.12700000000E+01 0. -1.
         -4   -1    0    0    0  501 -0.00000000000E+00 -0.00000000000E+00 -0.63336147856E+02  0.63348879431E+02  0.12700000000E+01 0. -1.
         25    2    1    2    0    0  0.00000000000E+00  0.00000000000E+00 -0.16820062088E+01  0.12501609992E+03  0.12500478428E+03 0.  0.
    9000005    1    3    3    0    0  0.17111812526E+02  0.84836788973E+01 -0.60350692632E+02  0.63308712171E+02  0.10000000000E+01 0.  0.
    9000005    1    3    3    0    0 -0.17111812526E+02 -0.84836788973E+01  0.58668686423E+02  0.61707387744E+02  0.10000000000E+01 0.  0.
<mgrwt>
<rscale>  0 0.12500478E+03</rscale>
<asrwt>0</asrwt>
<pdfrwt beam="1">  1        4 0.94872380E-02 0.12500478E+03</pdfrwt>
<pdfrwt beam="2">  1       -4 0.97460082E-02 0.12500478E+03</pdfrwt>
<totfact> 0.10451383E+04</totfact>
</mgrwt>
</event>
<event>
 5    1  0.3243498E-002  0.1250104E+03  0.7818608E-02  0.1235053E+00
          4   -1    0    0  501    0  0.00000000000E+00  0.00000000000E+00  0.37353443382E+01  0.39453386832E+01  0.12700000000E+01 0.  1.
         -4   -1    0    0    0  501 -0.00000000000E+00 -0.00000000000E+00 -0.10171206017E+04  0.10171213945E+04  0.12700000000E+01 0.  1.
         25    2    1    2    0    0  0.00000000000E+00  0.00000000000E+00 -0.10133852573E+04  0.10210667332E+04  0.12501037528E+03 0.  0.
    9000005    1    3    3    0    0  0.30977972437E+02 -0.27587334408E+02 -0.88850845923E+03  0.88947680010E+03  0.10000000000E+01 0.  0.
    9000005    1    3    3    0    0 -0.30977972437E+02  0.27587334408E+02 -0.12487679810E+03  0.13158993312E+03  0.10000000000E+01 0.  0.
<mgrwt>
<rscale>  0 0.12501038E+03</rscale>
<asrwt>0</asrwt>
<pdfrwt beam="1">  1        4 0.59088357E-03 0.12501038E+03</pdfrwt>
<pdfrwt beam="2">  1       -4 0.15649609E+00 0.12501038E+03</pdfrwt>
<totfact> 0.29908913E+03</totfact>
</mgrwt>
</event>
<event>
 5    1  0.3243498E-002  0.1249996E+03  0.7818608E-02  0.1235070E+00
          4   -1    0    0  501    0  0.00000000000E+00  0.00000000000E+00  0.14798154904E+02  0.14852551584E+02  0.12700000000E+01 0. -1.
         -4   -1    0    0    0  501 -0.00000000000E+00 -0.00000000000E+00 -0.26342684503E+03  0.26342990639E+03  0.12700000000E+01 0. -1.
         25    2    1    2    0    0  0.00000000000E+00  0.00000000000E+00 -0.24862869012E+03  0.27828245797E+03  0.12499960345E+03 0.  0.
    9000005    1    3    3    0    0  0.55504227609E+01  0.61592509533E+02 -0.10430507479E+03  0.12126414578E+03  0.10000000000E+01 0.  0.
    9000005    1    3    3    0    0 -0.55504227609E+01 -0.61592509533E+02 -0.14432361533E+03  0.15701831220E+03  0.10000000000E+01 0.  0.
<mgrwt>
<rscale>  0 0.12499960E+03</rscale>
<asrwt>0</asrwt>
<pdfrwt beam="1">  1        4 0.22810593E-02 0.12499960E+03</pdfrwt>
<pdfrwt beam="2">  1       -4 0.40531623E-01 0.12499960E+03</pdfrwt>
<totfact> 0.78407084E+03</totfact>
</mgrwt>
</event>
<event>
 5    1  0.3243498E-002  0.1249999E+03  0.7818608E-02  0.1235070E+00
          4   -1    0    0  501    0  0.00000000000E+00  0.00000000000E+00  0.15821135403E+02  0.15872026507E+02  0.12700000000E+01 0.  1.
         -4   -1    0    0    0  501 -0.00000000000E+00 -0.00000000000E+00 -0.24645117288E+03  0.24645444511E+03  0.12700000000E+01 0.  1.
         25    2    1    2    0    0  0.00000000000E+00  0.00000000000E+00 -0.23063003747E+03  0.26232647161E+03  0.12499985410E+03 0.  0.
    9000005    1    3    3    0    0  0.45127530599E+02 -0.39333751851E+02 -0.15295007256E+03  0.16425091400E+03  0.10000000000E+01 0.  0.
    9000005    1    3    3    0    0 -0.45127530599E+02  0.39333751851E+02 -0.77679964910E+02  0.98075557613E+02  0.10000000000E+01 0.  0.
<mgrwt>
<rscale>  0 0.12499985E+03</rscale>
<asrwt>0</asrwt>
<pdfrwt beam="1">  1        4 0.24381874E-02 0.12499985E+03</pdfrwt>
<pdfrwt beam="2">  1       -4 0.37919729E-01 0.12499985E+03</pdfrwt>
<totfact> 0.80580941E+03</totfact>
</mgrwt>
</event>
<event>
 5    1  0.3243498E-002  0.1249983E+03  0.7818608E-02  0.1235072E+00
          4   -1    0    0  501    0  0.00000000000E+00  0.00000000000E+00  0.14457452758E+03  0.14458010557E+03  0.12700000000E+01 0.  1.
         -4   -1    0    0    0  501 -0.00000000000E+00 -0.00000000000E+00 -0.26997166802E+02  0.27027021947E+02  0.12700000000E+01 0.  1.
         25    2    1    2    0    0  0.00000000000E+00  0.00000000000E+00  0.11757736078E+03  0.17160712751E+03  0.12499828177E+03 0.  0.
    9000005    1    3    3    0    0 -0.12530915093E+02  0.58273946717E+02  0.33021518353E+02  0.68149081971E+02  0.10000000000E+01 0.  0.
    9000005    1    3    3    0    0  0.12530915093E+02 -0.58273946717E+02  0.84555842427E+02  0.10345804554E+03  0.10000000000E+01 0.  0.
<mgrwt>
<rscale>  0 0.12499828E+03</rscale>
<asrwt>0</asrwt>
<pdfrwt beam="1">  1        4 0.22244961E-01 0.12499828E+03</pdfrwt>
<pdfrwt beam="2">  1       -4 0.41561359E-02 0.12499828E+03</pdfrwt>
<totfact> 0.95153604E+03</totfact>
</mgrwt>
</event>
<event>
 5    1  0.3243498E-002  0.1250005E+03  0.7818608E-02  0.1235068E+00
          4   -1    0    0  501    0  0.00000000000E+00  0.00000000000E+00  0.38416984965E+01  0.40461768792E+01  0.12700000000E+01 0. -1.
         -4   -1    0    0    0  501 -0.00000000000E+00 -0.00000000000E+00 -0.99024763165E+03  0.99024844605E+03  0.12700000000E+01 0. -1.
         25    2    1    2    0    0  0.00000000000E+00  0.00000000000E+00 -0.98640593316E+03  0.99429462293E+03  0.12500052884E+03 0.  0.
    9000005    1    3    3    0    0  0.31999167671E+02  0.53049264212E+02 -0.42803968208E+03  0.43250102960E+03  0.10000000000E+01 0.  0.
    9000005    1    3    3    0    0 -0.31999167671E+02 -0.53049264212E+02 -0.55836625107E+03  0.56179359333E+03  0.10000000000E+01 0.  0.
<mgrwt>
<rscale>  0 0.12500053E+03</rscale>
<asrwt>0</asrwt>
<pdfrwt beam="1">  1        4 0.60682308E-03 0.12500053E+03</pdfrwt>
<pdfrwt beam="2">  1       -4 0.15236138E+00 0.12500053E+03</pdfrwt>
<totfact> 0.30793299E+03</totfact>
</mgrwt>
</event>
<event>
 5    1  0.3243498E-002  0.1249965E+03  0.7818608E-02  0.1235075E+00
         -4   -1    0    0    0  501 -0.00000000000E+00  0.00000000000E+00  0.95459363379E+02  0.95467811102E+02  0.12700000000E+01 0.  1.
          4   -1    0    0  501    0  0.00000000000E+00 -0.00000000000E+00 -0.40898114180E+02  0.40917827942E+02  0.12700000000E+01 0.  1.
         25    2    1    2    0    0  0.00000000000E+00  0.00000000000E+00  0.54561249198E+02  0.13638563904E+03  0.12499645044E+03 0.  0.
    9000005    1    3    3    0    0  0.40180418226E+02 -0.47859586627E+02  0.27442885609E+02  0.68257732247E+02  0.10000000000E+01 0.  0.
    9000005    1    3    3    0    0 -0.40180418226E+02  0.47859586627E+02  0.27118363589E+02  0.68127906798E+02  0.10000000000E+01 0.  0.
<mgrwt>
<rscale>  0 0.12499645E+03</rscale>
<asrwt>0</asrwt>
<pdfrwt beam="2">  1        4 0.62941839E-02 0.12499645E+03</pdfrwt>
<pdfrwt beam="1">  1       -4 0.14688222E-01 0.12499645E+03</pdfrwt>
<totfact> 0.10209764E+04</totfact>
</mgrwt>
</event>
<event>
 5    1  0.3243498E-002  0.1249866E+03  0.7818608E-02  0.1235090E+00
          4   -1    0    0  501    0  0.00000000000E+00  0.00000000000E+00  0.84276076504E+02  0.84285645106E+02  0.12700000000E+01 0. -1.
         -4   -1    0    0    0  501 -0.00000000000E+00 -0.00000000000E+00 -0.46319771774E+02  0.46337178995E+02  0.12700000000E+01 0. -1.
         25    2    1    2    0    0  0.00000000000E+00  0.00000000000E+00  0.37956304730E+02  0.13062282410E+03  0.12498656371E+03 0.  0.
    9000005    1    3    3    0    0  0.39787444830E+02 -0.47990131196E+02  0.23450965573E+02  0.66611119527E+02  0.10000000000E+01 0.  0.
    9000005    1    3    3    0    0 -0.39787444830E+02  0.47990131196E+02  0.14505339156E+02  0.64011704573E+02  0.10000000000E+01 0.  0.
<mgrwt>
<rscale>  0 0.12498656E+03</rscale>
<asrwt>0</asrwt>
<pdfrwt beam="1">  1        4 0.12967625E-01 0.12498656E+03</pdfrwt>
<pdfrwt beam="2">  1       -4 0.71281939E-02 0.12498656E+03</pdfrwt>
<totfact> 0.10334314E+04</totfact>
</mgrwt>
</event>
<event>
 5    1  0.3243498E-002  0.1250012E+03  0.7818608E-02  0.1235067E+00
          4   -1    0    0  501    0  0.00000000000E+00  0.00000000000E+00  0.70414059379E+01  0.71550190484E+01  0.12700000000E+01 0. -1.
         -4   -1    0    0    0  501 -0.00000000000E+00 -0.00000000000E+00 -0.55021072450E+03  0.55021219021E+03  0.12700000000E+01 0. -1.
         25    2    1    2    0    0  0.00000000000E+00  0.00000000000E+00 -0.54316931857E+03  0.55736720926E+03  0.12500118931E+03 0.  0.
    9000005    1    3    3    0    0 -0.36234567933E+02 -0.97107884775E+01 -0.49444383943E+03  0.49586586258E+03  0.10000000000E+01 0.  0.
    9000005    1    3    3    0    0  0.36234567933E+02  0.97107884775E+01 -0.48725479140E+02  0.61501346681E+02  0.10000000000E+01 0.  0.
<mgrwt>
<rscale>  0 0.12500119E+03</rscale>
<asrwt>0</asrwt>
<pdfrwt beam="1">  1        4 0.10921459E-02 0.12500119E+03</pdfrwt>
<pdfrwt beam="2">  1       -4 0.84656623E-01 0.12500119E+03</pdfrwt>
<totfact> 0.51672925E+03</totfact>
</mgrwt>
</event>
<event>
 5    1  0.3243498E-002  0.1249987E+03  0.7818608E-02  0.1235071E+00
          4   -1    0    0  501    0  0.00000000000E+00  0.00000000000E+00  0.18285367879E+02  0.18329418389E+02  0.12700000000E+01 0. -1.
         -4   -1    0    0    0  501 -0.00000000000E+00 -0.00000000000E+00 -0.21331982191E+03  0.21332360235E+03  0.12700000000E+01 0. -1.
         25    2    1    2    0    0  0.00000000000E+00  0.00000000000E+00 -0.19503445403E+03  0.23165302074E+03  0.12499873503E+03 0.  0.
    9000005    1    3    3    0    0 -0.17086444380E+02  0.15252329219E+02 -0.20527004905E+03  0.20654629787E+03  0.10000000000E+01 0.  0.
    9000005    1    3    3    0    0  0.17086444380E+02 -0.15252329219E+02  0.10235595012E+02  0.25106722873E+02  0.10000000000E+01 0.  0.
<mgrwt>
<rscale>  0 0.12499874E+03</rscale>
<asrwt>0</asrwt>
<pdfrwt beam="1">  1        4 0.28168130E-02 0.12499874E+03</pdfrwt>
<pdfrwt beam="2">  1       -4 0.32822112E-01 0.12499874E+03</pdfrwt>
<totfact> 0.85058820E+03</totfact>
</mgrwt>
</event>
<event>
 5    1  0.3243498E-002  0.1250047E+03  0.7818608E-02  0.1235062E+00
         -4   -1    0    0    0  501 -0.00000000000E+00  0.00000000000E+00  0.11189752793E+04  0.11189760000E+04  0.12700000000E+01 0.  1.
          4   -1    0    0  501    0  0.00000000000E+00 -0.00000000000E+00 -0.33749363844E+01  0.36059805322E+01  0.12700000000E+01 0.  1.
         25    2    1    2    0    0  0.00000000000E+00  0.00000000000E+00  0.11156003429E+04  0.11225819806E+04  0.12500471156E+03 0.  0.
    9000005    1    3    3    0    0 -0.48678701897E+02 -0.20777406602E+02  0.25938491028E+03  0.26473165342E+03  0.10000000000E+01 0.  0.
    9000005    1    3    3    0    0  0.48678701897E+02  0.20777406602E+02  0.85621543267E+03  0.85785032715E+03  0.10000000000E+01 0.  0.
<mgrwt>
<rscale>  0 0.12500471E+03</rscale>
<asrwt>0</asrwt>
<pdfrwt beam="2">  1        4 0.53704849E-03 0.12500471E+03</pdfrwt>
<pdfrwt beam="1">  1       -4 0.17216805E+00 0.12500471E+03</pdfrwt>
<totfact> 0.26828916E+03</totfact>
</mgrwt>
</event>
<event>
 5    1  0.3243498E-002  0.1250161E+03  0.7818608E-02  0.1235044E+00
          4   -1    0    0  501    0  0.00000000000E+00  0.00000000000E+00  0.26906514820E+01  0.29753160164E+01  0.12700000000E+01 0.  1.
         -4   -1    0    0    0  501 -0.00000000000E+00 -0.00000000000E+00 -0.13789161549E+04  0.13789167398E+04  0.12700000000E+01 0.  1.
         25    2    1    2    0    0  0.00000000000E+00  0.00000000000E+00 -0.13762255035E+04  0.13818920558E+04  0.12501606902E+03 0.  0.
    9000005    1    3    3    0    0 -0.75375535665E+01  0.57062520220E+02 -0.41886719289E+03  0.42280453073E+03  0.10000000000E+01 0.  0.
    9000005    1    3    3    0    0  0.75375535665E+01 -0.57062520220E+02 -0.95735831056E+03  0.95908752506E+03  0.10000000000E+01 0.  0.
<mgrwt>
<rscale>  0 0.12501607E+03</rscale>
<asrwt>0</asrwt>
<pdfrwt beam="1">  1        4 0.43588974E-03 0.12501607E+03</pdfrwt>
<pdfrwt beam="2">  1       -4 0.21216235E+00 0.12501607E+03</pdfrwt>
<totfact> 0.20365800E+03</totfact>
</mgrwt>
</event>
<event>
 5    1  0.3243498E-002  0.1249955E+03  0.7818608E-02  0.1235076E+00
         -4   -1    0    0    0  501 -0.00000000000E+00  0.00000000000E+00  0.63453629370E+01  0.64712078318E+01  0.12700000000E+01 0. -1.
          4   -1    0    0  501    0  0.00000000000E+00 -0.00000000000E+00 -0.60939164765E+03  0.60939297102E+03  0.12700000000E+01 0. -1.
         25    2    1    2    0    0  0.00000000000E+00  0.00000000000E+00 -0.60304628472E+03  0.61586417885E+03  0.12499546105E+03 0.  0.
    9000005    1    3    3    0    0 -0.39997513805E+02  0.41331134429E+02 -0.18114644771E+03  0.19006077791E+03  0.10000000000E+01 0.  0.
    9000005    1    3    3    0    0  0.39997513805E+02 -0.41331134429E+02 -0.42189983701E+03  0.42580340094E+03  0.10000000000E+01 0.  0.
<mgrwt>
<rscale>  0 0.12499546E+03</rscale>
<asrwt>0</asrwt>
<pdfrwt beam="2">  1        4 0.93762298E-01 0.12499546E+03</pdfrwt>
<pdfrwt beam="1">  1       -4 0.98599233E-03 0.12499546E+03</pdfrwt>
<totfact> 0.47886070E+03</totfact>
</mgrwt>
</event>
<event>
 5    1  0.3243498E-002  0.1250007E+03  0.7818608E-02  0.1235068E+00
         -4   -1    0    0    0  501 -0.00000000000E+00  0.00000000000E+00  0.29904282236E+03  0.29904551911E+03  0.12700000000E+01 0. -1.
          4   -1    0    0  501    0  0.00000000000E+00 -0.00000000000E+00 -0.13029021546E+02  0.13090771652E+02  0.12700000000E+01 0. -1.
         25    2    1    2    0    0  0.00000000000E+00  0.00000000000E+00  0.28601380081E+03  0.31213629077E+03  0.12500067904E+03 0.  0.
    9000005    1    3    3    0    0  0.15703631790E+01 -0.51371043670E+02  0.23177937607E+03  0.23741130836E+03  0.10000000000E+01 0.  0.
    9000005    1    3    3    0    0 -0.15703631790E+01  0.51371043670E+02  0.54234424744E+02  0.74724982405E+02  0.10000000000E+01 0.  0.
<mgrwt>
<rscale>  0 0.12500068E+03</rscale>
<asrwt>0</asrwt>
<pdfrwt beam="2">  1        4 0.20094226E-02 0.12500068E+03</pdfrwt>
<pdfrwt beam="1">  1       -4 0.46011539E-01 0.12500068E+03</pdfrwt>
<totfact> 0.74100160E+03</totfact>
</mgrwt>
</event>
<event>
 5    1  0.3243498E-002  0.1250000E+03  0.7818608E-02  0.1235069E+00
          4   -1    0    0  501    0  0.00000000000E+00  0.00000000000E+00  0.23681801274E+01  0.26872247981E+01  0.12700000000E+01 0. -1.
         -4   -1    0    0    0  501 -0.00000000000E+00 -0.00000000000E+00 -0.15450563895E+04  0.15450569115E+04  0.12700000000E+01 0. -1.
         25    2    1    2    0    0  0.00000000000E+00  0.00000000000E+00 -0.15426882094E+04  0.15477441363E+04  0.12499999988E+03 0.  0.
    9000005    1    3    3    0    0 -0.40084401432E+02  0.39872164181E+02 -0.44171863428E+03  0.44532336632E+03  0.10000000000E+01 0.  0.
    9000005    1    3    3    0    0  0.40084401432E+02 -0.39872164181E+02 -0.11009695751E+04  0.11024207700E+04  0.10000000000E+01 0.  0.
<mgrwt>
<rscale>  0 0.12500000E+03</rscale>
<asrwt>0</asrwt>
<pdfrwt beam="1">  1        4 0.38891869E-03 0.12500000E+03</pdfrwt>
<pdfrwt beam="2">  1       -4 0.23772481E+00 0.12500000E+03</pdfrwt>
<totfact> 0.17010853E+03</totfact>
</mgrwt>
</event>
<event>
 5    1  0.3243498E-002  0.1249967E+03  0.7818608E-02  0.1235074E+00
          4   -1    0    0  501    0  0.00000000000E+00  0.00000000000E+00  0.14429494399E+02  0.14485275580E+02  0.12700000000E+01 0. -1.
         -4   -1    0    0    0  501 -0.00000000000E+00 -0.00000000000E+00 -0.27011903279E+03  0.27012201831E+03  0.12700000000E+01 0. -1.
         25    2    1    2    0    0  0.00000000000E+00  0.00000000000E+00 -0.25568953839E+03  0.28460729389E+03  0.12499668673E+03 0.  0.
    9000005    1    3    3    0    0  0.40019271223E+02 -0.11433351114E+02 -0.23397896554E+03  0.23765399198E+03  0.10000000000E+01 0.  0.
    9000005    1    3    3    0    0 -0.40019271223E+02  0.11433351114E+02 -0.21710572849E+02  0.46953301912E+02  0.10000000000E+01 0.  0.
<mgrwt>
<rscale>  0 0.12499669E+03</rscale>
<asrwt>0</asrwt>
<pdfrwt beam="1">  1        4 0.22244429E-02 0.12499669E+03</pdfrwt>
<pdfrwt beam="2">  1       -4 0.41561291E-01 0.12499669E+03</pdfrwt>
<totfact> 0.77576864E+03</totfact>
</mgrwt>
</event>
<event>
 5    1  0.3243498E-002  0.1249732E+03  0.7818608E-02  0.1235111E+00
          4   -1    0    0  501    0  0.00000000000E+00  0.00000000000E+00  0.12132852125E+03  0.12133516789E+03  0.12700000000E+01 0. -1.
         -4   -1    0    0    0  501 -0.00000000000E+00 -0.00000000000E+00 -0.32161764435E+02  0.32186829474E+02  0.12700000000E+01 0. -1.
         25    2    1    2    0    0  0.00000000000E+00  0.00000000000E+00  0.89166756812E+02  0.15352199737E+03  0.12497316974E+03 0.  0.
    9000005    1    3    3    0    0 -0.33064993466E+02  0.42814603468E+02  0.61823228832E+01  0.54457370293E+02  0.10000000000E+01 0.  0.
    9000005    1    3    3    0    0  0.33064993466E+02 -0.42814603468E+02  0.82984433929E+02  0.99064627075E+02  0.10000000000E+01 0.  0.
<mgrwt>
<rscale>  0 0.12497317E+03</rscale>
<asrwt>0</asrwt>
<pdfrwt beam="1">  1        4 0.18668366E-01 0.12497317E+03</pdfrwt>
<pdfrwt beam="2">  1       -4 0.49504030E-02 0.12497317E+03</pdfrwt>
<totfact> 0.98665758E+03</totfact>
</mgrwt>
</event>
<event>
 5    1  0.3243498E-002  0.1250003E+03  0.7818608E-02  0.1235069E+00
         -4   -1    0    0    0  501 -0.00000000000E+00  0.00000000000E+00  0.75765759383E+02  0.75776402625E+02  0.12700000000E+01 0.  1.
          4   -1    0    0  501    0  0.00000000000E+00 -0.00000000000E+00 -0.51535087960E+02  0.51550734147E+02  0.12700000000E+01 0.  1.
         25    2    1    2    0    0  0.00000000000E+00  0.00000000000E+00  0.24230671422E+02  0.12732713677E+03  0.12500029728E+03 0.  0.
    9000005    1    3    3    0    0 -0.13903719867E+02 -0.69796298004E+00 -0.49940522707E+02  0.51854183888E+02  0.10000000000E+01 0.  0.
    9000005    1    3    3    0    0  0.13903719867E+02  0.69796298004E+00  0.74171194129E+02  0.75472952884E+02  0.10000000000E+01 0.  0.
<mgrwt>
<rscale>  0 0.12500030E+03</rscale>
<asrwt>0</asrwt>
<pdfrwt beam="2">  1        4 0.79304974E-02 0.12500030E+03</pdfrwt>
<pdfrwt beam="1">  1       -4 0.11658293E-01 0.12500030E+03</pdfrwt>
<totfact> 0.10401976E+04</totfact>
</mgrwt>
</event>
<event>
 5    1  0.3243498E-002  0.1249949E+03  0.7818608E-02  0.1235077E+00
          4   -1    0    0  501    0  0.00000000000E+00  0.00000000000E+00  0.35090983407E+02  0.35113957573E+02  0.12700000000E+01 0.  1.
         -4   -1    0    0    0  501 -0.00000000000E+00 -0.00000000000E+00 -0.11124570350E+03  0.11125295253E+03  0.12700000000E+01 0.  1.
         25    2    1    2    0    0  0.00000000000E+00  0.00000000000E+00 -0.76154720092E+02  0.14636691010E+03  0.12499492382E+03 0.  0.
    9000005    1    3    3    0    0  0.17056142950E+02  0.56535433437E+02 -0.14143275870E+02  0.60730548314E+02  0.10000000000E+01 0.  0.
    9000005    1    3    3    0    0 -0.17056142950E+02 -0.56535433437E+02 -0.62011444222E+02  0.85636361790E+02  0.10000000000E+01 0.  0.
<mgrwt>
<rscale>  0 0.12499492E+03</rscale>
<asrwt>0</asrwt>
<pdfrwt beam="1">  1        4 0.54009378E-02 0.12499492E+03</pdfrwt>
<pdfrwt beam="2">  1       -4 0.17117048E-01 0.12499492E+03</pdfrwt>
<totfact> 0.10004433E+04</totfact>
</mgrwt>
</event>
<event>
 5    1  0.3243498E-002  0.1249903E+03  0.7818608E-02  0.1235084E+00
         -4   -1    0    0    0  501 -0.00000000000E+00  0.00000000000E+00  0.23489286839E+03  0.23489630163E+03  0.12700000000E+01 0.  1.
          4   -1    0    0  501    0  0.00000000000E+00 -0.00000000000E+00 -0.16599527648E+02  0.16648039468E+02  0.12700000000E+01 0.  1.
         25    2    1    2    0    0  0.00000000000E+00  0.00000000000E+00  0.21829334074E+03  0.25154434110E+03  0.12499029133E+03 0.  0.
    9000005    1    3    3    0    0 -0.35376309667E+02 -0.49749100450E+02  0.13601101307E+03  0.14908538478E+03  0.10000000000E+01 0.  0.
    9000005    1    3    3    0    0  0.35376309667E+02  0.49749100450E+02  0.82282327675E+02  0.10245895631E+03  0.10000000000E+01 0.  0.
<mgrwt>
<rscale>  0 0.12499029E+03</rscale>
<asrwt>0</asrwt>
<pdfrwt beam="2">  1        4 0.25577694E-02 0.12499029E+03</pdfrwt>
<pdfrwt beam="1">  1       -4 0.36141358E-01 0.12499029E+03</pdfrwt>
<totfact> 0.82125293E+03</totfact>
</mgrwt>
</event>
<event>
 5    1  0.3243498E-002  0.1250020E+03  0.7818608E-02  0.1235066E+00
          4   -1    0    0  501    0  0.00000000000E+00  0.00000000000E+00  0.33384326236E+03  0.33384567801E+03  0.12700000000E+01 0. -1.
         -4   -1    0    0    0  501 -0.00000000000E+00 -0.00000000000E+00 -0.11664290029E+02  0.11733224701E+02  0.12700000000E+01 0. -1.
         25    2    1    2    0    0  0.00000000000E+00  0.00000000000E+00  0.32217897233E+03  0.34557890271E+03  0.12500195112E+03 0.  0.
    9000005    1    3    3    0    0  0.93155021405E+01  0.61647566279E+02  0.14930477075E+03  0.16180270571E+03  0.10000000000E+01 0.  0.
    9000005    1    3    3    0    0 -0.93155021405E+01 -0.61647566279E+02  0.17287420159E+03  0.18377619700E+03  0.10000000000E+01 0.  0.
<mgrwt>
<rscale>  0 0.12500195E+03</rscale>
<asrwt>0</asrwt>
<pdfrwt beam="1">  1        4 0.51365978E-01 0.12500195E+03</pdfrwt>
<pdfrwt beam="2">  1       -4 0.17999951E-02 0.12500195E+03</pdfrwt>
<totfact> 0.70210659E+03</totfact>
</mgrwt>
</event>
<event>
 5    1  0.3243498E-002  0.1249989E+03  0.7818608E-02  0.1235071E+00
          4   -1    0    0  501    0  0.00000000000E+00  0.00000000000E+00  0.85911322211E+02  0.85920708704E+02  0.12700000000E+01 0. -1.
         -4   -1    0    0    0  501 -0.00000000000E+00 -0.00000000000E+00 -0.45446853624E+02  0.45464595064E+02  0.12700000000E+01 0. -1.
         25    2    1    2    0    0  0.00000000000E+00  0.00000000000E+00  0.40464468587E+02  0.13138530377E+03  0.12499889931E+03 0.  0.
    9000005    1    3    3    0    0  0.32526271523E+02 -0.18183187775E+02  0.72960954017E+02  0.81932212639E+02  0.10000000000E+01 0.  0.
    9000005    1    3    3    0    0 -0.32526271523E+02  0.18183187775E+02 -0.32496485429E+02  0.49453091128E+02  0.10000000000E+01 0.  0.
<mgrwt>
<rscale>  0 0.12499890E+03</rscale>
<asrwt>0</asrwt>
<pdfrwt beam="1">  1        4 0.13219213E-01 0.12499890E+03</pdfrwt>
<pdfrwt beam="2">  1       -4 0.69939104E-02 0.12499890E+03</pdfrwt>
<totfact> 0.10315092E+04</totfact>
</mgrwt>
</event>
<event>
 4    1  0.3243498E-002  0.1251740E+03  0.7818608E-02  0.1234798E+00
          4   -1    0    0  501    0  0.00000000000E+00  0.00000000000E+00  0.32209637193E+02  0.32234665007E+02  0.12700000000E+01 0. -1.
         -4   -1    0    0    0  501 -0.00000000000E+00 -0.00000000000E+00 -0.12153808434E+03  0.12154471952E+03  0.12700000000E+01 0. -1.
    9000005    1    1    2    0    0  0.29527262168E+02  0.48126736238E+02 -0.11514756962E+02  0.57633597667E+02  0.10000000000E+01 0.  0.
    9000005    1    1    2    0    0 -0.29527262168E+02 -0.48126736238E+02 -0.77813690182E+02  0.96145786865E+02  0.10000000000E+01 0.  0.
<mgrwt>
<rscale>  0 0.12517399E+03</rscale>
<asrwt>0</asrwt>
<pdfrwt beam="1">  1        4 0.49577645E-02 0.12517399E+03</pdfrwt>
<pdfrwt beam="2">  1       -4 0.18700602E-01 0.12517399E+03</pdfrwt>
<totfact> 0.98170834E+03</totfact>
</mgrwt>
</event>
<event>
 5    1  0.3243498E-002  0.1249995E+03  0.7818608E-02  0.1235070E+00
         -4   -1    0    0    0  501 -0.00000000000E+00  0.00000000000E+00  0.26131058581E+02  0.26161902120E+02  0.12700000000E+01 0. -1.
          4   -1    0    0  501    0  0.00000000000E+00 -0.00000000000E+00 -0.14936391763E+03  0.14936931676E+03  0.12700000000E+01 0. -1.
         25    2    1    2    0    0  0.00000000000E+00  0.00000000000E+00 -0.12323285905E+03  0.17553121888E+03  0.12499948501E+03 0.  0.
    9000005    1    3    3    0    0  0.36256773202E+02 -0.43399794438E+02 -0.98958065051E+02  0.11398155289E+03  0.10000000000E+01 0.  0.
    9000005    1    3    3    0    0 -0.36256773202E+02  0.43399794438E+02 -0.24274793999E+02  0.61549665994E+02  0.10000000000E+01 0.  0.
<mgrwt>
<rscale>  0 0.12499949E+03</rscale>
<asrwt>0</asrwt>
<pdfrwt beam="2">  1        4 0.22981852E-01 0.12499949E+03</pdfrwt>
<pdfrwt beam="1">  1       -4 0.40229508E-02 0.12499949E+03</pdfrwt>
<totfact> 0.94428730E+03</totfact>
</mgrwt>
</event>
<event>
 5    1  0.3243498E-002  0.1249997E+03  0.7818608E-02  0.1235070E+00
         -4   -1    0    0    0  501 -0.00000000000E+00  0.00000000000E+00  0.95930757949E+02  0.95939164165E+02  0.12700000000E+01 0. -1.
          4   -1    0    0  501    0  0.00000000000E+00 -0.00000000000E+00 -0.40699178081E+02  0.40718988156E+02  0.12700000000E+01 0. -1.
         25    2    1    2    0    0  0.00000000000E+00  0.00000000000E+00  0.55231579869E+02  0.13665815232E+03  0.12499969272E+03 0.  0.
    9000005    1    3    3    0    0  0.70804702010E+01 -0.11236035927E+02  0.94375433798E+02  0.95310566393E+02  0.10000000000E+01 0.  0.
    9000005    1    3    3    0    0 -0.70804702010E+01  0.11236035927E+02 -0.39143853929E+02  0.41347585928E+02  0.10000000000E+01 0.  0.
<mgrwt>
<rscale>  0 0.12499969E+03</rscale>
<asrwt>0</asrwt>
<pdfrwt beam="2">  1        4 0.62635826E-02 0.12499969E+03</pdfrwt>
<pdfrwt beam="1">  1       -4 0.14760748E-01 0.12499969E+03</pdfrwt>
<totfact> 0.10203309E+04</totfact>
</mgrwt>
</event>
<event>
 5    1  0.3243498E-002  0.1249963E+03  0.7818608E-02  0.1235075E+00
          4   -1    0    0  501    0  0.00000000000E+00  0.00000000000E+00  0.94845516410E+02  0.94854018803E+02  0.12700000000E+01 0. -1.
         -4   -1    0    0    0  501 -0.00000000000E+00 -0.00000000000E+00 -0.41162819514E+02  0.41182406563E+02  0.12700000000E+01 0. -1.
         25    2    1    2    0    0  0.00000000000E+00  0.00000000000E+00  0.53682696896E+02  0.13603642537E+03  0.12499630827E+03 0.  0.
    9000005    1    3    3    0    0 -0.56454480111E+02  0.28729833233E+01  0.55833619993E+02  0.79459143459E+02  0.10000000000E+01 0.  0.
    9000005    1    3    3    0    0  0.56454480111E+02 -0.28729833233E+01 -0.21509230973E+01  0.56577281907E+02  0.10000000000E+01 0.  0.
<mgrwt>
<rscale>  0 0.12499631E+03</rscale>
<asrwt>0</asrwt>
<pdfrwt beam="1">  1        4 0.14593779E-01 0.12499631E+03</pdfrwt>
<pdfrwt beam="2">  1       -4 0.63349022E-02 0.12499631E+03</pdfrwt>
<totfact> 0.10217122E+04</totfact>
</mgrwt>
</event>
<event>
 5    1  0.3243498E-002  0.1249981E+03  0.7818608E-02  0.1235072E+00
         -4   -1    0    0    0  501 -0.00000000000E+00  0.00000000000E+00  0.35207769765E+02  0.35230667774E+02  0.12700000000E+01 0. -1.
          4   -1    0    0  501    0  0.00000000000E+00 -0.00000000000E+00 -0.11088254327E+03  0.11088981604E+03  0.12700000000E+01 0. -1.
         25    2    1    2    0    0  0.00000000000E+00  0.00000000000E+00 -0.75674773504E+02  0.14612048382E+03  0.12499809777E+03 0.  0.
    9000005    1    3    3    0    0 -0.38763546541E+02 -0.48770725165E+02 -0.43556436190E+02  0.76022097492E+02  0.10000000000E+01 0.  0.
    9000005    1    3    3    0    0  0.38763546541E+02  0.48770725165E+02 -0.32118337314E+02  0.70098386325E+02  0.10000000000E+01 0.  0.
<mgrwt>
<rscale>  0 0.12499810E+03</rscale>
<asrwt>0</asrwt>
<pdfrwt beam="2">  1        4 0.17061174E-01 0.12499810E+03</pdfrwt>
<pdfrwt beam="1">  1       -4 0.54189008E-02 0.12499810E+03</pdfrwt>
<totfact> 0.10008701E+04</totfact>
</mgrwt>
</event>
<event>
 5    1  0.3243498E-002  0.1250010E+03  0.7818608E-02  0.1235068E+00
          4   -1    0    0  501    0  0.00000000000E+00  0.00000000000E+00  0.16271312798E+03  0.16271808417E+03  0.12700000000E+01 0. -1.
         -4   -1    0    0    0  501 -0.00000000000E+00 -0.00000000000E+00 -0.23985222911E+02  0.24018822163E+02  0.12700000000E+01 0. -1.
         25    2    1    2    0    0  0.00000000000E+00  0.00000000000E+00  0.13872790506E+03  0.18673690633E+03  0.12500096217E+03 0.  0.
    9000005    1    3    3    0    0 -0.54777638756E+02 -0.17634980169E+02  0.32963185653E+02  0.66326117341E+02  0.10000000000E+01 0.  0.
    9000005    1    3    3    0    0  0.54777638756E+02  0.17634980169E+02  0.10576471941E+03  0.12041078899E+03  0.10000000000E+01 0.  0.
<mgrwt>
<rscale>  0 0.12500096E+03</rscale>
<asrwt>0</asrwt>
<pdfrwt beam="1">  1        4 0.25035754E-01 0.12500096E+03</pdfrwt>
<pdfrwt beam="2">  1       -4 0.36930002E-02 0.12500096E+03</pdfrwt>
<totfact> 0.92416210E+03</totfact>
</mgrwt>
</event>
<event>
 5    1  0.3243498E-002  0.1250007E+03  0.7818608E-02  0.1235068E+00
         -4   -1    0    0    0  501 -0.00000000000E+00  0.00000000000E+00  0.49419693535E+02  0.49436009235E+02  0.12700000000E+01 0.  1.
          4   -1    0    0  501    0  0.00000000000E+00 -0.00000000000E+00 -0.79008775520E+02  0.79018981955E+02  0.12700000000E+01 0.  1.
         25    2    1    2    0    0  0.00000000000E+00  0.00000000000E+00 -0.29589081985E+02  0.12845499119E+03  0.12500068395E+03 0.  0.
    9000005    1    3    3    0    0 -0.35750765247E+02  0.42532410126E+02 -0.44188647886E+02  0.70998307929E+02  0.10000000000E+01 0.  0.
    9000005    1    3    3    0    0  0.35750765247E+02 -0.42532410126E+02  0.14599565901E+02  0.57456683261E+02  0.10000000000E+01 0.  0.
<mgrwt>
<rscale>  0 0.12500068E+03</rscale>
<asrwt>0</asrwt>
<pdfrwt beam="2">  1        4 0.12157236E-01 0.12500068E+03</pdfrwt>
<pdfrwt beam="1">  1       -4 0.76050699E-02 0.12500068E+03</pdfrwt>
<totfact> 0.10377513E+04</totfact>
</mgrwt>
</event>
<event>
 5    1  0.3243498E-002  0.1250039E+03  0.7818608E-02  0.1235063E+00
         -4   -1    0    0    0  501 -0.00000000000E+00  0.00000000000E+00  0.49927858708E+01  0.51517774361E+01  0.12700000000E+01 0. -1.
          4   -1    0    0  501    0  0.00000000000E+00 -0.00000000000E+00 -0.77000552432E+03  0.77000657165E+03  0.12700000000E+01 0. -1.
         25    2    1    2    0    0  0.00000000000E+00  0.00000000000E+00 -0.76501273845E+03  0.77515834908E+03  0.12500390461E+03 0.  0.
    9000005    1    3    3    0    0  0.13854461383E+02 -0.10555640914E+01 -0.76033616628E+03  0.76046377039E+03  0.10000000000E+01 0.  0.
    9000005    1    3    3    0    0 -0.13854461383E+02  0.10555640914E+01 -0.46765721615E+01  0.14694578692E+02  0.10000000000E+01 0.  0.
<mgrwt>
<rscale>  0 0.12500390E+03</rscale>
<asrwt>0</asrwt>
<pdfrwt beam="2">  1        4 0.11847461E+00 0.12500390E+03</pdfrwt>
<pdfrwt beam="1">  1       -4 0.78043220E-03 0.12500390E+03</pdfrwt>
<totfact> 0.39394713E+03</totfact>
</mgrwt>
</event>
<event>
 5    1  0.3243498E-002  0.1250001E+03  0.7818608E-02  0.1235069E+00
          4   -1    0    0  501    0  0.00000000000E+00  0.00000000000E+00  0.31764829373E+03  0.31765083254E+03  0.12700000000E+01 0.  1.
         -4   -1    0    0    0  501 -0.00000000000E+00 -0.00000000000E+00 -0.12262040181E+02  0.12327632757E+02  0.12700000000E+01 0.  1.
         25    2    1    2    0    0  0.00000000000E+00  0.00000000000E+00  0.30538625355E+03  0.32997846529E+03  0.12500009480E+03 0.  0.
    9000005    1    3    3    0    0 -0.79816065670E+01  0.40538642776E+02  0.27646037312E+03  0.27953251243E+03  0.10000000000E+01 0.  0.
    9000005    1    3    3    0    0  0.79816065670E+01 -0.40538642776E+02  0.28925880438E+02  0.50445952866E+02  0.10000000000E+01 0.  0.
<mgrwt>
<rscale>  0 0.12500009E+03</rscale>
<asrwt>0</asrwt>
<pdfrwt beam="1">  1        4 0.48874202E-01 0.12500009E+03</pdfrwt>
<pdfrwt beam="2">  1       -4 0.18917089E-02 0.12500009E+03</pdfrwt>
<totfact> 0.71984681E+03</totfact>
</mgrwt>
</event>
<event>
 5    1  0.3243498E-002  0.1250031E+03  0.7818608E-02  0.1235064E+00
          4   -1    0    0  501    0  0.00000000000E+00  0.00000000000E+00  0.91214206061E+02  0.91223046909E+02  0.12700000000E+01 0.  1.
         -4   -1    0    0    0  501 -0.00000000000E+00 -0.00000000000E+00 -0.42806788355E+02  0.42825623513E+02  0.12700000000E+01 0.  1.
         25    2    1    2    0    0  0.00000000000E+00  0.00000000000E+00  0.48407417706E+02  0.13404867042E+03  0.12500307177E+03 0.  0.
    9000005    1    3    3    0    0 -0.52718068142E+02 -0.10073483989E+02 -0.10124843787E+02  0.54627669271E+02  0.10000000000E+01 0.  0.
    9000005    1    3    3    0    0  0.52718068142E+02  0.10073483989E+02  0.58532261493E+02  0.79421001151E+02  0.10000000000E+01 0.  0.
<mgrwt>
<rscale>  0 0.12500307E+03</rscale>
<asrwt>0</asrwt>
<pdfrwt beam="1">  1        4 0.14035084E-01 0.12500307E+03</pdfrwt>
<pdfrwt beam="2">  1       -4 0.65877887E-02 0.12500307E+03</pdfrwt>
<totfact> 0.10257451E+04</totfact>
</mgrwt>
</event>
<event>
 5    1  0.3243498E-002  0.1250001E+03  0.7818608E-02  0.1235069E+00
         -4   -1    0    0    0  501 -0.00000000000E+00  0.00000000000E+00  0.10053882293E+02  0.10133777635E+02  0.12700000000E+01 0. -1.
          4   -1    0    0  501    0  0.00000000000E+00 -0.00000000000E+00 -0.38691343692E+03  0.38691552124E+03  0.12700000000E+01 0. -1.
         25    2    1    2    0    0  0.00000000000E+00  0.00000000000E+00 -0.37685955463E+03  0.39704929887E+03  0.12500008726E+03 0.  0.
    9000005    1    3    3    0    0 -0.36801486907E+02  0.34198816680E+02 -0.70374473202E+02  0.86472394319E+02  0.10000000000E+01 0.  0.
    9000005    1    3    3    0    0  0.36801486907E+02 -0.34198816680E+02 -0.30648508143E+03  0.31057690455E+03  0.10000000000E+01 0.  0.
<mgrwt>
<rscale>  0 0.12500009E+03</rscale>
<asrwt>0</asrwt>
<pdfrwt beam="2">  1        4 0.59531439E-01 0.12500009E+03</pdfrwt>
<pdfrwt beam="1">  1       -4 0.15530575E-02 0.12500009E+03</pdfrwt>
<totfact> 0.64840666E+03</totfact>
</mgrwt>
</event>
<event>
 5    1  0.3243498E-002  0.1249725E+03  0.7818608E-02  0.1235112E+00
          4   -1    0    0  501    0  0.00000000000E+00  0.00000000000E+00  0.46798654995E+01  0.48491278694E+01  0.12700000000E+01 0. -1.
         -4   -1    0    0    0  501 -0.00000000000E+00 -0.00000000000E+00 -0.81933551259E+03  0.81933649686E+03  0.12700000000E+01 0. -1.
         25    2    1    2    0    0  0.00000000000E+00  0.00000000000E+00 -0.81465564709E+03  0.82418562473E+03  0.12497247968E+03 0.  0.
    9000005    1    3    3    0    0  0.36876582632E+02 -0.50416138226E+02 -0.41632412352E+03  0.42098508901E+03  0.10000000000E+01 0.  0.
    9000005    1    3    3    0    0 -0.36876582632E+02  0.50416138226E+02 -0.39833152357E+03  0.40320053572E+03  0.10000000000E+01 0.  0.
<mgrwt>
<rscale>  0 0.12497248E+03</rscale>
<asrwt>0</asrwt>
<pdfrwt beam="1">  1        4 0.73307585E-03 0.12497248E+03</pdfrwt>
<pdfrwt beam="2">  1       -4 0.12606460E+00 0.12497248E+03</pdfrwt>
<totfact> 0.37229956E+03</totfact>
</mgrwt>
</event>
<event>
 5    1  0.3243498E-002  0.1250001E+03  0.7818608E-02  0.1235069E+00
          4   -1    0    0  501    0  0.00000000000E+00  0.00000000000E+00  0.12565798575E+02  0.12629813689E+02  0.12700000000E+01 0.  1.
         -4   -1    0    0    0  501 -0.00000000000E+00 -0.00000000000E+00 -0.31000922083E+03  0.31001182219E+03  0.12700000000E+01 0.  1.
         25    2    1    2    0    0  0.00000000000E+00  0.00000000000E+00 -0.29744342225E+03  0.32264163588E+03  0.12500014305E+03 0.  0.
    9000005    1    3    3    0    0 -0.21437889131E+02 -0.20094353134E+02 -0.63637186326E+01  0.30080941360E+02  0.10000000000E+01 0.  0.
    9000005    1    3    3    0    0  0.21437889131E+02  0.20094353134E+02 -0.29107970362E+03  0.29256069452E+03  0.10000000000E+01 0.  0.
<mgrwt>
<rscale>  0 0.12500014E+03</rscale>
<asrwt>0</asrwt>
<pdfrwt beam="1">  1        4 0.19383244E-02 0.12500014E+03</pdfrwt>
<pdfrwt beam="2">  1       -4 0.47698845E-01 0.12500014E+03</pdfrwt>
<totfact> 0.72842807E+03</totfact>
</mgrwt>
</event>
<event>
 5    1  0.3243498E-002  0.1249940E+03  0.7818608E-02  0.1235079E+00
          4   -1    0    0  501    0  0.00000000000E+00  0.00000000000E+00  0.10448315075E+04  0.10448322793E+04  0.12700000000E+01 0. -1.
         -4   -1    0    0    0  501 -0.00000000000E+00 -0.00000000000E+00 -0.36296255465E+01  0.38453974577E+01  0.12700000000E+01 0. -1.
         25    2    1    2    0    0  0.00000000000E+00  0.00000000000E+00  0.10412018820E+04  0.10486776768E+04  0.12499404324E+03 0.  0.
    9000005    1    3    3    0    0 -0.12313111356E+02 -0.47171756736E+02  0.19263614735E+03  0.19871203439E+03  0.10000000000E+01 0.  0.
    9000005    1    3    3    0    0  0.12313111356E+02  0.47171756736E+02  0.84856573460E+03  0.84996564241E+03  0.10000000000E+01 0.  0.
<mgrwt>
<rscale>  0 0.12499404E+03</rscale>
<asrwt>0</asrwt>
<pdfrwt beam="1">  1        4 0.16076003E+00 0.12499404E+03</pdfrwt>
<pdfrwt beam="2">  1       -4 0.57506091E-03 0.12499404E+03</pdfrwt>
<totfact> 0.29039850E+03</totfact>
</mgrwt>
</event>
<event>
 5    1  0.3243498E-002  0.1249986E+03  0.7818608E-02  0.1235072E+00
         -4   -1    0    0    0  501 -0.00000000000E+00  0.00000000000E+00  0.71144573662E+01  0.72269221399E+01  0.12700000000E+01 0.  1.
          4   -1    0    0  501    0  0.00000000000E+00 -0.00000000000E+00 -0.54462657762E+03  0.54462805835E+03  0.12700000000E+01 0.  1.
         25    2    1    2    0    0  0.00000000000E+00  0.00000000000E+00 -0.53751212025E+03  0.55185498049E+03  0.12499856031E+03 0.  0.
    9000005    1    3    3    0    0  0.46767143345E+02 -0.39971926879E+02 -0.31716697927E+03  0.32308019650E+03  0.10000000000E+01 0.  0.
    9000005    1    3    3    0    0 -0.46767143345E+02  0.39971926879E+02 -0.22034514099E+03  0.22877478399E+03  0.10000000000E+01 0.  0.
<mgrwt>
<rscale>  0 0.12499856E+03</rscale>
<asrwt>0</asrwt>
<pdfrwt beam="2">  1        4 0.83797437E-01 0.12499856E+03</pdfrwt>
<pdfrwt beam="1">  1       -4 0.11032974E-02 0.12499856E+03</pdfrwt>
<totfact> 0.52056540E+03</totfact>
</mgrwt>
</event>
<event>
 5    1  0.3243498E-002  0.1250009E+03  0.7818608E-02  0.1235068E+00
         -4   -1    0    0    0  501 -0.00000000000E+00  0.00000000000E+00  0.12664273769E+03  0.12664910545E+03  0.12700000000E+01 0.  1.
          4   -1    0    0  501    0  0.00000000000E+00 -0.00000000000E+00 -0.30824864094E+02  0.30851015322E+02  0.12700000000E+01 0.  1.
         25    2    1    2    0    0  0.00000000000E+00  0.00000000000E+00  0.95817873601E+02  0.15750012077E+03  0.12500089256E+03 0.  0.
    9000005    1    3    3    0    0 -0.34642008039E+02  0.48990292726E+02  0.69920541504E+02  0.92141193972E+02  0.10000000000E+01 0.  0.
    9000005    1    3    3    0    0  0.34642008039E+02 -0.48990292726E+02  0.25897332097E+02  0.65358926798E+02  0.10000000000E+01 0.  0.
<mgrwt>
<rscale>  0 0.12500089E+03</rscale>
<asrwt>0</asrwt>
<pdfrwt beam="2">  1        4 0.47447882E-02 0.12500089E+03</pdfrwt>
<pdfrwt beam="1">  1       -4 0.19486000E-01 0.12500089E+03</pdfrwt>
<totfact> 0.97824955E+03</totfact>
</mgrwt>
</event>
<event>
 5    1  0.3243498E-002  0.1250027E+03  0.7818608E-02  0.1235065E+00
          4   -1    0    0  501    0  0.00000000000E+00  0.00000000000E+00  0.23222373208E+02  0.23257074567E+02  0.12700000000E+01 0.  1.
         -4   -1    0    0    0  501 -0.00000000000E+00 -0.00000000000E+00 -0.16805523946E+03  0.16806003811E+03  0.12700000000E+01 0.  1.
         25    2    1    2    0    0  0.00000000000E+00  0.00000000000E+00 -0.14483286625E+03  0.19131711268E+03  0.12500271380E+03 0.  0.
    9000005    1    3    3    0    0 -0.38016068744E+02 -0.44095537007E+02 -0.37657426128E+02  0.69344932110E+02  0.10000000000E+01 0.  0.
    9000005    1    3    3    0    0  0.38016068744E+02  0.44095537007E+02 -0.10717544012E+03  0.12197218057E+03  0.10000000000E+01 0.  0.
<mgrwt>
<rscale>  0 0.12500271E+03</rscale>
<asrwt>0</asrwt>
<pdfrwt beam="1">  1        4 0.35757114E-02 0.12500271E+03</pdfrwt>
<pdfrwt beam="2">  1       -4 0.25857690E-01 0.12500271E+03</pdfrwt>
<totfact> 0.91613077E+03</totfact>
</mgrwt>
</event>
<event>
 5    1  0.3243498E-002  0.1249975E+03  0.7818608E-02  0.1235073E+00
         -4   -1    0    0    0  501 -0.00000000000E+00  0.00000000000E+00  0.16680526600E+02  0.16728803533E+02  0.12700000000E+01 0. -1.
          4   -1    0    0  501    0  0.00000000000E+00 -0.00000000000E+00 -0.23378264653E+03  0.23378609607E+03  0.12700000000E+01 0. -1.
         25    2    1    2    0    0  0.00000000000E+00  0.00000000000E+00 -0.21710211993E+03  0.25051489961E+03  0.12499753777E+03 0.  0.
    9000005    1    3    3    0    0 -0.36159834741E+01  0.20959209651E+02  0.92132134727E+01  0.23200153192E+02  0.10000000000E+01 0.  0.
    9000005    1    3    3    0    0  0.36159834741E+01 -0.20959209651E+02 -0.22631533340E+03  0.22731474641E+03  0.10000000000E+01 0.  0.
<mgrwt>
<rscale>  0 0.12499754E+03</rscale>
<asrwt>0</asrwt>
<pdfrwt beam="2">  1        4 0.35970538E-01 0.12499754E+03</pdfrwt>
<pdfrwt beam="1">  1       -4 0.25702140E-02 0.12499754E+03</pdfrwt>
<totfact> 0.82260378E+03</totfact>
</mgrwt>
</event>
<event>
 5    1  0.3243498E-002  0.1249821E+03  0.7818608E-02  0.1235097E+00
         -4   -1    0    0    0  501 -0.00000000000E+00  0.00000000000E+00  0.78859535939E+02  0.78869761687E+02  0.12700000000E+01 0. -1.
          4   -1    0    0  501    0  0.00000000000E+00 -0.00000000000E+00 -0.49498504528E+02  0.49514794259E+02  0.12700000000E+01 0. -1.
         25    2    1    2    0    0  0.00000000000E+00  0.00000000000E+00  0.29361031412E+02  0.12838455595E+03  0.12498209488E+03 0.  0.
    9000005    1    3    3    0    0  0.17942197715E+02  0.56128296584E+02 -0.66655481930E+01  0.59310519041E+02  0.10000000000E+01 0.  0.
    9000005    1    3    3    0    0 -0.17942197715E+02 -0.56128296584E+02  0.36026579605E+02  0.69074036904E+02  0.10000000000E+01 0.  0.
<mgrwt>
<rscale>  0 0.12498209E+03</rscale>
<asrwt>0</asrwt>
<pdfrwt beam="2">  1        4 0.76171942E-02 0.12498209E+03</pdfrwt>
<pdfrwt beam="1">  1       -4 0.12134276E-01 0.12498209E+03</pdfrwt>
<totfact> 0.10383388E+04</totfact>
</mgrwt>
</event>
<event>
 4    1  0.3243498E-002  0.1248486E+03  0.7818608E-02  0.1235306E+00
         -4   -1    0    0    0  501 -0.00000000000E+00  0.00000000000E+00  0.52590003927E+02  0.52605336355E+02  0.12700000000E+01 0. -1.
          4   -1    0    0  501    0  0.00000000000E+00 -0.00000000000E+00 -0.74066051571E+02  0.74076939025E+02  0.12700000000E+01 0. -1.
    9000005    1    1    2    0    0  0.46104829475E+01 -0.48039189944E+02  0.29425824279E+02  0.56532286863E+02  0.10000000000E+01 0.  0.
    9000005    1    1    2    0    0 -0.46104829475E+01  0.48039189944E+02 -0.50901871924E+02  0.70149988516E+02  0.10000000000E+01 0.  0.
<mgrwt>
<rscale>  0 0.12484862E+03</rscale>
<asrwt>0</asrwt>
<pdfrwt beam="2">  1        4 0.11396794E-01 0.12484862E+03</pdfrwt>
<pdfrwt beam="1">  1       -4 0.80927868E-02 0.12484862E+03</pdfrwt>
<totfact> 0.10451728E+04</totfact>
</mgrwt>
</event>
<event>
 5    1  0.3243498E-002  0.1250006E+03  0.7818608E-02  0.1235068E+00
         -4   -1    0    0    0  501 -0.00000000000E+00  0.00000000000E+00  0.40167216118E+03  0.40167416891E+03  0.12700000000E+01 0. -1.
          4   -1    0    0  501    0  0.00000000000E+00 -0.00000000000E+00 -0.96815595187E+01  0.97645017648E+01  0.12700000000E+01 0. -1.
         25    2    1    2    0    0  0.00000000000E+00  0.00000000000E+00  0.39199060166E+03  0.41143867067E+03  0.12500059173E+03 0.  0.
    9000005    1    3    3    0    0  0.76127132045E+01 -0.48060791275E+02  0.32505770272E+03  0.32868115729E+03  0.10000000000E+01 0.  0.
    9000005    1    3    3    0    0 -0.76127132045E+01  0.48060791275E+02  0.66932898940E+02  0.82757513379E+02  0.10000000000E+01 0.  0.
<mgrwt>
<rscale>  0 0.12500059E+03</rscale>
<asrwt>0</asrwt>
<pdfrwt beam="2">  1        4 0.14960056E-02 0.12500059E+03</pdfrwt>
<pdfrwt beam="1">  1       -4 0.61802238E-01 0.12500059E+03</pdfrwt>
<totfact> 0.63454455E+03</totfact>
</mgrwt>
</event>
<event>
 5    1  0.3243498E-002  0.1249992E+03  0.7818608E-02  0.1235071E+00
         -4   -1    0    0    0  501 -0.00000000000E+00  0.00000000000E+00  0.69546636294E+01  0.70696708692E+01  0.12700000000E+01 0.  1.
          4   -1    0    0  501    0  0.00000000000E+00 -0.00000000000E+00 -0.55694462934E+03  0.55694607733E+03  0.12700000000E+01 0.  1.
         25    2    1    2    0    0  0.00000000000E+00  0.00000000000E+00 -0.54998996571E+03  0.56401574820E+03  0.12499920732E+03 0.  0.
    9000005    1    3    3    0    0  0.31411229349E+02  0.53919127797E+02 -0.25985215817E+03  0.26724161685E+03  0.10000000000E+01 0.  0.
    9000005    1    3    3    0    0 -0.31411229349E+02 -0.53919127797E+02 -0.29013780754E+03  0.29677413134E+03  0.10000000000E+01 0.  0.
<mgrwt>
<rscale>  0 0.12499921E+03</rscale>
<asrwt>0</asrwt>
<pdfrwt beam="2">  1        4 0.85692712E-01 0.12499921E+03</pdfrwt>
<pdfrwt beam="1">  1       -4 0.10789068E-02 0.12499921E+03</pdfrwt>
<totfact> 0.51221689E+03</totfact>
</mgrwt>
</event>
<event>
 5    1  0.3243498E-002  0.1249955E+03  0.7818608E-02  0.1235076E+00
          4   -1    0    0  501    0  0.00000000000E+00  0.00000000000E+00  0.16743361834E+01  0.21014998585E+01  0.12700000000E+01 0.  1.
         -4   -1    0    0    0  501 -0.00000000000E+00 -0.00000000000E+00 -0.20685031748E+04  0.20685035647E+04  0.12700000000E+01 0.  1.
         25    2    1    2    0    0  0.00000000000E+00  0.00000000000E+00 -0.20668288386E+04  0.20706050645E+04  0.12499554040E+03 0.  0.
    9000005    1    3    3    0    0  0.30662676464E+02 -0.53401274596E+02 -0.12095661298E+04  0.12111329895E+04  0.10000000000E+01 0.  0.
    9000005    1    3    3    0    0 -0.30662676464E+02  0.53401274596E+02 -0.85726270885E+03  0.85947207507E+03  0.10000000000E+01 0.  0.
<mgrwt>
<rscale>  0 0.12499554E+03</rscale>
<asrwt>0</asrwt>
<pdfrwt beam="1">  1        4 0.29048057E-03 0.12499554E+03</pdfrwt>
<pdfrwt beam="2">  1       -4 0.31826233E+00 0.12499554E+03</pdfrwt>
<totfact> 0.89686951E+02</totfact>
</mgrwt>
</event>
<event>
 5    1  0.3243498E-002  0.1250003E+03  0.7818608E-02  0.1235069E+00
          4   -1    0    0  501    0  0.00000000000E+00  0.00000000000E+00  0.28029956205E+01  0.30772852400E+01  0.12700000000E+01 0. -1.
         -4   -1    0    0    0  501 -0.00000000000E+00 -0.00000000000E+00 -0.13283257854E+04  0.13283263925E+04  0.12700000000E+01 0. -1.
         25    2    1    2    0    0  0.00000000000E+00  0.00000000000E+00 -0.13255227898E+04  0.13314036778E+04  0.12500034769E+03 0.  0.
    9000005    1    3    3    0    0  0.58065729448E+02  0.74880798011E+01 -0.89552641308E+03  0.89743872036E+03  0.10000000000E+01 0.  0.
    9000005    1    3    3    0    0 -0.58065729448E+02 -0.74880798011E+01 -0.42999637672E+03  0.43396495742E+03  0.10000000000E+01 0.  0.
<mgrwt>
<rscale>  0 0.12500035E+03</rscale>
<asrwt>0</asrwt>
<pdfrwt beam="1">  1        4 0.45237706E-03 0.12500035E+03</pdfrwt>
<pdfrwt beam="2">  1       -4 0.20437848E+00 0.12500035E+03</pdfrwt>
<totfact> 0.21499160E+03</totfact>
</mgrwt>
</event>
<event>
 5    1  0.3243498E-002  0.1249998E+03  0.7818608E-02  0.1235070E+00
          4   -1    0    0  501    0  0.00000000000E+00  0.00000000000E+00  0.87038467512E+02  0.87047732462E+02  0.12700000000E+01 0.  1.
         -4   -1    0    0    0  501 -0.00000000000E+00 -0.00000000000E+00 -0.44858796303E+02  0.44876770224E+02  0.12700000000E+01 0.  1.
         25    2    1    2    0    0  0.00000000000E+00  0.00000000000E+00  0.42179671208E+02  0.13192450269E+03  0.12499979898E+03 0.  0.
    9000005    1    3    3    0    0  0.10712185337E+02  0.33608741270E+02 -0.33352106968E+02  0.48555756030E+02  0.10000000000E+01 0.  0.
    9000005    1    3    3    0    0 -0.10712185337E+02 -0.33608741270E+02  0.75531778177E+02  0.83368746656E+02  0.10000000000E+01 0.  0.
<mgrwt>
<rscale>  0 0.12499980E+03</rscale>
<asrwt>0</asrwt>
<pdfrwt beam="1">  1        4 0.13392629E-01 0.12499980E+03</pdfrwt>
<pdfrwt beam="2">  1       -4 0.69034486E-02 0.12499980E+03</pdfrwt>
<totfact> 0.10303357E+04</totfact>
</mgrwt>
</event>
<event>
 5    1  0.3243498E-002  0.1249923E+03  0.7818608E-02  0.1235081E+00
          4   -1    0    0  501    0  0.00000000000E+00  0.00000000000E+00  0.32702628233E+02  0.32727279040E+02  0.12700000000E+01 0.  1.
         -4   -1    0    0    0  501 -0.00000000000E+00 -0.00000000000E+00 -0.11935985955E+03  0.11936661582E+03  0.12700000000E+01 0.  1.
         25    2    1    2    0    0  0.00000000000E+00  0.00000000000E+00 -0.86657231321E+02  0.15209389486E+03  0.12499230822E+03 0.  0.
    9000005    1    3    3    0    0  0.48485885587E+02 -0.38156482452E+02 -0.31284433441E+02  0.69184637240E+02  0.10000000000E+01 0.  0.
    9000005    1    3    3    0    0 -0.48485885587E+02  0.38156482452E+02 -0.55372797880E+02  0.82909257621E+02  0.10000000000E+01 0.  0.
<mgrwt>
<rscale>  0 0.12499231E+03</rscale>
<asrwt>0</asrwt>
<pdfrwt beam="1">  1        4 0.50335896E-02 0.12499231E+03</pdfrwt>
<pdfrwt beam="2">  1       -4 0.18365471E-01 0.12499231E+03</pdfrwt>
<totfact> 0.98905054E+03</totfact>
</mgrwt>
</event>
<event>
 5    1  0.3243498E-002  0.1250030E+03  0.7818608E-02  0.1235065E+00
         -4   -1    0    0    0  501 -0.00000000000E+00  0.00000000000E+00  0.10474212794E+02  0.10550925725E+02  0.12700000000E+01 0.  1.
          4   -1    0    0  501    0  0.00000000000E+00 -0.00000000000E+00 -0.37151891654E+03  0.37152108722E+03  0.12700000000E+01 0.  1.
         25    2    1    2    0    0  0.00000000000E+00  0.00000000000E+00 -0.36104470375E+03  0.38207201294E+03  0.12500297985E+03 0.  0.
    9000005    1    3    3    0    0  0.30447730730E+02 -0.52300209674E+02 -0.22817440432E+03  0.23606553121E+03  0.10000000000E+01 0.  0.
    9000005    1    3    3    0    0 -0.30447730730E+02  0.52300209674E+02 -0.13287029943E+03  0.14600648174E+03  0.10000000000E+01 0.  0.
<mgrwt>
<rscale>  0 0.12500298E+03</rscale>
<asrwt>0</asrwt>
<pdfrwt beam="2">  1        4 0.57162814E-01 0.12500298E+03</pdfrwt>
<pdfrwt beam="1">  1       -4 0.16174856E-02 0.12500298E+03</pdfrwt>
<totfact> 0.66330245E+03</totfact>
</mgrwt>
</event>
<event>
 5    1  0.3243498E-002  0.1249975E+03  0.7818608E-02  0.1235073E+00
          4   -1    0    0  501    0  0.00000000000E+00  0.00000000000E+00  0.24409000206E+03  0.24409330594E+03  0.12700000000E+01 0. -1.
         -4   -1    0    0    0  501 -0.00000000000E+00 -0.00000000000E+00 -0.15974053177E+02  0.16024458646E+02  0.12700000000E+01 0. -1.
         25    2    1    2    0    0  0.00000000000E+00  0.00000000000E+00  0.22811594888E+03  0.26011776459E+03  0.12499746125E+03 0.  0.
    9000005    1    3    3    0    0 -0.51521210029E+02 -0.34608109314E+02  0.98917469901E+02  0.11678108650E+03  0.10000000000E+01 0.  0.
    9000005    1    3    3    0    0  0.51521210029E+02  0.34608109314E+02  0.12919847898E+03  0.14333667809E+03  0.10000000000E+01 0.  0.
<mgrwt>
<rscale>  0 0.12499746E+03</rscale>
<asrwt>0</asrwt>
<pdfrwt beam="1">  1        4 0.37556436E-01 0.12499746E+03</pdfrwt>
<pdfrwt beam="2">  1       -4 0.24616784E-02 0.12499746E+03</pdfrwt>
<totfact> 0.80894111E+03</totfact>
</mgrwt>
</event>
<event>
 5    1  0.3243498E-002  0.1249975E+03  0.7818608E-02  0.1235073E+00
          4   -1    0    0  501    0  0.00000000000E+00  0.00000000000E+00  0.17456448636E+03  0.17456910608E+03  0.12700000000E+01 0.  1.
         -4   -1    0    0    0  501 -0.00000000000E+00 -0.00000000000E+00 -0.22353284446E+02  0.22389332852E+02  0.12700000000E+01 0.  1.
         25    2    1    2    0    0  0.00000000000E+00  0.00000000000E+00  0.15221120191E+03  0.19695843893E+03  0.12499750669E+03 0.  0.
    9000005    1    3    3    0    0 -0.20117420257E-01  0.58435080948E+02  0.11100066554E+03  0.12544643016E+03  0.10000000000E+01 0.  0.
    9000005    1    3    3    0    0  0.20117420257E-01 -0.58435080948E+02  0.41210536371E+02  0.71512008768E+02  0.10000000000E+01 0.  0.
<mgrwt>
<rscale>  0 0.12499751E+03</rscale>
<asrwt>0</asrwt>
<pdfrwt beam="1">  1        4 0.26859204E-01 0.12499751E+03</pdfrwt>
<pdfrwt beam="2">  1       -4 0.34420950E-02 0.12499751E+03</pdfrwt>
<totfact> 0.90655525E+03</totfact>
</mgrwt>
</event>
<event>
 5    1  0.3243498E-002  0.1249899E+03  0.7818608E-02  0.1235085E+00
          4   -1    0    0  501    0  0.00000000000E+00  0.00000000000E+00  0.21924387521E+02  0.21961139956E+02  0.12700000000E+01 0.  1.
         -4   -1    0    0    0  501 -0.00000000000E+00 -0.00000000000E+00 -0.17795204180E+03  0.17795657358E+03  0.12700000000E+01 0.  1.
         25    2    1    2    0    0  0.00000000000E+00  0.00000000000E+00 -0.15602765427E+03  0.19991771353E+03  0.12498985273E+03 0.  0.
    9000005    1    3    3    0    0 -0.59536374378E+02 -0.27066086412E+01 -0.10805283191E+03  0.12340307973E+03  0.10000000000E+01 0.  0.
    9000005    1    3    3    0    0  0.59536374378E+02  0.27066086412E+01 -0.47974822366E+02  0.76514633800E+02  0.10000000000E+01 0.  0.
<mgrwt>
<rscale>  0 0.12498985E+03</rscale>
<asrwt>0</asrwt>
<pdfrwt beam="1">  1        4 0.33761585E-02 0.12498985E+03</pdfrwt>
<pdfrwt beam="2">  1       -4 0.27380412E-01 0.12498985E+03</pdfrwt>
<totfact> 0.90169860E+03</totfact>
</mgrwt>
</event>
<event>
 5    1  0.3243498E-002  0.1249963E+03  0.7818608E-02  0.1235075E+00
          4   -1    0    0  501    0  0.00000000000E+00  0.00000000000E+00  0.10748702683E+03  0.10749452933E+03  0.12700000000E+01 0.  1.
         -4   -1    0    0    0  501 -0.00000000000E+00 -0.00000000000E+00 -0.36319598168E+02  0.36341795650E+02  0.12700000000E+01 0.  1.
         25    2    1    2    0    0  0.00000000000E+00  0.00000000000E+00  0.71167428660E+02  0.14383632498E+03  0.12499634188E+03 0.  0.
    9000005    1    3    3    0    0  0.60268329811E+02  0.95534622845E+00  0.16611167037E+02  0.62530913435E+02  0.10000000000E+01 0.  0.
    9000005    1    3    3    0    0 -0.60268329811E+02 -0.95534622845E+00  0.54556261623E+02  0.81305411548E+02  0.10000000000E+01 0.  0.
<mgrwt>
<rscale>  0 0.12499634E+03</rscale>
<asrwt>0</asrwt>
<pdfrwt beam="1">  1        4 0.16538750E-01 0.12499634E+03</pdfrwt>
<pdfrwt beam="2">  1       -4 0.55899151E-02 0.12499634E+03</pdfrwt>
<totfact> 0.10055514E+04</totfact>
</mgrwt>
</event>
<event>
 5    1  0.3243498E-002  0.1250044E+03  0.7818608E-02  0.1235062E+00
          4   -1    0    0  501    0  0.00000000000E+00  0.00000000000E+00  0.61283286250E+02  0.61296444217E+02  0.12700000000E+01 0.  1.
         -4   -1    0    0    0  501 -0.00000000000E+00 -0.00000000000E+00 -0.63719049712E+02  0.63731704796E+02  0.12700000000E+01 0.  1.
         25    2    1    2    0    0  0.00000000000E+00  0.00000000000E+00 -0.24357634617E+01  0.12502814901E+03  0.12500442033E+03 0.  0.
    9000005    1    3    3    0    0  0.19714432579E+02 -0.16749960503E+02  0.55681459324E+02  0.61405577444E+02  0.10000000000E+01 0.  0.
    9000005    1    3    3    0    0 -0.19714432579E+02  0.16749960503E+02 -0.58117222786E+02  0.63622571569E+02  0.10000000000E+01 0.  0.
<mgrwt>
<rscale>  0 0.12500442E+03</rscale>
<asrwt>0</asrwt>
<pdfrwt beam="1">  1        4 0.94301835E-02 0.12500442E+03</pdfrwt>
<pdfrwt beam="2">  1       -4 0.98049163E-02 0.12500442E+03</pdfrwt>
<totfact> 0.10451207E+04</totfact>
</mgrwt>
</event>
<event>
 5    1  0.3243498E-002  0.1250001E+03  0.7818608E-02  0.1235069E+00
         -4   -1    0    0    0  501 -0.00000000000E+00  0.00000000000E+00  0.14556019205E+01  0.19317548890E+01  0.12700000000E+01 0. -1.
          4   -1    0    0  501    0  0.00000000000E+00 -0.00000000000E+00 -0.23058995728E+04  0.23058999225E+04  0.12700000000E+01 0. -1.
         25    2    1    2    0    0  0.00000000000E+00  0.00000000000E+00 -0.23044439709E+04  0.23078316774E+04  0.12500014556E+03 0.  0.
    9000005    1    3    3    0    0  0.60033809803E+02 -0.11099830987E+02 -0.90590353723E+03  0.90795896567E+03  0.10000000000E+01 0.  0.
    9000005    1    3    3    0    0 -0.60033809803E+02  0.11099830987E+02 -0.13985404336E+04  0.13998727117E+04  0.10000000000E+01 0.  0.
<mgrwt>
<rscale>  0 0.12500015E+03</rscale>
<asrwt>0</asrwt>
<pdfrwt beam="2">  1        4 0.35478792E+00 0.12500015E+03</pdfrwt>
<pdfrwt beam="1">  1       -4 0.26059466E-03 0.12500015E+03</pdfrwt>
<totfact> 0.63596958E+02</totfact>
</mgrwt>
</event>
<event>
 5    1  0.3243498E-002  0.1249996E+03  0.7818608E-02  0.1235070E+00
         -4   -1    0    0    0  501 -0.00000000000E+00  0.00000000000E+00  0.51864689660E+02  0.51880236445E+02  0.12700000000E+01 0. -1.
          4   -1    0    0  501    0  0.00000000000E+00 -0.00000000000E+00 -0.75283473713E+02  0.75294185129E+02  0.12700000000E+01 0. -1.
         25    2    1    2    0    0  0.00000000000E+00  0.00000000000E+00 -0.23418784052E+02  0.12717442157E+03  0.12499957622E+03 0.  0.
    9000005    1    3    3    0    0  0.48999532576E+02 -0.33959065890E+02 -0.30771742051E+02  0.67097484734E+02  0.10000000000E+01 0.  0.
    9000005    1    3    3    0    0 -0.48999532576E+02  0.33959065890E+02  0.73529579989E+01  0.60076936840E+02  0.10000000000E+01 0.  0.
<mgrwt>
<rscale>  0 0.12499958E+03</rscale>
<asrwt>0</asrwt>
<pdfrwt beam="2">  1        4 0.11584093E-01 0.12499958E+03</pdfrwt>
<pdfrwt beam="1">  1       -4 0.79812029E-02 0.12499958E+03</pdfrwt>
<totfact> 0.10405458E+04</totfact>
</mgrwt>
</event>
<event>
 5    1  0.3243498E-002  0.1249993E+03  0.7818608E-02  0.1235070E+00
         -4   -1    0    0    0  501 -0.00000000000E+00  0.00000000000E+00  0.59480519615E+02  0.59494076290E+02  0.12700000000E+01 0.  1.
          4   -1    0    0  501    0  0.00000000000E+00 -0.00000000000E+00 -0.65644867531E+02  0.65657151425E+02  0.12700000000E+01 0.  1.
         25    2    1    2    0    0  0.00000000000E+00  0.00000000000E+00 -0.61643479165E+01  0.12515122771E+03  0.12499932245E+03 0.  0.
    9000005    1    3    3    0    0  0.12149713858E+02 -0.38633636292E+02 -0.50732386532E+02  0.64922634290E+02  0.10000000000E+01 0.  0.
    9000005    1    3    3    0    0 -0.12149713858E+02  0.38633636292E+02  0.44568038615E+02  0.60228593425E+02  0.10000000000E+01 0.  0.
<mgrwt>
<rscale>  0 0.12499932E+03</rscale>
<asrwt>0</asrwt>
<pdfrwt beam="2">  1        4 0.10101198E-01 0.12499932E+03</pdfrwt>
<pdfrwt beam="1">  1       -4 0.91528370E-02 0.12499932E+03</pdfrwt>
<totfact> 0.10449739E+04</totfact>
</mgrwt>
</event>
<event>
 5    1  0.3243498E-002  0.1250017E+03  0.7818608E-02  0.1235067E+00
          4   -1    0    0  501    0  0.00000000000E+00  0.00000000000E+00  0.83802808450E+03  0.83802904682E+03  0.12700000000E+01 0. -1.
         -4   -1    0    0    0  501 -0.00000000000E+00 -0.00000000000E+00 -0.45738771312E+01  0.47469202659E+01  0.12700000000E+01 0. -1.
         25    2    1    2    0    0  0.00000000000E+00  0.00000000000E+00  0.83345420737E+03  0.84277596708E+03  0.12500165964E+03 0.  0.
    9000005    1    3    3    0    0  0.52323902783E+02  0.34048981274E+02  0.39738556561E+03  0.40226037797E+03  0.10000000000E+01 0.  0.
    9000005    1    3    3    0    0 -0.52323902783E+02 -0.34048981274E+02  0.43606864176E+03  0.44051558911E+03  0.10000000000E+01 0.  0.
<mgrwt>
<rscale>  0 0.12500166E+03</rscale>
<asrwt>0</asrwt>
<pdfrwt beam="1">  1        4 0.12894076E+00 0.12500166E+03</pdfrwt>
<pdfrwt beam="2">  1       -4 0.71705855E-03 0.12500166E+03</pdfrwt>
<totfact> 0.36423460E+03</totfact>
</mgrwt>
</event>
<event>
 5    1  0.3243498E-002  0.1249973E+03  0.7818608E-02  0.1235073E+00
         -4   -1    0    0    0  501 -0.00000000000E+00  0.00000000000E+00  0.19364890301E+03  0.19365306746E+03  0.12700000000E+01 0. -1.
          4   -1    0    0  501    0  0.00000000000E+00 -0.00000000000E+00 -0.20146577137E+02  0.20186566581E+02  0.12700000000E+01 0. -1.
         25    2    1    2    0    0  0.00000000000E+00  0.00000000000E+00  0.17350232588E+03  0.21383963404E+03  0.12499732799E+03 0.  0.
    9000005    1    3    3    0    0  0.69949074637E+01  0.32557786821E+02  0.17721339538E+03  0.18031784635E+03  0.10000000000E+01 0.  0.
    9000005    1    3    3    0    0 -0.69949074637E+01 -0.32557786821E+02 -0.37110695008E+01  0.33521787690E+02  0.10000000000E+01 0.  0.
<mgrwt>
<rscale>  0 0.12499733E+03</rscale>
<asrwt>0</asrwt>
<pdfrwt beam="2">  1        4 0.31028699E-02 0.12499733E+03</pdfrwt>
<pdfrwt beam="1">  1       -4 0.29795535E-01 0.12499733E+03</pdfrwt>
<totfact> 0.87857879E+03</totfact>
</mgrwt>
</event>
<event>
 5    1  0.3243498E-002  0.1249818E+03  0.7818608E-02  0.1235098E+00
          4   -1    0    0  501    0  0.00000000000E+00  0.00000000000E+00  0.60837757834E+02  0.60851012138E+02  0.12700000000E+01 0. -1.
         -4   -1    0    0    0  501 -0.00000000000E+00 -0.00000000000E+00 -0.64162415482E+02  0.64174983136E+02  0.12700000000E+01 0. -1.
         25    2    1    2    0    0  0.00000000000E+00  0.00000000000E+00 -0.33246576480E+01  0.12502599527E+03  0.12498178326E+03 0.  0.
    9000005    1    3    3    0    0  0.61835040002E+02  0.89661627866E+01 -0.20462474630E+01  0.62523206698E+02  0.10000000000E+01 0.  0.
    9000005    1    3    3    0    0 -0.61835040002E+02 -0.89661627866E+01 -0.12784101850E+01  0.62502788576E+02  0.10000000000E+01 0.  0.
<mgrwt>
<rscale>  0 0.12498178E+03</rscale>
<asrwt>0</asrwt>
<pdfrwt beam="1">  1        4 0.93616413E-02 0.12498178E+03</pdfrwt>
<pdfrwt beam="2">  1       -4 0.98731272E-02 0.12498178E+03</pdfrwt>
<totfact> 0.10456602E+04</totfact>
</mgrwt>
</event>
<event>
 5    1  0.3243498E-002  0.1250014E+03  0.7818608E-02  0.1235067E+00
          4   -1    0    0  501    0  0.00000000000E+00  0.00000000000E+00  0.37998105061E+02  0.38019322564E+02  0.12700000000E+01 0. -1.
         -4   -1    0    0    0  501 -0.00000000000E+00 -0.00000000000E+00 -0.10274966705E+03  0.10275751544E+03  0.12700000000E+01 0. -1.
         25    2    1    2    0    0  0.00000000000E+00  0.00000000000E+00 -0.64751561988E+02  0.14077683800E+03  0.12500141334E+03 0.  0.
    9000005    1    3    3    0    0  0.39228510396E+02 -0.47629159497E+02 -0.43520371608E+02  0.75514472833E+02  0.10000000000E+01 0.  0.
    9000005    1    3    3    0    0 -0.39228510396E+02  0.47629159497E+02 -0.21231190380E+02  0.65262365168E+02  0.10000000000E+01 0.  0.
<mgrwt>
<rscale>  0 0.12500141E+03</rscale>
<asrwt>0</asrwt>
<pdfrwt beam="1">  1        4 0.58480982E-02 0.12500141E+03</pdfrwt>
<pdfrwt beam="2">  1       -4 0.15809877E-01 0.12500141E+03</pdfrwt>
<totfact> 0.10117189E+04</totfact>
</mgrwt>
</event>
<event>
 5    1  0.3243498E-002  0.1249973E+03  0.7818608E-02  0.1235073E+00
          4   -1    0    0  501    0  0.00000000000E+00  0.00000000000E+00  0.29283661654E+01  0.31919004368E+01  0.12700000000E+01 0. -1.
         -4   -1    0    0    0  501 -0.00000000000E+00 -0.00000000000E+00 -0.12761779152E+04  0.12761785471E+04  0.12700000000E+01 0. -1.
         25    2    1    2    0    0  0.00000000000E+00  0.00000000000E+00 -0.12732495490E+04  0.12793704475E+04  0.12499731189E+03 0.  0.
    9000005    1    3    3    0    0 -0.53603769441E+02  0.20601925119E+01 -0.30854386766E+03  0.31317395607E+03  0.10000000000E+01 0.  0.
    9000005    1    3    3    0    0  0.53603769441E+02 -0.20601925119E+01 -0.96470568136E+03  0.96619649147E+03  0.10000000000E+01 0.  0.
<mgrwt>
<rscale>  0 0.12499731E+03</rscale>
<asrwt>0</asrwt>
<pdfrwt beam="1">  1        4 0.47083937E-03 0.12499731E+03</pdfrwt>
<pdfrwt beam="2">  1       -4 0.19635496E+00 0.12499731E+03</pdfrwt>
<totfact> 0.22722106E+03</totfact>
</mgrwt>
</event>
<event>
 5    1  0.3243498E-002  0.1249997E+03  0.7818608E-02  0.1235070E+00
          4   -1    0    0  501    0  0.00000000000E+00  0.00000000000E+00  0.14504797620E+03  0.14505353597E+03  0.12700000000E+01 0.  1.
         -4   -1    0    0    0  501 -0.00000000000E+00 -0.00000000000E+00 -0.26909544930E+02  0.26939497181E+02  0.12700000000E+01 0.  1.
         25    2    1    2    0    0  0.00000000000E+00  0.00000000000E+00  0.11813843127E+03  0.17199303316E+03  0.12499965805E+03 0.  0.
    9000005    1    3    3    0    0  0.48662840069E+01 -0.53427294960E+02  0.10316554993E+03  0.11628536993E+03  0.10000000000E+01 0.  0.
    9000005    1    3    3    0    0 -0.48662840069E+01  0.53427294960E+02  0.14972881336E+02  0.55707663228E+02  0.10000000000E+01 0.  0.
<mgrwt>
<rscale>  0 0.12499966E+03</rscale>
<asrwt>0</asrwt>
<pdfrwt beam="1">  1        4 0.22317805E-01 0.12499966E+03</pdfrwt>
<pdfrwt beam="2">  1       -4 0.41426617E-02 0.12499966E+03</pdfrwt>
<totfact> 0.95079192E+03</totfact>
</mgrwt>
</event>
<event>
 5    1  0.3243498E-002  0.1250004E+03  0.7818608E-02  0.1235069E+00
         -4   -1    0    0    0  501 -0.00000000000E+00  0.00000000000E+00  0.67224953525E+02  0.67236948744E+02  0.12700000000E+01 0.  1.
          4   -1    0    0  501    0  0.00000000000E+00 -0.00000000000E+00 -0.58083371467E+02  0.58097254160E+02  0.12700000000E+01 0.  1.
         25    2    1    2    0    0  0.00000000000E+00  0.00000000000E+00  0.91415820577E+01  0.12533420290E+03  0.12500037558E+03 0.  0.
    9000005    1    3    3    0    0  0.54825699741E+02  0.43226828876E+01 -0.25185569509E+02  0.60496742482E+02  0.10000000000E+01 0.  0.
    9000005    1    3    3    0    0 -0.54825699741E+02 -0.43226828876E+01  0.34327151567E+02  0.64837460423E+02  0.10000000000E+01 0.  0.
<mgrwt>
<rscale>  0 0.12500038E+03</rscale>
<asrwt>0</asrwt>
<pdfrwt beam="2">  1        4 0.89378939E-02 0.12500038E+03</pdfrwt>
<pdfrwt beam="1">  1       -4 0.10344291E-01 0.12500038E+03</pdfrwt>
<totfact> 0.10445519E+04</totfact>
</mgrwt>
</event>
<event>
 5    1  0.3243498E-002  0.1250017E+03  0.7818608E-02  0.1235067E+00
         -4   -1    0    0    0  501 -0.00000000000E+00  0.00000000000E+00  0.10496117818E+04  0.10496125501E+04  0.12700000000E+01 0. -1.
          4   -1    0    0  501    0  0.00000000000E+00 -0.00000000000E+00 -0.36125817600E+01  0.38293141648E+01  0.12700000000E+01 0. -1.
         25    2    1    2    0    0  0.00000000000E+00  0.00000000000E+00  0.10459992000E+04  0.10534418643E+04  0.12500173986E+03 0.  0.
    9000005    1    3    3    0    0 -0.19046352609E+01  0.58093907277E+02  0.32956713327E+03  0.33465508368E+03  0.10000000000E+01 0.  0.
    9000005    1    3    3    0    0  0.19046352609E+01 -0.58093907277E+02  0.71643206674E+03  0.71878678059E+03  0.10000000000E+01 0.  0.
<mgrwt>
<rscale>  0 0.12500174E+03</rscale>
<asrwt>0</asrwt>
<pdfrwt beam="2">  1        4 0.57251324E-03 0.12500174E+03</pdfrwt>
<pdfrwt beam="1">  1       -4 0.16149530E+00 0.12500174E+03</pdfrwt>
<totfact> 0.28886479E+03</totfact>
</mgrwt>
</event>
<event>
 5    1  0.3243498E-002  0.1249889E+03  0.7818608E-02  0.1235087E+00
          4   -1    0    0  501    0  0.00000000000E+00  0.00000000000E+00  0.17360173200E+03  0.17360637734E+03  0.12700000000E+01 0. -1.
         -4   -1    0    0    0  501 -0.00000000000E+00 -0.00000000000E+00 -0.22474333894E+02  0.22510188449E+02  0.12700000000E+01 0. -1.
         25    2    1    2    0    0  0.00000000000E+00  0.00000000000E+00  0.15112739811E+03  0.19611656579E+03  0.12498886718E+03 0.  0.
    9000005    1    3    3    0    0 -0.50859517131E+01  0.34208722278E+02  0.15722257750E+03  0.16098460318E+03  0.10000000000E+01 0.  0.
    9000005    1    3    3    0    0  0.50859517131E+01 -0.34208722278E+02 -0.60951793979E+01  0.35131962607E+02  0.10000000000E+01 0.  0.
<mgrwt>
<rscale>  0 0.12498887E+03</rscale>
<asrwt>0</asrwt>
<pdfrwt beam="1">  1        4 0.26711075E-01 0.12498887E+03</pdfrwt>
<pdfrwt beam="2">  1       -4 0.34607051E-02 0.12498887E+03</pdfrwt>
<totfact> 0.90816440E+03</totfact>
</mgrwt>
</event>
<event>
 5    1  0.3243498E-002  0.1249975E+03  0.7818608E-02  0.1235073E+00
          4   -1    0    0  501    0  0.00000000000E+00  0.00000000000E+00  0.13239120794E+03  0.13239729922E+03  0.12700000000E+01 0.  1.
         -4   -1    0    0    0  501 -0.00000000000E+00 -0.00000000000E+00 -0.29483729922E+02  0.29511069620E+02  0.12700000000E+01 0.  1.
         25    2    1    2    0    0  0.00000000000E+00  0.00000000000E+00  0.10290747802E+03  0.16190836884E+03  0.12499748344E+03 0.  0.
    9000005    1    3    3    0    0  0.34553981417E+02  0.21738929008E+02  0.11273813080E+03  0.11990598318E+03  0.10000000000E+01 0.  0.
    9000005    1    3    3    0    0 -0.34553981417E+02 -0.21738929008E+02 -0.98306527868E+01  0.42002385652E+02  0.10000000000E+01 0.  0.
<mgrwt>
<rscale>  0 0.12499748E+03</rscale>
<asrwt>0</asrwt>
<pdfrwt beam="1">  1        4 0.20370450E-01 0.12499748E+03</pdfrwt>
<pdfrwt beam="2">  1       -4 0.45385300E-02 0.12499748E+03</pdfrwt>
<totfact> 0.96981607E+03</totfact>
</mgrwt>
</event>
<event>
 5    1  0.3243498E-002  0.1249998E+03  0.7818608E-02  0.1235070E+00
         -4   -1    0    0    0  501 -0.00000000000E+00  0.00000000000E+00  0.68582543450E+02  0.68594301265E+02  0.12700000000E+01 0. -1.
          4   -1    0    0  501    0  0.00000000000E+00 -0.00000000000E+00 -0.56933022033E+02  0.56947185162E+02  0.12700000000E+01 0. -1.
         25    2    1    2    0    0  0.00000000000E+00  0.00000000000E+00  0.11649521417E+02  0.12554148643E+03  0.12499981386E+03 0.  0.
    9000005    1    3    3    0    0 -0.24234353987E+02 -0.57541662011E+02  0.84613197000E+01  0.63015400588E+02  0.10000000000E+01 0.  0.
    9000005    1    3    3    0    0  0.24234353987E+02  0.57541662011E+02  0.31882017166E+01  0.62526085839E+02  0.10000000000E+01 0.  0.
<mgrwt>
<rscale>  0 0.12499981E+03</rscale>
<asrwt>0</asrwt>
<pdfrwt beam="2">  1        4 0.87609204E-02 0.12499981E+03</pdfrwt>
<pdfrwt beam="1">  1       -4 0.10553154E-01 0.12499981E+03</pdfrwt>
<totfact> 0.10441082E+04</totfact>
</mgrwt>
</event>
<event>
 5    1  0.3243498E-002  0.1250051E+03  0.7818608E-02  0.1235061E+00
         -4   -1    0    0    0  501 -0.00000000000E+00  0.00000000000E+00  0.12818869875E+03  0.12819498971E+03  0.12700000000E+01 0.  1.
          4   -1    0    0  501    0  0.00000000000E+00 -0.00000000000E+00 -0.30454867480E+02  0.30481336146E+02  0.12700000000E+01 0.  1.
         25    2    1    2    0    0  0.00000000000E+00  0.00000000000E+00  0.97733831271E+02  0.15867632586E+03  0.12500509835E+03 0.  0.
    9000005    1    3    3    0    0 -0.80863930959E+01  0.56268209465E+02  0.15910793397E+02  0.59039431706E+02  0.10000000000E+01 0.  0.
    9000005    1    3    3    0    0  0.80863930959E+01 -0.56268209465E+02  0.81823037874E+02  0.99636894154E+02  0.10000000000E+01 0.  0.
<mgrwt>
<rscale>  0 0.12500510E+03</rscale>
<asrwt>0</asrwt>
<pdfrwt beam="2">  1        4 0.46878841E-02 0.12500510E+03</pdfrwt>
<pdfrwt beam="1">  1       -4 0.19723859E-01 0.12500510E+03</pdfrwt>
<totfact> 0.97587401E+03</totfact>
</mgrwt>
</event>
<event>
 5    1  0.3243498E-002  0.1250189E+03  0.7818608E-02  0.1235040E+00
          4   -1    0    0  501    0  0.00000000000E+00  0.00000000000E+00  0.52429621622E+02  0.52445000939E+02  0.12700000000E+01 0.  1.
         -4   -1    0    0    0  501 -0.00000000000E+00 -0.00000000000E+00 -0.74495442848E+02  0.74506267556E+02  0.12700000000E+01 0.  1.
         25    2    1    2    0    0  0.00000000000E+00  0.00000000000E+00 -0.22065821226E+02  0.12695126849E+03  0.12501889500E+03 0.  0.
    9000005    1    3    3    0    0  0.65737614670E+01  0.53332582861E+02  0.21379923170E+02  0.57841852055E+02  0.10000000000E+01 0.  0.
    9000005    1    3    3    0    0 -0.65737614670E+01 -0.53332582861E+02 -0.43445744396E+02  0.69109416439E+02  0.10000000000E+01 0.  0.
<mgrwt>
<rscale>  0 0.12501889E+03</rscale>
<asrwt>0</asrwt>
<pdfrwt beam="1">  1        4 0.80681113E-02 0.12501889E+03</pdfrwt>
<pdfrwt beam="2">  1       -4 0.11462853E-01 0.12501889E+03</pdfrwt>
<totfact> 0.10405766E+04</totfact>
</mgrwt>
</event>
<event>
 5    1  0.3243498E-002  0.1250030E+03  0.7818608E-02  0.1235065E+00
          4   -1    0    0  501    0  0.00000000000E+00  0.00000000000E+00  0.12145285030E+02  0.12211504758E+02  0.12700000000E+01 0.  1.
         -4   -1    0    0    0  501 -0.00000000000E+00 -0.00000000000E+00 -0.32070024672E+03  0.32070276136E+03  0.12700000000E+01 0.  1.
         25    2    1    2    0    0  0.00000000000E+00  0.00000000000E+00 -0.30855496169E+03  0.33291426612E+03  0.12500297678E+03 0.  0.
    9000005    1    3    3    0    0 -0.11795716554E+02  0.52156960332E+02 -0.24041001489E+03  0.24628735798E+03  0.10000000000E+01 0.  0.
    9000005    1    3    3    0    0  0.11795716554E+02 -0.52156960332E+02 -0.68144946794E+02  0.86626908138E+02  0.10000000000E+01 0.  0.
<mgrwt>
<rscale>  0 0.12500298E+03</rscale>
<asrwt>0</asrwt>
<pdfrwt beam="1">  1        4 0.18737929E-02 0.12500298E+03</pdfrwt>
<pdfrwt beam="2">  1       -4 0.49343780E-01 0.12500298E+03</pdfrwt>
<totfact> 0.71641300E+03</totfact>
</mgrwt>
</event>
<event>
 5    1  0.3243498E-002  0.1249973E+03  0.7818608E-02  0.1235074E+00
          4   -1    0    0  501    0  0.00000000000E+00  0.00000000000E+00  0.95681006056E+01  0.96520178822E+01  0.12700000000E+01 0. -1.
         -4   -1    0    0    0  501 -0.00000000000E+00 -0.00000000000E+00 -0.40637246197E+03  0.40637444648E+03  0.12700000000E+01 0. -1.
         25    2    1    2    0    0  0.00000000000E+00  0.00000000000E+00 -0.39680436137E+03  0.41602646436E+03  0.12499727136E+03 0.  0.
    9000005    1    3    3    0    0 -0.47447131092E+02  0.30727684551E+02 -0.10973862069E+03  0.12344628677E+03  0.10000000000E+01 0.  0.
    9000005    1    3    3    0    0  0.47447131092E+02 -0.30727684551E+02 -0.28706574068E+03  0.29258017759E+03  0.10000000000E+01 0.  0.
<mgrwt>
<rscale>  0 0.12499727E+03</rscale>
<asrwt>0</asrwt>
<pdfrwt beam="1">  1        4 0.14786236E-02 0.12499727E+03</pdfrwt>
<pdfrwt beam="2">  1       -4 0.62525435E-01 0.12499727E+03</pdfrwt>
<totfact> 0.63027160E+03</totfact>
</mgrwt>
</event>
<event>
 5    1  0.3243498E-002  0.1250020E+03  0.7818608E-02  0.1235066E+00
          4   -1    0    0  501    0  0.00000000000E+00  0.00000000000E+00  0.24064129999E+02  0.24097619231E+02  0.12700000000E+01 0.  1.
         -4   -1    0    0    0  501 -0.00000000000E+00 -0.00000000000E+00 -0.16218293374E+03  0.16218790614E+03  0.12700000000E+01 0.  1.
         25    2    1    2    0    0  0.00000000000E+00  0.00000000000E+00 -0.13811880374E+03  0.18628552537E+03  0.12500197204E+03 0.  0.
    9000005    1    3    3    0    0  0.48298242350E+02  0.38335655052E+02 -0.84186141881E+02  0.10435827302E+03  0.10000000000E+01 0.  0.
    9000005    1    3    3    0    0 -0.48298242350E+02 -0.38335655052E+02 -0.53932661862E+02  0.81927252351E+02  0.10000000000E+01 0.  0.
<mgrwt>
<rscale>  0 0.12500197E+03</rscale>
<asrwt>0</asrwt>
<pdfrwt beam="1">  1        4 0.37051325E-02 0.12500197E+03</pdfrwt>
<pdfrwt beam="2">  1       -4 0.24954179E-01 0.12500197E+03</pdfrwt>
<totfact> 0.92493581E+03</totfact>
</mgrwt>
</event>
<event>
 5    1  0.3243498E-002  0.1250250E+03  0.7818608E-02  0.1235030E+00
         -4   -1    0    0    0  501 -0.00000000000E+00  0.00000000000E+00  0.52824849936E+02  0.52840114220E+02  0.12700000000E+01 0. -1.
          4   -1    0    0  501    0  0.00000000000E+00 -0.00000000000E+00 -0.73945414947E+02  0.73956320161E+02  0.12700000000E+01 0. -1.
         25    2    1    2    0    0  0.00000000000E+00  0.00000000000E+00 -0.21120565011E+02  0.12679643438E+03  0.12502502752E+03 0.  0.
    9000005    1    3    3    0    0  0.61525251749E+02 -0.17199439895E+01 -0.21600266978E+02  0.65237154625E+02  0.10000000000E+01 0.  0.
    9000005    1    3    3    0    0 -0.61525251749E+02  0.17199439895E+01  0.47970196761E+00  0.61559279756E+02  0.10000000000E+01 0.  0.
<mgrwt>
<rscale>  0 0.12502503E+03</rscale>
<asrwt>0</asrwt>
<pdfrwt beam="2">  1        4 0.11378231E-01 0.12502503E+03</pdfrwt>
<pdfrwt beam="1">  1       -4 0.81289130E-02 0.12502503E+03</pdfrwt>
<totfact> 0.10407691E+04</totfact>
</mgrwt>
</event>
<event>
 5    1  0.3243498E-002  0.1250035E+03  0.7818608E-02  0.1235064E+00
         -4   -1    0    0    0  501 -0.00000000000E+00  0.00000000000E+00  0.10961233103E+03  0.10961968808E+03  0.12700000000E+01 0. -1.
          4   -1    0    0  501    0  0.00000000000E+00 -0.00000000000E+00 -0.35619090153E+02  0.35641723911E+02  0.12700000000E+01 0. -1.
         25    2    1    2    0    0  0.00000000000E+00  0.00000000000E+00  0.73993240880E+02  0.14526141199E+03  0.12500351242E+03 0.  0.
    9000005    1    3    3    0    0 -0.25591817110E+02  0.14809048428E+02 -0.26982285698E+02  0.40041138344E+02  0.10000000000E+01 0.  0.
    9000005    1    3    3    0    0  0.25591817110E+02 -0.14809048428E+02  0.10097552658E+03  0.10522027365E+03  0.10000000000E+01 0.  0.
<mgrwt>
<rscale>  0 0.12500351E+03</rscale>
<asrwt>0</asrwt>
<pdfrwt beam="2">  1        4 0.54821671E-02 0.12500351E+03</pdfrwt>
<pdfrwt beam="1">  1       -4 0.16865742E-01 0.12500351E+03</pdfrwt>
<totfact> 0.10024887E+04</totfact>
</mgrwt>
</event>
<event>
 5    1  0.3243498E-002  0.1250008E+03  0.7818608E-02  0.1235068E+00
          4   -1    0    0  501    0  0.00000000000E+00  0.00000000000E+00  0.11607132142E+02  0.11676404265E+02  0.12700000000E+01 0.  1.
         -4   -1    0    0    0  501 -0.00000000000E+00 -0.00000000000E+00 -0.33547131244E+03  0.33547371636E+03  0.12700000000E+01 0.  1.
         25    2    1    2    0    0  0.00000000000E+00  0.00000000000E+00 -0.32386418030E+03  0.34715012063E+03  0.12500079589E+03 0.  0.
    9000005    1    3    3    0    0  0.16424342867E+02  0.46976706132E+02 -0.26690556939E+03  0.27150718762E+03  0.10000000000E+01 0.  0.
    9000005    1    3    3    0    0 -0.16424342867E+02 -0.46976706132E+02 -0.56958610909E+02  0.75642933009E+02  0.10000000000E+01 0.  0.
<mgrwt>
<rscale>  0 0.12500080E+03</rscale>
<asrwt>0</asrwt>
<pdfrwt beam="1">  1        4 0.17912264E-02 0.12500080E+03</pdfrwt>
<pdfrwt beam="2">  1       -4 0.51616477E-01 0.12500080E+03</pdfrwt>
<totfact> 0.70037989E+03</totfact>
</mgrwt>
</event>
<event>
 5    1  0.3243498E-002  0.1250020E+03  0.7818608E-02  0.1235066E+00
          4   -1    0    0  501    0  0.00000000000E+00  0.00000000000E+00  0.15368536539E+03  0.15369061271E+03  0.12700000000E+01 0.  1.
         -4   -1    0    0    0  501 -0.00000000000E+00 -0.00000000000E+00 -0.25396434032E+02  0.25428168663E+02  0.12700000000E+01 0.  1.
         25    2    1    2    0    0  0.00000000000E+00  0.00000000000E+00  0.12828893136E+03  0.17911878137E+03  0.12500195171E+03 0.  0.
    9000005    1    3    3    0    0 -0.45210529634E+01 -0.55439764024E+02  0.10496064668E+03  0.11879286471E+03  0.10000000000E+01 0.  0.
    9000005    1    3    3    0    0  0.45210529634E+01  0.55439764024E+02  0.23328284677E+02  0.60325916660E+02  0.10000000000E+01 0.  0.
<mgrwt>
<rscale>  0 0.12500195E+03</rscale>
<asrwt>0</asrwt>
<pdfrwt beam="1">  1        4 0.23646747E-01 0.12500195E+03</pdfrwt>
<pdfrwt beam="2">  1       -4 0.39099885E-02 0.12500195E+03</pdfrwt>
<totfact> 0.93771762E+03</totfact>
</mgrwt>
</event>
<event>
 5    1  0.3243498E-002  0.1250018E+03  0.7818608E-02  0.1235066E+00
         -4   -1    0    0    0  501 -0.00000000000E+00  0.00000000000E+00  0.69169071113E+03  0.69169187704E+03  0.12700000000E+01 0.  1.
          4   -1    0    0  501    0  0.00000000000E+00 -0.00000000000E+00 -0.55749768779E+01  0.57178026539E+01  0.12700000000E+01 0.  1.
         25    2    1    2    0    0  0.00000000000E+00  0.00000000000E+00  0.68611573425E+03  0.69740967970E+03  0.12500184216E+03 0.  0.
    9000005    1    3    3    0    0  0.51823017522E+02  0.13244455173E+02  0.16276054777E+03  0.17132727935E+03  0.10000000000E+01 0.  0.
    9000005    1    3    3    0    0 -0.51823017522E+02 -0.13244455173E+02  0.52335518648E+03  0.52608240035E+03  0.10000000000E+01 0.  0.
<mgrwt>
<rscale>  0 0.12500184E+03</rscale>
<asrwt>0</asrwt>
<pdfrwt beam="2">  1        4 0.86876495E-03 0.12500184E+03</pdfrwt>
<pdfrwt beam="1">  1       -4 0.10642504E+00 0.12500184E+03</pdfrwt>
<totfact> 0.43222034E+03</totfact>
</mgrwt>
</event>
<event>
 5    1  0.3243498E-002  0.1249980E+03  0.7818608E-02  0.1235072E+00
          4   -1    0    0  501    0  0.00000000000E+00  0.00000000000E+00  0.69658527859E+02  0.69670104087E+02  0.12700000000E+01 0.  1.
         -4   -1    0    0    0  501 -0.00000000000E+00 -0.00000000000E+00 -0.56051862748E+02  0.56066248470E+02  0.12700000000E+01 0.  1.
         25    2    1    2    0    0  0.00000000000E+00  0.00000000000E+00  0.13606665111E+02  0.12573635256E+03  0.12499795606E+03 0.  0.
    9000005    1    3    3    0    0  0.47034618971E+02  0.38667052103E+02  0.20947903778E+02  0.64398842946E+02  0.10000000000E+01 0.  0.
    9000005    1    3    3    0    0 -0.47034618971E+02 -0.38667052103E+02 -0.73412386676E+01  0.61337509611E+02  0.10000000000E+01 0.  0.
<mgrwt>
<rscale>  0 0.12499796E+03</rscale>
<asrwt>0</asrwt>
<pdfrwt beam="1">  1        4 0.10718694E-01 0.12499796E+03</pdfrwt>
<pdfrwt beam="2">  1       -4 0.86253607E-02 0.12499796E+03</pdfrwt>
<totfact> 0.10437226E+04</totfact>
</mgrwt>
</event>
<event>
 5    1  0.3243498E-002  0.1250005E+03  0.7818608E-02  0.1235069E+00
         -4   -1    0    0    0  501 -0.00000000000E+00  0.00000000000E+00  0.17415465609E+03  0.17415928668E+03  0.12700000000E+01 0.  1.
          4   -1    0    0  501    0  0.00000000000E+00 -0.00000000000E+00 -0.22407036658E+02  0.22442998726E+02  0.12700000000E+01 0.  1.
         25    2    1    2    0    0  0.00000000000E+00  0.00000000000E+00  0.15174761943E+03  0.19660228541E+03  0.12500047450E+03 0.  0.
    9000005    1    3    3    0    0  0.46005655274E+02 -0.14538999671E+01  0.93930311296E+01  0.46987904572E+02  0.10000000000E+01 0.  0.
    9000005    1    3    3    0    0 -0.46005655274E+02  0.14538999671E+01  0.14235458830E+03  0.14961438083E+03  0.10000000000E+01 0.  0.
<mgrwt>
<rscale>  0 0.12500047E+03</rscale>
<asrwt>0</asrwt>
<pdfrwt beam="2">  1        4 0.34503590E-02 0.12500047E+03</pdfrwt>
<pdfrwt beam="1">  1       -4 0.26796146E-01 0.12500047E+03</pdfrwt>
<totfact> 0.90710096E+03</totfact>
</mgrwt>
</event>
<event>
 5    1  0.3243498E-002  0.1249961E+03  0.7818608E-02  0.1235075E+00
         -4   -1    0    0    0  501 -0.00000000000E+00  0.00000000000E+00  0.35584313487E+01  0.37782712533E+01  0.12700000000E+01 0. -1.
          4   -1    0    0  501    0  0.00000000000E+00 -0.00000000000E+00 -0.10645647405E+04  0.10645654980E+04  0.12700000000E+01 0. -1.
         25    2    1    2    0    0  0.00000000000E+00  0.00000000000E+00 -0.10610063091E+04  0.10683437693E+04  0.12499608525E+03 0.  0.
    9000005    1    3    3    0    0 -0.55130502495E+02  0.23871010825E+02 -0.38350243144E+03  0.38818077282E+03  0.10000000000E+01 0.  0.
    9000005    1    3    3    0    0  0.55130502495E+02 -0.23871010825E+02 -0.67750387770E+03  0.68016299647E+03  0.10000000000E+01 0.  0.
<mgrwt>
<rscale>  0 0.12499609E+03</rscale>
<asrwt>0</asrwt>
<pdfrwt beam="2">  1        4 0.16379591E+00 0.12499609E+03</pdfrwt>
<pdfrwt beam="1">  1       -4 0.56442086E-03 0.12499609E+03</pdfrwt>
<totfact> 0.28431326E+03</totfact>
</mgrwt>
</event>
<event>
 5    1  0.3243498E-002  0.1250015E+03  0.7818608E-02  0.1235067E+00
         -4   -1    0    0    0  501 -0.00000000000E+00  0.00000000000E+00  0.30735936944E+01  0.33256395172E+01  0.12700000000E+01 0. -1.
          4   -1    0    0  501    0  0.00000000000E+00 -0.00000000000E+00 -0.12206267675E+04  0.12206274281E+04  0.12700000000E+01 0. -1.
         25    2    1    2    0    0  0.00000000000E+00  0.00000000000E+00 -0.12175531738E+04  0.12239530677E+04  0.12500152356E+03 0.  0.
    9000005    1    3    3    0    0  0.31600227831E+02  0.48706312196E+02 -0.83514169764E+03  0.83715801040E+03  0.10000000000E+01 0.  0.
    9000005    1    3    3    0    0 -0.31600227831E+02 -0.48706312196E+02 -0.38241147612E+03  0.38679505725E+03  0.10000000000E+01 0.  0.
<mgrwt>
<rscale>  0 0.12500152E+03</rscale>
<asrwt>0</asrwt>
<pdfrwt beam="2">  1        4 0.18780780E+00 0.12500152E+03</pdfrwt>
<pdfrwt beam="1">  1       -4 0.49230051E-03 0.12500152E+03</pdfrwt>
<totfact> 0.24093516E+03</totfact>
</mgrwt>
</event>
<event>
 5    1  0.3243498E-002  0.1249991E+03  0.7818608E-02  0.1235071E+00
         -4   -1    0    0    0  501 -0.00000000000E+00  0.00000000000E+00  0.14499970380E+02  0.14555481477E+02  0.12700000000E+01 0.  1.
          4   -1    0    0  501    0  0.00000000000E+00 -0.00000000000E+00 -0.26882137125E+03  0.26882437118E+03  0.12700000000E+01 0.  1.
         25    2    1    2    0    0  0.00000000000E+00  0.00000000000E+00 -0.25432140087E+03  0.28337985266E+03  0.12499906380E+03 0.  0.
    9000005    1    3    3    0    0  0.54816379116E+02  0.85917526459E+01 -0.19233758301E+03  0.20018341458E+03  0.10000000000E+01 0.  0.
    9000005    1    3    3    0    0 -0.54816379116E+02 -0.85917526459E+01 -0.61983817858E+02  0.83196438080E+02  0.10000000000E+01 0.  0.
<mgrwt>
<rscale>  0 0.12499906E+03</rscale>
<asrwt>0</asrwt>
<pdfrwt beam="2">  1        4 0.41361631E-01 0.12499906E+03</pdfrwt>
<pdfrwt beam="1">  1       -4 0.22352657E-02 0.12499906E+03</pdfrwt>
<totfact> 0.77733704E+03</totfact>
</mgrwt>
</event>
<event>
 5    1  0.3243498E-002  0.1250007E+03  0.7818608E-02  0.1235068E+00
         -4   -1    0    0    0  501 -0.00000000000E+00  0.00000000000E+00  0.70733861133E+02  0.70745261402E+02  0.12700000000E+01 0.  1.
          4   -1    0    0  501    0  0.00000000000E+00 -0.00000000000E+00 -0.55202113251E+02  0.55216720360E+02  0.12700000000E+01 0.  1.
         25    2    1    2    0    0  0.00000000000E+00  0.00000000000E+00  0.15531747882E+02  0.12596198176E+03  0.12500074263E+03 0.  0.
    9000005    1    3    3    0    0  0.44206019390E+02 -0.25689204689E+02 -0.28443565775E+02  0.58516184272E+02  0.10000000000E+01 0.  0.
    9000005    1    3    3    0    0 -0.44206019390E+02  0.25689204689E+02  0.43975313657E+02  0.67445797490E+02  0.10000000000E+01 0.  0.
<mgrwt>
<rscale>  0 0.12500074E+03</rscale>
<asrwt>0</asrwt>
<pdfrwt beam="2">  1        4 0.84946334E-02 0.12500074E+03</pdfrwt>
<pdfrwt beam="1">  1       -4 0.10884133E-01 0.12500074E+03</pdfrwt>
<totfact> 0.10431615E+04</totfact>
</mgrwt>
</event>
<event>
 5    1  0.3243498E-002  0.1250040E+03  0.7818608E-02  0.1235063E+00
         -4   -1    0    0    0  501 -0.00000000000E+00  0.00000000000E+00  0.36627829018E+02  0.36649839816E+02  0.12700000000E+01 0.  1.
          4   -1    0    0  501    0  0.00000000000E+00 -0.00000000000E+00 -0.10659602066E+03  0.10660358587E+03  0.12700000000E+01 0.  1.
         25    2    1    2    0    0  0.00000000000E+00  0.00000000000E+00 -0.69968191641E+02  0.14325342569E+03  0.12500398445E+03 0.  0.
    9000005    1    3    3    0    0  0.23188599617E+02 -0.31408759977E+02  0.20938352960E+02  0.44312932425E+02  0.10000000000E+01 0.  0.
    9000005    1    3    3    0    0 -0.23188599617E+02  0.31408759977E+02 -0.90906544601E+02  0.98940493261E+02  0.10000000000E+01 0.  0.
<mgrwt>
<rscale>  0 0.12500398E+03</rscale>
<asrwt>0</asrwt>
<pdfrwt beam="2">  1        4 0.16401663E-01 0.12500398E+03</pdfrwt>
<pdfrwt beam="1">  1       -4 0.56373257E-02 0.12500398E+03</pdfrwt>
<totfact> 0.10065693E+04</totfact>
</mgrwt>
</event>
<event>
 5    1  0.3243498E-002  0.1250012E+03  0.7818608E-02  0.1235067E+00
         -4   -1    0    0    0  501 -0.00000000000E+00  0.00000000000E+00  0.22015038092E+03  0.22015404407E+03  0.12700000000E+01 0. -1.
          4   -1    0    0  501    0  0.00000000000E+00 -0.00000000000E+00 -0.17717352988E+02  0.17762812190E+02  0.12700000000E+01 0. -1.
         25    2    1    2    0    0  0.00000000000E+00  0.00000000000E+00  0.20243302793E+03  0.23791685626E+03  0.12500119877E+03 0.  0.
    9000005    1    3    3    0    0  0.10853943968E+02  0.50437446223E+02  0.34097116963E+02  0.61849474261E+02  0.10000000000E+01 0.  0.
    9000005    1    3    3    0    0 -0.10853943968E+02 -0.50437446223E+02  0.16833591097E+03  0.17606738200E+03  0.10000000000E+01 0.  0.
<mgrwt>
<rscale>  0 0.12500120E+03</rscale>
<asrwt>0</asrwt>
<pdfrwt beam="2">  1        4 0.27295254E-02 0.12500120E+03</pdfrwt>
<pdfrwt beam="1">  1       -4 0.33873067E-01 0.12500120E+03</pdfrwt>
<totfact> 0.84106348E+03</totfact>
</mgrwt>
</event>
<event>
 5    1  0.3243498E-002  0.1250032E+03  0.7818608E-02  0.1235064E+00
         -4   -1    0    0    0  501 -0.00000000000E+00  0.00000000000E+00  0.24473869370E+03  0.24474198882E+03  0.12700000000E+01 0. -1.
          4   -1    0    0  501    0  0.00000000000E+00 -0.00000000000E+00 -0.15933039370E+02  0.15983574180E+02  0.12700000000E+01 0. -1.
         25    2    1    2    0    0  0.00000000000E+00  0.00000000000E+00  0.22880565433E+03  0.26072556300E+03  0.12500316696E+03 0.  0.
    9000005    1    3    3    0    0  0.98450206413E+01 -0.24998112101E+01 -0.14210012899E+02  0.17495655292E+02  0.10000000000E+01 0.  0.
    9000005    1    3    3    0    0 -0.98450206413E+01  0.24998112101E+01  0.24301566722E+03  0.24322990771E+03  0.10000000000E+01 0.  0.
<mgrwt>
<rscale>  0 0.12500317E+03</rscale>
<asrwt>0</asrwt>
<pdfrwt beam="2">  1        4 0.24553780E-02 0.12500317E+03</pdfrwt>
<pdfrwt beam="1">  1       -4 0.37656240E-01 0.12500317E+03</pdfrwt>
<totfact> 0.80798655E+03</totfact>
</mgrwt>
</event>
<event>
 5    1  0.3243498E-002  0.1250000E+03  0.7818608E-02  0.1235069E+00
          4   -1    0    0  501    0  0.00000000000E+00  0.00000000000E+00  0.91145909303E+01  0.92026446105E+01  0.12700000000E+01 0. -1.
         -4   -1    0    0    0  501 -0.00000000000E+00 -0.00000000000E+00 -0.42642188466E+03  0.42642377586E+03  0.12700000000E+01 0. -1.
         25    2    1    2    0    0  0.00000000000E+00  0.00000000000E+00 -0.41730729373E+03  0.43562642047E+03  0.12500000324E+03 0.  0.
    9000005    1    3    3    0    0 -0.40633737833E+02 -0.13980711259E+02 -0.50528993217E+02  0.66338074234E+02  0.10000000000E+01 0.  0.
    9000005    1    3    3    0    0  0.40633737833E+02  0.13980711259E+02 -0.36677830051E+03  0.36928834623E+03  0.10000000000E+01 0.  0.
<mgrwt>
<rscale>  0 0.12500000E+03</rscale>
<asrwt>0</asrwt>
<pdfrwt beam="1">  1        4 0.14091639E-02 0.12500000E+03</pdfrwt>
<pdfrwt beam="2">  1       -4 0.65610270E-01 0.12500000E+03</pdfrwt>
<totfact> 0.61229284E+03</totfact>
</mgrwt>
</event>
<event>
 5    1  0.3243498E-002  0.1250010E+03  0.7818608E-02  0.1235068E+00
          4   -1    0    0  501    0  0.00000000000E+00  0.00000000000E+00  0.21957994661E+03  0.21958361927E+03  0.12700000000E+01 0.  1.
         -4   -1    0    0    0  501 -0.00000000000E+00 -0.00000000000E+00 -0.17763436950E+02  0.17808778517E+02  0.12700000000E+01 0.  1.
         25    2    1    2    0    0  0.00000000000E+00  0.00000000000E+00  0.20181650966E+03  0.23739239779E+03  0.12500098782E+03 0.  0.
    9000005    1    3    3    0    0 -0.47279571967E+02 -0.50903975952E+01  0.17791163189E+03  0.18415976443E+03  0.10000000000E+01 0.  0.
    9000005    1    3    3    0    0  0.47279571967E+02  0.50903975952E+01  0.23904877766E+02  0.53232633356E+02  0.10000000000E+01 0.  0.
<mgrwt>
<rscale>  0 0.12500099E+03</rscale>
<asrwt>0</asrwt>
<pdfrwt beam="1">  1        4 0.33785300E-01 0.12500099E+03</pdfrwt>
<pdfrwt beam="2">  1       -4 0.27366068E-02 0.12500099E+03</pdfrwt>
<totfact> 0.84185408E+03</totfact>
</mgrwt>
</event>
<event>
 5    1  0.3243498E-002  0.1250023E+03  0.7818608E-02  0.1235066E+00
          4   -1    0    0  501    0  0.00000000000E+00  0.00000000000E+00  0.19180506379E+04  0.19180510584E+04  0.12700000000E+01 0.  1.
         -4   -1    0    0    0  501 -0.00000000000E+00 -0.00000000000E+00 -0.18382020684E+01  0.22342530842E+01  0.12700000000E+01 0.  1.
         25    2    1    2    0    0  0.00000000000E+00  0.00000000000E+00  0.19162124359E+04  0.19202853115E+04  0.12500231232E+03 0.  0.
    9000005    1    3    3    0    0  0.41628339732E+01 -0.39022041153E+02  0.21097820719E+03  0.21459928422E+03  0.10000000000E+01 0.  0.
    9000005    1    3    3    0    0 -0.41628339732E+01  0.39022041153E+02  0.17052342287E+04  0.17056860272E+04  0.10000000000E+01 0.  0.
<mgrwt>
<rscale>  0 0.12500231E+03</rscale>
<asrwt>0</asrwt>
<pdfrwt beam="1">  1        4 0.29511540E+00 0.12500231E+03</pdfrwt>
<pdfrwt beam="2">  1       -4 0.31329792E-03 0.12500231E+03</pdfrwt>
<totfact> 0.10937210E+03</totfact>
</mgrwt>
</event>
<event>
 5    1  0.3243498E-002  0.1250018E+03  0.7818608E-02  0.1235067E+00
          4   -1    0    0  501    0  0.00000000000E+00  0.00000000000E+00  0.15288226469E+03  0.15288753957E+03  0.12700000000E+01 0.  1.
         -4   -1    0    0    0  501 -0.00000000000E+00 -0.00000000000E+00 -0.25529929784E+02  0.25561498681E+02  0.12700000000E+01 0.  1.
         25    2    1    2    0    0  0.00000000000E+00  0.00000000000E+00  0.12735233490E+03  0.17844903825E+03  0.12500176818E+03 0.  0.
    9000005    1    3    3    0    0  0.45598263655E+02 -0.38560682411E+02  0.37382760167E+02  0.70459907990E+02  0.10000000000E+01 0.  0.
    9000005    1    3    3    0    0 -0.45598263655E+02  0.38560682411E+02  0.89969574738E+02  0.10798913026E+03  0.10000000000E+01 0.  0.
<mgrwt>
<rscale>  0 0.12500177E+03</rscale>
<asrwt>0</asrwt>
<pdfrwt beam="1">  1        4 0.23523182E-01 0.12500177E+03</pdfrwt>
<pdfrwt beam="2">  1       -4 0.39305157E-02 0.12500177E+03</pdfrwt>
<totfact> 0.93893205E+03</totfact>
</mgrwt>
</event>
<event>
 5    1  0.3243498E-002  0.1250029E+03  0.7818608E-02  0.1235065E+00
         -4   -1    0    0    0  501 -0.00000000000E+00  0.00000000000E+00  0.16615880811E+03  0.16616366153E+03  0.12700000000E+01 0. -1.
          4   -1    0    0  501    0  0.00000000000E+00 -0.00000000000E+00 -0.23487876023E+02  0.23522185699E+02  0.12700000000E+01 0. -1.
         25    2    1    2    0    0  0.00000000000E+00  0.00000000000E+00  0.14267093209E+03  0.18968584723E+03  0.12500290307E+03 0.  0.
    9000005    1    3    3    0    0  0.62034216174E+01  0.20121218696E+02  0.16062154023E+03  0.16199884280E+03  0.10000000000E+01 0.  0.
    9000005    1    3    3    0    0 -0.62034216174E+01 -0.20121218696E+02 -0.17950608144E+02  0.27687004430E+02  0.10000000000E+01 0.  0.
<mgrwt>
<rscale>  0 0.12500290E+03</rscale>
<asrwt>0</asrwt>
<pdfrwt beam="2">  1        4 0.36165320E-02 0.12500290E+03</pdfrwt>
<pdfrwt beam="1">  1       -4 0.25565906E-01 0.12500290E+03</pdfrwt>
<totfact> 0.91896029E+03</totfact>
</mgrwt>
</event>
<event>
 5    1  0.3243498E-002  0.1249960E+03  0.7818608E-02  0.1235076E+00
          4   -1    0    0  501    0  0.00000000000E+00  0.00000000000E+00  0.41506840880E+01  0.43406311060E+01  0.12700000000E+01 0.  1.
         -4   -1    0    0    0  501 -0.00000000000E+00 -0.00000000000E+00 -0.91980835564E+03  0.91980923239E+03  0.12700000000E+01 0.  1.
         25    2    1    2    0    0  0.00000000000E+00  0.00000000000E+00 -0.91565767155E+03  0.92414986350E+03  0.12499599491E+03 0.  0.
    9000005    1    3    3    0    0 -0.50861707955E+02  0.32274017868E+02 -0.58076327046E+03  0.58387969812E+03  0.10000000000E+01 0.  0.
    9000005    1    3    3    0    0  0.50861707955E+02 -0.32274017868E+02 -0.33489440109E+03  0.34027016538E+03  0.10000000000E+01 0.  0.
<mgrwt>
<rscale>  0 0.12499599E+03</rscale>
<asrwt>0</asrwt>
<pdfrwt beam="1">  1        4 0.65324627E-03 0.12499599E+03</pdfrwt>
<pdfrwt beam="2">  1       -4 0.14152350E+00 0.12499599E+03</pdfrwt>
<totfact> 0.33254829E+03</totfact>
</mgrwt>
</event>
<event>
 5    1  0.3243498E-002  0.1250015E+03  0.7818608E-02  0.1235067E+00
         -4   -1    0    0    0  501 -0.00000000000E+00  0.00000000000E+00  0.96477395871E+03  0.96477479460E+03  0.12700000000E+01 0.  1.
          4   -1    0    0  501    0  0.00000000000E+00 -0.00000000000E+00 -0.39485305323E+01  0.41477455762E+01  0.12700000000E+01 0.  1.
         25    2    1    2    0    0  0.00000000000E+00  0.00000000000E+00  0.96082542818E+03  0.96892254018E+03  0.12500154174E+03 0.  0.
    9000005    1    3    3    0    0 -0.97685941945E+00 -0.23045895533E+02  0.93060682363E+03  0.93089318814E+03  0.10000000000E+01 0.  0.
    9000005    1    3    3    0    0  0.97685941945E+00  0.23045895533E+02  0.30218604551E+02  0.38029352035E+02  0.10000000000E+01 0.  0.
<mgrwt>
<rscale>  0 0.12500154E+03</rscale>
<asrwt>0</asrwt>
<pdfrwt beam="2">  1        4 0.62285447E-03 0.12500154E+03</pdfrwt>
<pdfrwt beam="1">  1       -4 0.14844222E+00 0.12500154E+03</pdfrwt>
<totfact> 0.31652449E+03</totfact>
</mgrwt>
</event>
<event>
 5    1  0.3243498E-002  0.1249973E+03  0.7818608E-02  0.1235074E+00
          4   -1    0    0  501    0  0.00000000000E+00  0.00000000000E+00  0.49444634547E+01  0.51049602207E+01  0.12700000000E+01 0.  1.
         -4   -1    0    0    0  501 -0.00000000000E+00 -0.00000000000E+00 -0.77721261754E+03  0.77721365516E+03  0.12700000000E+01 0.  1.
         25    2    1    2    0    0  0.00000000000E+00  0.00000000000E+00 -0.77226815408E+03  0.78231861538E+03  0.12499725658E+03 0.  0.
    9000005    1    3    3    0    0 -0.11150309787E+02 -0.52414382185E+02 -0.58733713284E+03  0.58977750422E+03  0.10000000000E+01 0.  0.
    9000005    1    3    3    0    0  0.11150309787E+02  0.52414382185E+02 -0.18493102124E+03  0.19254111116E+03  0.10000000000E+01 0.  0.
<mgrwt>
<rscale>  0 0.12499726E+03</rscale>
<asrwt>0</asrwt>
<pdfrwt beam="1">  1        4 0.77311302E-03 0.12499726E+03</pdfrwt>
<pdfrwt beam="2">  1       -4 0.11958350E+00 0.12499726E+03</pdfrwt>
<totfact> 0.39068730E+03</totfact>
</mgrwt>
</event>
<event>
 5    1  0.3243498E-002  0.1250021E+03  0.7818608E-02  0.1235066E+00
         -4   -1    0    0    0  501 -0.00000000000E+00  0.00000000000E+00  0.56870526470E+02  0.56884705158E+02  0.12700000000E+01 0. -1.
          4   -1    0    0  501    0  0.00000000000E+00 -0.00000000000E+00 -0.68660362911E+02  0.68672107402E+02  0.12700000000E+01 0. -1.
         25    2    1    2    0    0  0.00000000000E+00  0.00000000000E+00 -0.11789836441E+02  0.12555681256E+03  0.12500205173E+03 0.  0.
    9000005    1    3    3    0    0 -0.20302518968E+02 -0.35561849015E+02 -0.53311849119E+02  0.67230875632E+02  0.10000000000E+01 0.  0.
    9000005    1    3    3    0    0  0.20302518968E+02  0.35561849015E+02  0.41522012677E+02  0.58325936928E+02  0.10000000000E+01 0.  0.
<mgrwt>
<rscale>  0 0.12500205E+03</rscale>
<asrwt>0</asrwt>
<pdfrwt beam="2">  1        4 0.10565127E-01 0.12500205E+03</pdfrwt>
<pdfrwt beam="1">  1       -4 0.87513058E-02 0.12500205E+03</pdfrwt>
<totfact> 0.10440216E+04</totfact>
</mgrwt>
</event>
<event>
 5    1  0.3243498E-002  0.1249993E+03  0.7818608E-02  0.1235070E+00
         -4   -1    0    0    0  501 -0.00000000000E+00  0.00000000000E+00  0.30562001995E+02  0.30588377956E+02  0.12700000000E+01 0.  1.
          4   -1    0    0  501    0  0.00000000000E+00 -0.00000000000E+00 -0.12772781534E+03  0.12773412900E+03  0.12700000000E+01 0.  1.
         25    2    1    2    0    0  0.00000000000E+00  0.00000000000E+00 -0.97165813344E+02  0.15832250696E+03  0.12499928370E+03 0.  0.
    9000005    1    3    3    0    0 -0.32494707360E+02  0.29385465361E+02  0.78590671046E+01  0.44521640992E+02  0.10000000000E+01 0.  0.
    9000005    1    3    3    0    0  0.32494707360E+02 -0.29385465361E+02 -0.10502488045E+03  0.11380086596E+03  0.10000000000E+01 0.  0.
<mgrwt>
<rscale>  0 0.12499928E+03</rscale>
<asrwt>0</asrwt>
<pdfrwt beam="2">  1        4 0.19652947E-01 0.12499928E+03</pdfrwt>
<pdfrwt beam="1">  1       -4 0.47043611E-02 0.12499928E+03</pdfrwt>
<totfact> 0.97668743E+03</totfact>
</mgrwt>
</event>
<event>
 5    1  0.3243498E-002  0.1250038E+03  0.7818608E-02  0.1235063E+00
         -4   -1    0    0    0  501 -0.00000000000E+00  0.00000000000E+00  0.34375400615E+02  0.34398852705E+02  0.12700000000E+01 0. -1.
          4   -1    0    0  501    0  0.00000000000E+00 -0.00000000000E+00 -0.11357627651E+03  0.11358337680E+03  0.12700000000E+01 0. -1.
         25    2    1    2    0    0  0.00000000000E+00  0.00000000000E+00 -0.79200875893E+02  0.14798222950E+03  0.12500384597E+03 0.  0.
    9000005    1    3    3    0    0 -0.43298976674E+02 -0.14194219255E+02 -0.90231652649E+02  0.10108921001E+03  0.10000000000E+01 0.  0.
    9000005    1    3    3    0    0  0.43298976674E+02  0.14194219255E+02  0.11030776756E+02  0.46893019492E+02  0.10000000000E+01 0.  0.
<mgrwt>
<rscale>  0 0.12500385E+03</rscale>
<asrwt>0</asrwt>
<pdfrwt beam="2">  1        4 0.17475623E-01 0.12500385E+03</pdfrwt>
<pdfrwt beam="1">  1       -4 0.52908734E-02 0.12500385E+03</pdfrwt>
<totfact> 0.99698809E+03</totfact>
</mgrwt>
</event>
<event>
 5    1  0.3243498E-002  0.1249976E+03  0.7818608E-02  0.1235073E+00
          4   -1    0    0  501    0  0.00000000000E+00  0.00000000000E+00  0.50551716273E+03  0.50551875802E+03  0.12700000000E+01 0.  1.
         -4   -1    0    0    0  501 -0.00000000000E+00 -0.00000000000E+00 -0.76731306014E+01  0.77775210206E+01  0.12700000000E+01 0.  1.
         25    2    1    2    0    0  0.00000000000E+00  0.00000000000E+00  0.49784403212E+03  0.51329627904E+03  0.12499755900E+03 0.  0.
    9000005    1    3    3    0    0 -0.21758730786E+02 -0.54609937472E+02  0.16186819176E+03  0.17221497943E+03  0.10000000000E+01 0.  0.
    9000005    1    3    3    0    0  0.21758730786E+02  0.54609937472E+02  0.33597584037E+03  0.34108129961E+03  0.10000000000E+01 0.  0.
<mgrwt>
<rscale>  0 0.12499756E+03</rscale>
<asrwt>0</asrwt>
<pdfrwt beam="1">  1        4 0.77780035E-01 0.12499756E+03</pdfrwt>
<pdfrwt beam="2">  1       -4 0.11886342E-02 0.12499756E+03</pdfrwt>
<totfact> 0.54850234E+03</totfact>
</mgrwt>
</event>
<event>
 5    1  0.3243498E-002  0.1249980E+03  0.7818608E-02  0.1235072E+00
         -4   -1    0    0    0  501 -0.00000000000E+00  0.00000000000E+00  0.10930099817E+02  0.11003634946E+02  0.12700000000E+01 0.  1.
          4   -1    0    0  501    0  0.00000000000E+00 -0.00000000000E+00 -0.35610056918E+03  0.35610283384E+03  0.12700000000E+01 0.  1.
         25    2    1    2    0    0  0.00000000000E+00  0.00000000000E+00 -0.34517046936E+03  0.36710646879E+03  0.12499802601E+03 0.  0.
    9000005    1    3    3    0    0 -0.15428933554E+02  0.26272379141E+02 -0.12346911913E+02  0.32889757222E+02  0.10000000000E+01 0.  0.
    9000005    1    3    3    0    0  0.15428933554E+02 -0.26272379141E+02 -0.33282355745E+03  0.33421671156E+03  0.10000000000E+01 0.  0.
<mgrwt>
<rscale>  0 0.12499803E+03</rscale>
<asrwt>0</asrwt>
<pdfrwt beam="2">  1        4 0.54790525E-01 0.12499803E+03</pdfrwt>
<pdfrwt beam="1">  1       -4 0.16873848E-02 0.12499803E+03</pdfrwt>
<totfact> 0.67885712E+03</totfact>
</mgrwt>
</event>
<event>
 5    1  0.3243498E-002  0.1250043E+03  0.7818608E-02  0.1235063E+00
         -4   -1    0    0    0  501 -0.00000000000E+00  0.00000000000E+00  0.15460402200E+04  0.15460407416E+04  0.12700000000E+01 0. -1.
          4   -1    0    0  501    0  0.00000000000E+00 -0.00000000000E+00 -0.23666552808E+01  0.26858810879E+01  0.12700000000E+01 0. -1.
         25    2    1    2    0    0  0.00000000000E+00  0.00000000000E+00  0.15436735647E+04  0.15487266227E+04  0.12500430984E+03 0.  0.
    9000005    1    3    3    0    0 -0.35432500569E+02 -0.23908533861E+02  0.20700588141E+03  0.21137529427E+03  0.10000000000E+01 0.  0.
    9000005    1    3    3    0    0  0.35432500569E+02  0.23908533861E+02  0.13366676833E+04  0.13373513284E+04  0.10000000000E+01 0.  0.
<mgrwt>
<rscale>  0 0.12500431E+03</rscale>
<asrwt>0</asrwt>
<pdfrwt beam="2">  1        4 0.38869573E-03 0.12500431E+03</pdfrwt>
<pdfrwt beam="1">  1       -4 0.23787758E+00 0.12500431E+03</pdfrwt>
<totfact> 0.16990548E+03</totfact>
</mgrwt>
</event>
<event>
 5    1  0.3243498E-002  0.1250382E+03  0.7818608E-02  0.1235010E+00
         -4   -1    0    0    0  501 -0.00000000000E+00  0.00000000000E+00  0.27249641068E+03  0.27249937015E+03  0.12700000000E+01 0.  1.
          4   -1    0    0  501    0  0.00000000000E+00 -0.00000000000E+00 -0.14312666137E+02  0.14368900861E+02  0.12700000000E+01 0.  1.
         25    2    1    2    0    0  0.00000000000E+00  0.00000000000E+00  0.25818374454E+03  0.28686827101E+03  0.12503823002E+03 0.  0.
    9000005    1    3    3    0    0 -0.49622482319E+02 -0.15743058505E+02  0.49702887151E+02  0.71983412213E+02  0.10000000000E+01 0.  0.
    9000005    1    3    3    0    0  0.49622482319E+02  0.15743058505E+02  0.20848085739E+03  0.21488485880E+03  0.10000000000E+01 0.  0.
<mgrwt>
<rscale>  0 0.12503823E+03</rscale>
<asrwt>0</asrwt>
<pdfrwt beam="2">  1        4 0.22065021E-02 0.12503823E+03</pdfrwt>
<pdfrwt beam="1">  1       -4 0.41927077E-01 0.12503823E+03</pdfrwt>
<totfact> 0.77210546E+03</totfact>
</mgrwt>
</event>
<event>
 5    1  0.3243498E-002  0.1249990E+03  0.7818608E-02  0.1235071E+00
         -4   -1    0    0    0  501 -0.00000000000E+00  0.00000000000E+00  0.39999490231E+02  0.40019646659E+02  0.12700000000E+01 0.  1.
          4   -1    0    0  501    0  0.00000000000E+00 -0.00000000000E+00 -0.97607106938E+02  0.97615368794E+02  0.12700000000E+01 0.  1.
         25    2    1    2    0    0  0.00000000000E+00  0.00000000000E+00 -0.57607616707E+02  0.13763501545E+03  0.12499903990E+03 0.  0.
    9000005    1    3    3    0    0 -0.31720946256E+02  0.40568252570E+02 -0.67782786510E+02  0.85132295253E+02  0.10000000000E+01 0.  0.
    9000005    1    3    3    0    0  0.31720946256E+02 -0.40568252570E+02  0.10175169803E+02  0.52502720201E+02  0.10000000000E+01 0.  0.
<mgrwt>
<rscale>  0 0.12499904E+03</rscale>
<asrwt>0</asrwt>
<pdfrwt beam="2">  1        4 0.15018664E-01 0.12499904E+03</pdfrwt>
<pdfrwt beam="1">  1       -4 0.61559537E-02 0.12499904E+03</pdfrwt>
<totfact> 0.10183045E+04</totfact>
</mgrwt>
</event>
<event>
 5    1  0.3243498E-002  0.1249919E+03  0.7818608E-02  0.1235082E+00
         -4   -1    0    0    0  501 -0.00000000000E+00  0.00000000000E+00  0.37590994123E+03  0.37591208655E+03  0.12700000000E+01 0. -1.
          4   -1    0    0  501    0  0.00000000000E+00 -0.00000000000E+00 -0.10349106026E+02  0.10426739449E+02  0.12700000000E+01 0. -1.
         25    2    1    2    0    0  0.00000000000E+00  0.00000000000E+00  0.36556083521E+03  0.38633882600E+03  0.12499185670E+03 0.  0.
    9000005    1    3    3    0    0 -0.57701536719E+02  0.23979201521E+02  0.18439129853E+03  0.19469365788E+03  0.10000000000E+01 0.  0.
    9000005    1    3    3    0    0  0.57701536719E+02 -0.23979201521E+02  0.18116953667E+03  0.19164516812E+03  0.10000000000E+01 0.  0.
<mgrwt>
<rscale>  0 0.12499186E+03</rscale>
<asrwt>0</asrwt>
<pdfrwt beam="2">  1        4 0.15983067E-02 0.12499186E+03</pdfrwt>
<pdfrwt beam="1">  1       -4 0.57838446E-01 0.12499186E+03</pdfrwt>
<totfact> 0.65915353E+03</totfact>
</mgrwt>
</event>
<event>
 5    1  0.3243498E-002  0.1250002E+03  0.7818608E-02  0.1235069E+00
         -4   -1    0    0    0  501 -0.00000000000E+00  0.00000000000E+00  0.82000386011E+03  0.82000484358E+03  0.12700000000E+01 0.  1.
          4   -1    0    0  501    0  0.00000000000E+00 -0.00000000000E+00 -0.46780655235E+01  0.48473907458E+01  0.12700000000E+01 0.  1.
         25    2    1    2    0    0  0.00000000000E+00  0.00000000000E+00  0.81532579459E+03  0.82485223433E+03  0.12500022862E+03 0.  0.
    9000005    1    3    3    0    0  0.45555387935E+02 -0.38579117875E+02  0.28569693864E+03  0.29186877609E+03  0.10000000000E+01 0.  0.
    9000005    1    3    3    0    0 -0.45555387935E+02  0.38579117875E+02  0.52962885595E+03  0.53298345824E+03  0.10000000000E+01 0.  0.
<mgrwt>
<rscale>  0 0.12500023E+03</rscale>
<asrwt>0</asrwt>
<pdfrwt beam="2">  1        4 0.73280276E-03 0.12500023E+03</pdfrwt>
<pdfrwt beam="1">  1       -4 0.12616759E+00 0.12500023E+03</pdfrwt>
<totfact> 0.37178843E+03</totfact>
</mgrwt>
</event>
<event>
 5    1  0.3243498E-002  0.1250013E+03  0.7818608E-02  0.1235067E+00
         -4   -1    0    0    0  501 -0.00000000000E+00  0.00000000000E+00  0.10900086643E+02  0.10973822890E+02  0.12700000000E+01 0.  1.
          4   -1    0    0  501    0  0.00000000000E+00 -0.00000000000E+00 -0.35709316768E+03  0.35709542605E+03  0.12700000000E+01 0.  1.
         25    2    1    2    0    0  0.00000000000E+00  0.00000000000E+00 -0.34619308104E+03  0.36806924894E+03  0.12500129061E+03 0.  0.
    9000005    1    3    3    0    0 -0.18767222647E+02 -0.21532385418E+02 -0.33676222053E+03  0.33797284720E+03  0.10000000000E+01 0.  0.
    9000005    1    3    3    0    0  0.18767222647E+02  0.21532385418E+02 -0.94308605068E+01  0.30096401737E+02  0.10000000000E+01 0.  0.
<mgrwt>
<rscale>  0 0.12500129E+03</rscale>
<asrwt>0</asrwt>
<pdfrwt beam="2">  1        4 0.54943247E-01 0.12500129E+03</pdfrwt>
<pdfrwt beam="1">  1       -4 0.16827824E-02 0.12500129E+03</pdfrwt>
<totfact> 0.67779484E+03</totfact>
</mgrwt>
</event>
<event>
 5    1  0.3243498E-002  0.1250010E+03  0.7818608E-02  0.1235068E+00
         -4   -1    0    0    0  501 -0.00000000000E+00  0.00000000000E+00  0.36215193793E+02  0.36237455229E+02  0.12700000000E+01 0.  1.
          4   -1    0    0  501    0  0.00000000000E+00 -0.00000000000E+00 -0.10780471629E+03  0.10781219669E+03  0.12700000000E+01 0.  1.
         25    2    1    2    0    0  0.00000000000E+00  0.00000000000E+00 -0.71589522502E+02  0.14404965192E+03  0.12500096994E+03 0.  0.
    9000005    1    3    3    0    0  0.45604341065E+02 -0.35472865225E+02 -0.83487884062E+01  0.58384778487E+02  0.10000000000E+01 0.  0.
    9000005    1    3    3    0    0 -0.45604341065E+02  0.35472865225E+02 -0.63240734095E+02  0.85664873432E+02  0.10000000000E+01 0.  0.
<mgrwt>
<rscale>  0 0.12500097E+03</rscale>
<asrwt>0</asrwt>
<pdfrwt beam="2">  1        4 0.16587629E-01 0.12500097E+03</pdfrwt>
<pdfrwt beam="1">  1       -4 0.55738562E-02 0.12500097E+03</pdfrwt>
<totfact> 0.10050114E+04</totfact>
</mgrwt>
</event>
<event>
 5    1  0.3243498E-002  0.1249978E+03  0.7818608E-02  0.1235073E+00
          4   -1    0    0  501    0  0.00000000000E+00  0.00000000000E+00  0.69038386638E+01  0.70196786462E+01  0.12700000000E+01 0.  1.
         -4   -1    0    0    0  501 -0.00000000000E+00 -0.00000000000E+00 -0.56096503681E+03  0.56096647442E+03  0.12700000000E+01 0.  1.
         25    2    1    2    0    0  0.00000000000E+00  0.00000000000E+00 -0.55406119815E+03  0.56798615307E+03  0.12499783512E+03 0.  0.
    9000005    1    3    3    0    0  0.33400276072E+02 -0.14510885473E+02 -0.46271709520E+02  0.58891555768E+02  0.10000000000E+01 0.  0.
    9000005    1    3    3    0    0 -0.33400276072E+02  0.14510885473E+02 -0.50778948863E+03  0.50909459730E+03  0.10000000000E+01 0.  0.
<mgrwt>
<rscale>  0 0.12499784E+03</rscale>
<asrwt>0</asrwt>
<pdfrwt beam="1">  1        4 0.10711508E-02 0.12499784E+03</pdfrwt>
<pdfrwt beam="2">  1       -4 0.86311299E-01 0.12499784E+03</pdfrwt>
<totfact> 0.50955284E+03</totfact>
</mgrwt>
</event>
<event>
 5    1  0.3243498E-002  0.1250100E+03  0.7818608E-02  0.1235054E+00
          4   -1    0    0  501    0  0.00000000000E+00  0.00000000000E+00  0.11407947004E+03  0.11408653902E+03  0.12700000000E+01 0.  1.
         -4   -1    0    0    0  501 -0.00000000000E+00 -0.00000000000E+00 -0.34227073029E+02  0.34250626682E+02  0.12700000000E+01 0.  1.
         25    2    1    2    0    0  0.00000000000E+00  0.00000000000E+00  0.79852397013E+02  0.14833716570E+03  0.12501003727E+03 0.  0.
    9000005    1    3    3    0    0 -0.40723240510E+02  0.22326087173E+02  0.89551718523E+02  0.10088283688E+03  0.10000000000E+01 0.  0.
    9000005    1    3    3    0    0  0.40723240510E+02 -0.22326087173E+02 -0.96993215102E+01  0.47454328821E+02  0.10000000000E+01 0.  0.
<mgrwt>
<rscale>  0 0.12501004E+03</rscale>
<asrwt>0</asrwt>
<pdfrwt beam="1">  1        4 0.17553043E-01 0.12501004E+03</pdfrwt>
<pdfrwt beam="2">  1       -4 0.52680591E-02 0.12501004E+03</pdfrwt>
<totfact> 0.99613689E+03</totfact>
</mgrwt>
</event>
<event>
 5    1  0.3243498E-002  0.1249995E+03  0.7818608E-02  0.1235070E+00
         -4   -1    0    0    0  501 -0.00000000000E+00  0.00000000000E+00  0.20858723344E+01  0.24420817749E+01  0.12700000000E+01 0.  1.
          4   -1    0    0  501    0  0.00000000000E+00 -0.00000000000E+00 -0.17250213484E+04  0.17250218159E+04  0.12700000000E+01 0.  1.
         25    2    1    2    0    0  0.00000000000E+00  0.00000000000E+00 -0.17229354761E+04  0.17274638977E+04  0.12499945236E+03 0.  0.
    9000005    1    3    3    0    0 -0.57383530881E+02  0.22700206404E+02 -0.72532595120E+03  0.72794704785E+03  0.10000000000E+01 0.  0.
    9000005    1    3    3    0    0  0.57383530881E+02 -0.22700206404E+02 -0.99760952489E+03  0.99951684985E+03  0.10000000000E+01 0.  0.
<mgrwt>
<rscale>  0 0.12499945E+03</rscale>
<asrwt>0</asrwt>
<pdfrwt beam="2">  1        4 0.26541429E+00 0.12499945E+03</pdfrwt>
<pdfrwt beam="1">  1       -4 0.34834150E-03 0.12499945E+03</pdfrwt>
<totfact> 0.13855042E+03</totfact>
</mgrwt>
</event>
<event>
 5    1  0.3243498E-002  0.1250013E+03  0.7818608E-02  0.1235067E+00
          4   -1    0    0  501    0  0.00000000000E+00  0.00000000000E+00  0.15122499716E+02  0.15175733842E+02  0.12700000000E+01 0.  1.
         -4   -1    0    0    0  501 -0.00000000000E+00 -0.00000000000E+00 -0.25780374285E+03  0.25780687098E+03  0.12700000000E+01 0.  1.
         25    2    1    2    0    0  0.00000000000E+00  0.00000000000E+00 -0.24268124313E+03  0.27298260483E+03  0.12500126707E+03 0.  0.
    9000005    1    3    3    0    0 -0.15178318966E+02 -0.33647652471E+02 -0.23146291164E+03  0.23438990027E+03  0.10000000000E+01 0.  0.
    9000005    1    3    3    0    0  0.15178318966E+02  0.33647652471E+02 -0.11218331490E+02  0.38592704555E+02  0.10000000000E+01 0.  0.
<mgrwt>
<rscale>  0 0.12500127E+03</rscale>
<asrwt>0</asrwt>
<pdfrwt beam="1">  1        4 0.23308742E-02 0.12500127E+03</pdfrwt>
<pdfrwt beam="2">  1       -4 0.39666447E-01 0.12500127E+03</pdfrwt>
<totfact> 0.79115629E+03</totfact>
</mgrwt>
</event>
<event>
 5    1  0.3243498E-002  0.1250031E+03  0.7818608E-02  0.1235065E+00
          4   -1    0    0  501    0  0.00000000000E+00  0.00000000000E+00  0.32060849446E+01  0.34484606236E+01  0.12700000000E+01 0. -1.
         -4   -1    0    0    0  501 -0.00000000000E+00 -0.00000000000E+00 -0.11738241437E+04  0.11738248307E+04  0.12700000000E+01 0. -1.
         25    2    1    2    0    0  0.00000000000E+00  0.00000000000E+00 -0.11706180587E+04  0.11772732913E+04  0.12500305214E+03 0.  0.
    9000005    1    3    3    0    0  0.38449304490E+01  0.26569515388E+02 -0.11167954512E+04  0.11171185266E+04  0.10000000000E+01 0.  0.
    9000005    1    3    3    0    0 -0.38449304490E+01 -0.26569515388E+02 -0.53822607487E+02  0.60154764690E+02  0.10000000000E+01 0.  0.
<mgrwt>
<rscale>  0 0.12500305E+03</rscale>
<asrwt>0</asrwt>
<pdfrwt beam="1">  1        4 0.51194190E-03 0.12500305E+03</pdfrwt>
<pdfrwt beam="2">  1       -4 0.18060670E+00 0.12500305E+03</pdfrwt>
<totfact> 0.25313862E+03</totfact>
</mgrwt>
</event>
<event>
 5    1  0.3243498E-002  0.1249984E+03  0.7818608E-02  0.1235072E+00
          4   -1    0    0  501    0  0.00000000000E+00  0.00000000000E+00  0.15117093570E+02  0.15170346667E+02  0.12700000000E+01 0. -1.
         -4   -1    0    0    0  501 -0.00000000000E+00 -0.00000000000E+00 -0.25788372967E+03  0.25788685683E+03  0.12700000000E+01 0. -1.
         25    2    1    2    0    0  0.00000000000E+00  0.00000000000E+00 -0.24276663610E+03  0.27305720350E+03  0.12499838711E+03 0.  0.
    9000005    1    3    3    0    0 -0.37665595743E+02  0.26772341233E+02 -0.29486960424E+02  0.54826418748E+02  0.10000000000E+01 0.  0.
    9000005    1    3    3    0    0  0.37665595743E+02 -0.26772341233E+02 -0.21327967568E+03  0.21823078475E+03  0.10000000000E+01 0.  0.
<mgrwt>
<rscale>  0 0.12499839E+03</rscale>
<asrwt>0</asrwt>
<pdfrwt beam="1">  1        4 0.23300438E-02 0.12499839E+03</pdfrwt>
<pdfrwt beam="2">  1       -4 0.39678754E-01 0.12499839E+03</pdfrwt>
<totfact> 0.79110607E+03</totfact>
</mgrwt>
</event>
<event>
 5    1  0.3243498E-002  0.1249980E+03  0.7818608E-02  0.1235072E+00
          4   -1    0    0  501    0  0.00000000000E+00  0.00000000000E+00  0.13630071519E+02  0.13689110622E+02  0.12700000000E+01 0.  1.
         -4   -1    0    0    0  501 -0.00000000000E+00 -0.00000000000E+00 -0.28590174330E+03  0.28590456401E+03  0.12700000000E+01 0.  1.
         25    2    1    2    0    0  0.00000000000E+00  0.00000000000E+00 -0.27227167178E+03  0.29959367463E+03  0.12499802649E+03 0.  0.
    9000005    1    3    3    0    0 -0.43200437229E+02  0.45079975486E+02 -0.14231410529E+03  0.15541166793E+03  0.10000000000E+01 0.  0.
    9000005    1    3    3    0    0  0.43200437229E+02 -0.45079975486E+02 -0.12995756650E+03  0.14418200670E+03  0.10000000000E+01 0.  0.
<mgrwt>
<rscale>  0 0.12499803E+03</rscale>
<asrwt>0</asrwt>
<pdfrwt beam="1">  1        4 0.21016927E-02 0.12499803E+03</pdfrwt>
<pdfrwt beam="2">  1       -4 0.43989638E-01 0.12499803E+03</pdfrwt>
<totfact> 0.75653152E+03</totfact>
</mgrwt>
</event>
<event>
 5    1  0.3243498E-002  0.1250045E+03  0.7818608E-02  0.1235062E+00
          4   -1    0    0  501    0  0.00000000000E+00  0.00000000000E+00  0.52631139754E+03  0.52631292980E+03  0.12700000000E+01 0.  1.
         -4   -1    0    0    0  501 -0.00000000000E+00 -0.00000000000E+00 -0.73665945623E+01  0.74752669147E+01  0.12700000000E+01 0.  1.
         25    2    1    2    0    0  0.00000000000E+00  0.00000000000E+00  0.51894480297E+03  0.53378819672E+03  0.12500452160E+03 0.  0.
    9000005    1    3    3    0    0  0.54114012531E+02  0.23483654862E+01  0.39258140453E+03  0.39630165323E+03  0.10000000000E+01 0.  0.
    9000005    1    3    3    0    0 -0.54114012531E+02 -0.23483654862E+01  0.12636339845E+03  0.13748654349E+03  0.10000000000E+01 0.  0.
<mgrwt>
<rscale>  0 0.12500452E+03</rscale>
<asrwt>0</asrwt>
<pdfrwt beam="1">  1        4 0.80979470E-01 0.12500452E+03</pdfrwt>
<pdfrwt beam="2">  1       -4 0.11417994E-02 0.12500452E+03</pdfrwt>
<totfact> 0.53329618E+03</totfact>
</mgrwt>
</event>
<event>
 5    1  0.3243498E-002  0.1249731E+03  0.7818608E-02  0.1235111E+00
          4   -1    0    0  501    0  0.00000000000E+00  0.00000000000E+00  0.29396756854E+02  0.29424177363E+02  0.12700000000E+01 0.  1.
         -4   -1    0    0    0  501 -0.00000000000E+00 -0.00000000000E+00 -0.13273074454E+03  0.13273682024E+03  0.12700000000E+01 0.  1.
         25    2    1    2    0    0  0.00000000000E+00  0.00000000000E+00 -0.10333398769E+03  0.16216099760E+03  0.12497310163E+03 0.  0.
    9000005    1    3    3    0    0 -0.10706172384E+02  0.26458730638E+02 -0.12378281476E+03  0.12703492348E+03  0.10000000000E+01 0.  0.
    9000005    1    3    3    0    0  0.10706172384E+02 -0.26458730638E+02  0.20448827074E+02  0.35126074116E+02  0.10000000000E+01 0.  0.
<mgrwt>
<rscale>  0 0.12497310E+03</rscale>
<asrwt>0</asrwt>
<pdfrwt beam="1">  1        4 0.45251547E-02 0.12497310E+03</pdfrwt>
<pdfrwt beam="2">  1       -4 0.20422691E-01 0.12497310E+03</pdfrwt>
<totfact> 0.96986384E+03</totfact>
</mgrwt>
</event>
<event>
 5    1  0.3243498E-002  0.1250054E+03  0.7818608E-02  0.1235061E+00
         -4   -1    0    0    0  501 -0.00000000000E+00  0.00000000000E+00  0.58184638363E+03  0.58184776964E+03  0.12700000000E+01 0.  1.
          4   -1    0    0  501    0  0.00000000000E+00 -0.00000000000E+00 -0.66526579219E+01  0.67727953923E+01  0.12700000000E+01 0.  1.
         25    2    1    2    0    0  0.00000000000E+00  0.00000000000E+00  0.57519372570E+03  0.58862056503E+03  0.12500538986E+03 0.  0.
    9000005    1    3    3    0    0 -0.38868338108E+01 -0.62352117819E+02  0.27986990187E+03  0.28675957882E+03  0.10000000000E+01 0.  0.
    9000005    1    3    3    0    0  0.38868338108E+01  0.62352117819E+02  0.29532382383E+03  0.30186098621E+03  0.10000000000E+01 0.  0.
<mgrwt>
<rscale>  0 0.12500539E+03</rscale>
<asrwt>0</asrwt>
<pdfrwt beam="2">  1        4 0.10328338E-02 0.12500539E+03</pdfrwt>
<pdfrwt beam="1">  1       -4 0.89524176E-01 0.12500539E+03</pdfrwt>
<totfact> 0.49588020E+03</totfact>
</mgrwt>
</event>
<event>
 5    1  0.3243498E-002  0.1250001E+03  0.7818608E-02  0.1235069E+00
         -4   -1    0    0    0  501 -0.00000000000E+00  0.00000000000E+00  0.97621243179E+01  0.98443878021E+01  0.12700000000E+01 0. -1.
          4   -1    0    0  501    0  0.00000000000E+00 -0.00000000000E+00 -0.39838177621E+03  0.39838380052E+03  0.12700000000E+01 0. -1.
         25    2    1    2    0    0  0.00000000000E+00  0.00000000000E+00 -0.38861965189E+03  0.40822818832E+03  0.12500007961E+03 0.  0.
    9000005    1    3    3    0    0 -0.15539823464E+02  0.13562172608E+02 -0.16584525641E+01  0.20716396985E+02  0.10000000000E+01 0.  0.
    9000005    1    3    3    0    0  0.15539823464E+02 -0.13562172608E+02 -0.38696119933E+03  0.38751179134E+03  0.10000000000E+01 0.  0.
<mgrwt>
<rscale>  0 0.12500008E+03</rscale>
<asrwt>0</asrwt>
<pdfrwt beam="2">  1        4 0.61295975E-01 0.12500008E+03</pdfrwt>
<pdfrwt beam="1">  1       -4 0.15083493E-02 0.12500008E+03</pdfrwt>
<totfact> 0.63760210E+03</totfact>
</mgrwt>
</event>
<event>
 5    1  0.3243498E-002  0.1249970E+03  0.7818608E-02  0.1235074E+00
         -4   -1    0    0    0  501 -0.00000000000E+00  0.00000000000E+00  0.49251419807E+02  0.49267791233E+02  0.12700000000E+01 0. -1.
          4   -1    0    0  501    0  0.00000000000E+00 -0.00000000000E+00 -0.79274012260E+02  0.79284184551E+02  0.12700000000E+01 0. -1.
         25    2    1    2    0    0  0.00000000000E+00  0.00000000000E+00 -0.30022592453E+02  0.12855197578E+03  0.12499701765E+03 0.  0.
    9000005    1    3    3    0    0 -0.44829567223E+02  0.12040411752E+02  0.28016391128E+02  0.54227113001E+02  0.10000000000E+01 0.  0.
    9000005    1    3    3    0    0  0.44829567223E+02 -0.12040411752E+02 -0.58038983582E+02  0.74324862783E+02  0.10000000000E+01 0.  0.
<mgrwt>
<rscale>  0 0.12499702E+03</rscale>
<asrwt>0</asrwt>
<pdfrwt beam="2">  1        4 0.12198044E-01 0.12499702E+03</pdfrwt>
<pdfrwt beam="1">  1       -4 0.75791833E-02 0.12499702E+03</pdfrwt>
<totfact> 0.10376283E+04</totfact>
</mgrwt>
</event>
<event>
 5    1  0.3243498E-002  0.1249996E+03  0.7818608E-02  0.1235070E+00
          4   -1    0    0  501    0  0.00000000000E+00  0.00000000000E+00  0.20338641548E+03  0.20339038056E+03  0.12700000000E+01 0. -1.
         -4   -1    0    0    0  501 -0.00000000000E+00 -0.00000000000E+00 -0.19180769773E+02  0.19222768508E+02  0.12700000000E+01 0. -1.
         25    2    1    2    0    0  0.00000000000E+00  0.00000000000E+00  0.18420564571E+03  0.22261314906E+03  0.12499957690E+03 0.  0.
    9000005    1    3    3    0    0  0.42724822800E+02 -0.16451420064E+02  0.16785257583E+03  0.17398720332E+03  0.10000000000E+01 0.  0.
    9000005    1    3    3    0    0 -0.42724822800E+02  0.16451420064E+02  0.16353069881E+02  0.48625945748E+02  0.10000000000E+01 0.  0.
<mgrwt>
<rscale>  0 0.12499958E+03</rscale>
<asrwt>0</asrwt>
<pdfrwt beam="1">  1        4 0.31293754E-01 0.12499958E+03</pdfrwt>
<pdfrwt beam="2">  1       -4 0.29544233E-02 0.12499958E+03</pdfrwt>
<totfact> 0.86457350E+03</totfact>
</mgrwt>
</event>
<event>
 5    1  0.3243498E-002  0.1249980E+03  0.7818608E-02  0.1235072E+00
         -4   -1    0    0    0  501 -0.00000000000E+00  0.00000000000E+00  0.12221136341E+03  0.12221796204E+03  0.12700000000E+01 0.  1.
          4   -1    0    0  501    0  0.00000000000E+00 -0.00000000000E+00 -0.31941940635E+02  0.31967178036E+02  0.12700000000E+01 0.  1.
         25    2    1    2    0    0  0.00000000000E+00  0.00000000000E+00  0.90269422771E+02  0.15418514008E+03  0.12499795492E+03 0.  0.
    9000005    1    3    3    0    0 -0.54144405287E+02  0.28571887933E+02  0.29671466094E+02  0.68039439329E+02  0.10000000000E+01 0.  0.
    9000005    1    3    3    0    0  0.54144405287E+02 -0.28571887933E+02  0.60597956677E+02  0.86145700749E+02  0.10000000000E+01 0.  0.
<mgrwt>
<rscale>  0 0.12499795E+03</rscale>
<asrwt>0</asrwt>
<pdfrwt beam="2">  1        4 0.49165936E-02 0.12499795E+03</pdfrwt>
<pdfrwt beam="1">  1       -4 0.18804197E-01 0.12499795E+03</pdfrwt>
<totfact> 0.98480233E+03</totfact>
</mgrwt>
</event>
<event>
 5    1  0.3243498E-002  0.1250010E+03  0.7818608E-02  0.1235068E+00
         -4   -1    0    0    0  501 -0.00000000000E+00  0.00000000000E+00  0.14056288831E+03  0.14056862548E+03  0.12700000000E+01 0. -1.
          4   -1    0    0  501    0  0.00000000000E+00 -0.00000000000E+00 -0.27769685419E+02  0.27798710911E+02  0.12700000000E+01 0. -1.
         25    2    1    2    0    0  0.00000000000E+00  0.00000000000E+00  0.11279320289E+03  0.16836733639E+03  0.12500101338E+03 0.  0.
    9000005    1    3    3    0    0  0.37449600833E+02 -0.23189846457E+02  0.11610473756E+03  0.12418354023E+03  0.10000000000E+01 0.  0.
    9000005    1    3    3    0    0 -0.37449600833E+02  0.23189846457E+02 -0.33115346676E+01  0.44183796160E+02  0.10000000000E+01 0.  0.
<mgrwt>
<rscale>  0 0.12500101E+03</rscale>
<asrwt>0</asrwt>
<pdfrwt beam="2">  1        4 0.42749333E-02 0.12500101E+03</pdfrwt>
<pdfrwt beam="1">  1       -4 0.21627734E-01 0.12500101E+03</pdfrwt>
<totfact> 0.95751266E+03</totfact>
</mgrwt>
</event>
<event>
 5    1  0.3243498E-002  0.1249970E+03  0.7818608E-02  0.1235074E+00
         -4   -1    0    0    0  501 -0.00000000000E+00  0.00000000000E+00  0.25151937712E+01  0.28176408051E+01  0.12700000000E+01 0.  1.
          4   -1    0    0  501    0  0.00000000000E+00 -0.00000000000E+00 -0.14646072054E+04  0.14646077560E+04  0.12700000000E+01 0.  1.
         25    2    1    2    0    0  0.00000000000E+00  0.00000000000E+00 -0.14620920116E+04  0.14674253968E+04  0.12499697914E+03 0.  0.
    9000005    1    3    3    0    0  0.10576723441E+02 -0.56652358171E+02 -0.44741545406E+03  0.45111300724E+03  0.10000000000E+01 0.  0.
    9000005    1    3    3    0    0 -0.10576723441E+02  0.56652358171E+02 -0.10146765575E+04  0.10163123896E+04  0.10000000000E+01 0.  0.
<mgrwt>
<rscale>  0 0.12499698E+03</rscale>
<asrwt>0</asrwt>
<pdfrwt beam="2">  1        4 0.22534685E+00 0.12499698E+03</pdfrwt>
<pdfrwt beam="1">  1       -4 0.41026157E-03 0.12499698E+03</pdfrwt>
<totfact> 0.18579946E+03</totfact>
</mgrwt>
</event>
<event>
 5    1  0.3243498E-002  0.1250001E+03  0.7818608E-02  0.1235069E+00
         -4   -1    0    0    0  501 -0.00000000000E+00  0.00000000000E+00  0.54017277233E+02  0.54032204653E+02  0.12700000000E+01 0. -1.
          4   -1    0    0  501    0  0.00000000000E+00 -0.00000000000E+00 -0.72284456167E+02  0.72295611923E+02  0.12700000000E+01 0. -1.
         25    2    1    2    0    0  0.00000000000E+00  0.00000000000E+00 -0.18267178934E+02  0.12632781658E+03  0.12500010966E+03 0.  0.
    9000005    1    3    3    0    0  0.43371159413E+01  0.61685782278E+02 -0.18246603279E+02  0.64481662829E+02  0.10000000000E+01 0.  0.
    9000005    1    3    3    0    0 -0.43371159413E+01 -0.61685782278E+02 -0.20575654512E-01  0.61846153747E+02  0.10000000000E+01 0.  0.
<mgrwt>
<rscale>  0 0.12500011E+03</rscale>
<asrwt>0</asrwt>
<pdfrwt beam="2">  1        4 0.11122692E-01 0.12500011E+03</pdfrwt>
<pdfrwt beam="1">  1       -4 0.83123567E-02 0.12500011E+03</pdfrwt>
<totfact> 0.10423760E+04</totfact>
</mgrwt>
</event>
<event>
 5    1  0.3243498E-002  0.1250016E+03  0.7818608E-02  0.1235067E+00
         -4   -1    0    0    0  501 -0.00000000000E+00  0.00000000000E+00  0.50251206092E+02  0.50267251901E+02  0.12700000000E+01 0. -1.
          4   -1    0    0  501    0  0.00000000000E+00 -0.00000000000E+00 -0.77702765304E+02  0.77713143264E+02  0.12700000000E+01 0. -1.
         25    2    1    2    0    0  0.00000000000E+00  0.00000000000E+00 -0.27451559213E+02  0.12798039516E+03  0.12500157376E+03 0.  0.
    9000005    1    3    3    0    0  0.16047244996E+02 -0.91698410328E+01 -0.74845516756E+02  0.77100268709E+02  0.10000000000E+01 0.  0.
    9000005    1    3    3    0    0 -0.16047244996E+02  0.91698410328E+01  0.47393957543E+02  0.50880126456E+02  0.10000000000E+01 0.  0.
<mgrwt>
<rscale>  0 0.12500157E+03</rscale>
<asrwt>0</asrwt>
<pdfrwt beam="2">  1        4 0.11956304E-01 0.12500157E+03</pdfrwt>
<pdfrwt beam="1">  1       -4 0.77329874E-02 0.12500157E+03</pdfrwt>
<totfact> 0.10387542E+04</totfact>
</mgrwt>
</event>
<event>
 5    1  0.3243498E-002  0.1249999E+03  0.7818608E-02  0.1235069E+00
         -4   -1    0    0    0  501 -0.00000000000E+00  0.00000000000E+00  0.39969166668E+02  0.39989338381E+02  0.12700000000E+01 0. -1.
          4   -1    0    0  501    0  0.00000000000E+00 -0.00000000000E+00 -0.97682546186E+02  0.97690801662E+02  0.12700000000E+01 0. -1.
         25    2    1    2    0    0  0.00000000000E+00  0.00000000000E+00 -0.57713379519E+02  0.13768014004E+03  0.12499994715E+03 0.  0.
    9000005    1    3    3    0    0 -0.20191134945E+02 -0.22062489913E+02  0.31580357589E+02  0.43505797050E+02  0.10000000000E+01 0.  0.
    9000005    1    3    3    0    0  0.20191134945E+02  0.22062489913E+02 -0.89293737107E+02  0.94174342993E+02  0.10000000000E+01 0.  0.
<mgrwt>
<rscale>  0 0.12499995E+03</rscale>
<asrwt>0</asrwt>
<pdfrwt beam="2">  1        4 0.15030271E-01 0.12499995E+03</pdfrwt>
<pdfrwt beam="1">  1       -4 0.61512893E-02 0.12499995E+03</pdfrwt>
<totfact> 0.10181896E+04</totfact>
</mgrwt>
</event>
<event>
 5    1  0.3243498E-002  0.1249992E+03  0.7818608E-02  0.1235071E+00
         -4   -1    0    0    0  501 -0.00000000000E+00  0.00000000000E+00  0.10934659643E+03  0.10935397135E+03  0.12700000000E+01 0. -1.
          4   -1    0    0  501    0  0.00000000000E+00 -0.00000000000E+00 -0.35703236978E+02  0.35725817426E+02  0.12700000000E+01 0. -1.
         25    2    1    2    0    0  0.00000000000E+00  0.00000000000E+00  0.73643359448E+02  0.14507978878E+03  0.12499920288E+03 0.  0.
    9000005    1    3    3    0    0 -0.23318351412E+02  0.30603273365E+02  0.93975607257E+02  0.10155156627E+03  0.10000000000E+01 0.  0.
    9000005    1    3    3    0    0  0.23318351412E+02 -0.30603273365E+02 -0.20332247809E+02  0.43528222502E+02  0.10000000000E+01 0.  0.
<mgrwt>
<rscale>  0 0.12499920E+03</rscale>
<asrwt>0</asrwt>
<pdfrwt beam="2">  1        4 0.54951100E-02 0.12499920E+03</pdfrwt>
<pdfrwt beam="1">  1       -4 0.16824857E-01 0.12499920E+03</pdfrwt>
<totfact> 0.10029548E+04</totfact>
</mgrwt>
</event>
<event>
 5    1  0.3243498E-002  0.1250002E+03  0.7818608E-02  0.1235069E+00
         -4   -1    0    0    0  501 -0.00000000000E+00  0.00000000000E+00  0.71076215893E+02  0.71087561259E+02  0.12700000000E+01 0.  1.
          4   -1    0    0  501    0  0.00000000000E+00 -0.00000000000E+00 -0.54935693972E+02  0.54950371903E+02  0.12700000000E+01 0.  1.
         25    2    1    2    0    0  0.00000000000E+00  0.00000000000E+00  0.16140521921E+02  0.12603793316E+03  0.12500017659E+03 0.  0.
    9000005    1    3    3    0    0  0.40603218136E+02  0.46379440622E+02 -0.22906105024E+01  0.61692144815E+02  0.10000000000E+01 0.  0.
    9000005    1    3    3    0    0 -0.40603218136E+02 -0.46379440622E+02  0.18431132423E+02  0.64345788346E+02  0.10000000000E+01 0.  0.
<mgrwt>
<rscale>  0 0.12500018E+03</rscale>
<asrwt>0</asrwt>
<pdfrwt beam="2">  1        4 0.84536470E-02 0.12500018E+03</pdfrwt>
<pdfrwt beam="1">  1       -4 0.10936804E-01 0.12500018E+03</pdfrwt>
<totfact> 0.10430084E+04</totfact>
</mgrwt>
</event>
<event>
 5    1  0.3243498E-002  0.1249999E+03  0.7818608E-02  0.1235070E+00
         -4   -1    0    0    0  501 -0.00000000000E+00  0.00000000000E+00  0.37887624903E+02  0.37908904242E+02  0.12700000000E+01 0. -1.
          4   -1    0    0  501    0  0.00000000000E+00 -0.00000000000E+00 -0.10304657372E+03  0.10305439949E+03  0.12700000000E+01 0. -1.
         25    2    1    2    0    0  0.00000000000E+00  0.00000000000E+00 -0.65158948816E+02  0.14096330374E+03  0.12499985756E+03 0.  0.
    9000005    1    3    3    0    0  0.27812092010E+02 -0.54401534808E+02 -0.17781059461E+02  0.63641225058E+02  0.10000000000E+01 0.  0.
    9000005    1    3    3    0    0 -0.27812092010E+02  0.54401534808E+02 -0.47377889355E+02  0.77322078678E+02  0.10000000000E+01 0.  0.
<mgrwt>
<rscale>  0 0.12499986E+03</rscale>
<asrwt>0</asrwt>
<pdfrwt beam="2">  1        4 0.15855558E-01 0.12499986E+03</pdfrwt>
<pdfrwt beam="1">  1       -4 0.58311043E-02 0.12499986E+03</pdfrwt>
<totfact> 0.10113692E+04</totfact>
</mgrwt>
</event>
<event>
 5    1  0.3243498E-002  0.1250060E+03  0.7818608E-02  0.1235060E+00
          4   -1    0    0  501    0  0.00000000000E+00  0.00000000000E+00  0.59345407894E+02  0.59358995427E+02  0.12700000000E+01 0.  1.
         -4   -1    0    0    0  501 -0.00000000000E+00 -0.00000000000E+00 -0.65801306549E+02  0.65813561244E+02  0.12700000000E+01 0.  1.
         25    2    1    2    0    0  0.00000000000E+00  0.00000000000E+00 -0.64558986547E+01  0.12517255667E+03  0.12500596112E+03 0.  0.
    9000005    1    3    3    0    0  0.22591558295E+02 -0.56148514591E+02  0.12368056842E+02  0.61781898862E+02  0.10000000000E+01 0.  0.
    9000005    1    3    3    0    0 -0.22591558295E+02  0.56148514591E+02 -0.18823955496E+02  0.63390657809E+02  0.10000000000E+01 0.  0.
<mgrwt>
<rscale>  0 0.12500596E+03</rscale>
<asrwt>0</asrwt>
<pdfrwt beam="1">  1        4 0.91320506E-02 0.12500596E+03</pdfrwt>
<pdfrwt beam="2">  1       -4 0.10125266E-01 0.12500596E+03</pdfrwt>
<totfact> 0.10447708E+04</totfact>
</mgrwt>
</event>
<event>
 5    1  0.3243498E-002  0.1249944E+03  0.7818608E-02  0.1235078E+00
         -4   -1    0    0    0  501 -0.00000000000E+00  0.00000000000E+00  0.52671895660E+02  0.52687204257E+02  0.12700000000E+01 0. -1.
          4   -1    0    0  501    0  0.00000000000E+00 -0.00000000000E+00 -0.74123750435E+02  0.74134629415E+02  0.12700000000E+01 0. -1.
         25    2    1    2    0    0  0.00000000000E+00  0.00000000000E+00 -0.21451854774E+02  0.12682183367E+03  0.12499438156E+03 0.  0.
    9000005    1    3    3    0    0  0.34400081770E+02 -0.40882152665E+02 -0.43606244049E+02  0.68972607261E+02  0.10000000000E+01 0.  0.
    9000005    1    3    3    0    0 -0.34400081770E+02  0.40882152665E+02  0.22154389274E+02  0.57849226412E+02  0.10000000000E+01 0.  0.
<mgrwt>
<rscale>  0 0.12499438E+03</rscale>
<asrwt>0</asrwt>
<pdfrwt beam="2">  1        4 0.11405668E-01 0.12499438E+03</pdfrwt>
<pdfrwt beam="1">  1       -4 0.81053830E-02 0.12499438E+03</pdfrwt>
<totfact> 0.10414340E+04</totfact>
</mgrwt>
</event>
<event>
 5    1  0.3243498E-002  0.1249994E+03  0.7818608E-02  0.1235070E+00
         -4   -1    0    0    0  501 -0.00000000000E+00  0.00000000000E+00  0.10663272624E+04  0.10663280187E+04  0.12700000000E+01 0.  1.
          4   -1    0    0  501    0  0.00000000000E+00 -0.00000000000E+00 -0.35523844915E+01  0.37725767819E+01  0.12700000000E+01 0.  1.
         25    2    1    2    0    0  0.00000000000E+00  0.00000000000E+00  0.10627748779E+04  0.10701005955E+04  0.12499937324E+03 0.  0.
    9000005    1    3    3    0    0  0.43712701949E+02 -0.44246599072E+02  0.58321344647E+03  0.58652151366E+03  0.10000000000E+01 0.  0.
    9000005    1    3    3    0    0 -0.43712701949E+02  0.44246599072E+02  0.47956143142E+03  0.48357908179E+03  0.10000000000E+01 0.  0.
<mgrwt>
<rscale>  0 0.12499937E+03</rscale>
<asrwt>0</asrwt>
<pdfrwt beam="2">  1        4 0.56351621E-03 0.12499937E+03</pdfrwt>
<pdfrwt beam="1">  1       -4 0.16406750E+00 0.12499937E+03</pdfrwt>
<totfact> 0.28375718E+03</totfact>
</mgrwt>
</event>
<event>
 5    1  0.3243498E-002  0.1250195E+03  0.7818608E-02  0.1235039E+00
         -4   -1    0    0    0  501 -0.00000000000E+00  0.00000000000E+00  0.14620360074E+03  0.14620911657E+03  0.12700000000E+01 0. -1.
          4   -1    0    0  501    0  0.00000000000E+00 -0.00000000000E+00 -0.26705117361E+02  0.26735298638E+02  0.12700000000E+01 0. -1.
         25    2    1    2    0    0  0.00000000000E+00  0.00000000000E+00  0.11949848338E+03  0.17294441521E+03  0.12501953136E+03 0.  0.
    9000005    1    3    3    0    0  0.17820250351E+02  0.42400737128E+02  0.12046187463E+01  0.46019940655E+02  0.10000000000E+01 0.  0.
    9000005    1    3    3    0    0 -0.17820250351E+02 -0.42400737128E+02  0.11829386463E+03  0.12692447455E+03  0.10000000000E+01 0.  0.
<mgrwt>
<rscale>  0 0.12501953E+03</rscale>
<asrwt>0</asrwt>
<pdfrwt beam="2">  1        4 0.41112256E-02 0.12501953E+03</pdfrwt>
<pdfrwt beam="1">  1       -4 0.22495607E-01 0.12501953E+03</pdfrwt>
<totfact> 0.94861091E+03</totfact>
</mgrwt>
</event>
<event>
 4    1  0.3243498E-002  0.1256372E+03  0.7818608E-02  0.1234077E+00
         -4   -1    0    0    0  501 -0.00000000000E+00  0.00000000000E+00  0.34178008769E+02  0.34201596212E+02  0.12700000000E+01 0.  1.
          4   -1    0    0  501    0  0.00000000000E+00 -0.00000000000E+00 -0.11539259219E+03  0.11539958072E+03  0.12700000000E+01 0.  1.
    9000005    1    1    2    0    0  0.11593706502E+02  0.57502600922E+02 -0.67344970855E+02  0.89315778241E+02  0.10000000000E+01 0.  0.
    9000005    1    1    2    0    0 -0.11593706502E+02 -0.57502600922E+02 -0.13869612561E+02  0.60285398695E+02  0.10000000000E+01 0.  0.
<mgrwt>
<rscale>  0 0.12563719E+03</rscale>
<asrwt>0</asrwt>
<pdfrwt beam="2">  1        4 0.17755058E-01 0.12563719E+03</pdfrwt>
<pdfrwt beam="1">  1       -4 0.52605072E-02 0.12563719E+03</pdfrwt>
<totfact> 0.97971326E+03</totfact>
</mgrwt>
</event>
<event>
 5    1  0.3243498E-002  0.1249994E+03  0.7818608E-02  0.1235070E+00
          4   -1    0    0  501    0  0.00000000000E+00  0.00000000000E+00  0.32445558797E+02  0.32470404765E+02  0.12700000000E+01 0. -1.
         -4   -1    0    0    0  501 -0.00000000000E+00 -0.00000000000E+00 -0.12031856250E+03  0.12032526493E+03  0.12700000000E+01 0. -1.
         25    2    1    2    0    0  0.00000000000E+00  0.00000000000E+00 -0.87873003700E+02  0.15279566970E+03  0.12499940760E+03 0.  0.
    9000005    1    3    3    0    0 -0.11877245248E+01  0.62466719720E+02 -0.45535526281E+02  0.77317436040E+02  0.10000000000E+01 0.  0.
    9000005    1    3    3    0    0  0.11877245248E+01 -0.62466719720E+02 -0.42337477419E+02  0.75478233659E+02  0.10000000000E+01 0.  0.
<mgrwt>
<rscale>  0 0.12499941E+03</rscale>
<asrwt>0</asrwt>
<pdfrwt beam="1">  1        4 0.49940513E-02 0.12499941E+03</pdfrwt>
<pdfrwt beam="2">  1       -4 0.18512975E-01 0.12499941E+03</pdfrwt>
<totfact> 0.98750631E+03</totfact>
</mgrwt>
</event>
<event>
 5    1  0.3243498E-002  0.1249991E+03  0.7818608E-02  0.1235071E+00
          4   -1    0    0  501    0  0.00000000000E+00  0.00000000000E+00  0.12306895960E+02  0.12372250731E+02  0.12700000000E+01 0.  1.
         -4   -1    0    0    0  501 -0.00000000000E+00 -0.00000000000E+00 -0.31649158125E+03  0.31649412933E+03  0.12700000000E+01 0.  1.
         25    2    1    2    0    0  0.00000000000E+00  0.00000000000E+00 -0.30418468529E+03  0.32886638006E+03  0.12499909268E+03 0.  0.
    9000005    1    3    3    0    0  0.47591930405E+02 -0.40437060359E+02 -0.14618259222E+03  0.15896697128E+03  0.10000000000E+01 0.  0.
    9000005    1    3    3    0    0 -0.47591930405E+02  0.40437060359E+02 -0.15800209307E+03  0.16989940878E+03  0.10000000000E+01 0.  0.
<mgrwt>
<rscale>  0 0.12499909E+03</rscale>
<asrwt>0</asrwt>
<pdfrwt beam="1">  1        4 0.18985921E-02 0.12499909E+03</pdfrwt>
<pdfrwt beam="2">  1       -4 0.48696230E-01 0.12499909E+03</pdfrwt>
<totfact> 0.72115302E+03</totfact>
</mgrwt>
</event>
<event>
 5    1  0.3243498E-002  0.1250044E+03  0.7818608E-02  0.1235062E+00
          4   -1    0    0  501    0  0.00000000000E+00  0.00000000000E+00  0.73914278466E+01  0.74997403696E+01  0.12700000000E+01 0.  1.
         -4   -1    0    0    0  501 -0.00000000000E+00 -0.00000000000E+00 -0.52456796873E+03  0.52456950609E+03  0.12700000000E+01 0.  1.
         25    2    1    2    0    0  0.00000000000E+00  0.00000000000E+00 -0.51717654088E+03  0.53206924646E+03  0.12500443427E+03 0.  0.
    9000005    1    3    3    0    0 -0.21150532523E+02 -0.48881669636E+02 -0.11943809851E+03  0.13077928746E+03  0.10000000000E+01 0.  0.
    9000005    1    3    3    0    0  0.21150532523E+02  0.48881669636E+02 -0.39773844237E+03  0.40128995899E+03  0.10000000000E+01 0.  0.
<mgrwt>
<rscale>  0 0.12500443E+03</rscale>
<asrwt>0</asrwt>
<pdfrwt beam="1">  1        4 0.11455932E-02 0.12500443E+03</pdfrwt>
<pdfrwt beam="2">  1       -4 0.80711185E-01 0.12500443E+03</pdfrwt>
<totfact> 0.53454104E+03</totfact>
</mgrwt>
</event>
<event>
 5    1  0.3243498E-002  0.1250000E+03  0.7818608E-02  0.1235069E+00
          4   -1    0    0  501    0  0.00000000000E+00  0.00000000000E+00  0.41908143896E+03  0.41908336328E+03  0.12700000000E+01 0. -1.
         -4   -1    0    0    0  501 -0.00000000000E+00 -0.00000000000E+00 -0.92757613600E+01  0.93622993334E+01  0.12700000000E+01 0. -1.
         25    2    1    2    0    0  0.00000000000E+00  0.00000000000E+00  0.40980567760E+03  0.42844566261E+03  0.12499996969E+03 0.  0.
    9000005    1    3    3    0    0  0.57985747286E+02 -0.16819034011E+02  0.26017294709E+03  0.26708835466E+03  0.10000000000E+01 0.  0.
    9000005    1    3    3    0    0 -0.57985747286E+02  0.16819034011E+02  0.14963273050E+03  0.16135730796E+03  0.10000000000E+01 0.  0.
<mgrwt>
<rscale>  0 0.12499997E+03</rscale>
<asrwt>0</asrwt>
<pdfrwt beam="1">  1        4 0.64480880E-01 0.12499997E+03</pdfrwt>
<pdfrwt beam="2">  1       -4 0.14338448E-02 0.12499997E+03</pdfrwt>
<totfact> 0.61877170E+03</totfact>
</mgrwt>
</event>
<event>
 5    1  0.3243498E-002  0.1249996E+03  0.7818608E-02  0.1235070E+00
         -4   -1    0    0    0  501 -0.00000000000E+00  0.00000000000E+00  0.31188281012E+02  0.31214127771E+02  0.12700000000E+01 0. -1.
          4   -1    0    0  501    0  0.00000000000E+00 -0.00000000000E+00 -0.12516559543E+03  0.12517203833E+03  0.12700000000E+01 0. -1.
         25    2    1    2    0    0  0.00000000000E+00  0.00000000000E+00 -0.93977314422E+02  0.15638616610E+03  0.12499958929E+03 0.  0.
    9000005    1    3    3    0    0  0.51515073438E+01 -0.17281457582E+02 -0.12184584993E+03  0.12317709994E+03  0.10000000000E+01 0.  0.
    9000005    1    3    3    0    0 -0.51515073438E+01  0.17281457582E+02  0.27868535509E+02  0.33209066164E+02  0.10000000000E+01 0.  0.
<mgrwt>
<rscale>  0 0.12499959E+03</rscale>
<asrwt>0</asrwt>
<pdfrwt beam="2">  1        4 0.19258729E-01 0.12499959E+03</pdfrwt>
<pdfrwt beam="1">  1       -4 0.48006810E-02 0.12499959E+03</pdfrwt>
<totfact> 0.98044968E+03</totfact>
</mgrwt>
</event>
<event>
 5    1  0.3243498E-002  0.1250006E+03  0.7818608E-02  0.1235068E+00
         -4   -1    0    0    0  501 -0.00000000000E+00  0.00000000000E+00  0.52746025650E+02  0.52761312738E+02  0.12700000000E+01 0. -1.
          4   -1    0    0  501    0  0.00000000000E+00 -0.00000000000E+00 -0.74026979411E+02  0.74037872611E+02  0.12700000000E+01 0. -1.
         25    2    1    2    0    0  0.00000000000E+00  0.00000000000E+00 -0.21280953762E+02  0.12679918535E+03  0.12500061765E+03 0.  0.
    9000005    1    3    3    0    0 -0.41596928248E+02 -0.45866469991E+02 -0.19202966790E+02  0.64836652001E+02  0.10000000000E+01 0.  0.
    9000005    1    3    3    0    0  0.41596928248E+02  0.45866469991E+02 -0.20779869719E+01  0.61962533349E+02  0.10000000000E+01 0.  0.
<mgrwt>
<rscale>  0 0.12500062E+03</rscale>
<asrwt>0</asrwt>
<pdfrwt beam="2">  1        4 0.11390780E-01 0.12500062E+03</pdfrwt>
<pdfrwt beam="1">  1       -4 0.81167870E-02 0.12500062E+03</pdfrwt>
<totfact> 0.10413366E+04</totfact>
</mgrwt>
</event>
<event>
 5    1  0.3243498E-002  0.1249803E+03  0.7818608E-02  0.1235100E+00
          4   -1    0    0  501    0  0.00000000000E+00  0.00000000000E+00  0.11458128089E+03  0.11458831891E+03  0.12700000000E+01 0.  1.
         -4   -1    0    0    0  501 -0.00000000000E+00 -0.00000000000E+00 -0.34060855524E+02  0.34084524040E+02  0.12700000000E+01 0.  1.
         25    2    1    2    0    0  0.00000000000E+00  0.00000000000E+00  0.80520425369E+02  0.14867284295E+03  0.12498029977E+03 0.  0.
    9000005    1    3    3    0    0 -0.54256677466E+01  0.36331803903E+02 -0.19864071926E+02  0.41773426945E+02  0.10000000000E+01 0.  0.
    9000005    1    3    3    0    0  0.54256677466E+01 -0.36331803903E+02  0.10038449729E+03  0.10689941601E+03  0.10000000000E+01 0.  0.
<mgrwt>
<rscale>  0 0.12498030E+03</rscale>
<asrwt>0</asrwt>
<pdfrwt beam="1">  1        4 0.17630252E-01 0.12498030E+03</pdfrwt>
<pdfrwt beam="2">  1       -4 0.52424935E-02 0.12498030E+03</pdfrwt>
<totfact> 0.99613071E+03</totfact>
</mgrwt>
</event>
<event>
 5    1  0.3243498E-002  0.1250013E+03  0.7818608E-02  0.1235067E+00
         -4   -1    0    0    0  501 -0.00000000000E+00  0.00000000000E+00  0.22637769379E+02  0.22673365486E+02  0.12700000000E+01 0.  1.
          4   -1    0    0  501    0  0.00000000000E+00 -0.00000000000E+00 -0.17238468051E+03  0.17238935864E+03  0.12700000000E+01 0.  1.
         25    2    1    2    0    0  0.00000000000E+00  0.00000000000E+00 -0.14974691113E+03  0.19506272413E+03  0.12500131580E+03 0.  0.
    9000005    1    3    3    0    0  0.24855066469E+02 -0.54028183334E+02 -0.44917285165E+02  0.74534431172E+02  0.10000000000E+01 0.  0.
    9000005    1    3    3    0    0 -0.24855066469E+02  0.54028183334E+02 -0.10482962596E+03  0.12052829296E+03  0.10000000000E+01 0.  0.
<mgrwt>
<rscale>  0 0.12500132E+03</rscale>
<asrwt>0</asrwt>
<pdfrwt beam="2">  1        4 0.26523817E-01 0.12500132E+03</pdfrwt>
<pdfrwt beam="1">  1       -4 0.34858319E-02 0.12500132E+03</pdfrwt>
<totfact> 0.90971124E+03</totfact>
</mgrwt>
</event>
<event>
 5    1  0.3243498E-002  0.1249997E+03  0.7818608E-02  0.1235070E+00
         -4   -1    0    0    0  501 -0.00000000000E+00  0.00000000000E+00  0.22842750718E+01  0.26135823315E+01  0.12700000000E+01 0. -1.
          4   -1    0    0  501    0  0.00000000000E+00 -0.00000000000E+00 -0.15947479628E+04  0.15947484685E+04  0.12700000000E+01 0. -1.
         25    2    1    2    0    0  0.00000000000E+00  0.00000000000E+00 -0.15924636878E+04  0.15973620508E+04  0.12499969870E+03 0.  0.
    9000005    1    3    3    0    0  0.18721092872E+02  0.58714160130E+02 -0.66379920821E+03  0.66665449877E+03  0.10000000000E+01 0.  0.
    9000005    1    3    3    0    0 -0.18721092872E+02 -0.58714160130E+02 -0.92866447954E+03  0.93070755207E+03  0.10000000000E+01 0.  0.
<mgrwt>
<rscale>  0 0.12499970E+03</rscale>
<asrwt>0</asrwt>
<pdfrwt beam="2">  1        4 0.24537038E+00 0.12499970E+03</pdfrwt>
<pdfrwt beam="1">  1       -4 0.37679844E-03 0.12499970E+03</pdfrwt>
<totfact> 0.16094021E+03</totfact>
</mgrwt>
</event>
<event>
 5    1  0.3243498E-002  0.1250002E+03  0.7818608E-02  0.1235069E+00
          4   -1    0    0  501    0  0.00000000000E+00  0.00000000000E+00  0.38446524793E+03  0.38446734552E+03  0.12700000000E+01 0.  1.
         -4   -1    0    0    0  501 -0.00000000000E+00 -0.00000000000E+00 -0.10118426396E+02  0.10197816077E+02  0.12700000000E+01 0.  1.
         25    2    1    2    0    0  0.00000000000E+00  0.00000000000E+00  0.37434682154E+03  0.39466516159E+03  0.12500018792E+03 0.  0.
    9000005    1    3    3    0    0 -0.44915233984E+02  0.34331885128E+02  0.10309121000E+03  0.11757913998E+03  0.10000000000E+01 0.  0.
    9000005    1    3    3    0    0  0.44915233984E+02 -0.34331885128E+02  0.27125561154E+03  0.27708602161E+03  0.10000000000E+01 0.  0.
<mgrwt>
<rscale>  0 0.12500019E+03</rscale>
<asrwt>0</asrwt>
<pdfrwt beam="1">  1        4 0.59154776E-01 0.12500019E+03</pdfrwt>
<pdfrwt beam="2">  1       -4 0.15629490E-02 0.12500019E+03</pdfrwt>
<totfact> 0.65074700E+03</totfact>
</mgrwt>
</event>
<event>
 5    1  0.3243498E-002  0.1249814E+03  0.7818608E-02  0.1235098E+00
         -4   -1    0    0    0  501 -0.00000000000E+00  0.00000000000E+00  0.12420099345E+02  0.12484861543E+02  0.12700000000E+01 0.  1.
          4   -1    0    0  501    0  0.00000000000E+00 -0.00000000000E+00 -0.31353332460E+03  0.31353589672E+03  0.12700000000E+01 0.  1.
         25    2    1    2    0    0  0.00000000000E+00  0.00000000000E+00 -0.30111322525E+03  0.32602075827E+03  0.12498144021E+03 0.  0.
    9000005    1    3    3    0    0 -0.49029799738E+02 -0.32695308947E+02 -0.96389977523E+02  0.11298199970E+03  0.10000000000E+01 0.  0.
    9000005    1    3    3    0    0  0.49029799738E+02  0.32695308947E+02 -0.20472324773E+03  0.21303875857E+03  0.10000000000E+01 0.  0.
<mgrwt>
<rscale>  0 0.12498144E+03</rscale>
<asrwt>0</asrwt>
<pdfrwt beam="2">  1        4 0.48241070E-01 0.12498144E+03</pdfrwt>
<pdfrwt beam="1">  1       -4 0.19159643E-02 0.12498144E+03</pdfrwt>
<totfact> 0.72475518E+03</totfact>
</mgrwt>
</event>
<event>
 5    1  0.3243498E-002  0.1250018E+03  0.7818608E-02  0.1235067E+00
          4   -1    0    0  501    0  0.00000000000E+00  0.00000000000E+00  0.10218234716E+02  0.10296854894E+02  0.12700000000E+01 0.  1.
         -4   -1    0    0    0  501 -0.00000000000E+00 -0.00000000000E+00 -0.38074837287E+03  0.38075049093E+03  0.12700000000E+01 0.  1.
         25    2    1    2    0    0  0.00000000000E+00  0.00000000000E+00 -0.37053013815E+03  0.39104734582E+03  0.12500177357E+03 0.  0.
    9000005    1    3    3    0    0  0.48762922724E+02  0.47358639524E+01 -0.63899007048E+02  0.80525363344E+02  0.10000000000E+01 0.  0.
    9000005    1    3    3    0    0 -0.48762922724E+02 -0.47358639524E+01 -0.30663113111E+03  0.31052198248E+03  0.10000000000E+01 0.  0.
<mgrwt>
<rscale>  0 0.12500177E+03</rscale>
<asrwt>0</asrwt>
<pdfrwt beam="1">  1        4 0.15782470E-02 0.12500177E+03</pdfrwt>
<pdfrwt beam="2">  1       -4 0.58582873E-01 0.12500177E+03</pdfrwt>
<totfact> 0.65430369E+03</totfact>
</mgrwt>
</event>
<event>
 5    1  0.3243498E-002  0.1249994E+03  0.7818608E-02  0.1235070E+00
          4   -1    0    0  501    0  0.00000000000E+00  0.00000000000E+00  0.17863873354E+04  0.17863877868E+04  0.12700000000E+01 0. -1.
         -4   -1    0    0    0  501 -0.00000000000E+00 -0.00000000000E+00 -0.20017638392E+01  0.23706451585E+01  0.12700000000E+01 0. -1.
         25    2    1    2    0    0  0.00000000000E+00  0.00000000000E+00  0.17843855715E+04  0.17887584320E+04  0.12499944023E+03 0.  0.
    9000005    1    3    3    0    0 -0.61973288215E+02  0.79871850453E+01  0.90443139799E+03  0.90658790928E+03  0.10000000000E+01 0.  0.
    9000005    1    3    3    0    0  0.61973288215E+02 -0.79871850453E+01  0.87995417355E+03  0.88217052271E+03  0.10000000000E+01 0.  0.
<mgrwt>
<rscale>  0 0.12499944E+03</rscale>
<asrwt>0</asrwt>
<pdfrwt beam="1">  1        4 0.27485707E+00 0.12499944E+03</pdfrwt>
<pdfrwt beam="2">  1       -4 0.33637408E-03 0.12499944E+03</pdfrwt>
<totfact> 0.12877652E+03</totfact>
</mgrwt>
</event>
<event>
 5    1  0.3243498E-002  0.1249986E+03  0.7818608E-02  0.1235071E+00
          4   -1    0    0  501    0  0.00000000000E+00  0.00000000000E+00  0.75350671004E+02  0.75361372870E+02  0.12700000000E+01 0. -1.
         -4   -1    0    0    0  501 -0.00000000000E+00 -0.00000000000E+00 -0.51817624040E+02  0.51833184941E+02  0.12700000000E+01 0. -1.
         25    2    1    2    0    0  0.00000000000E+00  0.00000000000E+00  0.23533046965E+02  0.12719455781E+03  0.12499860494E+03 0.  0.
    9000005    1    3    3    0    0  0.78765618409E+01 -0.58608172230E+02  0.32325542134E+02  0.67401029316E+02  0.10000000000E+01 0.  0.
    9000005    1    3    3    0    0 -0.78765618409E+01  0.58608172230E+02 -0.87924951691E+01  0.59793528495E+02  0.10000000000E+01 0.  0.
<mgrwt>
<rscale>  0 0.12499860E+03</rscale>
<asrwt>0</asrwt>
<pdfrwt beam="1">  1        4 0.11594431E-01 0.12499860E+03</pdfrwt>
<pdfrwt beam="2">  1       -4 0.79739624E-02 0.12499860E+03</pdfrwt>
<totfact> 0.10405249E+04</totfact>
</mgrwt>
</event>
<event>
 5    1  0.3243498E-002  0.1250052E+03  0.7818608E-02  0.1235061E+00
          4   -1    0    0  501    0  0.00000000000E+00  0.00000000000E+00  0.26557256084E+02  0.26587605209E+02  0.12700000000E+01 0. -1.
         -4   -1    0    0    0  501 -0.00000000000E+00 -0.00000000000E+00 -0.14698300850E+03  0.14698849509E+03  0.12700000000E+01 0. -1.
         25    2    1    2    0    0  0.00000000000E+00  0.00000000000E+00 -0.12042575242E+03  0.17357610030E+03  0.12500520289E+03 0.  0.
    9000005    1    3    3    0    0 -0.51477456885E+02 -0.42349605305E+01 -0.10906366615E+03  0.12068034941E+03  0.10000000000E+01 0.  0.
    9000005    1    3    3    0    0  0.51477456885E+02  0.42349605305E+01 -0.11362086265E+02  0.52895750891E+02  0.10000000000E+01 0.  0.
<mgrwt>
<rscale>  0 0.12500520E+03</rscale>
<asrwt>0</asrwt>
<pdfrwt beam="1">  1        4 0.40884884E-02 0.12500520E+03</pdfrwt>
<pdfrwt beam="2">  1       -4 0.22615527E-01 0.12500520E+03</pdfrwt>
<totfact> 0.94775209E+03</totfact>
</mgrwt>
</event>
<event>
 5    1  0.3243498E-002  0.1250093E+03  0.7818608E-02  0.1235055E+00
         -4   -1    0    0    0  501 -0.00000000000E+00  0.00000000000E+00  0.10147727392E+03  0.10148522071E+03  0.12700000000E+01 0. -1.
          4   -1    0    0  501    0  0.00000000000E+00 -0.00000000000E+00 -0.38479639895E+02  0.38500592027E+02  0.12700000000E+01 0. -1.
         25    2    1    2    0    0  0.00000000000E+00  0.00000000000E+00  0.62997634023E+02  0.13998581273E+03  0.12500930315E+03 0.  0.
    9000005    1    3    3    0    0 -0.15789466909E+02  0.43583633876E+02 -0.15439386634E+02  0.48869367366E+02  0.10000000000E+01 0.  0.
    9000005    1    3    3    0    0  0.15789466909E+02 -0.43583633876E+02  0.78437020656E+02  0.91116445368E+02  0.10000000000E+01 0.  0.
<mgrwt>
<rscale>  0 0.12500930E+03</rscale>
<asrwt>0</asrwt>
<pdfrwt beam="2">  1        4 0.59221676E-02 0.12500930E+03</pdfrwt>
<pdfrwt beam="1">  1       -4 0.15614111E-01 0.12500930E+03</pdfrwt>
<totfact> 0.10131756E+04</totfact>
</mgrwt>
</event>
<event>
 5    1  0.3243498E-002  0.1249987E+03  0.7818608E-02  0.1235071E+00
          4   -1    0    0  501    0  0.00000000000E+00  0.00000000000E+00  0.36633392844E+02  0.36655400301E+02  0.12700000000E+01 0.  1.
         -4   -1    0    0    0  501 -0.00000000000E+00 -0.00000000000E+00 -0.10657088468E+03  0.10657845167E+03  0.12700000000E+01 0.  1.
         25    2    1    2    0    0  0.00000000000E+00  0.00000000000E+00 -0.69937491834E+02  0.14323385197E+03  0.12499873434E+03 0.  0.
    9000005    1    3    3    0    0  0.32491457803E+02 -0.35258886803E+02 -0.80894005932E+02  0.94041076794E+02  0.10000000000E+01 0.  0.
    9000005    1    3    3    0    0 -0.32491457803E+02  0.35258886803E+02  0.10956514098E+02  0.49192775180E+02  0.10000000000E+01 0.  0.
<mgrwt>
<rscale>  0 0.12499873E+03</rscale>
<asrwt>0</asrwt>
<pdfrwt beam="1">  1        4 0.56381816E-02 0.12499873E+03</pdfrwt>
<pdfrwt beam="2">  1       -4 0.16397795E-01 0.12499873E+03</pdfrwt>
<totfact> 0.10067284E+04</totfact>
</mgrwt>
</event>
<event>
 5    1  0.3243498E-002  0.1250002E+03  0.7818608E-02  0.1235069E+00
          4   -1    0    0  501    0  0.00000000000E+00  0.00000000000E+00  0.41233504922E+01  0.43145010467E+01  0.12700000000E+01 0. -1.
         -4   -1    0    0    0  501 -0.00000000000E+00 -0.00000000000E+00 -0.92569921128E+03  0.92570008246E+03  0.12700000000E+01 0. -1.
         25    2    1    2    0    0  0.00000000000E+00  0.00000000000E+00 -0.92157586079E+03  0.93001458350E+03  0.12500023338E+03 0.  0.
    9000005    1    3    3    0    0  0.55823200850E+00  0.34276803441E+02 -0.72043186167E+02  0.79789921357E+02  0.10000000000E+01 0.  0.
    9000005    1    3    3    0    0 -0.55823200850E+00 -0.34276803441E+02 -0.84953267462E+03  0.85022466215E+03  0.10000000000E+01 0.  0.
<mgrwt>
<rscale>  0 0.12500023E+03</rscale>
<asrwt>0</asrwt>
<pdfrwt beam="1">  1        4 0.64913325E-03 0.12500023E+03</pdfrwt>
<pdfrwt beam="2">  1       -4 0.14242987E+00 0.12500023E+03</pdfrwt>
<totfact> 0.33036197E+03</totfact>
</mgrwt>
</event>
<event>
 5    1  0.3243498E-002  0.1250010E+03  0.7818608E-02  0.1235068E+00
         -4   -1    0    0    0  501 -0.00000000000E+00  0.00000000000E+00  0.47729289674E+03  0.47729458637E+03  0.12700000000E+01 0. -1.
          4   -1    0    0  501    0  0.00000000000E+00 -0.00000000000E+00 -0.81333315826E+01  0.82318881572E+01  0.12700000000E+01 0. -1.
         25    2    1    2    0    0  0.00000000000E+00  0.00000000000E+00  0.46915956515E+03  0.48552647452E+03  0.12500103955E+03 0.  0.
    9000005    1    3    3    0    0  0.18854377435E+02 -0.44678117876E+02  0.38768215645E+03  0.39070458942E+03  0.10000000000E+01 0.  0.
    9000005    1    3    3    0    0 -0.18854377435E+02  0.44678117876E+02  0.81477408708E+02  0.94821885107E+02  0.10000000000E+01 0.  0.
<mgrwt>
<rscale>  0 0.12500104E+03</rscale>
<asrwt>0</asrwt>
<pdfrwt beam="2">  1        4 0.12589925E-02 0.12500104E+03</pdfrwt>
<pdfrwt beam="1">  1       -4 0.73437421E-01 0.12500104E+03</pdfrwt>
<totfact> 0.57003762E+03</totfact>
</mgrwt>
</event>
<event>
 5    1  0.3243498E-002  0.1249913E+03  0.7818608E-02  0.1235083E+00
         -4   -1    0    0    0  501 -0.00000000000E+00  0.00000000000E+00  0.20199931537E+03  0.20200330767E+03  0.12700000000E+01 0.  1.
          4   -1    0    0  501    0  0.00000000000E+00 -0.00000000000E+00 -0.19310215656E+02  0.19351933461E+02  0.12700000000E+01 0.  1.
         25    2    1    2    0    0  0.00000000000E+00  0.00000000000E+00  0.18268909972E+03  0.22135524113E+03  0.12499134219E+03 0.  0.
    9000005    1    3    3    0    0  0.52620853172E+02 -0.27766783820E+02  0.12516767553E+03  0.13859255200E+03  0.10000000000E+01 0.  0.
    9000005    1    3    3    0    0 -0.52620853172E+02  0.27766783820E+02  0.57521424186E+02  0.82762689133E+02  0.10000000000E+01 0.  0.
<mgrwt>
<rscale>  0 0.12499134E+03</rscale>
<asrwt>0</asrwt>
<pdfrwt beam="2">  1        4 0.29743186E-02 0.12499134E+03</pdfrwt>
<pdfrwt beam="1">  1       -4 0.31080334E-01 0.12499134E+03</pdfrwt>
<totfact> 0.86671111E+03</totfact>
</mgrwt>
</event>
<event>
 5    1  0.3243498E-002  0.1249919E+03  0.7818608E-02  0.1235082E+00
          4   -1    0    0  501    0  0.00000000000E+00  0.00000000000E+00  0.12081562942E+02  0.12148130026E+02  0.12700000000E+01 0. -1.
         -4   -1    0    0    0  501 -0.00000000000E+00 -0.00000000000E+00 -0.32232531422E+03  0.32232781618E+03  0.12700000000E+01 0. -1.
         25    2    1    2    0    0  0.00000000000E+00  0.00000000000E+00 -0.31024375128E+03  0.33447594621E+03  0.12499189328E+03 0.  0.
    9000005    1    3    3    0    0  0.10106761975E+02 -0.61099219889E+02 -0.17742775343E+03  0.18792782922E+03  0.10000000000E+01 0.  0.
    9000005    1    3    3    0    0 -0.10106761975E+02  0.61099219889E+02 -0.13281599784E+03  0.14654811698E+03  0.10000000000E+01 0.  0.
<mgrwt>
<rscale>  0 0.12499189E+03</rscale>
<asrwt>0</asrwt>
<pdfrwt beam="1">  1        4 0.18640152E-02 0.12499189E+03</pdfrwt>
<pdfrwt beam="2">  1       -4 0.49593816E-01 0.12499189E+03</pdfrwt>
<totfact> 0.71479685E+03</totfact>
</mgrwt>
</event>
<event>
 5    1  0.3243498E-002  0.1250011E+03  0.7818608E-02  0.1235068E+00
         -4   -1    0    0    0  501 -0.00000000000E+00  0.00000000000E+00  0.20311767425E+03  0.20312164457E+03  0.12700000000E+01 0. -1.
          4   -1    0    0  501    0  0.00000000000E+00 -0.00000000000E+00 -0.19206679783E+02  0.19248621984E+02  0.12700000000E+01 0. -1.
         25    2    1    2    0    0  0.00000000000E+00  0.00000000000E+00  0.18391099447E+03  0.22237026655E+03  0.12500112624E+03 0.  0.
    9000005    1    3    3    0    0  0.48521427962E+02  0.16434441337E+02  0.15562339319E+03  0.16384157086E+03  0.10000000000E+01 0.  0.
    9000005    1    3    3    0    0 -0.48521427962E+02 -0.16434441337E+02  0.28287601274E+02  0.58528695692E+02  0.10000000000E+01 0.  0.
<mgrwt>
<rscale>  0 0.12500113E+03</rscale>
<asrwt>0</asrwt>
<pdfrwt beam="2">  1        4 0.29584056E-02 0.12500113E+03</pdfrwt>
<pdfrwt beam="1">  1       -4 0.31252404E-01 0.12500113E+03</pdfrwt>
<totfact> 0.86492494E+03</totfact>
</mgrwt>
</event>
<event>
 5    1  0.3243498E-002  0.1250060E+03  0.7818608E-02  0.1235060E+00
          4   -1    0    0  501    0  0.00000000000E+00  0.00000000000E+00  0.22092814233E+02  0.22129286946E+02  0.12700000000E+01 0. -1.
         -4   -1    0    0    0  501 -0.00000000000E+00 -0.00000000000E+00 -0.17664322003E+03  0.17664778539E+03  0.12700000000E+01 0. -1.
         25    2    1    2    0    0  0.00000000000E+00  0.00000000000E+00 -0.15455040580E+03  0.19877707234E+03  0.12500598607E+03 0.  0.
    9000005    1    3    3    0    0 -0.36251022573E+02  0.47844910177E+02 -0.10492500030E+03  0.12088642503E+03  0.10000000000E+01 0.  0.
    9000005    1    3    3    0    0  0.36251022573E+02 -0.47844910177E+02 -0.49625405494E+02  0.77890647307E+02  0.10000000000E+01 0.  0.
<mgrwt>
<rscale>  0 0.12500599E+03</rscale>
<asrwt>0</asrwt>
<pdfrwt beam="1">  1        4 0.34020514E-02 0.12500599E+03</pdfrwt>
<pdfrwt beam="2">  1       -4 0.27179036E-01 0.12500599E+03</pdfrwt>
<totfact> 0.90330060E+03</totfact>
</mgrwt>
</event>
<event>
 5    1  0.3243498E-002  0.1250021E+03  0.7818608E-02  0.1235066E+00
          4   -1    0    0  501    0  0.00000000000E+00  0.00000000000E+00  0.13125131273E+03  0.13125745691E+03  0.12700000000E+01 0. -1.
         -4   -1    0    0    0  501 -0.00000000000E+00 -0.00000000000E+00 -0.29742203577E+02  0.29769305898E+02  0.12700000000E+01 0. -1.
         25    2    1    2    0    0  0.00000000000E+00  0.00000000000E+00  0.10150910916E+03  0.16102676281E+03  0.12500207638E+03 0.  0.
    9000005    1    3    3    0    0  0.54085869531E+02 -0.27296055621E+02  0.70503176399E+02  0.92962647433E+02  0.10000000000E+01 0.  0.
    9000005    1    3    3    0    0 -0.54085869531E+02  0.27296055621E+02  0.31005932757E+02  0.68064115373E+02  0.10000000000E+01 0.  0.
<mgrwt>
<rscale>  0 0.12500208E+03</rscale>
<asrwt>0</asrwt>
<pdfrwt beam="1">  1        4 0.20195067E-01 0.12500208E+03</pdfrwt>
<pdfrwt beam="2">  1       -4 0.45782810E-02 0.12500208E+03</pdfrwt>
<totfact> 0.97140664E+03</totfact>
</mgrwt>
</event>
<event>
 5    1  0.3243498E-002  0.1249999E+03  0.7818608E-02  0.1235069E+00
         -4   -1    0    0    0  501 -0.00000000000E+00  0.00000000000E+00  0.10190908421E+03  0.10191699733E+03  0.12700000000E+01 0. -1.
          4   -1    0    0  501    0  0.00000000000E+00 -0.00000000000E+00 -0.38310759435E+02  0.38331803877E+02  0.12700000000E+01 0. -1.
         25    2    1    2    0    0  0.00000000000E+00  0.00000000000E+00  0.63598324780E+02  0.14024880121E+03  0.12499991731E+03 0.  0.
    9000005    1    3    3    0    0  0.52027533632E+02  0.19072186379E+02 -0.61516553319E+00  0.55425544451E+02  0.10000000000E+01 0.  0.
    9000005    1    3    3    0    0 -0.52027533632E+02 -0.19072186379E+02  0.64213490313E+02  0.84823256759E+02  0.10000000000E+01 0.  0.
<mgrwt>
<rscale>  0 0.12499992E+03</rscale>
<asrwt>0</asrwt>
<pdfrwt beam="2">  1        4 0.58961906E-02 0.12499992E+03</pdfrwt>
<pdfrwt beam="1">  1       -4 0.15680548E-01 0.12499992E+03</pdfrwt>
<totfact> 0.10128451E+04</totfact>
</mgrwt>
</event>
<event>
 5    1  0.3243498E-002  0.1249975E+03  0.7818608E-02  0.1235073E+00
         -4   -1    0    0    0  501 -0.00000000000E+00  0.00000000000E+00  0.51683775813E+01  0.53221261563E+01  0.12700000000E+01 0. -1.
          4   -1    0    0  501    0  0.00000000000E+00 -0.00000000000E+00 -0.74453727391E+03  0.74453835706E+03  0.12700000000E+01 0. -1.
         25    2    1    2    0    0  0.00000000000E+00  0.00000000000E+00 -0.73936889633E+03  0.74986048322E+03  0.12499751773E+03 0.  0.
    9000005    1    3    3    0    0  0.16388865466E+02 -0.44480635034E+02 -0.12541575277E+03  0.13407920363E+03  0.10000000000E+01 0.  0.
    9000005    1    3    3    0    0 -0.16388865466E+02  0.44480635034E+02 -0.61395314356E+03  0.61578127959E+03  0.10000000000E+01 0.  0.
<mgrwt>
<rscale>  0 0.12499752E+03</rscale>
<asrwt>0</asrwt>
<pdfrwt beam="2">  1        4 0.11455602E+00 0.12499752E+03</pdfrwt>
<pdfrwt beam="1">  1       -4 0.80704574E-03 0.12499752E+03</pdfrwt>
<totfact> 0.40583036E+03</totfact>
</mgrwt>
</event>
<event>
 5    1  0.3243498E-002  0.1249988E+03  0.7818608E-02  0.1235071E+00
         -4   -1    0    0    0  501 -0.00000000000E+00  0.00000000000E+00  0.18285665227E+02  0.18329715022E+02  0.12700000000E+01 0.  1.
          4   -1    0    0  501    0  0.00000000000E+00 -0.00000000000E+00 -0.21331668540E+03  0.21332046589E+03  0.12700000000E+01 0.  1.
         25    2    1    2    0    0  0.00000000000E+00  0.00000000000E+00 -0.19503102017E+03  0.23165018091E+03  0.12499882995E+03 0.  0.
    9000005    1    3    3    0    0  0.28759383312E+02 -0.18682557698E+02 -0.70302004343E+00  0.34316677110E+02  0.10000000000E+01 0.  0.
    9000005    1    3    3    0    0 -0.28759383312E+02  0.18682557698E+02 -0.19432800013E+03  0.19733350380E+03  0.10000000000E+01 0.  0.
<mgrwt>
<rscale>  0 0.12499883E+03</rscale>
<asrwt>0</asrwt>
<pdfrwt beam="2">  1        4 0.32821629E-01 0.12499883E+03</pdfrwt>
<pdfrwt beam="1">  1       -4 0.28168587E-02 0.12499883E+03</pdfrwt>
<totfact> 0.85059074E+03</totfact>
</mgrwt>
</event>
<event>
 5    1  0.3243498E-002  0.1250010E+03  0.7818608E-02  0.1235068E+00
         -4   -1    0    0    0  501 -0.00000000000E+00  0.00000000000E+00  0.29887705048E+03  0.29887974873E+03  0.12700000000E+01 0.  1.
          4   -1    0    0  501    0  0.00000000000E+00 -0.00000000000E+00 -0.13036347716E+02  0.13098063284E+02  0.12700000000E+01 0.  1.
         25    2    1    2    0    0  0.00000000000E+00  0.00000000000E+00  0.28584070276E+03  0.31197781202E+03  0.12500099134E+03 0.  0.
    9000005    1    3    3    0    0 -0.28528394996E+02  0.18905721342E+02  0.27342043906E+03  0.27555586024E+03  0.10000000000E+01 0.  0.
    9000005    1    3    3    0    0  0.28528394996E+02 -0.18905721342E+02  0.12420263706E+02  0.36421951774E+02  0.10000000000E+01 0.  0.
<mgrwt>
<rscale>  0 0.12500099E+03</rscale>
<asrwt>0</asrwt>
<pdfrwt beam="2">  1        4 0.20105469E-02 0.12500099E+03</pdfrwt>
<pdfrwt beam="1">  1       -4 0.45986038E-01 0.12500099E+03</pdfrwt>
<totfact> 0.74118885E+03</totfact>
</mgrwt>
</event>
<event>
 5    1  0.3243498E-002  0.1250014E+03  0.7818608E-02  0.1235067E+00
         -4   -1    0    0    0  501 -0.00000000000E+00  0.00000000000E+00  0.15117068614E+03  0.15117602075E+03  0.12700000000E+01 0.  1.
          4   -1    0    0  501    0  0.00000000000E+00 -0.00000000000E+00 -0.25819177384E+02  0.25850393049E+02  0.12700000000E+01 0.  1.
         25    2    1    2    0    0  0.00000000000E+00  0.00000000000E+00  0.12535150876E+03  0.17702641380E+03  0.12500140173E+03 0.  0.
    9000005    1    3    3    0    0  0.27646950702E+02  0.26556478089E+02 -0.72180053382E+01  0.39021788947E+02  0.10000000000E+01 0.  0.
    9000005    1    3    3    0    0 -0.27646950702E+02 -0.26556478089E+02  0.13256951410E+03  0.13800462485E+03  0.10000000000E+01 0.  0.
<mgrwt>
<rscale>  0 0.12500140E+03</rscale>
<asrwt>0</asrwt>
<pdfrwt beam="2">  1        4 0.39749928E-02 0.12500140E+03</pdfrwt>
<pdfrwt beam="1">  1       -4 0.23259840E-01 0.12500140E+03</pdfrwt>
<totfact> 0.94152053E+03</totfact>
</mgrwt>
</event>
<event>
 5    1  0.3243498E-002  0.1250006E+03  0.7818608E-02  0.1235068E+00
         -4   -1    0    0    0  501 -0.00000000000E+00  0.00000000000E+00  0.71573554231E+01  0.72691565296E+01  0.12700000000E+01 0. -1.
          4   -1    0    0  501    0  0.00000000000E+00 -0.00000000000E+00 -0.54143049843E+03  0.54143198791E+03  0.12700000000E+01 0. -1.
         25    2    1    2    0    0  0.00000000000E+00  0.00000000000E+00 -0.53427314301E+03  0.54870114444E+03  0.12500061827E+03 0.  0.
    9000005    1    3    3    0    0 -0.10341038070E+02  0.58010583162E+02 -0.17578211529E+03  0.18539826559E+03  0.10000000000E+01 0.  0.
    9000005    1    3    3    0    0  0.10341038070E+02 -0.58010583162E+02 -0.35849102771E+03  0.36330287885E+03  0.10000000000E+01 0.  0.
<mgrwt>
<rscale>  0 0.12500062E+03</rscale>
<asrwt>0</asrwt>
<pdfrwt beam="2">  1        4 0.83305683E-01 0.12500062E+03</pdfrwt>
<pdfrwt beam="1">  1       -4 0.11098467E-02 0.12500062E+03</pdfrwt>
<totfact> 0.52273884E+03</totfact>
</mgrwt>
</event>
<event>
 5    1  0.3243498E-002  0.1249934E+03  0.7818608E-02  0.1235080E+00
          4   -1    0    0  501    0  0.00000000000E+00  0.00000000000E+00  0.15708522873E+04  0.15708528007E+04  0.12700000000E+01 0. -1.
         -4   -1    0    0    0  501 -0.00000000000E+00 -0.00000000000E+00 -0.23237295026E+01  0.26481349666E+01  0.12700000000E+01 0. -1.
         25    2    1    2    0    0  0.00000000000E+00  0.00000000000E+00  0.15685285578E+04  0.15735009357E+04  0.12499343129E+03 0.  0.
    9000005    1    3    3    0    0 -0.21651094873E+02 -0.58510137489E+02  0.82900875172E+03  0.83135354485E+03  0.10000000000E+01 0.  0.
    9000005    1    3    3    0    0  0.21651094873E+02  0.58510137489E+02  0.73951980612E+03  0.74214739085E+03  0.10000000000E+01 0.  0.
<mgrwt>
<rscale>  0 0.12499343E+03</rscale>
<asrwt>0</asrwt>
<pdfrwt beam="1">  1        4 0.24169365E+00 0.12499343E+03</pdfrwt>
<pdfrwt beam="2">  1       -4 0.38249208E-03 0.12499343E+03</pdfrwt>
<totfact> 0.16532482E+03</totfact>
</mgrwt>
</event>
<event>
 5    1  0.3243498E-002  0.1249954E+03  0.7818608E-02  0.1235076E+00
          4   -1    0    0  501    0  0.00000000000E+00  0.00000000000E+00  0.38430613023E+03  0.38430822868E+03  0.12700000000E+01 0.  1.
         -4   -1    0    0    0  501 -0.00000000000E+00 -0.00000000000E+00 -0.10121873962E+02  0.10201236813E+02  0.12700000000E+01 0.  1.
         25    2    1    2    0    0  0.00000000000E+00  0.00000000000E+00  0.37418425627E+03  0.39450946549E+03  0.12499544282E+03 0.  0.
    9000005    1    3    3    0    0 -0.41400146940E+02 -0.38030295486E+02  0.10096283076E+03  0.11556283459E+03  0.10000000000E+01 0.  0.
    9000005    1    3    3    0    0  0.41400146940E+02  0.38030295486E+02  0.27322142550E+03  0.27894663091E+03  0.10000000000E+01 0.  0.
<mgrwt>
<rscale>  0 0.12499544E+03</rscale>
<asrwt>0</asrwt>
<pdfrwt beam="1">  1        4 0.59130287E-01 0.12499544E+03</pdfrwt>
<pdfrwt beam="2">  1       -4 0.15634776E-02 0.12499544E+03</pdfrwt>
<totfact> 0.65096866E+03</totfact>
</mgrwt>
</event>
<event>
 5    1  0.3243498E-002  0.1249986E+03  0.7818608E-02  0.1235071E+00
          4   -1    0    0  501    0  0.00000000000E+00  0.00000000000E+00  0.86222749479E+02  0.86232102071E+02  0.12700000000E+01 0.  1.
         -4   -1    0    0    0  501 -0.00000000000E+00 -0.00000000000E+00 -0.45282443613E+02  0.45300249443E+02  0.12700000000E+01 0.  1.
         25    2    1    2    0    0  0.00000000000E+00  0.00000000000E+00  0.40940305865E+02  0.13153235151E+03  0.12499860339E+03 0.  0.
    9000005    1    3    3    0    0  0.59608793273E+02 -0.16986404072E+02  0.28849858186E+02  0.68374413899E+02  0.10000000000E+01 0.  0.
    9000005    1    3    3    0    0 -0.59608793273E+02  0.16986404072E+02  0.12090447679E+02  0.63157937615E+02  0.10000000000E+01 0.  0.
<mgrwt>
<rscale>  0 0.12499860E+03</rscale>
<asrwt>0</asrwt>
<pdfrwt beam="1">  1        4 0.13267127E-01 0.12499860E+03</pdfrwt>
<pdfrwt beam="2">  1       -4 0.69686189E-02 0.12499860E+03</pdfrwt>
<totfact> 0.10312015E+04</totfact>
</mgrwt>
</event>
<event>
 5    1  0.3243498E-002  0.1250062E+03  0.7818608E-02  0.1235060E+00
         -4   -1    0    0    0  501 -0.00000000000E+00  0.00000000000E+00  0.44738679658E+02  0.44756701817E+02  0.12700000000E+01 0. -1.
          4   -1    0    0  501    0  0.00000000000E+00 -0.00000000000E+00 -0.87281003880E+02  0.87290243087E+02  0.12700000000E+01 0. -1.
         25    2    1    2    0    0  0.00000000000E+00  0.00000000000E+00 -0.42542324222E+02  0.13204694490E+03  0.12500618508E+03 0.  0.
    9000005    1    3    3    0    0  0.20061492431E+02 -0.54709137433E+02 -0.45128250661E+02  0.73709647977E+02  0.10000000000E+01 0.  0.
    9000005    1    3    3    0    0 -0.20061492431E+02  0.54709137433E+02  0.25859264392E+01  0.58337296927E+02  0.10000000000E+01 0.  0.
<mgrwt>
<rscale>  0 0.12500619E+03</rscale>
<asrwt>0</asrwt>
<pdfrwt beam="2">  1        4 0.13429944E-01 0.12500619E+03</pdfrwt>
<pdfrwt beam="1">  1       -4 0.68849708E-02 0.12500619E+03</pdfrwt>
<totfact> 0.10299259E+04</totfact>
</mgrwt>
</event>
<event>
 5    1  0.3243498E-002  0.1249908E+03  0.7818608E-02  0.1235084E+00
         -4   -1    0    0    0  501 -0.00000000000E+00  0.00000000000E+00  0.49905242429E+01  0.51495856356E+01  0.12700000000E+01 0. -1.
          4   -1    0    0  501    0  0.00000000000E+00 -0.00000000000E+00 -0.77018275805E+03  0.77018380514E+03  0.12700000000E+01 0. -1.
         25    2    1    2    0    0  0.00000000000E+00  0.00000000000E+00 -0.76519223381E+03  0.77533339077E+03  0.12499084835E+03 0.  0.
    9000005    1    3    3    0    0 -0.45994967462E+02 -0.24498971742E+01 -0.64453675026E+03  0.64618121411E+03  0.10000000000E+01 0.  0.
    9000005    1    3    3    0    0  0.45994967462E+02  0.24498971742E+01 -0.12065548355E+03  0.12915217667E+03  0.10000000000E+01 0.  0.
<mgrwt>
<rscale>  0 0.12499085E+03</rscale>
<asrwt>0</asrwt>
<pdfrwt beam="2">  1        4 0.11850188E+00 0.12499085E+03</pdfrwt>
<pdfrwt beam="1">  1       -4 0.78008961E-03 0.12499085E+03</pdfrwt>
<totfact> 0.39397796E+03</totfact>
</mgrwt>
</event>
<event>
 5    1  0.3243498E-002  0.1249944E+03  0.7818608E-02  0.1235078E+00
          4   -1    0    0  501    0  0.00000000000E+00  0.00000000000E+00  0.29903442056E+02  0.29930398374E+02  0.12700000000E+01 0.  1.
         -4   -1    0    0    0  501 -0.00000000000E+00 -0.00000000000E+00 -0.13052822086E+03  0.13053439907E+03  0.12700000000E+01 0.  1.
         25    2    1    2    0    0  0.00000000000E+00  0.00000000000E+00 -0.10062477880E+03  0.16046479744E+03  0.12499442031E+03 0.  0.
    9000005    1    3    3    0    0 -0.62305855142E+02  0.37245951822E+01 -0.46459119417E+02  0.77816077846E+02  0.10000000000E+01 0.  0.
    9000005    1    3    3    0    0  0.62305855142E+02 -0.37245951822E+01 -0.54165659383E+02  0.82648719595E+02  0.10000000000E+01 0.  0.
<mgrwt>
<rscale>  0 0.12499442E+03</rscale>
<asrwt>0</asrwt>
<pdfrwt beam="1">  1        4 0.46030784E-02 0.12499442E+03</pdfrwt>
<pdfrwt beam="2">  1       -4 0.20083813E-01 0.12499442E+03</pdfrwt>
<totfact> 0.97265448E+03</totfact>
</mgrwt>
</event>
<event>
 5    1  0.3243498E-002  0.1250000E+03  0.7818608E-02  0.1235069E+00
          4   -1    0    0  501    0  0.00000000000E+00  0.00000000000E+00  0.32483105500E+02  0.32507922772E+02  0.12700000000E+01 0.  1.
         -4   -1    0    0    0  501 -0.00000000000E+00 -0.00000000000E+00 -0.12018075226E+03  0.12018746238E+03  0.12700000000E+01 0.  1.
         25    2    1    2    0    0  0.00000000000E+00  0.00000000000E+00 -0.87697646755E+02  0.15269538515E+03  0.12500001360E+03 0.  0.
    9000005    1    3    3    0    0  0.40388549115E+02  0.24826355867E+02 -0.93584110448E+02  0.10491219459E+03  0.10000000000E+01 0.  0.
    9000005    1    3    3    0    0 -0.40388549115E+02 -0.24826355867E+02  0.58864636926E+01  0.47783190560E+02  0.10000000000E+01 0.  0.
<mgrwt>
<rscale>  0 0.12500001E+03</rscale>
<asrwt>0</asrwt>
<pdfrwt beam="1">  1        4 0.49998261E-02 0.12500001E+03</pdfrwt>
<pdfrwt beam="2">  1       -4 0.18491771E-01 0.12500001E+03</pdfrwt>
<totfact> 0.98769072E+03</totfact>
</mgrwt>
</event>
<event>
 5    1  0.3243498E-002  0.1250019E+03  0.7818608E-02  0.1235066E+00
          4   -1    0    0  501    0  0.00000000000E+00  0.00000000000E+00  0.51281814844E+02  0.51297538281E+02  0.12700000000E+01 0.  1.
         -4   -1    0    0    0  501 -0.00000000000E+00 -0.00000000000E+00 -0.76141798523E+02  0.76152389209E+02  0.12700000000E+01 0.  1.
         25    2    1    2    0    0  0.00000000000E+00  0.00000000000E+00 -0.24859983679E+02  0.12744992749E+03  0.12500186090E+03 0.  0.
    9000005    1    3    3    0    0 -0.12591912796E+02 -0.26809254002E+02  0.43675626371E+02  0.52781177582E+02  0.10000000000E+01 0.  0.
    9000005    1    3    3    0    0  0.12591912796E+02  0.26809254002E+02 -0.68535610050E+02  0.74668749909E+02  0.10000000000E+01 0.  0.
<mgrwt>
<rscale>  0 0.12500186E+03</rscale>
<asrwt>0</asrwt>
<pdfrwt beam="1">  1        4 0.78915341E-02 0.12500186E+03</pdfrwt>
<pdfrwt beam="2">  1       -4 0.11716147E-01 0.12500186E+03</pdfrwt>
<totfact> 0.10398948E+04</totfact>
</mgrwt>
</event>
<event>
 5    1  0.3243498E-002  0.1249966E+03  0.7818608E-02  0.1235075E+00
          4   -1    0    0  501    0  0.00000000000E+00  0.00000000000E+00  0.98693654264E+03  0.98693735976E+03  0.12700000000E+01 0. -1.
         -4   -1    0    0    0  501 -0.00000000000E+00 -0.00000000000E+00 -0.38550145464E+01  0.40588221387E+01  0.12700000000E+01 0. -1.
         25    2    1    2    0    0  0.00000000000E+00  0.00000000000E+00  0.98308152809E+03  0.99099618190E+03  0.12499656662E+03 0.  0.
    9000005    1    3    3    0    0  0.55673329458E+02 -0.15524251171E+02  0.30317106836E+03  0.30863282178E+03  0.10000000000E+01 0.  0.
    9000005    1    3    3    0    0 -0.55673329458E+02  0.15524251171E+02  0.67991045973E+03  0.68236336012E+03  0.10000000000E+01 0.  0.
<mgrwt>
<rscale>  0 0.12499657E+03</rscale>
<asrwt>0</asrwt>
<pdfrwt beam="1">  1        4 0.15185207E+00 0.12499657E+03</pdfrwt>
<pdfrwt beam="2">  1       -4 0.60881978E-03 0.12499657E+03</pdfrwt>
<totfact> 0.30905974E+03</totfact>
</mgrwt>
</event>
<event>
 5    1  0.3243498E-002  0.1249987E+03  0.7818608E-02  0.1235071E+00
         -4   -1    0    0    0  501 -0.00000000000E+00  0.00000000000E+00  0.16228917392E+02  0.16278533709E+02  0.12700000000E+01 0. -1.
          4   -1    0    0  501    0  0.00000000000E+00 -0.00000000000E+00 -0.24027333905E+03  0.24027669541E+03  0.12700000000E+01 0. -1.
         25    2    1    2    0    0  0.00000000000E+00  0.00000000000E+00 -0.22404442166E+03  0.25655522912E+03  0.12499873085E+03 0.  0.
    9000005    1    3    3    0    0 -0.35050870342E+02  0.46364710406E+02 -0.64908432217E+02  0.87134117632E+02  0.10000000000E+01 0.  0.
    9000005    1    3    3    0    0  0.35050870342E+02 -0.46364710406E+02 -0.15913598944E+03  0.16942111149E+03  0.10000000000E+01 0.  0.
<mgrwt>
<rscale>  0 0.12499873E+03</rscale>
<asrwt>0</asrwt>
<pdfrwt beam="2">  1        4 0.36969201E-01 0.12499873E+03</pdfrwt>
<pdfrwt beam="1">  1       -4 0.25008315E-02 0.12499873E+03</pdfrwt>
<totfact> 0.81394230E+03</totfact>
</mgrwt>
</event>
<event>
 5    1  0.3243498E-002  0.1250000E+03  0.7818608E-02  0.1235069E+00
         -4   -1    0    0    0  501 -0.00000000000E+00  0.00000000000E+00  0.21226603062E+02  0.21264561541E+02  0.12700000000E+01 0. -1.
          4   -1    0    0  501    0  0.00000000000E+00 -0.00000000000E+00 -0.18382163188E+03  0.18382601897E+03  0.12700000000E+01 0. -1.
         25    2    1    2    0    0  0.00000000000E+00  0.00000000000E+00 -0.16259502882E+03  0.20509058051E+03  0.12500001126E+03 0.  0.
    9000005    1    3    3    0    0  0.45664443470E+02 -0.39827290409E+02 -0.10638484357E+03  0.12243442898E+03  0.10000000000E+01 0.  0.
    9000005    1    3    3    0    0 -0.45664443470E+02  0.39827290409E+02 -0.56210185256E+02  0.82656151527E+02  0.10000000000E+01 0.  0.
<mgrwt>
<rscale>  0 0.12500001E+03</rscale>
<asrwt>0</asrwt>
<pdfrwt beam="2">  1        4 0.28283507E-01 0.12500001E+03</pdfrwt>
<pdfrwt beam="1">  1       -4 0.32688887E-02 0.12500001E+03</pdfrwt>
<totfact> 0.89283961E+03</totfact>
</mgrwt>
</event>
<event>
 5    1  0.3243498E-002  0.1249961E+03  0.7818608E-02  0.1235075E+00
         -4   -1    0    0    0  501 -0.00000000000E+00  0.00000000000E+00  0.51017857452E+02  0.51033662214E+02  0.12700000000E+01 0.  1.
          4   -1    0    0  501    0  0.00000000000E+00 -0.00000000000E+00 -0.76528597670E+02  0.76539134835E+02  0.12700000000E+01 0.  1.
         25    2    1    2    0    0  0.00000000000E+00  0.00000000000E+00 -0.25510740218E+02  0.12757279705E+03  0.12499608266E+03 0.  0.
    9000005    1    3    3    0    0 -0.74695310885E+01 -0.57403472129E+02 -0.36778920888E+02  0.68590389479E+02  0.10000000000E+01 0.  0.
    9000005    1    3    3    0    0  0.74695310885E+01  0.57403472129E+02  0.11268180670E+02  0.58982407570E+02  0.10000000000E+01 0.  0.
<mgrwt>
<rscale>  0 0.12499608E+03</rscale>
<asrwt>0</asrwt>
<pdfrwt beam="2">  1        4 0.11775657E-01 0.12499608E+03</pdfrwt>
<pdfrwt beam="1">  1       -4 0.78509274E-02 0.12499608E+03</pdfrwt>
<totfact> 0.10397644E+04</totfact>
</mgrwt>
</event>
<event>
 5    1  0.3243498E-002  0.1250041E+03  0.7818608E-02  0.1235063E+00
          4   -1    0    0  501    0  0.00000000000E+00  0.00000000000E+00  0.78374607267E+03  0.78374710163E+03  0.12700000000E+01 0. -1.
         -4   -1    0    0    0  501 -0.00000000000E+00 -0.00000000000E+00 -0.49024591653E+01  0.50642873011E+01  0.12700000000E+01 0. -1.
         25    2    1    2    0    0  0.00000000000E+00  0.00000000000E+00  0.77884361350E+03  0.78881138894E+03  0.12500413202E+03 0.  0.
    9000005    1    3    3    0    0 -0.17241008439E+02 -0.25546850480E+02  0.46359752306E+02  0.55678726415E+02  0.10000000000E+01 0.  0.
    9000005    1    3    3    0    0  0.17241008439E+02  0.25546850480E+02  0.73248386120E+03  0.73313266252E+03  0.10000000000E+01 0.  0.
<mgrwt>
<rscale>  0 0.12500413E+03</rscale>
<asrwt>0</asrwt>
<pdfrwt beam="1">  1        4 0.12058881E+00 0.12500413E+03</pdfrwt>
<pdfrwt beam="2">  1       -4 0.76675216E-03 0.12500413E+03</pdfrwt>
<totfact> 0.38765632E+03</totfact>
</mgrwt>
</event>
<event>
 5    1  0.3243498E-002  0.1249994E+03  0.7818608E-02  0.1235070E+00
         -4   -1    0    0    0  501 -0.00000000000E+00  0.00000000000E+00  0.14372041607E+03  0.14372602721E+03  0.12700000000E+01 0.  1.
          4   -1    0    0  501    0  0.00000000000E+00 -0.00000000000E+00 -0.27158267289E+02  0.27187945530E+02  0.12700000000E+01 0.  1.
         25    2    1    2    0    0  0.00000000000E+00  0.00000000000E+00  0.11656214878E+03  0.17091397274E+03  0.12499940619E+03 0.  0.
    9000005    1    3    3    0    0 -0.29740372852E+02 -0.13081128659E+02 -0.14708716182E+02  0.35678453387E+02  0.10000000000E+01 0.  0.
    9000005    1    3    3    0    0  0.29740372852E+02  0.13081128659E+02  0.13127086497E+03  0.13523551935E+03  0.10000000000E+01 0.  0.
<mgrwt>
<rscale>  0 0.12499941E+03</rscale>
<asrwt>0</asrwt>
<pdfrwt beam="2">  1        4 0.41809095E-02 0.12499941E+03</pdfrwt>
<pdfrwt beam="1">  1       -4 0.22113548E-01 0.12499941E+03</pdfrwt>
<totfact> 0.95279828E+03</totfact>
</mgrwt>
</event>
<event>
 5    1  0.3243498E-002  0.1249546E+03  0.7818608E-02  0.1235140E+00
          4   -1    0    0  501    0  0.00000000000E+00  0.00000000000E+00  0.14753685751E+02  0.14808245785E+02  0.12700000000E+01 0. -1.
         -4   -1    0    0    0  501 -0.00000000000E+00 -0.00000000000E+00 -0.26402763343E+03  0.26403068783E+03  0.12700000000E+01 0. -1.
         25    2    1    2    0    0  0.00000000000E+00  0.00000000000E+00 -0.24927394768E+03  0.27883893361E+03  0.12495459138E+03 0.  0.
    9000005    1    3    3    0    0  0.16499821549E+02 -0.59669553763E+02 -0.10600507120E+03  0.12276308435E+03  0.10000000000E+01 0.  0.
    9000005    1    3    3    0    0 -0.16499821549E+02  0.59669553763E+02 -0.14326887648E+03  0.15607584927E+03  0.10000000000E+01 0.  0.
<mgrwt>
<rscale>  0 0.12495459E+03</rscale>
<asrwt>0</asrwt>
<pdfrwt beam="1">  1        4 0.22742299E-02 0.12495459E+03</pdfrwt>
<pdfrwt beam="2">  1       -4 0.40624064E-01 0.12495459E+03</pdfrwt>
<totfact> 0.78411432E+03</totfact>
</mgrwt>
</event>
<event>
 5    1  0.3243498E-002  0.1250066E+03  0.7818608E-02  0.1235059E+00
         -4   -1    0    0    0  501 -0.00000000000E+00  0.00000000000E+00  0.94141135455E+01  0.94993912357E+01  0.12700000000E+01 0.  1.
          4   -1    0    0  501    0  0.00000000000E+00 -0.00000000000E+00 -0.41302172144E+03  0.41302367399E+03  0.12700000000E+01 0.  1.
         25    2    1    2    0    0  0.00000000000E+00  0.00000000000E+00 -0.40360760789E+03  0.42252306523E+03  0.12500655784E+03 0.  0.
    9000005    1    3    3    0    0  0.74866057271E+01  0.11529150611E+02 -0.40786478044E+03  0.40809759826E+03  0.10000000000E+01 0.  0.
    9000005    1    3    3    0    0 -0.74866057271E+01 -0.11529150611E+02  0.42571725523E+01  0.14425466969E+02  0.10000000000E+01 0.  0.
<mgrwt>
<rscale>  0 0.12500656E+03</rscale>
<asrwt>0</asrwt>
<pdfrwt beam="2">  1        4 0.63548499E-01 0.12500656E+03</pdfrwt>
<pdfrwt beam="1">  1       -4 0.14550355E-02 0.12500656E+03</pdfrwt>
<totfact> 0.62410606E+03</totfact>
</mgrwt>
</event>
<event>
 5    1  0.3243498E-002  0.1249986E+03  0.7818608E-02  0.1235072E+00
          4   -1    0    0  501    0  0.00000000000E+00  0.00000000000E+00  0.12768282652E+02  0.12831287616E+02  0.12700000000E+01 0. -1.
         -4   -1    0    0    0  501 -0.00000000000E+00 -0.00000000000E+00 -0.30510961335E+03  0.30511225649E+03  0.12700000000E+01 0. -1.
         25    2    1    2    0    0  0.00000000000E+00  0.00000000000E+00 -0.29234133070E+03  0.31794354410E+03  0.12499857440E+03 0.  0.
    9000005    1    3    3    0    0  0.47469551608E+02 -0.31240850713E+02 -0.80046859526E+02  0.98172546076E+02  0.10000000000E+01 0.  0.
    9000005    1    3    3    0    0 -0.47469551608E+02  0.31240850713E+02 -0.21229447117E+03  0.21977099803E+03  0.10000000000E+01 0.  0.
<mgrwt>
<rscale>  0 0.12499857E+03</rscale>
<asrwt>0</asrwt>
<pdfrwt beam="1">  1        4 0.19694013E-02 0.12499857E+03</pdfrwt>
<pdfrwt beam="2">  1       -4 0.46944985E-01 0.12499857E+03</pdfrwt>
<totfact> 0.73403705E+03</totfact>
</mgrwt>
</event>
<event>
 5    1  0.3243498E-002  0.1249995E+03  0.7818608E-02  0.1235070E+00
         -4   -1    0    0    0  501 -0.00000000000E+00  0.00000000000E+00  0.32232501194E+02  0.32257511268E+02  0.12700000000E+01 0. -1.
          4   -1    0    0  501    0  0.00000000000E+00 -0.00000000000E+00 -0.12111346028E+03  0.12112011873E+03  0.12700000000E+01 0. -1.
         25    2    1    2    0    0  0.00000000000E+00  0.00000000000E+00 -0.88880959090E+02  0.15337763000E+03  0.12499948998E+03 0.  0.
    9000005    1    3    3    0    0  0.28444925580E+02 -0.49163428072E+02 -0.76415320375E+02  0.95217948094E+02  0.10000000000E+01 0.  0.
    9000005    1    3    3    0    0 -0.28444925580E+02  0.49163428072E+02 -0.12465638715E+02  0.58159681908E+02  0.10000000000E+01 0.  0.
<mgrwt>
<rscale>  0 0.12499949E+03</rscale>
<asrwt>0</asrwt>
<pdfrwt beam="2">  1        4 0.18635276E-01 0.12499949E+03</pdfrwt>
<pdfrwt beam="1">  1       -4 0.49612825E-02 0.12499949E+03</pdfrwt>
<totfact> 0.98635761E+03</totfact>
</mgrwt>
</event>
<event>
 5    1  0.3243498E-002  0.1249971E+03  0.7818608E-02  0.1235074E+00
         -4   -1    0    0    0  501 -0.00000000000E+00  0.00000000000E+00  0.16667443724E+02  0.16715758442E+02  0.12700000000E+01 0. -1.
          4   -1    0    0  501    0  0.00000000000E+00 -0.00000000000E+00 -0.23396403129E+03  0.23396747816E+03  0.12700000000E+01 0. -1.
         25    2    1    2    0    0  0.00000000000E+00  0.00000000000E+00 -0.21729658756E+03  0.25068323660E+03  0.12499711255E+03 0.  0.
    9000005    1    3    3    0    0 -0.29420480738E+02 -0.52364663066E+02 -0.14323665967E+03  0.15532341517E+03  0.10000000000E+01 0.  0.
    9000005    1    3    3    0    0  0.29420480738E+02  0.52364663066E+02 -0.74059927892E+02  0.95359821436E+02  0.10000000000E+01 0.  0.
<mgrwt>
<rscale>  0 0.12499711E+03</rscale>
<asrwt>0</asrwt>
<pdfrwt beam="2">  1        4 0.35998446E-01 0.12499711E+03</pdfrwt>
<pdfrwt beam="1">  1       -4 0.25682039E-02 0.12499711E+03</pdfrwt>
<totfact> 0.82236869E+03</totfact>
</mgrwt>
</event>
<event>
 5    1  0.3243498E-002  0.1250085E+03  0.7818608E-02  0.1235056E+00
          4   -1    0    0  501    0  0.00000000000E+00  0.00000000000E+00  0.24928834919E+02  0.24961164044E+02  0.12700000000E+01 0.  1.
         -4   -1    0    0    0  501 -0.00000000000E+00 -0.00000000000E+00 -0.15658099929E+03  0.15658614957E+03  0.12700000000E+01 0.  1.
         25    2    1    2    0    0  0.00000000000E+00  0.00000000000E+00 -0.13165216437E+03  0.18154731362E+03  0.12500853850E+03 0.  0.
    9000005    1    3    3    0    0 -0.27239996181E+02  0.56230877291E+02 -0.63848249562E+02  0.89339397384E+02  0.10000000000E+01 0.  0.
    9000005    1    3    3    0    0  0.27239996181E+02 -0.56230877291E+02 -0.67803914808E+02  0.92207916234E+02  0.10000000000E+01 0.  0.
<mgrwt>
<rscale>  0 0.12500854E+03</rscale>
<asrwt>0</asrwt>
<pdfrwt beam="1">  1        4 0.38380885E-02 0.12500854E+03</pdfrwt>
<pdfrwt beam="2">  1       -4 0.24092267E-01 0.12500854E+03</pdfrwt>
<totfact> 0.93321356E+03</totfact>
</mgrwt>
</event>
<event>
 5    1  0.3243498E-002  0.1249999E+03  0.7818608E-02  0.1235069E+00
          4   -1    0    0  501    0  0.00000000000E+00  0.00000000000E+00  0.31832780197E+03  0.31833033536E+03  0.12700000000E+01 0. -1.
         -4   -1    0    0    0  501 -0.00000000000E+00 -0.00000000000E+00 -0.12235691434E+02  0.12301424506E+02  0.12700000000E+01 0. -1.
         25    2    1    2    0    0  0.00000000000E+00  0.00000000000E+00  0.30609211054E+03  0.33063175986E+03  0.12499992198E+03 0.  0.
    9000005    1    3    3    0    0 -0.23852478039E+02  0.57337165169E+02  0.13457721889E+03  0.14821780953E+03  0.10000000000E+01 0.  0.
    9000005    1    3    3    0    0  0.23852478039E+02 -0.57337165169E+02  0.17151489165E+03  0.18241395033E+03  0.10000000000E+01 0.  0.
<mgrwt>
<rscale>  0 0.12499992E+03</rscale>
<asrwt>0</asrwt>
<pdfrwt beam="1">  1        4 0.48978754E-01 0.12499992E+03</pdfrwt>
<pdfrwt beam="2">  1       -4 0.18876655E-02 0.12499992E+03</pdfrwt>
<totfact> 0.71909336E+03</totfact>
</mgrwt>
</event>
<event>
 5    1  0.3243498E-002  0.1249927E+03  0.7818608E-02  0.1235081E+00
          4   -1    0    0  501    0  0.00000000000E+00  0.00000000000E+00  0.77592652758E+02  0.77603045443E+02  0.12700000000E+01 0.  1.
         -4   -1    0    0    0  501 -0.00000000000E+00 -0.00000000000E+00 -0.50315372105E+02  0.50331397458E+02  0.12700000000E+01 0.  1.
         25    2    1    2    0    0  0.00000000000E+00  0.00000000000E+00  0.27277280652E+02  0.12793444290E+03  0.12499268635E+03 0.  0.
    9000005    1    3    3    0    0  0.34919640372E+02 -0.51788630030E+02  0.11765423373E+02  0.63567827328E+02  0.10000000000E+01 0.  0.
    9000005    1    3    3    0    0 -0.34919640372E+02  0.51788630030E+02  0.15511857279E+02  0.64366615573E+02  0.10000000000E+01 0.  0.
<mgrwt>
<rscale>  0 0.12499269E+03</rscale>
<asrwt>0</asrwt>
<pdfrwt beam="1">  1        4 0.11939363E-01 0.12499269E+03</pdfrwt>
<pdfrwt beam="2">  1       -4 0.77428587E-02 0.12499269E+03</pdfrwt>
<totfact> 0.10390619E+04</totfact>
</mgrwt>
</event>
<event>
 5    1  0.3243498E-002  0.1249625E+03  0.7818608E-02  0.1235128E+00
         -4   -1    0    0    0  501 -0.00000000000E+00  0.00000000000E+00  0.71835774707E+03  0.71835886969E+03  0.12700000000E+01 0. -1.
          4   -1    0    0  501    0  0.00000000000E+00 -0.00000000000E+00 -0.53591448867E+01  0.55075706002E+01  0.12700000000E+01 0. -1.
         25    2    1    2    0    0  0.00000000000E+00  0.00000000000E+00  0.71299860218E+03  0.72386644029E+03  0.12496246107E+03 0.  0.
    9000005    1    3    3    0    0 -0.47211912249E+02  0.25629107782E+01  0.59303407351E+03  0.59491675512E+03  0.10000000000E+01 0.  0.
    9000005    1    3    3    0    0  0.47211912249E+02 -0.25629107782E+01  0.11996452867E+03  0.12894968518E+03  0.10000000000E+01 0.  0.
<mgrwt>
<rscale>  0 0.12496246E+03</rscale>
<asrwt>0</asrwt>
<pdfrwt beam="2">  1        4 0.83598739E-03 0.12496246E+03</pdfrwt>
<pdfrwt beam="1">  1       -4 0.11052810E+00 0.12496246E+03</pdfrwt>
<totfact> 0.41890730E+03</totfact>
</mgrwt>
</event>
<event>
 5    1  0.3243498E-002  0.1249979E+03  0.7818608E-02  0.1235073E+00
          4   -1    0    0  501    0  0.00000000000E+00  0.00000000000E+00  0.85863983970E+03  0.85864077891E+03  0.12700000000E+01 0. -1.
         -4   -1    0    0    0  501 -0.00000000000E+00 -0.00000000000E+00 -0.44595961403E+01  0.46369060519E+01  0.12700000000E+01 0. -1.
         25    2    1    2    0    0  0.00000000000E+00  0.00000000000E+00  0.85418024356E+03  0.86327768497E+03  0.12499789150E+03 0.  0.
    9000005    1    3    3    0    0  0.30629028737E+02  0.54358356974E+02  0.45116328728E+03  0.45545831880E+03  0.10000000000E+01 0.  0.
    9000005    1    3    3    0    0 -0.30629028737E+02 -0.54358356974E+02  0.40301695628E+03  0.40781936617E+03  0.10000000000E+01 0.  0.
<mgrwt>
<rscale>  0 0.12499789E+03</rscale>
<asrwt>0</asrwt>
<pdfrwt beam="1">  1        4 0.13211202E+00 0.12499789E+03</pdfrwt>
<pdfrwt beam="2">  1       -4 0.69980385E-03 0.12499789E+03</pdfrwt>
<totfact> 0.35591736E+03</totfact>
</mgrwt>
</event>
<event>
 5    1  0.3243498E-002  0.1249986E+03  0.7818608E-02  0.1235071E+00
          4   -1    0    0  501    0  0.00000000000E+00  0.00000000000E+00  0.11258505483E+04  0.11258512646E+04  0.12700000000E+01 0. -1.
         -4   -1    0    0    0  501 -0.00000000000E+00 -0.00000000000E+00 -0.33525621214E+01  0.35850485042E+01  0.12700000000E+01 0. -1.
         25    2    1    2    0    0  0.00000000000E+00  0.00000000000E+00  0.11224979862E+04  0.11294363131E+04  0.12499862555E+03 0.  0.
    9000005    1    3    3    0    0  0.42463641353E+02 -0.26713134158E+02  0.22457029020E+03  0.23010773045E+03  0.10000000000E+01 0.  0.
    9000005    1    3    3    0    0 -0.42463641353E+02  0.26713134158E+02  0.89792769602E+03  0.89932858270E+03  0.10000000000E+01 0.  0.
<mgrwt>
<rscale>  0 0.12499863E+03</rscale>
<asrwt>0</asrwt>
<pdfrwt beam="1">  1        4 0.17322558E+00 0.12499863E+03</pdfrwt>
<pdfrwt beam="2">  1       -4 0.53371787E-03 0.12499863E+03</pdfrwt>
<totfact> 0.26638262E+03</totfact>
</mgrwt>
</event>
<event>
 5    1  0.3243498E-002  0.1249984E+03  0.7818608E-02  0.1235072E+00
         -4   -1    0    0    0  501 -0.00000000000E+00  0.00000000000E+00  0.17337320291E+03  0.17337785437E+03  0.12700000000E+01 0. -1.
          4   -1    0    0  501    0  0.00000000000E+00 -0.00000000000E+00 -0.22507430028E+02  0.22543231944E+02  0.12700000000E+01 0. -1.
         25    2    1    2    0    0  0.00000000000E+00  0.00000000000E+00  0.15086577288E+03  0.19592108632E+03  0.12499836254E+03 0.  0.
    9000005    1    3    3    0    0  0.57148969420E+01 -0.60513369594E+02  0.98180003576E+02  0.11547658225E+03  0.10000000000E+01 0.  0.
    9000005    1    3    3    0    0 -0.57148969420E+01  0.60513369594E+02  0.52685769305E+02  0.80444504063E+02  0.10000000000E+01 0.  0.
<mgrwt>
<rscale>  0 0.12499836E+03</rscale>
<asrwt>0</asrwt>
<pdfrwt beam="2">  1        4 0.34657932E-02 0.12499836E+03</pdfrwt>
<pdfrwt beam="1">  1       -4 0.26675913E-01 0.12499836E+03</pdfrwt>
<totfact> 0.90830478E+03</totfact>
</mgrwt>
</event>
<event>
 5    1  0.3243498E-002  0.1250001E+03  0.7818608E-02  0.1235069E+00
          4   -1    0    0  501    0  0.00000000000E+00  0.00000000000E+00  0.27330001386E+03  0.27330296463E+03  0.12700000000E+01 0.  1.
         -4   -1    0    0    0  501 -0.00000000000E+00 -0.00000000000E+00 -0.14261676813E+02  0.14318111801E+02  0.12700000000E+01 0.  1.
         25    2    1    2    0    0  0.00000000000E+00  0.00000000000E+00  0.25903833705E+03  0.28762107643E+03  0.12500009419E+03 0.  0.
    9000005    1    3    3    0    0  0.20639509455E+02  0.57218934447E+02  0.96553445081E+02  0.11412082880E+03  0.10000000000E+01 0.  0.
    9000005    1    3    3    0    0 -0.20639509455E+02 -0.57218934447E+02  0.16248489197E+03  0.17350024763E+03  0.10000000000E+01 0.  0.
<mgrwt>
<rscale>  0 0.12500009E+03</rscale>
<asrwt>0</asrwt>
<pdfrwt beam="1">  1        4 0.42050723E-01 0.12500009E+03</pdfrwt>
<pdfrwt beam="2">  1       -4 0.21986723E-02 0.12500009E+03</pdfrwt>
<totfact> 0.77178175E+03</totfact>
</mgrwt>
</event>
<event>
 5    1  0.3243498E-002  0.1249979E+03  0.7818608E-02  0.1235073E+00
         -4   -1    0    0    0  501 -0.00000000000E+00  0.00000000000E+00  0.47808100350E+02  0.47824965855E+02  0.12700000000E+01 0.  1.
          4   -1    0    0  501    0  0.00000000000E+00 -0.00000000000E+00 -0.81667919073E+02  0.81677793222E+02  0.12700000000E+01 0.  1.
         25    2    1    2    0    0  0.00000000000E+00  0.00000000000E+00 -0.33859818723E+02  0.12950275908E+03  0.12499790912E+03 0.  0.
    9000005    1    3    3    0    0  0.73554510275E+01 -0.60872058490E+02 -0.29431653772E+02  0.68020088271E+02  0.10000000000E+01 0.  0.
    9000005    1    3    3    0    0 -0.73554510275E+01  0.60872058490E+02 -0.44281649511E+01  0.61482670807E+02  0.10000000000E+01 0.  0.
<mgrwt>
<rscale>  0 0.12499791E+03</rscale>
<asrwt>0</asrwt>
<pdfrwt beam="2">  1        4 0.12566352E-01 0.12499791E+03</pdfrwt>
<pdfrwt beam="1">  1       -4 0.73571492E-02 0.12499791E+03</pdfrwt>
<totfact> 0.10355645E+04</totfact>
</mgrwt>
</event>
<event>
 5    1  0.3243498E-002  0.1250084E+03  0.7818608E-02  0.1235056E+00
         -4   -1    0    0    0  501 -0.00000000000E+00  0.00000000000E+00  0.52012869160E+01  0.53540905468E+01  0.12700000000E+01 0. -1.
          4   -1    0    0  501    0  0.00000000000E+00 -0.00000000000E+00 -0.74009036815E+03  0.74009145781E+03  0.12700000000E+01 0. -1.
         25    2    1    2    0    0  0.00000000000E+00  0.00000000000E+00 -0.73488908123E+03  0.74544554836E+03  0.12500841513E+03 0.  0.
    9000005    1    3    3    0    0 -0.50663012589E+02 -0.35949610681E+02 -0.32671102590E+03  0.33256609839E+03  0.10000000000E+01 0.  0.
    9000005    1    3    3    0    0  0.50663012589E+02  0.35949610681E+02 -0.40817805533E+03  0.41287944997E+03  0.10000000000E+01 0.  0.
<mgrwt>
<rscale>  0 0.12500842E+03</rscale>
<asrwt>0</asrwt>
<pdfrwt beam="2">  1        4 0.11387181E+00 0.12500842E+03</pdfrwt>
<pdfrwt beam="1">  1       -4 0.81203652E-03 0.12500842E+03</pdfrwt>
<totfact> 0.40785448E+03</totfact>
</mgrwt>
</event>
<event>
 5    1  0.3243498E-002  0.1250055E+03  0.7818608E-02  0.1235061E+00
         -4   -1    0    0    0  501 -0.00000000000E+00  0.00000000000E+00  0.22643606826E+03  0.22643962973E+03  0.12700000000E+01 0. -1.
          4   -1    0    0  501    0  0.00000000000E+00 -0.00000000000E+00 -0.17225459910E+02  0.17272213787E+02  0.12700000000E+01 0. -1.
         25    2    1    2    0    0  0.00000000000E+00  0.00000000000E+00  0.20921060835E+03  0.24371184351E+03  0.12500553596E+03 0.  0.
    9000005    1    3    3    0    0  0.59672653419E+02  0.18162042020E+02  0.11213358744E+03  0.12831845841E+03  0.10000000000E+01 0.  0.
    9000005    1    3    3    0    0 -0.59672653419E+02 -0.18162042020E+02  0.97077020920E+02  0.11539338511E+03  0.10000000000E+01 0.  0.
<mgrwt>
<rscale>  0 0.12500554E+03</rscale>
<asrwt>0</asrwt>
<pdfrwt beam="2">  1        4 0.26539414E-02 0.12500554E+03</pdfrwt>
<pdfrwt beam="1">  1       -4 0.34840186E-01 0.12500554E+03</pdfrwt>
<totfact> 0.83237373E+03</totfact>
</mgrwt>
</event>
<event>
 5    1  0.3243498E-002  0.1249920E+03  0.7818608E-02  0.1235082E+00
          4   -1    0    0  501    0  0.00000000000E+00  0.00000000000E+00  0.65839472472E+01  0.67053159026E+01  0.12700000000E+01 0.  1.
         -4   -1    0    0    0  501 -0.00000000000E+00 -0.00000000000E+00 -0.58768365147E+03  0.58768502372E+03  0.12700000000E+01 0.  1.
         25    2    1    2    0    0  0.00000000000E+00  0.00000000000E+00 -0.58109970422E+03  0.59439033962E+03  0.12499203810E+03 0.  0.
    9000005    1    3    3    0    0 -0.43851542539E+02  0.21123700714E+02 -0.47689846539E+03  0.47937700696E+03  0.10000000000E+01 0.  0.
    9000005    1    3    3    0    0  0.43851542539E+02 -0.21123700714E+02 -0.10420123883E+03  0.11501333266E+03  0.10000000000E+01 0.  0.
<mgrwt>
<rscale>  0 0.12499204E+03</rscale>
<asrwt>0</asrwt>
<pdfrwt beam="1">  1        4 0.10223570E-02 0.12499204E+03</pdfrwt>
<pdfrwt beam="2">  1       -4 0.90422270E-01 0.12499204E+03</pdfrwt>
<totfact> 0.49232246E+03</totfact>
</mgrwt>
</event>
<event>
 5    1  0.3243498E-002  0.1249986E+03  0.7818608E-02  0.1235072E+00
          4   -1    0    0  501    0  0.00000000000E+00  0.00000000000E+00  0.12975756594E+02  0.13037758979E+02  0.12700000000E+01 0. -1.
         -4   -1    0    0    0  501 -0.00000000000E+00 -0.00000000000E+00 -0.30025443619E+03  0.30025712207E+03  0.12700000000E+01 0. -1.
         25    2    1    2    0    0  0.00000000000E+00  0.00000000000E+00 -0.28727867960E+03  0.31329488105E+03  0.12499857095E+03 0.  0.
    9000005    1    3    3    0    0 -0.25826417005E+01  0.56143004601E+02 -0.21211712148E+03  0.21943878469E+03  0.10000000000E+01 0.  0.
    9000005    1    3    3    0    0  0.25826417005E+01 -0.56143004601E+02 -0.75161558125E+02  0.93856096358E+02  0.10000000000E+01 0.  0.
<mgrwt>
<rscale>  0 0.12499857E+03</rscale>
<asrwt>0</asrwt>
<pdfrwt beam="1">  1        4 0.20012465E-02 0.12499857E+03</pdfrwt>
<pdfrwt beam="2">  1       -4 0.46197961E-01 0.12499857E+03</pdfrwt>
<totfact> 0.73963118E+03</totfact>
</mgrwt>
</event>
<event>
 5    1  0.3243498E-002  0.1250000E+03  0.7818608E-02  0.1235069E+00
          4   -1    0    0  501    0  0.00000000000E+00  0.00000000000E+00  0.12025154725E+02  0.12092032342E+02  0.12700000000E+01 0. -1.
         -4   -1    0    0    0  501 -0.00000000000E+00 -0.00000000000E+00 -0.32387098828E+03  0.32387347830E+03  0.12700000000E+01 0. -1.
         25    2    1    2    0    0  0.00000000000E+00  0.00000000000E+00 -0.31184583355E+03  0.33596551064E+03  0.12500000176E+03 0.  0.
    9000005    1    3    3    0    0  0.58760766178E+02  0.21212883003E+02 -0.15172794644E+03  0.16408895081E+03  0.10000000000E+01 0.  0.
    9000005    1    3    3    0    0 -0.58760766178E+02 -0.21212883003E+02 -0.16011788711E+03  0.17187655984E+03  0.10000000000E+01 0.  0.
<mgrwt>
<rscale>  0 0.12500000E+03</rscale>
<asrwt>0</asrwt>
<pdfrwt beam="1">  1        4 0.18553600E-02 0.12500000E+03</pdfrwt>
<pdfrwt beam="2">  1       -4 0.49831635E-01 0.12500000E+03</pdfrwt>
<totfact> 0.71296628E+03</totfact>
</mgrwt>
</event>
<event>
 5    1  0.3243498E-002  0.1249986E+03  0.7818608E-02  0.1235071E+00
         -4   -1    0    0    0  501 -0.00000000000E+00  0.00000000000E+00  0.14053470310E+02  0.14110738030E+02  0.12700000000E+01 0. -1.
          4   -1    0    0  501    0  0.00000000000E+00 -0.00000000000E+00 -0.27732619022E+03  0.27732909815E+03  0.12700000000E+01 0. -1.
         25    2    1    2    0    0  0.00000000000E+00  0.00000000000E+00 -0.26327271991E+03  0.29143983618E+03  0.12499861225E+03 0.  0.
    9000005    1    3    3    0    0 -0.25819223389E+02 -0.36867620225E+01 -0.26404138213E+03  0.26532824197E+03  0.10000000000E+01 0.  0.
    9000005    1    3    3    0    0  0.25819223389E+02  0.36867620225E+01  0.76866221925E+00  0.26111594211E+02  0.10000000000E+01 0.  0.
<mgrwt>
<rscale>  0 0.12499861E+03</rscale>
<asrwt>0</asrwt>
<pdfrwt beam="2">  1        4 0.42670193E-01 0.12499861E+03</pdfrwt>
<pdfrwt beam="1">  1       -4 0.21667014E-02 0.12499861E+03</pdfrwt>
<totfact> 0.76687676E+03</totfact>
</mgrwt>
</event>
<event>
 5    1  0.3243498E-002  0.1250002E+03  0.7818608E-02  0.1235069E+00
         -4   -1    0    0    0  501 -0.00000000000E+00  0.00000000000E+00  0.25272464146E+02  0.25304354250E+02  0.12700000000E+01 0. -1.
          4   -1    0    0  501    0  0.00000000000E+00 -0.00000000000E+00 -0.15443407222E+03  0.15443929410E+03  0.12700000000E+01 0. -1.
         25    2    1    2    0    0  0.00000000000E+00  0.00000000000E+00 -0.12916160807E+03  0.17974364835E+03  0.12500023249E+03 0.  0.
    9000005    1    3    3    0    0 -0.54835046747E+02 -0.81422768990E+01 -0.10605965434E+03  0.11967802348E+03  0.10000000000E+01 0.  0.
    9000005    1    3    3    0    0  0.54835046747E+02  0.81422768990E+01 -0.23101953730E+02  0.60065624869E+02  0.10000000000E+01 0.  0.
<mgrwt>
<rscale>  0 0.12500023E+03</rscale>
<asrwt>0</asrwt>
<pdfrwt beam="2">  1        4 0.23761942E-01 0.12500023E+03</pdfrwt>
<pdfrwt beam="1">  1       -4 0.38909263E-02 0.12500023E+03</pdfrwt>
<totfact> 0.93662680E+03</totfact>
</mgrwt>
</event>
<event>
 5    1  0.3243498E-002  0.1250027E+03  0.7818608E-02  0.1235065E+00
         -4   -1    0    0    0  501 -0.00000000000E+00  0.00000000000E+00  0.84123246078E+02  0.84132832061E+02  0.12700000000E+01 0.  1.
          4   -1    0    0  501    0  0.00000000000E+00 -0.00000000000E+00 -0.46415936717E+02  0.46433307887E+02  0.12700000000E+01 0.  1.
         25    2    1    2    0    0  0.00000000000E+00  0.00000000000E+00  0.37707309361E+02  0.13056613995E+03  0.12500270286E+03 0.  0.
    9000005    1    3    3    0    0 -0.54333526499E+02  0.19798838077E+02  0.43599706163E+02  0.72429693280E+02  0.10000000000E+01 0.  0.
    9000005    1    3    3    0    0  0.54333526499E+02 -0.19798838077E+02 -0.58923968025E+01  0.58136446668E+02  0.10000000000E+01 0.  0.
<mgrwt>
<rscale>  0 0.12500270E+03</rscale>
<asrwt>0</asrwt>
<pdfrwt beam="2">  1        4 0.71429870E-02 0.12500270E+03</pdfrwt>
<pdfrwt beam="1">  1       -4 0.12944111E-01 0.12500270E+03</pdfrwt>
<totfact> 0.10331769E+04</totfact>
</mgrwt>
</event>
<event>
 5    1  0.3243498E-002  0.1250021E+03  0.7818608E-02  0.1235066E+00
         -4   -1    0    0    0  501 -0.00000000000E+00  0.00000000000E+00  0.14195730233E+02  0.14252426349E+02  0.12700000000E+01 0.  1.
          4   -1    0    0  501    0  0.00000000000E+00 -0.00000000000E+00 -0.27457357726E+03  0.27457651435E+03  0.12700000000E+01 0.  1.
         25    2    1    2    0    0  0.00000000000E+00  0.00000000000E+00 -0.26037784703E+03  0.28882894070E+03  0.12500213502E+03 0.  0.
    9000005    1    3    3    0    0 -0.36706310380E+02  0.37967044169E+02 -0.52981473455E+02  0.74812339852E+02  0.10000000000E+01 0.  0.
    9000005    1    3    3    0    0  0.36706310380E+02 -0.37967044169E+02 -0.20739637358E+03  0.21401660084E+03  0.10000000000E+01 0.  0.
<mgrwt>
<rscale>  0 0.12500214E+03</rscale>
<asrwt>0</asrwt>
<pdfrwt beam="2">  1        4 0.42246672E-01 0.12500214E+03</pdfrwt>
<pdfrwt beam="1">  1       -4 0.21885459E-02 0.12500214E+03</pdfrwt>
<totfact> 0.77018177E+03</totfact>
</mgrwt>
</event>
<event>
 5    1  0.3243498E-002  0.1249392E+03  0.7818608E-02  0.1235164E+00
          4   -1    0    0  501    0  0.00000000000E+00  0.00000000000E+00  0.36790342758E+02  0.36812256386E+02  0.12700000000E+01 0. -1.
         -4   -1    0    0    0  501 -0.00000000000E+00 -0.00000000000E+00 -0.10601537958E+03  0.10602298622E+03  0.12700000000E+01 0. -1.
         25    2    1    2    0    0  0.00000000000E+00  0.00000000000E+00 -0.69225036824E+02  0.14283524261E+03  0.12493918844E+03 0.  0.
    9000005    1    3    3    0    0 -0.16995210924E+02 -0.49954793297E+02  0.35985227387E+01  0.52898657201E+02  0.10000000000E+01 0.  0.
    9000005    1    3    3    0    0  0.16995210924E+02  0.49954793297E+02 -0.72823559562E+02  0.89936585409E+02  0.10000000000E+01 0.  0.
<mgrwt>
<rscale>  0 0.12493919E+03</rscale>
<asrwt>0</asrwt>
<pdfrwt beam="1">  1        4 0.56623236E-02 0.12493919E+03</pdfrwt>
<pdfrwt beam="2">  1       -4 0.16312329E-01 0.12493919E+03</pdfrwt>
<totfact> 0.10088970E+04</totfact>
</mgrwt>
</event>
<event>
 5    1  0.3243498E-002  0.1250007E+03  0.7818608E-02  0.1235068E+00
          4   -1    0    0  501    0  0.00000000000E+00  0.00000000000E+00  0.20225095992E+02  0.20264930493E+02  0.12700000000E+01 0.  1.
         -4   -1    0    0    0  501 -0.00000000000E+00 -0.00000000000E+00 -0.19290904742E+03  0.19291322784E+03  0.12700000000E+01 0.  1.
         25    2    1    2    0    0  0.00000000000E+00  0.00000000000E+00 -0.17268395143E+03  0.21317815833E+03  0.12500072044E+03 0.  0.
    9000005    1    3    3    0    0 -0.52925151964E+02 -0.24758705750E+02 -0.12414029989E+03  0.13720743157E+03  0.10000000000E+01 0.  0.
    9000005    1    3    3    0    0  0.52925151964E+02  0.24758705750E+02 -0.48543651538E+02  0.75970726767E+02  0.10000000000E+01 0.  0.
<mgrwt>
<rscale>  0 0.12500072E+03</rscale>
<asrwt>0</asrwt>
<pdfrwt beam="1">  1        4 0.31149391E-02 0.12500072E+03</pdfrwt>
<pdfrwt beam="2">  1       -4 0.29681700E-01 0.12500072E+03</pdfrwt>
<totfact> 0.87958046E+03</totfact>
</mgrwt>
</event>
<event>
 5    1  0.3243498E-002  0.1249975E+03  0.7818608E-02  0.1235073E+00
          4   -1    0    0  501    0  0.00000000000E+00  0.00000000000E+00  0.45903024177E+01  0.47627488162E+01  0.12700000000E+01 0.  1.
         -4   -1    0    0    0  501 -0.00000000000E+00 -0.00000000000E+00 -0.83508250136E+03  0.83508346708E+03  0.12700000000E+01 0.  1.
         25    2    1    2    0    0  0.00000000000E+00  0.00000000000E+00 -0.83049219895E+03  0.83984621589E+03  0.12499749533E+03 0.  0.
    9000005    1    3    3    0    0 -0.20321432279E+02 -0.10813739498E+02 -0.80559049709E+03  0.80591993806E+03  0.10000000000E+01 0.  0.
    9000005    1    3    3    0    0  0.20321432279E+02  0.10813739498E+02 -0.24901701858E+02  0.33926277828E+02  0.10000000000E+01 0.  0.
<mgrwt>
<rscale>  0 0.12499750E+03</rscale>
<asrwt>0</asrwt>
<pdfrwt beam="1">  1        4 0.71954043E-03 0.12499750E+03</pdfrwt>
<pdfrwt beam="2">  1       -4 0.12848745E+00 0.12499750E+03</pdfrwt>
<totfact> 0.36548497E+03</totfact>
</mgrwt>
</event>
<event>
 5    1  0.3243498E-002  0.1249966E+03  0.7818608E-02  0.1235075E+00
          4   -1    0    0  501    0  0.00000000000E+00  0.00000000000E+00  0.10837372975E+03  0.10838117087E+03  0.12700000000E+01 0. -1.
         -4   -1    0    0    0  501 -0.00000000000E+00 -0.00000000000E+00 -0.36022426909E+02  0.36044807399E+02  0.12700000000E+01 0. -1.
         25    2    1    2    0    0  0.00000000000E+00  0.00000000000E+00  0.72351302842E+02  0.14442597827E+03  0.12499660866E+03 0.  0.
    9000005    1    3    3    0    0 -0.41582704856E+02  0.24912459856E+02  0.81742839087E+02  0.95040221702E+02  0.10000000000E+01 0.  0.
    9000005    1    3    3    0    0  0.41582704856E+02 -0.24912459856E+02 -0.93915362449E+01  0.49385756572E+02  0.10000000000E+01 0.  0.
<mgrwt>
<rscale>  0 0.12499661E+03</rscale>
<asrwt>0</asrwt>
<pdfrwt beam="1">  1        4 0.16675175E-01 0.12499661E+03</pdfrwt>
<pdfrwt beam="2">  1       -4 0.55442059E-02 0.12499661E+03</pdfrwt>
<totfact> 0.10043431E+04</totfact>
</mgrwt>
</event>
<event>
 5    1  0.3243498E-002  0.1250010E+03  0.7818608E-02  0.1235068E+00
         -4   -1    0    0    0  501 -0.00000000000E+00  0.00000000000E+00  0.78421218451E+02  0.78431501345E+02  0.12700000000E+01 0. -1.
          4   -1    0    0  501    0  0.00000000000E+00 -0.00000000000E+00 -0.49790323376E+02  0.49806517665E+02  0.12700000000E+01 0. -1.
         25    2    1    2    0    0  0.00000000000E+00  0.00000000000E+00  0.28630895075E+02  0.12823801901E+03  0.12500104546E+03 0.  0.
    9000005    1    3    3    0    0 -0.10473147162E+02 -0.18613593427E+02  0.74565855758E+02  0.77570738792E+02  0.10000000000E+01 0.  0.
    9000005    1    3    3    0    0  0.10473147162E+02  0.18613593427E+02 -0.45934960684E+02  0.50667280219E+02  0.10000000000E+01 0.  0.
<mgrwt>
<rscale>  0 0.12500105E+03</rscale>
<asrwt>0</asrwt>
<pdfrwt beam="2">  1        4 0.76620864E-02 0.12500105E+03</pdfrwt>
<pdfrwt beam="1">  1       -4 0.12066840E-01 0.12500105E+03</pdfrwt>
<totfact> 0.10382106E+04</totfact>
</mgrwt>
</event>
<event>
 5    1  0.3243498E-002  0.1250002E+03  0.7818608E-02  0.1235069E+00
          4   -1    0    0  501    0  0.00000000000E+00  0.00000000000E+00  0.54413516429E+03  0.54413664636E+03  0.12700000000E+01 0. -1.
         -4   -1    0    0    0  501 -0.00000000000E+00 -0.00000000000E+00 -0.71211747495E+01  0.72335350841E+01  0.12700000000E+01 0. -1.
         25    2    1    2    0    0  0.00000000000E+00  0.00000000000E+00  0.53701398954E+03  0.55137018144E+03  0.12500020811E+03 0.  0.
    9000005    1    3    3    0    0 -0.51959462487E+01  0.47999999336E+02  0.44352047006E+03  0.44614168731E+03  0.10000000000E+01 0.  0.
    9000005    1    3    3    0    0  0.51959462487E+01 -0.47999999336E+02  0.93493519472E+02  0.10522849413E+03  0.10000000000E+01 0.  0.
<mgrwt>
<rscale>  0 0.12500021E+03</rscale>
<asrwt>0</asrwt>
<pdfrwt beam="1">  1        4 0.83721888E-01 0.12500021E+03</pdfrwt>
<pdfrwt beam="2">  1       -4 0.11043221E-02 0.12500021E+03</pdfrwt>
<totfact> 0.52088309E+03</totfact>
</mgrwt>
</event>
<event>
 5    1  0.3243498E-002  0.1249976E+03  0.7818608E-02  0.1235073E+00
          4   -1    0    0  501    0  0.00000000000E+00  0.00000000000E+00  0.72184690020E+03  0.72184801740E+03  0.12700000000E+01 0.  1.
         -4   -1    0    0    0  501 -0.00000000000E+00 -0.00000000000E+00 -0.53356050106E+01  0.54846677957E+01  0.12700000000E+01 0.  1.
         25    2    1    2    0    0  0.00000000000E+00  0.00000000000E+00  0.71651129519E+03  0.72733268520E+03  0.12499759527E+03 0.  0.
    9000005    1    3    3    0    0 -0.32529535595E+02  0.52398459533E+02  0.41682918468E+03  0.42136841178E+03  0.10000000000E+01 0.  0.
    9000005    1    3    3    0    0  0.32529535595E+02 -0.52398459533E+02  0.29968211051E+03  0.30596427342E+03  0.10000000000E+01 0.  0.
<mgrwt>
<rscale>  0 0.12499760E+03</rscale>
<asrwt>0</asrwt>
<pdfrwt beam="1">  1        4 0.11106486E+00 0.12499760E+03</pdfrwt>
<pdfrwt beam="2">  1       -4 0.83241508E-03 0.12499760E+03</pdfrwt>
<totfact> 0.41684690E+03</totfact>
</mgrwt>
</event>
<event>
 5    1  0.3243498E-002  0.1249995E+03  0.7818608E-02  0.1235070E+00
         -4   -1    0    0    0  501 -0.00000000000E+00  0.00000000000E+00  0.44672337683E+02  0.44690386596E+02  0.12700000000E+01 0. -1.
          4   -1    0    0  501    0  0.00000000000E+00 -0.00000000000E+00 -0.87401185860E+02  0.87410412365E+02  0.12700000000E+01 0. -1.
         25    2    1    2    0    0  0.00000000000E+00  0.00000000000E+00 -0.42728848177E+02  0.13210079896E+03  0.12499946648E+03 0.  0.
    9000005    1    3    3    0    0 -0.32789095199E+02  0.86129456152E+01  0.34114716650E+02  0.48105316632E+02  0.10000000000E+01 0.  0.
    9000005    1    3    3    0    0  0.32789095199E+02 -0.86129456152E+01 -0.76843564828E+02  0.83995482328E+02  0.10000000000E+01 0.  0.
<mgrwt>
<rscale>  0 0.12499947E+03</rscale>
<asrwt>0</asrwt>
<pdfrwt beam="2">  1        4 0.13448434E-01 0.12499947E+03</pdfrwt>
<pdfrwt beam="1">  1       -4 0.68747655E-02 0.12499947E+03</pdfrwt>
<totfact> 0.10299671E+04</totfact>
</mgrwt>
</event>
<event>
 5    1  0.3243498E-002  0.1250048E+03  0.7818608E-02  0.1235062E+00
          4   -1    0    0  501    0  0.00000000000E+00  0.00000000000E+00  0.62034900245E+02  0.62047898824E+02  0.12700000000E+01 0. -1.
         -4   -1    0    0    0  501 -0.00000000000E+00 -0.00000000000E+00 -0.62947408901E+02  0.62960219086E+02  0.12700000000E+01 0. -1.
         25    2    1    2    0    0  0.00000000000E+00  0.00000000000E+00 -0.91250865605E+00  0.12500811791E+03  0.12500478739E+03 0.  0.
    9000005    1    3    3    0    0 -0.36137649907E+02  0.38332498312E+02 -0.34076178141E+02  0.62749470789E+02  0.10000000000E+01 0.  0.
    9000005    1    3    3    0    0  0.36137649907E+02 -0.38332498312E+02  0.33163669485E+02  0.62258647121E+02  0.10000000000E+01 0.  0.
<mgrwt>
<rscale>  0 0.12500479E+03</rscale>
<asrwt>0</asrwt>
<pdfrwt beam="1">  1        4 0.95458161E-02 0.12500479E+03</pdfrwt>
<pdfrwt beam="2">  1       -4 0.96862020E-02 0.12500479E+03</pdfrwt>
<totfact> 0.10451555E+04</totfact>
</mgrwt>
</event>
<event>
 5    1  0.3243498E-002  0.1249963E+03  0.7818608E-02  0.1235075E+00
          4   -1    0    0  501    0  0.00000000000E+00  0.00000000000E+00  0.15157110672E+03  0.15157642723E+03  0.12700000000E+01 0.  1.
         -4   -1    0    0    0  501 -0.00000000000E+00 -0.00000000000E+00 -0.25748797360E+02  0.25780098244E+02  0.12700000000E+01 0.  1.
         25    2    1    2    0    0  0.00000000000E+00  0.00000000000E+00  0.12582230936E+03  0.17735652548E+03  0.12499633433E+03 0.  0.
    9000005    1    3    3    0    0 -0.28235263799E+02  0.24502788387E+02 -0.81385151807E+01  0.38273387489E+02  0.10000000000E+01 0.  0.
    9000005    1    3    3    0    0  0.28235263799E+02 -0.24502788387E+02  0.13396082454E+03  0.13908313799E+03  0.10000000000E+01 0.  0.
<mgrwt>
<rscale>  0 0.12499633E+03</rscale>
<asrwt>0</asrwt>
<pdfrwt beam="1">  1        4 0.23321449E-01 0.12499633E+03</pdfrwt>
<pdfrwt beam="2">  1       -4 0.39641705E-02 0.12499633E+03</pdfrwt>
<totfact> 0.94102749E+03</totfact>
</mgrwt>
</event>
<event>
 5    1  0.3243498E-002  0.1249975E+03  0.7818608E-02  0.1235073E+00
         -4   -1    0    0    0  501 -0.00000000000E+00  0.00000000000E+00  0.63982633234E+02  0.63995236194E+02  0.12700000000E+01 0. -1.
          4   -1    0    0  501    0  0.00000000000E+00 -0.00000000000E+00 -0.61024070175E+02  0.61037284021E+02  0.12700000000E+01 0. -1.
         25    2    1    2    0    0  0.00000000000E+00  0.00000000000E+00  0.29585630594E+01  0.12503252022E+03  0.12499751204E+03 0.  0.
    9000005    1    3    3    0    0  0.13304654860E+01 -0.59008297179E+02 -0.19053162940E+02  0.62030414253E+02  0.10000000000E+01 0.  0.
    9000005    1    3    3    0    0 -0.13304654860E+01  0.59008297179E+02  0.22011725999E+02  0.63002105963E+02  0.10000000000E+01 0.  0.
<mgrwt>
<rscale>  0 0.12499751E+03</rscale>
<asrwt>0</asrwt>
<pdfrwt beam="2">  1        4 0.93903045E-02 0.12499751E+03</pdfrwt>
<pdfrwt beam="1">  1       -4 0.98454678E-02 0.12499751E+03</pdfrwt>
<totfact> 0.10452744E+04</totfact>
</mgrwt>
</event>
<event>
 5    1  0.3243498E-002  0.1249955E+03  0.7818608E-02  0.1235076E+00
          4   -1    0    0  501    0  0.00000000000E+00  0.00000000000E+00  0.22955901403E+03  0.22956252704E+03  0.12700000000E+01 0.  1.
         -4   -1    0    0    0  501 -0.00000000000E+00 -0.00000000000E+00 -0.16987758484E+02  0.17035164758E+02  0.12700000000E+01 0.  1.
         25    2    1    2    0    0  0.00000000000E+00  0.00000000000E+00  0.21257125555E+03  0.24659769180E+03  0.12499553159E+03 0.  0.
    9000005    1    3    3    0    0  0.57584404558E+02 -0.17233059092E+02  0.13999939842E+03  0.15236066924E+03  0.10000000000E+01 0.  0.
    9000005    1    3    3    0    0 -0.57584404558E+02  0.17233059092E+02  0.72571857127E+02  0.94237022559E+02  0.10000000000E+01 0.  0.
<mgrwt>
<rscale>  0 0.12499553E+03</rscale>
<asrwt>0</asrwt>
<pdfrwt beam="1">  1        4 0.35320688E-01 0.12499553E+03</pdfrwt>
<pdfrwt beam="2">  1       -4 0.26174182E-02 0.12499553E+03</pdfrwt>
<totfact> 0.82832714E+03</totfact>
</mgrwt>
</event>
<event>
 5    1  0.3243498E-002  0.1249990E+03  0.7818608E-02  0.1235071E+00
         -4   -1    0    0    0  501 -0.00000000000E+00  0.00000000000E+00  0.10991135859E+03  0.10991869562E+03  0.12700000000E+01 0. -1.
          4   -1    0    0  501    0  0.00000000000E+00 -0.00000000000E+00 -0.35519586220E+02  0.35542283343E+02  0.12700000000E+01 0. -1.
         25    2    1    2    0    0  0.00000000000E+00  0.00000000000E+00  0.74391772369E+02  0.14546097896E+03  0.12499904242E+03 0.  0.
    9000005    1    3    3    0    0  0.61505688552E+02 -0.36352737279E+01  0.49346641905E+02  0.78944638872E+02  0.10000000000E+01 0.  0.
    9000005    1    3    3    0    0 -0.61505688552E+02  0.36352737279E+01  0.25045130464E+02  0.66516340092E+02  0.10000000000E+01 0.  0.
<mgrwt>
<rscale>  0 0.12499904E+03</rscale>
<asrwt>0</asrwt>
<pdfrwt beam="2">  1        4 0.54668621E-02 0.12499904E+03</pdfrwt>
<pdfrwt beam="1">  1       -4 0.16911750E-01 0.12499904E+03</pdfrwt>
<totfact> 0.10021847E+04</totfact>
</mgrwt>
</event>
<event>
 5    1  0.3243498E-002  0.1249965E+03  0.7818608E-02  0.1235075E+00
         -4   -1    0    0    0  501 -0.00000000000E+00  0.00000000000E+00  0.36014099288E+02  0.36036484950E+02  0.12700000000E+01 0. -1.
          4   -1    0    0  501    0  0.00000000000E+00 -0.00000000000E+00 -0.10839862994E+03  0.10840606935E+03  0.12700000000E+01 0. -1.
         25    2    1    2    0    0  0.00000000000E+00  0.00000000000E+00 -0.72384530651E+02  0.14444255430E+03  0.12499652482E+03 0.  0.
    9000005    1    3    3    0    0 -0.60283707231E+02  0.12379609404E+02 -0.23658019657E+02  0.65939987720E+02  0.10000000000E+01 0.  0.
    9000005    1    3    3    0    0  0.60283707231E+02 -0.12379609404E+02 -0.48726510995E+02  0.78502566583E+02  0.10000000000E+01 0.  0.
<mgrwt>
<rscale>  0 0.12499652E+03</rscale>
<asrwt>0</asrwt>
<pdfrwt beam="2">  1        4 0.16679006E-01 0.12499652E+03</pdfrwt>
<pdfrwt beam="1">  1       -4 0.55429250E-02 0.12499652E+03</pdfrwt>
<totfact> 0.10043113E+04</totfact>
</mgrwt>
</event>
<event>
 5    1  0.3243498E-002  0.1249793E+03  0.7818608E-02  0.1235102E+00
         -4   -1    0    0    0  501 -0.00000000000E+00  0.00000000000E+00  0.11780385669E+03  0.11781070220E+03  0.12700000000E+01 0.  1.
          4   -1    0    0  501    0  0.00000000000E+00 -0.00000000000E+00 -0.33127963289E+02  0.33152297834E+02  0.12700000000E+01 0.  1.
         25    2    1    2    0    0  0.00000000000E+00  0.00000000000E+00  0.84675893406E+02  0.15096300003E+03  0.12497928010E+03 0.  0.
    9000005    1    3    3    0    0 -0.26053882688E+02  0.70732377907E+01  0.11040117508E+03  0.11365850147E+03  0.10000000000E+01 0.  0.
    9000005    1    3    3    0    0  0.26053882688E+02 -0.70732377907E+01 -0.25725281675E+02  0.37304498566E+02  0.10000000000E+01 0.  0.
<mgrwt>
<rscale>  0 0.12497928E+03</rscale>
<asrwt>0</asrwt>
<pdfrwt beam="2">  1        4 0.50990083E-02 0.12497928E+03</pdfrwt>
<pdfrwt beam="1">  1       -4 0.18126068E-01 0.12497928E+03</pdfrwt>
<totfact> 0.99158311E+03</totfact>
</mgrwt>
</event>
<event>
 5    1  0.3243498E-002  0.1249999E+03  0.7818608E-02  0.1235069E+00
         -4   -1    0    0    0  501 -0.00000000000E+00  0.00000000000E+00  0.10580324761E+03  0.10581086951E+03  0.12700000000E+01 0. -1.
          4   -1    0    0  501    0  0.00000000000E+00 -0.00000000000E+00 -0.36900010256E+02  0.36921858795E+02  0.12700000000E+01 0. -1.
         25    2    1    2    0    0  0.00000000000E+00  0.00000000000E+00  0.68903237358E+02  0.14273272830E+03  0.12499990244E+03 0.  0.
    9000005    1    3    3    0    0 -0.12041767753E+02  0.50026718141E+02  0.74944575901E+02  0.90914059175E+02  0.10000000000E+01 0.  0.
    9000005    1    3    3    0    0  0.12041767753E+02 -0.50026718141E+02 -0.60413385430E+01  0.51818669126E+02  0.10000000000E+01 0.  0.
<mgrwt>
<rscale>  0 0.12499990E+03</rscale>
<asrwt>0</asrwt>
<pdfrwt beam="2">  1        4 0.56791917E-02 0.12499990E+03</pdfrwt>
<pdfrwt beam="1">  1       -4 0.16279689E-01 0.12499990E+03</pdfrwt>
<totfact> 0.10077281E+04</totfact>
</mgrwt>
</event>
<event>
 5    1  0.3243498E-002  0.1250209E+03  0.7818608E-02  0.1235037E+00
          4   -1    0    0  501    0  0.00000000000E+00  0.00000000000E+00  0.16665373356E+03  0.16665857257E+03  0.12700000000E+01 0. -1.
         -4   -1    0    0    0  501 -0.00000000000E+00 -0.00000000000E+00 -0.23424786243E+02  0.23459188190E+02  0.12700000000E+01 0. -1.
         25    2    1    2    0    0  0.00000000000E+00  0.00000000000E+00  0.14322894732E+03  0.19011776076E+03  0.12502092467E+03 0.  0.
    9000005    1    3    3    0    0 -0.35487660856E+02  0.25591432604E+02  0.13949000678E+03  0.14619424574E+03  0.10000000000E+01 0.  0.
    9000005    1    3    3    0    0  0.35487660856E+02 -0.25591432604E+02  0.37389405447E+01  0.43923515024E+02  0.10000000000E+01 0.  0.
<mgrwt>
<rscale>  0 0.12502092E+03</rscale>
<asrwt>0</asrwt>
<pdfrwt beam="1">  1        4 0.25642054E-01 0.12502092E+03</pdfrwt>
<pdfrwt beam="2">  1       -4 0.36068319E-02 0.12502092E+03</pdfrwt>
<totfact> 0.91783802E+03</totfact>
</mgrwt>
</event>
<event>
 4    1  0.3243498E-002  0.1250643E+03  0.7818608E-02  0.1234969E+00
         -4   -1    0    0    0  501 -0.00000000000E+00  0.00000000000E+00  0.19423155592E+02  0.19464631339E+02  0.12700000000E+01 0. -1.
          4   -1    0    0  501    0  0.00000000000E+00 -0.00000000000E+00 -0.20106177817E+03  0.20106578908E+03  0.12700000000E+01 0. -1.
    9000005    1    1    2    0    0 -0.21513372797E+02  0.25139957699E+02 -0.18436637063E+03  0.18731471192E+03  0.10000000000E+01 0.  0.
    9000005    1    1    2    0    0  0.21513372797E+02 -0.25139957699E+02  0.27277480506E+01  0.33215708507E+02  0.10000000000E+01 0.  0.
<mgrwt>
<rscale>  0 0.12506429E+03</rscale>
<asrwt>0</asrwt>
<pdfrwt beam="2">  1        4 0.30936079E-01 0.12506429E+03</pdfrwt>
<pdfrwt beam="1">  1       -4 0.29916769E-02 0.12506429E+03</pdfrwt>
<totfact> 0.86659983E+03</totfact>
</mgrwt>
</event>
<event>
 5    1  0.3243498E-002  0.1249825E+03  0.7818608E-02  0.1235097E+00
         -4   -1    0    0    0  501 -0.00000000000E+00  0.00000000000E+00  0.56046884558E+03  0.56047028446E+03  0.12700000000E+01 0.  1.
          4   -1    0    0  501    0  0.00000000000E+00 -0.00000000000E+00 -0.69083301287E+01  0.70240960392E+01  0.12700000000E+01 0.  1.
         25    2    1    2    0    0  0.00000000000E+00  0.00000000000E+00  0.55356051545E+03  0.56749438050E+03  0.12498250931E+03 0.  0.
    9000005    1    3    3    0    0 -0.28989143309E+02 -0.19059526789E+02  0.40821501509E+02  0.53582002358E+02  0.10000000000E+01 0.  0.
    9000005    1    3    3    0    0  0.28989143309E+02  0.19059526789E+02  0.51273901394E+03  0.51391237815E+03  0.10000000000E+01 0.  0.
<mgrwt>
<rscale>  0 0.12498251E+03</rscale>
<asrwt>0</asrwt>
<pdfrwt beam="2">  1        4 0.10718355E-02 0.12498251E+03</pdfrwt>
<pdfrwt beam="1">  1       -4 0.86235011E-01 0.12498251E+03</pdfrwt>
<totfact> 0.51005486E+03</totfact>
</mgrwt>
</event>
<event>
 5    1  0.3243498E-002  0.1249983E+03  0.7818608E-02  0.1235072E+00
         -4   -1    0    0    0  501 -0.00000000000E+00  0.00000000000E+00  0.13512069100E+02  0.13571621545E+02  0.12700000000E+01 0.  1.
          4   -1    0    0  501    0  0.00000000000E+00 -0.00000000000E+00 -0.28838886220E+03  0.28839165859E+03  0.12700000000E+01 0.  1.
         25    2    1    2    0    0  0.00000000000E+00  0.00000000000E+00 -0.27487679310E+03  0.30196328013E+03  0.12499828463E+03 0.  0.
    9000005    1    3    3    0    0 -0.33458629731E+02 -0.45040970244E+00 -0.26493497960E+03  0.26704161883E+03  0.10000000000E+01 0.  0.
    9000005    1    3    3    0    0  0.33458629731E+02  0.45040970244E+00 -0.99418135056E+01  0.34921661303E+02  0.10000000000E+01 0.  0.
<mgrwt>
<rscale>  0 0.12499828E+03</rscale>
<asrwt>0</asrwt>
<pdfrwt beam="2">  1        4 0.44372309E-01 0.12499828E+03</pdfrwt>
<pdfrwt beam="1">  1       -4 0.20835761E-02 0.12499828E+03</pdfrwt>
<totfact> 0.75356098E+03</totfact>
</mgrwt>
</event>
<event>
 5    1  0.3243498E-002  0.1250027E+03  0.7818608E-02  0.1235065E+00
          4   -1    0    0  501    0  0.00000000000E+00  0.00000000000E+00  0.14048679497E+02  0.14105966667E+02  0.12700000000E+01 0.  1.
         -4   -1    0    0    0  501 -0.00000000000E+00 -0.00000000000E+00 -0.27743854973E+03  0.27744145649E+03  0.12700000000E+01 0.  1.
         25    2    1    2    0    0  0.00000000000E+00  0.00000000000E+00 -0.26338987024E+03  0.29154742316E+03  0.12500270479E+03 0.  0.
    9000005    1    3    3    0    0 -0.37862222564E+02  0.48658708486E+02 -0.15550311776E+03  0.16728250787E+03  0.10000000000E+01 0.  0.
    9000005    1    3    3    0    0  0.37862222564E+02 -0.48658708486E+02 -0.10788675248E+03  0.12426491528E+03  0.10000000000E+01 0.  0.
<mgrwt>
<rscale>  0 0.12500270E+03</rscale>
<asrwt>0</asrwt>
<pdfrwt beam="1">  1        4 0.21659658E-02 0.12500270E+03</pdfrwt>
<pdfrwt beam="2">  1       -4 0.42687480E-01 0.12500270E+03</pdfrwt>
<totfact> 0.76666892E+03</totfact>
</mgrwt>
</event>
<event>
 5    1  0.3243498E-002  0.1249997E+03  0.7818608E-02  0.1235070E+00
         -4   -1    0    0    0  501 -0.00000000000E+00  0.00000000000E+00  0.10077319603E+04  0.10077327605E+04  0.12700000000E+01 0. -1.
          4   -1    0    0  501    0  0.00000000000E+00 -0.00000000000E+00 -0.37714135296E+01  0.39795049958E+01  0.12700000000E+01 0. -1.
         25    2    1    2    0    0  0.00000000000E+00  0.00000000000E+00  0.10039605467E+04  0.10117122655E+04  0.12499971523E+03 0.  0.
    9000005    1    3    3    0    0 -0.59728628042E+02 -0.14098211196E+02  0.40656924540E+03  0.41117614214E+03  0.10000000000E+01 0.  0.
    9000005    1    3    3    0    0  0.59728628042E+02  0.14098211196E+02  0.59739130134E+03  0.60053612338E+03  0.10000000000E+01 0.  0.
<mgrwt>
<rscale>  0 0.12499972E+03</rscale>
<asrwt>0</asrwt>
<pdfrwt beam="2">  1        4 0.59628587E-03 0.12499972E+03</pdfrwt>
<pdfrwt beam="1">  1       -4 0.15505181E+00 0.12499972E+03</pdfrwt>
<totfact> 0.30221031E+03</totfact>
</mgrwt>
</event>
<event>
 5    1  0.3243498E-002  0.1249944E+03  0.7818608E-02  0.1235078E+00
          4   -1    0    0  501    0  0.00000000000E+00  0.00000000000E+00  0.48409252189E+03  0.48409418779E+03  0.12700000000E+01 0.  1.
         -4   -1    0    0    0  501 -0.00000000000E+00 -0.00000000000E+00 -0.80168328709E+01  0.81168041297E+01  0.12700000000E+01 0.  1.
         25    2    1    2    0    0  0.00000000000E+00  0.00000000000E+00  0.47607568902E+03  0.49221099192E+03  0.12499439543E+03 0.  0.
    9000005    1    3    3    0    0 -0.23096033704E+02 -0.28908140592E+02  0.43633551483E+03  0.43790271621E+03  0.10000000000E+01 0.  0.
    9000005    1    3    3    0    0  0.23096033704E+02  0.28908140592E+02  0.39740174190E+02  0.54308275704E+02  0.10000000000E+01 0.  0.
<mgrwt>
<rscale>  0 0.12499440E+03</rscale>
<asrwt>0</asrwt>
<pdfrwt beam="1">  1        4 0.74483588E-01 0.12499440E+03</pdfrwt>
<pdfrwt beam="2">  1       -4 0.12411772E-02 0.12499440E+03</pdfrwt>
<totfact> 0.56480764E+03</totfact>
</mgrwt>
</event>
<event>
 5    1  0.3243498E-002  0.1250016E+03  0.7818608E-02  0.1235067E+00
         -4   -1    0    0    0  501 -0.00000000000E+00  0.00000000000E+00  0.36257025242E+02  0.36279261010E+02  0.12700000000E+01 0. -1.
          4   -1    0    0  501    0  0.00000000000E+00 -0.00000000000E+00 -0.10768151198E+03  0.10768900093E+03  0.12700000000E+01 0. -1.
         25    2    1    2    0    0  0.00000000000E+00  0.00000000000E+00 -0.71424486736E+02  0.14396826194E+03  0.12500161255E+03 0.  0.
    9000005    1    3    3    0    0  0.52435582786E+01 -0.56512467656E+02 -0.55862281440E+01  0.57038231467E+02  0.10000000000E+01 0.  0.
    9000005    1    3    3    0    0 -0.52435582786E+01  0.56512467656E+02 -0.65838258592E+02  0.86930030476E+02  0.10000000000E+01 0.  0.
<mgrwt>
<rscale>  0 0.12500161E+03</rscale>
<asrwt>0</asrwt>
<pdfrwt beam="2">  1        4 0.16568673E-01 0.12500161E+03</pdfrwt>
<pdfrwt beam="1">  1       -4 0.55802904E-02 0.12500161E+03</pdfrwt>
<totfact> 0.10051628E+04</totfact>
</mgrwt>
</event>
<event>
 5    1  0.3243498E-002  0.1249984E+03  0.7818608E-02  0.1235072E+00
          4   -1    0    0  501    0  0.00000000000E+00  0.00000000000E+00  0.52345393462E+02  0.52360797517E+02  0.12700000000E+01 0. -1.
         -4   -1    0    0    0  501 -0.00000000000E+00 -0.00000000000E+00 -0.74590813976E+02  0.74601624846E+02  0.12700000000E+01 0. -1.
         25    2    1    2    0    0  0.00000000000E+00  0.00000000000E+00 -0.22245420514E+02  0.12696242236E+03  0.12499839182E+03 0.  0.
    9000005    1    3    3    0    0 -0.36534151685E+02 -0.35287771316E+02  0.25852270446E+02  0.57002727399E+02  0.10000000000E+01 0.  0.
    9000005    1    3    3    0    0  0.36534151685E+02  0.35287771316E+02 -0.48097690960E+02  0.69959694964E+02  0.10000000000E+01 0.  0.
<mgrwt>
<rscale>  0 0.12499839E+03</rscale>
<asrwt>0</asrwt>
<pdfrwt beam="1">  1        4 0.80551540E-02 0.12499839E+03</pdfrwt>
<pdfrwt beam="2">  1       -4 0.11477526E-01 0.12499839E+03</pdfrwt>
<totfact> 0.10410340E+04</totfact>
</mgrwt>
</event>
<event>
 5    1  0.3243498E-002  0.1250017E+03  0.7818608E-02  0.1235067E+00
         -4   -1    0    0    0  501 -0.00000000000E+00  0.00000000000E+00  0.50342598815E+02  0.50358615503E+02  0.12700000000E+01 0. -1.
          4   -1    0    0  501    0  0.00000000000E+00 -0.00000000000E+00 -0.77561864801E+02  0.77572261611E+02  0.12700000000E+01 0. -1.
         25    2    1    2    0    0  0.00000000000E+00  0.00000000000E+00 -0.27219265986E+02  0.12793087711E+03  0.12500168350E+03 0.  0.
    9000005    1    3    3    0    0 -0.26583089186E+02 -0.40490246896E+02  0.26802821867E+02  0.55367065882E+02  0.10000000000E+01 0.  0.
    9000005    1    3    3    0    0  0.26583089186E+02  0.40490246896E+02 -0.54022087854E+02  0.72563811232E+02  0.10000000000E+01 0.  0.
<mgrwt>
<rscale>  0 0.12500168E+03</rscale>
<asrwt>0</asrwt>
<pdfrwt beam="2">  1        4 0.11934626E-01 0.12500168E+03</pdfrwt>
<pdfrwt beam="1">  1       -4 0.77470470E-02 0.12500168E+03</pdfrwt>
<totfact> 0.10388586E+04</totfact>
</mgrwt>
</event>
<event>
 5    1  0.3243498E-002  0.1249940E+03  0.7818608E-02  0.1235079E+00
          4   -1    0    0  501    0  0.00000000000E+00  0.00000000000E+00  0.17121165499E+02  0.17168203402E+02  0.12700000000E+01 0. -1.
         -4   -1    0    0    0  501 -0.00000000000E+00 -0.00000000000E+00 -0.22776944106E+03  0.22777298167E+03  0.12700000000E+01 0. -1.
         25    2    1    2    0    0  0.00000000000E+00  0.00000000000E+00 -0.21064827556E+03  0.24494118507E+03  0.12499395245E+03 0.  0.
    9000005    1    3    3    0    0 -0.22345862980E+02  0.42930342771E+02 -0.27862687838E+02  0.55854107247E+02  0.10000000000E+01 0.  0.
    9000005    1    3    3    0    0  0.22345862980E+02 -0.42930342771E+02 -0.18278558772E+03  0.18908707783E+03  0.10000000000E+01 0.  0.
<mgrwt>
<rscale>  0 0.12499395E+03</rscale>
<asrwt>0</asrwt>
<pdfrwt beam="1">  1        4 0.26379163E-02 0.12499395E+03</pdfrwt>
<pdfrwt beam="2">  1       -4 0.35045341E-01 0.12499395E+03</pdfrwt>
<totfact> 0.83078123E+03</totfact>
</mgrwt>
</event>
<event>
 5    1  0.3243498E-002  0.1250005E+03  0.7818608E-02  0.1235069E+00
         -4   -1    0    0    0  501 -0.00000000000E+00  0.00000000000E+00  0.34245193742E+02  0.34268734940E+02  0.12700000000E+01 0. -1.
          4   -1    0    0  501    0  0.00000000000E+00 -0.00000000000E+00 -0.11400167137E+03  0.11400874517E+03  0.12700000000E+01 0. -1.
         25    2    1    2    0    0  0.00000000000E+00  0.00000000000E+00 -0.79756477628E+02  0.14827748011E+03  0.12500046154E+03 0.  0.
    9000005    1    3    3    0    0 -0.84653372453E-01  0.26107281864E+02  0.27472078262E+02  0.37911903362E+02  0.10000000000E+01 0.  0.
    9000005    1    3    3    0    0  0.84653372453E-01 -0.26107281864E+02 -0.10722855589E+03  0.11036557675E+03  0.10000000000E+01 0.  0.
<mgrwt>
<rscale>  0 0.12500046E+03</rscale>
<asrwt>0</asrwt>
<pdfrwt beam="2">  1        4 0.17541073E-01 0.12500046E+03</pdfrwt>
<pdfrwt beam="1">  1       -4 0.52708464E-02 0.12500046E+03</pdfrwt>
<totfact> 0.99647135E+03</totfact>
</mgrwt>
</event>
<event>
 5    1  0.3243498E-002  0.1249871E+03  0.7818608E-02  0.1235089E+00
          4   -1    0    0  501    0  0.00000000000E+00  0.00000000000E+00  0.21174650980E+03  0.21175031833E+03  0.12700000000E+01 0. -1.
         -4   -1    0    0    0  501 -0.00000000000E+00 -0.00000000000E+00 -0.18418109554E+02  0.18461843341E+02  0.12700000000E+01 0. -1.
         25    2    1    2    0    0  0.00000000000E+00  0.00000000000E+00  0.19332840025E+03  0.23021216167E+03  0.12498707549E+03 0.  0.
    9000005    1    3    3    0    0 -0.15895372756E+02 -0.58279954500E+02  0.12608983616E+03  0.13981724770E+03  0.10000000000E+01 0.  0.
    9000005    1    3    3    0    0  0.15895372756E+02  0.58279954500E+02  0.67238564093E+02  0.90394913976E+02  0.10000000000E+01 0.  0.
<mgrwt>
<rscale>  0 0.12498708E+03</rscale>
<asrwt>0</asrwt>
<pdfrwt beam="1">  1        4 0.32580041E-01 0.12498708E+03</pdfrwt>
<pdfrwt beam="2">  1       -4 0.28372126E-02 0.12498708E+03</pdfrwt>
<totfact> 0.85301626E+03</totfact>
</mgrwt>
</event>
<event>
 5    1  0.3243498E-002  0.1249986E+03  0.7818608E-02  0.1235071E+00
          4   -1    0    0  501    0  0.00000000000E+00  0.00000000000E+00  0.25293552061E+02  0.25325415610E+02  0.12700000000E+01 0.  1.
         -4   -1    0    0    0  501 -0.00000000000E+00 -0.00000000000E+00 -0.15430154716E+03  0.15430677353E+03  0.12700000000E+01 0.  1.
         25    2    1    2    0    0  0.00000000000E+00  0.00000000000E+00 -0.12900799510E+03  0.17963218914E+03  0.12499864229E+03 0.  0.
    9000005    1    3    3    0    0  0.11822010809E+02  0.31661697923E+02  0.11033876508E+02  0.35566409514E+02  0.10000000000E+01 0.  0.
    9000005    1    3    3    0    0 -0.11822010809E+02 -0.31661697923E+02 -0.14004187161E+03  0.14406577963E+03  0.10000000000E+01 0.  0.
<mgrwt>
<rscale>  0 0.12499864E+03</rscale>
<asrwt>0</asrwt>
<pdfrwt beam="1">  1        4 0.38941689E-02 0.12499864E+03</pdfrwt>
<pdfrwt beam="2">  1       -4 0.23741552E-01 0.12499864E+03</pdfrwt>
<totfact> 0.93686105E+03</totfact>
</mgrwt>
</event>
<event>
 5    1  0.3243498E-002  0.1250057E+03  0.7818608E-02  0.1235060E+00
         -4   -1    0    0    0  501 -0.00000000000E+00  0.00000000000E+00  0.60735863584E+01  0.62049457091E+01  0.12700000000E+01 0.  1.
          4   -1    0    0  501    0  0.00000000000E+00 -0.00000000000E+00 -0.63619938941E+03  0.63620065702E+03  0.12700000000E+01 0.  1.
         25    2    1    2    0    0  0.00000000000E+00  0.00000000000E+00 -0.63012580305E+03  0.64240560273E+03  0.12500572283E+03 0.  0.
    9000005    1    3    3    0    0  0.55794450308E+02  0.16244542682E+02 -0.43322680582E+03  0.43710796279E+03  0.10000000000E+01 0.  0.
    9000005    1    3    3    0    0 -0.55794450308E+02 -0.16244542682E+02 -0.19689899723E+03  0.20529763993E+03  0.10000000000E+01 0.  0.
<mgrwt>
<rscale>  0 0.12500572E+03</rscale>
<asrwt>0</asrwt>
<pdfrwt beam="2">  1        4 0.97886979E-01 0.12500572E+03</pdfrwt>
<pdfrwt beam="1">  1       -4 0.94460048E-03 0.12500572E+03</pdfrwt>
<totfact> 0.46289904E+03</totfact>
</mgrwt>
</event>
<event>
 5    1  0.3243498E-002  0.1250012E+03  0.7818608E-02  0.1235067E+00
          4   -1    0    0  501    0  0.00000000000E+00  0.00000000000E+00  0.47582800295E+02  0.47599745629E+02  0.12700000000E+01 0.  1.
         -4   -1    0    0    0  501 -0.00000000000E+00 -0.00000000000E+00 -0.82058856857E+02  0.82068683971E+02  0.12700000000E+01 0.  1.
         25    2    1    2    0    0  0.00000000000E+00  0.00000000000E+00 -0.34476056562E+02  0.12966842960E+03  0.12500121263E+03 0.  0.
    9000005    1    3    3    0    0 -0.34040421151E+02  0.40241239908E+02  0.17589608569E+02  0.55574292538E+02  0.10000000000E+01 0.  0.
    9000005    1    3    3    0    0  0.34040421151E+02 -0.40241239908E+02 -0.52065665130E+02  0.74094137062E+02  0.10000000000E+01 0.  0.
<mgrwt>
<rscale>  0 0.12500121E+03</rscale>
<asrwt>0</asrwt>
<pdfrwt beam="1">  1        4 0.73224902E-02 0.12500121E+03</pdfrwt>
<pdfrwt beam="2">  1       -4 0.12626499E-01 0.12500121E+03</pdfrwt>
<totfact> 0.10351322E+04</totfact>
</mgrwt>
</event>
<event>
 4    1  0.3243498E-002  0.1250819E+03  0.7818608E-02  0.1234941E+00
          4   -1    0    0  501    0  0.00000000000E+00  0.00000000000E+00  0.10267350949E+03  0.10268136369E+03  0.12700000000E+01 0.  1.
         -4   -1    0    0    0  501 -0.00000000000E+00 -0.00000000000E+00 -0.38075298638E+02  0.38096473149E+02  0.12700000000E+01 0.  1.
    9000005    1    1    2    0    0 -0.40348836298E+02  0.21003551357E+01  0.86015879870E+02  0.95037738147E+02  0.10000000000E+01 0.  0.
    9000005    1    1    2    0    0  0.40348836298E+02 -0.21003551357E+01 -0.21417669023E+02  0.45740098696E+02  0.10000000000E+01 0.  0.
<mgrwt>
<rscale>  0 0.12508186E+03</rscale>
<asrwt>0</asrwt>
<pdfrwt beam="1">  1        4 0.15798158E-01 0.12508186E+03</pdfrwt>
<pdfrwt beam="2">  1       -4 0.58599712E-02 0.12508186E+03</pdfrwt>
<totfact> 0.10098856E+04</totfact>
</mgrwt>
</event>
<event>
 5    1  0.3243498E-002  0.1250012E+03  0.7818608E-02  0.1235067E+00
          4   -1    0    0  501    0  0.00000000000E+00  0.00000000000E+00  0.10268506935E+02  0.10346745125E+02  0.12700000000E+01 0.  1.
         -4   -1    0    0    0  501 -0.00000000000E+00 -0.00000000000E+00 -0.37889503414E+03  0.37889716256E+03  0.12700000000E+01 0.  1.
         25    2    1    2    0    0  0.00000000000E+00  0.00000000000E+00 -0.36862652720E+03  0.38924390768E+03  0.12500121244E+03 0.  0.
    9000005    1    3    3    0    0 -0.65328190521E+01 -0.47699047497E+02 -0.30838060570E+03  0.31211772591E+03  0.10000000000E+01 0.  0.
    9000005    1    3    3    0    0  0.65328190521E+01  0.47699047497E+02 -0.60245921506E+02  0.77126181774E+02  0.10000000000E+01 0.  0.
<mgrwt>
<rscale>  0 0.12500121E+03</rscale>
<asrwt>0</asrwt>
<pdfrwt beam="1">  1        4 0.15859526E-02 0.12500121E+03</pdfrwt>
<pdfrwt beam="2">  1       -4 0.58297715E-01 0.12500121E+03</pdfrwt>
<totfact> 0.65610780E+03</totfact>
</mgrwt>
</event>
<event>
 5    1  0.3243498E-002  0.1249981E+03  0.7818608E-02  0.1235072E+00
         -4   -1    0    0    0  501 -0.00000000000E+00  0.00000000000E+00  0.27491231954E+01  0.30282962774E+01  0.12700000000E+01 0. -1.
          4   -1    0    0  501    0  0.00000000000E+00 -0.00000000000E+00 -0.13519272265E+04  0.13519278230E+04  0.12700000000E+01 0. -1.
         25    2    1    2    0    0  0.00000000000E+00  0.00000000000E+00 -0.13491781033E+04  0.13549561193E+04  0.12499812311E+03 0.  0.
    9000005    1    3    3    0    0 -0.18381676901E+02 -0.27264177948E+02 -0.12506219141E+04  0.12510545126E+04  0.10000000000E+01 0.  0.
    9000005    1    3    3    0    0  0.18381676901E+02  0.27264177948E+02 -0.98556189141E+02  0.10390160664E+03  0.10000000000E+01 0.  0.
<mgrwt>
<rscale>  0 0.12499812E+03</rscale>
<asrwt>0</asrwt>
<pdfrwt beam="2">  1        4 0.20800982E+00 0.12499812E+03</pdfrwt>
<pdfrwt beam="1">  1       -4 0.44446385E-03 0.12499812E+03</pdfrwt>
<totfact> 0.20968294E+03</totfact>
</mgrwt>
</event>
<event>
 5    1  0.3243498E-002  0.1249986E+03  0.7818608E-02  0.1235071E+00
          4   -1    0    0  501    0  0.00000000000E+00  0.00000000000E+00  0.54562102149E+01  0.56020647898E+01  0.12700000000E+01 0.  1.
         -4   -1    0    0    0  501 -0.00000000000E+00 -0.00000000000E+00 -0.70632217275E+03  0.70632331451E+03  0.12700000000E+01 0.  1.
         25    2    1    2    0    0  0.00000000000E+00  0.00000000000E+00 -0.70086596253E+03  0.71192537930E+03  0.12499859299E+03 0.  0.
    9000005    1    3    3    0    0  0.82418682257E+00  0.42977088661E+02 -0.60877453851E+03  0.61029103563E+03  0.10000000000E+01 0.  0.
    9000005    1    3    3    0    0 -0.82418682257E+00 -0.42977088661E+02 -0.92091424025E+02  0.10163434367E+03  0.10000000000E+01 0.  0.
<mgrwt>
<rscale>  0 0.12499859E+03</rscale>
<asrwt>0</asrwt>
<pdfrwt beam="1">  1        4 0.85072493E-03 0.12499859E+03</pdfrwt>
<pdfrwt beam="2">  1       -4 0.10867619E+00 0.12499859E+03</pdfrwt>
<totfact> 0.42465936E+03</totfact>
</mgrwt>
</event>
<event>
 5    1  0.3243498E-002  0.1249885E+03  0.7818608E-02  0.1235087E+00
         -4   -1    0    0    0  501 -0.00000000000E+00  0.00000000000E+00  0.16654800670E+02  0.16703151959E+02  0.12700000000E+01 0. -1.
          4   -1    0    0  501    0  0.00000000000E+00 -0.00000000000E+00 -0.23410888742E+03  0.23411233216E+03  0.12700000000E+01 0. -1.
         25    2    1    2    0    0  0.00000000000E+00  0.00000000000E+00 -0.21745408675E+03  0.25081548412E+03  0.12498850839E+03 0.  0.
    9000005    1    3    3    0    0 -0.59492142747E+02 -0.86866837455E+01 -0.74568276089E+02  0.95792490948E+02  0.10000000000E+01 0.  0.
    9000005    1    3    3    0    0  0.59492142747E+02  0.86866837455E+01 -0.14288581066E+03  0.15502299317E+03  0.10000000000E+01 0.  0.
<mgrwt>
<rscale>  0 0.12498851E+03</rscale>
<asrwt>0</asrwt>
<pdfrwt beam="2">  1        4 0.36020734E-01 0.12498851E+03</pdfrwt>
<pdfrwt beam="1">  1       -4 0.25662615E-02 0.12498851E+03</pdfrwt>
<totfact> 0.82233557E+03</totfact>
</mgrwt>
</event>
<event>
 5    1  0.3243498E-002  0.1249997E+03  0.7818608E-02  0.1235070E+00
         -4   -1    0    0    0  501 -0.00000000000E+00  0.00000000000E+00  0.41480361983E+02  0.41499799159E+02  0.12700000000E+01 0. -1.
          4   -1    0    0  501    0  0.00000000000E+00 -0.00000000000E+00 -0.94124786193E+02  0.94133353685E+02  0.12700000000E+01 0. -1.
         25    2    1    2    0    0  0.00000000000E+00  0.00000000000E+00 -0.52644424210E+02  0.13563315284E+03  0.12499966700E+03 0.  0.
    9000005    1    3    3    0    0  0.93744270468E+00  0.17288106140E+02 -0.91475757191E+02  0.93105164015E+02  0.10000000000E+01 0.  0.
    9000005    1    3    3    0    0 -0.93744270468E+00 -0.17288106140E+02  0.38831332981E+02  0.42527988829E+02  0.10000000000E+01 0.  0.
<mgrwt>
<rscale>  0 0.12499967E+03</rscale>
<asrwt>0</asrwt>
<pdfrwt beam="2">  1        4 0.14482891E-01 0.12499967E+03</pdfrwt>
<pdfrwt beam="1">  1       -4 0.63837484E-02 0.12499967E+03</pdfrwt>
<totfact> 0.10224820E+04</totfact>
</mgrwt>
</event>
<event>
 5    1  0.3243498E-002  0.1250491E+03  0.7818608E-02  0.1234993E+00
         -4   -1    0    0    0  501 -0.00000000000E+00  0.00000000000E+00  0.26132867427E+02  0.26163708834E+02  0.12700000000E+01 0. -1.
          4   -1    0    0  501    0  0.00000000000E+00 -0.00000000000E+00 -0.14947225499E+03  0.14947765021E+03  0.12700000000E+01 0. -1.
         25    2    1    2    0    0  0.00000000000E+00  0.00000000000E+00 -0.12333938756E+03  0.17564135904E+03  0.12504912028E+03 0.  0.
    9000005    1    3    3    0    0  0.39393275061E+01 -0.30925458078E+02  0.14442653140E+02  0.34372845216E+02  0.10000000000E+01 0.  0.
    9000005    1    3    3    0    0 -0.39393275061E+01  0.30925458078E+02 -0.13778204070E+03  0.14126851383E+03  0.10000000000E+01 0.  0.
<mgrwt>
<rscale>  0 0.12504912E+03</rscale>
<asrwt>0</asrwt>
<pdfrwt beam="2">  1        4 0.22998519E-01 0.12504912E+03</pdfrwt>
<pdfrwt beam="1">  1       -4 0.40232286E-02 0.12504912E+03</pdfrwt>
<totfact> 0.94303560E+03</totfact>
</mgrwt>
</event>
<event>
 5    1  0.3243498E-002  0.1249813E+03  0.7818608E-02  0.1235098E+00
         -4   -1    0    0    0  501 -0.00000000000E+00  0.00000000000E+00  0.82922424905E+01  0.83889323231E+01  0.12700000000E+01 0.  1.
          4   -1    0    0  501    0  0.00000000000E+00 -0.00000000000E+00 -0.46810477062E+03  0.46810649342E+03  0.12700000000E+01 0.  1.
         25    2    1    2    0    0  0.00000000000E+00  0.00000000000E+00 -0.45981252813E+03  0.47649542574E+03  0.12498131750E+03 0.  0.
    9000005    1    3    3    0    0 -0.89550366499E+01 -0.53013841079E+02 -0.10853695269E+03  0.12112774301E+03  0.10000000000E+01 0.  0.
    9000005    1    3    3    0    0  0.89550366499E+01  0.53013841079E+02 -0.35127557544E+03  0.35536768273E+03  0.10000000000E+01 0.  0.
<mgrwt>
<rscale>  0 0.12498132E+03</rscale>
<asrwt>0</asrwt>
<pdfrwt beam="2">  1        4 0.72023668E-01 0.12498132E+03</pdfrwt>
<pdfrwt beam="1">  1       -4 0.12833002E-02 0.12498132E+03</pdfrwt>
<totfact> 0.57759044E+03</totfact>
</mgrwt>
</event>
<event>
 5    1  0.3243498E-002  0.1249945E+03  0.7818608E-02  0.1235078E+00
         -4   -1    0    0    0  501 -0.00000000000E+00  0.00000000000E+00  0.22554330917E+03  0.22554688473E+03  0.12700000000E+01 0.  1.
          4   -1    0    0  501    0  0.00000000000E+00 -0.00000000000E+00 -0.17290766787E+02  0.17337344551E+02  0.12700000000E+01 0.  1.
         25    2    1    2    0    0  0.00000000000E+00  0.00000000000E+00  0.20825254238E+03  0.24288422928E+03  0.12499450958E+03 0.  0.
    9000005    1    3    3    0    0  0.13383194465E+02  0.98216837219E+01 -0.12937280966E+02  0.21070087897E+02  0.10000000000E+01 0.  0.
    9000005    1    3    3    0    0 -0.13383194465E+02 -0.98216837219E+01  0.22118982335E+03  0.22181414139E+03  0.10000000000E+01 0.  0.
<mgrwt>
<rscale>  0 0.12499451E+03</rscale>
<asrwt>0</asrwt>
<pdfrwt beam="2">  1        4 0.26639759E-02 0.12499451E+03</pdfrwt>
<pdfrwt beam="1">  1       -4 0.34702829E-01 0.12499451E+03</pdfrwt>
<totfact> 0.83379881E+03</totfact>
</mgrwt>
</event>
<event>
 5    1  0.3243498E-002  0.1250002E+03  0.7818608E-02  0.1235069E+00
         -4   -1    0    0    0  501 -0.00000000000E+00  0.00000000000E+00  0.26028575004E+02  0.26059539842E+02  0.12700000000E+01 0. -1.
          4   -1    0    0  501    0  0.00000000000E+00 -0.00000000000E+00 -0.14995304350E+03  0.14995842142E+03  0.12700000000E+01 0. -1.
         25    2    1    2    0    0  0.00000000000E+00  0.00000000000E+00 -0.12392446850E+03  0.17601796127E+03  0.12500019518E+03 0.  0.
    9000005    1    3    3    0    0  0.23059732225E+02 -0.74924598405E+01  0.19141997192E+02  0.30907996721E+02  0.10000000000E+01 0.  0.
    9000005    1    3    3    0    0 -0.23059732225E+02  0.74924598405E+01 -0.14306646569E+03  0.14510996454E+03  0.10000000000E+01 0.  0.
<mgrwt>
<rscale>  0 0.12500020E+03</rscale>
<asrwt>0</asrwt>
<pdfrwt beam="2">  1        4 0.23072494E-01 0.12500020E+03</pdfrwt>
<pdfrwt beam="1">  1       -4 0.40071918E-02 0.12500020E+03</pdfrwt>
<totfact> 0.94338321E+03</totfact>
</mgrwt>
</event>
<event>
 5    1  0.3243498E-002  0.1249973E+03  0.7818608E-02  0.1235073E+00
         -4   -1    0    0    0  501 -0.00000000000E+00  0.00000000000E+00  0.11919478083E+03  0.11920154646E+03  0.12700000000E+01 0. -1.
          4   -1    0    0  501    0  0.00000000000E+00 -0.00000000000E+00 -0.32750578313E+02  0.32775193056E+02  0.12700000000E+01 0. -1.
         25    2    1    2    0    0  0.00000000000E+00  0.00000000000E+00  0.86444202519E+02  0.15197673951E+03  0.12499731679E+03 0.  0.
    9000005    1    3    3    0    0 -0.37355561615E-01  0.59243496223E+02  0.19048918781E+02  0.62238690112E+02  0.10000000000E+01 0.  0.
    9000005    1    3    3    0    0  0.37355561615E-01 -0.59243496223E+02  0.67395283738E+02  0.89738049401E+02  0.10000000000E+01 0.  0.
<mgrwt>
<rscale>  0 0.12499732E+03</rscale>
<asrwt>0</asrwt>
<pdfrwt beam="2">  1        4 0.50409643E-02 0.12499732E+03</pdfrwt>
<pdfrwt beam="1">  1       -4 0.18340073E-01 0.12499732E+03</pdfrwt>
<totfact> 0.98917086E+03</totfact>
</mgrwt>
</event>
<event>
 5    1  0.3243498E-002  0.1250560E+03  0.7818608E-02  0.1234982E+00
         -4   -1    0    0    0  501 -0.00000000000E+00  0.00000000000E+00  0.21797661125E+02  0.21834626869E+02  0.12700000000E+01 0. -1.
          4   -1    0    0  501    0  0.00000000000E+00 -0.00000000000E+00 -0.17917430373E+03  0.17917880460E+03  0.12700000000E+01 0. -1.
         25    2    1    2    0    0  0.00000000000E+00  0.00000000000E+00 -0.15737664261E+03  0.20101343147E+03  0.12505595545E+03 0.  0.
    9000005    1    3    3    0    0  0.31081551121E+02 -0.19910108055E+02  0.24214472360E+01  0.37004575793E+02  0.10000000000E+01 0.  0.
    9000005    1    3    3    0    0 -0.31081551121E+02  0.19910108055E+02 -0.15979808984E+03  0.16400885568E+03  0.10000000000E+01 0.  0.
<mgrwt>
<rscale>  0 0.12505596E+03</rscale>
<asrwt>0</asrwt>
<pdfrwt beam="2">  1        4 0.27568466E-01 0.12505596E+03</pdfrwt>
<pdfrwt beam="1">  1       -4 0.33566762E-02 0.12505596E+03</pdfrwt>
<totfact> 0.89852320E+03</totfact>
</mgrwt>
</event>
<event>
 5    1  0.3243498E-002  0.1250021E+03  0.7818608E-02  0.1235066E+00
         -4   -1    0    0    0  501 -0.00000000000E+00  0.00000000000E+00  0.33842548878E+02  0.33866369964E+02  0.12700000000E+01 0. -1.
          4   -1    0    0  501    0  0.00000000000E+00 -0.00000000000E+00 -0.11536026828E+03  0.11536725878E+03  0.12700000000E+01 0. -1.
         25    2    1    2    0    0  0.00000000000E+00  0.00000000000E+00 -0.81517719403E+02  0.14923362874E+03  0.12500214946E+03 0.  0.
    9000005    1    3    3    0    0  0.50541198129E+02 -0.26944087851E+02 -0.70604780066E+02  0.90919918317E+02  0.10000000000E+01 0.  0.
    9000005    1    3    3    0    0 -0.50541198129E+02  0.26944087851E+02 -0.10912939336E+02  0.58313710424E+02  0.10000000000E+01 0.  0.
<mgrwt>
<rscale>  0 0.12500215E+03</rscale>
<asrwt>0</asrwt>
<pdfrwt beam="2">  1        4 0.17750103E-01 0.12500215E+03</pdfrwt>
<pdfrwt beam="1">  1       -4 0.52089162E-02 0.12500215E+03</pdfrwt>
<totfact> 0.99451871E+03</totfact>
</mgrwt>
</event>
<event>
 5    1  0.3243498E-002  0.1249980E+03  0.7818608E-02  0.1235072E+00
          4   -1    0    0  501    0  0.00000000000E+00  0.00000000000E+00  0.12003439399E+03  0.12004111230E+03  0.12700000000E+01 0.  1.
         -4   -1    0    0    0  501 -0.00000000000E+00 -0.00000000000E+00 -0.32521674180E+02  0.32546462043E+02  0.12700000000E+01 0.  1.
         25    2    1    2    0    0  0.00000000000E+00  0.00000000000E+00  0.87512719813E+02  0.15258757434E+03  0.12499796684E+03 0.  0.
    9000005    1    3    3    0    0  0.17427047316E+02  0.36580215743E+02  0.10183121341E+03  0.10960114135E+03  0.10000000000E+01 0.  0.
    9000005    1    3    3    0    0 -0.17427047316E+02 -0.36580215743E+02 -0.14318493594E+02  0.42986432985E+02  0.10000000000E+01 0.  0.
<mgrwt>
<rscale>  0 0.12499797E+03</rscale>
<asrwt>0</asrwt>
<pdfrwt beam="1">  1        4 0.18469253E-01 0.12499797E+03</pdfrwt>
<pdfrwt beam="2">  1       -4 0.50057580E-02 0.12499797E+03</pdfrwt>
<totfact> 0.98794902E+03</totfact>
</mgrwt>
</event>
<event>
 5    1  0.3243498E-002  0.1250012E+03  0.7818608E-02  0.1235067E+00
          4   -1    0    0  501    0  0.00000000000E+00  0.00000000000E+00  0.40122215075E+02  0.40142309880E+02  0.12700000000E+01 0.  1.
         -4   -1    0    0    0  501 -0.00000000000E+00 -0.00000000000E+00 -0.97312111750E+02  0.97320398649E+02  0.12700000000E+01 0.  1.
         25    2    1    2    0    0  0.00000000000E+00  0.00000000000E+00 -0.57189896675E+02  0.13746270853E+03  0.12500124781E+03 0.  0.
    9000005    1    3    3    0    0 -0.34170135432E+02 -0.48138117332E+02 -0.60458854414E+01  0.59350056668E+02  0.10000000000E+01 0.  0.
    9000005    1    3    3    0    0  0.34170135432E+02  0.48138117332E+02 -0.51144011234E+02  0.78112651861E+02  0.10000000000E+01 0.  0.
<mgrwt>
<rscale>  0 0.12500125E+03</rscale>
<asrwt>0</asrwt>
<pdfrwt beam="1">  1        4 0.61748317E-02 0.12500125E+03</pdfrwt>
<pdfrwt beam="2">  1       -4 0.14973277E-01 0.12500125E+03</pdfrwt>
<totfact> 0.10186133E+04</totfact>
</mgrwt>
</event>
<event>
 5    1  0.3243498E-002  0.1249950E+03  0.7818608E-02  0.1235077E+00
         -4   -1    0    0    0  501 -0.00000000000E+00  0.00000000000E+00  0.98075170298E+02  0.98083392728E+02  0.12700000000E+01 0. -1.
          4   -1    0    0  501    0  0.00000000000E+00 -0.00000000000E+00 -0.39805928449E+02  0.39826182841E+02  0.12700000000E+01 0. -1.
         25    2    1    2    0    0  0.00000000000E+00  0.00000000000E+00  0.58269241849E+02  0.13790957557E+03  0.12499498585E+03 0.  0.
    9000005    1    3    3    0    0 -0.10674144117E+02  0.92510319936E+01  0.96296125167E+02  0.97331714605E+02  0.10000000000E+01 0.  0.
    9000005    1    3    3    0    0  0.10674144117E+02 -0.92510319936E+01 -0.38026883318E+02  0.40577860965E+02  0.10000000000E+01 0.  0.
<mgrwt>
<rscale>  0 0.12499499E+03</rscale>
<asrwt>0</asrwt>
<pdfrwt beam="2">  1        4 0.61261796E-02 0.12499499E+03</pdfrwt>
<pdfrwt beam="1">  1       -4 0.15090678E-01 0.12499499E+03</pdfrwt>
<totfact> 0.10178246E+04</totfact>
</mgrwt>
</event>
<event>
 5    1  0.3243498E-002  0.1249972E+03  0.7818608E-02  0.1235074E+00
         -4   -1    0    0    0  501 -0.00000000000E+00  0.00000000000E+00  0.18210274926E+03  0.18210717775E+03  0.12700000000E+01 0. -1.
          4   -1    0    0  501    0  0.00000000000E+00 -0.00000000000E+00 -0.21426334791E+02  0.21463940052E+02  0.12700000000E+01 0. -1.
         25    2    1    2    0    0  0.00000000000E+00  0.00000000000E+00  0.16067641447E+03  0.20357111780E+03  0.12499715931E+03 0.  0.
    9000005    1    3    3    0    0  0.47591756449E+02  0.25825104088E+02  0.29532979167E+02  0.61685558614E+02  0.10000000000E+01 0.  0.
    9000005    1    3    3    0    0 -0.47591756449E+02 -0.25825104088E+02  0.13114343530E+03  0.14188555919E+03  0.10000000000E+01 0.  0.
<mgrwt>
<rscale>  0 0.12499716E+03</rscale>
<asrwt>0</asrwt>
<pdfrwt beam="2">  1        4 0.32995926E-02 0.12499716E+03</pdfrwt>
<pdfrwt beam="1">  1       -4 0.28019040E-01 0.12499716E+03</pdfrwt>
<totfact> 0.89542374E+03</totfact>
</mgrwt>
</event>
<event>
 5    1  0.3243498E-002  0.1250007E+03  0.7818608E-02  0.1235068E+00
         -4   -1    0    0    0  501 -0.00000000000E+00  0.00000000000E+00  0.38279752331E+02  0.38300813810E+02  0.12700000000E+01 0. -1.
          4   -1    0    0  501    0  0.00000000000E+00 -0.00000000000E+00 -0.10199292541E+03  0.10200083203E+03  0.12700000000E+01 0. -1.
         25    2    1    2    0    0  0.00000000000E+00  0.00000000000E+00 -0.63713173082E+02  0.14030164584E+03  0.12500073360E+03 0.  0.
    9000005    1    3    3    0    0 -0.51271535850E+02  0.25230452935E+02 -0.60250360847E+02  0.83044880191E+02  0.10000000000E+01 0.  0.
    9000005    1    3    3    0    0  0.51271535850E+02 -0.25230452935E+02 -0.34628122352E+01  0.57256765647E+02  0.10000000000E+01 0.  0.
<mgrwt>
<rscale>  0 0.12500073E+03</rscale>
<asrwt>0</asrwt>
<pdfrwt beam="2">  1        4 0.15693447E-01 0.12500073E+03</pdfrwt>
<pdfrwt beam="1">  1       -4 0.58914210E-02 0.12500073E+03</pdfrwt>
<totfact> 0.10127170E+04</totfact>
</mgrwt>
</event>
<event>
 5    1  0.3243498E-002  0.1250120E+03  0.7818608E-02  0.1235051E+00
          4   -1    0    0  501    0  0.00000000000E+00  0.00000000000E+00  0.13557445995E+02  0.13616799988E+02  0.12700000000E+01 0. -1.
         -4   -1    0    0    0  501 -0.00000000000E+00 -0.00000000000E+00 -0.28749075111E+03  0.28749355623E+03  0.12700000000E+01 0. -1.
         25    2    1    2    0    0  0.00000000000E+00  0.00000000000E+00 -0.27393330511E+03  0.30111035621E+03  0.12501196331E+03 0.  0.
    9000005    1    3    3    0    0  0.16935819300E+02  0.57355094246E+02 -0.18069340751E+03  0.19033532601E+03  0.10000000000E+01 0.  0.
    9000005    1    3    3    0    0 -0.16935819300E+02 -0.57355094246E+02 -0.93239897605E+02  0.11077503020E+03  0.10000000000E+01 0.  0.
<mgrwt>
<rscale>  0 0.12501196E+03</rscale>
<asrwt>0</asrwt>
<pdfrwt beam="1">  1        4 0.20905426E-02 0.12501196E+03</pdfrwt>
<pdfrwt beam="2">  1       -4 0.44234123E-01 0.12501196E+03</pdfrwt>
<totfact> 0.75439735E+03</totfact>
</mgrwt>
</event>
<event>
 5    1  0.3243498E-002  0.1249962E+03  0.7818608E-02  0.1235075E+00
         -4   -1    0    0    0  501 -0.00000000000E+00  0.00000000000E+00  0.77167163403E+02  0.77177613384E+02  0.12700000000E+01 0. -1.
          4   -1    0    0  501    0  0.00000000000E+00 -0.00000000000E+00 -0.50595726206E+02  0.50611662790E+02  0.12700000000E+01 0. -1.
         25    2    1    2    0    0  0.00000000000E+00  0.00000000000E+00  0.26571437197E+02  0.12778927617E+03  0.12499623126E+03 0.  0.
    9000005    1    3    3    0    0  0.62832878941E+01  0.14459256089E+02 -0.48534164820E+02  0.51040326685E+02  0.10000000000E+01 0.  0.
    9000005    1    3    3    0    0 -0.62832878941E+01 -0.14459256089E+02  0.75105602016E+02  0.76748949489E+02  0.10000000000E+01 0.  0.
<mgrwt>
<rscale>  0 0.12499623E+03</rscale>
<asrwt>0</asrwt>
<pdfrwt beam="2">  1        4 0.77859876E-02 0.12499623E+03</pdfrwt>
<pdfrwt beam="1">  1       -4 0.11873901E-01 0.12499623E+03</pdfrwt>
<totfact> 0.10392925E+04</totfact>
</mgrwt>
</event>
<event>
 5    1  0.3243498E-002  0.1250016E+03  0.7818608E-02  0.1235067E+00
         -4   -1    0    0    0  501 -0.00000000000E+00  0.00000000000E+00  0.38180087580E+01  0.40236912004E+01  0.12700000000E+01 0. -1.
          4   -1    0    0  501    0  0.00000000000E+00 -0.00000000000E+00 -0.99609632110E+03  0.99609713071E+03  0.12700000000E+01 0. -1.
         25    2    1    2    0    0  0.00000000000E+00  0.00000000000E+00 -0.99227831234E+03  0.10001208219E+04  0.12500163709E+03 0.  0.
    9000005    1    3    3    0    0  0.36905543978E+02 -0.37138137976E+02 -0.76911888164E+03  0.77089954895E+03  0.10000000000E+01 0.  0.
    9000005    1    3    3    0    0 -0.36905543978E+02  0.37138137976E+02 -0.22315943070E+03  0.22922127296E+03  0.10000000000E+01 0.  0.
<mgrwt>
<rscale>  0 0.12500164E+03</rscale>
<asrwt>0</asrwt>
<pdfrwt beam="2">  1        4 0.15326127E+00 0.12500164E+03</pdfrwt>
<pdfrwt beam="1">  1       -4 0.60327076E-03 0.12500164E+03</pdfrwt>
<totfact> 0.30599443E+03</totfact>
</mgrwt>
</event>
<event>
 4    1  0.3243498E-002  0.1252765E+03  0.7818608E-02  0.1234638E+00
         -4   -1    0    0    0  501 -0.00000000000E+00  0.00000000000E+00  0.31837112768E+03  0.31837366072E+03  0.12700000000E+01 0. -1.
          4   -1    0    0  501    0  0.00000000000E+00 -0.00000000000E+00 -0.12288512178E+02  0.12353964203E+02  0.12700000000E+01 0. -1.
    9000005    1    1    2    0    0  0.23494963981E+01 -0.42473530642E+02  0.31687460546E+02  0.53052955567E+02  0.10000000000E+01 0.  0.
    9000005    1    1    2    0    0 -0.23494963981E+01  0.42473530642E+02  0.27439515495E+03  0.27767466935E+03  0.10000000000E+01 0.  0.
<mgrwt>
<rscale>  0 0.12527647E+03</rscale>
<asrwt>0</asrwt>
<pdfrwt beam="2">  1        4 0.18957701E-02 0.12527647E+03</pdfrwt>
<pdfrwt beam="1">  1       -4 0.48985400E-01 0.12527647E+03</pdfrwt>
<totfact> 0.71459534E+03</totfact>
</mgrwt>
</event>
<event>
 5    1  0.3243498E-002  0.1249997E+03  0.7818608E-02  0.1235070E+00
         -4   -1    0    0    0  501 -0.00000000000E+00  0.00000000000E+00  0.29100310187E+03  0.29100587313E+03  0.12700000000E+01 0. -1.
          4   -1    0    0  501    0  0.00000000000E+00 -0.00000000000E+00 -0.13390446234E+02  0.13450537177E+02  0.12700000000E+01 0. -1.
         25    2    1    2    0    0  0.00000000000E+00  0.00000000000E+00  0.27761265564E+03  0.30445641031E+03  0.12499967684E+03 0.  0.
    9000005    1    3    3    0    0  0.49714477292E+02 -0.28183914333E+02  0.20039367794E+03  0.20838543241E+03  0.10000000000E+01 0.  0.
    9000005    1    3    3    0    0 -0.49714477292E+02  0.28183914333E+02  0.77218977693E+02  0.96070977904E+02  0.10000000000E+01 0.  0.
<mgrwt>
<rscale>  0 0.12499968E+03</rscale>
<asrwt>0</asrwt>
<pdfrwt beam="2">  1        4 0.20649042E-02 0.12499968E+03</pdfrwt>
<pdfrwt beam="1">  1       -4 0.44774543E-01 0.12499968E+03</pdfrwt>
<totfact> 0.75043750E+03</totfact>
</mgrwt>
</event>
<event>
 5    1  0.3243498E-002  0.1250011E+03  0.7818608E-02  0.1235068E+00
          4   -1    0    0  501    0  0.00000000000E+00  0.00000000000E+00  0.17606388921E+03  0.17606846959E+03  0.12700000000E+01 0.  1.
         -4   -1    0    0    0  501 -0.00000000000E+00 -0.00000000000E+00 -0.22163890991E+02  0.22200246932E+02  0.12700000000E+01 0.  1.
         25    2    1    2    0    0  0.00000000000E+00  0.00000000000E+00  0.15389999822E+03  0.19826871653E+03  0.12500109799E+03 0.  0.
    9000005    1    3    3    0    0  0.23822795652E+02  0.53834110364E+02  0.43690974386E+02  0.73318062401E+02  0.10000000000E+01 0.  0.
    9000005    1    3    3    0    0 -0.23822795652E+02 -0.53834110364E+02  0.11020902384E+03  0.12495065412E+03  0.10000000000E+01 0.  0.
<mgrwt>
<rscale>  0 0.12500110E+03</rscale>
<asrwt>0</asrwt>
<pdfrwt beam="1">  1        4 0.27089902E-01 0.12500110E+03</pdfrwt>
<pdfrwt beam="2">  1       -4 0.34129783E-02 0.12500110E+03</pdfrwt>
<totfact> 0.90425934E+03</totfact>
</mgrwt>
</event>
<event>
 5    1  0.3243498E-002  0.1249952E+03  0.7818608E-02  0.1235077E+00
          4   -1    0    0  501    0  0.00000000000E+00  0.00000000000E+00  0.11844664683E+03  0.11845345518E+03  0.12700000000E+01 0. -1.
         -4   -1    0    0    0  501 -0.00000000000E+00 -0.00000000000E+00 -0.32956484015E+02  0.32980945083E+02  0.12700000000E+01 0. -1.
         25    2    1    2    0    0  0.00000000000E+00  0.00000000000E+00  0.85490162813E+02  0.15143440027E+03  0.12499523849E+03 0.  0.
    9000005    1    3    3    0    0 -0.13392367397E+02  0.13933126168E+01 -0.31184087643E+02  0.33981526550E+02  0.10000000000E+01 0.  0.
    9000005    1    3    3    0    0  0.13392367397E+02 -0.13933126168E+01  0.11667425046E+03  0.11745287372E+03  0.10000000000E+01 0.  0.
<mgrwt>
<rscale>  0 0.12499524E+03</rscale>
<asrwt>0</asrwt>
<pdfrwt beam="1">  1        4 0.18224967E-01 0.12499524E+03</pdfrwt>
<pdfrwt beam="2">  1       -4 0.50726336E-02 0.12499524E+03</pdfrwt>
<totfact> 0.99029147E+03</totfact>
</mgrwt>
</event>
<event>
 5    1  0.3243498E-002  0.1250163E+03  0.7818608E-02  0.1235044E+00
         -4   -1    0    0    0  501 -0.00000000000E+00  0.00000000000E+00  0.25517486403E+02  0.25549070674E+02  0.12700000000E+01 0.  1.
          4   -1    0    0  501    0  0.00000000000E+00 -0.00000000000E+00 -0.15299236504E+03  0.15299763612E+03  0.12700000000E+01 0.  1.
         25    2    1    2    0    0  0.00000000000E+00  0.00000000000E+00 -0.12747487863E+03  0.17854670680E+03  0.12501632624E+03 0.  0.
    9000005    1    3    3    0    0 -0.27845076954E+02 -0.19198970653E+02  0.11324924556E+02  0.35681966046E+02  0.10000000000E+01 0.  0.
    9000005    1    3    3    0    0  0.27845076954E+02  0.19198970653E+02 -0.13879980319E+03  0.14286474075E+03  0.10000000000E+01 0.  0.
<mgrwt>
<rscale>  0 0.12501633E+03</rscale>
<asrwt>0</asrwt>
<pdfrwt beam="2">  1        4 0.23540121E-01 0.12501633E+03</pdfrwt>
<pdfrwt beam="1">  1       -4 0.39286022E-02 0.12501633E+03</pdfrwt>
<totfact> 0.93844894E+03</totfact>
</mgrwt>
</event>
<event>
 5    1  0.3243498E-002  0.1250006E+03  0.7818608E-02  0.1235068E+00
          4   -1    0    0  501    0  0.00000000000E+00  0.00000000000E+00  0.17593832643E+02  0.17639610174E+02  0.12700000000E+01 0. -1.
         -4   -1    0    0    0  501 -0.00000000000E+00 -0.00000000000E+00 -0.22168990413E+03  0.22169354183E+03  0.12700000000E+01 0. -1.
         25    2    1    2    0    0  0.00000000000E+00  0.00000000000E+00 -0.20409607148E+03  0.23933315201E+03  0.12500060502E+03 0.  0.
    9000005    1    3    3    0    0 -0.29073953129E+02  0.24779284498E+02 -0.19674088996E+03  0.20041777733E+03  0.10000000000E+01 0.  0.
    9000005    1    3    3    0    0  0.29073953129E+02 -0.24779284498E+02 -0.73551815265E+01  0.38915374675E+02  0.10000000000E+01 0.  0.
<mgrwt>
<rscale>  0 0.12500061E+03</rscale>
<asrwt>0</asrwt>
<pdfrwt beam="1">  1        4 0.27105448E-02 0.12500061E+03</pdfrwt>
<pdfrwt beam="2">  1       -4 0.34109938E-01 0.12500061E+03</pdfrwt>
<totfact> 0.83895652E+03</totfact>
</mgrwt>
</event>
<event>
 5    1  0.3243498E-002  0.1249960E+03  0.7818608E-02  0.1235075E+00
         -4   -1    0    0    0  501 -0.00000000000E+00  0.00000000000E+00  0.14605842055E+03  0.14606394187E+03  0.12700000000E+01 0.  1.
          4   -1    0    0  501    0  0.00000000000E+00 -0.00000000000E+00 -0.26721624675E+02  0.26751787329E+02  0.12700000000E+01 0.  1.
         25    2    1    2    0    0  0.00000000000E+00  0.00000000000E+00  0.11933679588E+03  0.17281572920E+03  0.12499602157E+03 0.  0.
    9000005    1    3    3    0    0  0.22440832746E+02 -0.50256121819E+02  0.18754313631E+02  0.58154905506E+02  0.10000000000E+01 0.  0.
    9000005    1    3    3    0    0 -0.22440832746E+02  0.50256121819E+02  0.10058248224E+03  0.11466082369E+03  0.10000000000E+01 0.  0.
<mgrwt>
<rscale>  0 0.12499602E+03</rscale>
<asrwt>0</asrwt>
<pdfrwt beam="2">  1        4 0.41137641E-02 0.12499602E+03</pdfrwt>
<pdfrwt beam="1">  1       -4 0.22473271E-01 0.12499602E+03</pdfrwt>
<totfact> 0.94934888E+03</totfact>
</mgrwt>
</event>
<event>
 5    1  0.3243498E-002  0.1249937E+03  0.7818608E-02  0.1235079E+00
          4   -1    0    0  501    0  0.00000000000E+00  0.00000000000E+00  0.63825685025E+03  0.63825811376E+03  0.12700000000E+01 0. -1.
         -4   -1    0    0    0  501 -0.00000000000E+00 -0.00000000000E+00 -0.60523972142E+01  0.61842066620E+01  0.12700000000E+01 0. -1.
         25    2    1    2    0    0  0.00000000000E+00  0.00000000000E+00  0.63220445303E+03  0.64444232043E+03  0.12499373554E+03 0.  0.
    9000005    1    3    3    0    0  0.35218463062E+02 -0.22022912916E+02  0.55680173480E+03  0.55834981930E+03  0.10000000000E+01 0.  0.
    9000005    1    3    3    0    0 -0.35218463062E+02  0.22022912916E+02  0.75402718228E+02  0.86092501125E+02  0.10000000000E+01 0.  0.
<mgrwt>
<rscale>  0 0.12499374E+03</rscale>
<asrwt>0</asrwt>
<pdfrwt beam="1">  1        4 0.98203577E-01 0.12499374E+03</pdfrwt>
<pdfrwt beam="2">  1       -4 0.94137461E-03 0.12499374E+03</pdfrwt>
<totfact> 0.46183536E+03</totfact>
</mgrwt>
</event>
<event>
 5    1  0.3243498E-002  0.1250068E+03  0.7818608E-02  0.1235059E+00
         -4   -1    0    0    0  501 -0.00000000000E+00  0.00000000000E+00  0.74084609556E+03  0.74084718411E+03  0.12700000000E+01 0. -1.
          4   -1    0    0  501    0  0.00000000000E+00 -0.00000000000E+00 -0.51956867496E+01  0.53486503718E+01  0.12700000000E+01 0. -1.
         25    2    1    2    0    0  0.00000000000E+00  0.00000000000E+00  0.73565040881E+03  0.74619583448E+03  0.12500679749E+03 0.  0.
    9000005    1    3    3    0    0  0.31385122599E+02 -0.49963762059E+02  0.49077875575E+03  0.49431385832E+03  0.10000000000E+01 0.  0.
    9000005    1    3    3    0    0 -0.31385122599E+02  0.49963762059E+02  0.24487165306E+03  0.25188197616E+03  0.10000000000E+01 0.  0.
<mgrwt>
<rscale>  0 0.12500680E+03</rscale>
<asrwt>0</asrwt>
<pdfrwt beam="2">  1        4 0.81118633E-03 0.12500680E+03</pdfrwt>
<pdfrwt beam="1">  1       -4 0.11398821E+00 0.12500680E+03</pdfrwt>
<totfact> 0.40750683E+03</totfact>
</mgrwt>
</event>
<event>
 5    1  0.3243498E-002  0.1250006E+03  0.7818608E-02  0.1235068E+00
          4   -1    0    0  501    0  0.00000000000E+00  0.00000000000E+00  0.21327267039E+04  0.21327270820E+04  0.12700000000E+01 0. -1.
         -4   -1    0    0    0  501 -0.00000000000E+00 -0.00000000000E+00 -0.16110181523E+01  0.20514091467E+01  0.12700000000E+01 0. -1.
         25    2    1    2    0    0  0.00000000000E+00  0.00000000000E+00  0.21311156857E+04  0.21347784912E+04  0.12500056142E+03 0.  0.
    9000005    1    3    3    0    0  0.21774020888E+02 -0.57162395870E+02  0.84709257214E+03  0.84929881271E+03  0.10000000000E+01 0.  0.
    9000005    1    3    3    0    0 -0.21774020888E+02  0.57162395870E+02  0.12840231136E+04  0.12854796785E+04  0.10000000000E+01 0.  0.
<mgrwt>
<rscale>  0 0.12500056E+03</rscale>
<asrwt>0</asrwt>
<pdfrwt beam="1">  1        4 0.32814481E+00 0.12500056E+03</pdfrwt>
<pdfrwt beam="2">  1       -4 0.28175503E-03 0.12500056E+03</pdfrwt>
<totfact> 0.82030136E+02</totfact>
</mgrwt>
</event>
<event>
 5    1  0.3243498E-002  0.1249998E+03  0.7818608E-02  0.1235070E+00
          4   -1    0    0  501    0  0.00000000000E+00  0.00000000000E+00  0.24526088704E+02  0.24558948006E+02  0.12700000000E+01 0.  1.
         -4   -1    0    0    0  501 -0.00000000000E+00 -0.00000000000E+00 -0.15912657478E+03  0.15913164268E+03  0.12700000000E+01 0.  1.
         25    2    1    2    0    0  0.00000000000E+00  0.00000000000E+00 -0.13460048608E+03  0.18369059068E+03  0.12499976902E+03 0.  0.
    9000005    1    3    3    0    0  0.16692617637E+01 -0.41297177277E+02  0.15795709145E+01  0.41373159538E+02  0.10000000000E+01 0.  0.
    9000005    1    3    3    0    0 -0.16692617637E+01  0.41297177277E+02 -0.13618005699E+03  0.14231743115E+03  0.10000000000E+01 0.  0.
<mgrwt>
<rscale>  0 0.12499977E+03</rscale>
<asrwt>0</asrwt>
<pdfrwt beam="1">  1        4 0.37761620E-02 0.12499977E+03</pdfrwt>
<pdfrwt beam="2">  1       -4 0.24483928E-01 0.12499977E+03</pdfrwt>
<totfact> 0.92957353E+03</totfact>
</mgrwt>
</event>
<event>
 5    1  0.3243498E-002  0.1249977E+03  0.7818608E-02  0.1235073E+00
         -4   -1    0    0    0  501 -0.00000000000E+00  0.00000000000E+00  0.58509872430E+02  0.58523653951E+02  0.12700000000E+01 0. -1.
          4   -1    0    0  501    0  0.00000000000E+00 -0.00000000000E+00 -0.66732043435E+02  0.66744127240E+02  0.12700000000E+01 0. -1.
         25    2    1    2    0    0  0.00000000000E+00  0.00000000000E+00 -0.82221710047E+01  0.12526778119E+03  0.12499765161E+03 0.  0.
    9000005    1    3    3    0    0  0.32649981239E+02 -0.22903832729E+02  0.44102095462E+02  0.59469333717E+02  0.10000000000E+01 0.  0.
    9000005    1    3    3    0    0 -0.32649981239E+02  0.22903832729E+02 -0.52324266467E+02  0.65798447473E+02  0.10000000000E+01 0.  0.
<mgrwt>
<rscale>  0 0.12499765E+03</rscale>
<asrwt>0</asrwt>
<pdfrwt beam="2">  1        4 0.10268458E-01 0.12499765E+03</pdfrwt>
<pdfrwt beam="1">  1       -4 0.90035085E-02 0.12499765E+03</pdfrwt>
<totfact> 0.10447604E+04</totfact>
</mgrwt>
</event>
<event>
 5    1  0.3243498E-002  0.1250022E+03  0.7818608E-02  0.1235066E+00
          4   -1    0    0  501    0  0.00000000000E+00  0.00000000000E+00  0.83166763584E+03  0.83166860551E+03  0.12700000000E+01 0. -1.
         -4   -1    0    0    0  501 -0.00000000000E+00 -0.00000000000E+00 -0.46102207957E+01  0.47819489526E+01  0.12700000000E+01 0. -1.
         25    2    1    2    0    0  0.00000000000E+00  0.00000000000E+00  0.82705741504E+03  0.83645055447E+03  0.12500224915E+03 0.  0.
    9000005    1    3    3    0    0 -0.33021628122E+02 -0.93679801515E+01  0.64081779757E+02  0.72702554789E+02  0.10000000000E+01 0.  0.
    9000005    1    3    3    0    0  0.33021628122E+02  0.93679801515E+01  0.76297563528E+03  0.76374799968E+03  0.10000000000E+01 0.  0.
<mgrwt>
<rscale>  0 0.12500225E+03</rscale>
<asrwt>0</asrwt>
<pdfrwt beam="1">  1        4 0.12796214E+00 0.12500225E+03</pdfrwt>
<pdfrwt beam="2">  1       -4 0.72254926E-03 0.12500225E+03</pdfrwt>
<totfact> 0.36686486E+03</totfact>
</mgrwt>
</event>
<event>
 5    1  0.3243498E-002  0.1249968E+03  0.7818608E-02  0.1235074E+00
         -4   -1    0    0    0  501 -0.00000000000E+00  0.00000000000E+00  0.61826853902E+02  0.61839896211E+02  0.12700000000E+01 0.  1.
          4   -1    0    0  501    0  0.00000000000E+00 -0.00000000000E+00 -0.63151153148E+02  0.63163922012E+02  0.12700000000E+01 0.  1.
         25    2    1    2    0    0  0.00000000000E+00  0.00000000000E+00 -0.13242992460E+01  0.12500381822E+03  0.12499680317E+03 0.  0.
    9000005    1    3    3    0    0  0.34344939267E+02 -0.39174527446E+02  0.33848217134E+02  0.62136303858E+02  0.10000000000E+01 0.  0.
    9000005    1    3    3    0    0 -0.34344939267E+02  0.39174527446E+02 -0.35172516380E+02  0.62867514365E+02  0.10000000000E+01 0.  0.
<mgrwt>
<rscale>  0 0.12499680E+03</rscale>
<asrwt>0</asrwt>
<pdfrwt beam="2">  1        4 0.97175475E-02 0.12499680E+03</pdfrwt>
<pdfrwt beam="1">  1       -4 0.95138092E-02 0.12499680E+03</pdfrwt>
<totfact> 0.10453535E+04</totfact>
</mgrwt>
</event>
<event>
 5    1  0.3243498E-002  0.1249977E+03  0.7818608E-02  0.1235073E+00
          4   -1    0    0  501    0  0.00000000000E+00  0.00000000000E+00  0.73774650124E+02  0.73785580576E+02  0.12700000000E+01 0.  1.
         -4   -1    0    0    0  501 -0.00000000000E+00 -0.00000000000E+00 -0.52924019872E+02  0.52939255562E+02  0.12700000000E+01 0.  1.
         25    2    1    2    0    0  0.00000000000E+00  0.00000000000E+00  0.20850630252E+02  0.12672483614E+03  0.12499774123E+03 0.  0.
    9000005    1    3    3    0    0  0.29538018728E+02 -0.86707913680E+01  0.65558988834E+02  0.72433819382E+02  0.10000000000E+01 0.  0.
    9000005    1    3    3    0    0 -0.29538018728E+02  0.86707913680E+01 -0.44708358582E+02  0.54291016756E+02  0.10000000000E+01 0.  0.
<mgrwt>
<rscale>  0 0.12499774E+03</rscale>
<asrwt>0</asrwt>
<pdfrwt beam="1">  1        4 0.11351959E-01 0.12499774E+03</pdfrwt>
<pdfrwt beam="2">  1       -4 0.81441697E-02 0.12499774E+03</pdfrwt>
<totfact> 0.10415661E+04</totfact>
</mgrwt>
</event>
<event>
 5    1  0.3243498E-002  0.1250123E+03  0.7818608E-02  0.1235050E+00
         -4   -1    0    0    0  501 -0.00000000000E+00  0.00000000000E+00  0.26224884093E+03  0.26225191605E+03  0.12700000000E+01 0.  1.
          4   -1    0    0  501    0  0.00000000000E+00 -0.00000000000E+00 -0.14867908944E+02  0.14922051346E+02  0.12700000000E+01 0.  1.
         25    2    1    2    0    0  0.00000000000E+00  0.00000000000E+00  0.24738093199E+03  0.27717396739E+03  0.12501233015E+03 0.  0.
    9000005    1    3    3    0    0  0.33949413470E+02  0.52468679705E+02  0.12525140524E+03  0.13998013980E+03  0.10000000000E+01 0.  0.
    9000005    1    3    3    0    0 -0.33949413470E+02 -0.52468679705E+02  0.12212952675E+03  0.13719382759E+03  0.10000000000E+01 0.  0.
<mgrwt>
<rscale>  0 0.12501233E+03</rscale>
<asrwt>0</asrwt>
<pdfrwt beam="2">  1        4 0.22917722E-02 0.12501233E+03</pdfrwt>
<pdfrwt beam="1">  1       -4 0.40350373E-01 0.12501233E+03</pdfrwt>
<totfact> 0.78532786E+03</totfact>
</mgrwt>
</event>
<event>
 5    1  0.3243498E-002  0.1249988E+03  0.7818608E-02  0.1235071E+00
         -4   -1    0    0    0  501 -0.00000000000E+00  0.00000000000E+00  0.22464520175E+02  0.22500390368E+02  0.12700000000E+01 0. -1.
          4   -1    0    0  501    0  0.00000000000E+00 -0.00000000000E+00 -0.17370499642E+03  0.17370963900E+03  0.12700000000E+01 0. -1.
         25    2    1    2    0    0  0.00000000000E+00  0.00000000000E+00 -0.15124047625E+03  0.19621002937E+03  0.12499877587E+03 0.  0.
    9000005    1    3    3    0    0 -0.11100900495E+02  0.61401451147E+02 -0.70226946369E+02  0.93947816318E+02  0.10000000000E+01 0.  0.
    9000005    1    3    3    0    0  0.11100900495E+02 -0.61401451147E+02 -0.81013529878E+02  0.10226221305E+03  0.10000000000E+01 0.  0.
<mgrwt>
<rscale>  0 0.12499878E+03</rscale>
<asrwt>0</asrwt>
<pdfrwt beam="2">  1        4 0.26726961E-01 0.12499878E+03</pdfrwt>
<pdfrwt beam="1">  1       -4 0.34591965E-02 0.12499878E+03</pdfrwt>
<totfact> 0.90780364E+03</totfact>
</mgrwt>
</event>
<event>
 5    1  0.3243498E-002  0.1249951E+03  0.7818608E-02  0.1235077E+00
          4   -1    0    0  501    0  0.00000000000E+00  0.00000000000E+00  0.16844167563E+02  0.16891976820E+02  0.12700000000E+01 0. -1.
         -4   -1    0    0    0  501 -0.00000000000E+00 -0.00000000000E+00 -0.23150875494E+03  0.23151223837E+03  0.12700000000E+01 0. -1.
         25    2    1    2    0    0  0.00000000000E+00  0.00000000000E+00 -0.21466458738E+03  0.24840421519E+03  0.12499507610E+03 0.  0.
    9000005    1    3    3    0    0 -0.11544794367E+02  0.45046137643E+02 -0.24375276000E+02  0.52512768672E+02  0.10000000000E+01 0.  0.
    9000005    1    3    3    0    0  0.11544794367E+02 -0.45046137643E+02 -0.19028931138E+03  0.19589144652E+03  0.10000000000E+01 0.  0.
<mgrwt>
<rscale>  0 0.12499508E+03</rscale>
<asrwt>0</asrwt>
<pdfrwt beam="1">  1        4 0.25953562E-02 0.12499508E+03</pdfrwt>
<pdfrwt beam="2">  1       -4 0.35620675E-01 0.12499508E+03</pdfrwt>
<totfact> 0.82570475E+03</totfact>
</mgrwt>
</event>
<event>
 5    1  0.3243498E-002  0.1250058E+03  0.7818608E-02  0.1235060E+00
         -4   -1    0    0    0  501 -0.00000000000E+00  0.00000000000E+00  0.10540997513E+03  0.10541762546E+03  0.12700000000E+01 0.  1.
          4   -1    0    0  501    0  0.00000000000E+00 -0.00000000000E+00 -0.37041257394E+02  0.37063022668E+02  0.12700000000E+01 0.  1.
         25    2    1    2    0    0  0.00000000000E+00  0.00000000000E+00  0.68368717738E+02  0.14248064813E+03  0.12500581397E+03 0.  0.
    9000005    1    3    3    0    0  0.11992464318E+02  0.30345448766E+02  0.94935900893E+02  0.10039168661E+03  0.10000000000E+01 0.  0.
    9000005    1    3    3    0    0 -0.11992464318E+02 -0.30345448766E+02 -0.26567183154E+02  0.42088961521E+02  0.10000000000E+01 0.  0.
<mgrwt>
<rscale>  0 0.12500581E+03</rscale>
<asrwt>0</asrwt>
<pdfrwt beam="2">  1        4 0.57009177E-02 0.12500581E+03</pdfrwt>
<pdfrwt beam="1">  1       -4 0.16219182E-01 0.12500581E+03</pdfrwt>
<totfact> 0.10081109E+04</totfact>
</mgrwt>
</event>
<event>
 5    1  0.3243498E-002  0.1250039E+03  0.7818608E-02  0.1235063E+00
          4   -1    0    0  501    0  0.00000000000E+00  0.00000000000E+00  0.27990910302E+03  0.27991198412E+03  0.12700000000E+01 0. -1.
         -4   -1    0    0    0  501 -0.00000000000E+00 -0.00000000000E+00 -0.13924433073E+02  0.13982229307E+02  0.12700000000E+01 0. -1.
         25    2    1    2    0    0  0.00000000000E+00  0.00000000000E+00  0.26598466995E+03  0.29389421343E+03  0.12500385609E+03 0.  0.
    9000005    1    3    3    0    0  0.49058841002E+01  0.46376471631E+02  0.23079974758E+03  0.23546627848E+03  0.10000000000E+01 0.  0.
    9000005    1    3    3    0    0 -0.49058841002E+01 -0.46376471631E+02  0.35184922369E+02  0.58427934945E+02  0.10000000000E+01 0.  0.
<mgrwt>
<rscale>  0 0.12500386E+03</rscale>
<asrwt>0</asrwt>
<pdfrwt beam="1">  1        4 0.43067602E-01 0.12500386E+03</pdfrwt>
<pdfrwt beam="2">  1       -4 0.21468882E-02 0.12500386E+03</pdfrwt>
<totfact> 0.76364639E+03</totfact>
</mgrwt>
</event>
<event>
 5    1  0.3243498E-002  0.1250172E+03  0.7818608E-02  0.1235042E+00
          4   -1    0    0  501    0  0.00000000000E+00  0.00000000000E+00  0.62324704537E+02  0.62337642685E+02  0.12700000000E+01 0. -1.
         -4   -1    0    0    0  501 -0.00000000000E+00 -0.00000000000E+00 -0.62667155937E+02  0.62680023398E+02  0.12700000000E+01 0. -1.
         25    2    1    2    0    0  0.00000000000E+00  0.00000000000E+00 -0.34245140010E+00  0.12501766608E+03  0.12501719706E+03 0.  0.
    9000005    1    3    3    0    0  0.17234014301E+01  0.62476745870E+02 -0.27612105366E+00  0.62509120374E+02  0.10000000000E+01 0.  0.
    9000005    1    3    3    0    0 -0.17234014301E+01 -0.62476745870E+02 -0.66330346440E-01  0.62508545710E+02  0.10000000000E+01 0.  0.
<mgrwt>
<rscale>  0 0.12501720E+03</rscale>
<asrwt>0</asrwt>
<pdfrwt beam="1">  1        4 0.95904011E-02 0.12501720E+03</pdfrwt>
<pdfrwt beam="2">  1       -4 0.96430860E-02 0.12501720E+03</pdfrwt>
<totfact> 0.10448417E+04</totfact>
</mgrwt>
</event>
<event>
 5    1  0.3243498E-002  0.1249976E+03  0.7818608E-02  0.1235073E+00
          4   -1    0    0  501    0  0.00000000000E+00  0.00000000000E+00  0.16933395881E+04  0.16933400643E+04  0.12700000000E+01 0.  1.
         -4   -1    0    0    0  501 -0.00000000000E+00 -0.00000000000E+00 -0.21314266526E+01  0.24811045071E+01  0.12700000000E+01 0.  1.
         25    2    1    2    0    0  0.00000000000E+00  0.00000000000E+00  0.16912081614E+04  0.16958211688E+04  0.12499756554E+03 0.  0.
    9000005    1    3    3    0    0 -0.30577127431E+02  0.46809669335E+02  0.12242602103E+04  0.12255366858E+04  0.10000000000E+01 0.  0.
    9000005    1    3    3    0    0  0.30577127431E+02 -0.46809669335E+02  0.46694795113E+03  0.47028448298E+03  0.10000000000E+01 0.  0.
<mgrwt>
<rscale>  0 0.12499757E+03</rscale>
<asrwt>0</asrwt>
<pdfrwt beam="1">  1        4 0.26054085E+00 0.12499757E+03</pdfrwt>
<pdfrwt beam="2">  1       -4 0.35484654E-03 0.12499757E+03</pdfrwt>
<totfact> 0.14378507E+03</totfact>
</mgrwt>
</event>
<event>
 5    1  0.3243498E-002  0.1250001E+03  0.7818608E-02  0.1235069E+00
         -4   -1    0    0    0  501 -0.00000000000E+00  0.00000000000E+00  0.44970439578E+02  0.44988368895E+02  0.12700000000E+01 0.  1.
          4   -1    0    0  501    0  0.00000000000E+00 -0.00000000000E+00 -0.86822913322E+02  0.86832201272E+02  0.12700000000E+01 0.  1.
         25    2    1    2    0    0  0.00000000000E+00  0.00000000000E+00 -0.41852473744E+02  0.13182057017E+03  0.12500013264E+03 0.  0.
    9000005    1    3    3    0    0 -0.45247450298E+02 -0.39283192917E+01  0.24340152204E+02  0.51538397920E+02  0.10000000000E+01 0.  0.
    9000005    1    3    3    0    0  0.45247450298E+02  0.39283192917E+01 -0.66192625947E+02  0.80282172247E+02  0.10000000000E+01 0.  0.
<mgrwt>
<rscale>  0 0.12500013E+03</rscale>
<asrwt>0</asrwt>
<pdfrwt beam="2">  1        4 0.13359465E-01 0.12500013E+03</pdfrwt>
<pdfrwt beam="1">  1       -4 0.69206228E-02 0.12500013E+03</pdfrwt>
<totfact> 0.10305499E+04</totfact>
</mgrwt>
</event>
<event>
 5    1  0.3243498E-002  0.1250154E+03  0.7818608E-02  0.1235045E+00
         -4   -1    0    0    0  501 -0.00000000000E+00  0.00000000000E+00  0.73290209604E+03  0.73290319639E+03  0.12700000000E+01 0. -1.
          4   -1    0    0  501    0  0.00000000000E+00 -0.00000000000E+00 -0.52543999161E+01  0.54057024038E+01  0.12700000000E+01 0. -1.
         25    2    1    2    0    0  0.00000000000E+00  0.00000000000E+00  0.72764769612E+03  0.73830889879E+03  0.12501544051E+03 0.  0.
    9000005    1    3    3    0    0  0.56292279123E+02 -0.26859432380E+01  0.52340788504E+03  0.52643408809E+03  0.10000000000E+01 0.  0.
    9000005    1    3    3    0    0 -0.56292279123E+02  0.26859432380E+01  0.20423981108E+03  0.21187481071E+03  0.10000000000E+01 0.  0.
<mgrwt>
<rscale>  0 0.12501544E+03</rscale>
<asrwt>0</asrwt>
<pdfrwt beam="2">  1        4 0.82009316E-03 0.12501544E+03</pdfrwt>
<pdfrwt beam="1">  1       -4 0.11276580E+00 0.12501544E+03</pdfrwt>
<totfact> 0.41125803E+03</totfact>
</mgrwt>
</event>
<event>
 5    1  0.3243498E-002  0.1250122E+03  0.7818608E-02  0.1235050E+00
          4   -1    0    0  501    0  0.00000000000E+00  0.00000000000E+00  0.14661116794E+02  0.14716020034E+02  0.12700000000E+01 0. -1.
         -4   -1    0    0    0  501 -0.00000000000E+00 -0.00000000000E+00 -0.26593366804E+03  0.26593670054E+03  0.12700000000E+01 0. -1.
         25    2    1    2    0    0  0.00000000000E+00  0.00000000000E+00 -0.25127255124E+03  0.28065272057E+03  0.12501221764E+03 0.  0.
    9000005    1    3    3    0    0  0.12230282048E+02 -0.50705758615E+02 -0.48342964913E+02  0.71124510629E+02  0.10000000000E+01 0.  0.
    9000005    1    3    3    0    0 -0.12230282048E+02  0.50705758615E+02 -0.20292958633E+03  0.20952820995E+03  0.10000000000E+01 0.  0.
<mgrwt>
<rscale>  0 0.12501222E+03</rscale>
<asrwt>0</asrwt>
<pdfrwt beam="1">  1        4 0.22600132E-02 0.12501222E+03</pdfrwt>
<pdfrwt beam="2">  1       -4 0.40917325E-01 0.12501222E+03</pdfrwt>
<totfact> 0.78070437E+03</totfact>
</mgrwt>
</event>
<event>
 5    1  0.3243498E-002  0.1249780E+03  0.7818608E-02  0.1235104E+00
         -4   -1    0    0    0  501 -0.00000000000E+00  0.00000000000E+00  0.37715412898E+02  0.37736789345E+02  0.12700000000E+01 0.  1.
          4   -1    0    0  501    0  0.00000000000E+00 -0.00000000000E+00 -0.10348068056E+03  0.10348847351E+03  0.12700000000E+01 0.  1.
         25    2    1    2    0    0  0.00000000000E+00  0.00000000000E+00 -0.65765267666E+02  0.14122526286E+03  0.12497801582E+03 0.  0.
    9000005    1    3    3    0    0 -0.31066157087E+02  0.48646847029E+02 -0.58509383527E+01  0.58024609621E+02  0.10000000000E+01 0.  0.
    9000005    1    3    3    0    0  0.31066157087E+02 -0.48646847029E+02 -0.59914329313E+02  0.83200653237E+02  0.10000000000E+01 0.  0.
<mgrwt>
<rscale>  0 0.12497802E+03</rscale>
<asrwt>0</asrwt>
<pdfrwt beam="2">  1        4 0.15922348E-01 0.12497802E+03</pdfrwt>
<pdfrwt beam="1">  1       -4 0.58046151E-02 0.12497802E+03</pdfrwt>
<totfact> 0.10113262E+04</totfact>
</mgrwt>
</event>
<event>
 5    1  0.3243498E-002  0.1249856E+03  0.7818608E-02  0.1235092E+00
         -4   -1    0    0    0  501 -0.00000000000E+00  0.00000000000E+00  0.12418157385E+03  0.12418806780E+03  0.12700000000E+01 0.  1.
          4   -1    0    0  501    0  0.00000000000E+00 -0.00000000000E+00 -0.31428581962E+02  0.31454231260E+02  0.12700000000E+01 0.  1.
         25    2    1    2    0    0  0.00000000000E+00  0.00000000000E+00  0.92752991887E+02  0.15564229906E+03  0.12498563018E+03 0.  0.
    9000005    1    3    3    0    0  0.51616907681E+02 -0.32481655414E+02  0.29439346524E+02  0.67727676918E+02  0.10000000000E+01 0.  0.
    9000005    1    3    3    0    0 -0.51616907681E+02  0.32481655414E+02  0.63313645363E+02  0.87914622140E+02  0.10000000000E+01 0.  0.
<mgrwt>
<rscale>  0 0.12498563E+03</rscale>
<asrwt>0</asrwt>
<pdfrwt beam="2">  1        4 0.48376391E-02 0.12498563E+03</pdfrwt>
<pdfrwt beam="1">  1       -4 0.19107330E-01 0.12498563E+03</pdfrwt>
<totfact> 0.98221292E+03</totfact>
</mgrwt>
</event>
<event>
 5    1  0.3243498E-002  0.1250020E+03  0.7818608E-02  0.1235066E+00
          4   -1    0    0  501    0  0.00000000000E+00  0.00000000000E+00  0.11853210373E+03  0.11853890717E+03  0.12700000000E+01 0. -1.
         -4   -1    0    0    0  501 -0.00000000000E+00 -0.00000000000E+00 -0.32936289160E+02  0.32960765216E+02  0.12700000000E+01 0. -1.
         25    2    1    2    0    0  0.00000000000E+00  0.00000000000E+00  0.85595814566E+02  0.15149967239E+03  0.12500202903E+03 0.  0.
    9000005    1    3    3    0    0  0.58769080859E+02 -0.20814697876E+02  0.37610373281E+02  0.72818930857E+02  0.10000000000E+01 0.  0.
    9000005    1    3    3    0    0 -0.58769080859E+02  0.20814697876E+02  0.47985441285E+02  0.78680741532E+02  0.10000000000E+01 0.  0.
<mgrwt>
<rscale>  0 0.12500203E+03</rscale>
<asrwt>0</asrwt>
<pdfrwt beam="1">  1        4 0.18238114E-01 0.12500203E+03</pdfrwt>
<pdfrwt beam="2">  1       -4 0.50695275E-02 0.12500203E+03</pdfrwt>
<totfact> 0.99001077E+03</totfact>
</mgrwt>
</event>
<event>
 5    1  0.3243498E-002  0.1250105E+03  0.7818608E-02  0.1235053E+00
          4   -1    0    0  501    0  0.00000000000E+00  0.00000000000E+00  0.12030661327E+02  0.12097508502E+02  0.12700000000E+01 0.  1.
         -4   -1    0    0    0  501 -0.00000000000E+00 -0.00000000000E+00 -0.32377784286E+03  0.32378033360E+03  0.12700000000E+01 0.  1.
         25    2    1    2    0    0  0.00000000000E+00  0.00000000000E+00 -0.31174718153E+03  0.33587784210E+03  0.12501047805E+03 0.  0.
    9000005    1    3    3    0    0  0.18722030092E+02 -0.49298389399E+02 -0.65753287421E+02  0.84293181306E+02  0.10000000000E+01 0.  0.
    9000005    1    3    3    0    0 -0.18722030092E+02  0.49298389399E+02 -0.24599389411E+03  0.25158466080E+03  0.10000000000E+01 0.  0.
<mgrwt>
<rscale>  0 0.12501048E+03</rscale>
<asrwt>0</asrwt>
<pdfrwt beam="1">  1        4 0.18562049E-02 0.12501048E+03</pdfrwt>
<pdfrwt beam="2">  1       -4 0.49817303E-01 0.12501048E+03</pdfrwt>
<totfact> 0.71290086E+03</totfact>
</mgrwt>
</event>
<event>
 5    1  0.3243498E-002  0.1249980E+03  0.7818608E-02  0.1235072E+00
          4   -1    0    0  501    0  0.00000000000E+00  0.00000000000E+00  0.55413033990E+02  0.55427585515E+02  0.12700000000E+01 0.  1.
         -4   -1    0    0    0  501 -0.00000000000E+00 -0.00000000000E+00 -0.70461506128E+02  0.70472950455E+02  0.12700000000E+01 0.  1.
         25    2    1    2    0    0  0.00000000000E+00  0.00000000000E+00 -0.15048472138E+02  0.12590053597E+03  0.12499795376E+03 0.  0.
    9000005    1    3    3    0    0  0.54957664111E+02  0.29094153527E+02 -0.12902394451E+01  0.62205139111E+02  0.10000000000E+01 0.  0.
    9000005    1    3    3    0    0 -0.54957664111E+02 -0.29094153527E+02 -0.13758232693E+02  0.63695396858E+02  0.10000000000E+01 0.  0.
<mgrwt>
<rscale>  0 0.12499795E+03</rscale>
<asrwt>0</asrwt>
<pdfrwt beam="1">  1        4 0.85270818E-02 0.12499795E+03</pdfrwt>
<pdfrwt beam="2">  1       -4 0.10842231E-01 0.12499795E+03</pdfrwt>
<totfact> 0.10433620E+04</totfact>
</mgrwt>
</event>
<event>
 5    1  0.3243498E-002  0.1250009E+03  0.7818608E-02  0.1235068E+00
         -4   -1    0    0    0  501 -0.00000000000E+00  0.00000000000E+00  0.79380362142E+02  0.79390520806E+02  0.12700000000E+01 0. -1.
          4   -1    0    0  501    0  0.00000000000E+00 -0.00000000000E+00 -0.49188495816E+02  0.49204888178E+02  0.12700000000E+01 0. -1.
         25    2    1    2    0    0  0.00000000000E+00  0.00000000000E+00  0.30191866326E+02  0.12859540898E+03  0.12500092167E+03 0.  0.
    9000005    1    3    3    0    0  0.72474317137E+01  0.60914232920E+02  0.28266007849E+01  0.61417088100E+02  0.10000000000E+01 0.  0.
    9000005    1    3    3    0    0 -0.72474317137E+01 -0.60914232920E+02  0.27365265541E+02  0.67178320884E+02  0.10000000000E+01 0.  0.
<mgrwt>
<rscale>  0 0.12500092E+03</rscale>
<asrwt>0</asrwt>
<pdfrwt beam="2">  1        4 0.75695033E-02 0.12500092E+03</pdfrwt>
<pdfrwt beam="1">  1       -4 0.12214406E-01 0.12500092E+03</pdfrwt>
<totfact> 0.10374433E+04</totfact>
</mgrwt>
</event>
<event>
 5    1  0.3243498E-002  0.1249997E+03  0.7818608E-02  0.1235070E+00
         -4   -1    0    0    0  501 -0.00000000000E+00  0.00000000000E+00  0.22330624481E+03  0.22330985619E+03  0.12700000000E+01 0. -1.
          4   -1    0    0  501    0  0.00000000000E+00 -0.00000000000E+00 -0.17465896363E+02  0.17512008330E+02  0.12700000000E+01 0. -1.
         25    2    1    2    0    0  0.00000000000E+00  0.00000000000E+00  0.20584034845E+03  0.24082186452E+03  0.12499968553E+03 0.  0.
    9000005    1    3    3    0    0 -0.22181934609E+01 -0.58505454449E+02  0.60824438897E+02  0.84429976606E+02  0.10000000000E+01 0.  0.
    9000005    1    3    3    0    0  0.22181934609E+01  0.58505454449E+02  0.14501590955E+03  0.15639188791E+03  0.10000000000E+01 0.  0.
<mgrwt>
<rscale>  0 0.12499969E+03</rscale>
<asrwt>0</asrwt>
<pdfrwt beam="2">  1        4 0.26908861E-02 0.12499969E+03</pdfrwt>
<pdfrwt beam="1">  1       -4 0.34358629E-01 0.12499969E+03</pdfrwt>
<totfact> 0.83675706E+03</totfact>
</mgrwt>
</event>
<event>
 5    1  0.3243498E-002  0.1250105E+03  0.7818608E-02  0.1235053E+00
          4   -1    0    0  501    0  0.00000000000E+00  0.00000000000E+00  0.34304747007E+03  0.34304982090E+03  0.12700000000E+01 0.  1.
         -4   -1    0    0    0  501 -0.00000000000E+00 -0.00000000000E+00 -0.11351025845E+02  0.11421851327E+02  0.12700000000E+01 0.  1.
         25    2    1    2    0    0  0.00000000000E+00  0.00000000000E+00  0.33169644423E+03  0.35447167223E+03  0.12501054076E+03 0.  0.
    9000005    1    3    3    0    0  0.40704494701E+02  0.25260734393E+02  0.27965698246E+03  0.28373224778E+03  0.10000000000E+01 0.  0.
    9000005    1    3    3    0    0 -0.40704494701E+02 -0.25260734393E+02  0.52039461769E+02  0.70739424455E+02  0.10000000000E+01 0.  0.
<mgrwt>
<rscale>  0 0.12501054E+03</rscale>
<asrwt>0</asrwt>
<pdfrwt beam="1">  1        4 0.52782153E-01 0.12501054E+03</pdfrwt>
<pdfrwt beam="2">  1       -4 0.17519409E-02 0.12501054E+03</pdfrwt>
<totfact> 0.69219263E+03</totfact>
</mgrwt>
</event>
<event>
 5    1  0.3243498E-002  0.1249998E+03  0.7818608E-02  0.1235070E+00
          4   -1    0    0  501    0  0.00000000000E+00  0.00000000000E+00  0.18186292289E+03  0.18186735722E+03  0.12700000000E+01 0.  1.
         -4   -1    0    0    0  501 -0.00000000000E+00 -0.00000000000E+00 -0.21455559150E+02  0.21493113279E+02  0.12700000000E+01 0.  1.
         25    2    1    2    0    0  0.00000000000E+00  0.00000000000E+00  0.16040736374E+03  0.20336047050E+03  0.12499983448E+03 0.  0.
    9000005    1    3    3    0    0  0.37422304551E+02 -0.27864084332E+02  0.14783995650E+03  0.15503060604E+03  0.10000000000E+01 0.  0.
    9000005    1    3    3    0    0 -0.37422304551E+02  0.27864084332E+02  0.12567407247E+02  0.48329864457E+02  0.10000000000E+01 0.  0.
<mgrwt>
<rscale>  0 0.12499983E+03</rscale>
<asrwt>0</asrwt>
<pdfrwt beam="1">  1        4 0.27982140E-01 0.12499983E+03</pdfrwt>
<pdfrwt beam="2">  1       -4 0.33040852E-02 0.12499983E+03</pdfrwt>
<totfact> 0.89572146E+03</totfact>
</mgrwt>
</event>
<event>
 5    1  0.3243498E-002  0.1250059E+03  0.7818608E-02  0.1235060E+00
         -4   -1    0    0    0  501 -0.00000000000E+00  0.00000000000E+00  0.77886455437E+01  0.78915080564E+01  0.12700000000E+01 0. -1.
          4   -1    0    0  501    0  0.00000000000E+00 -0.00000000000E+00 -0.49818435593E+03  0.49818597471E+03  0.12700000000E+01 0. -1.
         25    2    1    2    0    0  0.00000000000E+00  0.00000000000E+00 -0.49039571039E+03  0.50607748276E+03  0.12500586304E+03 0.  0.
    9000005    1    3    3    0    0 -0.13825993302E+02  0.44620498732E+02 -0.77128541585E+02  0.90177374795E+02  0.10000000000E+01 0.  0.
    9000005    1    3    3    0    0  0.13825993302E+02 -0.44620498732E+02 -0.41326716880E+03  0.41590010797E+03  0.10000000000E+01 0.  0.
<mgrwt>
<rscale>  0 0.12500586E+03</rscale>
<asrwt>0</asrwt>
<pdfrwt beam="2">  1        4 0.76651760E-01 0.12500586E+03</pdfrwt>
<pdfrwt beam="1">  1       -4 0.12062906E-02 0.12500586E+03</pdfrwt>
<totfact> 0.55388764E+03</totfact>
</mgrwt>
</event>
<event>
 5    1  0.3243498E-002  0.1249976E+03  0.7818608E-02  0.1235073E+00
          4   -1    0    0  501    0  0.00000000000E+00  0.00000000000E+00  0.23054707691E+03  0.23055057486E+03  0.12700000000E+01 0. -1.
         -4   -1    0    0    0  501 -0.00000000000E+00 -0.00000000000E+00 -0.16915318321E+02  0.16962927044E+02  0.12700000000E+01 0. -1.
         25    2    1    2    0    0  0.00000000000E+00  0.00000000000E+00  0.21363175858E+03  0.24751350191E+03  0.12499762138E+03 0.  0.
    9000005    1    3    3    0    0  0.39845935190E+02 -0.48029176028E+02  0.10036867679E+03  0.11819209610E+03  0.10000000000E+01 0.  0.
    9000005    1    3    3    0    0 -0.39845935190E+02  0.48029176028E+02  0.11326308180E+03  0.12932140581E+03  0.10000000000E+01 0.  0.
<mgrwt>
<rscale>  0 0.12499762E+03</rscale>
<asrwt>0</asrwt>
<pdfrwt beam="1">  1        4 0.35472710E-01 0.12499762E+03</pdfrwt>
<pdfrwt beam="2">  1       -4 0.26062881E-02 0.12499762E+03</pdfrwt>
<totfact> 0.82695321E+03</totfact>
</mgrwt>
</event>
<event>
 5    1  0.3243498E-002  0.1250004E+03  0.7818608E-02  0.1235069E+00
          4   -1    0    0  501    0  0.00000000000E+00  0.00000000000E+00  0.13471279653E+03  0.13471878284E+03  0.12700000000E+01 0.  1.
         -4   -1    0    0    0  501 -0.00000000000E+00 -0.00000000000E+00 -0.28976512726E+02  0.29004330534E+02  0.12700000000E+01 0.  1.
         25    2    1    2    0    0  0.00000000000E+00  0.00000000000E+00  0.10573628381E+03  0.16372311337E+03  0.12500038456E+03 0.  0.
    9000005    1    3    3    0    0 -0.22864878798E+02 -0.56646136167E+02  0.35606511457E+02  0.70713584856E+02  0.10000000000E+01 0.  0.
    9000005    1    3    3    0    0  0.22864878798E+02  0.56646136167E+02  0.70129772350E+02  0.93009528517E+02  0.10000000000E+01 0.  0.
<mgrwt>
<rscale>  0 0.12500038E+03</rscale>
<asrwt>0</asrwt>
<pdfrwt beam="1">  1        4 0.20727646E-01 0.12500038E+03</pdfrwt>
<pdfrwt beam="2">  1       -4 0.44605252E-02 0.12500038E+03</pdfrwt>
<totfact> 0.96628926E+03</totfact>
</mgrwt>
</event>
<event>
 5    1  0.3243498E-002  0.1249982E+03  0.7818608E-02  0.1235072E+00
         -4   -1    0    0    0  501 -0.00000000000E+00  0.00000000000E+00  0.68887219415E+03  0.68887336483E+03  0.12700000000E+01 0. -1.
          4   -1    0    0  501    0  0.00000000000E+00 -0.00000000000E+00 -0.55980331923E+01  0.57402853258E+01  0.12700000000E+01 0. -1.
         25    2    1    2    0    0  0.00000000000E+00  0.00000000000E+00  0.68327416096E+03  0.69461365015E+03  0.12499817579E+03 0.  0.
    9000005    1    3    3    0    0 -0.51122541749E+02  0.19074091170E+02  0.17237214490E+03  0.18080512041E+03  0.10000000000E+01 0.  0.
    9000005    1    3    3    0    0  0.51122541749E+02 -0.19074091170E+02  0.51090201605E+03  0.51380852974E+03  0.10000000000E+01 0.  0.
<mgrwt>
<rscale>  0 0.12499818E+03</rscale>
<asrwt>0</asrwt>
<pdfrwt beam="2">  1        4 0.87226798E-03 0.12499818E+03</pdfrwt>
<pdfrwt beam="1">  1       -4 0.10599142E+00 0.12499818E+03</pdfrwt>
<totfact> 0.43374268E+03</totfact>
</mgrwt>
</event>
<event>
 5    1  0.3243498E-002  0.1250030E+03  0.7818608E-02  0.1235065E+00
         -4   -1    0    0    0  501 -0.00000000000E+00  0.00000000000E+00  0.42234026227E+02  0.42253116705E+02  0.12700000000E+01 0. -1.
          4   -1    0    0  501    0  0.00000000000E+00 -0.00000000000E+00 -0.92450735264E+02  0.92459457877E+02  0.12700000000E+01 0. -1.
         25    2    1    2    0    0  0.00000000000E+00  0.00000000000E+00 -0.50216709038E+02  0.13471257458E+03  0.12500303950E+03 0.  0.
    9000005    1    3    3    0    0 -0.50312298980E+02  0.36887016498E+02 -0.29062194302E+02  0.68830157289E+02  0.10000000000E+01 0.  0.
    9000005    1    3    3    0    0  0.50312298980E+02 -0.36887016498E+02 -0.21154514736E+02  0.65882417294E+02  0.10000000000E+01 0.  0.
<mgrwt>
<rscale>  0 0.12500304E+03</rscale>
<asrwt>0</asrwt>
<pdfrwt beam="2">  1        4 0.14225330E-01 0.12500304E+03</pdfrwt>
<pdfrwt beam="1">  1       -4 0.64996820E-02 0.12500304E+03</pdfrwt>
<totfact> 0.10243430E+04</totfact>
</mgrwt>
</event>
<event>
 5    1  0.3243498E-002  0.1250031E+03  0.7818608E-02  0.1235064E+00
         -4   -1    0    0    0  501 -0.00000000000E+00  0.00000000000E+00  0.13934354511E+03  0.13934933249E+03  0.12700000000E+01 0. -1.
          4   -1    0    0  501    0  0.00000000000E+00 -0.00000000000E+00 -0.28013861240E+02  0.28042633999E+02  0.12700000000E+01 0. -1.
         25    2    1    2    0    0  0.00000000000E+00  0.00000000000E+00  0.11132968387E+03  0.16739196648E+03  0.12500308769E+03 0.  0.
    9000005    1    3    3    0    0 -0.21089990914E+02 -0.58243434598E+02  0.44593321893E+02  0.76332494705E+02  0.10000000000E+01 0.  0.
    9000005    1    3    3    0    0  0.21089990914E+02  0.58243434598E+02  0.66736361978E+02  0.91059471779E+02  0.10000000000E+01 0.  0.
<mgrwt>
<rscale>  0 0.12500309E+03</rscale>
<asrwt>0</asrwt>
<pdfrwt beam="2">  1        4 0.43124832E-02 0.12500309E+03</pdfrwt>
<pdfrwt beam="1">  1       -4 0.21440127E-01 0.12500309E+03</pdfrwt>
<totfact> 0.95929647E+03</totfact>
</mgrwt>
</event>
<event>
 5    1  0.3243498E-002  0.1250012E+03  0.7818608E-02  0.1235067E+00
          4   -1    0    0  501    0  0.00000000000E+00  0.00000000000E+00  0.23533041777E+03  0.23533384462E+03  0.12700000000E+01 0.  1.
         -4   -1    0    0    0  501 -0.00000000000E+00 -0.00000000000E+00 -0.16571482603E+02  0.16620076283E+02  0.12700000000E+01 0.  1.
         25    2    1    2    0    0  0.00000000000E+00  0.00000000000E+00  0.21875893516E+03  0.25195392091E+03  0.12500122618E+03 0.  0.
    9000005    1    3    3    0    0 -0.97859497332E+00 -0.30050086874E+02  0.21980410576E+03  0.22185312772E+03  0.10000000000E+01 0.  0.
    9000005    1    3    3    0    0  0.97859497332E+00  0.30050086874E+02 -0.10451705952E+01  0.30100793192E+02  0.10000000000E+01 0.  0.
<mgrwt>
<rscale>  0 0.12500123E+03</rscale>
<asrwt>0</asrwt>
<pdfrwt beam="1">  1        4 0.36208677E-01 0.12500123E+03</pdfrwt>
<pdfrwt beam="2">  1       -4 0.25534608E-02 0.12500123E+03</pdfrwt>
<totfact> 0.82046405E+03</totfact>
</mgrwt>
</event>
<event>
 5    1  0.3243498E-002  0.1249991E+03  0.7818608E-02  0.1235071E+00
          4   -1    0    0  501    0  0.00000000000E+00  0.00000000000E+00  0.21788547818E+03  0.21788917941E+03  0.12700000000E+01 0.  1.
         -4   -1    0    0    0  501 -0.00000000000E+00 -0.00000000000E+00 -0.17901384681E+02  0.17946377727E+02  0.12700000000E+01 0.  1.
         25    2    1    2    0    0  0.00000000000E+00  0.00000000000E+00  0.19998409350E+03  0.23583555714E+03  0.12499908942E+03 0.  0.
    9000005    1    3    3    0    0  0.40278121900E+02  0.47584576291E+02  0.91860818700E+02  0.11102265092E+03  0.10000000000E+01 0.  0.
    9000005    1    3    3    0    0 -0.40278121900E+02 -0.47584576291E+02  0.10812327480E+03  0.12481290622E+03  0.10000000000E+01 0.  0.
<mgrwt>
<rscale>  0 0.12499909E+03</rscale>
<asrwt>0</asrwt>
<pdfrwt beam="1">  1        4 0.33524589E-01 0.12499909E+03</pdfrwt>
<pdfrwt beam="2">  1       -4 0.27578049E-02 0.12499909E+03</pdfrwt>
<totfact> 0.84423236E+03</totfact>
</mgrwt>
</event>
<event>
 5    1  0.3243498E-002  0.1250002E+03  0.7818608E-02  0.1235069E+00
          4   -1    0    0  501    0  0.00000000000E+00  0.00000000000E+00  0.34444669478E+03  0.34444903607E+03  0.12700000000E+01 0. -1.
         -4   -1    0    0    0  501 -0.00000000000E+00 -0.00000000000E+00 -0.11302743387E+02  0.11373869530E+02  0.12700000000E+01 0. -1.
         25    2    1    2    0    0  0.00000000000E+00  0.00000000000E+00  0.33314395140E+03  0.35582290560E+03  0.12500019118E+03 0.  0.
    9000005    1    3    3    0    0 -0.62206743701E+02 -0.56930514629E+01  0.17164188536E+03  0.18265822348E+03  0.10000000000E+01 0.  0.
    9000005    1    3    3    0    0  0.62206743701E+02  0.56930514629E+01  0.16150206604E+03  0.17316468212E+03  0.10000000000E+01 0.  0.
<mgrwt>
<rscale>  0 0.12500019E+03</rscale>
<asrwt>0</asrwt>
<pdfrwt beam="1">  1        4 0.52997437E-01 0.12500019E+03</pdfrwt>
<pdfrwt beam="2">  1       -4 0.17445354E-02 0.12500019E+03</pdfrwt>
<totfact> 0.69088395E+03</totfact>
</mgrwt>
</event>
<event>
 5    1  0.3243498E-002  0.1249999E+03  0.7818608E-02  0.1235069E+00
         -4   -1    0    0    0  501 -0.00000000000E+00  0.00000000000E+00  0.88032278760E+01  0.88943645662E+01  0.12700000000E+01 0. -1.
          4   -1    0    0  501    0  0.00000000000E+00 -0.00000000000E+00 -0.44135159313E+03  0.44135342035E+03  0.12700000000E+01 0. -1.
         25    2    1    2    0    0  0.00000000000E+00  0.00000000000E+00 -0.43254836525E+03  0.45024778492E+03  0.12499991817E+03 0.  0.
    9000005    1    3    3    0    0 -0.12931046967E+02  0.17926072883E+02 -0.42681900676E+03  0.42739211574E+03  0.10000000000E+01 0.  0.
    9000005    1    3    3    0    0  0.12931046967E+02 -0.17926072883E+02 -0.57293584851E+01  0.22855669172E+02  0.10000000000E+01 0.  0.
<mgrwt>
<rscale>  0 0.12499992E+03</rscale>
<asrwt>0</asrwt>
<pdfrwt beam="2">  1        4 0.67907379E-01 0.12499992E+03</pdfrwt>
<pdfrwt beam="1">  1       -4 0.13614942E-02 0.12499992E+03</pdfrwt>
<totfact> 0.59942451E+03</totfact>
</mgrwt>
</event>
<event>
 5    1  0.3243498E-002  0.1250005E+03  0.7818608E-02  0.1235069E+00
         -4   -1    0    0    0  501 -0.00000000000E+00  0.00000000000E+00  0.16175845097E+02  0.16225623705E+02  0.12700000000E+01 0.  1.
          4   -1    0    0  501    0  0.00000000000E+00 -0.00000000000E+00 -0.24106592270E+03  0.24106926802E+03  0.12700000000E+01 0.  1.
         25    2    1    2    0    0  0.00000000000E+00  0.00000000000E+00 -0.22489007760E+03  0.25729489173E+03  0.12500045723E+03 0.  0.
    9000005    1    3    3    0    0 -0.23195195684E+02  0.31169551946E+02 -0.21319331808E+03  0.21670705790E+03  0.10000000000E+01 0.  0.
    9000005    1    3    3    0    0  0.23195195684E+02 -0.31169551946E+02 -0.11696759520E+02  0.40587833825E+02  0.10000000000E+01 0.  0.
<mgrwt>
<rscale>  0 0.12500046E+03</rscale>
<asrwt>0</asrwt>
<pdfrwt beam="2">  1        4 0.37091149E-01 0.12500046E+03</pdfrwt>
<pdfrwt beam="1">  1       -4 0.24926782E-02 0.12500046E+03</pdfrwt>
<totfact> 0.81286363E+03</totfact>
</mgrwt>
</event>
<event>
 5    1  0.3243498E-002  0.1250003E+03  0.7818608E-02  0.1235069E+00
         -4   -1    0    0    0  501 -0.00000000000E+00  0.00000000000E+00  0.14557058112E+03  0.14557612094E+03  0.12700000000E+01 0.  1.
          4   -1    0    0  501    0  0.00000000000E+00 -0.00000000000E+00 -0.26813119004E+02  0.26843178849E+02  0.12700000000E+01 0.  1.
         25    2    1    2    0    0  0.00000000000E+00  0.00000000000E+00  0.11875746211E+03  0.17241929979E+03  0.12500032052E+03 0.  0.
    9000005    1    3    3    0    0  0.17909713343E+02  0.47710641663E+02  0.94887931236E+01  0.51846893396E+02  0.10000000000E+01 0.  0.
    9000005    1    3    3    0    0 -0.17909713343E+02 -0.47710641663E+02  0.10926866899E+03  0.12057240639E+03  0.10000000000E+01 0.  0.
<mgrwt>
<rscale>  0 0.12500032E+03</rscale>
<asrwt>0</asrwt>
<pdfrwt beam="2">  1        4 0.41278337E-02 0.12500032E+03</pdfrwt>
<pdfrwt beam="1">  1       -4 0.22398212E-01 0.12500032E+03</pdfrwt>
<totfact> 0.94998943E+03</totfact>
</mgrwt>
</event>
<event>
 5    1  0.3243498E-002  0.1250030E+03  0.7818608E-02  0.1235065E+00
          4   -1    0    0  501    0  0.00000000000E+00  0.00000000000E+00  0.33751202965E+02  0.33775088476E+02  0.12700000000E+01 0. -1.
         -4   -1    0    0    0  501 -0.00000000000E+00 -0.00000000000E+00 -0.11567388565E+03  0.11568085719E+03  0.12700000000E+01 0. -1.
         25    2    1    2    0    0  0.00000000000E+00  0.00000000000E+00 -0.81922682682E+02  0.14945594567E+03  0.12500301500E+03 0.  0.
    9000005    1    3    3    0    0  0.51501938997E+00  0.60278338862E+02 -0.60668934067E+02  0.85530479607E+02  0.10000000000E+01 0.  0.
    9000005    1    3    3    0    0 -0.51501938997E+00 -0.60278338862E+02 -0.21253748615E+02  0.63925466062E+02  0.10000000000E+01 0.  0.
<mgrwt>
<rscale>  0 0.12500301E+03</rscale>
<asrwt>0</asrwt>
<pdfrwt beam="1">  1        4 0.51948664E-02 0.12500301E+03</pdfrwt>
<pdfrwt beam="2">  1       -4 0.17798356E-01 0.12500301E+03</pdfrwt>
<totfact> 0.99405512E+03</totfact>
</mgrwt>
</event>
<event>
 5    1  0.3243498E-002  0.1250138E+03  0.7818608E-02  0.1235048E+00
          4   -1    0    0  501    0  0.00000000000E+00  0.00000000000E+00  0.17774929294E+02  0.17820241620E+02  0.12700000000E+01 0. -1.
         -4   -1    0    0    0  501 -0.00000000000E+00 -0.00000000000E+00 -0.21948316722E+03  0.21948684150E+03  0.12700000000E+01 0. -1.
         25    2    1    2    0    0  0.00000000000E+00  0.00000000000E+00 -0.20170823792E+03  0.23730708312E+03  0.12501375306E+03 0.  0.
    9000005    1    3    3    0    0 -0.44784697773E+02 -0.13598884880E+02 -0.22231114699E+02  0.51824909893E+02  0.10000000000E+01 0.  0.
    9000005    1    3    3    0    0  0.44784697773E+02  0.13598884880E+02 -0.17947712323E+03  0.18548217323E+03  0.10000000000E+01 0.  0.
<mgrwt>
<rscale>  0 0.12501375E+03</rscale>
<asrwt>0</asrwt>
<pdfrwt beam="1">  1        4 0.27383729E-02 0.12501375E+03</pdfrwt>
<pdfrwt beam="2">  1       -4 0.33770407E-01 0.12501375E+03</pdfrwt>
<totfact> 0.84174255E+03</totfact>
</mgrwt>
</event>
<event>
 5    1  0.3243498E-002  0.1250003E+03  0.7818608E-02  0.1235069E+00
          4   -1    0    0  501    0  0.00000000000E+00  0.00000000000E+00  0.24891848980E+02  0.24924226079E+02  0.12700000000E+01 0.  1.
         -4   -1    0    0    0  501 -0.00000000000E+00 -0.00000000000E+00 -0.15679258030E+03  0.15679772363E+03  0.12700000000E+01 0.  1.
         25    2    1    2    0    0  0.00000000000E+00  0.00000000000E+00 -0.13190073132E+03  0.18172194971E+03  0.12500025634E+03 0.  0.
    9000005    1    3    3    0    0  0.51058305919E+02 -0.20066031365E+02 -0.10945849895E+03  0.12244083964E+03  0.10000000000E+01 0.  0.
    9000005    1    3    3    0    0 -0.51058305919E+02  0.20066031365E+02 -0.22442232365E+02  0.59281110074E+02  0.10000000000E+01 0.  0.
<mgrwt>
<rscale>  0 0.12500026E+03</rscale>
<asrwt>0</asrwt>
<pdfrwt beam="1">  1        4 0.38324015E-02 0.12500026E+03</pdfrwt>
<pdfrwt beam="2">  1       -4 0.24124821E-01 0.12500026E+03</pdfrwt>
<totfact> 0.93307426E+03</totfact>
</mgrwt>
</event>
<event>
 5    1  0.3243498E-002  0.1250025E+03  0.7818608E-02  0.1235065E+00
         -4   -1    0    0    0  501 -0.00000000000E+00  0.00000000000E+00  0.29353287632E+02  0.29380748711E+02  0.12700000000E+01 0. -1.
          4   -1    0    0  501    0  0.00000000000E+00 -0.00000000000E+00 -0.13298968941E+03  0.13299575328E+03  0.12700000000E+01 0. -1.
         25    2    1    2    0    0  0.00000000000E+00  0.00000000000E+00 -0.10363640178E+03  0.16237650199E+03  0.12500249847E+03 0.  0.
    9000005    1    3    3    0    0  0.58297602496E+02  0.57939385838E+01 -0.23560373031E+02  0.63152762081E+02  0.10000000000E+01 0.  0.
    9000005    1    3    3    0    0 -0.58297602496E+02 -0.57939385838E+01 -0.80076028751E+02  0.99223739910E+02  0.10000000000E+01 0.  0.
<mgrwt>
<rscale>  0 0.12500250E+03</rscale>
<asrwt>0</asrwt>
<pdfrwt beam="2">  1        4 0.20462531E-01 0.12500250E+03</pdfrwt>
<pdfrwt beam="1">  1       -4 0.45184693E-02 0.12500250E+03</pdfrwt>
<totfact> 0.96881122E+03</totfact>
</mgrwt>
</event>
<event>
 5    1  0.3243498E-002  0.1249996E+03  0.7818608E-02  0.1235070E+00
          4   -1    0    0  501    0  0.00000000000E+00  0.00000000000E+00  0.32699122589E+03  0.32699369215E+03  0.12700000000E+01 0.  1.
         -4   -1    0    0    0  501 -0.00000000000E+00 -0.00000000000E+00 -0.11909692098E+02  0.11977214445E+02  0.12700000000E+01 0.  1.
         25    2    1    2    0    0  0.00000000000E+00  0.00000000000E+00  0.31508153379E+03  0.33897090660E+03  0.12499961034E+03 0.  0.
    9000005    1    3    3    0    0 -0.19318459455E+02  0.33401112776E+02  0.24238621210E+02  0.45577932912E+02  0.10000000000E+01 0.  0.
    9000005    1    3    3    0    0  0.19318459455E+02 -0.33401112776E+02  0.29084291258E+03  0.29339297368E+03  0.10000000000E+01 0.  0.
<mgrwt>
<rscale>  0 0.12499961E+03</rscale>
<asrwt>0</asrwt>
<pdfrwt beam="1">  1        4 0.50311723E-01 0.12499961E+03</pdfrwt>
<pdfrwt beam="2">  1       -4 0.18376442E-02 0.12499961E+03</pdfrwt>
<totfact> 0.70955793E+03</totfact>
</mgrwt>
</event>
<event>
 5    1  0.3243498E-002  0.1249764E+03  0.7818608E-02  0.1235106E+00
         -4   -1    0    0    0  501 -0.00000000000E+00  0.00000000000E+00  0.27275545291E+02  0.27305096062E+02  0.12700000000E+01 0.  1.
          4   -1    0    0  501    0  0.00000000000E+00 -0.00000000000E+00 -0.14305045374E+03  0.14305609116E+03  0.12700000000E+01 0.  1.
         25    2    1    2    0    0  0.00000000000E+00  0.00000000000E+00 -0.11577490845E+03  0.17036118722E+03  0.12497641651E+03 0.  0.
    9000005    1    3    3    0    0 -0.56291490221E+02  0.11175455783E+02 -0.91558929049E+02  0.10806322303E+03  0.10000000000E+01 0.  0.
    9000005    1    3    3    0    0  0.56291490221E+02 -0.11175455783E+02 -0.24215979405E+02  0.62297964186E+02  0.10000000000E+01 0.  0.
<mgrwt>
<rscale>  0 0.12497642E+03</rscale>
<asrwt>0</asrwt>
<pdfrwt beam="2">  1        4 0.22010468E-01 0.12497642E+03</pdfrwt>
<pdfrwt beam="1">  1       -4 0.41989446E-02 0.12497642E+03</pdfrwt>
<totfact> 0.95431863E+03</totfact>
</mgrwt>
</event>
<event>
 5    1  0.3243498E-002  0.1250032E+03  0.7818608E-02  0.1235064E+00
         -4   -1    0    0    0  501 -0.00000000000E+00  0.00000000000E+00  0.28637928674E+02  0.28666075049E+02  0.12700000000E+01 0. -1.
          4   -1    0    0  501    0  0.00000000000E+00 -0.00000000000E+00 -0.13631023154E+03  0.13631614770E+03  0.12700000000E+01 0. -1.
         25    2    1    2    0    0  0.00000000000E+00  0.00000000000E+00 -0.10767230287E+03  0.16498222275E+03  0.12500323603E+03 0.  0.
    9000005    1    3    3    0    0 -0.16449579427E+02 -0.60288833353E+02 -0.54293663964E+02  0.82789697650E+02  0.10000000000E+01 0.  0.
    9000005    1    3    3    0    0  0.16449579427E+02  0.60288833353E+02 -0.53378638905E+02  0.82192525097E+02  0.10000000000E+01 0.  0.
<mgrwt>
<rscale>  0 0.12500324E+03</rscale>
<asrwt>0</asrwt>
<pdfrwt beam="2">  1        4 0.20973425E-01 0.12500324E+03</pdfrwt>
<pdfrwt beam="1">  1       -4 0.44084554E-02 0.12500324E+03</pdfrwt>
<totfact> 0.96383752E+03</totfact>
</mgrwt>
</event>
<event>
 5    1  0.3243498E-002  0.1250001E+03  0.7818608E-02  0.1235069E+00
         -4   -1    0    0    0  501 -0.00000000000E+00  0.00000000000E+00  0.29315599316E+02  0.29343095665E+02  0.12700000000E+01 0. -1.
          4   -1    0    0  501    0  0.00000000000E+00 -0.00000000000E+00 -0.13315548812E+03  0.13316154444E+03  0.12700000000E+01 0. -1.
         25    2    1    2    0    0  0.00000000000E+00  0.00000000000E+00 -0.10383988880E+03  0.16250464010E+03  0.12500014219E+03 0.  0.
    9000005    1    3    3    0    0  0.31498724339E+00 -0.61626302511E+02 -0.38449761456E+02  0.72644920911E+02  0.10000000000E+01 0.  0.
    9000005    1    3    3    0    0 -0.31498724339E+00  0.61626302511E+02 -0.65390127349E+02  0.89859719190E+02  0.10000000000E+01 0.  0.
<mgrwt>
<rscale>  0 0.12500014E+03</rscale>
<asrwt>0</asrwt>
<pdfrwt beam="2">  1        4 0.20488040E-01 0.12500014E+03</pdfrwt>
<pdfrwt beam="1">  1       -4 0.45126732E-02 0.12500014E+03</pdfrwt>
<totfact> 0.96861763E+03</totfact>
</mgrwt>
</event>
<event>
 5    1  0.3243498E-002  0.1249976E+03  0.7818608E-02  0.1235073E+00
         -4   -1    0    0    0  501 -0.00000000000E+00  0.00000000000E+00  0.28659515508E+02  0.28687640704E+02  0.12700000000E+01 0. -1.
          4   -1    0    0  501    0  0.00000000000E+00 -0.00000000000E+00 -0.13619526339E+03  0.13620118454E+03  0.12700000000E+01 0. -1.
         25    2    1    2    0    0  0.00000000000E+00  0.00000000000E+00 -0.10753574788E+03  0.16488882524E+03  0.12499755045E+03 0.  0.
    9000005    1    3    3    0    0  0.49041353649E+02 -0.14942544708E+02 -0.10090301899E+03  0.11318459812E+03  0.10000000000E+01 0.  0.
    9000005    1    3    3    0    0 -0.49041353649E+02  0.14942544708E+02 -0.66327288947E+01  0.51704227126E+02  0.10000000000E+01 0.  0.
<mgrwt>
<rscale>  0 0.12499755E+03</rscale>
<asrwt>0</asrwt>
<pdfrwt beam="2">  1        4 0.20955736E-01 0.12499755E+03</pdfrwt>
<pdfrwt beam="1">  1       -4 0.44117753E-02 0.12499755E+03</pdfrwt>
<totfact> 0.96413757E+03</totfact>
</mgrwt>
</event>
<event>
 5    1  0.3243498E-002  0.1249967E+03  0.7818608E-02  0.1235074E+00
         -4   -1    0    0    0  501 -0.00000000000E+00  0.00000000000E+00  0.76974070368E+01  0.78014726231E+01  0.12700000000E+01 0.  1.
          4   -1    0    0  501    0  0.00000000000E+00 -0.00000000000E+00 -0.50393745732E+03  0.50393905761E+03  0.12700000000E+01 0.  1.
         25    2    1    2    0    0  0.00000000000E+00  0.00000000000E+00 -0.49624005028E+03  0.51174053023E+03  0.12499673109E+03 0.  0.
    9000005    1    3    3    0    0 -0.13527098623E+02 -0.60404084936E+02 -0.28319749372E+03  0.28988524681E+03  0.10000000000E+01 0.  0.
    9000005    1    3    3    0    0  0.13527098623E+02  0.60404084936E+02 -0.21304255656E+03  0.22185528342E+03  0.10000000000E+01 0.  0.
<mgrwt>
<rscale>  0 0.12499673E+03</rscale>
<asrwt>0</asrwt>
<pdfrwt beam="2">  1        4 0.77536942E-01 0.12499673E+03</pdfrwt>
<pdfrwt beam="1">  1       -4 0.11923450E-02 0.12499673E+03</pdfrwt>
<totfact> 0.54968775E+03</totfact>
</mgrwt>
</event>
<event>
 5    1  0.3243498E-002  0.1250026E+03  0.7818608E-02  0.1235065E+00
         -4   -1    0    0    0  501 -0.00000000000E+00  0.00000000000E+00  0.34855011698E+01  0.37096655381E+01  0.12700000000E+01 0. -1.
          4   -1    0    0  501    0  0.00000000000E+00 -0.00000000000E+00 -0.10856187225E+04  0.10856194654E+04  0.12700000000E+01 0. -1.
         25    2    1    2    0    0  0.00000000000E+00  0.00000000000E+00 -0.10821332214E+04  0.10893291309E+04  0.12500258674E+03 0.  0.
    9000005    1    3    3    0    0  0.53273554891E+02 -0.32472882995E+02 -0.50982570232E+03  0.51363002884E+03  0.10000000000E+01 0.  0.
    9000005    1    3    3    0    0 -0.53273554891E+02  0.32472882995E+02 -0.57230751906E+03  0.57569910209E+03  0.10000000000E+01 0.  0.
<mgrwt>
<rscale>  0 0.12500259E+03</rscale>
<asrwt>0</asrwt>
<pdfrwt beam="2">  1        4 0.16703531E+00 0.12500259E+03</pdfrwt>
<pdfrwt beam="1">  1       -4 0.55353237E-03 0.12500259E+03</pdfrwt>
<totfact> 0.27796290E+03</totfact>
</mgrwt>
</event>
<event>
 5    1  0.3243498E-002  0.1250006E+03  0.7818608E-02  0.1235068E+00
          4   -1    0    0  501    0  0.00000000000E+00  0.00000000000E+00  0.19199740486E+04  0.19199744686E+04  0.12700000000E+01 0. -1.
         -4   -1    0    0    0  501 -0.00000000000E+00 -0.00000000000E+00 -0.18359038389E+01  0.22323626286E+01  0.12700000000E+01 0. -1.
         25    2    1    2    0    0  0.00000000000E+00  0.00000000000E+00  0.19181381447E+04  0.19222068312E+04  0.12500063902E+03 0.  0.
    9000005    1    3    3    0    0  0.15116308828E+01  0.23727775183E+02  0.18477809003E+04  0.18479341297E+04  0.10000000000E+01 0.  0.
    9000005    1    3    3    0    0 -0.15116308828E+01 -0.23727775183E+02  0.70357244466E+02  0.74272701526E+02  0.10000000000E+01 0.  0.
<mgrwt>
<rscale>  0 0.12500064E+03</rscale>
<asrwt>0</asrwt>
<pdfrwt beam="1">  1        4 0.29541150E+00 0.12500064E+03</pdfrwt>
<pdfrwt beam="2">  1       -4 0.31297551E-03 0.12500064E+03</pdfrwt>
<totfact> 0.10910789E+03</totfact>
</mgrwt>
</event>
<event>
 4    1  0.3243498E-002  0.1250803E+03  0.7818608E-02  0.1234944E+00
          4   -1    0    0  501    0  0.00000000000E+00  0.00000000000E+00  0.76858529643E+01  0.77900729001E+01  0.12700000000E+01 0.  1.
         -4   -1    0    0    0  501 -0.00000000000E+00 -0.00000000000E+00 -0.50536004409E+03  0.50536163988E+03  0.12700000000E+01 0.  1.
    9000005    1    1    2    0    0  0.51617225152E+02 -0.33165771665E+02 -0.19927162978E+03  0.20850536870E+03  0.10000000000E+01 0.  0.
    9000005    1    1    2    0    0 -0.51617225152E+02  0.33165771665E+02 -0.29840256135E+03  0.30464634408E+03  0.10000000000E+01 0.  0.
<mgrwt>
<rscale>  0 0.12508029E+03</rscale>
<asrwt>0</asrwt>
<pdfrwt beam="1">  1        4 0.11905790E-02 0.12508029E+03</pdfrwt>
<pdfrwt beam="2">  1       -4 0.77755813E-01 0.12508029E+03</pdfrwt>
<totfact> 0.54761513E+03</totfact>
</mgrwt>
</event>
<event>
 5    1  0.3243498E-002  0.1249982E+03  0.7818608E-02  0.1235072E+00
          4   -1    0    0  501    0  0.00000000000E+00  0.00000000000E+00  0.21243392358E+03  0.21243771978E+03  0.12700000000E+01 0. -1.
         -4   -1    0    0    0  501 -0.00000000000E+00 -0.00000000000E+00 -0.18361651201E+02  0.18405519140E+02  0.12700000000E+01 0. -1.
         25    2    1    2    0    0  0.00000000000E+00  0.00000000000E+00  0.19407227238E+03  0.23084323892E+03  0.12499821619E+03 0.  0.
    9000005    1    3    3    0    0  0.34804622698E+02  0.10064631882E+01  0.12037123626E+01  0.34854320432E+02  0.10000000000E+01 0.  0.
    9000005    1    3    3    0    0 -0.34804622698E+02 -0.10064631882E+01  0.19286856001E+03  0.19598891849E+03  0.10000000000E+01 0.  0.
<mgrwt>
<rscale>  0 0.12499822E+03</rscale>
<asrwt>0</asrwt>
<pdfrwt beam="1">  1        4 0.32685810E-01 0.12499822E+03</pdfrwt>
<pdfrwt beam="2">  1       -4 0.28285358E-02 0.12499822E+03</pdfrwt>
<totfact> 0.85183673E+03</totfact>
</mgrwt>
</event>
<event>
 5    1  0.3243498E-002  0.1250024E+03  0.7818608E-02  0.1235066E+00
          4   -1    0    0  501    0  0.00000000000E+00  0.00000000000E+00  0.14802868664E+02  0.14857248085E+02  0.12700000000E+01 0.  1.
         -4   -1    0    0    0  501 -0.00000000000E+00 -0.00000000000E+00 -0.26335489655E+03  0.26335795875E+03  0.12700000000E+01 0.  1.
         25    2    1    2    0    0  0.00000000000E+00  0.00000000000E+00 -0.24855202788E+03  0.27821520683E+03  0.12500236297E+03 0.  0.
    9000005    1    3    3    0    0 -0.98519147811E+01 -0.35674152175E+02 -0.12200453348E+02  0.38981488173E+02  0.10000000000E+01 0.  0.
    9000005    1    3    3    0    0  0.98519147811E+01  0.35674152175E+02 -0.23635157453E+03  0.23923371866E+03  0.10000000000E+01 0.  0.
<mgrwt>
<rscale>  0 0.12500236E+03</rscale>
<asrwt>0</asrwt>
<pdfrwt beam="1">  1        4 0.22817832E-02 0.12500236E+03</pdfrwt>
<pdfrwt beam="2">  1       -4 0.40520553E-01 0.12500236E+03</pdfrwt>
<totfact> 0.78411235E+03</totfact>
</mgrwt>
</event>
<event>
 5    1  0.3243498E-002  0.1250149E+03  0.7818608E-02  0.1235046E+00
         -4   -1    0    0    0  501 -0.00000000000E+00  0.00000000000E+00  0.33338210301E+02  0.33362391492E+02  0.12700000000E+01 0. -1.
          4   -1    0    0  501    0  0.00000000000E+00 -0.00000000000E+00 -0.11712826866E+03  0.11713515365E+03  0.12700000000E+01 0. -1.
         25    2    1    2    0    0  0.00000000000E+00  0.00000000000E+00 -0.83790058362E+02  0.15049754514E+03  0.12501494796E+03 0.  0.
    9000005    1    3    3    0    0  0.17230588975E+02  0.57809323949E+02 -0.22210438656E+02  0.64289304843E+02  0.10000000000E+01 0.  0.
    9000005    1    3    3    0    0 -0.17230588975E+02 -0.57809323949E+02 -0.61579619707E+02  0.86208240297E+02  0.10000000000E+01 0.  0.
<mgrwt>
<rscale>  0 0.12501495E+03</rscale>
<asrwt>0</asrwt>
<pdfrwt beam="2">  1        4 0.18022123E-01 0.12501495E+03</pdfrwt>
<pdfrwt beam="1">  1       -4 0.51313452E-02 0.12501495E+03</pdfrwt>
<totfact> 0.99171248E+03</totfact>
</mgrwt>
</event>
<event>
 5    1  0.3243498E-002  0.1249938E+03  0.7818608E-02  0.1235079E+00
          4   -1    0    0  501    0  0.00000000000E+00  0.00000000000E+00  0.17462223018E+02  0.17508344660E+02  0.12700000000E+01 0. -1.
         -4   -1    0    0    0  501 -0.00000000000E+00 -0.00000000000E+00 -0.22333193175E+03  0.22333554272E+03  0.12700000000E+01 0. -1.
         25    2    1    2    0    0  0.00000000000E+00  0.00000000000E+00 -0.20586970873E+03  0.24084388738E+03  0.12499376429E+03 0.  0.
    9000005    1    3    3    0    0  0.23158745037E+02 -0.19837636434E+02 -0.20803197992E+03  0.21025737552E+03  0.10000000000E+01 0.  0.
    9000005    1    3    3    0    0 -0.23158745037E+02  0.19837636434E+02  0.21622711840E+01  0.30586511858E+02  0.10000000000E+01 0.  0.
<mgrwt>
<rscale>  0 0.12499376E+03</rscale>
<asrwt>0</asrwt>
<pdfrwt beam="1">  1        4 0.26903216E-02 0.12499376E+03</pdfrwt>
<pdfrwt beam="2">  1       -4 0.34362582E-01 0.12499376E+03</pdfrwt>
<totfact> 0.83683479E+03</totfact>
</mgrwt>
</event>
<event>
 5    1  0.3243498E-002  0.1249577E+03  0.7818608E-02  0.1235135E+00
          4   -1    0    0  501    0  0.00000000000E+00  0.00000000000E+00  0.83701553964E+03  0.83701650313E+03  0.12700000000E+01 0.  1.
         -4   -1    0    0    0  501 -0.00000000000E+00 -0.00000000000E+00 -0.45762736847E+01  0.47492294993E+01  0.12700000000E+01 0.  1.
         25    2    1    2    0    0  0.00000000000E+00  0.00000000000E+00  0.83243926596E+03  0.84176573263E+03  0.12495766128E+03 0.  0.
    9000005    1    3    3    0    0 -0.41902236560E+02 -0.38945597882E+02  0.58530846164E+03  0.58809825055E+03  0.10000000000E+01 0.  0.
    9000005    1    3    3    0    0  0.41902236560E+02  0.38945597882E+02  0.24713080431E+03  0.25366748208E+03  0.10000000000E+01 0.  0.
<mgrwt>
<rscale>  0 0.12495766E+03</rscale>
<asrwt>0</asrwt>
<pdfrwt beam="1">  1        4 0.12878502E+00 0.12495766E+03</pdfrwt>
<pdfrwt beam="2">  1       -4 0.71742039E-03 0.12495766E+03</pdfrwt>
<totfact> 0.36500398E+03</totfact>
</mgrwt>
</event>
<event>
 5    1  0.3243498E-002  0.1249982E+03  0.7818608E-02  0.1235072E+00
          4   -1    0    0  501    0  0.00000000000E+00  0.00000000000E+00  0.13158116222E+02  0.13219263312E+02  0.12700000000E+01 0.  1.
         -4   -1    0    0    0  501 -0.00000000000E+00 -0.00000000000E+00 -0.29611097309E+03  0.29611369655E+03  0.12700000000E+01 0.  1.
         25    2    1    2    0    0  0.00000000000E+00  0.00000000000E+00 -0.28295285687E+03  0.30933295987E+03  0.12499824338E+03 0.  0.
    9000005    1    3    3    0    0  0.20021676416E+02  0.54412153872E+02 -0.19917407448E+03  0.20744363563E+03  0.10000000000E+01 0.  0.
    9000005    1    3    3    0    0 -0.20021676416E+02 -0.54412153872E+02 -0.83778782390E+02  0.10188932424E+03  0.10000000000E+01 0.  0.
<mgrwt>
<rscale>  0 0.12499824E+03</rscale>
<asrwt>0</asrwt>
<pdfrwt beam="1">  1        4 0.20292389E-02 0.12499824E+03</pdfrwt>
<pdfrwt beam="2">  1       -4 0.45560442E-01 0.12499824E+03</pdfrwt>
<totfact> 0.74445750E+03</totfact>
</mgrwt>
</event>
<event>
 5    1  0.3243498E-002  0.1250000E+03  0.7818608E-02  0.1235069E+00
         -4   -1    0    0    0  501 -0.00000000000E+00  0.00000000000E+00  0.37357334304E+02  0.37378915531E+02  0.12700000000E+01 0. -1.
          4   -1    0    0  501    0  0.00000000000E+00 -0.00000000000E+00 -0.10450876026E+03  0.10451647655E+03  0.12700000000E+01 0. -1.
         25    2    1    2    0    0  0.00000000000E+00  0.00000000000E+00 -0.67151425958E+02  0.14189539209E+03  0.12499995315E+03 0.  0.
    9000005    1    3    3    0    0  0.13849017081E+02 -0.40276249125E+02  0.18335846121E+02  0.46380758625E+02  0.10000000000E+01 0.  0.
    9000005    1    3    3    0    0 -0.13849017081E+02  0.40276249125E+02 -0.85487272079E+02  0.95514633461E+02  0.10000000000E+01 0.  0.
<mgrwt>
<rscale>  0 0.12499995E+03</rscale>
<asrwt>0</asrwt>
<pdfrwt beam="2">  1        4 0.16080524E-01 0.12499995E+03</pdfrwt>
<pdfrwt beam="1">  1       -4 0.57495359E-02 0.12499995E+03</pdfrwt>
<totfact> 0.10094464E+04</totfact>
</mgrwt>
</event>
<event>
 5    1  0.3243498E-002  0.1250011E+03  0.7818608E-02  0.1235068E+00
          4   -1    0    0  501    0  0.00000000000E+00  0.00000000000E+00  0.64858955032E+02  0.64871387744E+02  0.12700000000E+01 0.  1.
         -4   -1    0    0    0  501 -0.00000000000E+00 -0.00000000000E+00 -0.60202977418E+02  0.60216371445E+02  0.12700000000E+01 0.  1.
         25    2    1    2    0    0  0.00000000000E+00  0.00000000000E+00  0.46559776138E+01  0.12508775919E+03  0.12500107748E+03 0.  0.
    9000005    1    3    3    0    0 -0.42404203876E+02  0.45863660245E+02  0.42594840923E+01  0.62615773110E+02  0.10000000000E+01 0.  0.
    9000005    1    3    3    0    0  0.42404203876E+02 -0.45863660245E+02  0.39649352147E+00  0.62471986078E+02  0.10000000000E+01 0.  0.
<mgrwt>
<rscale>  0 0.12500108E+03</rscale>
<asrwt>0</asrwt>
<pdfrwt beam="1">  1        4 0.99802875E-02 0.12500108E+03</pdfrwt>
<pdfrwt beam="2">  1       -4 0.92639832E-02 0.12500108E+03</pdfrwt>
<totfact> 0.10450702E+04</totfact>
</mgrwt>
</event>
<event>
 5    1  0.3243498E-002  0.1249987E+03  0.7818608E-02  0.1235071E+00
         -4   -1    0    0    0  501 -0.00000000000E+00  0.00000000000E+00  0.15857692903E+02  0.15908467061E+02  0.12700000000E+01 0.  1.
          4   -1    0    0  501    0  0.00000000000E+00 -0.00000000000E+00 -0.24588027225E+03  0.24588355208E+03  0.12700000000E+01 0.  1.
         25    2    1    2    0    0  0.00000000000E+00  0.00000000000E+00 -0.23002257935E+03  0.26179201914E+03  0.12499869709E+03 0.  0.
    9000005    1    3    3    0    0 -0.45190755066E+01  0.48291934236E+02 -0.32486260181E+02  0.58385700786E+02  0.10000000000E+01 0.  0.
    9000005    1    3    3    0    0  0.45190755066E+01 -0.48291934236E+02 -0.19753631916E+03  0.20340631835E+03  0.10000000000E+01 0.  0.
<mgrwt>
<rscale>  0 0.12499870E+03</rscale>
<asrwt>0</asrwt>
<pdfrwt beam="2">  1        4 0.37831889E-01 0.12499870E+03</pdfrwt>
<pdfrwt beam="1">  1       -4 0.24438032E-02 0.12499870E+03</pdfrwt>
<totfact> 0.80657572E+03</totfact>
</mgrwt>
</event>
<event>
 5    1  0.3243498E-002  0.1249898E+03  0.7818608E-02  0.1235085E+00
          4   -1    0    0  501    0  0.00000000000E+00  0.00000000000E+00  0.14173019652E+03  0.14173588644E+03  0.12700000000E+01 0.  1.
         -4   -1    0    0    0  501 -0.00000000000E+00 -0.00000000000E+00 -0.27535773267E+02  0.27565045064E+02  0.12700000000E+01 0.  1.
         25    2    1    2    0    0  0.00000000000E+00  0.00000000000E+00  0.11419442325E+03  0.16930093150E+03  0.12498975601E+03 0.  0.
    9000005    1    3    3    0    0 -0.13720032788E+02 -0.52373401798E+02  0.14837163499E+02  0.56145827417E+02  0.10000000000E+01 0.  0.
    9000005    1    3    3    0    0  0.13720032788E+02  0.52373401798E+02  0.99357259750E+02  0.11315510409E+03  0.10000000000E+01 0.  0.
<mgrwt>
<rscale>  0 0.12498976E+03</rscale>
<asrwt>0</asrwt>
<pdfrwt beam="1">  1        4 0.21807335E-01 0.12498976E+03</pdfrwt>
<pdfrwt beam="2">  1       -4 0.42389622E-02 0.12498976E+03</pdfrwt>
<totfact> 0.95600995E+03</totfact>
</mgrwt>
</event>
<event>
 5    1  0.3243498E-002  0.1249998E+03  0.7818608E-02  0.1235070E+00
         -4   -1    0    0    0  501 -0.00000000000E+00  0.00000000000E+00  0.90545631554E+01  0.91431949523E+01  0.12700000000E+01 0.  1.
          4   -1    0    0  501    0  0.00000000000E+00 -0.00000000000E+00 -0.42922046020E+03  0.42922233906E+03  0.12700000000E+01 0.  1.
         25    2    1    2    0    0  0.00000000000E+00  0.00000000000E+00 -0.42016589704E+03  0.43836553401E+03  0.12499984151E+03 0.  0.
    9000005    1    3    3    0    0  0.24884171820E+02  0.56970554620E+02 -0.23236616051E+03  0.24054084611E+03  0.10000000000E+01 0.  0.
    9000005    1    3    3    0    0 -0.24884171820E+02 -0.56970554620E+02 -0.18779973653E+03  0.19782468790E+03  0.10000000000E+01 0.  0.
<mgrwt>
<rscale>  0 0.12499984E+03</rscale>
<asrwt>0</asrwt>
<pdfrwt beam="2">  1        4 0.66040864E-01 0.12499984E+03</pdfrwt>
<pdfrwt beam="1">  1       -4 0.13999724E-02 0.12499984E+03</pdfrwt>
<totfact> 0.60985178E+03</totfact>
</mgrwt>
</event>
<event>
 5    1  0.3243498E-002  0.1249977E+03  0.7818608E-02  0.1235073E+00
          4   -1    0    0  501    0  0.00000000000E+00  0.00000000000E+00  0.48179500530E+02  0.48196236070E+02  0.12700000000E+01 0. -1.
         -4   -1    0    0    0  501 -0.00000000000E+00 -0.00000000000E+00 -0.81038286930E+02  0.81048237788E+02  0.12700000000E+01 0. -1.
         25    2    1    2    0    0  0.00000000000E+00  0.00000000000E+00 -0.32858786401E+02  0.12924447386E+03  0.12499773670E+03 0.  0.
    9000005    1    3    3    0    0 -0.41924175036E+02  0.39353364203E+02 -0.41730832302E+02  0.71054810472E+02  0.10000000000E+01 0.  0.
    9000005    1    3    3    0    0  0.41924175036E+02 -0.39353364203E+02  0.88720459009E+01  0.58189663387E+02  0.10000000000E+01 0.  0.
<mgrwt>
<rscale>  0 0.12499774E+03</rscale>
<asrwt>0</asrwt>
<pdfrwt beam="1">  1        4 0.74142836E-02 0.12499774E+03</pdfrwt>
<pdfrwt beam="2">  1       -4 0.12469482E-01 0.12499774E+03</pdfrwt>
<totfact> 0.10361226E+04</totfact>
</mgrwt>
</event>
<event>
 5    1  0.3243498E-002  0.1249992E+03  0.7818608E-02  0.1235071E+00
         -4   -1    0    0    0  501 -0.00000000000E+00  0.00000000000E+00  0.13425189963E+03  0.13425790649E+03  0.12700000000E+01 0.  1.
          4   -1    0    0  501    0  0.00000000000E+00 -0.00000000000E+00 -0.29075513514E+02  0.29103236695E+02  0.12700000000E+01 0.  1.
         25    2    1    2    0    0  0.00000000000E+00  0.00000000000E+00  0.10517638612E+03  0.16336114318E+03  0.12499916362E+03 0.  0.
    9000005    1    3    3    0    0  0.61021828744E+02  0.97108693318E+01  0.40381937484E+02  0.73821849350E+02  0.10000000000E+01 0.  0.
    9000005    1    3    3    0    0 -0.61021828744E+02 -0.97108693318E+01  0.64794448633E+02  0.89539293833E+02  0.10000000000E+01 0.  0.
<mgrwt>
<rscale>  0 0.12499916E+03</rscale>
<asrwt>0</asrwt>
<pdfrwt beam="2">  1        4 0.44757506E-02 0.12499916E+03</pdfrwt>
<pdfrwt beam="1">  1       -4 0.20656733E-01 0.12499916E+03</pdfrwt>
<totfact> 0.96700486E+03</totfact>
</mgrwt>
</event>
<event>
 5    1  0.3243498E-002  0.1249942E+03  0.7818608E-02  0.1235078E+00
         -4   -1    0    0    0  501 -0.00000000000E+00  0.00000000000E+00  0.77293711236E+02  0.77304144110E+02  0.12700000000E+01 0. -1.
          4   -1    0    0  501    0  0.00000000000E+00 -0.00000000000E+00 -0.50511200878E+02  0.50527164121E+02  0.12700000000E+01 0. -1.
         25    2    1    2    0    0  0.00000000000E+00  0.00000000000E+00  0.26782510358E+02  0.12783130823E+03  0.12499416188E+03 0.  0.
    9000005    1    3    3    0    0  0.13761087739E+02 -0.75668636539E+01 -0.48465167315E+02  0.50955837784E+02  0.10000000000E+01 0.  0.
    9000005    1    3    3    0    0 -0.13761087739E+02  0.75668636539E+01  0.75247677673E+02  0.76875470448E+02  0.10000000000E+01 0.  0.
<mgrwt>
<rscale>  0 0.12499416E+03</rscale>
<asrwt>0</asrwt>
<pdfrwt beam="2">  1        4 0.77729845E-02 0.12499416E+03</pdfrwt>
<pdfrwt beam="1">  1       -4 0.11893371E-01 0.12499416E+03</pdfrwt>
<totfact> 0.10392502E+04</totfact>
</mgrwt>
</event>
<event>
 5    1  0.3243498E-002  0.1250004E+03  0.7818608E-02  0.1235069E+00
          4   -1    0    0  501    0  0.00000000000E+00  0.00000000000E+00  0.28533640326E+02  0.28561889473E+02  0.12700000000E+01 0. -1.
         -4   -1    0    0    0  501 -0.00000000000E+00 -0.00000000000E+00 -0.13680185151E+03  0.13680774640E+03  0.12700000000E+01 0. -1.
         25    2    1    2    0    0  0.00000000000E+00  0.00000000000E+00 -0.10826821118E+03  0.16536963588E+03  0.12500044367E+03 0.  0.
    9000005    1    3    3    0    0 -0.55235821503E+02  0.28994101678E+02 -0.49251027543E+02  0.79487845758E+02  0.10000000000E+01 0.  0.
    9000005    1    3    3    0    0  0.55235821503E+02 -0.28994101678E+02 -0.59017183640E+02  0.85881790119E+02  0.10000000000E+01 0.  0.
<mgrwt>
<rscale>  0 0.12500044E+03</rscale>
<asrwt>0</asrwt>
<pdfrwt beam="1">  1        4 0.43924173E-02 0.12500044E+03</pdfrwt>
<pdfrwt beam="2">  1       -4 0.21049065E-01 0.12500044E+03</pdfrwt>
<totfact> 0.96316475E+03</totfact>
</mgrwt>
</event>
<event>
 5    1  0.3243498E-002  0.1250002E+03  0.7818608E-02  0.1235069E+00
         -4   -1    0    0    0  501 -0.00000000000E+00  0.00000000000E+00  0.48962918107E+03  0.48963082813E+03  0.12700000000E+01 0. -1.
          4   -1    0    0  501    0  0.00000000000E+00 -0.00000000000E+00 -0.79257876065E+01  0.80268928723E+01  0.12700000000E+01 0. -1.
         25    2    1    2    0    0  0.00000000000E+00  0.00000000000E+00  0.48170339346E+03  0.49765772100E+03  0.12500019200E+03 0.  0.
    9000005    1    3    3    0    0  0.56781891742E+02  0.26024981392E+02  0.23311215881E+03  0.24133744316E+03  0.10000000000E+01 0.  0.
    9000005    1    3    3    0    0 -0.56781891742E+02 -0.26024981392E+02  0.24859123465E+03  0.25632027784E+03  0.10000000000E+01 0.  0.
<mgrwt>
<rscale>  0 0.12500019E+03</rscale>
<asrwt>0</asrwt>
<pdfrwt beam="2">  1        4 0.12272561E-02 0.12500019E+03</pdfrwt>
<pdfrwt beam="1">  1       -4 0.75335461E-01 0.12500019E+03</pdfrwt>
<totfact> 0.56046324E+03</totfact>
</mgrwt>
</event>
<event>
 5    1  0.3243498E-002  0.1249950E+03  0.7818608E-02  0.1235077E+00
          4   -1    0    0  501    0  0.00000000000E+00  0.00000000000E+00  0.66300795825E+02  0.66312958213E+02  0.12700000000E+01 0. -1.
         -4   -1    0    0    0  501 -0.00000000000E+00 -0.00000000000E+00 -0.58887993831E+02  0.58901686881E+02  0.12700000000E+01 0. -1.
         25    2    1    2    0    0  0.00000000000E+00  0.00000000000E+00  0.74128019941E+01  0.12521464509E+03  0.12499503075E+03 0.  0.
    9000005    1    3    3    0    0 -0.17057685145E+02 -0.11625472445E+02 -0.55378778301E+02  0.59109435103E+02  0.10000000000E+01 0.  0.
    9000005    1    3    3    0    0  0.17057685145E+02  0.11625472445E+02  0.62791580295E+02  0.66105209991E+02  0.10000000000E+01 0.  0.
<mgrwt>
<rscale>  0 0.12499503E+03</rscale>
<asrwt>0</asrwt>
<pdfrwt beam="1">  1        4 0.10202111E-01 0.12499503E+03</pdfrwt>
<pdfrwt beam="2">  1       -4 0.90616803E-02 0.12499503E+03</pdfrwt>
<totfact> 0.10449376E+04</totfact>
</mgrwt>
</event>
<event>
 4    1  0.3243498E-002  0.1249238E+03  0.7818608E-02  0.1235188E+00
         -4   -1    0    0    0  501 -0.00000000000E+00  0.00000000000E+00  0.40073400536E+02  0.40093519807E+02  0.12700000000E+01 0. -1.
          4   -1    0    0  501    0  0.00000000000E+00 -0.00000000000E+00 -0.97309910143E+02  0.97318197229E+02  0.12700000000E+01 0. -1.
    9000005    1    1    2    0    0  0.22918834650E+01  0.57370231575E+02 -0.15874513471E+01  0.57446637870E+02  0.10000000000E+01 0.  0.
    9000005    1    1    2    0    0 -0.22918834650E+01 -0.57370231575E+02 -0.55649058260E+02  0.79965079166E+02  0.10000000000E+01 0.  0.
<mgrwt>
<rscale>  0 0.12492382E+03</rscale>
<asrwt>0</asrwt>
<pdfrwt beam="2">  1        4 0.14972940E-01 0.12492382E+03</pdfrwt>
<pdfrwt beam="1">  1       -4 0.61673237E-02 0.12492382E+03</pdfrwt>
<totfact> 0.10205001E+04</totfact>
</mgrwt>
</event>
<event>
 5    1  0.3243498E-002  0.1250009E+03  0.7818608E-02  0.1235068E+00
          4   -1    0    0  501    0  0.00000000000E+00  0.00000000000E+00  0.33358363647E+01  0.35694123119E+01  0.12700000000E+01 0. -1.
         -4   -1    0    0    0  501 -0.00000000000E+00 -0.00000000000E+00 -0.11311680901E+04  0.11311688030E+04  0.12700000000E+01 0. -1.
         25    2    1    2    0    0  0.00000000000E+00  0.00000000000E+00 -0.11278322537E+04  0.11347382153E+04  0.12500089921E+03 0.  0.
    9000005    1    3    3    0    0  0.66595741810E+01  0.16636708175E+02 -0.11073881853E+04  0.11075336216E+04  0.10000000000E+01 0.  0.
    9000005    1    3    3    0    0 -0.66595741810E+01 -0.16636708175E+02 -0.20444068384E+02  0.27204593716E+02  0.10000000000E+01 0.  0.
<mgrwt>
<rscale>  0 0.12500090E+03</rscale>
<asrwt>0</asrwt>
<pdfrwt beam="1">  1        4 0.53122872E-03 0.12500090E+03</pdfrwt>
<pdfrwt beam="2">  1       -4 0.17404359E+00 0.12500090E+03</pdfrwt>
<totfact> 0.26487047E+03</totfact>
</mgrwt>
</event>
<event>
 5    1  0.3243498E-002  0.1250026E+03  0.7818608E-02  0.1235065E+00
          4   -1    0    0  501    0  0.00000000000E+00  0.00000000000E+00  0.26037415905E+02  0.26068370241E+02  0.12700000000E+01 0. -1.
         -4   -1    0    0    0  501 -0.00000000000E+00 -0.00000000000E+00 -0.14990791948E+03  0.14991329902E+03  0.12700000000E+01 0. -1.
         25    2    1    2    0    0  0.00000000000E+00  0.00000000000E+00 -0.12387050358E+03  0.17598166926E+03  0.12500258501E+03 0.  0.
    9000005    1    3    3    0    0 -0.32197680431E+02 -0.49962265276E+02 -0.89106368614E+02  0.10711612159E+03  0.10000000000E+01 0.  0.
    9000005    1    3    3    0    0  0.32197680431E+02  0.49962265276E+02 -0.34764134963E+02  0.68865547673E+02  0.10000000000E+01 0.  0.
<mgrwt>
<rscale>  0 0.12500259E+03</rscale>
<asrwt>0</asrwt>
<pdfrwt beam="1">  1        4 0.40085513E-02 0.12500259E+03</pdfrwt>
<pdfrwt beam="2">  1       -4 0.23065551E-01 0.12500259E+03</pdfrwt>
<totfact> 0.94339887E+03</totfact>
</mgrwt>
</event>
<event>
 5    1  0.3243498E-002  0.1249998E+03  0.7818608E-02  0.1235070E+00
          4   -1    0    0  501    0  0.00000000000E+00  0.00000000000E+00  0.10862815376E+03  0.10863557745E+03  0.12700000000E+01 0. -1.
         -4   -1    0    0    0  501 -0.00000000000E+00 -0.00000000000E+00 -0.35939863448E+02  0.35962295319E+02  0.12700000000E+01 0. -1.
         25    2    1    2    0    0  0.00000000000E+00  0.00000000000E+00  0.72688290308E+02  0.14459787277E+03  0.12499982905E+03 0.  0.
    9000005    1    3    3    0    0  0.34654906694E+02 -0.36525419287E+02  0.79163467693E+02  0.93823895833E+02  0.10000000000E+01 0.  0.
    9000005    1    3    3    0    0 -0.34654906694E+02  0.36525419287E+02 -0.64751773844E+01  0.50773976939E+02  0.10000000000E+01 0.  0.
<mgrwt>
<rscale>  0 0.12499983E+03</rscale>
<asrwt>0</asrwt>
<pdfrwt beam="1">  1        4 0.16714320E-01 0.12499983E+03</pdfrwt>
<pdfrwt beam="2">  1       -4 0.55315064E-02 0.12499983E+03</pdfrwt>
<totfact> 0.10039204E+04</totfact>
</mgrwt>
</event>
<event>
 5    1  0.3243498E-002  0.1250030E+03  0.7818608E-02  0.1235065E+00
          4   -1    0    0  501    0  0.00000000000E+00  0.00000000000E+00  0.36811006165E+03  0.36811225243E+03  0.12700000000E+01 0. -1.
         -4   -1    0    0    0  501 -0.00000000000E+00 -0.00000000000E+00 -0.10571918213E+02  0.10647927249E+02  0.12700000000E+01 0. -1.
         25    2    1    2    0    0  0.00000000000E+00  0.00000000000E+00  0.35753814344E+03  0.37876017968E+03  0.12500299875E+03 0.  0.
    9000005    1    3    3    0    0  0.11422969110E+02 -0.35899760483E+02  0.32984958598E+03  0.33199552166E+03  0.10000000000E+01 0.  0.
    9000005    1    3    3    0    0 -0.11422969110E+02  0.35899760483E+02  0.27688557454E+02  0.46764658021E+02  0.10000000000E+01 0.  0.
<mgrwt>
<rscale>  0 0.12500300E+03</rscale>
<asrwt>0</asrwt>
<pdfrwt beam="1">  1        4 0.56638328E-01 0.12500300E+03</pdfrwt>
<pdfrwt beam="2">  1       -4 0.16324645E-02 0.12500300E+03</pdfrwt>
<totfact> 0.66667892E+03</totfact>
</mgrwt>
</event>
<event>
 5    1  0.3243498E-002  0.1249944E+03  0.7818608E-02  0.1235078E+00
          4   -1    0    0  501    0  0.00000000000E+00  0.00000000000E+00  0.79873367996E+02  0.79883463965E+02  0.12700000000E+01 0.  1.
         -4   -1    0    0    0  501 -0.00000000000E+00 -0.00000000000E+00 -0.48879729095E+02  0.48896224971E+02  0.12700000000E+01 0.  1.
         25    2    1    2    0    0  0.00000000000E+00  0.00000000000E+00  0.30993638901E+02  0.12877968894E+03  0.12499441040E+03 0.  0.
    9000005    1    3    3    0    0 -0.60397003553E+02  0.10720655958E+02  0.27781418832E+02  0.67346401052E+02  0.10000000000E+01 0.  0.
    9000005    1    3    3    0    0  0.60397003553E+02 -0.10720655958E+02  0.32122200691E+01  0.61433287883E+02  0.10000000000E+01 0.  0.
<mgrwt>
<rscale>  0 0.12499441E+03</rscale>
<asrwt>0</asrwt>
<pdfrwt beam="1">  1        4 0.12290256E-01 0.12499441E+03</pdfrwt>
<pdfrwt beam="2">  1       -4 0.75220040E-02 0.12499441E+03</pdfrwt>
<totfact> 0.10371992E+04</totfact>
</mgrwt>
</event>
<event>
 5    1  0.3243498E-002  0.1250072E+03  0.7818608E-02  0.1235058E+00
          4   -1    0    0  501    0  0.00000000000E+00  0.00000000000E+00  0.37380063224E+02  0.37401631336E+02  0.12700000000E+01 0.  1.
         -4   -1    0    0    0  501 -0.00000000000E+00 -0.00000000000E+00 -0.10445737963E+03  0.10446509972E+03  0.12700000000E+01 0.  1.
         25    2    1    2    0    0  0.00000000000E+00  0.00000000000E+00 -0.67077316405E+02  0.14186673105E+03  0.12500721181E+03 0.  0.
    9000005    1    3    3    0    0 -0.14531941508E+02  0.16080106226E+02 -0.10006124653E+03  0.10238652352E+03  0.10000000000E+01 0.  0.
    9000005    1    3    3    0    0  0.14531941508E+02 -0.16080106226E+02  0.32983930129E+02  0.39480207535E+02  0.10000000000E+01 0.  0.
<mgrwt>
<rscale>  0 0.12500721E+03</rscale>
<asrwt>0</asrwt>
<pdfrwt beam="1">  1        4 0.57530320E-02 0.12500721E+03</pdfrwt>
<pdfrwt beam="2">  1       -4 0.16072619E-01 0.12500721E+03</pdfrwt>
<totfact> 0.10093403E+04</totfact>
</mgrwt>
</event>
<event>
 5    1  0.3243498E-002  0.1250010E+03  0.7818608E-02  0.1235068E+00
         -4   -1    0    0    0  501 -0.00000000000E+00  0.00000000000E+00  0.22680722499E+01  0.25994329633E+01  0.12700000000E+01 0. -1.
          4   -1    0    0  501    0  0.00000000000E+00 -0.00000000000E+00 -0.16047248728E+04  0.16047253754E+04  0.12700000000E+01 0. -1.
         25    2    1    2    0    0  0.00000000000E+00  0.00000000000E+00 -0.16024568006E+04  0.16073248083E+04  0.12500096712E+03 0.  0.
    9000005    1    3    3    0    0 -0.51145033883E+02  0.35741028816E+02 -0.75654661761E+03  0.75911594651E+03  0.10000000000E+01 0.  0.
    9000005    1    3    3    0    0  0.51145033883E+02 -0.35741028816E+02 -0.84591018296E+03  0.84820886182E+03  0.10000000000E+01 0.  0.
<mgrwt>
<rscale>  0 0.12500097E+03</rscale>
<asrwt>0</asrwt>
<pdfrwt beam="2">  1        4 0.24690543E+00 0.12500097E+03</pdfrwt>
<pdfrwt beam="1">  1       -4 0.37446342E-03 0.12500097E+03</pdfrwt>
<totfact> 0.15913999E+03</totfact>
</mgrwt>
</event>
<event>
 5    1  0.3243498E-002  0.1250028E+03  0.7818608E-02  0.1235065E+00
         -4   -1    0    0    0  501 -0.00000000000E+00  0.00000000000E+00  0.11920777492E+03  0.11921453981E+03  0.12700000000E+01 0. -1.
          4   -1    0    0  501    0  0.00000000000E+00 -0.00000000000E+00 -0.32749882716E+02  0.32774497981E+02  0.12700000000E+01 0. -1.
         25    2    1    2    0    0  0.00000000000E+00  0.00000000000E+00  0.86457892204E+02  0.15198903779E+03  0.12500280190E+03 0.  0.
    9000005    1    3    3    0    0 -0.34021663505E+02 -0.50955366520E+02  0.28263077615E+02  0.67481290155E+02  0.10000000000E+01 0.  0.
    9000005    1    3    3    0    0  0.34021663505E+02  0.50955366520E+02  0.58194814589E+02  0.84507747632E+02  0.10000000000E+01 0.  0.
<mgrwt>
<rscale>  0 0.12500280E+03</rscale>
<asrwt>0</asrwt>
<pdfrwt beam="2">  1        4 0.50408574E-02 0.12500280E+03</pdfrwt>
<pdfrwt beam="1">  1       -4 0.18342071E-01 0.12500280E+03</pdfrwt>
<totfact> 0.98902446E+03</totfact>
</mgrwt>
</event>
<event>
 5    1  0.3243498E-002  0.1249999E+03  0.7818608E-02  0.1235069E+00
          4   -1    0    0  501    0  0.00000000000E+00  0.00000000000E+00  0.13311923769E+02  0.13372367571E+02  0.12700000000E+01 0.  1.
         -4   -1    0    0    0  501 -0.00000000000E+00 -0.00000000000E+00 -0.29271296500E+03  0.29271572008E+03  0.12700000000E+01 0.  1.
         25    2    1    2    0    0  0.00000000000E+00  0.00000000000E+00 -0.27940104123E+03  0.30608808765E+03  0.12499990223E+03 0.  0.
    9000005    1    3    3    0    0  0.25309696370E+02  0.54292668844E+02 -0.96104652126E+02  0.11324918887E+03  0.10000000000E+01 0.  0.
    9000005    1    3    3    0    0 -0.25309696370E+02 -0.54292668844E+02 -0.18329638911E+03  0.19283889877E+03  0.10000000000E+01 0.  0.
<mgrwt>
<rscale>  0 0.12499990E+03</rscale>
<asrwt>0</asrwt>
<pdfrwt beam="1">  1        4 0.20528499E-02 0.12499990E+03</pdfrwt>
<pdfrwt beam="2">  1       -4 0.45037621E-01 0.12499990E+03</pdfrwt>
<totfact> 0.74841616E+03</totfact>
</mgrwt>
</event>
<event>
 5    1  0.3243498E-002  0.1250170E+03  0.7818608E-02  0.1235043E+00
          4   -1    0    0  501    0  0.00000000000E+00  0.00000000000E+00  0.21046893839E+02  0.21085175842E+02  0.12700000000E+01 0.  1.
         -4   -1    0    0    0  501 -0.00000000000E+00 -0.00000000000E+00 -0.18543883979E+03  0.18544318862E+03  0.12700000000E+01 0.  1.
         25    2    1    2    0    0  0.00000000000E+00  0.00000000000E+00 -0.16439194596E+03  0.20652836446E+03  0.12501701257E+03 0.  0.
    9000005    1    3    3    0    0 -0.44756799711E+02 -0.23400326366E+02 -0.14301942672E+03  0.15167828722E+03  0.10000000000E+01 0.  0.
    9000005    1    3    3    0    0  0.44756799711E+02  0.23400326366E+02 -0.21372519232E+02  0.54850077236E+02  0.10000000000E+01 0.  0.
<mgrwt>
<rscale>  0 0.12501701E+03</rscale>
<asrwt>0</asrwt>
<pdfrwt beam="1">  1        4 0.32412631E-02 0.12501701E+03</pdfrwt>
<pdfrwt beam="2">  1       -4 0.28532331E-01 0.12501701E+03</pdfrwt>
<totfact> 0.89012132E+03</totfact>
</mgrwt>
</event>
<event>
 5    1  0.3243498E-002  0.1249977E+03  0.7818608E-02  0.1235073E+00
         -4   -1    0    0    0  501 -0.00000000000E+00  0.00000000000E+00  0.78318897420E+03  0.78319000390E+03  0.12700000000E+01 0.  1.
          4   -1    0    0  501    0  0.00000000000E+00 -0.00000000000E+00 -0.49055437822E+01  0.50672734088E+01  0.12700000000E+01 0.  1.
         25    2    1    2    0    0  0.00000000000E+00  0.00000000000E+00  0.77828343042E+03  0.78825727731E+03  0.12499774865E+03 0.  0.
    9000005    1    3    3    0    0  0.14914992291E+02 -0.29624139895E+02  0.55148934691E+02  0.64361880466E+02  0.10000000000E+01 0.  0.
    9000005    1    3    3    0    0 -0.14914992291E+02  0.29624139895E+02  0.72313449573E+03  0.72389539684E+03  0.10000000000E+01 0.  0.
<mgrwt>
<rscale>  0 0.12499775E+03</rscale>
<asrwt>0</asrwt>
<pdfrwt beam="2">  1        4 0.76721926E-03 0.12499775E+03</pdfrwt>
<pdfrwt beam="1">  1       -4 0.12050309E+00 0.12499775E+03</pdfrwt>
<totfact> 0.38796280E+03</totfact>
</mgrwt>
</event>
<event>
 5    1  0.3243498E-002  0.1249995E+03  0.7818608E-02  0.1235070E+00
         -4   -1    0    0    0  501 -0.00000000000E+00  0.00000000000E+00  0.89556015385E+02  0.89565019911E+02  0.12700000000E+01 0. -1.
          4   -1    0    0  501    0  0.00000000000E+00 -0.00000000000E+00 -0.43597185858E+02  0.43615679689E+02  0.12700000000E+01 0. -1.
         25    2    1    2    0    0  0.00000000000E+00  0.00000000000E+00  0.45958829527E+02  0.13318069960E+03  0.12499953894E+03 0.  0.
    9000005    1    3    3    0    0 -0.36050291722E+02  0.40835456051E+02  0.55611807982E+02  0.77851340330E+02  0.10000000000E+01 0.  0.
    9000005    1    3    3    0    0  0.36050291722E+02 -0.40835456051E+02 -0.96529784547E+01  0.55329359270E+02  0.10000000000E+01 0.  0.
<mgrwt>
<rscale>  0 0.12499954E+03</rscale>
<asrwt>0</asrwt>
<pdfrwt beam="2">  1        4 0.67093747E-02 0.12499954E+03</pdfrwt>
<pdfrwt beam="1">  1       -4 0.13779964E-01 0.12499954E+03</pdfrwt>
<totfact> 0.10276668E+04</totfact>
</mgrwt>
</event>
<event>
 5    1  0.3243498E-002  0.1250021E+03  0.7818608E-02  0.1235066E+00
          4   -1    0    0  501    0  0.00000000000E+00  0.00000000000E+00  0.22940967976E+03  0.22941319506E+03  0.12700000000E+01 0.  1.
         -4   -1    0    0    0  501 -0.00000000000E+00 -0.00000000000E+00 -0.17000647841E+02  0.17048018272E+02  0.12700000000E+01 0.  1.
         25    2    1    2    0    0  0.00000000000E+00  0.00000000000E+00  0.21240903192E+03  0.24646121334E+03  0.12500213133E+03 0.  0.
    9000005    1    3    3    0    0  0.42963272026E+02 -0.28077247922E+02  0.35907064912E+02  0.62645765257E+02  0.10000000000E+01 0.  0.
    9000005    1    3    3    0    0 -0.42963272026E+02  0.28077247922E+02  0.17650196701E+03  0.18381544808E+03  0.10000000000E+01 0.  0.
<mgrwt>
<rscale>  0 0.12500213E+03</rscale>
<asrwt>0</asrwt>
<pdfrwt beam="1">  1        4 0.35297710E-01 0.12500213E+03</pdfrwt>
<pdfrwt beam="2">  1       -4 0.26193987E-02 0.12500213E+03</pdfrwt>
<totfact> 0.82840464E+03</totfact>
</mgrwt>
</event>
<event>
 5    1  0.3243498E-002  0.1249980E+03  0.7818608E-02  0.1235072E+00
          4   -1    0    0  501    0  0.00000000000E+00  0.00000000000E+00  0.12395883220E+03  0.12396533782E+03  0.12700000000E+01 0. -1.
         -4   -1    0    0    0  501 -0.00000000000E+00 -0.00000000000E+00 -0.31491359872E+02  0.31516958079E+02  0.12700000000E+01 0. -1.
         25    2    1    2    0    0  0.00000000000E+00  0.00000000000E+00  0.92467472331E+02  0.15548229590E+03  0.12499804358E+03 0.  0.
    9000005    1    3    3    0    0  0.12842502605E+02 -0.56493669050E+02  0.17097687836E+02  0.60413536937E+02  0.10000000000E+01 0.  0.
    9000005    1    3    3    0    0 -0.12842502605E+02  0.56493669050E+02  0.75369784495E+02  0.95068758963E+02  0.10000000000E+01 0.  0.
<mgrwt>
<rscale>  0 0.12499804E+03</rscale>
<asrwt>0</asrwt>
<pdfrwt beam="1">  1        4 0.19073059E-01 0.12499804E+03</pdfrwt>
<pdfrwt beam="2">  1       -4 0.48472942E-02 0.12499804E+03</pdfrwt>
<totfact> 0.98225223E+03</totfact>
</mgrwt>
</event>
<event>
 5    1  0.3243498E-002  0.1250013E+03  0.7818608E-02  0.1235067E+00
          4   -1    0    0  501    0  0.00000000000E+00  0.00000000000E+00  0.13329526425E+02  0.13389890766E+02  0.12700000000E+01 0. -1.
         -4   -1    0    0    0  501 -0.00000000000E+00 -0.00000000000E+00 -0.29233467547E+03  0.29233743411E+03  0.12700000000E+01 0. -1.
         25    2    1    2    0    0  0.00000000000E+00  0.00000000000E+00 -0.27900514905E+03  0.30572732488E+03  0.12500129592E+03 0.  0.
    9000005    1    3    3    0    0 -0.30402972502E+02  0.34505561773E+01 -0.62330104075E+01  0.31242559012E+02  0.10000000000E+01 0.  0.
    9000005    1    3    3    0    0  0.30402972502E+02 -0.34505561773E+01 -0.27277213864E+03  0.27448476587E+03  0.10000000000E+01 0.  0.
<mgrwt>
<rscale>  0 0.12500130E+03</rscale>
<asrwt>0</asrwt>
<pdfrwt beam="1">  1        4 0.20555522E-02 0.12500130E+03</pdfrwt>
<pdfrwt beam="2">  1       -4 0.44979416E-01 0.12500130E+03</pdfrwt>
<totfact> 0.74883833E+03</totfact>
</mgrwt>
</event>
<event>
 5    1  0.3243498E-002  0.1250009E+03  0.7818608E-02  0.1235068E+00
         -4   -1    0    0    0  501 -0.00000000000E+00  0.00000000000E+00  0.25761906622E+03  0.25762219660E+03  0.12700000000E+01 0. -1.
          4   -1    0    0  501    0  0.00000000000E+00 -0.00000000000E+00 -0.15133285475E+02  0.15186481793E+02  0.12700000000E+01 0. -1.
         25    2    1    2    0    0  0.00000000000E+00  0.00000000000E+00  0.24248578075E+03  0.27280867839E+03  0.12500088456E+03 0.  0.
    9000005    1    3    3    0    0 -0.72042441947E+00 -0.43361106660E+02  0.21944363639E+03  0.22368999560E+03  0.10000000000E+01 0.  0.
    9000005    1    3    3    0    0  0.72042441947E+00  0.43361106660E+02  0.23042144356E+02  0.49118682786E+02  0.10000000000E+01 0.  0.
<mgrwt>
<rscale>  0 0.12500088E+03</rscale>
<asrwt>0</asrwt>
<pdfrwt beam="2">  1        4 0.23325304E-02 0.12500088E+03</pdfrwt>
<pdfrwt beam="1">  1       -4 0.39638038E-01 0.12500088E+03</pdfrwt>
<totfact> 0.79139827E+03</totfact>
</mgrwt>
</event>
<event>
 5    1  0.3243498E-002  0.1249931E+03  0.7818608E-02  0.1235080E+00
          4   -1    0    0  501    0  0.00000000000E+00  0.00000000000E+00  0.20229307425E+03  0.20229706075E+03  0.12700000000E+01 0.  1.
         -4   -1    0    0    0  501 -0.00000000000E+00 -0.00000000000E+00 -0.19282650042E+02  0.19324427356E+02  0.12700000000E+01 0.  1.
         25    2    1    2    0    0  0.00000000000E+00  0.00000000000E+00  0.18301042421E+03  0.22162148811E+03  0.12499307430E+03 0.  0.
    9000005    1    3    3    0    0  0.85659462131E+01 -0.11306073715E+02  0.19940952404E+03  0.19991588485E+03  0.10000000000E+01 0.  0.
    9000005    1    3    3    0    0 -0.85659462131E+01  0.11306073715E+02 -0.16399099834E+02  0.21705603257E+02  0.10000000000E+01 0.  0.
<mgrwt>
<rscale>  0 0.12499307E+03</rscale>
<asrwt>0</asrwt>
<pdfrwt beam="1">  1        4 0.31125529E-01 0.12499307E+03</pdfrwt>
<pdfrwt beam="2">  1       -4 0.29700821E-02 0.12499307E+03</pdfrwt>
<totfact> 0.86625818E+03</totfact>
</mgrwt>
</event>
<event>
 5    1  0.3243498E-002  0.1250022E+03  0.7818608E-02  0.1235066E+00
         -4   -1    0    0    0  501 -0.00000000000E+00  0.00000000000E+00  0.80520227045E+01  0.81515624045E+01  0.12700000000E+01 0.  1.
          4   -1    0    0  501    0  0.00000000000E+00 -0.00000000000E+00 -0.48206331986E+03  0.48206499277E+03  0.12700000000E+01 0.  1.
         25    2    1    2    0    0  0.00000000000E+00  0.00000000000E+00 -0.47401129716E+03  0.49021655518E+03  0.12500224453E+03 0.  0.
    9000005    1    3    3    0    0 -0.60134110982E+02  0.12551417582E+01 -0.30352420420E+03  0.30942790633E+03  0.10000000000E+01 0.  0.
    9000005    1    3    3    0    0  0.60134110982E+02 -0.12551417582E+01 -0.17048709296E+03  0.18078864884E+03  0.10000000000E+01 0.  0.
<mgrwt>
<rscale>  0 0.12500224E+03</rscale>
<asrwt>0</asrwt>
<pdfrwt beam="2">  1        4 0.74171351E-01 0.12500224E+03</pdfrwt>
<pdfrwt beam="1">  1       -4 0.12465587E-02 0.12500224E+03</pdfrwt>
<totfact> 0.56628726E+03</totfact>
</mgrwt>
</event>
<event>
 5    1  0.3243498E-002  0.1249979E+03  0.7818608E-02  0.1235073E+00
          4   -1    0    0  501    0  0.00000000000E+00  0.00000000000E+00  0.15975499782E+02  0.16025900701E+02  0.12700000000E+01 0.  1.
         -4   -1    0    0    0  501 -0.00000000000E+00 -0.00000000000E+00 -0.24406949192E+03  0.24407279608E+03  0.12700000000E+01 0.  1.
         25    2    1    2    0    0  0.00000000000E+00  0.00000000000E+00 -0.22809399214E+03  0.26009869678E+03  0.12499785125E+03 0.  0.
    9000005    1    3    3    0    0 -0.45157372032E+01 -0.31508717242E+02 -0.22594674408E+03  0.22818002170E+03  0.10000000000E+01 0.  0.
    9000005    1    3    3    0    0  0.45157372032E+01  0.31508717242E+02 -0.21472480644E+01  0.31918675082E+02  0.10000000000E+01 0.  0.
<mgrwt>
<rscale>  0 0.12499785E+03</rscale>
<asrwt>0</asrwt>
<pdfrwt beam="1">  1        4 0.24619005E-02 0.12499785E+03</pdfrwt>
<pdfrwt beam="2">  1       -4 0.37553281E-01 0.12499785E+03</pdfrwt>
<totfact> 0.80896083E+03</totfact>
</mgrwt>
</event>
<event>
 5    1  0.3243498E-002  0.1249849E+03  0.7818608E-02  0.1235093E+00
         -4   -1    0    0    0  501 -0.00000000000E+00  0.00000000000E+00  0.17167524131E+02  0.17214435360E+02  0.12700000000E+01 0. -1.
          4   -1    0    0  501    0  0.00000000000E+00 -0.00000000000E+00 -0.22712313155E+03  0.22712668224E+03  0.12700000000E+01 0. -1.
         25    2    1    2    0    0  0.00000000000E+00  0.00000000000E+00 -0.20995560742E+03  0.24434111760E+03  0.12498489774E+03 0.  0.
    9000005    1    3    3    0    0  0.17195802144E+02 -0.15680398271E+02 -0.21834447155E+03  0.21958342096E+03  0.10000000000E+01 0.  0.
    9000005    1    3    3    0    0 -0.17195802144E+02  0.15680398271E+02  0.83888641376E+01  0.24757696639E+02  0.10000000000E+01 0.  0.
<mgrwt>
<rscale>  0 0.12498490E+03</rscale>
<asrwt>0</asrwt>
<pdfrwt beam="2">  1        4 0.34945900E-01 0.12498490E+03</pdfrwt>
<pdfrwt beam="1">  1       -4 0.26450394E-02 0.12498490E+03</pdfrwt>
<totfact> 0.83183048E+03</totfact>
</mgrwt>
</event>
<event>
 5    1  0.3243498E-002  0.1249934E+03  0.7818608E-02  0.1235080E+00
         -4   -1    0    0    0  501 -0.00000000000E+00  0.00000000000E+00  0.55008547527E+02  0.55023206023E+02  0.12700000000E+01 0. -1.
          4   -1    0    0  501    0  0.00000000000E+00 -0.00000000000E+00 -0.70974404245E+02  0.70985765882E+02  0.12700000000E+01 0. -1.
         25    2    1    2    0    0  0.00000000000E+00  0.00000000000E+00 -0.15965856718E+02  0.12600897190E+03  0.12499340951E+03 0.  0.
    9000005    1    3    3    0    0  0.73747118710E+01 -0.61539011481E+02  0.44291034011E-01  0.61987404131E+02  0.10000000000E+01 0.  0.
    9000005    1    3    3    0    0 -0.73747118710E+01  0.61539011481E+02 -0.16010147752E+02  0.64021567774E+02  0.10000000000E+01 0.  0.
<mgrwt>
<rscale>  0 0.12499341E+03</rscale>
<asrwt>0</asrwt>
<pdfrwt beam="2">  1        4 0.10921141E-01 0.12499341E+03</pdfrwt>
<pdfrwt beam="1">  1       -4 0.84648550E-02 0.12499341E+03</pdfrwt>
<totfact> 0.10432312E+04</totfact>
</mgrwt>
</event>
<event>
 5    1  0.3243498E-002  0.1250034E+03  0.7818608E-02  0.1235064E+00
          4   -1    0    0  501    0  0.00000000000E+00  0.00000000000E+00  0.35690607330E+03  0.35690833285E+03  0.12700000000E+01 0.  1.
         -4   -1    0    0    0  501 -0.00000000000E+00 -0.00000000000E+00 -0.10906205733E+02  0.10979900887E+02  0.12700000000E+01 0.  1.
         25    2    1    2    0    0  0.00000000000E+00  0.00000000000E+00  0.34599986756E+03  0.36788823374E+03  0.12500337662E+03 0.  0.
    9000005    1    3    3    0    0  0.45647063665E+02 -0.64940723724E+01  0.48846293693E+02  0.67177286375E+02  0.10000000000E+01 0.  0.
    9000005    1    3    3    0    0 -0.45647063665E+02  0.64940723724E+01  0.29715357387E+03  0.30071094736E+03  0.10000000000E+01 0.  0.
<mgrwt>
<rscale>  0 0.12500338E+03</rscale>
<asrwt>0</asrwt>
<pdfrwt beam="1">  1        4 0.54914461E-01 0.12500338E+03</pdfrwt>
<pdfrwt beam="2">  1       -4 0.16837207E-02 0.12500338E+03</pdfrwt>
<totfact> 0.67795389E+03</totfact>
</mgrwt>
</event>
<event>
 5    1  0.3243498E-002  0.1250016E+03  0.7818608E-02  0.1235067E+00
         -4   -1    0    0    0  501 -0.00000000000E+00  0.00000000000E+00  0.22245351764E+03  0.22245714286E+03  0.12700000000E+01 0.  1.
          4   -1    0    0  501    0  0.00000000000E+00 -0.00000000000E+00 -0.17533560635E+02  0.17579495116E+02  0.12700000000E+01 0.  1.
         25    2    1    2    0    0  0.00000000000E+00  0.00000000000E+00  0.20491995700E+03  0.24003663797E+03  0.12500159516E+03 0.  0.
    9000005    1    3    3    0    0 -0.35510333827E+02 -0.50899647274E+01  0.41981596900E+01  0.36131926245E+02  0.10000000000E+01 0.  0.
    9000005    1    3    3    0    0  0.35510333827E+02  0.50899647274E+01  0.20072179731E+03  0.20390471173E+03  0.10000000000E+01 0.  0.
<mgrwt>
<rscale>  0 0.12500160E+03</rscale>
<asrwt>0</asrwt>
<pdfrwt beam="2">  1        4 0.27012833E-02 0.12500160E+03</pdfrwt>
<pdfrwt beam="1">  1       -4 0.34227428E-01 0.12500160E+03</pdfrwt>
<totfact> 0.83788932E+03</totfact>
</mgrwt>
</event>
<event>
 5    1  0.3243498E-002  0.1249993E+03  0.7818608E-02  0.1235070E+00
         -4   -1    0    0    0  501 -0.00000000000E+00  0.00000000000E+00  0.56954519628E+02  0.56968677412E+02  0.12700000000E+01 0. -1.
          4   -1    0    0  501    0  0.00000000000E+00 -0.00000000000E+00 -0.68556057784E+02  0.68567820141E+02  0.12700000000E+01 0. -1.
         25    2    1    2    0    0  0.00000000000E+00  0.00000000000E+00 -0.11601538156E+02  0.12553649755E+03  0.12499926612E+03 0.  0.
    9000005    1    3    3    0    0  0.30415611673E+02  0.36631057454E+02 -0.46450156186E+02  0.66524888676E+02  0.10000000000E+01 0.  0.
    9000005    1    3    3    0    0 -0.30415611673E+02 -0.36631057454E+02  0.34848618030E+02  0.59011608877E+02  0.10000000000E+01 0.  0.
<mgrwt>
<rscale>  0 0.12499927E+03</rscale>
<asrwt>0</asrwt>
<pdfrwt beam="2">  1        4 0.10549080E-01 0.12499927E+03</pdfrwt>
<pdfrwt beam="1">  1       -4 0.87642276E-02 0.12499927E+03</pdfrwt>
<totfact> 0.10441321E+04</totfact>
</mgrwt>
</event>
<event>
 5    1  0.3243498E-002  0.1249803E+03  0.7818608E-02  0.1235100E+00
         -4   -1    0    0    0  501 -0.00000000000E+00  0.00000000000E+00  0.38128472760E+02  0.38149617757E+02  0.12700000000E+01 0. -1.
          4   -1    0    0  501    0  0.00000000000E+00 -0.00000000000E+00 -0.10236394118E+03  0.10237181914E+03  0.12700000000E+01 0. -1.
         25    2    1    2    0    0  0.00000000000E+00  0.00000000000E+00 -0.64235468425E+02  0.14052143690E+03  0.12498031375E+03 0.  0.
    9000005    1    3    3    0    0  0.50501747224E+02  0.93616707823E+01 -0.72122308365E+02  0.88547697409E+02  0.10000000000E+01 0.  0.
    9000005    1    3    3    0    0 -0.50501747224E+02 -0.93616707823E+01  0.78868399405E+01  0.51973739492E+02  0.10000000000E+01 0.  0.
<mgrwt>
<rscale>  0 0.12498031E+03</rscale>
<asrwt>0</asrwt>
<pdfrwt beam="2">  1        4 0.15750531E-01 0.12498031E+03</pdfrwt>
<pdfrwt beam="1">  1       -4 0.58681515E-02 0.12498031E+03</pdfrwt>
<totfact> 0.10127281E+04</totfact>
</mgrwt>
</event>
<event>
 5    1  0.3243498E-002  0.1249980E+03  0.7818608E-02  0.1235072E+00
         -4   -1    0    0    0  501 -0.00000000000E+00  0.00000000000E+00  0.80262440381E+02  0.80272487416E+02  0.12700000000E+01 0.  1.
          4   -1    0    0  501    0  0.00000000000E+00 -0.00000000000E+00 -0.48645553740E+02  0.48662128998E+02  0.12700000000E+01 0.  1.
         25    2    1    2    0    0  0.00000000000E+00  0.00000000000E+00  0.31616886641E+02  0.12893461641E+03  0.12499803114E+03 0.  0.
    9000005    1    3    3    0    0 -0.69249133826E+01  0.28942569601E+02 -0.40872085112E+02  0.50568311242E+02  0.10000000000E+01 0.  0.
    9000005    1    3    3    0    0  0.69249133826E+01 -0.28942569601E+02  0.72488971753E+02  0.78366305172E+02  0.10000000000E+01 0.  0.
<mgrwt>
<rscale>  0 0.12499803E+03</rscale>
<asrwt>0</asrwt>
<pdfrwt beam="2">  1        4 0.74859793E-02 0.12499803E+03</pdfrwt>
<pdfrwt beam="1">  1       -4 0.12350115E-01 0.12499803E+03</pdfrwt>
<totfact> 0.10367813E+04</totfact>
</mgrwt>
</event>
<event>
 5    1  0.3243498E-002  0.1249973E+03  0.7818608E-02  0.1235074E+00
         -4   -1    0    0    0  501 -0.00000000000E+00  0.00000000000E+00  0.72404020081E+02  0.72415157419E+02  0.12700000000E+01 0.  1.
          4   -1    0    0  501    0  0.00000000000E+00 -0.00000000000E+00 -0.53925614978E+02  0.53940567764E+02  0.12700000000E+01 0.  1.
         25    2    1    2    0    0  0.00000000000E+00  0.00000000000E+00  0.18478405104E+02  0.12635572518E+03  0.12499727130E+03 0.  0.
    9000005    1    3    3    0    0 -0.18939587417E+02  0.59542319952E+02  0.81869182435E+01  0.63023975336E+02  0.10000000000E+01 0.  0.
    9000005    1    3    3    0    0  0.18939587417E+02 -0.59542319952E+02  0.10291486860E+02  0.63331749847E+02  0.10000000000E+01 0.  0.
<mgrwt>
<rscale>  0 0.12499727E+03</rscale>
<asrwt>0</asrwt>
<pdfrwt beam="2">  1        4 0.82982554E-02 0.12499727E+03</pdfrwt>
<pdfrwt beam="1">  1       -4 0.11141087E-01 0.12499727E+03</pdfrwt>
<totfact> 0.10423818E+04</totfact>
</mgrwt>
</event>
<event>
 5    1  0.3243498E-002  0.1249990E+03  0.7818608E-02  0.1235071E+00
          4   -1    0    0  501    0  0.00000000000E+00  0.00000000000E+00  0.12869382205E+02  0.12931894615E+02  0.12700000000E+01 0. -1.
         -4   -1    0    0    0  501 -0.00000000000E+00 -0.00000000000E+00 -0.30272617920E+03  0.30272884315E+03  0.12700000000E+01 0. -1.
         25    2    1    2    0    0  0.00000000000E+00  0.00000000000E+00 -0.28985679700E+03  0.31566073777E+03  0.12499895440E+03 0.  0.
    9000005    1    3    3    0    0 -0.33001945105E+02  0.51404699273E+02 -0.17820243667E+03  0.18838439405E+03  0.10000000000E+01 0.  0.
    9000005    1    3    3    0    0  0.33001945105E+02 -0.51404699273E+02 -0.11165436033E+03  0.12727634371E+03  0.10000000000E+01 0.  0.
<mgrwt>
<rscale>  0 0.12499895E+03</rscale>
<asrwt>0</asrwt>
<pdfrwt beam="1">  1        4 0.19849188E-02 0.12499895E+03</pdfrwt>
<pdfrwt beam="2">  1       -4 0.46578266E-01 0.12499895E+03</pdfrwt>
<totfact> 0.73676923E+03</totfact>
</mgrwt>
</event>
<event>
 5    1  0.3243498E-002  0.1250006E+03  0.7818608E-02  0.1235068E+00
          4   -1    0    0  501    0  0.00000000000E+00  0.00000000000E+00  0.23361401419E+02  0.23395896569E+02  0.12700000000E+01 0.  1.
         -4   -1    0    0    0  501 -0.00000000000E+00 -0.00000000000E+00 -0.16705091873E+03  0.16705574623E+03  0.12700000000E+01 0.  1.
         25    2    1    2    0    0  0.00000000000E+00  0.00000000000E+00 -0.14368951731E+03  0.19045164279E+03  0.12500060344E+03 0.  0.
    9000005    1    3    3    0    0 -0.18454056751E+02 -0.29866398757E+02  0.69233578542E+01  0.35797861239E+02  0.10000000000E+01 0.  0.
    9000005    1    3    3    0    0  0.18454056751E+02  0.29866398757E+02 -0.15061287516E+03  0.15465378156E+03  0.10000000000E+01 0.  0.
<mgrwt>
<rscale>  0 0.12500060E+03</rscale>
<asrwt>0</asrwt>
<pdfrwt beam="1">  1        4 0.35970867E-02 0.12500060E+03</pdfrwt>
<pdfrwt beam="2">  1       -4 0.25703165E-01 0.12500060E+03</pdfrwt>
<totfact> 0.91767550E+03</totfact>
</mgrwt>
</event>
<event>
 5    1  0.3243498E-002  0.1249997E+03  0.7818608E-02  0.1235070E+00
         -4   -1    0    0    0  501 -0.00000000000E+00  0.00000000000E+00  0.34648814938E+03  0.34649047687E+03  0.12700000000E+01 0. -1.
          4   -1    0    0  501    0  0.00000000000E+00 -0.00000000000E+00 -0.11235649611E+02  0.11307197804E+02  0.12700000000E+01 0. -1.
         25    2    1    2    0    0  0.00000000000E+00  0.00000000000E+00  0.33525249977E+03  0.35779767467E+03  0.12499974960E+03 0.  0.
    9000005    1    3    3    0    0  0.36374453566E+02  0.38184728754E+02  0.71658986347E+02  0.88978563186E+02  0.10000000000E+01 0.  0.
    9000005    1    3    3    0    0 -0.36374453566E+02 -0.38184728754E+02  0.26359351342E+03  0.26881911149E+03  0.10000000000E+01 0.  0.
<mgrwt>
<rscale>  0 0.12499975E+03</rscale>
<asrwt>0</asrwt>
<pdfrwt beam="2">  1        4 0.17342442E-02 0.12499975E+03</pdfrwt>
<pdfrwt beam="1">  1       -4 0.53311552E-01 0.12499975E+03</pdfrwt>
<totfact> 0.68875530E+03</totfact>
</mgrwt>
</event>
<event>
 5    1  0.3243498E-002  0.1250003E+03  0.7818608E-02  0.1235069E+00
         -4   -1    0    0    0  501 -0.00000000000E+00  0.00000000000E+00  0.42855310461E+02  0.42874124302E+02  0.12700000000E+01 0. -1.
          4   -1    0    0  501    0  0.00000000000E+00 -0.00000000000E+00 -0.91106954367E+02  0.91115805621E+02  0.12700000000E+01 0. -1.
         25    2    1    2    0    0  0.00000000000E+00  0.00000000000E+00 -0.48251643906E+02  0.13398992992E+03  0.12500032072E+03 0.  0.
    9000005    1    3    3    0    0  0.26357949434E+02  0.37149277842E+02  0.21734924460E+02  0.50479870085E+02  0.10000000000E+01 0.  0.
    9000005    1    3    3    0    0 -0.26357949434E+02 -0.37149277842E+02 -0.69986568366E+02  0.83510059838E+02  0.10000000000E+01 0.  0.
<mgrwt>
<rscale>  0 0.12500032E+03</rscale>
<asrwt>0</asrwt>
<pdfrwt beam="2">  1        4 0.14018583E-01 0.12500032E+03</pdfrwt>
<pdfrwt beam="1">  1       -4 0.65952528E-02 0.12500032E+03</pdfrwt>
<totfact> 0.10259330E+04</totfact>
</mgrwt>
</event>
<event>
 5    1  0.3243498E-002  0.1250028E+03  0.7818608E-02  0.1235065E+00
          4   -1    0    0  501    0  0.00000000000E+00  0.00000000000E+00  0.68868076938E+02  0.68879786013E+02  0.12700000000E+01 0.  1.
         -4   -1    0    0    0  501 -0.00000000000E+00 -0.00000000000E+00 -0.56699695705E+02  0.56713917101E+02  0.12700000000E+01 0.  1.
         25    2    1    2    0    0  0.00000000000E+00  0.00000000000E+00  0.12168381234E+02  0.12559370311E+03  0.12500283501E+03 0.  0.
    9000005    1    3    3    0    0  0.42928455079E+02  0.29047338387E+02  0.41160916444E+02  0.66195325857E+02  0.10000000000E+01 0.  0.
    9000005    1    3    3    0    0 -0.42928455079E+02 -0.29047338387E+02 -0.28992535211E+02  0.59398377257E+02  0.10000000000E+01 0.  0.
<mgrwt>
<rscale>  0 0.12500284E+03</rscale>
<asrwt>0</asrwt>
<pdfrwt beam="1">  1        4 0.10597083E-01 0.12500284E+03</pdfrwt>
<pdfrwt beam="2">  1       -4 0.87250247E-02 0.12500284E+03</pdfrwt>
<totfact> 0.10439218E+04</totfact>
</mgrwt>
</event>
<event>
 5    1  0.3243498E-002  0.1250028E+03  0.7818608E-02  0.1235065E+00
          4   -1    0    0  501    0  0.00000000000E+00  0.00000000000E+00  0.29353043012E+03  0.29353317752E+03  0.12700000000E+01 0.  1.
         -4   -1    0    0    0  501 -0.00000000000E+00 -0.00000000000E+00 -0.13275295976E+02  0.13335905791E+02  0.12700000000E+01 0.  1.
         25    2    1    2    0    0  0.00000000000E+00  0.00000000000E+00  0.28025513414E+03  0.30686908331E+03  0.12500277629E+03 0.  0.
    9000005    1    3    3    0    0 -0.49590273073E+02 -0.31957009424E+00  0.46772783545E+02  0.68176173177E+02  0.10000000000E+01 0.  0.
    9000005    1    3    3    0    0  0.49590273073E+02  0.31957009424E+00  0.23348235060E+03  0.23869291014E+03  0.10000000000E+01 0.  0.
<mgrwt>
<rscale>  0 0.12500278E+03</rscale>
<asrwt>0</asrwt>
<pdfrwt beam="1">  1        4 0.45163399E-01 0.12500278E+03</pdfrwt>
<pdfrwt beam="2">  1       -4 0.20472269E-02 0.12500278E+03</pdfrwt>
<totfact> 0.74740589E+03</totfact>
</mgrwt>
</event>
<event>
 5    1  0.3243498E-002  0.1249976E+03  0.7818608E-02  0.1235073E+00
          4   -1    0    0  501    0  0.00000000000E+00  0.00000000000E+00  0.68575426989E+03  0.68575544590E+03  0.12700000000E+01 0. -1.
         -4   -1    0    0    0  501 -0.00000000000E+00 -0.00000000000E+00 -0.56240778558E+01  0.57656874462E+01  0.12700000000E+01 0. -1.
         25    2    1    2    0    0  0.00000000000E+00  0.00000000000E+00  0.68013019204E+03  0.69152113334E+03  0.12499759893E+03 0.  0.
    9000005    1    3    3    0    0 -0.17844061908E+02  0.13527198077E+02  0.17305102583E+02  0.28317171621E+02  0.10000000000E+01 0.  0.
    9000005    1    3    3    0    0  0.17844061908E+02 -0.13527198077E+02  0.66282508945E+03  0.66320396172E+03  0.10000000000E+01 0.  0.
<mgrwt>
<rscale>  0 0.12499760E+03</rscale>
<asrwt>0</asrwt>
<pdfrwt beam="1">  1        4 0.10551167E+00 0.12499760E+03</pdfrwt>
<pdfrwt beam="2">  1       -4 0.87622603E-03 0.12499760E+03</pdfrwt>
<totfact> 0.43540350E+03</totfact>
</mgrwt>
</event>
<event>
 5    1  0.3243498E-002  0.1249845E+03  0.7818608E-02  0.1235093E+00
          4   -1    0    0  501    0  0.00000000000E+00  0.00000000000E+00  0.17944288548E+02  0.17989174286E+02  0.12700000000E+01 0. -1.
         -4   -1    0    0    0  501 -0.00000000000E+00 -0.00000000000E+00 -0.21731520796E+03  0.21731891890E+03  0.12700000000E+01 0. -1.
         25    2    1    2    0    0  0.00000000000E+00  0.00000000000E+00 -0.19937091942E+03  0.23530809319E+03  0.12498453989E+03 0.  0.
    9000005    1    3    3    0    0 -0.42401078537E+02  0.44211533374E+02 -0.76491369642E+02  0.98002248821E+02  0.10000000000E+01 0.  0.
    9000005    1    3    3    0    0  0.42401078537E+02 -0.44211533374E+02 -0.12287954977E+03  0.13730584437E+03  0.10000000000E+01 0.  0.
<mgrwt>
<rscale>  0 0.12498454E+03</rscale>
<asrwt>0</asrwt>
<pdfrwt beam="1">  1        4 0.27643981E-02 0.12498454E+03</pdfrwt>
<pdfrwt beam="2">  1       -4 0.33436845E-01 0.12498454E+03</pdfrwt>
<totfact> 0.84530286E+03</totfact>
</mgrwt>
</event>
<event>
 5    1  0.3243498E-002  0.1250093E+03  0.7818608E-02  0.1235055E+00
          4   -1    0    0  501    0  0.00000000000E+00  0.00000000000E+00  0.91990541853E+02  0.91999308097E+02  0.12700000000E+01 0.  1.
         -4   -1    0    0    0  501 -0.00000000000E+00 -0.00000000000E+00 -0.42449666476E+02  0.42468660020E+02  0.12700000000E+01 0.  1.
         25    2    1    2    0    0  0.00000000000E+00  0.00000000000E+00  0.49540875377E+02  0.13446796812E+03  0.12500934412E+03 0.  0.
    9000005    1    3    3    0    0 -0.55139887036E+02  0.23829507439E+02  0.62146539416E+01  0.60397636466E+02  0.10000000000E+01 0.  0.
    9000005    1    3    3    0    0  0.55139887036E+02 -0.23829507439E+02  0.43326221435E+02  0.74070331651E+02  0.10000000000E+01 0.  0.
<mgrwt>
<rscale>  0 0.12500934E+03</rscale>
<asrwt>0</asrwt>
<pdfrwt beam="1">  1        4 0.14154526E-01 0.12500934E+03</pdfrwt>
<pdfrwt beam="2">  1       -4 0.65328534E-02 0.12500934E+03</pdfrwt>
<totfact> 0.10247137E+04</totfact>
</mgrwt>
</event>
<event>
 5    1  0.3243498E-002  0.1250039E+03  0.7818608E-02  0.1235063E+00
          4   -1    0    0  501    0  0.00000000000E+00  0.00000000000E+00  0.25046126878E+02  0.25078304798E+02  0.12700000000E+01 0. -1.
         -4   -1    0    0    0  501 -0.00000000000E+00 -0.00000000000E+00 -0.15583701478E+03  0.15584218966E+03  0.12700000000E+01 0. -1.
         25    2    1    2    0    0  0.00000000000E+00  0.00000000000E+00 -0.13079088791E+03  0.18092049445E+03  0.12500387576E+03 0.  0.
    9000005    1    3    3    0    0 -0.74875420560E+00 -0.60501841923E+02 -0.88024532545E+02  0.10681924845E+03  0.10000000000E+01 0.  0.
    9000005    1    3    3    0    0  0.74875420560E+00  0.60501841923E+02 -0.42766355361E+02  0.74101246007E+02  0.10000000000E+01 0.  0.
<mgrwt>
<rscale>  0 0.12500388E+03</rscale>
<asrwt>0</asrwt>
<pdfrwt beam="1">  1        4 0.38561237E-02 0.12500388E+03</pdfrwt>
<pdfrwt beam="2">  1       -4 0.23977798E-01 0.12500388E+03</pdfrwt>
<totfact> 0.93443453E+03</totfact>
</mgrwt>
</event>
<event>
 5    1  0.3243498E-002  0.1249988E+03  0.7818608E-02  0.1235071E+00
         -4   -1    0    0    0  501 -0.00000000000E+00  0.00000000000E+00  0.99149071801E+02  0.99157205180E+02  0.12700000000E+01 0. -1.
          4   -1    0    0  501    0  0.00000000000E+00 -0.00000000000E+00 -0.39377003170E+02  0.39397478075E+02  0.12700000000E+01 0. -1.
         25    2    1    2    0    0  0.00000000000E+00  0.00000000000E+00  0.59772068631E+02  0.13855468325E+03  0.12499880025E+03 0.  0.
    9000005    1    3    3    0    0 -0.75530670805E+01 -0.28899303038E+02  0.90729198873E+02  0.95524897627E+02  0.10000000000E+01 0.  0.
    9000005    1    3    3    0    0  0.75530670805E+01  0.28899303038E+02 -0.30957130242E+02  0.43029785628E+02  0.10000000000E+01 0.  0.
<mgrwt>
<rscale>  0 0.12499880E+03</rscale>
<asrwt>0</asrwt>
<pdfrwt beam="2">  1        4 0.60602012E-02 0.12499880E+03</pdfrwt>
<pdfrwt beam="1">  1       -4 0.15255904E-01 0.12499880E+03</pdfrwt>
<totfact> 0.10163904E+04</totfact>
</mgrwt>
</event>
<event>
 5    1  0.3243498E-002  0.1250071E+03  0.7818608E-02  0.1235058E+00
          4   -1    0    0  501    0  0.00000000000E+00  0.00000000000E+00  0.28893354038E+02  0.28921251833E+02  0.12700000000E+01 0.  1.
         -4   -1    0    0    0  501 -0.00000000000E+00 -0.00000000000E+00 -0.13511464527E+03  0.13512061377E+03  0.12700000000E+01 0.  1.
         25    2    1    2    0    0  0.00000000000E+00  0.00000000000E+00 -0.10622129123E+03  0.16404186561E+03  0.12500708364E+03 0.  0.
    9000005    1    3    3    0    0  0.22043901497E+02 -0.29625999336E+02  0.13052008087E+02  0.39178927308E+02  0.10000000000E+01 0.  0.
    9000005    1    3    3    0    0 -0.22043901497E+02  0.29625999336E+02 -0.11927329932E+03  0.12486293830E+03  0.10000000000E+01 0.  0.
<mgrwt>
<rscale>  0 0.12500708E+03</rscale>
<asrwt>0</asrwt>
<pdfrwt beam="1">  1        4 0.44477366E-02 0.12500708E+03</pdfrwt>
<pdfrwt beam="2">  1       -4 0.20789473E-01 0.12500708E+03</pdfrwt>
<totfact> 0.96553789E+03</totfact>
</mgrwt>
</event>
<event>
 5    1  0.3243498E-002  0.1250026E+03  0.7818608E-02  0.1235065E+00
          4   -1    0    0  501    0  0.00000000000E+00  0.00000000000E+00  0.11221079250E+03  0.11221797919E+03  0.12700000000E+01 0. -1.
         -4   -1    0    0    0  501 -0.00000000000E+00 -0.00000000000E+00 -0.34793293506E+02  0.34816464109E+02  0.12700000000E+01 0. -1.
         25    2    1    2    0    0  0.00000000000E+00  0.00000000000E+00  0.77417498993E+02  0.14703444330E+03  0.12500263343E+03 0.  0.
    9000005    1    3    3    0    0  0.39717132291E+02 -0.45353768563E+02  0.58072269169E+02  0.83712623700E+02  0.10000000000E+01 0.  0.
    9000005    1    3    3    0    0 -0.39717132291E+02  0.45353768563E+02  0.19345229824E+02  0.63321819598E+02  0.10000000000E+01 0.  0.
<mgrwt>
<rscale>  0 0.12500263E+03</rscale>
<asrwt>0</asrwt>
<pdfrwt beam="1">  1        4 0.17265534E-01 0.12500263E+03</pdfrwt>
<pdfrwt beam="2">  1       -4 0.53551497E-02 0.12500263E+03</pdfrwt>
<totfact> 0.99892234E+03</totfact>
</mgrwt>
</event>
<event>
 5    1  0.3243498E-002  0.1250442E+03  0.7818608E-02  0.1235000E+00
          4   -1    0    0  501    0  0.00000000000E+00  0.00000000000E+00  0.37828908828E+02  0.37850221177E+02  0.12700000000E+01 0. -1.
         -4   -1    0    0    0  501 -0.00000000000E+00 -0.00000000000E+00 -0.10327973895E+03  0.10328754706E+03  0.12700000000E+01 0. -1.
         25    2    1    2    0    0  0.00000000000E+00  0.00000000000E+00 -0.65450830120E+02  0.14113776823E+03  0.12504422601E+03 0.  0.
    9000005    1    3    3    0    0  0.21946644186E+02 -0.42441237140E+02  0.12775460836E+02  0.49468436407E+02  0.10000000000E+01 0.  0.
    9000005    1    3    3    0    0 -0.21946644186E+02  0.42441237140E+02 -0.78226290956E+02  0.91669331827E+02  0.10000000000E+01 0.  0.
<mgrwt>
<rscale>  0 0.12504423E+03</rscale>
<asrwt>0</asrwt>
<pdfrwt beam="1">  1        4 0.58220722E-02 0.12504423E+03</pdfrwt>
<pdfrwt beam="2">  1       -4 0.15891431E-01 0.12504423E+03</pdfrwt>
<totfact> 0.10099993E+04</totfact>
</mgrwt>
</event>
<event>
 5    1  0.3243498E-002  0.1249975E+03  0.7818608E-02  0.1235073E+00
          4   -1    0    0  501    0  0.00000000000E+00  0.00000000000E+00  0.22561221540E+03  0.22561578987E+03  0.12700000000E+01 0.  1.
         -4   -1    0    0    0  501 -0.00000000000E+00 -0.00000000000E+00 -0.17286308312E+02  0.17332898058E+02  0.12700000000E+01 0.  1.
         25    2    1    2    0    0  0.00000000000E+00  0.00000000000E+00  0.20832590709E+03  0.24294868793E+03  0.12499752558E+03 0.  0.
    9000005    1    3    3    0    0  0.86532704044E+00 -0.42375248757E+02  0.19341516407E+03  0.19800716197E+03  0.10000000000E+01 0.  0.
    9000005    1    3    3    0    0 -0.86532704044E+00  0.42375248757E+02  0.14910743018E+02  0.44941525959E+02  0.10000000000E+01 0.  0.
<mgrwt>
<rscale>  0 0.12499753E+03</rscale>
<asrwt>0</asrwt>
<pdfrwt beam="1">  1        4 0.34713429E-01 0.12499753E+03</pdfrwt>
<pdfrwt beam="2">  1       -4 0.26632909E-02 0.12499753E+03</pdfrwt>
<totfact> 0.83364761E+03</totfact>
</mgrwt>
</event>
<event>
 5    1  0.3243498E-002  0.1250009E+03  0.7818608E-02  0.1235068E+00
          4   -1    0    0  501    0  0.00000000000E+00  0.00000000000E+00  0.46173274057E+02  0.46190736486E+02  0.12700000000E+01 0.  1.
         -4   -1    0    0    0  501 -0.00000000000E+00 -0.00000000000E+00 -0.84562742613E+02  0.84572278781E+02  0.12700000000E+01 0.  1.
         25    2    1    2    0    0  0.00000000000E+00  0.00000000000E+00 -0.38389468557E+02  0.13076301527E+03  0.12500085946E+03 0.  0.
    9000005    1    3    3    0    0 -0.40280289962E+02  0.28910796718E+02  0.20597778025E+02  0.53699202842E+02  0.10000000000E+01 0.  0.
    9000005    1    3    3    0    0  0.40280289962E+02 -0.28910796718E+02 -0.58987246582E+02  0.77063812426E+02  0.10000000000E+01 0.  0.
<mgrwt>
<rscale>  0 0.12500086E+03</rscale>
<asrwt>0</asrwt>
<pdfrwt beam="1">  1        4 0.71056575E-02 0.12500086E+03</pdfrwt>
<pdfrwt beam="2">  1       -4 0.13011729E-01 0.12500086E+03</pdfrwt>
<totfact> 0.10327972E+04</totfact>
</mgrwt>
</event>
<event>
 5    1  0.3243498E-002  0.1250008E+03  0.7818608E-02  0.1235068E+00
          4   -1    0    0  501    0  0.00000000000E+00  0.00000000000E+00  0.21194634471E+03  0.21195014965E+03  0.12700000000E+01 0. -1.
         -4   -1    0    0    0  501 -0.00000000000E+00 -0.00000000000E+00 -0.18404752278E+02  0.18448517729E+02  0.12700000000E+01 0. -1.
         25    2    1    2    0    0  0.00000000000E+00  0.00000000000E+00  0.19354159243E+03  0.23039866738E+03  0.12500079171E+03 0.  0.
    9000005    1    3    3    0    0  0.27313660682E+02  0.24755590517E+01  0.20027035151E+03  0.20214197522E+03  0.10000000000E+01 0.  0.
    9000005    1    3    3    0    0 -0.27313660682E+02 -0.24755590517E+01 -0.67287590836E+01  0.28256692150E+02  0.10000000000E+01 0.  0.
<mgrwt>
<rscale>  0 0.12500079E+03</rscale>
<asrwt>0</asrwt>
<pdfrwt beam="1">  1        4 0.32610790E-01 0.12500079E+03</pdfrwt>
<pdfrwt beam="2">  1       -4 0.28351595E-02 0.12500079E+03</pdfrwt>
<totfact> 0.85246911E+03</totfact>
</mgrwt>
</event>
<event>
 5    1  0.3243498E-002  0.1249988E+03  0.7818608E-02  0.1235071E+00
          4   -1    0    0  501    0  0.00000000000E+00  0.00000000000E+00  0.54225926529E+02  0.54240796528E+02  0.12700000000E+01 0. -1.
         -4   -1    0    0    0  501 -0.00000000000E+00 -0.00000000000E+00 -0.72004864962E+02  0.72016064028E+02  0.12700000000E+01 0. -1.
         25    2    1    2    0    0  0.00000000000E+00  0.00000000000E+00 -0.17778938432E+02  0.12625686056E+03  0.12499881674E+03 0.  0.
    9000005    1    3    3    0    0 -0.30571107009E+02  0.54482354903E+02 -0.10406741657E+02  0.63342085942E+02  0.10000000000E+01 0.  0.
    9000005    1    3    3    0    0  0.30571107009E+02 -0.54482354903E+02 -0.73721967755E+01  0.62914774615E+02  0.10000000000E+01 0.  0.
<mgrwt>
<rscale>  0 0.12499882E+03</rscale>
<asrwt>0</asrwt>
<pdfrwt beam="1">  1        4 0.83444555E-02 0.12499882E+03</pdfrwt>
<pdfrwt beam="2">  1       -4 0.11079677E-01 0.12499882E+03</pdfrwt>
<totfact> 0.10425614E+04</totfact>
</mgrwt>
</event>
<event>
 5    1  0.3243498E-002  0.1250037E+03  0.7818608E-02  0.1235064E+00
          4   -1    0    0  501    0  0.00000000000E+00  0.00000000000E+00  0.11785576280E+02  0.11853805644E+02  0.12700000000E+01 0. -1.
         -4   -1    0    0    0  501 -0.00000000000E+00 -0.00000000000E+00 -0.33043652686E+03  0.33043896741E+03  0.12700000000E+01 0. -1.
         25    2    1    2    0    0  0.00000000000E+00  0.00000000000E+00 -0.31865095058E+03  0.34229277306E+03  0.12500365667E+03 0.  0.
    9000005    1    3    3    0    0 -0.31572887481E+02  0.10413566602E+02 -0.30422557400E+03  0.30603837908E+03  0.10000000000E+01 0.  0.
    9000005    1    3    3    0    0  0.31572887481E+02 -0.10413566602E+02 -0.14425376583E+02  0.36254393980E+02  0.10000000000E+01 0.  0.
<mgrwt>
<rscale>  0 0.12500366E+03</rscale>
<asrwt>0</asrwt>
<pdfrwt beam="1">  1        4 0.18186020E-02 0.12500366E+03</pdfrwt>
<pdfrwt beam="2">  1       -4 0.50841818E-01 0.12500366E+03</pdfrwt>
<totfact> 0.70575140E+03</totfact>
</mgrwt>
</event>
<event>
 4    1  0.3243498E-002  0.1255077E+03  0.7818608E-02  0.1234278E+00
          4   -1    0    0  501    0  0.00000000000E+00  0.00000000000E+00  0.12975595400E+03  0.12976216898E+03  0.12700000000E+01 0.  1.
         -4   -1    0    0    0  501 -0.00000000000E+00 -0.00000000000E+00 -0.30329412928E+02  0.30355990983E+02  0.12700000000E+01 0.  1.
    9000005    1    1    2    0    0 -0.23434263018E+02 -0.38865249731E+02 -0.55638773519E+01  0.45734331208E+02  0.10000000000E+01 0.  0.
    9000005    1    1    2    0    0  0.23434263018E+02  0.38865249731E+02  0.10499041842E+03  0.11438382876E+03  0.10000000000E+01 0.  0.
<mgrwt>
<rscale>  0 0.12550772E+03</rscale>
<asrwt>0</asrwt>
<pdfrwt beam="1">  1        4 0.19964977E-01 0.12550772E+03</pdfrwt>
<pdfrwt beam="2">  1       -4 0.46685861E-02 0.12550772E+03</pdfrwt>
<totfact> 0.96217662E+03</totfact>
</mgrwt>
</event>
<event>
 5    1  0.3243498E-002  0.1250006E+03  0.7818608E-02  0.1235068E+00
         -4   -1    0    0    0  501 -0.00000000000E+00  0.00000000000E+00  0.17819301876E+03  0.17819754442E+03  0.12700000000E+01 0.  1.
          4   -1    0    0  501    0  0.00000000000E+00 -0.00000000000E+00 -0.21898469651E+02  0.21935265511E+02  0.12700000000E+01 0.  1.
         25    2    1    2    0    0  0.00000000000E+00  0.00000000000E+00  0.15629454911E+03  0.20013280993E+03  0.12500062211E+03 0.  0.
    9000005    1    3    3    0    0 -0.43634492988E+02 -0.79351342645E+01  0.76580690908E+01  0.45017567197E+02  0.10000000000E+01 0.  0.
    9000005    1    3    3    0    0  0.43634492988E+02  0.79351342645E+01  0.14863648002E+03  0.15511524273E+03  0.10000000000E+01 0.  0.
<mgrwt>
<rscale>  0 0.12500062E+03</rscale>
<asrwt>0</asrwt>
<pdfrwt beam="2">  1        4 0.33721740E-02 0.12500062E+03</pdfrwt>
<pdfrwt beam="1">  1       -4 0.27417489E-01 0.12500062E+03</pdfrwt>
<totfact> 0.90111857E+03</totfact>
</mgrwt>
</event>
<event>
 5    1  0.3243498E-002  0.1250002E+03  0.7818608E-02  0.1235069E+00
          4   -1    0    0  501    0  0.00000000000E+00  0.00000000000E+00  0.11111713857E+02  0.11184054938E+02  0.12700000000E+01 0.  1.
         -4   -1    0    0    0  501 -0.00000000000E+00 -0.00000000000E+00 -0.35033060400E+03  0.35033290596E+03  0.12700000000E+01 0.  1.
         25    2    1    2    0    0  0.00000000000E+00  0.00000000000E+00 -0.33921889015E+03  0.36151696090E+03  0.12500023035E+03 0.  0.
    9000005    1    3    3    0    0  0.30671623366E+02  0.36508768467E+02 -0.52786503253E+02  0.71141082228E+02  0.10000000000E+01 0.  0.
    9000005    1    3    3    0    0 -0.30671623366E+02 -0.36508768467E+02 -0.28643238689E+03  0.29037587867E+03  0.10000000000E+01 0.  0.
<mgrwt>
<rscale>  0 0.12500023E+03</rscale>
<asrwt>0</asrwt>
<pdfrwt beam="1">  1        4 0.17152365E-02 0.12500023E+03</pdfrwt>
<pdfrwt beam="2">  1       -4 0.53902749E-01 0.12500023E+03</pdfrwt>
<totfact> 0.68475514E+03</totfact>
</mgrwt>
</event>
<event>
 5    1  0.3243498E-002  0.1250007E+03  0.7818608E-02  0.1235068E+00
          4   -1    0    0  501    0  0.00000000000E+00  0.00000000000E+00  0.10882472860E+03  0.10883213888E+03  0.12700000000E+01 0. -1.
         -4   -1    0    0    0  501 -0.00000000000E+00 -0.00000000000E+00 -0.35875394224E+02  0.35897866381E+02  0.12700000000E+01 0. -1.
         25    2    1    2    0    0  0.00000000000E+00  0.00000000000E+00  0.72949334372E+02  0.14473000526E+03  0.12500067615E+03 0.  0.
    9000005    1    3    3    0    0  0.21697873549E+02 -0.28783540341E+02 -0.22631611491E+02  0.42573228087E+02  0.10000000000E+01 0.  0.
    9000005    1    3    3    0    0 -0.21697873549E+02  0.28783540341E+02  0.95580945863E+02  0.10215677718E+03  0.10000000000E+01 0.  0.
<mgrwt>
<rscale>  0 0.12500068E+03</rscale>
<asrwt>0</asrwt>
<pdfrwt beam="1">  1        4 0.16744565E-01 0.12500068E+03</pdfrwt>
<pdfrwt beam="2">  1       -4 0.55215900E-02 0.12500068E+03</pdfrwt>
<totfact> 0.10036324E+04</totfact>
</mgrwt>
</event>
<event>
 5    1  0.3243498E-002  0.1250022E+03  0.7818608E-02  0.1235066E+00
          4   -1    0    0  501    0  0.00000000000E+00  0.00000000000E+00  0.41116599579E+02  0.41136208636E+02  0.12700000000E+01 0. -1.
         -4   -1    0    0    0  501 -0.00000000000E+00 -0.00000000000E+00 -0.94961100776E+02  0.94969592821E+02  0.12700000000E+01 0. -1.
         25    2    1    2    0    0  0.00000000000E+00  0.00000000000E+00 -0.53844501197E+02  0.13610580146E+03  0.12500223550E+03 0.  0.
    9000005    1    3    3    0    0  0.91621752744E+01  0.29613734412E+02  0.32160743820E+02  0.44679214011E+02  0.10000000000E+01 0.  0.
    9000005    1    3    3    0    0 -0.91621752744E+01 -0.29613734412E+02 -0.86005245017E+02  0.91426587446E+02  0.10000000000E+01 0.  0.
<mgrwt>
<rscale>  0 0.12500224E+03</rscale>
<asrwt>0</asrwt>
<pdfrwt beam="1">  1        4 0.63277924E-02 0.12500224E+03</pdfrwt>
<pdfrwt beam="2">  1       -4 0.14611562E-01 0.12500224E+03</pdfrwt>
<totfact> 0.10214301E+04</totfact>
</mgrwt>
</event>
<event>
 5    1  0.3243498E-002  0.1249970E+03  0.7818608E-02  0.1235074E+00
          4   -1    0    0  501    0  0.00000000000E+00  0.00000000000E+00  0.12649486115E+04  0.12649492491E+04  0.12700000000E+01 0.  1.
         -4   -1    0    0    0  501 -0.00000000000E+00 -0.00000000000E+00 -0.29566731585E+01  0.32178900177E+01  0.12700000000E+01 0.  1.
         25    2    1    2    0    0  0.00000000000E+00  0.00000000000E+00  0.12619919384E+04  0.12681671391E+04  0.12499696051E+03 0.  0.
    9000005    1    3    3    0    0 -0.54311206870E+02 -0.62724448947E+01  0.93805860885E+03  0.93965100138E+03  0.10000000000E+01 0.  0.
    9000005    1    3    3    0    0  0.54311206870E+02  0.62724448947E+01  0.32393332951E+03  0.32851613770E+03  0.10000000000E+01 0.  0.
<mgrwt>
<rscale>  0 0.12499696E+03</rscale>
<asrwt>0</asrwt>
<pdfrwt beam="1">  1        4 0.19462781E+00 0.12499696E+03</pdfrwt>
<pdfrwt beam="2">  1       -4 0.47501497E-03 0.12499696E+03</pdfrwt>
<totfact> 0.22994013E+03</totfact>
</mgrwt>
</event>
<event>
 5    1  0.3243498E-002  0.1250046E+03  0.7818608E-02  0.1235062E+00
          4   -1    0    0  501    0  0.00000000000E+00  0.00000000000E+00  0.85653255251E+02  0.85662670021E+02  0.12700000000E+01 0.  1.
         -4   -1    0    0    0  501 -0.00000000000E+00 -0.00000000000E+00 -0.45587961369E+02  0.45605647916E+02  0.12700000000E+01 0.  1.
         25    2    1    2    0    0  0.00000000000E+00  0.00000000000E+00  0.40065293881E+02  0.13126831794E+03  0.12500457400E+03 0.  0.
    9000005    1    3    3    0    0 -0.28394757183E+02 -0.57535112941E+01  0.78180299149E+02  0.83381798390E+02  0.10000000000E+01 0.  0.
    9000005    1    3    3    0    0  0.28394757183E+02  0.57535112941E+01 -0.38115005268E+02  0.47886519546E+02  0.10000000000E+01 0.  0.
<mgrwt>
<rscale>  0 0.12500457E+03</rscale>
<asrwt>0</asrwt>
<pdfrwt beam="1">  1        4 0.13179509E-01 0.12500457E+03</pdfrwt>
<pdfrwt beam="2">  1       -4 0.70156172E-02 0.12500457E+03</pdfrwt>
<totfact> 0.10316276E+04</totfact>
</mgrwt>
</event>
<event>
 5    1  0.3243498E-002  0.1249997E+03  0.7818608E-02  0.1235070E+00
         -4   -1    0    0    0  501 -0.00000000000E+00  0.00000000000E+00  0.96148956890E+02  0.96157344031E+02  0.12700000000E+01 0. -1.
          4   -1    0    0  501    0  0.00000000000E+00 -0.00000000000E+00 -0.40606814486E+02  0.40626669599E+02  0.12700000000E+01 0. -1.
         25    2    1    2    0    0  0.00000000000E+00  0.00000000000E+00  0.55542142404E+02  0.13678401363E+03  0.12499974721E+03 0.  0.
    9000005    1    3    3    0    0  0.22859347091E+02 -0.21344849539E+02  0.86974061291E+02  0.92431811021E+02  0.10000000000E+01 0.  0.
    9000005    1    3    3    0    0 -0.22859347091E+02  0.21344849539E+02 -0.31431918887E+02  0.44352202608E+02  0.10000000000E+01 0.  0.
<mgrwt>
<rscale>  0 0.12499975E+03</rscale>
<asrwt>0</asrwt>
<pdfrwt beam="2">  1        4 0.62493748E-02 0.12499975E+03</pdfrwt>
<pdfrwt beam="1">  1       -4 0.14794319E-01 0.12499975E+03</pdfrwt>
<totfact> 0.10200662E+04</totfact>
</mgrwt>
</event>
<event>
 5    1  0.3243498E-002  0.1249984E+03  0.7818608E-02  0.1235072E+00
         -4   -1    0    0    0  501 -0.00000000000E+00  0.00000000000E+00  0.12375865535E+03  0.12376517149E+03  0.12700000000E+01 0. -1.
          4   -1    0    0  501    0  0.00000000000E+00 -0.00000000000E+00 -0.31542499288E+02  0.31568056027E+02  0.12700000000E+01 0. -1.
         25    2    1    2    0    0  0.00000000000E+00  0.00000000000E+00  0.92216156066E+02  0.15533322752E+03  0.12499836852E+03 0.  0.
    9000005    1    3    3    0    0  0.25074191235E+02  0.56514737097E+02  0.34819663697E+02  0.70965058693E+02  0.10000000000E+01 0.  0.
    9000005    1    3    3    0    0 -0.25074191235E+02 -0.56514737097E+02  0.57396492369E+02  0.84368168829E+02  0.10000000000E+01 0.  0.
<mgrwt>
<rscale>  0 0.12499837E+03</rscale>
<asrwt>0</asrwt>
<pdfrwt beam="2">  1        4 0.48551594E-02 0.12499837E+03</pdfrwt>
<pdfrwt beam="1">  1       -4 0.19042260E-01 0.12499837E+03</pdfrwt>
<totfact> 0.98253727E+03</totfact>
</mgrwt>
</event>
<event>
 5    1  0.3243498E-002  0.1250029E+03  0.7818608E-02  0.1235065E+00
         -4   -1    0    0    0  501 -0.00000000000E+00  0.00000000000E+00  0.10349260255E+02  0.10426892529E+02  0.12700000000E+01 0.  1.
          4   -1    0    0  501    0  0.00000000000E+00 -0.00000000000E+00 -0.37597111466E+03  0.37597325963E+03  0.12700000000E+01 0.  1.
         25    2    1    2    0    0  0.00000000000E+00  0.00000000000E+00 -0.36562185440E+03  0.38640015216E+03  0.12500294865E+03 0.  0.
    9000005    1    3    3    0    0  0.38945023941E+02  0.25002506822E+02 -0.31262337654E+03  0.31603198540E+03  0.10000000000E+01 0.  0.
    9000005    1    3    3    0    0 -0.38945023941E+02 -0.25002506822E+02 -0.52998477863E+02  0.70368166759E+02  0.10000000000E+01 0.  0.
<mgrwt>
<rscale>  0 0.12500295E+03</rscale>
<asrwt>0</asrwt>
<pdfrwt beam="2">  1        4 0.57847836E-01 0.12500295E+03</pdfrwt>
<pdfrwt beam="1">  1       -4 0.15983309E-02 0.12500295E+03</pdfrwt>
<totfact> 0.65893053E+03</totfact>
</mgrwt>
</event>
<event>
 5    1  0.3243498E-002  0.1250445E+03  0.7818608E-02  0.1235000E+00
          4   -1    0    0  501    0  0.00000000000E+00  0.00000000000E+00  0.52771951103E+01  0.54278622156E+01  0.12700000000E+01 0. -1.
         -4   -1    0    0    0  501 -0.00000000000E+00 -0.00000000000E+00 -0.73016351773E+03  0.73016462220E+03  0.12700000000E+01 0. -1.
         25    2    1    2    0    0  0.00000000000E+00  0.00000000000E+00 -0.72488632262E+03  0.73559248442E+03  0.12504448176E+03 0.  0.
    9000005    1    3    3    0    0  0.54949360448E+01  0.48303983212E+02 -0.59363651955E+03  0.59562470269E+03  0.10000000000E+01 0.  0.
    9000005    1    3    3    0    0 -0.54949360448E+01 -0.48303983212E+02 -0.13124980307E+03  0.13996778173E+03  0.10000000000E+01 0.  0.
<mgrwt>
<rscale>  0 0.12504448E+03</rscale>
<asrwt>0</asrwt>
<pdfrwt beam="1">  1        4 0.82355149E-03 0.12504448E+03</pdfrwt>
<pdfrwt beam="2">  1       -4 0.11234444E+00 0.12504448E+03</pdfrwt>
<totfact> 0.41232816E+03</totfact>
</mgrwt>
</event>
<event>
 4    1  0.3243498E-002  0.1124200E+03  0.7818608E-02  0.1256153E+00
          4   -1    0    0  501    0  0.00000000000E+00  0.00000000000E+00  0.55705605374E+02  0.55720080493E+02  0.12700000000E+01 0.  1.
         -4   -1    0    0    0  501 -0.00000000000E+00 -0.00000000000E+00 -0.56689977647E+02  0.56704201481E+02  0.12700000000E+01 0.  1.
    9000005    1    1    2    0    0 -0.77970024522E+01  0.49819038882E+02  0.24324741179E+02  0.55994847225E+02  0.10000000000E+01 0.  0.
    9000005    1    1    2    0    0  0.77970024522E+01 -0.49819038882E+02 -0.25309113452E+02  0.56429434749E+02  0.10000000000E+01 0.  0.
<mgrwt>
<rscale>  0 0.11241997E+03</rscale>
<asrwt>0</asrwt>
<pdfrwt beam="1">  1        4 0.85723008E-02 0.11241997E+03</pdfrwt>
<pdfrwt beam="2">  1       -4 0.87237426E-02 0.11241997E+03</pdfrwt>
<totfact> 0.14463001E+04</totfact>
</mgrwt>
</event>
<event>
 5    1  0.3243498E-002  0.1250005E+03  0.7818608E-02  0.1235068E+00
         -4   -1    0    0    0  501 -0.00000000000E+00  0.00000000000E+00  0.48166807260E+03  0.48166974689E+03  0.12700000000E+01 0. -1.
          4   -1    0    0  501    0  0.00000000000E+00 -0.00000000000E+00 -0.80584852554E+01  0.81579461025E+01  0.12700000000E+01 0. -1.
         25    2    1    2    0    0  0.00000000000E+00  0.00000000000E+00  0.47360958735E+03  0.48982769299E+03  0.12500051036E+03 0.  0.
    9000005    1    3    3    0    0 -0.61676260415E+02  0.93314460601E+01  0.22201502251E+03  0.23061376196E+03  0.10000000000E+01 0.  0.
    9000005    1    3    3    0    0  0.61676260415E+02 -0.93314460601E+01  0.25159456483E+03  0.25921393103E+03  0.10000000000E+01 0.  0.
<mgrwt>
<rscale>  0 0.12500051E+03</rscale>
<asrwt>0</asrwt>
<pdfrwt beam="2">  1        4 0.12475466E-02 0.12500051E+03</pdfrwt>
<pdfrwt beam="1">  1       -4 0.74110558E-01 0.12500051E+03</pdfrwt>
<totfact> 0.56661704E+03</totfact>
</mgrwt>
</event>
<event>
 5    1  0.3243498E-002  0.1249994E+03  0.7818608E-02  0.1235070E+00
         -4   -1    0    0    0  501 -0.00000000000E+00  0.00000000000E+00  0.12793430637E+02  0.12856312359E+02  0.12700000000E+01 0. -1.
          4   -1    0    0  501    0  0.00000000000E+00 -0.00000000000E+00 -0.30451696381E+03  0.30451961209E+03  0.12700000000E+01 0. -1.
         25    2    1    2    0    0  0.00000000000E+00  0.00000000000E+00 -0.29172353317E+03  0.31737592445E+03  0.12499943045E+03 0.  0.
    9000005    1    3    3    0    0 -0.43624860195E+02  0.10175076856E+02 -0.35230624077E+02  0.56998749889E+02  0.10000000000E+01 0.  0.
    9000005    1    3    3    0    0  0.43624860195E+02 -0.10175076856E+02 -0.25649290909E+03  0.26037717456E+03  0.10000000000E+01 0.  0.
<mgrwt>
<rscale>  0 0.12499943E+03</rscale>
<asrwt>0</asrwt>
<pdfrwt beam="2">  1        4 0.46853799E-01 0.12499943E+03</pdfrwt>
<pdfrwt beam="1">  1       -4 0.19732611E-02 0.12499943E+03</pdfrwt>
<totfact> 0.73470245E+03</totfact>
</mgrwt>
</event>
<event>
 5    1  0.3243498E-002  0.1249997E+03  0.7818608E-02  0.1235070E+00
          4   -1    0    0  501    0  0.00000000000E+00  0.00000000000E+00  0.26877557177E+02  0.26907545035E+02  0.12700000000E+01 0. -1.
         -4   -1    0    0    0  501 -0.00000000000E+00 -0.00000000000E+00 -0.14522045272E+03  0.14522600589E+03  0.12700000000E+01 0. -1.
         25    2    1    2    0    0  0.00000000000E+00  0.00000000000E+00 -0.11834289554E+03  0.17213355093E+03  0.12499967372E+03 0.  0.
    9000005    1    3    3    0    0 -0.57105804598E+00 -0.17102106166E+02 -0.14193818890E+03  0.14296942894E+03  0.10000000000E+01 0.  0.
    9000005    1    3    3    0    0  0.57105804598E+00  0.17102106166E+02  0.23595293360E+02  0.29164121988E+02  0.10000000000E+01 0.  0.
<mgrwt>
<rscale>  0 0.12499967E+03</rscale>
<asrwt>0</asrwt>
<pdfrwt beam="1">  1        4 0.41377428E-02 0.12499967E+03</pdfrwt>
<pdfrwt beam="2">  1       -4 0.22344342E-01 0.12499967E+03</pdfrwt>
<totfact> 0.95053157E+03</totfact>
</mgrwt>
</event>
<event>
 5    1  0.3243498E-002  0.1249975E+03  0.7818608E-02  0.1235073E+00
          4   -1    0    0  501    0  0.00000000000E+00  0.00000000000E+00  0.24325384153E+02  0.24358514203E+02  0.12700000000E+01 0.  1.
         -4   -1    0    0    0  501 -0.00000000000E+00 -0.00000000000E+00 -0.16043206113E+03  0.16043708779E+03  0.12700000000E+01 0.  1.
         25    2    1    2    0    0  0.00000000000E+00  0.00000000000E+00 -0.13610667698E+03  0.18479560199E+03  0.12499754797E+03 0.  0.
    9000005    1    3    3    0    0  0.22037518465E+02  0.58269926235E+02 -0.60801635832E+02  0.87056736921E+02  0.10000000000E+01 0.  0.
    9000005    1    3    3    0    0 -0.22037518465E+02 -0.58269926235E+02 -0.75305041143E+02  0.97738865070E+02  0.10000000000E+01 0.  0.
<mgrwt>
<rscale>  0 0.12499755E+03</rscale>
<asrwt>0</asrwt>
<pdfrwt beam="1">  1        4 0.37453020E-02 0.12499755E+03</pdfrwt>
<pdfrwt beam="2">  1       -4 0.24684790E-01 0.12499755E+03</pdfrwt>
<totfact> 0.92765930E+03</totfact>
</mgrwt>
</event>
<event>
 5    1  0.3243498E-002  0.1249891E+03  0.7818608E-02  0.1235086E+00
         -4   -1    0    0    0  501 -0.00000000000E+00  0.00000000000E+00  0.76385149840E+02  0.76395706791E+02  0.12700000000E+01 0.  1.
          4   -1    0    0  501    0  0.00000000000E+00 -0.00000000000E+00 -0.51107957982E+02  0.51123734890E+02  0.12700000000E+01 0.  1.
         25    2    1    2    0    0  0.00000000000E+00  0.00000000000E+00  0.25277191859E+02  0.12751944168E+03  0.12498908584E+03 0.  0.
    9000005    1    3    3    0    0 -0.58798613684E+00 -0.43336603022E+02  0.58562762908E+02  0.72862912984E+02  0.10000000000E+01 0.  0.
    9000005    1    3    3    0    0  0.58798613684E+00  0.43336603022E+02 -0.33285571049E+02  0.54656528697E+02  0.10000000000E+01 0.  0.
<mgrwt>
<rscale>  0 0.12498909E+03</rscale>
<asrwt>0</asrwt>
<pdfrwt beam="2">  1        4 0.78647885E-02 0.12498909E+03</pdfrwt>
<pdfrwt beam="1">  1       -4 0.11753587E-01 0.12498909E+03</pdfrwt>
<totfact> 0.10400442E+04</totfact>
</mgrwt>
</event>
<event>
 5    1  0.3243498E-002  0.1249983E+03  0.7818608E-02  0.1235072E+00
         -4   -1    0    0    0  501 -0.00000000000E+00  0.00000000000E+00  0.27930965673E+03  0.27931254401E+03  0.12700000000E+01 0.  1.
          4   -1    0    0  501    0  0.00000000000E+00 -0.00000000000E+00 -0.13953186367E+02  0.14010863992E+02  0.12700000000E+01 0.  1.
         25    2    1    2    0    0  0.00000000000E+00  0.00000000000E+00  0.26535647036E+03  0.29332340800E+03  0.12499826127E+03 0.  0.
    9000005    1    3    3    0    0 -0.14554874749E+02 -0.23510763306E+02  0.11724128848E+01  0.27694312091E+02  0.10000000000E+01 0.  0.
    9000005    1    3    3    0    0  0.14554874749E+02  0.23510763306E+02  0.26418405748E+03  0.26562909591E+03  0.10000000000E+01 0.  0.
<mgrwt>
<rscale>  0 0.12499826E+03</rscale>
<asrwt>0</asrwt>
<pdfrwt beam="2">  1        4 0.21513030E-02 0.12499826E+03</pdfrwt>
<pdfrwt beam="1">  1       -4 0.42975373E-01 0.12499826E+03</pdfrwt>
<totfact> 0.76446996E+03</totfact>
</mgrwt>
</event>
<event>
 5    1  0.3243498E-002  0.1250000E+03  0.7818608E-02  0.1235069E+00
         -4   -1    0    0    0  501 -0.00000000000E+00  0.00000000000E+00  0.11123965983E+04  0.11123973233E+04  0.12700000000E+01 0.  1.
          4   -1    0    0  501    0  0.00000000000E+00 -0.00000000000E+00 -0.33959852263E+01  0.36256883012E+01  0.12700000000E+01 0.  1.
         25    2    1    2    0    0  0.00000000000E+00  0.00000000000E+00  0.11090006131E+04  0.11160230116E+04  0.12500001020E+03 0.  0.
    9000005    1    3    3    0    0  0.54080493772E+02 -0.30828791888E+02  0.50548757101E+03  0.50930717516E+03  0.10000000000E+01 0.  0.
    9000005    1    3    3    0    0 -0.54080493772E+02  0.30828791888E+02  0.60351304209E+03  0.60671583644E+03  0.10000000000E+01 0.  0.
<mgrwt>
<rscale>  0 0.12500001E+03</rscale>
<asrwt>0</asrwt>
<pdfrwt beam="2">  1        4 0.54018426E-03 0.12500001E+03</pdfrwt>
<pdfrwt beam="1">  1       -4 0.17115574E+00 0.12500001E+03</pdfrwt>
<totfact> 0.27019098E+03</totfact>
</mgrwt>
</event>
<event>
 4    1  0.3243498E-002  0.1249242E+03  0.7818608E-02  0.1235188E+00
         -4   -1    0    0    0  501 -0.00000000000E+00  0.00000000000E+00  0.15518118559E+02  0.15570000116E+02  0.12700000000E+01 0.  1.
          4   -1    0    0  501    0  0.00000000000E+00 -0.00000000000E+00 -0.25094357951E+03  0.25094679316E+03  0.12700000000E+01 0.  1.
    9000005    1    1    2    0    0  0.53596554979E+02 -0.22721715315E+02 -0.16597002342E+03  0.17588608736E+03  0.10000000000E+01 0.  0.
    9000005    1    1    2    0    0 -0.53596554979E+02  0.22721715315E+02 -0.69455437533E+02  0.90630705919E+02  0.10000000000E+01 0.  0.
<mgrwt>
<rscale>  0 0.12492419E+03</rscale>
<asrwt>0</asrwt>
<pdfrwt beam="2">  1        4 0.38610940E-01 0.12492419E+03</pdfrwt>
<pdfrwt beam="1">  1       -4 0.23916411E-02 0.12492419E+03</pdfrwt>
<totfact> 0.80135220E+03</totfact>
</mgrwt>
</event>
<event>
 5    1  0.3243498E-002  0.1249928E+03  0.7818608E-02  0.1235080E+00
          4   -1    0    0  501    0  0.00000000000E+00  0.00000000000E+00  0.55644524340E+02  0.55659015343E+02  0.12700000000E+01 0.  1.
         -4   -1    0    0    0  501 -0.00000000000E+00 -0.00000000000E+00 -0.70162668472E+02  0.70174161534E+02  0.12700000000E+01 0.  1.
         25    2    1    2    0    0  0.00000000000E+00  0.00000000000E+00 -0.14518144132E+02  0.12583317688E+03  0.12499284737E+03 0.  0.
    9000005    1    3    3    0    0  0.20731944940E+02 -0.42838015900E+02 -0.48026927397E+02  0.67620225543E+02  0.10000000000E+01 0.  0.
    9000005    1    3    3    0    0 -0.20731944940E+02  0.42838015900E+02  0.33508783265E+02  0.58212951335E+02  0.10000000000E+01 0.  0.
<mgrwt>
<rscale>  0 0.12499285E+03</rscale>
<asrwt>0</asrwt>
<pdfrwt beam="1">  1        4 0.85626948E-02 0.12499285E+03</pdfrwt>
<pdfrwt beam="2">  1       -4 0.10796255E-01 0.12499285E+03</pdfrwt>
<totfact> 0.10436301E+04</totfact>
</mgrwt>
</event>
<event>
 5    1  0.3243498E-002  0.1250027E+03  0.7818608E-02  0.1235065E+00
          4   -1    0    0  501    0  0.00000000000E+00  0.00000000000E+00  0.22151656614E+02  0.22188032602E+02  0.12700000000E+01 0.  1.
         -4   -1    0    0    0  501 -0.00000000000E+00 -0.00000000000E+00 -0.17616544230E+03  0.17617002004E+03  0.12700000000E+01 0.  1.
         25    2    1    2    0    0  0.00000000000E+00  0.00000000000E+00 -0.15401378568E+03  0.19835805264E+03  0.12500268344E+03 0.  0.
    9000005    1    3    3    0    0  0.40545724615E+02  0.95047127672E+01 -0.30680498028E+01  0.41769705277E+02  0.10000000000E+01 0.  0.
    9000005    1    3    3    0    0 -0.40545724615E+02 -0.95047127672E+01 -0.15094573588E+03  0.15658834736E+03  0.10000000000E+01 0.  0.
<mgrwt>
<rscale>  0 0.12500268E+03</rscale>
<asrwt>0</asrwt>
<pdfrwt beam="1">  1        4 0.34110976E-02 0.12500268E+03</pdfrwt>
<pdfrwt beam="2">  1       -4 0.27105525E-01 0.12500268E+03</pdfrwt>
<totfact> 0.90407605E+03</totfact>
</mgrwt>
</event>
<event>
 5    1  0.3243498E-002  0.1250010E+03  0.7818608E-02  0.1235068E+00
         -4   -1    0    0    0  501 -0.00000000000E+00  0.00000000000E+00  0.33464853281E+01  0.35793664316E+01  0.12700000000E+01 0. -1.
          4   -1    0    0  501    0  0.00000000000E+00 -0.00000000000E+00 -0.11278043522E+04  0.11278050672E+04  0.12700000000E+01 0. -1.
         25    2    1    2    0    0  0.00000000000E+00  0.00000000000E+00 -0.11244578668E+04  0.11313844336E+04  0.12500096973E+03 0.  0.
    9000005    1    3    3    0    0  0.39829496967E+01  0.53346603707E+02 -0.26983991152E+03  0.27509326031E+03  0.10000000000E+01 0.  0.
    9000005    1    3    3    0    0 -0.39829496967E+01 -0.53346603707E+02 -0.85461795530E+03  0.85629117334E+03  0.10000000000E+01 0.  0.
<mgrwt>
<rscale>  0 0.12500097E+03</rscale>
<asrwt>0</asrwt>
<pdfrwt beam="2">  1        4 0.17352604E+00 0.12500097E+03</pdfrwt>
<pdfrwt beam="1">  1       -4 0.53281373E-03 0.12500097E+03</pdfrwt>
<totfact> 0.26581932E+03</totfact>
</mgrwt>
</event>
<event>
 5    1  0.3243498E-002  0.1250024E+03  0.7818608E-02  0.1235066E+00
          4   -1    0    0  501    0  0.00000000000E+00  0.00000000000E+00  0.59681076825E+02  0.59694587954E+02  0.12700000000E+01 0. -1.
         -4   -1    0    0    0  501 -0.00000000000E+00 -0.00000000000E+00 -0.65427508674E+02  0.65439833368E+02  0.12700000000E+01 0. -1.
         25    2    1    2    0    0  0.00000000000E+00  0.00000000000E+00 -0.57464318484E+01  0.12513442132E+03  0.12500240766E+03 0.  0.
    9000005    1    3    3    0    0  0.70666443341E+01  0.44119598939E+02 -0.46610592660E+02  0.64575721605E+02  0.10000000000E+01 0.  0.
    9000005    1    3    3    0    0 -0.70666443341E+01 -0.44119598939E+02  0.40864160812E+02  0.60558699717E+02  0.10000000000E+01 0.  0.
<mgrwt>
<rscale>  0 0.12500241E+03</rscale>
<asrwt>0</asrwt>
<pdfrwt beam="1">  1        4 0.91836915E-02 0.12500241E+03</pdfrwt>
<pdfrwt beam="2">  1       -4 0.10067758E-01 0.12500241E+03</pdfrwt>
<totfact> 0.10449375E+04</totfact>
</mgrwt>
</event>
<event>
 5    1  0.3243498E-002  0.1250019E+03  0.7818608E-02  0.1235066E+00
         -4   -1    0    0    0  501 -0.00000000000E+00  0.00000000000E+00  0.40603077136E+02  0.40622934076E+02  0.12700000000E+01 0.  1.
          4   -1    0    0  501    0  0.00000000000E+00 -0.00000000000E+00 -0.96161155185E+02  0.96169541262E+02  0.12700000000E+01 0.  1.
         25    2    1    2    0    0  0.00000000000E+00  0.00000000000E+00 -0.55558078049E+02  0.13679247534E+03  0.12500192508E+03 0.  0.
    9000005    1    3    3    0    0 -0.31074616390E+02  0.49858732459E+02 -0.44659703243E+01  0.58927666483E+02  0.10000000000E+01 0.  0.
    9000005    1    3    3    0    0  0.31074616390E+02 -0.49858732459E+02 -0.51092107724E+02  0.77864808854E+02  0.10000000000E+01 0.  0.
<mgrwt>
<rscale>  0 0.12500193E+03</rscale>
<asrwt>0</asrwt>
<pdfrwt beam="2">  1        4 0.14796196E-01 0.12500193E+03</pdfrwt>
<pdfrwt beam="1">  1       -4 0.62487998E-02 0.12500193E+03</pdfrwt>
<totfact> 0.10199984E+04</totfact>
</mgrwt>
</event>
<event>
 5    1  0.3243498E-002  0.1250081E+03  0.7818608E-02  0.1235057E+00
          4   -1    0    0  501    0  0.00000000000E+00  0.00000000000E+00  0.22499897823E+03  0.22500256244E+03  0.12700000000E+01 0.  1.
         -4   -1    0    0    0  501 -0.00000000000E+00 -0.00000000000E+00 -0.17336491140E+02  0.17382946386E+02  0.12700000000E+01 0.  1.
         25    2    1    2    0    0  0.00000000000E+00  0.00000000000E+00  0.20766248709E+03  0.24238550882E+03  0.12500810511E+03 0.  0.
    9000005    1    3    3    0    0 -0.42712748469E+02 -0.41543746152E+02  0.67273015090E+02  0.89871687897E+02  0.10000000000E+01 0.  0.
    9000005    1    3    3    0    0  0.42712748469E+02  0.41543746152E+02  0.14038947200E+03  0.15251382093E+03  0.10000000000E+01 0.  0.
<mgrwt>
<rscale>  0 0.12500811E+03</rscale>
<asrwt>0</asrwt>
<pdfrwt beam="1">  1        4 0.34619078E-01 0.12500811E+03</pdfrwt>
<pdfrwt beam="2">  1       -4 0.26710016E-02 0.12500811E+03</pdfrwt>
<totfact> 0.83428291E+03</totfact>
</mgrwt>
</event>
<event>
 5    1  0.3243498E-002  0.1250110E+03  0.7818608E-02  0.1235052E+00
          4   -1    0    0  501    0  0.00000000000E+00  0.00000000000E+00  0.91169668012E+01  0.92049977542E+01  0.12700000000E+01 0. -1.
         -4   -1    0    0    0  501 -0.00000000000E+00 -0.00000000000E+00 -0.42638682776E+03  0.42638871911E+03  0.12700000000E+01 0. -1.
         25    2    1    2    0    0  0.00000000000E+00  0.00000000000E+00 -0.41726986096E+03  0.43559371687E+03  0.12501099676E+03 0.  0.
    9000005    1    3    3    0    0  0.86247163513E+01  0.49444012653E+02 -0.78873161452E+02  0.93493698808E+02  0.10000000000E+01 0.  0.
    9000005    1    3    3    0    0 -0.86247163513E+01 -0.49444012653E+02 -0.33839669951E+03  0.34210001806E+03  0.10000000000E+01 0.  0.
<mgrwt>
<rscale>  0 0.12501100E+03</rscale>
<asrwt>0</asrwt>
<pdfrwt beam="1">  1        4 0.14095277E-02 0.12501100E+03</pdfrwt>
<pdfrwt beam="2">  1       -4 0.65604875E-01 0.12501100E+03</pdfrwt>
<totfact> 0.61217374E+03</totfact>
</mgrwt>
</event>
<event>
 5    1  0.3243498E-002  0.1250007E+03  0.7818608E-02  0.1235068E+00
          4   -1    0    0  501    0  0.00000000000E+00  0.00000000000E+00  0.10929103358E+04  0.10929110737E+04  0.12700000000E+01 0. -1.
         -4   -1    0    0    0  501 -0.00000000000E+00 -0.00000000000E+00 -0.34606338683E+01  0.36863107263E+01  0.12700000000E+01 0. -1.
         25    2    1    2    0    0  0.00000000000E+00  0.00000000000E+00  0.10894497019E+04  0.10965973844E+04  0.12500068189E+03 0.  0.
    9000005    1    3    3    0    0  0.11620072592E+02  0.47419395992E+02  0.88693642507E+03  0.88827971232E+03  0.10000000000E+01 0.  0.
    9000005    1    3    3    0    0 -0.11620072592E+02 -0.47419395992E+02  0.20251327687E+03  0.20831767211E+03  0.10000000000E+01 0.  0.
<mgrwt>
<rscale>  0 0.12500068E+03</rscale>
<asrwt>0</asrwt>
<pdfrwt beam="1">  1        4 0.16815748E+00 0.12500068E+03</pdfrwt>
<pdfrwt beam="2">  1       -4 0.54982170E-03 0.12500068E+03</pdfrwt>
<totfact> 0.27582773E+03</totfact>
</mgrwt>
</event>
<event>
 5    1  0.3243498E-002  0.1249977E+03  0.7818608E-02  0.1235073E+00
          4   -1    0    0  501    0  0.00000000000E+00  0.00000000000E+00  0.25543292043E+03  0.25543607760E+03  0.12700000000E+01 0. -1.
         -4   -1    0    0    0  501 -0.00000000000E+00 -0.00000000000E+00 -0.15262477322E+02  0.15315224908E+02  0.12700000000E+01 0. -1.
         25    2    1    2    0    0  0.00000000000E+00  0.00000000000E+00  0.24017044311E+03  0.27075130251E+03  0.12499770425E+03 0.  0.
    9000005    1    3    3    0    0  0.57122607910E+02  0.64643558993E+01  0.17315682358E+03  0.18245291388E+03  0.10000000000E+01 0.  0.
    9000005    1    3    3    0    0 -0.57122607910E+02 -0.64643558993E+01  0.67013619529E+02  0.88298388626E+02  0.10000000000E+01 0.  0.
<mgrwt>
<rscale>  0 0.12499770E+03</rscale>
<asrwt>0</asrwt>
<pdfrwt beam="1">  1        4 0.39301670E-01 0.12499770E+03</pdfrwt>
<pdfrwt beam="2">  1       -4 0.23523740E-02 0.12499770E+03</pdfrwt>
<totfact> 0.79424606E+03</totfact>
</mgrwt>
</event>
<event>
 5    1  0.3243498E-002  0.1250018E+03  0.7818608E-02  0.1235067E+00
         -4   -1    0    0    0  501 -0.00000000000E+00  0.00000000000E+00  0.36623289932E+03  0.36623510133E+03  0.12700000000E+01 0.  1.
          4   -1    0    0  501    0  0.00000000000E+00 -0.00000000000E+00 -0.10626284973E+02  0.10701907882E+02  0.12700000000E+01 0.  1.
         25    2    1    2    0    0  0.00000000000E+00  0.00000000000E+00  0.35560661435E+03  0.37693700921E+03  0.12500177897E+03 0.  0.
    9000005    1    3    3    0    0  0.48240361537E+02 -0.37864047770E+02  0.21405685427E+03  0.22267050872E+03  0.10000000000E+01 0.  0.
    9000005    1    3    3    0    0 -0.48240361537E+02  0.37864047770E+02  0.14154976008E+03  0.15426650049E+03  0.10000000000E+01 0.  0.
<mgrwt>
<rscale>  0 0.12500178E+03</rscale>
<asrwt>0</asrwt>
<pdfrwt beam="2">  1        4 0.16407994E-02 0.12500178E+03</pdfrwt>
<pdfrwt beam="1">  1       -4 0.56349517E-01 0.12500178E+03</pdfrwt>
<totfact> 0.66856751E+03</totfact>
</mgrwt>
</event>
<event>
 5    1  0.3243498E-002  0.1249996E+03  0.7818608E-02  0.1235070E+00
         -4   -1    0    0    0  501 -0.00000000000E+00  0.00000000000E+00  0.21884426276E+02  0.21921245709E+02  0.12700000000E+01 0.  1.
          4   -1    0    0  501    0  0.00000000000E+00 -0.00000000000E+00 -0.17830429936E+03  0.17830882218E+03  0.12700000000E+01 0.  1.
         25    2    1    2    0    0  0.00000000000E+00  0.00000000000E+00 -0.15641987308E+03  0.20023006789E+03  0.12499961358E+03 0.  0.
    9000005    1    3    3    0    0  0.40285996795E+02  0.29419900926E+02 -0.17917235149E+02  0.53014332247E+02  0.10000000000E+01 0.  0.
    9000005    1    3    3    0    0 -0.40285996795E+02 -0.29419900926E+02 -0.13850263793E+03  0.14721573565E+03  0.10000000000E+01 0.  0.
<mgrwt>
<rscale>  0 0.12499961E+03</rscale>
<asrwt>0</asrwt>
<pdfrwt beam="2">  1        4 0.27434610E-01 0.12499961E+03</pdfrwt>
<pdfrwt beam="1">  1       -4 0.33700151E-02 0.12499961E+03</pdfrwt>
<totfact> 0.90097497E+03</totfact>
</mgrwt>
</event>
<event>
 5    1  0.3243498E-002  0.1249924E+03  0.7818608E-02  0.1235081E+00
          4   -1    0    0  501    0  0.00000000000E+00  0.00000000000E+00  0.12114133702E+02  0.12180522786E+02  0.12700000000E+01 0. -1.
         -4   -1    0    0    0  501 -0.00000000000E+00 -0.00000000000E+00 -0.32146586548E+03  0.32146837413E+03  0.12700000000E+01 0. -1.
         25    2    1    2    0    0  0.00000000000E+00  0.00000000000E+00 -0.30935173177E+03  0.33364889692E+03  0.12499236962E+03 0.  0.
    9000005    1    3    3    0    0 -0.10787636748E+02  0.16454004927E+02 -0.31299502546E+03  0.31361440232E+03  0.10000000000E+01 0.  0.
    9000005    1    3    3    0    0  0.10787636748E+02 -0.16454004927E+02  0.36432936822E+01  0.20034494593E+02  0.10000000000E+01 0.  0.
<mgrwt>
<rscale>  0 0.12499237E+03</rscale>
<asrwt>0</asrwt>
<pdfrwt beam="1">  1        4 0.18690129E-02 0.12499237E+03</pdfrwt>
<pdfrwt beam="2">  1       -4 0.49461580E-01 0.12499237E+03</pdfrwt>
<totfact> 0.71573745E+03</totfact>
</mgrwt>
</event>
<event>
 5    1  0.3243498E-002  0.1249988E+03  0.7818608E-02  0.1235071E+00
          4   -1    0    0  501    0  0.00000000000E+00  0.00000000000E+00  0.14874408537E+03  0.14874950700E+03  0.12700000000E+01 0.  1.
         -4   -1    0    0    0  501 -0.00000000000E+00 -0.00000000000E+00 -0.26239779400E+02  0.26270495293E+02  0.12700000000E+01 0.  1.
         25    2    1    2    0    0  0.00000000000E+00  0.00000000000E+00  0.12250430597E+03  0.17502000230E+03  0.12499878488E+03 0.  0.
    9000005    1    3    3    0    0 -0.27505570085E+01 -0.18306665539E+02  0.14482357182E+03  0.14600536470E+03  0.10000000000E+01 0.  0.
    9000005    1    3    3    0    0  0.27505570085E+01  0.18306665539E+02 -0.22319265844E+02  0.29014637597E+02  0.10000000000E+01 0.  0.
<mgrwt>
<rscale>  0 0.12499878E+03</rscale>
<asrwt>0</asrwt>
<pdfrwt beam="1">  1        4 0.22886485E-01 0.12499878E+03</pdfrwt>
<pdfrwt beam="2">  1       -4 0.40396690E-02 0.12499878E+03</pdfrwt>
<totfact> 0.94523754E+03</totfact>
</mgrwt>
</event>
<event>
 5    1  0.3243498E-002  0.1250015E+03  0.7818608E-02  0.1235067E+00
         -4   -1    0    0    0  501 -0.00000000000E+00  0.00000000000E+00  0.76576192204E+02  0.76586722821E+02  0.12700000000E+01 0.  1.
          4   -1    0    0  501    0  0.00000000000E+00 -0.00000000000E+00 -0.50990587257E+02  0.51006400470E+02  0.12700000000E+01 0.  1.
         25    2    1    2    0    0  0.00000000000E+00  0.00000000000E+00  0.25585604947E+02  0.12759312329E+03  0.12500152771E+03 0.  0.
    9000005    1    3    3    0    0 -0.58445783117E+02  0.21963020453E+02  0.10080331645E+02  0.63252643562E+02  0.10000000000E+01 0.  0.
    9000005    1    3    3    0    0  0.58445783117E+02 -0.21963020453E+02  0.15505273301E+02  0.64340479728E+02  0.10000000000E+01 0.  0.
<mgrwt>
<rscale>  0 0.12500153E+03</rscale>
<asrwt>0</asrwt>
<pdfrwt beam="2">  1        4 0.78467322E-02 0.12500153E+03</pdfrwt>
<pdfrwt beam="1">  1       -4 0.11782979E-01 0.12500153E+03</pdfrwt>
<totfact> 0.10395926E+04</totfact>
</mgrwt>
</event>
<event>
 4    1  0.3243498E-002  0.1247552E+03  0.7818608E-02  0.1235452E+00
          4   -1    0    0  501    0  0.00000000000E+00  0.00000000000E+00  0.40061911787E+03  0.40062113087E+03  0.12700000000E+01 0. -1.
         -4   -1    0    0    0  501 -0.00000000000E+00 -0.00000000000E+00 -0.96688111921E+01  0.97518618668E+01  0.12700000000E+01 0. -1.
    9000005    1    1    2    0    0 -0.83525594218E+01 -0.58401489515E+02  0.12891292776E+03  0.14177461751E+03  0.10000000000E+01 0.  0.
    9000005    1    1    2    0    0  0.83525594218E+01  0.58401489515E+02  0.26203737892E+03  0.26859837523E+03  0.10000000000E+01 0.  0.
<mgrwt>
<rscale>  0 0.12475516E+03</rscale>
<asrwt>0</asrwt>
<pdfrwt beam="1">  1        4 0.61640247E-01 0.12475516E+03</pdfrwt>
<pdfrwt beam="2">  1       -4 0.14940529E-02 0.12475516E+03</pdfrwt>
<totfact> 0.63900884E+03</totfact>
</mgrwt>
</event>
<event>
 5    1  0.3243498E-002  0.1250002E+03  0.7818608E-02  0.1235069E+00
         -4   -1    0    0    0  501 -0.00000000000E+00  0.00000000000E+00  0.19469439771E+02  0.19510817128E+02  0.12700000000E+01 0. -1.
          4   -1    0    0  501    0  0.00000000000E+00 -0.00000000000E+00 -0.20037933980E+03  0.20038336438E+03  0.12700000000E+01 0. -1.
         25    2    1    2    0    0  0.00000000000E+00  0.00000000000E+00 -0.18090990003E+03  0.21989418151E+03  0.12500023652E+03 0.  0.
    9000005    1    3    3    0    0  0.47770666582E+02 -0.36653861945E+02 -0.11987657683E+03  0.13415265877E+03  0.10000000000E+01 0.  0.
    9000005    1    3    3    0    0 -0.47770666582E+02  0.36653861945E+02 -0.61033323199E+02  0.85741522741E+02  0.10000000000E+01 0.  0.
<mgrwt>
<rscale>  0 0.12500024E+03</rscale>
<asrwt>0</asrwt>
<pdfrwt beam="2">  1        4 0.30831082E-01 0.12500024E+03</pdfrwt>
<pdfrwt beam="1">  1       -4 0.29987910E-02 0.12500024E+03</pdfrwt>
<totfact> 0.86884638E+03</totfact>
</mgrwt>
</event>
<event>
 5    1  0.3243498E-002  0.1249940E+03  0.7818608E-02  0.1235079E+00
          4   -1    0    0  501    0  0.00000000000E+00  0.00000000000E+00  0.51706657488E+02  0.51722251774E+02  0.12700000000E+01 0. -1.
         -4   -1    0    0    0  501 -0.00000000000E+00 -0.00000000000E+00 -0.75506735442E+02  0.75517415191E+02  0.12700000000E+01 0. -1.
         25    2    1    2    0    0  0.00000000000E+00  0.00000000000E+00 -0.23800077954E+02  0.12723966696E+03  0.12499395641E+03 0.  0.
    9000005    1    3    3    0    0  0.17100990453E+02  0.27196342038E+02  0.42661329148E+02  0.53414173207E+02  0.10000000000E+01 0.  0.
    9000005    1    3    3    0    0 -0.17100990453E+02 -0.27196342038E+02 -0.66461407101E+02  0.73825493758E+02  0.10000000000E+01 0.  0.
<mgrwt>
<rscale>  0 0.12499396E+03</rscale>
<asrwt>0</asrwt>
<pdfrwt beam="1">  1        4 0.79568915E-02 0.12499396E+03</pdfrwt>
<pdfrwt beam="2">  1       -4 0.11618442E-01 0.12499396E+03</pdfrwt>
<totfact> 0.10405362E+04</totfact>
</mgrwt>
</event>
<event>
 5    1  0.3243498E-002  0.1249995E+03  0.7818608E-02  0.1235070E+00
          4   -1    0    0  501    0  0.00000000000E+00  0.00000000000E+00  0.41240439418E+02  0.41259989619E+02  0.12700000000E+01 0. -1.
         -4   -1    0    0    0  501 -0.00000000000E+00 -0.00000000000E+00 -0.94671906353E+02  0.94680424336E+02  0.12700000000E+01 0. -1.
         25    2    1    2    0    0  0.00000000000E+00  0.00000000000E+00 -0.53431466935E+02  0.13594041396E+03  0.12499949795E+03 0.  0.
    9000005    1    3    3    0    0  0.39606718127E+02  0.43233618375E+02 -0.50226983866E+02  0.77211319033E+02  0.10000000000E+01 0.  0.
    9000005    1    3    3    0    0 -0.39606718127E+02 -0.43233618375E+02 -0.32044830690E+01  0.58729094922E+02  0.10000000000E+01 0.  0.
<mgrwt>
<rscale>  0 0.12499950E+03</rscale>
<asrwt>0</asrwt>
<pdfrwt beam="1">  1        4 0.63468421E-02 0.12499950E+03</pdfrwt>
<pdfrwt beam="2">  1       -4 0.14567068E-01 0.12499950E+03</pdfrwt>
<totfact> 0.10218403E+04</totfact>
</mgrwt>
</event>
<event>
 5    1  0.3243498E-002  0.1250042E+03  0.7818608E-02  0.1235063E+00
         -4   -1    0    0    0  501 -0.00000000000E+00  0.00000000000E+00  0.14491154989E+02  0.14546699726E+02  0.12700000000E+01 0. -1.
          4   -1    0    0  501    0  0.00000000000E+00 -0.00000000000E+00 -0.26900642090E+03  0.26900941876E+03  0.12700000000E+01 0. -1.
         25    2    1    2    0    0  0.00000000000E+00  0.00000000000E+00 -0.25451526591E+03  0.28355611849E+03  0.12500420694E+03 0.  0.
    9000005    1    3    3    0    0 -0.10498388059E+02 -0.56336013476E+02 -0.70705035211E+02  0.91017386088E+02  0.10000000000E+01 0.  0.
    9000005    1    3    3    0    0  0.10498388059E+02  0.56336013476E+02 -0.18381023070E+03  0.19253873240E+03  0.10000000000E+01 0.  0.
<mgrwt>
<rscale>  0 0.12500421E+03</rscale>
<asrwt>0</asrwt>
<pdfrwt beam="2">  1        4 0.41390103E-01 0.12500421E+03</pdfrwt>
<pdfrwt beam="1">  1       -4 0.22339119E-02 0.12500421E+03</pdfrwt>
<totfact> 0.77701677E+03</totfact>
</mgrwt>
</event>
<event>
 5    1  0.3243498E-002  0.1250012E+03  0.7818608E-02  0.1235067E+00
          4   -1    0    0  501    0  0.00000000000E+00  0.00000000000E+00  0.64424910256E+02  0.64437426714E+02  0.12700000000E+01 0.  1.
         -4   -1    0    0    0  501 -0.00000000000E+00 -0.00000000000E+00 -0.60608691847E+02  0.60621996234E+02  0.12700000000E+01 0.  1.
         25    2    1    2    0    0  0.00000000000E+00  0.00000000000E+00  0.38162184090E+01  0.12505942295E+03  0.12500118297E+03 0.  0.
    9000005    1    3    3    0    0 -0.29769762032E+02 -0.54926573819E+02  0.43885651655E+00  0.62484876874E+02  0.10000000000E+01 0.  0.
    9000005    1    3    3    0    0  0.29769762032E+02  0.54926573819E+02  0.33773618925E+01  0.62574546073E+02  0.10000000000E+01 0.  0.
<mgrwt>
<rscale>  0 0.12500118E+03</rscale>
<asrwt>0</asrwt>
<pdfrwt beam="1">  1        4 0.99135109E-02 0.12500118E+03</pdfrwt>
<pdfrwt beam="2">  1       -4 0.93264003E-02 0.12500118E+03</pdfrwt>
<totfact> 0.10451293E+04</totfact>
</mgrwt>
</event>
<event>
 5    1  0.3243498E-002  0.1249979E+03  0.7818608E-02  0.1235073E+00
         -4   -1    0    0    0  501 -0.00000000000E+00  0.00000000000E+00  0.58834162459E+03  0.58834299531E+03  0.12700000000E+01 0. -1.
          4   -1    0    0  501    0  0.00000000000E+00 -0.00000000000E+00 -0.65770717332E+01  0.66985649645E+01  0.12700000000E+01 0. -1.
         25    2    1    2    0    0  0.00000000000E+00  0.00000000000E+00  0.58176455286E+03  0.59504156027E+03  0.12499785393E+03 0.  0.
    9000005    1    3    3    0    0  0.15146364559E+01 -0.26498668134E+02  0.56019899593E+03  0.56082830579E+03  0.10000000000E+01 0.  0.
    9000005    1    3    3    0    0 -0.15146364559E+01  0.26498668134E+02  0.21565556929E+02  0.34213254481E+02  0.10000000000E+01 0.  0.
<mgrwt>
<rscale>  0 0.12499785E+03</rscale>
<asrwt>0</asrwt>
<pdfrwt beam="2">  1        4 0.10213080E-02 0.12499785E+03</pdfrwt>
<pdfrwt beam="1">  1       -4 0.90523574E-01 0.12499785E+03</pdfrwt>
<totfact> 0.49184408E+03</totfact>
</mgrwt>
</event>
<event>
 5    1  0.3243498E-002  0.1249994E+03  0.7818608E-02  0.1235070E+00
         -4   -1    0    0    0  501 -0.00000000000E+00  0.00000000000E+00  0.10134560823E+04  0.10134568780E+04  0.12700000000E+01 0. -1.
          4   -1    0    0  501    0  0.00000000000E+00 -0.00000000000E+00 -0.37489157976E+01  0.39581901998E+01  0.12700000000E+01 0. -1.
         25    2    1    2    0    0  0.00000000000E+00  0.00000000000E+00  0.10097071665E+04  0.10174150682E+04  0.12499943599E+03 0.  0.
    9000005    1    3    3    0    0 -0.92854603341E+01 -0.59000855045E+02  0.35523676891E+03  0.36022421165E+03  0.10000000000E+01 0.  0.
    9000005    1    3    3    0    0  0.92854603341E+01  0.59000855045E+02  0.65447039755E+03  0.65719085655E+03  0.10000000000E+01 0.  0.
<mgrwt>
<rscale>  0 0.12499944E+03</rscale>
<asrwt>0</asrwt>
<pdfrwt beam="2">  1        4 0.59291508E-03 0.12499944E+03</pdfrwt>
<pdfrwt beam="1">  1       -4 0.15593259E+00 0.12499944E+03</pdfrwt>
<totfact> 0.30034725E+03</totfact>
</mgrwt>
</event>
<event>
 5    1  0.3243498E-002  0.1249985E+03  0.7818608E-02  0.1235072E+00
         -4   -1    0    0    0  501 -0.00000000000E+00  0.00000000000E+00  0.16691844443E+03  0.16692327576E+03  0.12700000000E+01 0. -1.
          4   -1    0    0  501    0  0.00000000000E+00 -0.00000000000E+00 -0.23379193680E+02  0.23413662616E+02  0.12700000000E+01 0. -1.
         25    2    1    2    0    0  0.00000000000E+00  0.00000000000E+00  0.14353925075E+03  0.19033693838E+03  0.12499853441E+03 0.  0.
    9000005    1    3    3    0    0 -0.25196172672E+01 -0.40394627508E+02  0.14427195544E+03  0.14984482484E+03  0.10000000000E+01 0.  0.
    9000005    1    3    3    0    0  0.25196172672E+01  0.40394627508E+02 -0.73270469596E+00  0.40492113539E+02  0.10000000000E+01 0.  0.
<mgrwt>
<rscale>  0 0.12499853E+03</rscale>
<asrwt>0</asrwt>
<pdfrwt beam="2">  1        4 0.35998223E-02 0.12499853E+03</pdfrwt>
<pdfrwt beam="1">  1       -4 0.25682782E-01 0.12499853E+03</pdfrwt>
<totfact> 0.91791736E+03</totfact>
</mgrwt>
</event>
<event>
 5    1  0.3243498E-002  0.1249987E+03  0.7818608E-02  0.1235071E+00
         -4   -1    0    0    0  501 -0.00000000000E+00  0.00000000000E+00  0.33506320532E+02  0.33530380486E+02  0.12700000000E+01 0.  1.
          4   -1    0    0  501    0  0.00000000000E+00 -0.00000000000E+00 -0.11651070476E+03  0.11651762624E+03  0.12700000000E+01 0.  1.
         25    2    1    2    0    0  0.00000000000E+00  0.00000000000E+00 -0.83004384229E+02  0.15004800672E+03  0.12499870607E+03 0.  0.
    9000005    1    3    3    0    0  0.55116101665E+02  0.10906917845E+02 -0.74341837055E+02  0.93190419338E+02  0.10000000000E+01 0.  0.
    9000005    1    3    3    0    0 -0.55116101665E+02 -0.10906917845E+02 -0.86625471739E+01  0.56857587385E+02  0.10000000000E+01 0.  0.
<mgrwt>
<rscale>  0 0.12499871E+03</rscale>
<asrwt>0</asrwt>
<pdfrwt beam="2">  1        4 0.17927107E-01 0.12499871E+03</pdfrwt>
<pdfrwt beam="1">  1       -4 0.51572018E-02 0.12499871E+03</pdfrwt>
<totfact> 0.99297021E+03</totfact>
</mgrwt>
</event>
<event>
 5    1  0.3243498E-002  0.1249988E+03  0.7818608E-02  0.1235071E+00
          4   -1    0    0  501    0  0.00000000000E+00  0.00000000000E+00  0.82149953514E+03  0.82150051682E+03  0.12700000000E+01 0.  1.
         -4   -1    0    0    0  501 -0.00000000000E+00 -0.00000000000E+00 -0.46691265116E+01  0.48387645511E+01  0.12700000000E+01 0.  1.
         25    2    1    2    0    0  0.00000000000E+00  0.00000000000E+00  0.81683040863E+03  0.82633928137E+03  0.12499876590E+03 0.  0.
    9000005    1    3    3    0    0 -0.44121169239E+02 -0.40835080928E+02  0.29564540840E+03  0.30169751228E+03  0.10000000000E+01 0.  0.
    9000005    1    3    3    0    0  0.44121169239E+02  0.40835080928E+02  0.52118500023E+03  0.52464176909E+03  0.10000000000E+01 0.  0.
<mgrwt>
<rscale>  0 0.12499877E+03</rscale>
<asrwt>0</asrwt>
<pdfrwt beam="1">  1        4 0.12639765E+00 0.12499877E+03</pdfrwt>
<pdfrwt beam="2">  1       -4 0.73145186E-03 0.12499877E+03</pdfrwt>
<totfact> 0.37116571E+03</totfact>
</mgrwt>
</event>
<event>
 5    1  0.3243498E-002  0.1249896E+03  0.7818608E-02  0.1235086E+00
          4   -1    0    0  501    0  0.00000000000E+00  0.00000000000E+00  0.32236065574E+03  0.32236315743E+03  0.12700000000E+01 0. -1.
         -4   -1    0    0    0  501 -0.00000000000E+00 -0.00000000000E+00 -0.12079785612E+02  0.12146362436E+02  0.12700000000E+01 0. -1.
         25    2    1    2    0    0  0.00000000000E+00  0.00000000000E+00  0.31028087013E+03  0.33450951987E+03  0.12498960163E+03 0.  0.
    9000005    1    3    3    0    0 -0.53697228885E+02 -0.16220891380E+02  0.81452717824E+02  0.98904271636E+02  0.10000000000E+01 0.  0.
    9000005    1    3    3    0    0  0.53697228885E+02  0.16220891380E+02  0.22882815231E+03  0.23560524823E+03  0.10000000000E+01 0.  0.
<mgrwt>
<rscale>  0 0.12498960E+03</rscale>
<asrwt>0</asrwt>
<pdfrwt beam="1">  1        4 0.49599263E-01 0.12498960E+03</pdfrwt>
<pdfrwt beam="2">  1       -4 0.18637422E-02 0.12498960E+03</pdfrwt>
<totfact> 0.71479463E+03</totfact>
</mgrwt>
</event>
<event>
 5    1  0.3243498E-002  0.1249774E+03  0.7818608E-02  0.1235105E+00
          4   -1    0    0  501    0  0.00000000000E+00  0.00000000000E+00  0.44475805446E+02  0.44493934081E+02  0.12700000000E+01 0.  1.
         -4   -1    0    0    0  501 -0.00000000000E+00 -0.00000000000E+00 -0.87756333917E+02  0.87765523086E+02  0.12700000000E+01 0.  1.
         25    2    1    2    0    0  0.00000000000E+00  0.00000000000E+00 -0.43280528472E+02  0.13225945717E+03  0.12497743743E+03 0.  0.
    9000005    1    3    3    0    0  0.21174995589E+02  0.46621652523E+02  0.16249245262E+02  0.53730781622E+02  0.10000000000E+01 0.  0.
    9000005    1    3    3    0    0 -0.21174995589E+02 -0.46621652523E+02 -0.59529773734E+02  0.78528675546E+02  0.10000000000E+01 0.  0.
<mgrwt>
<rscale>  0 0.12497744E+03</rscale>
<asrwt>0</asrwt>
<pdfrwt beam="1">  1        4 0.68445330E-02 0.12497744E+03</pdfrwt>
<pdfrwt beam="2">  1       -4 0.13503076E-01 0.12497744E+03</pdfrwt>
<totfact> 0.10301406E+04</totfact>
</mgrwt>
</event>
<event>
 5    1  0.3243498E-002  0.1249992E+03  0.7818608E-02  0.1235071E+00
          4   -1    0    0  501    0  0.00000000000E+00  0.00000000000E+00  0.41651022181E+02  0.41670379753E+02  0.12700000000E+01 0. -1.
         -4   -1    0    0    0  501 -0.00000000000E+00 -0.00000000000E+00 -0.93738532865E+02  0.93747135656E+02  0.12700000000E+01 0. -1.
         25    2    1    2    0    0  0.00000000000E+00  0.00000000000E+00 -0.52087510683E+02  0.13541751541E+03  0.12499917884E+03 0.  0.
    9000005    1    3    3    0    0 -0.11132573711E+02  0.21780410247E+01  0.40531618110E+02  0.42100951613E+02  0.10000000000E+01 0.  0.
    9000005    1    3    3    0    0  0.11132573711E+02 -0.21780410247E+01 -0.92619128793E+02  0.93316563795E+02  0.10000000000E+01 0.  0.
<mgrwt>
<rscale>  0 0.12499918E+03</rscale>
<asrwt>0</asrwt>
<pdfrwt beam="1">  1        4 0.64100004E-02 0.12499918E+03</pdfrwt>
<pdfrwt beam="2">  1       -4 0.14423463E-01 0.12499918E+03</pdfrwt>
<totfact> 0.10229468E+04</totfact>
</mgrwt>
</event>
<event>
 5    1  0.3243498E-002  0.1250013E+03  0.7818608E-02  0.1235067E+00
         -4   -1    0    0    0  501 -0.00000000000E+00  0.00000000000E+00  0.49848355739E+02  0.49864531181E+02  0.12700000000E+01 0. -1.
          4   -1    0    0  501    0  0.00000000000E+00 -0.00000000000E+00 -0.78330221603E+02  0.78340516441E+02  0.12700000000E+01 0. -1.
         25    2    1    2    0    0  0.00000000000E+00  0.00000000000E+00 -0.28481865863E+02  0.12820504762E+03  0.12500127020E+03 0.  0.
    9000005    1    3    3    0    0  0.16996492325E+02  0.43206734409E+02 -0.57141536447E+02  0.73633265833E+02  0.10000000000E+01 0.  0.
    9000005    1    3    3    0    0 -0.16996492325E+02 -0.43206734409E+02  0.28659670584E+02  0.54571781789E+02  0.10000000000E+01 0.  0.
<mgrwt>
<rscale>  0 0.12500127E+03</rscale>
<asrwt>0</asrwt>
<pdfrwt beam="2">  1        4 0.12052839E-01 0.12500127E+03</pdfrwt>
<pdfrwt beam="1">  1       -4 0.76710140E-02 0.12500127E+03</pdfrwt>
<totfact> 0.10382764E+04</totfact>
</mgrwt>
</event>
<event>
 5    1  0.3243498E-002  0.1249990E+03  0.7818608E-02  0.1235071E+00
          4   -1    0    0  501    0  0.00000000000E+00  0.00000000000E+00  0.19371531817E+02  0.19413117857E+02  0.12700000000E+01 0. -1.
         -4   -1    0    0    0  501 -0.00000000000E+00 -0.00000000000E+00 -0.20138594106E+03  0.20138994552E+03  0.12700000000E+01 0. -1.
         25    2    1    2    0    0  0.00000000000E+00  0.00000000000E+00 -0.18201440924E+03  0.22080306338E+03  0.12499899050E+03 0.  0.
    9000005    1    3    3    0    0  0.97345526409E+01 -0.59831529201E+02 -0.64182128892E+02  0.88288838880E+02  0.10000000000E+01 0.  0.
    9000005    1    3    3    0    0 -0.97345526409E+01  0.59831529201E+02 -0.11783228035E+03  0.13251422450E+03  0.10000000000E+01 0.  0.
<mgrwt>
<rscale>  0 0.12499899E+03</rscale>
<asrwt>0</asrwt>
<pdfrwt beam="1">  1        4 0.29837428E-02 0.12499899E+03</pdfrwt>
<pdfrwt beam="2">  1       -4 0.30985958E-01 0.12499899E+03</pdfrwt>
<totfact> 0.86743391E+03</totfact>
</mgrwt>
</event>
<event>
 5    1  0.3243498E-002  0.1250009E+03  0.7818608E-02  0.1235068E+00
          4   -1    0    0  501    0  0.00000000000E+00  0.00000000000E+00  0.61199739719E+02  0.61212915644E+02  0.12700000000E+01 0.  1.
         -4   -1    0    0    0  501 -0.00000000000E+00 -0.00000000000E+00 -0.63802424777E+02  0.63815063327E+02  0.12700000000E+01 0.  1.
         25    2    1    2    0    0  0.00000000000E+00  0.00000000000E+00 -0.26026850582E+01  0.12502797897E+03  0.12500088622E+03 0.  0.
    9000005    1    3    3    0    0 -0.39150893910E+02  0.47072953684E+02 -0.13820042087E+02  0.62774589013E+02  0.10000000000E+01 0.  0.
    9000005    1    3    3    0    0  0.39150893910E+02 -0.47072953684E+02  0.11217357029E+02  0.62253389957E+02  0.10000000000E+01 0.  0.
<mgrwt>
<rscale>  0 0.12500089E+03</rscale>
<asrwt>0</asrwt>
<pdfrwt beam="1">  1        4 0.94173304E-02 0.12500089E+03</pdfrwt>
<pdfrwt beam="2">  1       -4 0.98177433E-02 0.12500089E+03</pdfrwt>
<totfact> 0.10452046E+04</totfact>
</mgrwt>
</event>
<event>
 5    1  0.3243498E-002  0.1250315E+03  0.7818608E-02  0.1235020E+00
         -4   -1    0    0    0  501 -0.00000000000E+00  0.00000000000E+00  0.14849674345E+03  0.14850217411E+03  0.12700000000E+01 0. -1.
          4   -1    0    0  501    0  0.00000000000E+00 -0.00000000000E+00 -0.26297315515E+02  0.26327964283E+02  0.12700000000E+01 0. -1.
         25    2    1    2    0    0  0.00000000000E+00  0.00000000000E+00  0.12219942794E+03  0.17483013839E+03  0.12503150444E+03 0.  0.
    9000005    1    3    3    0    0 -0.66859419505E+01 -0.16433794213E+02  0.14490898853E+03  0.14599447377E+03  0.10000000000E+01 0.  0.
    9000005    1    3    3    0    0  0.66859419505E+01  0.16433794213E+02 -0.22709560598E+02  0.28835664628E+02  0.10000000000E+01 0.  0.
<mgrwt>
<rscale>  0 0.12503150E+03</rscale>
<asrwt>0</asrwt>
<pdfrwt beam="2">  1        4 0.40485162E-02 0.12503150E+03</pdfrwt>
<pdfrwt beam="1">  1       -4 0.22848428E-01 0.12503150E+03</pdfrwt>
<totfact> 0.94489162E+03</totfact>
</mgrwt>
</event>
<event>
 5    1  0.3243498E-002  0.1250002E+03  0.7818608E-02  0.1235069E+00
         -4   -1    0    0    0  501 -0.00000000000E+00  0.00000000000E+00  0.23139104234E+03  0.23139452754E+03  0.12700000000E+01 0.  1.
          4   -1    0    0  501    0  0.00000000000E+00 -0.00000000000E+00 -0.16854135758E+02  0.16901916819E+02  0.12700000000E+01 0.  1.
         25    2    1    2    0    0  0.00000000000E+00  0.00000000000E+00  0.21453690658E+03  0.24829644436E+03  0.12500015998E+03 0.  0.
    9000005    1    3    3    0    0  0.50546003217E+02  0.17049080105E+02  0.42606408102E+02  0.68277928974E+02  0.10000000000E+01 0.  0.
    9000005    1    3    3    0    0 -0.50546003217E+02 -0.17049080105E+02  0.17193049848E+03  0.18001851538E+03  0.10000000000E+01 0.  0.
<mgrwt>
<rscale>  0 0.12500016E+03</rscale>
<asrwt>0</asrwt>
<pdfrwt beam="2">  1        4 0.25968876E-02 0.12500016E+03</pdfrwt>
<pdfrwt beam="1">  1       -4 0.35602565E-01 0.12500016E+03</pdfrwt>
<totfact> 0.82576775E+03</totfact>
</mgrwt>
</event>
<event>
 5    1  0.3243498E-002  0.1250041E+03  0.7818608E-02  0.1235063E+00
         -4   -1    0    0    0  501 -0.00000000000E+00  0.00000000000E+00  0.67467495395E+02  0.67479447500E+02  0.12700000000E+01 0.  1.
          4   -1    0    0  501    0  0.00000000000E+00 -0.00000000000E+00 -0.57878010798E+02  0.57891942738E+02  0.12700000000E+01 0.  1.
         25    2    1    2    0    0  0.00000000000E+00  0.00000000000E+00  0.95894845974E+01  0.12537139024E+03  0.12500410903E+03 0.  0.
    9000005    1    3    3    0    0 -0.43878013700E+01 -0.57867308830E+02  0.28049687967E+02  0.64464433816E+02  0.10000000000E+01 0.  0.
    9000005    1    3    3    0    0  0.43878013700E+01  0.57867308830E+02 -0.18460203369E+02  0.60906956422E+02  0.10000000000E+01 0.  0.
<mgrwt>
<rscale>  0 0.12500411E+03</rscale>
<asrwt>0</asrwt>
<pdfrwt beam="2">  1        4 0.89063004E-02 0.12500411E+03</pdfrwt>
<pdfrwt beam="1">  1       -4 0.10381606E-01 0.12500411E+03</pdfrwt>
<totfact> 0.10443831E+04</totfact>
</mgrwt>
</event>
<event>
 5    1  0.3243498E-002  0.1250169E+03  0.7818608E-02  0.1235043E+00
          4   -1    0    0  501    0  0.00000000000E+00  0.00000000000E+00  0.83653395794E+02  0.83663035612E+02  0.12700000000E+01 0.  1.
         -4   -1    0    0    0  501 -0.00000000000E+00 -0.00000000000E+00 -0.46687287161E+02  0.46704557406E+02  0.12700000000E+01 0.  1.
         25    2    1    2    0    0  0.00000000000E+00  0.00000000000E+00  0.36966108633E+02  0.13036759302E+03  0.12501686335E+03 0.  0.
    9000005    1    3    3    0    0  0.53191578750E+02  0.31777555395E+02  0.27028096403E+02  0.67606767945E+02  0.10000000000E+01 0.  0.
    9000005    1    3    3    0    0 -0.53191578750E+02 -0.31777555395E+02  0.99380122297E+01  0.62760825073E+02  0.10000000000E+01 0.  0.
<mgrwt>
<rscale>  0 0.12501686E+03</rscale>
<asrwt>0</asrwt>
<pdfrwt beam="1">  1        4 0.12871823E-01 0.12501686E+03</pdfrwt>
<pdfrwt beam="2">  1       -4 0.71847297E-02 0.12501686E+03</pdfrwt>
<totfact> 0.10332717E+04</totfact>
</mgrwt>
</event>
<event>
 5    1  0.3243498E-002  0.1249972E+03  0.7818608E-02  0.1235074E+00
         -4   -1    0    0    0  501 -0.00000000000E+00  0.00000000000E+00  0.15692855324E+03  0.15693369212E+03  0.12700000000E+01 0.  1.
          4   -1    0    0  501    0  0.00000000000E+00 -0.00000000000E+00 -0.24869048946E+02  0.24901455689E+02  0.12700000000E+01 0.  1.
         25    2    1    2    0    0  0.00000000000E+00  0.00000000000E+00  0.13205950430E+03  0.18183514781E+03  0.12499723319E+03 0.  0.
    9000005    1    3    3    0    0  0.34744836278E+02 -0.46727417255E+02  0.99023918556E+02  0.11487990084E+03  0.10000000000E+01 0.  0.
    9000005    1    3    3    0    0 -0.34744836278E+02  0.46727417255E+02  0.33035585741E+02  0.66955246968E+02  0.10000000000E+01 0.  0.
<mgrwt>
<rscale>  0 0.12499723E+03</rscale>
<asrwt>0</asrwt>
<pdfrwt beam="2">  1        4 0.38288956E-02 0.12499723E+03</pdfrwt>
<pdfrwt beam="1">  1       -4 0.24145743E-01 0.12499723E+03</pdfrwt>
<totfact> 0.93293496E+03</totfact>
</mgrwt>
</event>
<event>
 5    1  0.3243498E-002  0.1249994E+03  0.7818608E-02  0.1235070E+00
         -4   -1    0    0    0  501 -0.00000000000E+00  0.00000000000E+00  0.97939655836E+02  0.97947889641E+02  0.12700000000E+01 0. -1.
          4   -1    0    0  501    0  0.00000000000E+00 -0.00000000000E+00 -0.39863865257E+02  0.39884090227E+02  0.12700000000E+01 0. -1.
         25    2    1    2    0    0  0.00000000000E+00  0.00000000000E+00  0.58075790578E+02  0.13783197987E+03  0.12499942889E+03 0.  0.
    9000005    1    3    3    0    0 -0.51299062549E+02 -0.34325610359E+02  0.18269410508E+02  0.64378666538E+02  0.10000000000E+01 0.  0.
    9000005    1    3    3    0    0  0.51299062549E+02  0.34325610359E+02  0.39806380070E+02  0.73453313330E+02  0.10000000000E+01 0.  0.
<mgrwt>
<rscale>  0 0.12499943E+03</rscale>
<asrwt>0</asrwt>
<pdfrwt beam="2">  1        4 0.61350915E-02 0.12499943E+03</pdfrwt>
<pdfrwt beam="1">  1       -4 0.15069828E-01 0.12499943E+03</pdfrwt>
<totfact> 0.10178849E+04</totfact>
</mgrwt>
</event>
<event>
 5    1  0.3243498E-002  0.1249982E+03  0.7818608E-02  0.1235072E+00
         -4   -1    0    0    0  501 -0.00000000000E+00  0.00000000000E+00  0.10728346702E+03  0.10729098376E+03  0.12700000000E+01 0.  1.
          4   -1    0    0  501    0  0.00000000000E+00 -0.00000000000E+00 -0.36389602845E+02  0.36411757650E+02  0.12700000000E+01 0.  1.
         25    2    1    2    0    0  0.00000000000E+00  0.00000000000E+00  0.70893864174E+02  0.14370274141E+03  0.12499815163E+03 0.  0.
    9000005    1    3    3    0    0 -0.13810316507E+02  0.60895026713E+02  0.38310746398E+02  0.73264195962E+02  0.10000000000E+01 0.  0.
    9000005    1    3    3    0    0  0.13810316507E+02 -0.60895026713E+02  0.32583117775E+02  0.70438545445E+02  0.10000000000E+01 0.  0.
<mgrwt>
<rscale>  0 0.12499815E+03</rscale>
<asrwt>0</asrwt>
<pdfrwt beam="2">  1        4 0.56006830E-02 0.12499815E+03</pdfrwt>
<pdfrwt beam="1">  1       -4 0.16507431E-01 0.12499815E+03</pdfrwt>
<totfact> 0.10057831E+04</totfact>
</mgrwt>
</event>
<event>
 5    1  0.3243498E-002  0.1250119E+03  0.7818608E-02  0.1235051E+00
          4   -1    0    0  501    0  0.00000000000E+00  0.00000000000E+00  0.31516636032E+02  0.31542213727E+02  0.12700000000E+01 0. -1.
         -4   -1    0    0    0  501 -0.00000000000E+00 -0.00000000000E+00 -0.12388699219E+03  0.12389350158E+03  0.12700000000E+01 0. -1.
         25    2    1    2    0    0  0.00000000000E+00  0.00000000000E+00 -0.92370356161E+02  0.15543571531E+03  0.12501191502E+03 0.  0.
    9000005    1    3    3    0    0  0.29817218667E+02 -0.12896871113E+02  0.20199440682E+02  0.38267652363E+02  0.10000000000E+01 0.  0.
    9000005    1    3    3    0    0 -0.29817218667E+02  0.12896871113E+02 -0.11256979684E+03  0.11716806295E+03  0.10000000000E+01 0.  0.
<mgrwt>
<rscale>  0 0.12501192E+03</rscale>
<asrwt>0</asrwt>
<pdfrwt beam="1">  1        4 0.48511815E-02 0.12501192E+03</pdfrwt>
<pdfrwt beam="2">  1       -4 0.19062005E-01 0.12501192E+03</pdfrwt>
<totfact> 0.98203714E+03</totfact>
</mgrwt>
</event>
<event>
 5    1  0.3243498E-002  0.1250017E+03  0.7818608E-02  0.1235067E+00
          4   -1    0    0  501    0  0.00000000000E+00  0.00000000000E+00  0.71004975064E+02  0.71016331811E+02  0.12700000000E+01 0.  1.
         -4   -1    0    0    0  501 -0.00000000000E+00 -0.00000000000E+00 -0.54992138497E+02  0.55006801365E+02  0.12700000000E+01 0.  1.
         25    2    1    2    0    0  0.00000000000E+00  0.00000000000E+00  0.16012836567E+02  0.12602313318E+03  0.12500167663E+03 0.  0.
    9000005    1    3    3    0    0  0.46615569241E+02  0.19368710598E+02 -0.29134771102E+02  0.58292307667E+02  0.10000000000E+01 0.  0.
    9000005    1    3    3    0    0 -0.46615569241E+02 -0.19368710598E+02  0.45147607670E+02  0.67730825509E+02  0.10000000000E+01 0.  0.
<mgrwt>
<rscale>  0 0.12500168E+03</rscale>
<asrwt>0</asrwt>
<pdfrwt beam="1">  1        4 0.10925844E-01 0.12500168E+03</pdfrwt>
<pdfrwt beam="2">  1       -4 0.84623306E-02 0.12500168E+03</pdfrwt>
<totfact> 0.10430055E+04</totfact>
</mgrwt>
</event>
<event>
 5    1  0.3243498E-002  0.1250031E+03  0.7818608E-02  0.1235064E+00
         -4   -1    0    0    0  501 -0.00000000000E+00  0.00000000000E+00  0.23492930947E+02  0.23527233251E+02  0.12700000000E+01 0. -1.
          4   -1    0    0  501    0  0.00000000000E+00 -0.00000000000E+00 -0.16612361700E+03  0.16612847145E+03  0.12700000000E+01 0. -1.
         25    2    1    2    0    0  0.00000000000E+00  0.00000000000E+00 -0.14263068606E+03  0.18965570470E+03  0.12500309484E+03 0.  0.
    9000005    1    3    3    0    0  0.16024913997E+02 -0.77221723048E+00 -0.16295331957E+03  0.16374424737E+03  0.10000000000E+01 0.  0.
    9000005    1    3    3    0    0 -0.16024913997E+02  0.77221723048E+00  0.20322633514E+02  0.25911457331E+02  0.10000000000E+01 0.  0.
<mgrwt>
<rscale>  0 0.12500309E+03</rscale>
<asrwt>0</asrwt>
<pdfrwt beam="2">  1        4 0.25560491E-01 0.12500309E+03</pdfrwt>
<pdfrwt beam="1">  1       -4 0.36173092E-02 0.12500309E+03</pdfrwt>
<totfact> 0.91900884E+03</totfact>
</mgrwt>
</event>
<event>
 5    1  0.3243498E-002  0.1250016E+03  0.7818608E-02  0.1235067E+00
          4   -1    0    0  501    0  0.00000000000E+00  0.00000000000E+00  0.29438327871E+02  0.29465709696E+02  0.12700000000E+01 0. -1.
         -4   -1    0    0    0  501 -0.00000000000E+00 -0.00000000000E+00 -0.13260402098E+03  0.13261010248E+03  0.12700000000E+01 0. -1.
         25    2    1    2    0    0  0.00000000000E+00  0.00000000000E+00 -0.10316569310E+03  0.16207581217E+03  0.12500163462E+03 0.  0.
    9000005    1    3    3    0    0 -0.53564902078E+01 -0.17050531177E+02  0.26060455544E+02  0.31615817939E+02  0.10000000000E+01 0.  0.
    9000005    1    3    3    0    0  0.53564902078E+01  0.17050531177E+02 -0.12922614865E+03  0.13045999423E+03  0.10000000000E+01 0.  0.
<mgrwt>
<rscale>  0 0.12500163E+03</rscale>
<asrwt>0</asrwt>
<pdfrwt beam="1">  1        4 0.45315477E-02 0.12500163E+03</pdfrwt>
<pdfrwt beam="2">  1       -4 0.20403192E-01 0.12500163E+03</pdfrwt>
<totfact> 0.96940510E+03</totfact>
</mgrwt>
</event>
<event>
 5    1  0.3243498E-002  0.1250082E+03  0.7818608E-02  0.1235056E+00
          4   -1    0    0  501    0  0.00000000000E+00  0.00000000000E+00  0.12050061304E+04  0.12050067996E+04  0.12700000000E+01 0. -1.
         -4   -1    0    0    0  501 -0.00000000000E+00 -0.00000000000E+00 -0.31170419377E+01  0.33658357716E+01  0.12700000000E+01 0. -1.
         25    2    1    2    0    0  0.00000000000E+00  0.00000000000E+00  0.12018890884E+04  0.12083726354E+04  0.12500818001E+03 0.  0.
    9000005    1    3    3    0    0 -0.42014076972E+02 -0.25400031300E+02  0.22714083367E+03  0.23238825825E+03  0.10000000000E+01 0.  0.
    9000005    1    3    3    0    0  0.42014076972E+02  0.25400031300E+02  0.97474825475E+03  0.97598437712E+03  0.10000000000E+01 0.  0.
<mgrwt>
<rscale>  0 0.12500818E+03</rscale>
<asrwt>0</asrwt>
<pdfrwt beam="1">  1        4 0.18540468E+00 0.12500818E+03</pdfrwt>
<pdfrwt beam="2">  1       -4 0.49873456E-03 0.12500818E+03</pdfrwt>
<totfact> 0.24490283E+03</totfact>
</mgrwt>
</event>
<event>
 5    1  0.3243498E-002  0.1250010E+03  0.7818608E-02  0.1235068E+00
          4   -1    0    0  501    0  0.00000000000E+00  0.00000000000E+00  0.24844696045E+02  0.24877134512E+02  0.12700000000E+01 0. -1.
         -4   -1    0    0    0  501 -0.00000000000E+00 -0.00000000000E+00 -0.15709158419E+03  0.15709671773E+03  0.12700000000E+01 0. -1.
         25    2    1    2    0    0  0.00000000000E+00  0.00000000000E+00 -0.13224688814E+03  0.18197385225E+03  0.12500097391E+03 0.  0.
    9000005    1    3    3    0    0  0.39194748505E+02  0.72885338273E+01 -0.13618198749E+03  0.14190096812E+03  0.10000000000E+01 0.  0.
    9000005    1    3    3    0    0 -0.39194748505E+02 -0.72885338273E+01  0.39350993452E+01  0.40072884131E+02  0.10000000000E+01 0.  0.
<mgrwt>
<rscale>  0 0.12500097E+03</rscale>
<asrwt>0</asrwt>
<pdfrwt beam="1">  1        4 0.38251512E-02 0.12500097E+03</pdfrwt>
<pdfrwt beam="2">  1       -4 0.24170826E-01 0.12500097E+03</pdfrwt>
<totfact> 0.93260869E+03</totfact>
</mgrwt>
</event>
<event>
 5    1  0.3243498E-002  0.1250013E+03  0.7818608E-02  0.1235067E+00
          4   -1    0    0  501    0  0.00000000000E+00  0.00000000000E+00  0.19250475954E+04  0.19250480143E+04  0.12700000000E+01 0. -1.
         -4   -1    0    0    0  501 -0.00000000000E+00 -0.00000000000E+00 -0.18300440071E+01  0.22275459744E+01  0.12700000000E+01 0. -1.
         25    2    1    2    0    0  0.00000000000E+00  0.00000000000E+00  0.19232175514E+04  0.19272755603E+04  0.12500134135E+03 0.  0.
    9000005    1    3    3    0    0  0.36499405900E+02 -0.46848122941E+02  0.12615205807E+04  0.12629181006E+04  0.10000000000E+01 0.  0.
    9000005    1    3    3    0    0 -0.36499405900E+02  0.46848122941E+02  0.66169697068E+03  0.66435745970E+03  0.10000000000E+01 0.  0.
<mgrwt>
<rscale>  0 0.12500134E+03</rscale>
<asrwt>0</asrwt>
<pdfrwt beam="1">  1        4 0.29619189E+00 0.12500134E+03</pdfrwt>
<pdfrwt beam="2">  1       -4 0.31215442E-03 0.12500134E+03</pdfrwt>
<totfact> 0.10840132E+03</totfact>
</mgrwt>
</event>
<event>
 5    1  0.3243498E-002  0.1250021E+03  0.7818608E-02  0.1235066E+00
         -4   -1    0    0    0  501 -0.00000000000E+00  0.00000000000E+00  0.10389800724E+03  0.10390576889E+03  0.12700000000E+01 0.  1.
          4   -1    0    0  501    0  0.00000000000E+00 -0.00000000000E+00 -0.37578312223E+02  0.37599766615E+02  0.12700000000E+01 0.  1.
         25    2    1    2    0    0  0.00000000000E+00  0.00000000000E+00  0.66319695020E+02  0.14150553551E+03  0.12500205851E+03 0.  0.
    9000005    1    3    3    0    0 -0.40241212434E+02 -0.45342003475E+02  0.50332575778E+02  0.78801146196E+02  0.10000000000E+01 0.  0.
    9000005    1    3    3    0    0  0.40241212434E+02  0.45342003475E+02  0.15987119242E+02  0.62704389312E+02  0.10000000000E+01 0.  0.
<mgrwt>
<rscale>  0 0.12500206E+03</rscale>
<asrwt>0</asrwt>
<pdfrwt beam="2">  1        4 0.57835263E-02 0.12500206E+03</pdfrwt>
<pdfrwt beam="1">  1       -4 0.15986556E-01 0.12500206E+03</pdfrwt>
<totfact> 0.10102009E+04</totfact>
</mgrwt>
</event>
<event>
 5    1  0.3243498E-002  0.1250024E+03  0.7818608E-02  0.1235066E+00
          4   -1    0    0  501    0  0.00000000000E+00  0.00000000000E+00  0.29564638101E+03  0.29564910875E+03  0.12700000000E+01 0.  1.
         -4   -1    0    0    0  501 -0.00000000000E+00 -0.00000000000E+00 -0.13179762138E+02  0.13240809265E+02  0.12700000000E+01 0.  1.
         25    2    1    2    0    0  0.00000000000E+00  0.00000000000E+00  0.28246661887E+03  0.30888991802E+03  0.12500236267E+03 0.  0.
    9000005    1    3    3    0    0  0.19063247058E+02 -0.51034395125E+02  0.65573245947E+02  0.85257066911E+02  0.10000000000E+01 0.  0.
    9000005    1    3    3    0    0 -0.19063247058E+02  0.51034395125E+02  0.21689337293E+03  0.22363285111E+03  0.10000000000E+01 0.  0.
<mgrwt>
<rscale>  0 0.12500236E+03</rscale>
<asrwt>0</asrwt>
<pdfrwt beam="1">  1        4 0.45488965E-01 0.12500236E+03</pdfrwt>
<pdfrwt beam="2">  1       -4 0.20325614E-02 0.12500236E+03</pdfrwt>
<totfact> 0.74493158E+03</totfact>
</mgrwt>
</event>
<event>
 5    1  0.3243498E-002  0.1249936E+03  0.7818608E-02  0.1235079E+00
          4   -1    0    0  501    0  0.00000000000E+00  0.00000000000E+00  0.36011399959E+02  0.36033787297E+02  0.12700000000E+01 0. -1.
         -4   -1    0    0    0  501 -0.00000000000E+00 -0.00000000000E+00 -0.10840171741E+03  0.10840915661E+03  0.12700000000E+01 0. -1.
         25    2    1    2    0    0  0.00000000000E+00  0.00000000000E+00 -0.72390317450E+02  0.14444294391E+03  0.12499362377E+03 0.  0.
    9000005    1    3    3    0    0 -0.21905150317E+02  0.10178892886E+02 -0.10279442686E+03  0.10559895673E+03  0.10000000000E+01 0.  0.
    9000005    1    3    3    0    0  0.21905150317E+02 -0.10178892886E+02  0.30404109406E+02  0.38843987174E+02  0.10000000000E+01 0.  0.
<mgrwt>
<rscale>  0 0.12499362E+03</rscale>
<asrwt>0</asrwt>
<pdfrwt beam="1">  1        4 0.55425098E-02 0.12499362E+03</pdfrwt>
<pdfrwt beam="2">  1       -4 0.16679482E-01 0.12499362E+03</pdfrwt>
<totfact> 0.10043761E+04</totfact>
</mgrwt>
</event>
<event>
 5    1  0.3243498E-002  0.1250003E+03  0.7818608E-02  0.1235069E+00
         -4   -1    0    0    0  501 -0.00000000000E+00  0.00000000000E+00  0.77484690302E+03  0.77484794381E+03  0.12700000000E+01 0. -1.
          4   -1    0    0  501    0  0.00000000000E+00 -0.00000000000E+00 -0.49603019536E+01  0.51203022832E+01  0.12700000000E+01 0. -1.
         25    2    1    2    0    0  0.00000000000E+00  0.00000000000E+00  0.76988660107E+03  0.77996824609E+03  0.12500034562E+03 0.  0.
    9000005    1    3    3    0    0  0.39302253639E+02  0.75269628393E+01  0.68444698292E+03  0.68561650705E+03  0.10000000000E+01 0.  0.
    9000005    1    3    3    0    0 -0.39302253639E+02 -0.75269628393E+01  0.85439618147E+02  0.94351739040E+02  0.10000000000E+01 0.  0.
<mgrwt>
<rscale>  0 0.12500035E+03</rscale>
<asrwt>0</asrwt>
<pdfrwt beam="2">  1        4 0.77551106E-03 0.12500035E+03</pdfrwt>
<pdfrwt beam="1">  1       -4 0.11921962E+00 0.12500035E+03</pdfrwt>
<totfact> 0.39174485E+03</totfact>
</mgrwt>
</event>
<event>
 5    1  0.3243498E-002  0.1249996E+03  0.7818608E-02  0.1235070E+00
          4   -1    0    0  501    0  0.00000000000E+00  0.00000000000E+00  0.10975641252E+03  0.10976375991E+03  0.12700000000E+01 0. -1.
         -4   -1    0    0    0  501 -0.00000000000E+00 -0.00000000000E+00 -0.35570061144E+02  0.35592726079E+02  0.12700000000E+01 0. -1.
         25    2    1    2    0    0  0.00000000000E+00  0.00000000000E+00  0.74186351373E+02  0.14535648598E+03  0.12499957315E+03 0.  0.
    9000005    1    3    3    0    0 -0.39306224265E+02 -0.40342340373E+02  0.68570711413E+02  0.88743597833E+02  0.10000000000E+01 0.  0.
    9000005    1    3    3    0    0  0.39306224265E+02  0.40342340373E+02  0.56156399608E+01  0.56612888152E+02  0.10000000000E+01 0.  0.
<mgrwt>
<rscale>  0 0.12499957E+03</rscale>
<asrwt>0</asrwt>
<pdfrwt beam="1">  1        4 0.16887910E-01 0.12499957E+03</pdfrwt>
<pdfrwt beam="2">  1       -4 0.54746258E-02 0.12499957E+03</pdfrwt>
<totfact> 0.10023847E+04</totfact>
</mgrwt>
</event>
<event>
 5    1  0.3243498E-002  0.1250012E+03  0.7818608E-02  0.1235067E+00
         -4   -1    0    0    0  501 -0.00000000000E+00  0.00000000000E+00  0.53912616642E+02  0.53927573032E+02  0.12700000000E+01 0. -1.
          4   -1    0    0  501    0  0.00000000000E+00 -0.00000000000E+00 -0.72426054156E+02  0.72437188106E+02  0.12700000000E+01 0. -1.
         25    2    1    2    0    0  0.00000000000E+00  0.00000000000E+00 -0.18513437515E+02  0.12636476114E+03  0.12500122195E+03 0.  0.
    9000005    1    3    3    0    0  0.23589238919E+02 -0.31606392112E+01  0.49156672826E+02  0.54624356438E+02  0.10000000000E+01 0.  0.
    9000005    1    3    3    0    0 -0.23589238919E+02  0.31606392112E+01 -0.67670110340E+02  0.71740404700E+02  0.10000000000E+01 0.  0.
<mgrwt>
<rscale>  0 0.12500122E+03</rscale>
<asrwt>0</asrwt>
<pdfrwt beam="2">  1        4 0.11144477E-01 0.12500122E+03</pdfrwt>
<pdfrwt beam="1">  1       -4 0.82962556E-02 0.12500122E+03</pdfrwt>
<totfact> 0.10422691E+04</totfact>
</mgrwt>
</event>
<event>
 5    1  0.3243498E-002  0.1250040E+03  0.7818608E-02  0.1235063E+00
          4   -1    0    0  501    0  0.00000000000E+00  0.00000000000E+00  0.25523298813E+02  0.25554875900E+02  0.12700000000E+01 0. -1.
         -4   -1    0    0    0  501 -0.00000000000E+00 -0.00000000000E+00 -0.15292727815E+03  0.15293255148E+03  0.12700000000E+01 0. -1.
         25    2    1    2    0    0  0.00000000000E+00  0.00000000000E+00 -0.12740397934E+03  0.17848742738E+03  0.12500395107E+03 0.  0.
    9000005    1    3    3    0    0 -0.62475958694E+02 -0.69729399613E+00 -0.61804870548E+02  0.87889553743E+02  0.10000000000E+01 0.  0.
    9000005    1    3    3    0    0  0.62475958694E+02  0.69729399613E+00 -0.65599108787E+02  0.90597873636E+02  0.10000000000E+01 0.  0.
<mgrwt>
<rscale>  0 0.12500395E+03</rscale>
<asrwt>0</asrwt>
<pdfrwt beam="1">  1        4 0.39294961E-02 0.12500395E+03</pdfrwt>
<pdfrwt beam="2">  1       -4 0.23530108E-01 0.12500395E+03</pdfrwt>
<totfact> 0.93881664E+03</totfact>
</mgrwt>
</event>
<event>
 5    1  0.3243498E-002  0.1249963E+03  0.7818608E-02  0.1235075E+00
         -4   -1    0    0    0  501 -0.00000000000E+00  0.00000000000E+00  0.33557671045E+02  0.33581694210E+02  0.12700000000E+01 0.  1.
          4   -1    0    0  501    0  0.00000000000E+00 -0.00000000000E+00 -0.11632807804E+03  0.11633501039E+03  0.12700000000E+01 0.  1.
         25    2    1    2    0    0  0.00000000000E+00  0.00000000000E+00 -0.82770406998E+02  0.14991670460E+03  0.12499631211E+03 0.  0.
    9000005    1    3    3    0    0  0.13346135947E+02 -0.56255668092E+02 -0.69823150319E+02  0.90659207241E+02  0.10000000000E+01 0.  0.
    9000005    1    3    3    0    0 -0.13346135947E+02  0.56255668092E+02 -0.12947256680E+02  0.59257497354E+02  0.10000000000E+01 0.  0.
<mgrwt>
<rscale>  0 0.12499631E+03</rscale>
<asrwt>0</asrwt>
<pdfrwt beam="2">  1        4 0.17899008E-01 0.12499631E+03</pdfrwt>
<pdfrwt beam="1">  1       -4 0.51650999E-02 0.12499631E+03</pdfrwt>
<totfact> 0.99328548E+03</totfact>
</mgrwt>
</event>
<event>
 5    1  0.3243498E-002  0.1249979E+03  0.7818608E-02  0.1235073E+00
          4   -1    0    0  501    0  0.00000000000E+00  0.00000000000E+00  0.78457676979E+02  0.78467955096E+02  0.12700000000E+01 0.  1.
         -4   -1    0    0    0  501 -0.00000000000E+00 -0.00000000000E+00 -0.49764647695E+02  0.49780850336E+02  0.12700000000E+01 0.  1.
         25    2    1    2    0    0  0.00000000000E+00  0.00000000000E+00  0.28693029284E+02  0.12824880543E+03  0.12499786464E+03 0.  0.
    9000005    1    3    3    0    0  0.36734207429E+02  0.50415047903E+02  0.10502407559E+02  0.63264362915E+02  0.10000000000E+01 0.  0.
    9000005    1    3    3    0    0 -0.36734207429E+02 -0.50415047903E+02  0.18190621725E+02  0.64984442517E+02  0.10000000000E+01 0.  0.
<mgrwt>
<rscale>  0 0.12499786E+03</rscale>
<asrwt>0</asrwt>
<pdfrwt beam="1">  1        4 0.12072449E-01 0.12499786E+03</pdfrwt>
<pdfrwt beam="2">  1       -4 0.76581366E-02 0.12499786E+03</pdfrwt>
<totfact> 0.10382618E+04</totfact>
</mgrwt>
</event>
<event>
 5    1  0.3243498E-002  0.1250045E+03  0.7818608E-02  0.1235062E+00
         -4   -1    0    0    0  501 -0.00000000000E+00  0.00000000000E+00  0.52904183759E+02  0.52919425160E+02  0.12700000000E+01 0. -1.
          4   -1    0    0  501    0  0.00000000000E+00 -0.00000000000E+00 -0.73810279052E+02  0.73821204229E+02  0.12700000000E+01 0. -1.
         25    2    1    2    0    0  0.00000000000E+00  0.00000000000E+00 -0.20906095293E+02  0.12674062939E+03  0.12500448919E+03 0.  0.
    9000005    1    3    3    0    0  0.62204088023E+02  0.99504450756E+00 -0.44383804658E+01  0.62378184500E+02  0.10000000000E+01 0.  0.
    9000005    1    3    3    0    0 -0.62204088023E+02 -0.99504450756E+00 -0.16467714828E+02  0.64362444888E+02  0.10000000000E+01 0.  0.
<mgrwt>
<rscale>  0 0.12500449E+03</rscale>
<asrwt>0</asrwt>
<pdfrwt beam="2">  1        4 0.11357440E-01 0.12500449E+03</pdfrwt>
<pdfrwt beam="1">  1       -4 0.81411180E-02 0.12500449E+03</pdfrwt>
<totfact> 0.10413730E+04</totfact>
</mgrwt>
</event>
<event>
 5    1  0.3243498E-002  0.1249988E+03  0.7818608E-02  0.1235071E+00
          4   -1    0    0  501    0  0.00000000000E+00  0.00000000000E+00  0.11632311537E+03  0.11633004800E+03  0.12700000000E+01 0. -1.
         -4   -1    0    0    0  501 -0.00000000000E+00 -0.00000000000E+00 -0.33560436402E+02  0.33584457588E+02  0.12700000000E+01 0. -1.
         25    2    1    2    0    0  0.00000000000E+00  0.00000000000E+00  0.82762678966E+02  0.14991450559E+03  0.12499879182E+03 0.  0.
    9000005    1    3    3    0    0 -0.58779589376E+02  0.21142234559E+02  0.43506648231E+02  0.76130563177E+02  0.10000000000E+01 0.  0.
    9000005    1    3    3    0    0  0.58779589376E+02 -0.21142234559E+02  0.39256030735E+02  0.73783942415E+02  0.10000000000E+01 0.  0.
<mgrwt>
<rscale>  0 0.12499879E+03</rscale>
<asrwt>0</asrwt>
<pdfrwt beam="1">  1        4 0.17898245E-01 0.12499879E+03</pdfrwt>
<pdfrwt beam="2">  1       -4 0.51655251E-02 0.12499879E+03</pdfrwt>
<totfact> 0.99323443E+03</totfact>
</mgrwt>
</event>
<event>
 5    1  0.3243498E-002  0.1249967E+03  0.7818608E-02  0.1235074E+00
          4   -1    0    0  501    0  0.00000000000E+00  0.00000000000E+00  0.20606330851E+02  0.20645429789E+02  0.12700000000E+01 0. -1.
         -4   -1    0    0    0  501 -0.00000000000E+00 -0.00000000000E+00 -0.18933456964E+03  0.18933882898E+03  0.12700000000E+01 0. -1.
         25    2    1    2    0    0  0.00000000000E+00  0.00000000000E+00 -0.16872823879E+03  0.20998425877E+03  0.12499668142E+03 0.  0.
    9000005    1    3    3    0    0  0.61073226065E+02  0.13224760503E+02 -0.83595459083E+02  0.10437448928E+03  0.10000000000E+01 0.  0.
    9000005    1    3    3    0    0 -0.61073226065E+02 -0.13224760503E+02 -0.85132779703E+02  0.10560976949E+03  0.10000000000E+01 0.  0.
<mgrwt>
<rscale>  0 0.12499668E+03</rscale>
<asrwt>0</asrwt>
<pdfrwt beam="1">  1        4 0.31735401E-02 0.12499668E+03</pdfrwt>
<pdfrwt beam="2">  1       -4 0.29131729E-01 0.12499668E+03</pdfrwt>
<totfact> 0.88485017E+03</totfact>
</mgrwt>
</event>
<event>
 5    1  0.3243498E-002  0.1249981E+03  0.7818608E-02  0.1235072E+00
         -4   -1    0    0    0  501 -0.00000000000E+00  0.00000000000E+00  0.40327263598E+01  0.42279760989E+01  0.12700000000E+01 0. -1.
          4   -1    0    0  501    0  0.00000000000E+00 -0.00000000000E+00 -0.94551862968E+03  0.94551948260E+03  0.12700000000E+01 0. -1.
         25    2    1    2    0    0  0.00000000000E+00  0.00000000000E+00 -0.94148590332E+03  0.94974745870E+03  0.12499811659E+03 0.  0.
    9000005    1    3    3    0    0 -0.37021044362E+02 -0.44321212047E+02 -0.65217753703E+03  0.65473007215E+03  0.10000000000E+01 0.  0.
    9000005    1    3    3    0    0  0.37021044362E+02  0.44321212047E+02 -0.28930836629E+03  0.29501738655E+03  0.10000000000E+01 0.  0.
<mgrwt>
<rscale>  0 0.12499812E+03</rscale>
<asrwt>0</asrwt>
<pdfrwt beam="2">  1        4 0.14547932E+00 0.12499812E+03</pdfrwt>
<pdfrwt beam="1">  1       -4 0.63550501E-03 0.12499812E+03</pdfrwt>
<totfact> 0.32326304E+03</totfact>
</mgrwt>
</event>
<event>
 5    1  0.3243498E-002  0.1250022E+03  0.7818608E-02  0.1235066E+00
         -4   -1    0    0    0  501 -0.00000000000E+00  0.00000000000E+00  0.29175615507E+01  0.31819907923E+01  0.12700000000E+01 0.  1.
          4   -1    0    0  501    0  0.00000000000E+00 -0.00000000000E+00 -0.12806125593E+04  0.12806131890E+04  0.12700000000E+01 0.  1.
         25    2    1    2    0    0  0.00000000000E+00  0.00000000000E+00 -0.12776949978E+04  0.12837951798E+04  0.12500222590E+03 0.  0.
    9000005    1    3    3    0    0 -0.78985928419E+01 -0.61082381335E+02 -0.53018530087E+03  0.53375171975E+03  0.10000000000E+01 0.  0.
    9000005    1    3    3    0    0  0.78985928419E+01  0.61082381335E+02 -0.74750969689E+03  0.75004346009E+03  0.10000000000E+01 0.  0.
<mgrwt>
<rscale>  0 0.12500223E+03</rscale>
<asrwt>0</asrwt>
<pdfrwt beam="2">  1        4 0.19703728E+00 0.12500223E+03</pdfrwt>
<pdfrwt beam="1">  1       -4 0.46924580E-03 0.12500223E+03</pdfrwt>
<totfact> 0.22613206E+03</totfact>
</mgrwt>
</event>
<event>
 5    1  0.3243498E-002  0.1249888E+03  0.7818608E-02  0.1235087E+00
          4   -1    0    0  501    0  0.00000000000E+00  0.00000000000E+00  0.37331483899E+02  0.37353080062E+02  0.12700000000E+01 0. -1.
         -4   -1    0    0    0  501 -0.00000000000E+00 -0.00000000000E+00 -0.10456244775E+03  0.10457016009E+03  0.12700000000E+01 0. -1.
         25    2    1    2    0    0  0.00000000000E+00  0.00000000000E+00 -0.67230963854E+02  0.14192324015E+03  0.12498881387E+03 0.  0.
    9000005    1    3    3    0    0  0.42965663013E+02  0.99646161278E+01  0.16644550964E+02  0.47152760784E+02  0.10000000000E+01 0.  0.
    9000005    1    3    3    0    0 -0.42965663013E+02 -0.99646161278E+01 -0.83875514819E+02  0.94770479364E+02  0.10000000000E+01 0.  0.
<mgrwt>
<rscale>  0 0.12498881E+03</rscale>
<asrwt>0</asrwt>
<pdfrwt beam="1">  1        4 0.57455598E-02 0.12498881E+03</pdfrwt>
<pdfrwt beam="2">  1       -4 0.16088785E-01 0.12498881E+03</pdfrwt>
<totfact> 0.10096424E+04</totfact>
</mgrwt>
</event>
<event>
 5    1  0.3243498E-002  0.1249995E+03  0.7818608E-02  0.1235070E+00
          4   -1    0    0  501    0  0.00000000000E+00  0.00000000000E+00  0.69896481549E+01  0.71040890569E+01  0.12700000000E+01 0.  1.
         -4   -1    0    0    0  501 -0.00000000000E+00 -0.00000000000E+00 -0.55420489269E+03  0.55420634784E+03  0.12700000000E+01 0.  1.
         25    2    1    2    0    0  0.00000000000E+00  0.00000000000E+00 -0.54721524454E+03  0.56131043689E+03  0.12499953085E+03 0.  0.
    9000005    1    3    3    0    0  0.34356760310E+01  0.57316115443E+02 -0.38435830262E+03  0.38862481361E+03  0.10000000000E+01 0.  0.
    9000005    1    3    3    0    0 -0.34356760310E+01 -0.57316115443E+02 -0.16285694192E+03  0.17268562329E+03  0.10000000000E+01 0.  0.
<mgrwt>
<rscale>  0 0.12499953E+03</rscale>
<asrwt>0</asrwt>
<pdfrwt beam="1">  1        4 0.10842460E-02 0.12499953E+03</pdfrwt>
<pdfrwt beam="2">  1       -4 0.85271172E-01 0.12499953E+03</pdfrwt>
<totfact> 0.51405116E+03</totfact>
</mgrwt>
</event>
<event>
 5    1  0.3243498E-002  0.1250046E+03  0.7818608E-02  0.1235062E+00
          4   -1    0    0  501    0  0.00000000000E+00  0.00000000000E+00  0.16089880365E+02  0.16139924106E+02  0.12700000000E+01 0. -1.
         -4   -1    0    0    0  501 -0.00000000000E+00 -0.00000000000E+00 -0.24236611899E+03  0.24236944638E+03  0.12700000000E+01 0. -1.
         25    2    1    2    0    0  0.00000000000E+00  0.00000000000E+00 -0.22627623863E+03  0.25850937048E+03  0.12500463375E+03 0.  0.
    9000005    1    3    3    0    0  0.35955173515E+02  0.48093249782E+02 -0.77331014592E+02  0.97912312786E+02  0.10000000000E+01 0.  0.
    9000005    1    3    3    0    0 -0.35955173515E+02 -0.48093249782E+02 -0.14894522404E+03  0.16059705770E+03  0.10000000000E+01 0.  0.
<mgrwt>
<rscale>  0 0.12500463E+03</rscale>
<asrwt>0</asrwt>
<pdfrwt beam="1">  1        4 0.24794719E-02 0.12500463E+03</pdfrwt>
<pdfrwt beam="2">  1       -4 0.37291198E-01 0.12500463E+03</pdfrwt>
<totfact> 0.81107339E+03</totfact>
</mgrwt>
</event>
<event>
 5    1  0.3243498E-002  0.1250023E+03  0.7818608E-02  0.1235066E+00
          4   -1    0    0  501    0  0.00000000000E+00  0.00000000000E+00  0.22285414676E+03  0.22285776546E+03  0.12700000000E+01 0.  1.
         -4   -1    0    0    0  501 -0.00000000000E+00 -0.00000000000E+00 -0.17502143301E+02  0.17548160022E+02  0.12700000000E+01 0.  1.
         25    2    1    2    0    0  0.00000000000E+00  0.00000000000E+00  0.20535200346E+03  0.24040592549E+03  0.12500225472E+03 0.  0.
    9000005    1    3    3    0    0 -0.57696204405E+02  0.71687011727E+01  0.14674857867E+03  0.15784925600E+03  0.10000000000E+01 0.  0.
    9000005    1    3    3    0    0  0.57696204405E+02 -0.71687011727E+01  0.58603424791E+02  0.82556669485E+02  0.10000000000E+01 0.  0.
<mgrwt>
<rscale>  0 0.12500225E+03</rscale>
<asrwt>0</asrwt>
<pdfrwt beam="1">  1        4 0.34289070E-01 0.12500225E+03</pdfrwt>
<pdfrwt beam="2">  1       -4 0.26964557E-02 0.12500225E+03</pdfrwt>
<totfact> 0.83732741E+03</totfact>
</mgrwt>
</event>
<event>
 5    1  0.3243498E-002  0.1250039E+03  0.7818608E-02  0.1235063E+00
          4   -1    0    0  501    0  0.00000000000E+00  0.00000000000E+00  0.25222673723E+03  0.25222993453E+03  0.12700000000E+01 0. -1.
         -4   -1    0    0    0  501 -0.00000000000E+00 -0.00000000000E+00 -0.15458694785E+02  0.15510775108E+02  0.12700000000E+01 0. -1.
         25    2    1    2    0    0  0.00000000000E+00  0.00000000000E+00  0.23676804244E+03  0.26774070963E+03  0.12500392664E+03 0.  0.
    9000005    1    3    3    0    0 -0.15878595984E+02 -0.39854329645E+02  0.21571488425E+03  0.21994183024E+03  0.10000000000E+01 0.  0.
    9000005    1    3    3    0    0  0.15878595984E+02  0.39854329645E+02  0.21053158193E+02  0.47798879399E+02  0.10000000000E+01 0.  0.
<mgrwt>
<rscale>  0 0.12500393E+03</rscale>
<asrwt>0</asrwt>
<pdfrwt beam="1">  1        4 0.38808367E-01 0.12500393E+03</pdfrwt>
<pdfrwt beam="2">  1       -4 0.23825128E-02 0.12500393E+03</pdfrwt>
<totfact> 0.79824911E+03</totfact>
</mgrwt>
</event>
<event>
 5    1  0.3243498E-002  0.1250077E+03  0.7818608E-02  0.1235057E+00
          4   -1    0    0  501    0  0.00000000000E+00  0.00000000000E+00  0.95953396299E+02  0.95961800531E+02  0.12700000000E+01 0.  1.
         -4   -1    0    0    0  501 -0.00000000000E+00 -0.00000000000E+00 -0.40694816446E+02  0.40714628643E+02  0.12700000000E+01 0.  1.
         25    2    1    2    0    0  0.00000000000E+00  0.00000000000E+00  0.55258579853E+02  0.13667642917E+03  0.12500774234E+03 0.  0.
    9000005    1    3    3    0    0  0.16866704448E+02  0.25877778762E+02  0.87029042484E+02  0.92353664726E+02  0.10000000000E+01 0.  0.
    9000005    1    3    3    0    0 -0.16866704448E+02 -0.25877778762E+02 -0.31770462631E+02  0.44322764449E+02  0.10000000000E+01 0.  0.
<mgrwt>
<rscale>  0 0.12500774E+03</rscale>
<asrwt>0</asrwt>
<pdfrwt beam="1">  1        4 0.14764231E-01 0.12500774E+03</pdfrwt>
<pdfrwt beam="2">  1       -4 0.62629116E-02 0.12500774E+03</pdfrwt>
<totfact> 0.10201075E+04</totfact>
</mgrwt>
</event>
<event>
 5    1  0.3243498E-002  0.1249948E+03  0.7818608E-02  0.1235077E+00
          4   -1    0    0  501    0  0.00000000000E+00  0.00000000000E+00  0.14019258054E+02  0.14076664960E+02  0.12700000000E+01 0. -1.
         -4   -1    0    0    0  501 -0.00000000000E+00 -0.00000000000E+00 -0.27798337044E+03  0.27798627149E+03  0.12700000000E+01 0. -1.
         25    2    1    2    0    0  0.00000000000E+00  0.00000000000E+00 -0.26396411238E+03  0.29206293645E+03  0.12499482479E+03 0.  0.
    9000005    1    3    3    0    0 -0.40885015143E+02  0.13582383391E+02 -0.23774673584E+03  0.24162072760E+03  0.10000000000E+01 0.  0.
    9000005    1    3    3    0    0  0.40885015143E+02 -0.13582383391E+02 -0.26217376544E+02  0.50442208860E+02  0.10000000000E+01 0.  0.
<mgrwt>
<rscale>  0 0.12499482E+03</rscale>
<asrwt>0</asrwt>
<pdfrwt beam="1">  1        4 0.21614482E-02 0.12499482E+03</pdfrwt>
<pdfrwt beam="2">  1       -4 0.42771307E-01 0.12499482E+03</pdfrwt>
<totfact> 0.76614166E+03</totfact>
</mgrwt>
</event>
<event>
 5    1  0.3243498E-002  0.1249992E+03  0.7818608E-02  0.1235071E+00
         -4   -1    0    0    0  501 -0.00000000000E+00  0.00000000000E+00  0.17938799744E+02  0.17983699181E+02  0.12700000000E+01 0. -1.
          4   -1    0    0  501    0  0.00000000000E+00 -0.00000000000E+00 -0.21743243994E+03  0.21743614887E+03  0.12700000000E+01 0. -1.
         25    2    1    2    0    0  0.00000000000E+00  0.00000000000E+00 -0.19949364019E+03  0.23541984805E+03  0.12499916952E+03 0.  0.
    9000005    1    3    3    0    0 -0.19075715727E+02 -0.43081543995E+01  0.12036541462E+02  0.22985244292E+02  0.10000000000E+01 0.  0.
    9000005    1    3    3    0    0  0.19075715727E+02  0.43081543995E+01 -0.21153018165E+03  0.21243460376E+03  0.10000000000E+01 0.  0.
<mgrwt>
<rscale>  0 0.12499917E+03</rscale>
<asrwt>0</asrwt>
<pdfrwt beam="2">  1        4 0.33454882E-01 0.12499917E+03</pdfrwt>
<pdfrwt beam="1">  1       -4 0.27635546E-02 0.12499917E+03</pdfrwt>
<totfact> 0.84485829E+03</totfact>
</mgrwt>
</event>
<event>
 5    1  0.3243498E-002  0.1250021E+03  0.7818608E-02  0.1235066E+00
         -4   -1    0    0    0  501 -0.00000000000E+00  0.00000000000E+00  0.13398193250E+03  0.13398795146E+03  0.12700000000E+01 0. -1.
          4   -1    0    0  501    0  0.00000000000E+00 -0.00000000000E+00 -0.29135539547E+02  0.29163205665E+02  0.12700000000E+01 0. -1.
         25    2    1    2    0    0  0.00000000000E+00  0.00000000000E+00  0.10484639295E+03  0.16315115712E+03  0.12500213581E+03 0.  0.
    9000005    1    3    3    0    0 -0.41131191791E+02 -0.39111085006E+02  0.18289835497E+02  0.59640338622E+02  0.10000000000E+01 0.  0.
    9000005    1    3    3    0    0  0.41131191791E+02  0.39111085006E+02  0.86556557456E+02  0.10351081850E+03  0.10000000000E+01 0.  0.
<mgrwt>
<rscale>  0 0.12500214E+03</rscale>
<asrwt>0</asrwt>
<pdfrwt beam="2">  1        4 0.44849818E-02 0.12500214E+03</pdfrwt>
<pdfrwt beam="1">  1       -4 0.20615197E-01 0.12500214E+03</pdfrwt>
<totfact> 0.96734041E+03</totfact>
</mgrwt>
</event>
<event>
 5    1  0.3243498E-002  0.1250010E+03  0.7818608E-02  0.1235068E+00
         -4   -1    0    0    0  501 -0.00000000000E+00  0.00000000000E+00  0.59209861757E+01  0.60556566360E+01  0.12700000000E+01 0. -1.
          4   -1    0    0  501    0  0.00000000000E+00 -0.00000000000E+00 -0.65218649700E+03  0.65218773353E+03  0.12700000000E+01 0. -1.
         25    2    1    2    0    0  0.00000000000E+00  0.00000000000E+00 -0.64626551082E+03  0.65824339016E+03  0.12500100087E+03 0.  0.
    9000005    1    3    3    0    0 -0.73636162855E+01 -0.61869151338E+02 -0.29771538120E+03  0.30416683405E+03  0.10000000000E+01 0.  0.
    9000005    1    3    3    0    0  0.73636162855E+01  0.61869151338E+02 -0.34855012962E+03  0.35407655611E+03  0.10000000000E+01 0.  0.
<mgrwt>
<rscale>  0 0.12500100E+03</rscale>
<asrwt>0</asrwt>
<pdfrwt beam="2">  1        4 0.10034678E+00 0.12500100E+03</pdfrwt>
<pdfrwt beam="1">  1       -4 0.92137585E-03 0.12500100E+03</pdfrwt>
<totfact> 0.45383340E+03</totfact>
</mgrwt>
</event>
<event>
 5    1  0.3243498E-002  0.1250024E+03  0.7818608E-02  0.1235066E+00
         -4   -1    0    0    0  501 -0.00000000000E+00  0.00000000000E+00  0.93505555537E+02  0.93514179761E+02  0.12700000000E+01 0.  1.
          4   -1    0    0  501    0  0.00000000000E+00 -0.00000000000E+00 -0.41756986261E+02  0.41776294733E+02  0.12700000000E+01 0.  1.
         25    2    1    2    0    0  0.00000000000E+00  0.00000000000E+00  0.51748569276E+02  0.13529047449E+03  0.12500239224E+03 0.  0.
    9000005    1    3    3    0    0  0.23739393237E+01 -0.58337777544E+02  0.49989679014E+02  0.76869368962E+02  0.10000000000E+01 0.  0.
    9000005    1    3    3    0    0 -0.23739393237E+01  0.58337777544E+02  0.17588902619E+01  0.58421105532E+02  0.10000000000E+01 0.  0.
<mgrwt>
<rscale>  0 0.12500239E+03</rscale>
<asrwt>0</asrwt>
<pdfrwt beam="2">  1        4 0.64263004E-02 0.12500239E+03</pdfrwt>
<pdfrwt beam="1">  1       -4 0.14387619E-01 0.12500239E+03</pdfrwt>
<totfact> 0.10231400E+04</totfact>
</mgrwt>
</event>
<event>
 5    1  0.3243498E-002  0.1249978E+03  0.7818608E-02  0.1235073E+00
          4   -1    0    0  501    0  0.00000000000E+00  0.00000000000E+00  0.14667124180E+03  0.14667674005E+03  0.12700000000E+01 0. -1.
         -4   -1    0    0    0  501 -0.00000000000E+00 -0.00000000000E+00 -0.26610618336E+02  0.26640906671E+02  0.12700000000E+01 0. -1.
         25    2    1    2    0    0  0.00000000000E+00  0.00000000000E+00  0.12006062346E+03  0.17331764672E+03  0.12499781341E+03 0.  0.
    9000005    1    3    3    0    0  0.26694468156E+02  0.55909248064E+02  0.71352252296E+02  0.94501759544E+02  0.10000000000E+01 0.  0.
    9000005    1    3    3    0    0 -0.26694468156E+02 -0.55909248064E+02  0.48708371167E+02  0.78815887174E+02  0.10000000000E+01 0.  0.
<mgrwt>
<rscale>  0 0.12499781E+03</rscale>
<asrwt>0</asrwt>
<pdfrwt beam="1">  1        4 0.22567559E-01 0.12499781E+03</pdfrwt>
<pdfrwt beam="2">  1       -4 0.40966941E-02 0.12499781E+03</pdfrwt>
<totfact> 0.94838518E+03</totfact>
</mgrwt>
</event>
<event>
 5    1  0.3243498E-002  0.1249986E+03  0.7818608E-02  0.1235071E+00
         -4   -1    0    0    0  501 -0.00000000000E+00  0.00000000000E+00  0.67192558620E+02  0.67204559622E+02  0.12700000000E+01 0.  1.
          4   -1    0    0  501    0  0.00000000000E+00 -0.00000000000E+00 -0.58109765104E+02  0.58123641493E+02  0.12700000000E+01 0.  1.
         25    2    1    2    0    0  0.00000000000E+00  0.00000000000E+00  0.90827935165E+01  0.12532820112E+03  0.12499864342E+03 0.  0.
    9000005    1    3    3    0    0 -0.59451836985E+02  0.18226486697E+02 -0.16749071110E+01  0.62213592181E+02  0.10000000000E+01 0.  0.
    9000005    1    3    3    0    0  0.59451836985E+02 -0.18226486697E+02  0.10757700627E+02  0.63114608935E+02  0.10000000000E+01 0.  0.
<mgrwt>
<rscale>  0 0.12499864E+03</rscale>
<asrwt>0</asrwt>
<pdfrwt beam="2">  1        4 0.89419544E-02 0.12499864E+03</pdfrwt>
<pdfrwt beam="1">  1       -4 0.10339307E-01 0.12499864E+03</pdfrwt>
<totfact> 0.10446058E+04</totfact>
</mgrwt>
</event>
<event>
 5    1  0.3243498E-002  0.1249995E+03  0.7818608E-02  0.1235070E+00
         -4   -1    0    0    0  501 -0.00000000000E+00  0.00000000000E+00  0.76568095232E+03  0.76568200556E+03  0.12700000000E+01 0.  1.
          4   -1    0    0  501    0  0.00000000000E+00 -0.00000000000E+00 -0.50215161446E+01  0.51796258929E+01  0.12700000000E+01 0.  1.
         25    2    1    2    0    0  0.00000000000E+00  0.00000000000E+00  0.76065943618E+03  0.77086163146E+03  0.12499950804E+03 0.  0.
    9000005    1    3    3    0    0  0.48442211505E+02  0.33358148937E+02  0.51053863851E+03  0.51391644785E+03  0.10000000000E+01 0.  0.
    9000005    1    3    3    0    0 -0.48442211505E+02 -0.33358148937E+02  0.25012079766E+03  0.25694518361E+03  0.10000000000E+01 0.  0.
<mgrwt>
<rscale>  0 0.12499951E+03</rscale>
<asrwt>0</asrwt>
<pdfrwt beam="2">  1        4 0.78478474E-03 0.12499951E+03</pdfrwt>
<pdfrwt beam="1">  1       -4 0.11780924E+00 0.12499951E+03</pdfrwt>
<totfact> 0.39596081E+03</totfact>
</mgrwt>
</event>
<event>
 5    1  0.3243498E-002  0.1249957E+03  0.7818608E-02  0.1235076E+00
         -4   -1    0    0    0  501 -0.00000000000E+00  0.00000000000E+00  0.37839752649E+02  0.37861058893E+02  0.12700000000E+01 0.  1.
          4   -1    0    0  501    0  0.00000000000E+00 -0.00000000000E+00 -0.10316994071E+03  0.10317775713E+03  0.12700000000E+01 0.  1.
         25    2    1    2    0    0  0.00000000000E+00  0.00000000000E+00 -0.65330188064E+02  0.14103881602E+03  0.12499565654E+03 0.  0.
    9000005    1    3    3    0    0 -0.29740797327E+02  0.36476943963E+02  0.13719496778E+02  0.49033733882E+02  0.10000000000E+01 0.  0.
    9000005    1    3    3    0    0  0.29740797327E+02 -0.36476943963E+02 -0.79049684841E+02  0.92005082143E+02  0.10000000000E+01 0.  0.
<mgrwt>
<rscale>  0 0.12499566E+03</rscale>
<asrwt>0</asrwt>
<pdfrwt beam="2">  1        4 0.15874539E-01 0.12499566E+03</pdfrwt>
<pdfrwt beam="1">  1       -4 0.58237407E-02 0.12499566E+03</pdfrwt>
<totfact> 0.10113091E+04</totfact>
</mgrwt>
</event>
<event>
 5    1  0.3243498E-002  0.1250033E+03  0.7818608E-02  0.1235064E+00
         -4   -1    0    0    0  501 -0.00000000000E+00  0.00000000000E+00  0.36605863604E+02  0.36627887603E+02  0.12700000000E+01 0. -1.
          4   -1    0    0  501    0  0.00000000000E+00 -0.00000000000E+00 -0.10665877215E+03  0.10666633291E+03  0.12700000000E+01 0. -1.
         25    2    1    2    0    0  0.00000000000E+00  0.00000000000E+00 -0.70052908546E+02  0.14329422051E+03  0.12500329450E+03 0.  0.
    9000005    1    3    3    0    0 -0.45960768211E+02 -0.14910780424E+02 -0.80458082886E+02  0.93857480730E+02  0.10000000000E+01 0.  0.
    9000005    1    3    3    0    0  0.45960768211E+02  0.14910780424E+02  0.10405174340E+02  0.49436739783E+02  0.10000000000E+01 0.  0.
<mgrwt>
<rscale>  0 0.12500329E+03</rscale>
<asrwt>0</asrwt>
<pdfrwt beam="2">  1        4 0.16411317E-01 0.12500329E+03</pdfrwt>
<pdfrwt beam="1">  1       -4 0.56339471E-02 0.12500329E+03</pdfrwt>
<totfact> 0.10065015E+04</totfact>
</mgrwt>
</event>
<event>
 4    1  0.3243498E-002  0.1248387E+03  0.7818608E-02  0.1235322E+00
         -4   -1    0    0    0  501 -0.00000000000E+00  0.00000000000E+00  0.63984428489E+01  0.65232638219E+01  0.12700000000E+01 0. -1.
          4   -1    0    0  501    0  0.00000000000E+00 -0.00000000000E+00 -0.60291795891E+03  0.60291929648E+03  0.12700000000E+01 0. -1.
    9000005    1    1    2    0    0  0.46888612892E+02 -0.18334297586E+01 -0.97375048679E+02  0.10809627000E+03  0.10000000000E+01 0.  0.
    9000005    1    1    2    0    0 -0.46888612892E+02  0.18334297586E+01 -0.49914446738E+03  0.50134629030E+03  0.10000000000E+01 0.  0.
<mgrwt>
<rscale>  0 0.12483870E+03</rscale>
<asrwt>0</asrwt>
<pdfrwt beam="2">  1        4 0.92766269E-01 0.12483870E+03</pdfrwt>
<pdfrwt beam="1">  1       -4 0.99408081E-03 0.12483870E+03</pdfrwt>
<totfact> 0.48448070E+03</totfact>
</mgrwt>
</event>
<event>
 5    1  0.3243498E-002  0.1250015E+03  0.7818608E-02  0.1235067E+00
          4   -1    0    0  501    0  0.00000000000E+00  0.00000000000E+00  0.27361362556E+02  0.27390820742E+02  0.12700000000E+01 0. -1.
         -4   -1    0    0    0  501 -0.00000000000E+00 -0.00000000000E+00 -0.14265959041E+03  0.14266524326E+03  0.12700000000E+01 0. -1.
         25    2    1    2    0    0  0.00000000000E+00  0.00000000000E+00 -0.11529822785E+03  0.17005606400E+03  0.12500153423E+03 0.  0.
    9000005    1    3    3    0    0  0.40686464675E+02  0.16160026031E+02 -0.11831905047E+03  0.12616232620E+03  0.10000000000E+01 0.  0.
    9000005    1    3    3    0    0 -0.40686464675E+02 -0.16160026031E+02  0.30208226157E+01  0.43893737803E+02  0.10000000000E+01 0.  0.
<mgrwt>
<rscale>  0 0.12500153E+03</rscale>
<asrwt>0</asrwt>
<pdfrwt beam="1">  1        4 0.42121413E-02 0.12500153E+03</pdfrwt>
<pdfrwt beam="2">  1       -4 0.21950330E-01 0.12500153E+03</pdfrwt>
<totfact> 0.95434902E+03</totfact>
</mgrwt>
</event>
<event>
 5    1  0.3243498E-002  0.1250073E+03  0.7818608E-02  0.1235058E+00
         -4   -1    0    0    0  501 -0.00000000000E+00  0.00000000000E+00  0.21748606422E+02  0.21785655402E+02  0.12700000000E+01 0. -1.
          4   -1    0    0  501    0  0.00000000000E+00 -0.00000000000E+00 -0.17943803765E+03  0.17944253190E+03  0.12700000000E+01 0. -1.
         25    2    1    2    0    0  0.00000000000E+00  0.00000000000E+00 -0.15768943123E+03  0.20122818730E+03  0.12500730637E+03 0.  0.
    9000005    1    3    3    0    0  0.49636023887E+02 -0.30149074969E+02 -0.41681003358E+02  0.71491311568E+02  0.10000000000E+01 0.  0.
    9000005    1    3    3    0    0 -0.49636023887E+02  0.30149074969E+02 -0.11600842787E+03  0.12973687574E+03  0.10000000000E+01 0.  0.
<mgrwt>
<rscale>  0 0.12500731E+03</rscale>
<asrwt>0</asrwt>
<pdfrwt beam="2">  1        4 0.27609047E-01 0.12500731E+03</pdfrwt>
<pdfrwt beam="1">  1       -4 0.33491352E-02 0.12500731E+03</pdfrwt>
<totfact> 0.89914076E+03</totfact>
</mgrwt>
</event>
<event>
 5    1  0.3243498E-002  0.1250049E+03  0.7818608E-02  0.1235062E+00
          4   -1    0    0  501    0  0.00000000000E+00  0.00000000000E+00  0.15113523315E+02  0.15166788948E+02  0.12700000000E+01 0. -1.
         -4   -1    0    0    0  501 -0.00000000000E+00 -0.00000000000E+00 -0.25797129000E+03  0.25797441610E+03  0.12700000000E+01 0. -1.
         25    2    1    2    0    0  0.00000000000E+00  0.00000000000E+00 -0.24285776668E+03  0.27314120505E+03  0.12500489213E+03 0.  0.
    9000005    1    3    3    0    0 -0.35776044571E+02  0.63381046498E+01 -0.10325054802E+02  0.37784966486E+02  0.10000000000E+01 0.  0.
    9000005    1    3    3    0    0  0.35776044571E+02 -0.63381046498E+01 -0.23253271188E+03  0.23535623856E+03  0.10000000000E+01 0.  0.
<mgrwt>
<rscale>  0 0.12500489E+03</rscale>
<asrwt>0</asrwt>
<pdfrwt beam="1">  1        4 0.23294955E-02 0.12500489E+03</pdfrwt>
<pdfrwt beam="2">  1       -4 0.39692225E-01 0.12500489E+03</pdfrwt>
<totfact> 0.79087807E+03</totfact>
</mgrwt>
</event>
<event>
 5    1  0.3243498E-002  0.1250005E+03  0.7818608E-02  0.1235068E+00
         -4   -1    0    0    0  501 -0.00000000000E+00  0.00000000000E+00  0.96968706007E+01  0.97796829932E+01  0.12700000000E+01 0. -1.
          4   -1    0    0  501    0  0.00000000000E+00 -0.00000000000E+00 -0.40104291626E+03  0.40104492714E+03  0.12700000000E+01 0. -1.
         25    2    1    2    0    0  0.00000000000E+00  0.00000000000E+00 -0.39134604566E+03  0.41082461013E+03  0.12500053134E+03 0.  0.
    9000005    1    3    3    0    0  0.57982876292E+02 -0.19984103138E+02 -0.15624705484E+03  0.16785565367E+03  0.10000000000E+01 0.  0.
    9000005    1    3    3    0    0 -0.57982876292E+02  0.19984103138E+02 -0.23509899082E+03  0.24296895646E+03  0.10000000000E+01 0.  0.
<mgrwt>
<rscale>  0 0.12500053E+03</rscale>
<asrwt>0</asrwt>
<pdfrwt beam="2">  1        4 0.61705422E-01 0.12500053E+03</pdfrwt>
<pdfrwt beam="1">  1       -4 0.14983514E-02 0.12500053E+03</pdfrwt>
<totfact> 0.63512704E+03</totfact>
</mgrwt>
</event>
<event>
 5    1  0.3243498E-002  0.1249998E+03  0.7818608E-02  0.1235070E+00
         -4   -1    0    0    0  501 -0.00000000000E+00  0.00000000000E+00  0.10337661700E+04  0.10337669501E+04  0.12700000000E+01 0.  1.
          4   -1    0    0  501    0  0.00000000000E+00 -0.00000000000E+00 -0.36711342241E+01  0.38846012011E+01  0.12700000000E+01 0.  1.
         25    2    1    2    0    0  0.00000000000E+00  0.00000000000E+00  0.10300950358E+04  0.10376515513E+04  0.12499983682E+03 0.  0.
    9000005    1    3    3    0    0 -0.37437205780E+02  0.14422444520E+02  0.91278688171E+03  0.91366867228E+03  0.10000000000E+01 0.  0.
    9000005    1    3    3    0    0  0.37437205780E+02 -0.14422444520E+02  0.11730815408E+03  0.12398287905E+03  0.10000000000E+01 0.  0.
<mgrwt>
<rscale>  0 0.12499984E+03</rscale>
<asrwt>0</asrwt>
<pdfrwt beam="2">  1        4 0.58126984E-03 0.12499984E+03</pdfrwt>
<pdfrwt beam="1">  1       -4 0.15905759E+00 0.12499984E+03</pdfrwt>
<totfact> 0.29383559E+03</totfact>
</mgrwt>
</event>
<event>
 5    1  0.3243498E-002  0.1250127E+03  0.7818608E-02  0.1235049E+00
         -4   -1    0    0    0  501 -0.00000000000E+00  0.00000000000E+00  0.14774047697E+02  0.14828532812E+02  0.12700000000E+01 0.  1.
          4   -1    0    0  501    0  0.00000000000E+00 -0.00000000000E+00 -0.26391033506E+03  0.26391339081E+03  0.12700000000E+01 0.  1.
         25    2    1    2    0    0  0.00000000000E+00  0.00000000000E+00 -0.24913628736E+03  0.27874192362E+03  0.12501268058E+03 0.  0.
    9000005    1    3    3    0    0  0.45550084530E+02 -0.40089443898E+02 -0.91191782912E+02  0.10953955899E+03  0.10000000000E+01 0.  0.
    9000005    1    3    3    0    0 -0.45550084530E+02  0.40089443898E+02 -0.15794450445E+03  0.16920236463E+03  0.10000000000E+01 0.  0.
<mgrwt>
<rscale>  0 0.12501268E+03</rscale>
<asrwt>0</asrwt>
<pdfrwt beam="2">  1        4 0.40606013E-01 0.12501268E+03</pdfrwt>
<pdfrwt beam="1">  1       -4 0.22773568E-02 0.12501268E+03</pdfrwt>
<totfact> 0.78323134E+03</totfact>
</mgrwt>
</event>
<event>
 5    1  0.3243498E-002  0.1249767E+03  0.7818608E-02  0.1235106E+00
          4   -1    0    0  501    0  0.00000000000E+00  0.00000000000E+00  0.13498275374E+02  0.13557888408E+02  0.12700000000E+01 0. -1.
         -4   -1    0    0    0  501 -0.00000000000E+00 -0.00000000000E+00 -0.28858234498E+03  0.28858513949E+03  0.12700000000E+01 0. -1.
         25    2    1    2    0    0  0.00000000000E+00  0.00000000000E+00 -0.27508406961E+03  0.30214302790E+03  0.12497665365E+03 0.  0.
    9000005    1    3    3    0    0 -0.48140116376E+02 -0.35139156425E+02 -0.18287178575E+03  0.19234167812E+03  0.10000000000E+01 0.  0.
    9000005    1    3    3    0    0  0.48140116376E+02  0.35139156425E+02 -0.92212283857E+02  0.10980134978E+03  0.10000000000E+01 0.  0.
<mgrwt>
<rscale>  0 0.12497665E+03</rscale>
<asrwt>0</asrwt>
<pdfrwt beam="1">  1        4 0.20814585E-02 0.12497665E+03</pdfrwt>
<pdfrwt beam="2">  1       -4 0.44402080E-01 0.12497665E+03</pdfrwt>
<totfact> 0.75369857E+03</totfact>
</mgrwt>
</event>
<event>
 5    1  0.3243498E-002  0.1249980E+03  0.7818608E-02  0.1235072E+00
         -4   -1    0    0    0  501 -0.00000000000E+00  0.00000000000E+00  0.28483843227E+02  0.28512141711E+02  0.12700000000E+01 0.  1.
          4   -1    0    0  501    0  0.00000000000E+00 -0.00000000000E+00 -0.13703534608E+03  0.13704123093E+03  0.12700000000E+01 0.  1.
         25    2    1    2    0    0  0.00000000000E+00  0.00000000000E+00 -0.10855150285E+03  0.16555337264E+03  0.12499796167E+03 0.  0.
    9000005    1    3    3    0    0  0.24391065557E+02 -0.36627601846E+02  0.44888440940E+01  0.44245395436E+02  0.10000000000E+01 0.  0.
    9000005    1    3    3    0    0 -0.24391065557E+02  0.36627601846E+02 -0.11304034695E+03  0.12130797721E+03  0.10000000000E+01 0.  0.
<mgrwt>
<rscale>  0 0.12499796E+03</rscale>
<asrwt>0</asrwt>
<pdfrwt beam="2">  1        4 0.21084990E-01 0.12499796E+03</pdfrwt>
<pdfrwt beam="1">  1       -4 0.43847593E-02 0.12499796E+03</pdfrwt>
<totfact> 0.96287104E+03</totfact>
</mgrwt>
</event>
<event>
 5    1  0.3243498E-002  0.1249952E+03  0.7818608E-02  0.1235077E+00
         -4   -1    0    0    0  501 -0.00000000000E+00  0.00000000000E+00  0.33430922948E+02  0.33455037126E+02  0.12700000000E+01 0.  1.
          4   -1    0    0  501    0  0.00000000000E+00 -0.00000000000E+00 -0.11676674777E+03  0.11677365407E+03  0.12700000000E+01 0.  1.
         25    2    1    2    0    0  0.00000000000E+00  0.00000000000E+00 -0.83335824827E+02  0.15022869120E+03  0.12499519975E+03 0.  0.
    9000005    1    3    3    0    0 -0.30245718274E+02 -0.54082581605E+02 -0.31961630829E+02  0.69730014715E+02  0.10000000000E+01 0.  0.
    9000005    1    3    3    0    0  0.30245718274E+02  0.54082581605E+02 -0.51374193997E+02  0.80498676485E+02  0.10000000000E+01 0.  0.
<mgrwt>
<rscale>  0 0.12499520E+03</rscale>
<asrwt>0</asrwt>
<pdfrwt beam="2">  1        4 0.17966501E-01 0.12499520E+03</pdfrwt>
<pdfrwt beam="1">  1       -4 0.51456052E-02 0.12499520E+03</pdfrwt>
<totfact> 0.99268855E+03</totfact>
</mgrwt>
</event>
<event>
 5    1  0.3243498E-002  0.1249981E+03  0.7818608E-02  0.1235072E+00
         -4   -1    0    0    0  501 -0.00000000000E+00  0.00000000000E+00  0.68394004804E+03  0.68394122717E+03  0.12700000000E+01 0.  1.
          4   -1    0    0  501    0  0.00000000000E+00 -0.00000000000E+00 -0.56394182341E+01  0.57806520410E+01  0.12700000000E+01 0.  1.
         25    2    1    2    0    0  0.00000000000E+00  0.00000000000E+00  0.67830062981E+03  0.68972187921E+03  0.12499810502E+03 0.  0.
    9000005    1    3    3    0    0  0.21922030384E+02 -0.46144316494E+02  0.14056425943E+03  0.14956331231E+03  0.10000000000E+01 0.  0.
    9000005    1    3    3    0    0 -0.21922030384E+02  0.46144316494E+02  0.53773637038E+03  0.54015856689E+03  0.10000000000E+01 0.  0.
<mgrwt>
<rscale>  0 0.12499811E+03</rscale>
<asrwt>0</asrwt>
<pdfrwt beam="2">  1        4 0.87855788E-03 0.12499811E+03</pdfrwt>
<pdfrwt beam="1">  1       -4 0.10523247E+00 0.12499811E+03</pdfrwt>
<totfact> 0.43636659E+03</totfact>
</mgrwt>
</event>
<event>
 5    1  0.3243498E-002  0.1250000E+03  0.7818608E-02  0.1235069E+00
         -4   -1    0    0    0  501 -0.00000000000E+00  0.00000000000E+00  0.42020230030E+02  0.42039417596E+02  0.12700000000E+01 0.  1.
          4   -1    0    0  501    0  0.00000000000E+00 -0.00000000000E+00 -0.92916376645E+02  0.92925055549E+02  0.12700000000E+01 0.  1.
         25    2    1    2    0    0  0.00000000000E+00  0.00000000000E+00 -0.50896146614E+02  0.13496447314E+03  0.12499996508E+03 0.  0.
    9000005    1    3    3    0    0  0.79402028786E+01 -0.44081445114E+02  0.21603609842E+02  0.49738682967E+02  0.10000000000E+01 0.  0.
    9000005    1    3    3    0    0 -0.79402028786E+01  0.44081445114E+02 -0.72499756457E+02  0.85225790177E+02  0.10000000000E+01 0.  0.
<mgrwt>
<rscale>  0 0.12499997E+03</rscale>
<asrwt>0</asrwt>
<pdfrwt beam="2">  1        4 0.14296971E-01 0.12499997E+03</pdfrwt>
<pdfrwt beam="1">  1       -4 0.64667944E-02 0.12499997E+03</pdfrwt>
<totfact> 0.10238828E+04</totfact>
</mgrwt>
</event>
<event>
 5    1  0.3243498E-002  0.1250481E+03  0.7818608E-02  0.1234994E+00
         -4   -1    0    0    0  501 -0.00000000000E+00  0.00000000000E+00  0.13511990872E+02  0.13571543660E+02  0.12700000000E+01 0.  1.
          4   -1    0    0  501    0  0.00000000000E+00 -0.00000000000E+00 -0.28862065412E+03  0.28862344826E+03  0.12700000000E+01 0.  1.
         25    2    1    2    0    0  0.00000000000E+00  0.00000000000E+00 -0.27510866325E+03  0.30219499192E+03  0.12504813692E+03 0.  0.
    9000005    1    3    3    0    0 -0.11080639742E+02  0.56048336876E+02 -0.19888448370E+03  0.20693050645E+03  0.10000000000E+01 0.  0.
    9000005    1    3    3    0    0  0.11080639742E+02 -0.56048336876E+02 -0.76224179548E+02  0.95264485468E+02  0.10000000000E+01 0.  0.
<mgrwt>
<rscale>  0 0.12504814E+03</rscale>
<asrwt>0</asrwt>
<pdfrwt beam="2">  1        4 0.44407969E-01 0.12504814E+03</pdfrwt>
<pdfrwt beam="1">  1       -4 0.20835639E-02 0.12504814E+03</pdfrwt>
<totfact> 0.75243904E+03</totfact>
</mgrwt>
</event>
<event>
 5    1  0.3243498E-002  0.1249934E+03  0.7818608E-02  0.1235080E+00
         -4   -1    0    0    0  501 -0.00000000000E+00  0.00000000000E+00  0.18481278003E+02  0.18524862662E+02  0.12700000000E+01 0.  1.
          4   -1    0    0  501    0  0.00000000000E+00 -0.00000000000E+00 -0.21104589155E+03  0.21104971272E+03  0.12700000000E+01 0.  1.
         25    2    1    2    0    0  0.00000000000E+00  0.00000000000E+00 -0.19256461354E+03  0.22957457538E+03  0.12499342091E+03 0.  0.
    9000005    1    3    3    0    0  0.45764510689E+02  0.17277141963E+02 -0.24864720215E+02  0.54883006336E+02  0.10000000000E+01 0.  0.
    9000005    1    3    3    0    0 -0.45764510689E+02 -0.17277141963E+02 -0.16769989333E+03  0.17469156904E+03  0.10000000000E+01 0.  0.
<mgrwt>
<rscale>  0 0.12499342E+03</rscale>
<asrwt>0</asrwt>
<pdfrwt beam="2">  1        4 0.32472244E-01 0.12499342E+03</pdfrwt>
<pdfrwt beam="1">  1       -4 0.28469203E-02 0.12499342E+03</pdfrwt>
<totfact> 0.85387499E+03</totfact>
</mgrwt>
</event>
<event>
 5    1  0.3243498E-002  0.1249974E+03  0.7818608E-02  0.1235073E+00
          4   -1    0    0  501    0  0.00000000000E+00  0.00000000000E+00  0.16152269458E+02  0.16202120498E+02  0.12700000000E+01 0. -1.
         -4   -1    0    0    0  501 -0.00000000000E+00 -0.00000000000E+00 -0.24140505704E+03  0.24140839767E+03  0.12700000000E+01 0. -1.
         25    2    1    2    0    0  0.00000000000E+00  0.00000000000E+00 -0.22525278758E+03  0.25761051817E+03  0.12499744300E+03 0.  0.
    9000005    1    3    3    0    0  0.60876797479E+02  0.12671908662E+02 -0.12541882892E+03  0.13999087252E+03  0.10000000000E+01 0.  0.
    9000005    1    3    3    0    0 -0.60876797479E+02 -0.12671908662E+02 -0.99833958662E+02  0.11761964565E+03  0.10000000000E+01 0.  0.
<mgrwt>
<rscale>  0 0.12499744E+03</rscale>
<asrwt>0</asrwt>
<pdfrwt beam="1">  1        4 0.24890564E-02 0.12499744E+03</pdfrwt>
<pdfrwt beam="2">  1       -4 0.37143329E-01 0.12499744E+03</pdfrwt>
<totfact> 0.81247190E+03</totfact>
</mgrwt>
</event>
<event>
 5    1  0.3243498E-002  0.1249852E+03  0.7818608E-02  0.1235092E+00
         -4   -1    0    0    0  501 -0.00000000000E+00  0.00000000000E+00  0.25531606657E+03  0.25531922518E+03  0.12700000000E+01 0.  1.
          4   -1    0    0  501    0  0.00000000000E+00 -0.00000000000E+00 -0.15266408948E+02  0.15319142997E+02  0.12700000000E+01 0.  1.
         25    2    1    2    0    0  0.00000000000E+00  0.00000000000E+00  0.24004965762E+03  0.27063836818E+03  0.12498515195E+03 0.  0.
    9000005    1    3    3    0    0  0.26511806986E+02  0.48595796916E+02  0.18277910934E+03  0.19098070635E+03  0.10000000000E+01 0.  0.
    9000005    1    3    3    0    0 -0.26511806986E+02 -0.48595796916E+02  0.57270548280E+02  0.79657661828E+02  0.10000000000E+01 0.  0.
<mgrwt>
<rscale>  0 0.12498515E+03</rscale>
<asrwt>0</asrwt>
<pdfrwt beam="2">  1        4 0.23529779E-02 0.12498515E+03</pdfrwt>
<pdfrwt beam="1">  1       -4 0.39283691E-01 0.12498515E+03</pdfrwt>
<totfact> 0.79462157E+03</totfact>
</mgrwt>
</event>
<event>
 5    1  0.3243498E-002  0.1250001E+03  0.7818608E-02  0.1235069E+00
          4   -1    0    0  501    0  0.00000000000E+00  0.00000000000E+00  0.19507721777E+03  0.19508135173E+03  0.12700000000E+01 0. -1.
         -4   -1    0    0    0  501 -0.00000000000E+00 -0.00000000000E+00 -0.19999679512E+02  0.20039962090E+02  0.12700000000E+01 0. -1.
         25    2    1    2    0    0  0.00000000000E+00  0.00000000000E+00  0.17507753826E+03  0.21512131382E+03  0.12500014103E+03 0.  0.
    9000005    1    3    3    0    0  0.31261191639E+02  0.52091339933E+02  0.62334421175E+02  0.87047974485E+02  0.10000000000E+01 0.  0.
    9000005    1    3    3    0    0 -0.31261191639E+02 -0.52091339933E+02  0.11274311708E+03  0.12807333933E+03  0.10000000000E+01 0.  0.
<mgrwt>
<rscale>  0 0.12500014E+03</rscale>
<asrwt>0</asrwt>
<pdfrwt beam="1">  1        4 0.30015295E-01 0.12500014E+03</pdfrwt>
<pdfrwt beam="2">  1       -4 0.30802906E-02 0.12500014E+03</pdfrwt>
<totfact> 0.87645998E+03</totfact>
</mgrwt>
</event>
<event>
 5    1  0.3243498E-002  0.1250056E+03  0.7818608E-02  0.1235060E+00
          4   -1    0    0  501    0  0.00000000000E+00  0.00000000000E+00  0.48784532722E+01  0.50410521054E+01  0.12700000000E+01 0. -1.
         -4   -1    0    0    0  501 -0.00000000000E+00 -0.00000000000E+00 -0.78749741279E+03  0.78749843685E+03  0.12700000000E+01 0. -1.
         25    2    1    2    0    0  0.00000000000E+00  0.00000000000E+00 -0.78261895952E+03  0.79253948896E+03  0.12500562294E+03 0.  0.
    9000005    1    3    3    0    0 -0.54103557521E+01 -0.43410882032E+00  0.34123520165E+01  0.64888015933E+01  0.10000000000E+01 0.  0.
    9000005    1    3    3    0    0  0.54103557521E+01  0.43410882032E+00 -0.78603131153E+03  0.78605068737E+03  0.10000000000E+01 0.  0.
<mgrwt>
<rscale>  0 0.12500562E+03</rscale>
<asrwt>0</asrwt>
<pdfrwt beam="1">  1        4 0.76311827E-03 0.12500562E+03</pdfrwt>
<pdfrwt beam="2">  1       -4 0.12116594E+00 0.12500562E+03</pdfrwt>
<totfact> 0.38595247E+03</totfact>
</mgrwt>
</event>
<event>
 5    1  0.3243498E-002  0.1250019E+03  0.7818608E-02  0.1235066E+00
         -4   -1    0    0    0  501 -0.00000000000E+00  0.00000000000E+00  0.11233972781E+03  0.11234690625E+03  0.12700000000E+01 0.  1.
          4   -1    0    0  501    0  0.00000000000E+00 -0.00000000000E+00 -0.34752918987E+02  0.34776116490E+02  0.12700000000E+01 0.  1.
         25    2    1    2    0    0  0.00000000000E+00  0.00000000000E+00  0.77586808819E+02  0.14712302274E+03  0.12500188365E+03 0.  0.
    9000005    1    3    3    0    0  0.40947136937E+02  0.47098360214E+02  0.42597058972E+02  0.75567406938E+02  0.10000000000E+01 0.  0.
    9000005    1    3    3    0    0 -0.40947136937E+02 -0.47098360214E+02  0.34989749846E+02  0.71555615800E+02  0.10000000000E+01 0.  0.
<mgrwt>
<rscale>  0 0.12500188E+03</rscale>
<asrwt>0</asrwt>
<pdfrwt beam="2">  1        4 0.53489396E-02 0.12500188E+03</pdfrwt>
<pdfrwt beam="1">  1       -4 0.17285371E-01 0.12500188E+03</pdfrwt>
<totfact> 0.99876068E+03</totfact>
</mgrwt>
</event>
<event>
 5    1  0.3243498E-002  0.1249984E+03  0.7818608E-02  0.1235072E+00
         -4   -1    0    0    0  501 -0.00000000000E+00  0.00000000000E+00  0.97727814253E+03  0.97727896773E+03  0.12700000000E+01 0.  1.
          4   -1    0    0  501    0  0.00000000000E+00 -0.00000000000E+00 -0.38952410846E+01  0.40970480967E+01  0.12700000000E+01 0.  1.
         25    2    1    2    0    0  0.00000000000E+00  0.00000000000E+00  0.97338290145E+03  0.98137601583E+03  0.12499844644E+03 0.  0.
    9000005    1    3    3    0    0  0.33731642637E+02  0.21367568826E+02  0.86409665720E+03  0.86501932331E+03  0.10000000000E+01 0.  0.
    9000005    1    3    3    0    0 -0.33731642637E+02 -0.21367568826E+02  0.10928624425E+03  0.11635669252E+03  0.10000000000E+01 0.  0.
<mgrwt>
<rscale>  0 0.12499845E+03</rscale>
<asrwt>0</asrwt>
<pdfrwt beam="2">  1        4 0.61485490E-03 0.12499845E+03</pdfrwt>
<pdfrwt beam="1">  1       -4 0.15036608E+00 0.12499845E+03</pdfrwt>
<totfact> 0.31228582E+03</totfact>
</mgrwt>
</event>
<event>
 5    1  0.3243498E-002  0.1250032E+03  0.7818608E-02  0.1235064E+00
          4   -1    0    0  501    0  0.00000000000E+00  0.00000000000E+00  0.12753195637E+03  0.12753827973E+03  0.12700000000E+01 0. -1.
         -4   -1    0    0    0  501 -0.00000000000E+00 -0.00000000000E+00 -0.30610889275E+02  0.30637223148E+02  0.12700000000E+01 0. -1.
         25    2    1    2    0    0  0.00000000000E+00  0.00000000000E+00  0.96921067100E+02  0.15817550288E+03  0.12500318581E+03 0.  0.
    9000005    1    3    3    0    0  0.19309282995E+02  0.19492340760E+02  0.11950920766E+03  0.12262238977E+03  0.10000000000E+01 0.  0.
    9000005    1    3    3    0    0 -0.19309282995E+02 -0.19492340760E+02 -0.22588140555E+02  0.35553113110E+02  0.10000000000E+01 0.  0.
<mgrwt>
<rscale>  0 0.12500319E+03</rscale>
<asrwt>0</asrwt>
<pdfrwt beam="1">  1        4 0.19622813E-01 0.12500319E+03</pdfrwt>
<pdfrwt beam="2">  1       -4 0.47118798E-02 0.12500319E+03</pdfrwt>
<totfact> 0.97688694E+03</totfact>
</mgrwt>
</event>
<event>
 5    1  0.3243498E-002  0.1249953E+03  0.7818608E-02  0.1235077E+00
         -4   -1    0    0    0  501 -0.00000000000E+00  0.00000000000E+00  0.41683126963E+01  0.43574913349E+01  0.12700000000E+01 0.  1.
          4   -1    0    0  501    0  0.00000000000E+00 -0.00000000000E+00 -0.91607766896E+03  0.91607854929E+03  0.12700000000E+01 0.  1.
         25    2    1    2    0    0  0.00000000000E+00  0.00000000000E+00 -0.91190935626E+03  0.92043604062E+03  0.12499532326E+03 0.  0.
    9000005    1    3    3    0    0  0.13544871400E+01 -0.34967099371E+02 -0.83719750783E+03  0.83792911382E+03  0.10000000000E+01 0.  0.
    9000005    1    3    3    0    0 -0.13544871400E+01  0.34967099371E+02 -0.74711848431E+02  0.82506926799E+02  0.10000000000E+01 0.  0.
<mgrwt>
<rscale>  0 0.12499532E+03</rscale>
<asrwt>0</asrwt>
<pdfrwt beam="2">  1        4 0.14094949E+00 0.12499532E+03</pdfrwt>
<pdfrwt beam="1">  1       -4 0.65589953E-03 0.12499532E+03</pdfrwt>
<totfact> 0.33392827E+03</totfact>
</mgrwt>
</event>
<event>
 5    1  0.3243498E-002  0.1250001E+03  0.7818608E-02  0.1235069E+00
          4   -1    0    0  501    0  0.00000000000E+00  0.00000000000E+00  0.38024574054E+02  0.38045776795E+02  0.12700000000E+01 0. -1.
         -4   -1    0    0    0  501 -0.00000000000E+00 -0.00000000000E+00 -0.10267595898E+03  0.10268381301E+03  0.12700000000E+01 0. -1.
         25    2    1    2    0    0  0.00000000000E+00  0.00000000000E+00 -0.64651384931E+02  0.14072958980E+03  0.12500006349E+03 0.  0.
    9000005    1    3    3    0    0 -0.21535923640E+02  0.48927129017E+02 -0.68765132192E+02  0.87105128243E+02  0.10000000000E+01 0.  0.
    9000005    1    3    3    0    0  0.21535923640E+02 -0.48927129017E+02  0.41137472614E+01  0.53624461558E+02  0.10000000000E+01 0.  0.
<mgrwt>
<rscale>  0 0.12500006E+03</rscale>
<asrwt>0</asrwt>
<pdfrwt beam="1">  1        4 0.58521696E-02 0.12500006E+03</pdfrwt>
<pdfrwt beam="2">  1       -4 0.15798536E-01 0.12500006E+03</pdfrwt>
<totfact> 0.10118473E+04</totfact>
</mgrwt>
</event>
<event>
 5    1  0.3243498E-002  0.1250029E+03  0.7818608E-02  0.1235065E+00
          4   -1    0    0  501    0  0.00000000000E+00  0.00000000000E+00  0.19687189776E+02  0.19728110433E+02  0.12700000000E+01 0.  1.
         -4   -1    0    0    0  501 -0.00000000000E+00 -0.00000000000E+00 -0.19817595061E+03  0.19818001993E+03  0.12700000000E+01 0.  1.
         25    2    1    2    0    0  0.00000000000E+00  0.00000000000E+00 -0.17848876083E+03  0.21790813036E+03  0.12500286211E+03 0.  0.
    9000005    1    3    3    0    0 -0.20362741789E+02  0.21815103989E+02 -0.18496139219E+03  0.18735596232E+03  0.10000000000E+01 0.  0.
    9000005    1    3    3    0    0  0.20362741789E+02 -0.21815103989E+02  0.64726313623E+01  0.30552168041E+02  0.10000000000E+01 0.  0.
<mgrwt>
<rscale>  0 0.12500286E+03</rscale>
<asrwt>0</asrwt>
<pdfrwt beam="1">  1        4 0.30322593E-02 0.12500286E+03</pdfrwt>
<pdfrwt beam="2">  1       -4 0.30492067E-01 0.12500286E+03</pdfrwt>
<totfact> 0.87194872E+03</totfact>
</mgrwt>
</event>
<event>
 5    1  0.3243498E-002  0.1250000E+03  0.7818608E-02  0.1235069E+00
         -4   -1    0    0    0  501 -0.00000000000E+00  0.00000000000E+00  0.17190498088E+02  0.17237346794E+02  0.12700000000E+01 0.  1.
          4   -1    0    0  501    0  0.00000000000E+00 -0.00000000000E+00 -0.22687511002E+03  0.22687866459E+03  0.12700000000E+01 0.  1.
         25    2    1    2    0    0  0.00000000000E+00  0.00000000000E+00 -0.20968461193E+03  0.24411601138E+03  0.12499996213E+03 0.  0.
    9000005    1    3    3    0    0 -0.37051904219E+02 -0.25517187240E+02 -0.20136578228E+02  0.49299616972E+02  0.10000000000E+01 0.  0.
    9000005    1    3    3    0    0  0.37051904219E+02  0.25517187240E+02 -0.18954803370E+03  0.19481639441E+03  0.10000000000E+01 0.  0.
<mgrwt>
<rscale>  0 0.12499996E+03</rscale>
<asrwt>0</asrwt>
<pdfrwt beam="2">  1        4 0.34907738E-01 0.12499996E+03</pdfrwt>
<pdfrwt beam="1">  1       -4 0.26485693E-02 0.12499996E+03</pdfrwt>
<totfact> 0.83188225E+03</totfact>
</mgrwt>
</event>
<event>
 5    1  0.3243498E-002  0.1249997E+03  0.7818608E-02  0.1235070E+00
          4   -1    0    0  501    0  0.00000000000E+00  0.00000000000E+00  0.53854924928E+02  0.53869897336E+02  0.12700000000E+01 0. -1.
         -4   -1    0    0    0  501 -0.00000000000E+00 -0.00000000000E+00 -0.72501841575E+02  0.72512963888E+02  0.12700000000E+01 0. -1.
         25    2    1    2    0    0  0.00000000000E+00  0.00000000000E+00 -0.18646916647E+02  0.12638286122E+03  0.12499968044E+03 0.  0.
    9000005    1    3    3    0    0  0.17408487177E+02 -0.41480187932E+02  0.34533581001E+02  0.56720627935E+02  0.10000000000E+01 0.  0.
    9000005    1    3    3    0    0 -0.17408487177E+02  0.41480187932E+02 -0.53180497648E+02  0.69662233288E+02  0.10000000000E+01 0.  0.
<mgrwt>
<rscale>  0 0.12499968E+03</rscale>
<asrwt>0</asrwt>
<pdfrwt beam="1">  1        4 0.82873803E-02 0.12499968E+03</pdfrwt>
<pdfrwt beam="2">  1       -4 0.11156137E-01 0.12499968E+03</pdfrwt>
<totfact> 0.10422659E+04</totfact>
</mgrwt>
</event>
<event>
 5    1  0.3243498E-002  0.1249993E+03  0.7818608E-02  0.1235070E+00
          4   -1    0    0  501    0  0.00000000000E+00  0.00000000000E+00  0.10311683923E+03  0.10312465967E+03  0.12700000000E+01 0.  1.
         -4   -1    0    0    0  501 -0.00000000000E+00 -0.00000000000E+00 -0.37861466288E+02  0.37882760320E+02  0.12700000000E+01 0.  1.
         25    2    1    2    0    0  0.00000000000E+00  0.00000000000E+00  0.65255372943E+02  0.14100741999E+03  0.12499931518E+03 0.  0.
    9000005    1    3    3    0    0 -0.45444531081E+02 -0.20180176184E+02 -0.10071677187E+02  0.50743310863E+02  0.10000000000E+01 0.  0.
    9000005    1    3    3    0    0  0.45444531081E+02  0.20180176184E+02  0.75327050130E+02  0.90264109131E+02  0.10000000000E+01 0.  0.
<mgrwt>
<rscale>  0 0.12499932E+03</rscale>
<asrwt>0</asrwt>
<pdfrwt beam="1">  1        4 0.15866369E-01 0.12499932E+03</pdfrwt>
<pdfrwt beam="2">  1       -4 0.58270806E-02 0.12499932E+03</pdfrwt>
<totfact> 0.10112905E+04</totfact>
</mgrwt>
</event>
<event>
 5    1  0.3243498E-002  0.1249939E+03  0.7818608E-02  0.1235079E+00
          4   -1    0    0  501    0  0.00000000000E+00  0.00000000000E+00  0.18162206124E+03  0.18162650145E+03  0.12700000000E+01 0. -1.
         -4   -1    0    0    0  501 -0.00000000000E+00 -0.00000000000E+00 -0.21482033733E+02  0.21519541661E+02  0.12700000000E+01 0. -1.
         25    2    1    2    0    0  0.00000000000E+00  0.00000000000E+00  0.16014002750E+03  0.20314604311E+03  0.12499394554E+03 0.  0.
    9000005    1    3    3    0    0 -0.43000418212E+02 -0.28971850826E+02  0.23384818695E+02  0.56888081810E+02  0.10000000000E+01 0.  0.
    9000005    1    3    3    0    0  0.43000418212E+02  0.28971850826E+02  0.13675520881E+03  0.14625796130E+03  0.10000000000E+01 0.  0.
<mgrwt>
<rscale>  0 0.12499395E+03</rscale>
<asrwt>0</asrwt>
<pdfrwt beam="1">  1        4 0.27945081E-01 0.12499395E+03</pdfrwt>
<pdfrwt beam="2">  1       -4 0.33081552E-02 0.12499395E+03</pdfrwt>
<totfact> 0.89619738E+03</totfact>
</mgrwt>
</event>
<event>
 5    1  0.3243498E-002  0.1250028E+03  0.7818608E-02  0.1235065E+00
          4   -1    0    0  501    0  0.00000000000E+00  0.00000000000E+00  0.22829400347E+02  0.22864698122E+02  0.12700000000E+01 0. -1.
         -4   -1    0    0    0  501 -0.00000000000E+00 -0.00000000000E+00 -0.17094406742E+03  0.17094878498E+03  0.12700000000E+01 0. -1.
         25    2    1    2    0    0  0.00000000000E+00  0.00000000000E+00 -0.14811466708E+03  0.19381348311E+03  0.12500284649E+03 0.  0.
    9000005    1    3    3    0    0 -0.48383857106E+02 -0.24488947090E+02 -0.25899702082E+02  0.60104082440E+02  0.10000000000E+01 0.  0.
    9000005    1    3    3    0    0  0.48383857106E+02  0.24488947090E+02 -0.12221496500E+03  0.13370940067E+03  0.10000000000E+01 0.  0.
<mgrwt>
<rscale>  0 0.12500285E+03</rscale>
<asrwt>0</asrwt>
<pdfrwt beam="1">  1        4 0.35152937E-02 0.12500285E+03</pdfrwt>
<pdfrwt beam="2">  1       -4 0.26302165E-01 0.12500285E+03</pdfrwt>
<totfact> 0.91182171E+03</totfact>
</mgrwt>
</event>
<event>
 5    1  0.3243498E-002  0.1250002E+03  0.7818608E-02  0.1235069E+00
          4   -1    0    0  501    0  0.00000000000E+00  0.00000000000E+00  0.14405577122E+03  0.14406136929E+03  0.12700000000E+01 0. -1.
         -4   -1    0    0    0  501 -0.00000000000E+00 -0.00000000000E+00 -0.27095341923E+02  0.27125089012E+02  0.12700000000E+01 0. -1.
         25    2    1    2    0    0  0.00000000000E+00  0.00000000000E+00  0.11696042929E+03  0.17118645830E+03  0.12500024594E+03 0.  0.
    9000005    1    3    3    0    0 -0.35360685411E+02  0.46026352178E+02  0.26760585292E+02  0.63921296081E+02  0.10000000000E+01 0.  0.
    9000005    1    3    3    0    0  0.35360685411E+02 -0.46026352178E+02  0.90199844003E+02  0.10726516222E+03  0.10000000000E+01 0.  0.
<mgrwt>
<rscale>  0 0.12500025E+03</rscale>
<asrwt>0</asrwt>
<pdfrwt beam="1">  1        4 0.22165146E-01 0.12500025E+03</pdfrwt>
<pdfrwt beam="2">  1       -4 0.41712329E-02 0.12500025E+03</pdfrwt>
<totfact> 0.95227432E+03</totfact>
</mgrwt>
</event>
<event>
 5    1  0.3243498E-002  0.1249989E+03  0.7818608E-02  0.1235071E+00
          4   -1    0    0  501    0  0.00000000000E+00  0.00000000000E+00  0.78685117073E+02  0.78695365485E+02  0.12700000000E+01 0.  1.
         -4   -1    0    0    0  501 -0.00000000000E+00 -0.00000000000E+00 -0.49621630934E+02  0.49637880258E+02  0.12700000000E+01 0.  1.
         25    2    1    2    0    0  0.00000000000E+00  0.00000000000E+00  0.29063486139E+02  0.12833324574E+03  0.12499894294E+03 0.  0.
    9000005    1    3    3    0    0  0.11359957846E+02 -0.61018790439E+02  0.21994933747E+02  0.65856803289E+02  0.10000000000E+01 0.  0.
    9000005    1    3    3    0    0 -0.11359957846E+02  0.61018790439E+02  0.70685523925E+01  0.62476442455E+02  0.10000000000E+01 0.  0.
<mgrwt>
<rscale>  0 0.12499894E+03</rscale>
<asrwt>0</asrwt>
<pdfrwt beam="1">  1        4 0.12107441E-01 0.12499894E+03</pdfrwt>
<pdfrwt beam="2">  1       -4 0.76361354E-02 0.12499894E+03</pdfrwt>
<totfact> 0.10380545E+04</totfact>
</mgrwt>
</event>
<event>
 5    1  0.3243498E-002  0.1249997E+03  0.7818608E-02  0.1235070E+00
         -4   -1    0    0    0  501 -0.00000000000E+00  0.00000000000E+00  0.10556503719E+03  0.10557267628E+03  0.12700000000E+01 0.  1.
          4   -1    0    0  501    0  0.00000000000E+00 -0.00000000000E+00 -0.36983178185E+02  0.37004977620E+02  0.12700000000E+01 0.  1.
         25    2    1    2    0    0  0.00000000000E+00  0.00000000000E+00  0.68581859002E+02  0.14257765390E+03  0.12499966403E+03 0.  0.
    9000005    1    3    3    0    0  0.34702003675E+02  0.49235022810E+02  0.53271701673E+02  0.80418845610E+02  0.10000000000E+01 0.  0.
    9000005    1    3    3    0    0 -0.34702003675E+02 -0.49235022810E+02  0.15310157329E+02  0.62158808286E+02  0.10000000000E+01 0.  0.
<mgrwt>
<rscale>  0 0.12499966E+03</rscale>
<asrwt>0</asrwt>
<pdfrwt beam="2">  1        4 0.56919843E-02 0.12499966E+03</pdfrwt>
<pdfrwt beam="1">  1       -4 0.16243039E-01 0.12499966E+03</pdfrwt>
<totfact> 0.10080516E+04</totfact>
</mgrwt>
</event>
<event>
 5    1  0.3243498E-002  0.1250008E+03  0.7818608E-02  0.1235068E+00
          4   -1    0    0  501    0  0.00000000000E+00  0.00000000000E+00  0.70902271200E+02  0.70913644394E+02  0.12700000000E+01 0.  1.
         -4   -1    0    0    0  501 -0.00000000000E+00 -0.00000000000E+00 -0.55071043512E+02  0.55085685377E+02  0.12700000000E+01 0.  1.
         25    2    1    2    0    0  0.00000000000E+00  0.00000000000E+00  0.15831227688E+02  0.12599932977E+03  0.12500081333E+03 0.  0.
    9000005    1    3    3    0    0 -0.51920216859E+02  0.27463825153E+02  0.29424535363E+02  0.65702160482E+02  0.10000000000E+01 0.  0.
    9000005    1    3    3    0    0  0.51920216859E+02 -0.27463825153E+02 -0.13593307675E+02  0.60297169289E+02  0.10000000000E+01 0.  0.
<mgrwt>
<rscale>  0 0.12500081E+03</rscale>
<asrwt>0</asrwt>
<pdfrwt beam="1">  1        4 0.10910043E-01 0.12500081E+03</pdfrwt>
<pdfrwt beam="2">  1       -4 0.84744694E-02 0.12500081E+03</pdfrwt>
<totfact> 0.10430780E+04</totfact>
</mgrwt>
</event>
<event>
 5    1  0.3243498E-002  0.1250073E+03  0.7818608E-02  0.1235058E+00
         -4   -1    0    0    0  501 -0.00000000000E+00  0.00000000000E+00  0.11702198750E+03  0.11702887874E+03  0.12700000000E+01 0. -1.
          4   -1    0    0  501    0  0.00000000000E+00 -0.00000000000E+00 -0.33364448912E+02  0.33388611100E+02  0.12700000000E+01 0. -1.
         25    2    1    2    0    0  0.00000000000E+00  0.00000000000E+00  0.83657538591E+02  0.15041748984E+03  0.12500734973E+03 0.  0.
    9000005    1    3    3    0    0  0.51094614676E+02  0.35127538519E+02  0.32422793313E+02  0.69977433059E+02  0.10000000000E+01 0.  0.
    9000005    1    3    3    0    0 -0.51094614676E+02 -0.35127538519E+02  0.51234745278E+02  0.80440056781E+02  0.10000000000E+01 0.  0.
<mgrwt>
<rscale>  0 0.12500735E+03</rscale>
<asrwt>0</asrwt>
<pdfrwt beam="2">  1        4 0.51353808E-02 0.12500735E+03</pdfrwt>
<pdfrwt beam="1">  1       -4 0.18005772E-01 0.12500735E+03</pdfrwt>
<totfact> 0.99204133E+03</totfact>
</mgrwt>
</event>
<event>
 5    1  0.3243498E-002  0.1250030E+03  0.7818608E-02  0.1235065E+00
         -4   -1    0    0    0  501 -0.00000000000E+00  0.00000000000E+00  0.16466768216E+03  0.16467257952E+03  0.12700000000E+01 0. -1.
          4   -1    0    0  501    0  0.00000000000E+00 -0.00000000000E+00 -0.23700892101E+02  0.23734893857E+02  0.12700000000E+01 0. -1.
         25    2    1    2    0    0  0.00000000000E+00  0.00000000000E+00  0.14096679005E+03  0.18840747338E+03  0.12500296047E+03 0.  0.
    9000005    1    3    3    0    0 -0.23070934986E+02 -0.41083371016E+02  0.86077869103E+01  0.47908302105E+02  0.10000000000E+01 0.  0.
    9000005    1    3    3    0    0  0.23070934986E+02  0.41083371016E+02  0.13235900314E+03  0.14049917127E+03  0.10000000000E+01 0.  0.
<mgrwt>
<rscale>  0 0.12500296E+03</rscale>
<asrwt>0</asrwt>
<pdfrwt beam="2">  1        4 0.36492834E-02 0.12500296E+03</pdfrwt>
<pdfrwt beam="1">  1       -4 0.25336482E-01 0.12500296E+03</pdfrwt>
<totfact> 0.92119039E+03</totfact>
</mgrwt>
</event>
<event>
 5    1  0.3243498E-002  0.1249999E+03  0.7818608E-02  0.1235069E+00
          4   -1    0    0  501    0  0.00000000000E+00  0.00000000000E+00  0.19006655718E+03  0.19007080012E+03  0.12700000000E+01 0. -1.
         -4   -1    0    0    0  501 -0.00000000000E+00 -0.00000000000E+00 -0.20527877326E+02  0.20567125407E+02  0.12700000000E+01 0. -1.
         25    2    1    2    0    0  0.00000000000E+00  0.00000000000E+00  0.16953867986E+03  0.21063792553E+03  0.12499988682E+03 0.  0.
    9000005    1    3    3    0    0 -0.54996901439E+02  0.26459584155E+02  0.10740715298E+03  0.12353973156E+03  0.10000000000E+01 0.  0.
    9000005    1    3    3    0    0  0.54996901439E+02 -0.26459584155E+02  0.62131526876E+02  0.87098193974E+02  0.10000000000E+01 0.  0.
<mgrwt>
<rscale>  0 0.12499989E+03</rscale>
<asrwt>0</asrwt>
<pdfrwt beam="1">  1        4 0.29244355E-01 0.12499989E+03</pdfrwt>
<pdfrwt beam="2">  1       -4 0.31614803E-02 0.12499989E+03</pdfrwt>
<totfact> 0.88372027E+03</totfact>
</mgrwt>
</event>
<event>
 5    1  0.3243498E-002  0.1249973E+03  0.7818608E-02  0.1235074E+00
         -4   -1    0    0    0  501 -0.00000000000E+00  0.00000000000E+00  0.12762784878E+03  0.12763416739E+03  0.12700000000E+01 0.  1.
          4   -1    0    0  501    0  0.00000000000E+00 -0.00000000000E+00 -0.30584966151E+02  0.30611322325E+02  0.12700000000E+01 0.  1.
         25    2    1    2    0    0  0.00000000000E+00  0.00000000000E+00  0.97042882630E+02  0.15824548971E+03  0.12499725575E+03 0.  0.
    9000005    1    3    3    0    0  0.45176735693E+01  0.39205124127E+02 -0.12818794727E+02  0.41506296276E+02  0.10000000000E+01 0.  0.
    9000005    1    3    3    0    0 -0.45176735693E+01 -0.39205124127E+02  0.10986167736E+03  0.11673919344E+03  0.10000000000E+01 0.  0.
<mgrwt>
<rscale>  0 0.12499726E+03</rscale>
<asrwt>0</asrwt>
<pdfrwt beam="2">  1        4 0.47078930E-02 0.12499726E+03</pdfrwt>
<pdfrwt beam="1">  1       -4 0.19637567E-01 0.12499726E+03</pdfrwt>
<totfact> 0.97688138E+03</totfact>
</mgrwt>
</event>
<event>
 5    1  0.3243498E-002  0.1250058E+03  0.7818608E-02  0.1235060E+00
          4   -1    0    0  501    0  0.00000000000E+00  0.00000000000E+00  0.24109123096E+02  0.24142549916E+02  0.12700000000E+01 0.  1.
         -4   -1    0    0    0  501 -0.00000000000E+00 -0.00000000000E+00 -0.16189068111E+03  0.16189566248E+03  0.12700000000E+01 0.  1.
         25    2    1    2    0    0  0.00000000000E+00  0.00000000000E+00 -0.13778155801E+03  0.18603821239E+03  0.12500583483E+03 0.  0.
    9000005    1    3    3    0    0  0.28616264745E+02  0.51411192321E+02 -0.37545351873E+02  0.69804403522E+02  0.10000000000E+01 0.  0.
    9000005    1    3    3    0    0 -0.28616264745E+02 -0.51411192321E+02 -0.10023620614E+03  0.11623380887E+03  0.10000000000E+01 0.  0.
<mgrwt>
<rscale>  0 0.12500583E+03</rscale>
<asrwt>0</asrwt>
<pdfrwt beam="1">  1        4 0.37120504E-02 0.12500583E+03</pdfrwt>
<pdfrwt beam="2">  1       -4 0.24909212E-01 0.12500583E+03</pdfrwt>
<totfact> 0.92529160E+03</totfact>
</mgrwt>
</event>
<event>
 5    1  0.3243498E-002  0.1250155E+03  0.7818608E-02  0.1235045E+00
          4   -1    0    0  501    0  0.00000000000E+00  0.00000000000E+00  0.47097377627E+02  0.47114497550E+02  0.12700000000E+01 0. -1.
         -4   -1    0    0    0  501 -0.00000000000E+00 -0.00000000000E+00 -0.82923392455E+02  0.82933117126E+02  0.12700000000E+01 0. -1.
         25    2    1    2    0    0  0.00000000000E+00  0.00000000000E+00 -0.35826014828E+02  0.13004761468E+03  0.12501551401E+03 0.  0.
    9000005    1    3    3    0    0 -0.57302858608E+02 -0.15417407028E+02  0.24957055888E+01  0.59401536937E+02  0.10000000000E+01 0.  0.
    9000005    1    3    3    0    0  0.57302858608E+02  0.15417407028E+02 -0.38321720416E+02  0.70646077738E+02  0.10000000000E+01 0.  0.
<mgrwt>
<rscale>  0 0.12501551E+03</rscale>
<asrwt>0</asrwt>
<pdfrwt beam="1">  1        4 0.72478154E-02 0.12501551E+03</pdfrwt>
<pdfrwt beam="2">  1       -4 0.12759510E-01 0.12501551E+03</pdfrwt>
<totfact> 0.10339868E+04</totfact>
</mgrwt>
</event>
<event>
 5    1  0.3243498E-002  0.1250009E+03  0.7818608E-02  0.1235068E+00
         -4   -1    0    0    0  501 -0.00000000000E+00  0.00000000000E+00  0.15729883295E+02  0.15781068673E+02  0.12700000000E+01 0.  1.
          4   -1    0    0  501    0  0.00000000000E+00 -0.00000000000E+00 -0.24788056738E+03  0.24788382074E+03  0.12700000000E+01 0.  1.
         25    2    1    2    0    0  0.00000000000E+00  0.00000000000E+00 -0.23215068408E+03  0.26366488941E+03  0.12500093515E+03 0.  0.
    9000005    1    3    3    0    0 -0.41001297385E+02  0.91004020002E+01 -0.18467122393E+02  0.45890721429E+02  0.10000000000E+01 0.  0.
    9000005    1    3    3    0    0  0.41001297385E+02 -0.91004020002E+01 -0.21368356169E+03  0.21777416798E+03  0.10000000000E+01 0.  0.
<mgrwt>
<rscale>  0 0.12500094E+03</rscale>
<asrwt>0</asrwt>
<pdfrwt beam="2">  1        4 0.38139657E-01 0.12500094E+03</pdfrwt>
<pdfrwt beam="1">  1       -4 0.24241698E-02 0.12500094E+03</pdfrwt>
<totfact> 0.80392809E+03</totfact>
</mgrwt>
</event>
<event>
 5    1  0.3243498E-002  0.1250034E+03  0.7818608E-02  0.1235064E+00
          4   -1    0    0  501    0  0.00000000000E+00  0.00000000000E+00  0.53352628499E+03  0.53352779654E+03  0.12700000000E+01 0. -1.
         -4   -1    0    0    0  501 -0.00000000000E+00 -0.00000000000E+00 -0.72653627715E+01  0.73755268423E+01  0.12700000000E+01 0. -1.
         25    2    1    2    0    0  0.00000000000E+00  0.00000000000E+00  0.52626092222E+03  0.54090332338E+03  0.12500338790E+03 0.  0.
    9000005    1    3    3    0    0  0.48607505152E+02 -0.33892994701E+02  0.17723575006E+03  0.18688214400E+03  0.10000000000E+01 0.  0.
    9000005    1    3    3    0    0 -0.48607505152E+02  0.33892994701E+02  0.34902517216E+03  0.35402117938E+03  0.10000000000E+01 0.  0.
<mgrwt>
<rscale>  0 0.12500339E+03</rscale>
<asrwt>0</asrwt>
<pdfrwt beam="1">  1        4 0.82089557E-01 0.12500339E+03</pdfrwt>
<pdfrwt beam="2">  1       -4 0.11263386E-02 0.12500339E+03</pdfrwt>
<totfact> 0.52820873E+03</totfact>
</mgrwt>
</event>
<event>
 5    1  0.3243498E-002  0.1249935E+03  0.7818608E-02  0.1235079E+00
          4   -1    0    0  501    0  0.00000000000E+00  0.00000000000E+00  0.14943563090E+02  0.14997432374E+02  0.12700000000E+01 0. -1.
         -4   -1    0    0    0  501 -0.00000000000E+00 -0.00000000000E+00 -0.26084746396E+03  0.26085055559E+03  0.12700000000E+01 0. -1.
         25    2    1    2    0    0  0.00000000000E+00  0.00000000000E+00 -0.24590390087E+03  0.27584798797E+03  0.12499353585E+03 0.  0.
    9000005    1    3    3    0    0 -0.17164505864E+02 -0.54157818241E+02 -0.18038035891E+03  0.18911838467E+03  0.10000000000E+01 0.  0.
    9000005    1    3    3    0    0  0.17164505864E+02  0.54157818241E+02 -0.65523541960E+02  0.86729603303E+02  0.10000000000E+01 0.  0.
<mgrwt>
<rscale>  0 0.12499354E+03</rscale>
<asrwt>0</asrwt>
<pdfrwt beam="1">  1        4 0.23033915E-02 0.12499354E+03</pdfrwt>
<pdfrwt beam="2">  1       -4 0.40134757E-01 0.12499354E+03</pdfrwt>
<totfact> 0.78743191E+03</totfact>
</mgrwt>
</event>
<event>
 5    1  0.3243498E-002  0.1250037E+03  0.7818608E-02  0.1235063E+00
          4   -1    0    0  501    0  0.00000000000E+00  0.00000000000E+00  0.13958372865E+03  0.13958950607E+03  0.12700000000E+01 0.  1.
         -4   -1    0    0    0  501 -0.00000000000E+00 -0.00000000000E+00 -0.27965903921E+02  0.27994725970E+02  0.12700000000E+01 0.  1.
         25    2    1    2    0    0  0.00000000000E+00  0.00000000000E+00  0.11161782473E+03  0.16758423204E+03  0.12500374407E+03 0.  0.
    9000005    1    3    3    0    0 -0.43616296585E+02  0.16611703973E+02  0.11152436463E+03  0.12090084344E+03  0.10000000000E+01 0.  0.
    9000005    1    3    3    0    0  0.43616296585E+02 -0.16611703973E+02  0.93460098701E-01  0.46683388603E+02  0.10000000000E+01 0.  0.
<mgrwt>
<rscale>  0 0.12500374E+03</rscale>
<asrwt>0</asrwt>
<pdfrwt beam="1">  1        4 0.21477081E-01 0.12500374E+03</pdfrwt>
<pdfrwt beam="2">  1       -4 0.43051083E-02 0.12500374E+03</pdfrwt>
<totfact> 0.95892143E+03</totfact>
</mgrwt>
</event>
<event>
 5    1  0.3243498E-002  0.1250032E+03  0.7818608E-02  0.1235064E+00
          4   -1    0    0  501    0  0.00000000000E+00  0.00000000000E+00  0.12909607337E+02  0.12971925901E+02  0.12700000000E+01 0.  1.
         -4   -1    0    0    0  501 -0.00000000000E+00 -0.00000000000E+00 -0.30180811613E+03  0.30181078818E+03  0.12700000000E+01 0.  1.
         25    2    1    2    0    0  0.00000000000E+00  0.00000000000E+00 -0.28889850879E+03  0.31478271408E+03  0.12500323476E+03 0.  0.
    9000005    1    3    3    0    0  0.44365148550E+02 -0.43094320954E+02 -0.12191663333E+03  0.13671156640E+03  0.10000000000E+01 0.  0.
    9000005    1    3    3    0    0 -0.44365148550E+02  0.43094320954E+02 -0.16698187546E+03  0.17807114768E+03  0.10000000000E+01 0.  0.
<mgrwt>
<rscale>  0 0.12500323E+03</rscale>
<asrwt>0</asrwt>
<pdfrwt beam="1">  1        4 0.19910929E-02 0.12500323E+03</pdfrwt>
<pdfrwt beam="2">  1       -4 0.46437012E-01 0.12500323E+03</pdfrwt>
<totfact> 0.73775689E+03</totfact>
</mgrwt>
</event>
<event>
 5    1  0.3243498E-002  0.1249987E+03  0.7818608E-02  0.1235071E+00
          4   -1    0    0  501    0  0.00000000000E+00  0.00000000000E+00  0.17895265734E+01  0.21943804039E+01  0.12700000000E+01 0. -1.
         -4   -1    0    0    0  501 -0.00000000000E+00 -0.00000000000E+00 -0.19605687192E+04  0.19605691305E+04  0.12700000000E+01 0. -1.
         25    2    1    2    0    0  0.00000000000E+00  0.00000000000E+00 -0.19587791926E+04  0.19627635109E+04  0.12499869761E+03 0.  0.
    9000005    1    3    3    0    0  0.53380178178E+02  0.32203247055E+02 -0.91153096520E+03  0.91366087421E+03  0.10000000000E+01 0.  0.
    9000005    1    3    3    0    0 -0.53380178178E+02 -0.32203247055E+02 -0.10472482274E+04  0.10491026367E+04  0.10000000000E+01 0.  0.
<mgrwt>
<rscale>  0 0.12499870E+03</rscale>
<asrwt>0</asrwt>
<pdfrwt beam="1">  1        4 0.30648759E-03 0.12499870E+03</pdfrwt>
<pdfrwt beam="2">  1       -4 0.30165559E+00 0.12499870E+03</pdfrwt>
<totfact> 0.10355627E+03</totfact>
</mgrwt>
</event>
<event>
 5    1  0.3243498E-002  0.1249997E+03  0.7818608E-02  0.1235070E+00
         -4   -1    0    0    0  501 -0.00000000000E+00  0.00000000000E+00  0.66991514281E+02  0.67003551292E+02  0.12700000000E+01 0.  1.
          4   -1    0    0  501    0  0.00000000000E+00 -0.00000000000E+00 -0.58285151406E+02  0.58298986049E+02  0.12700000000E+01 0.  1.
         25    2    1    2    0    0  0.00000000000E+00  0.00000000000E+00  0.87063628755E+01  0.12530253734E+03  0.12499970044E+03 0.  0.
    9000005    1    3    3    0    0 -0.53396996118E+02  0.80738319428E+01 -0.27168276077E+02  0.60461071622E+02  0.10000000000E+01 0.  0.
    9000005    1    3    3    0    0  0.53396996118E+02 -0.80738319428E+01  0.35874638953E+02  0.64841465719E+02  0.10000000000E+01 0.  0.
<mgrwt>
<rscale>  0 0.12499970E+03</rscale>
<asrwt>0</asrwt>
<pdfrwt beam="2">  1        4 0.89689366E-02 0.12499970E+03</pdfrwt>
<pdfrwt beam="1">  1       -4 0.10308377E-01 0.12499970E+03</pdfrwt>
<totfact> 0.10446366E+04</totfact>
</mgrwt>
</event>
<event>
 5    1  0.3243498E-002  0.1250033E+03  0.7818608E-02  0.1235064E+00
          4   -1    0    0  501    0  0.00000000000E+00  0.00000000000E+00  0.14964909017E+02  0.15018701738E+02  0.12700000000E+01 0. -1.
         -4   -1    0    0    0  501 -0.00000000000E+00 -0.00000000000E+00 -0.26051756721E+03  0.26052066276E+03  0.12700000000E+01 0. -1.
         25    2    1    2    0    0  0.00000000000E+00  0.00000000000E+00 -0.24555265819E+03  0.27553936450E+03  0.12500333372E+03 0.  0.
    9000005    1    3    3    0    0 -0.38136321344E+02  0.46624561093E-01 -0.13647234906E+02  0.40517011243E+02  0.10000000000E+01 0.  0.
    9000005    1    3    3    0    0  0.38136321344E+02 -0.46624561093E-01 -0.23190542329E+03  0.23502235326E+03  0.10000000000E+01 0.  0.
<mgrwt>
<rscale>  0 0.12500333E+03</rscale>
<asrwt>0</asrwt>
<pdfrwt beam="1">  1        4 0.23066699E-02 0.12500333E+03</pdfrwt>
<pdfrwt beam="2">  1       -4 0.40083998E-01 0.12500333E+03</pdfrwt>
<totfact> 0.78767457E+03</totfact>
</mgrwt>
</event>
<event>
 5    1  0.3243498E-002  0.1249990E+03  0.7818608E-02  0.1235071E+00
         -4   -1    0    0    0  501 -0.00000000000E+00  0.00000000000E+00  0.22606871596E+03  0.22607228321E+03  0.12700000000E+01 0.  1.
          4   -1    0    0  501    0  0.00000000000E+00 -0.00000000000E+00 -0.17251727349E+02  0.17298410231E+02  0.12700000000E+01 0.  1.
         25    2    1    2    0    0  0.00000000000E+00  0.00000000000E+00  0.20881698861E+03  0.24337069344E+03  0.12499903877E+03 0.  0.
    9000005    1    3    3    0    0 -0.55720585057E+02  0.42074400297E+01  0.15887886361E+03  0.16842202781E+03  0.10000000000E+01 0.  0.
    9000005    1    3    3    0    0  0.55720585057E+02 -0.42074400297E+01  0.49938125001E+02  0.74948665628E+02  0.10000000000E+01 0.  0.
<mgrwt>
<rscale>  0 0.12499904E+03</rscale>
<asrwt>0</asrwt>
<pdfrwt beam="2">  1        4 0.26579775E-02 0.12499904E+03</pdfrwt>
<pdfrwt beam="1">  1       -4 0.34783665E-01 0.12499904E+03</pdfrwt>
<totfact> 0.83299696E+03</totfact>
</mgrwt>
</event>
<event>
 5    1  0.3243498E-002  0.1250003E+03  0.7818608E-02  0.1235069E+00
          4   -1    0    0  501    0  0.00000000000E+00  0.00000000000E+00  0.10208814402E+03  0.10209604326E+03  0.12700000000E+01 0. -1.
         -4   -1    0    0    0  501 -0.00000000000E+00 -0.00000000000E+00 -0.38243759501E+02  0.38264840791E+02  0.12700000000E+01 0. -1.
         25    2    1    2    0    0  0.00000000000E+00  0.00000000000E+00  0.63844384523E+02  0.14036088405E+03  0.12500028935E+03 0.  0.
    9000005    1    3    3    0    0  0.10476771313E+02 -0.61606406741E+02  0.31478694472E+02  0.69978713151E+02  0.10000000000E+01 0.  0.
    9000005    1    3    3    0    0 -0.10476771313E+02  0.61606406741E+02  0.32365690051E+02  0.70382170904E+02  0.10000000000E+01 0.  0.
<mgrwt>
<rscale>  0 0.12500029E+03</rscale>
<asrwt>0</asrwt>
<pdfrwt beam="1">  1        4 0.15708098E-01 0.12500029E+03</pdfrwt>
<pdfrwt beam="2">  1       -4 0.58858846E-02 0.12500029E+03</pdfrwt>
<totfact> 0.10126046E+04</totfact>
</mgrwt>
</event>
<event>
 5    1  0.3243498E-002  0.1250029E+03  0.7818608E-02  0.1235065E+00
          4   -1    0    0  501    0  0.00000000000E+00  0.00000000000E+00  0.73999674255E+02  0.74010571474E+02  0.12700000000E+01 0. -1.
         -4   -1    0    0    0  501 -0.00000000000E+00 -0.00000000000E+00 -0.52767384218E+02  0.52782665121E+02  0.12700000000E+01 0. -1.
         25    2    1    2    0    0  0.00000000000E+00  0.00000000000E+00  0.21232290037E+02  0.12679323659E+03  0.12500285879E+03 0.  0.
    9000005    1    3    3    0    0 -0.45338101949E+02  0.42519404726E+02  0.17188565517E+02  0.64497209638E+02  0.10000000000E+01 0.  0.
    9000005    1    3    3    0    0  0.45338101949E+02 -0.42519404726E+02  0.40437245198E+01  0.62296026957E+02  0.10000000000E+01 0.  0.
<mgrwt>
<rscale>  0 0.12500286E+03</rscale>
<asrwt>0</asrwt>
<pdfrwt beam="1">  1        4 0.11386579E-01 0.12500286E+03</pdfrwt>
<pdfrwt beam="2">  1       -4 0.81200729E-02 0.12500286E+03</pdfrwt>
<totfact> 0.10412969E+04</totfact>
</mgrwt>
</event>
<event>
 5    1  0.3243498E-002  0.1250020E+03  0.7818608E-02  0.1235066E+00
          4   -1    0    0  501    0  0.00000000000E+00  0.00000000000E+00  0.24578627972E+03  0.24578956080E+03  0.12700000000E+01 0. -1.
         -4   -1    0    0    0  501 -0.00000000000E+00 -0.00000000000E+00 -0.15864630294E+02  0.15915382319E+02  0.12700000000E+01 0. -1.
         25    2    1    2    0    0  0.00000000000E+00  0.00000000000E+00  0.22992164942E+03  0.26170494312E+03  0.12500204950E+03 0.  0.
    9000005    1    3    3    0    0 -0.54438446672E+02 -0.64723583363E+01  0.17776696425E+03  0.18603099063E+03  0.10000000000E+01 0.  0.
    9000005    1    3    3    0    0  0.54438446672E+02  0.64723583363E+01  0.52154685174E+02  0.75673952481E+02  0.10000000000E+01 0.  0.
<mgrwt>
<rscale>  0 0.12500205E+03</rscale>
<asrwt>0</asrwt>
<pdfrwt beam="1">  1        4 0.37817428E-01 0.12500205E+03</pdfrwt>
<pdfrwt beam="2">  1       -4 0.24448689E-02 0.12500205E+03</pdfrwt>
<totfact> 0.80663711E+03</totfact>
</mgrwt>
</event>
<event>
 5    1  0.3243498E-002  0.1249792E+03  0.7818608E-02  0.1235102E+00
         -4   -1    0    0    0  501 -0.00000000000E+00  0.00000000000E+00  0.26378152739E+03  0.26378458464E+03  0.12700000000E+01 0. -1.
          4   -1    0    0  501    0  0.00000000000E+00 -0.00000000000E+00 -0.14773331397E+02  0.14827819144E+02  0.12700000000E+01 0. -1.
         25    2    1    2    0    0  0.00000000000E+00  0.00000000000E+00  0.24900819600E+03  0.27861240378E+03  0.12497915774E+03 0.  0.
    9000005    1    3    3    0    0  0.24125384084E+02 -0.49835358382E+02  0.59957161825E+02  0.81617757604E+02  0.10000000000E+01 0.  0.
    9000005    1    3    3    0    0 -0.24125384084E+02  0.49835358382E+02  0.18905103417E+03  0.19699464618E+03  0.10000000000E+01 0.  0.
<mgrwt>
<rscale>  0 0.12497916E+03</rscale>
<asrwt>0</asrwt>
<pdfrwt beam="2">  1        4 0.22772468E-02 0.12497916E+03</pdfrwt>
<pdfrwt beam="1">  1       -4 0.40586199E-01 0.12497916E+03</pdfrwt>
<totfact> 0.78398769E+03</totfact>
</mgrwt>
</event>
<event>
 5    1  0.3243498E-002  0.1249954E+03  0.7818608E-02  0.1235076E+00
          4   -1    0    0  501    0  0.00000000000E+00  0.00000000000E+00  0.15412534870E+03  0.15413058104E+03  0.12700000000E+01 0.  1.
         -4   -1    0    0    0  501 -0.00000000000E+00 -0.00000000000E+00 -0.25321204544E+02  0.25353033340E+02  0.12700000000E+01 0.  1.
         25    2    1    2    0    0  0.00000000000E+00  0.00000000000E+00  0.12880414416E+03  0.17948361438E+03  0.12499544103E+03 0.  0.
    9000005    1    3    3    0    0  0.50569313014E+01 -0.55304032689E+02  0.10554206853E+03  0.11926540494E+03  0.10000000000E+01 0.  0.
    9000005    1    3    3    0    0 -0.50569313014E+01  0.55304032689E+02  0.23262075628E+02  0.60218209442E+02  0.10000000000E+01 0.  0.
<mgrwt>
<rscale>  0 0.12499544E+03</rscale>
<asrwt>0</asrwt>
<pdfrwt beam="1">  1        4 0.23714443E-01 0.12499544E+03</pdfrwt>
<pdfrwt beam="2">  1       -4 0.38984208E-02 0.12499544E+03</pdfrwt>
<totfact> 0.93719617E+03</totfact>
</mgrwt>
</event>
<event>
 5    1  0.3243498E-002  0.1250020E+03  0.7818608E-02  0.1235066E+00
         -4   -1    0    0    0  501 -0.00000000000E+00  0.00000000000E+00  0.19406279748E+03  0.19406695305E+03  0.12700000000E+01 0. -1.
          4   -1    0    0  501    0  0.00000000000E+00 -0.00000000000E+00 -0.20105017862E+02  0.20145089804E+02  0.12700000000E+01 0. -1.
         25    2    1    2    0    0  0.00000000000E+00  0.00000000000E+00  0.17395777962E+03  0.21421204285E+03  0.12500196084E+03 0.  0.
    9000005    1    3    3    0    0 -0.21954354716E+02  0.38624968677E+02  0.11665297482E+02  0.45945196285E+02  0.10000000000E+01 0.  0.
    9000005    1    3    3    0    0  0.21954354716E+02 -0.38624968677E+02  0.16229248214E+03  0.16826684657E+03  0.10000000000E+01 0.  0.
<mgrwt>
<rscale>  0 0.12500196E+03</rscale>
<asrwt>0</asrwt>
<pdfrwt beam="2">  1        4 0.30964819E-02 0.12500196E+03</pdfrwt>
<pdfrwt beam="1">  1       -4 0.29859216E-01 0.12500196E+03</pdfrwt>
<totfact> 0.87788739E+03</totfact>
</mgrwt>
</event>
<event>
 5    1  0.3243498E-002  0.1250010E+03  0.7818608E-02  0.1235068E+00
          4   -1    0    0  501    0  0.00000000000E+00  0.00000000000E+00  0.84195062073E+02  0.84204639881E+02  0.12700000000E+01 0.  1.
         -4   -1    0    0    0  501 -0.00000000000E+00 -0.00000000000E+00 -0.46375042907E+02  0.46392429389E+02  0.12700000000E+01 0.  1.
         25    2    1    2    0    0  0.00000000000E+00  0.00000000000E+00  0.37820019166E+02  0.13059706927E+03  0.12500096261E+03 0.  0.
    9000005    1    3    3    0    0  0.54227271643E+02 -0.30507165088E+02  0.12815681210E+02  0.63533658768E+02  0.10000000000E+01 0.  0.
    9000005    1    3    3    0    0 -0.54227271643E+02  0.30507165088E+02  0.25004337957E+02  0.67063410502E+02  0.10000000000E+01 0.  0.
<mgrwt>
<rscale>  0 0.12500096E+03</rscale>
<asrwt>0</asrwt>
<pdfrwt beam="1">  1        4 0.12955161E-01 0.12500096E+03</pdfrwt>
<pdfrwt beam="2">  1       -4 0.71366962E-02 0.12500096E+03</pdfrwt>
<totfact> 0.10331511E+04</totfact>
</mgrwt>
</event>
<event>
 5    1  0.3243498E-002  0.1249981E+03  0.7818608E-02  0.1235072E+00
         -4   -1    0    0    0  501 -0.00000000000E+00  0.00000000000E+00  0.28532471701E+03  0.28532754343E+03  0.12700000000E+01 0. -1.
          4   -1    0    0  501    0  0.00000000000E+00 -0.00000000000E+00 -0.13657776770E+02  0.13716696625E+02  0.12700000000E+01 0. -1.
         25    2    1    2    0    0  0.00000000000E+00  0.00000000000E+00  0.27166694024E+03  0.29904424005E+03  0.12499812434E+03 0.  0.
    9000005    1    3    3    0    0 -0.15462129307E+02  0.21866888629E+02  0.27091125078E+03  0.27223362037E+03  0.10000000000E+01 0.  0.
    9000005    1    3    3    0    0  0.15462129307E+02 -0.21866888629E+02  0.75568946053E+00  0.26810619679E+02  0.10000000000E+01 0.  0.
<mgrwt>
<rscale>  0 0.12499812E+03</rscale>
<asrwt>0</asrwt>
<pdfrwt beam="2">  1        4 0.21059461E-02 0.12499812E+03</pdfrwt>
<pdfrwt beam="1">  1       -4 0.43900860E-01 0.12499812E+03</pdfrwt>
<totfact> 0.75722036E+03</totfact>
</mgrwt>
</event>
<event>
 5    1  0.3243498E-002  0.1249983E+03  0.7818608E-02  0.1235072E+00
         -4   -1    0    0    0  501 -0.00000000000E+00  0.00000000000E+00  0.10484985866E+02  0.10561620549E+02  0.12700000000E+01 0. -1.
          4   -1    0    0  501    0  0.00000000000E+00 -0.00000000000E+00 -0.37111192191E+03  0.37111409497E+03  0.12700000000E+01 0. -1.
         25    2    1    2    0    0  0.00000000000E+00  0.00000000000E+00 -0.36062693605E+03  0.38167571552E+03  0.12499825925E+03 0.  0.
    9000005    1    3    3    0    0  0.39513321868E+02  0.16650327434E+02 -0.31912301020E+03  0.32199228508E+03  0.10000000000E+01 0.  0.
    9000005    1    3    3    0    0 -0.39513321868E+02 -0.16650327434E+02 -0.41503925840E+02  0.59683430438E+02  0.10000000000E+01 0.  0.
<mgrwt>
<rscale>  0 0.12499826E+03</rscale>
<asrwt>0</asrwt>
<pdfrwt beam="2">  1        4 0.57100194E-01 0.12499826E+03</pdfrwt>
<pdfrwt beam="1">  1       -4 0.16191372E-02 0.12499826E+03</pdfrwt>
<totfact> 0.66377431E+03</totfact>
</mgrwt>
</event>
<event>
 5    1  0.3243498E-002  0.1249991E+03  0.7818608E-02  0.1235071E+00
         -4   -1    0    0    0  501 -0.00000000000E+00  0.00000000000E+00  0.13432356790E+03  0.13432957155E+03  0.12700000000E+01 0. -1.
          4   -1    0    0  501    0  0.00000000000E+00 -0.00000000000E+00 -0.29059976745E+02  0.29087714733E+02  0.12700000000E+01 0. -1.
         25    2    1    2    0    0  0.00000000000E+00  0.00000000000E+00  0.10526359116E+03  0.16341728629E+03  0.12499914333E+03 0.  0.
    9000005    1    3    3    0    0 -0.46073885863E+02 -0.41429902656E+02  0.42014343618E+02  0.74869518913E+02  0.10000000000E+01 0.  0.
    9000005    1    3    3    0    0  0.46073885863E+02  0.41429902656E+02  0.63249247539E+02  0.88547767374E+02  0.10000000000E+01 0.  0.
<mgrwt>
<rscale>  0 0.12499914E+03</rscale>
<asrwt>0</asrwt>
<pdfrwt beam="2">  1        4 0.44733612E-02 0.12499914E+03</pdfrwt>
<pdfrwt beam="1">  1       -4 0.20667760E-01 0.12499914E+03</pdfrwt>
<totfact> 0.96689836E+03</totfact>
</mgrwt>
</event>
<event>
 5    1  0.3243498E-002  0.1250022E+03  0.7818608E-02  0.1235066E+00
          4   -1    0    0  501    0  0.00000000000E+00  0.00000000000E+00  0.10459817227E+03  0.10460588197E+03  0.12700000000E+01 0.  1.
         -4   -1    0    0    0  501 -0.00000000000E+00 -0.00000000000E+00 -0.37326719057E+02  0.37348317975E+02  0.12700000000E+01 0.  1.
         25    2    1    2    0    0  0.00000000000E+00  0.00000000000E+00  0.67271453214E+02  0.14195419994E+03  0.12500218584E+03 0.  0.
    9000005    1    3    3    0    0 -0.46107017606E+02  0.79178249629E+00  0.81532551736E+02  0.93675188736E+02  0.10000000000E+01 0.  0.
    9000005    1    3    3    0    0  0.46107017606E+02 -0.79178249629E+00 -0.14261098522E+02  0.48279011207E+02  0.10000000000E+01 0.  0.
<mgrwt>
<rscale>  0 0.12500219E+03</rscale>
<asrwt>0</asrwt>
<pdfrwt beam="1">  1        4 0.16094281E-01 0.12500219E+03</pdfrwt>
<pdfrwt beam="2">  1       -4 0.57448268E-02 0.12500219E+03</pdfrwt>
<totfact> 0.10092747E+04</totfact>
</mgrwt>
</event>
<event>
 4    1  0.3243498E-002  0.1251011E+03  0.7818608E-02  0.1234911E+00
          4   -1    0    0  501    0  0.00000000000E+00  0.00000000000E+00  0.54180061316E+02  0.54194943899E+02  0.12700000000E+01 0. -1.
         -4   -1    0    0    0  501 -0.00000000000E+00 -0.00000000000E+00 -0.72183868820E+02  0.72195040119E+02  0.12700000000E+01 0. -1.
    9000005    1    1    2    0    0 -0.15206192598E+02  0.22012974220E+02 -0.66115491258E+02  0.71330621136E+02  0.10000000000E+01 0.  0.
    9000005    1    1    2    0    0  0.15206192598E+02 -0.22012974220E+02  0.48111683754E+02  0.55059362882E+02  0.10000000000E+01 0.  0.
<mgrwt>
<rscale>  0 0.12510112E+03</rscale>
<asrwt>0</asrwt>
<pdfrwt beam="1">  1        4 0.83373982E-02 0.12510112E+03</pdfrwt>
<pdfrwt beam="2">  1       -4 0.11107215E-01 0.12510112E+03</pdfrwt>
<totfact> 0.10398676E+04</totfact>
</mgrwt>
</event>
<event>
 5    1  0.3243498E-002  0.1250007E+03  0.7818608E-02  0.1235068E+00
          4   -1    0    0  501    0  0.00000000000E+00  0.00000000000E+00  0.33142560754E+01  0.35492525034E+01  0.12700000000E+01 0.  1.
         -4   -1    0    0    0  501 -0.00000000000E+00 -0.00000000000E+00 -0.11380441971E+04  0.11380449058E+04  0.12700000000E+01 0.  1.
         25    2    1    2    0    0  0.00000000000E+00  0.00000000000E+00 -0.11347299411E+04  0.11415941583E+04  0.12500073220E+03 0.  0.
    9000005    1    3    3    0    0  0.58364158813E+02  0.21240200543E+02 -0.50424049921E+03  0.50805216484E+03  0.10000000000E+01 0.  0.
    9000005    1    3    3    0    0 -0.58364158813E+02 -0.21240200543E+02 -0.63048944185E+03  0.63354199342E+03  0.10000000000E+01 0.  0.
<mgrwt>
<rscale>  0 0.12500073E+03</rscale>
<asrwt>0</asrwt>
<pdfrwt beam="1">  1        4 0.52801762E-03 0.12500073E+03</pdfrwt>
<pdfrwt beam="2">  1       -4 0.17510155E+00 0.12500073E+03</pdfrwt>
<totfact> 0.26294253E+03</totfact>
</mgrwt>
</event>
<event>
 5    1  0.3243498E-002  0.1249999E+03  0.7818608E-02  0.1235069E+00
         -4   -1    0    0    0  501 -0.00000000000E+00  0.00000000000E+00  0.40717268210E+03  0.40717466270E+03  0.12700000000E+01 0. -1.
          4   -1    0    0  501    0  0.00000000000E+00 -0.00000000000E+00 -0.95495310995E+01  0.96336101343E+01  0.12700000000E+01 0. -1.
         25    2    1    2    0    0  0.00000000000E+00  0.00000000000E+00  0.39762315100E+03  0.41680827283E+03  0.12499986438E+03 0.  0.
    9000005    1    3    3    0    0 -0.27833012755E+02  0.32294323389E+02  0.35116589082E+03  0.35374578839E+03  0.10000000000E+01 0.  0.
    9000005    1    3    3    0    0  0.27833012755E+02 -0.32294323389E+02  0.46457260172E+02  0.63062484449E+02  0.10000000000E+01 0.  0.
<mgrwt>
<rscale>  0 0.12499986E+03</rscale>
<asrwt>0</asrwt>
<pdfrwt beam="2">  1        4 0.14757788E-02 0.12499986E+03</pdfrwt>
<pdfrwt beam="1">  1       -4 0.62648564E-01 0.12499986E+03</pdfrwt>
<totfact> 0.62950410E+03</totfact>
</mgrwt>
</event>
<event>
 5    1  0.3243498E-002  0.1249987E+03  0.7818608E-02  0.1235071E+00
          4   -1    0    0  501    0  0.00000000000E+00  0.00000000000E+00  0.55891899457E+02  0.55906326341E+02  0.12700000000E+01 0. -1.
         -4   -1    0    0    0  501 -0.00000000000E+00 -0.00000000000E+00 -0.69858754576E+02  0.69870297630E+02  0.12700000000E+01 0. -1.
         25    2    1    2    0    0  0.00000000000E+00  0.00000000000E+00 -0.13966855118E+02  0.12577662397E+03  0.12499874438E+03 0.  0.
    9000005    1    3    3    0    0  0.13205502199E+01 -0.20459915567E+02 -0.66383151785E+02  0.69484349597E+02  0.10000000000E+01 0.  0.
    9000005    1    3    3    0    0 -0.13205502199E+01  0.20459915567E+02  0.52416296667E+02  0.56292274374E+02  0.10000000000E+01 0.  0.
<mgrwt>
<rscale>  0 0.12499874E+03</rscale>
<asrwt>0</asrwt>
<pdfrwt beam="1">  1        4 0.86007514E-02 0.12499874E+03</pdfrwt>
<pdfrwt beam="2">  1       -4 0.10749498E-01 0.12499874E+03</pdfrwt>
<totfact> 0.10436155E+04</totfact>
</mgrwt>
</event>
<event>
 5    1  0.3243498E-002  0.1249920E+03  0.7818608E-02  0.1235082E+00
          4   -1    0    0  501    0  0.00000000000E+00  0.00000000000E+00  0.12396844078E+03  0.12397494589E+03  0.12700000000E+01 0. -1.
         -4   -1    0    0    0  501 -0.00000000000E+00 -0.00000000000E+00 -0.31485882705E+02  0.31511485361E+02  0.12700000000E+01 0. -1.
         25    2    1    2    0    0  0.00000000000E+00  0.00000000000E+00  0.92482558073E+02  0.15548643125E+03  0.12499202677E+03 0.  0.
    9000005    1    3    3    0    0  0.32656351230E+02 -0.85723559755E+01  0.11165130679E+03  0.11664877569E+03  0.10000000000E+01 0.  0.
    9000005    1    3    3    0    0 -0.32656351230E+02  0.85723559755E+01 -0.19168748712E+02  0.38837655565E+02  0.10000000000E+01 0.  0.
<mgrwt>
<rscale>  0 0.12499203E+03</rscale>
<asrwt>0</asrwt>
<pdfrwt beam="1">  1        4 0.19074538E-01 0.12499203E+03</pdfrwt>
<pdfrwt beam="2">  1       -4 0.48464518E-02 0.12499203E+03</pdfrwt>
<totfact> 0.98237704E+03</totfact>
</mgrwt>
</event>
<event>
 5    1  0.3243498E-002  0.1250000E+03  0.7818608E-02  0.1235069E+00
         -4   -1    0    0    0  501 -0.00000000000E+00  0.00000000000E+00  0.12645967702E+01  0.17922346362E+01  0.12700000000E+01 0.  1.
          4   -1    0    0  501    0  0.00000000000E+00 -0.00000000000E+00 -0.25552236338E+04  0.25552239494E+04  0.12700000000E+01 0.  1.
         25    2    1    2    0    0  0.00000000000E+00  0.00000000000E+00 -0.25539590370E+04  0.25570161840E+04  0.12500001056E+03 0.  0.
    9000005    1    3    3    0    0  0.49234549015E+02  0.10646347986E+01 -0.20639627764E+04  0.20645504394E+04  0.10000000000E+01 0.  0.
    9000005    1    3    3    0    0 -0.49234549015E+02 -0.10646347986E+01 -0.48999626054E+03  0.49246574460E+03  0.10000000000E+01 0.  0.
<mgrwt>
<rscale>  0 0.12500001E+03</rscale>
<asrwt>0</asrwt>
<pdfrwt beam="2">  1        4 0.39314852E+00 0.12500001E+03</pdfrwt>
<pdfrwt beam="1">  1       -4 0.23516720E-03 0.12500001E+03</pdfrwt>
<totfact> 0.42368917E+02</totfact>
</mgrwt>
</event>
<event>
 5    1  0.3243498E-002  0.1250039E+03  0.7818608E-02  0.1235063E+00
          4   -1    0    0  501    0  0.00000000000E+00  0.00000000000E+00  0.39910498655E+02  0.39930700005E+02  0.12700000000E+01 0.  1.
         -4   -1    0    0    0  501 -0.00000000000E+00 -0.00000000000E+00 -0.97832207827E+02  0.97840450675E+02  0.12700000000E+01 0.  1.
         25    2    1    2    0    0  0.00000000000E+00  0.00000000000E+00 -0.57921709172E+02  0.13777115068E+03  0.12500386221E+03 0.  0.
    9000005    1    3    3    0    0  0.18608894402E+02 -0.42819181508E+02  0.16823783525E+02  0.49636810413E+02  0.10000000000E+01 0.  0.
    9000005    1    3    3    0    0 -0.18608894402E+02  0.42819181508E+02 -0.74745492697E+02  0.88134340267E+02  0.10000000000E+01 0.  0.
<mgrwt>
<rscale>  0 0.12500386E+03</rscale>
<asrwt>0</asrwt>
<pdfrwt beam="1">  1        4 0.61422648E-02 0.12500386E+03</pdfrwt>
<pdfrwt beam="2">  1       -4 0.15053297E-01 0.12500386E+03</pdfrwt>
<totfact> 0.10179100E+04</totfact>
</mgrwt>
</event>
<event>
 5    1  0.3243498E-002  0.1249773E+03  0.7818608E-02  0.1235105E+00
         -4   -1    0    0    0  501 -0.00000000000E+00  0.00000000000E+00  0.35888191035E+02  0.35910655185E+02  0.12700000000E+01 0.  1.
          4   -1    0    0  501    0  0.00000000000E+00 -0.00000000000E+00 -0.10874526982E+03  0.10875268552E+03  0.12700000000E+01 0.  1.
         25    2    1    2    0    0  0.00000000000E+00  0.00000000000E+00 -0.72857078780E+02  0.14466334070E+03  0.12497731080E+03 0.  0.
    9000005    1    3    3    0    0 -0.23055454251E+02  0.56613267703E+02 -0.51396624140E+02  0.79870075897E+02  0.10000000000E+01 0.  0.
    9000005    1    3    3    0    0  0.23055454251E+02 -0.56613267703E+02 -0.21460454640E+02  0.64793264805E+02  0.10000000000E+01 0.  0.
<mgrwt>
<rscale>  0 0.12497731E+03</rscale>
<asrwt>0</asrwt>
<pdfrwt beam="2">  1        4 0.16732340E-01 0.12497731E+03</pdfrwt>
<pdfrwt beam="1">  1       -4 0.55235587E-02 0.12497731E+03</pdfrwt>
<totfact> 0.10042963E+04</totfact>
</mgrwt>
</event>
<event>
 5    1  0.3243498E-002  0.1250002E+03  0.7818608E-02  0.1235069E+00
         -4   -1    0    0    0  501 -0.00000000000E+00  0.00000000000E+00  0.26830348387E+04  0.26830351393E+04  0.12700000000E+01 0. -1.
          4   -1    0    0  501    0  0.00000000000E+00 -0.00000000000E+00 -0.11785968166E+01  0.17326253075E+01  0.12700000000E+01 0. -1.
         25    2    1    2    0    0  0.00000000000E+00  0.00000000000E+00  0.26818562419E+04  0.26847677646E+04  0.12500019042E+03 0.  0.
    9000005    1    3    3    0    0  0.46875998292E+02 -0.40562826912E+02  0.15108086411E+04  0.15120801739E+04  0.10000000000E+01 0.  0.
    9000005    1    3    3    0    0 -0.46875998292E+02  0.40562826912E+02  0.11710476008E+04  0.11726875908E+04  0.10000000000E+01 0.  0.
<mgrwt>
<rscale>  0 0.12500019E+03</rscale>
<asrwt>0</asrwt>
<pdfrwt beam="2">  1        4 0.22396271E-03 0.12500019E+03</pdfrwt>
<pdfrwt beam="1">  1       -4 0.41281828E+00 0.12500019E+03</pdfrwt>
<totfact> 0.33749767E+02</totfact>
</mgrwt>
</event>
<event>
 5    1  0.3243498E-002  0.1249992E+03  0.7818608E-02  0.1235071E+00
         -4   -1    0    0    0  501 -0.00000000000E+00  0.00000000000E+00  0.92275799080E+01  0.93145655271E+01  0.12700000000E+01 0.  1.
          4   -1    0    0  501    0  0.00000000000E+00 -0.00000000000E+00 -0.42124418462E+03  0.42124609907E+03  0.12700000000E+01 0.  1.
         25    2    1    2    0    0  0.00000000000E+00  0.00000000000E+00 -0.41201660472E+03  0.43056066460E+03  0.12499921334E+03 0.  0.
    9000005    1    3    3    0    0 -0.46479615461E+02  0.33325185182E+02 -0.29275779987E+03  0.29829356682E+03  0.10000000000E+01 0.  0.
    9000005    1    3    3    0    0  0.46479615461E+02 -0.33325185182E+02 -0.11925880485E+03  0.13226709778E+03  0.10000000000E+01 0.  0.
<mgrwt>
<rscale>  0 0.12499921E+03</rscale>
<asrwt>0</asrwt>
<pdfrwt beam="2">  1        4 0.64813621E-01 0.12499921E+03</pdfrwt>
<pdfrwt beam="1">  1       -4 0.14264665E-02 0.12499921E+03</pdfrwt>
<totfact> 0.61686280E+03</totfact>
</mgrwt>
</event>
<event>
 5    1  0.3243498E-002  0.1250002E+03  0.7818608E-02  0.1235069E+00
         -4   -1    0    0    0  501 -0.00000000000E+00  0.00000000000E+00  0.14519889427E+03  0.14520444827E+03  0.12700000000E+01 0. -1.
          4   -1    0    0  501    0  0.00000000000E+00 -0.00000000000E+00 -0.26881778922E+02  0.26911762076E+02  0.12700000000E+01 0. -1.
         25    2    1    2    0    0  0.00000000000E+00  0.00000000000E+00  0.11831711535E+03  0.17211621035E+03  0.12500020032E+03 0.  0.
    9000005    1    3    3    0    0  0.36271224496E+02  0.40662871041E+02  0.10128875200E+03  0.11501948569E+03  0.10000000000E+01 0.  0.
    9000005    1    3    3    0    0 -0.36271224496E+02 -0.40662871041E+02  0.17028363351E+02  0.57096724653E+02  0.10000000000E+01 0.  0.
<mgrwt>
<rscale>  0 0.12500020E+03</rscale>
<asrwt>0</asrwt>
<pdfrwt beam="2">  1        4 0.41383919E-02 0.12500020E+03</pdfrwt>
<pdfrwt beam="1">  1       -4 0.22341025E-01 0.12500020E+03</pdfrwt>
<totfact> 0.95055241E+03</totfact>
</mgrwt>
</event>
<event>
 5    1  0.3243498E-002  0.1250039E+03  0.7818608E-02  0.1235063E+00
         -4   -1    0    0    0  501 -0.00000000000E+00  0.00000000000E+00  0.85861766029E+03  0.85861859953E+03  0.12700000000E+01 0.  1.
          4   -1    0    0  501    0  0.00000000000E+00 -0.00000000000E+00 -0.44601625116E+01  0.46374507684E+01  0.12700000000E+01 0.  1.
         25    2    1    2    0    0  0.00000000000E+00  0.00000000000E+00  0.85415749778E+03  0.86325605030E+03  0.12500390941E+03 0.  0.
    9000005    1    3    3    0    0 -0.20537309240E+02  0.52832930906E+02  0.60879463556E+03  0.61142866137E+03  0.10000000000E+01 0.  0.
    9000005    1    3    3    0    0  0.20537309240E+02 -0.52832930906E+02  0.24536286221E+03  0.25182738892E+03  0.10000000000E+01 0.  0.
<mgrwt>
<rscale>  0 0.12500391E+03</rscale>
<asrwt>0</asrwt>
<pdfrwt beam="2">  1        4 0.69988899E-03 0.12500391E+03</pdfrwt>
<pdfrwt beam="1">  1       -4 0.13210867E+00 0.12500391E+03</pdfrwt>
<totfact> 0.35587909E+03</totfact>
</mgrwt>
</event>
<event>
 5    1  0.3243498E-002  0.1250039E+03  0.7818608E-02  0.1235063E+00
          4   -1    0    0  501    0  0.00000000000E+00  0.00000000000E+00  0.77383100227E+02  0.77393521052E+02  0.12700000000E+01 0. -1.
         -4   -1    0    0    0  501 -0.00000000000E+00 -0.00000000000E+00 -0.50460669414E+02  0.50476648638E+02  0.12700000000E+01 0. -1.
         25    2    1    2    0    0  0.00000000000E+00  0.00000000000E+00  0.26922430813E+02  0.12787016969E+03  0.12500385200E+03 0.  0.
    9000005    1    3    3    0    0 -0.23875489673E+02 -0.43591192810E+02  0.52214729015E+02  0.72094445166E+02  0.10000000000E+01 0.  0.
    9000005    1    3    3    0    0  0.23875489673E+02  0.43591192810E+02 -0.25292298202E+02  0.55775724523E+02  0.10000000000E+01 0.  0.
<mgrwt>
<rscale>  0 0.12500385E+03</rscale>
<asrwt>0</asrwt>
<pdfrwt beam="1">  1        4 0.11907123E-01 0.12500385E+03</pdfrwt>
<pdfrwt beam="2">  1       -4 0.77652107E-02 0.12500385E+03</pdfrwt>
<totfact> 0.10389389E+04</totfact>
</mgrwt>
</event>
<event>
 5    1  0.3243498E-002  0.1249967E+03  0.7818608E-02  0.1235074E+00
          4   -1    0    0  501    0  0.00000000000E+00  0.00000000000E+00  0.63479976606E+03  0.63480103646E+03  0.12700000000E+01 0.  1.
         -4   -1    0    0    0  501 -0.00000000000E+00 -0.00000000000E+00 -0.60863714186E+01  0.62174606589E+01  0.12700000000E+01 0.  1.
         25    2    1    2    0    0  0.00000000000E+00  0.00000000000E+00  0.62871339464E+03  0.64101849712E+03  0.12499672414E+03 0.  0.
    9000005    1    3    3    0    0 -0.22346527179E+02 -0.58204440001E+02  0.29264694578E+03  0.29921624118E+03  0.10000000000E+01 0.  0.
    9000005    1    3    3    0    0  0.22346527179E+02  0.58204440001E+02  0.33606644886E+03  0.34180225593E+03  0.10000000000E+01 0.  0.
<mgrwt>
<rscale>  0 0.12499672E+03</rscale>
<asrwt>0</asrwt>
<pdfrwt beam="1">  1        4 0.97671697E-01 0.12499672E+03</pdfrwt>
<pdfrwt beam="2">  1       -4 0.94654621E-03 0.12499672E+03</pdfrwt>
<totfact> 0.46379965E+03</totfact>
</mgrwt>
</event>
<event>
 5    1  0.3243498E-002  0.1250018E+03  0.7818608E-02  0.1235066E+00
         -4   -1    0    0    0  501 -0.00000000000E+00  0.00000000000E+00  0.65012652095E+01  0.66241489510E+01  0.12700000000E+01 0.  1.
          4   -1    0    0  501    0  0.00000000000E+00 -0.00000000000E+00 -0.59511328136E+03  0.59511463648E+03  0.12700000000E+01 0.  1.
         25    2    1    2    0    0  0.00000000000E+00  0.00000000000E+00 -0.58861201615E+03  0.60173878543E+03  0.12500184132E+03 0.  0.
    9000005    1    3    3    0    0  0.45219324551E+02 -0.33202327549E+00 -0.86670013593E+02  0.97762921441E+02  0.10000000000E+01 0.  0.
    9000005    1    3    3    0    0 -0.45219324551E+02  0.33202327549E+00 -0.50194200255E+03  0.50397586399E+03  0.10000000000E+01 0.  0.
<mgrwt>
<rscale>  0 0.12500184E+03</rscale>
<asrwt>0</asrwt>
<pdfrwt beam="2">  1        4 0.91565403E-01 0.12500184E+03</pdfrwt>
<pdfrwt beam="1">  1       -4 0.10097520E-02 0.12500184E+03</pdfrwt>
<totfact> 0.48756085E+03</totfact>
</mgrwt>
</event>
<event>
 5    1  0.3243498E-002  0.1249982E+03  0.7818608E-02  0.1235072E+00
          4   -1    0    0  501    0  0.00000000000E+00  0.00000000000E+00  0.22373030488E+02  0.22409047128E+02  0.12700000000E+01 0.  1.
         -4   -1    0    0    0  501 -0.00000000000E+00 -0.00000000000E+00 -0.17441259806E+03  0.17441722181E+03  0.12700000000E+01 0.  1.
         25    2    1    2    0    0  0.00000000000E+00  0.00000000000E+00 -0.15203956757E+03  0.19682626894E+03  0.12499820013E+03 0.  0.
    9000005    1    3    3    0    0  0.30867928461E+02 -0.48390109597E+02 -0.37106729427E+02  0.68354524964E+02  0.10000000000E+01 0.  0.
    9000005    1    3    3    0    0 -0.30867928461E+02  0.48390109597E+02 -0.11493283815E+03  0.12847174397E+03  0.10000000000E+01 0.  0.
<mgrwt>
<rscale>  0 0.12499820E+03</rscale>
<asrwt>0</asrwt>
<pdfrwt beam="1">  1        4 0.34451310E-02 0.12499820E+03</pdfrwt>
<pdfrwt beam="2">  1       -4 0.26835833E-01 0.12499820E+03</pdfrwt>
<totfact> 0.90676599E+03</totfact>
</mgrwt>
</event>
<event>
 5    1  0.3243498E-002  0.1249809E+03  0.7818608E-02  0.1235099E+00
          4   -1    0    0  501    0  0.00000000000E+00  0.00000000000E+00  0.36235624691E+02  0.36257873583E+02  0.12700000000E+01 0.  1.
         -4   -1    0    0    0  501 -0.00000000000E+00 -0.00000000000E+00 -0.10770930403E+03  0.10771679105E+03  0.12700000000E+01 0.  1.
         25    2    1    2    0    0  0.00000000000E+00  0.00000000000E+00 -0.71473679341E+02  0.14397466464E+03  0.12498086741E+03 0.  0.
    9000005    1    3    3    0    0  0.36705544598E+02 -0.15343420423E+02 -0.91239220700E+02  0.99540509083E+02  0.10000000000E+01 0.  0.
    9000005    1    3    3    0    0 -0.36705544598E+02  0.15343420423E+02  0.19765541359E+02  0.44434155554E+02  0.10000000000E+01 0.  0.
<mgrwt>
<rscale>  0 0.12498087E+03</rscale>
<asrwt>0</asrwt>
<pdfrwt beam="1">  1        4 0.55769989E-02 0.12498087E+03</pdfrwt>
<pdfrwt beam="2">  1       -4 0.16572949E-01 0.12498087E+03</pdfrwt>
<totfact> 0.10056195E+04</totfact>
</mgrwt>
</event>
<event>
 5    1  0.3243498E-002  0.1249976E+03  0.7818608E-02  0.1235073E+00
         -4   -1    0    0    0  501 -0.00000000000E+00  0.00000000000E+00  0.38664851782E+03  0.38665060356E+03  0.12700000000E+01 0.  1.
          4   -1    0    0  501    0  0.00000000000E+00 -0.00000000000E+00 -0.10060423772E+02  0.10140267574E+02  0.12700000000E+01 0.  1.
         25    2    1    2    0    0  0.00000000000E+00  0.00000000000E+00  0.37658809405E+03  0.39679087113E+03  0.12499761132E+03 0.  0.
    9000005    1    3    3    0    0  0.40920747372E+02 -0.12215177626E+02  0.33311650550E+03  0.33584419656E+03  0.10000000000E+01 0.  0.
    9000005    1    3    3    0    0 -0.40920747372E+02  0.12215177626E+02  0.43471588549E+02  0.60946674568E+02  0.10000000000E+01 0.  0.
<mgrwt>
<rscale>  0 0.12499761E+03</rscale>
<asrwt>0</asrwt>
<pdfrwt beam="2">  1        4 0.15540601E-02 0.12499761E+03</pdfrwt>
<pdfrwt beam="1">  1       -4 0.59490678E-01 0.12499761E+03</pdfrwt>
<totfact> 0.64869533E+03</totfact>
</mgrwt>
</event>
<event>
 5    1  0.3243498E-002  0.1250205E+03  0.7818608E-02  0.1235037E+00
         -4   -1    0    0    0  501 -0.00000000000E+00  0.00000000000E+00  0.59225471920E+03  0.59225608085E+03  0.12700000000E+01 0.  1.
          4   -1    0    0  501    0  0.00000000000E+00 -0.00000000000E+00 -0.65352281009E+01  0.66574849854E+01  0.12700000000E+01 0.  1.
         25    2    1    2    0    0  0.00000000000E+00  0.00000000000E+00  0.58571949109E+03  0.59891356584E+03  0.12502054671E+03 0.  0.
    9000005    1    3    3    0    0 -0.36919281849E+02  0.48908275117E+02  0.23389905049E+03  0.24179499285E+03  0.10000000000E+01 0.  0.
    9000005    1    3    3    0    0  0.36919281849E+02 -0.48908275117E+02  0.35182044060E+03  0.35711857299E+03  0.10000000000E+01 0.  0.
<mgrwt>
<rscale>  0 0.12502055E+03</rscale>
<asrwt>0</asrwt>
<pdfrwt beam="2">  1        4 0.10149288E-02 0.12502055E+03</pdfrwt>
<pdfrwt beam="1">  1       -4 0.91125621E-01 0.12502055E+03</pdfrwt>
<totfact> 0.48914219E+03</totfact>
</mgrwt>
</event>
<event>
 5    1  0.3243498E-002  0.1250014E+03  0.7818608E-02  0.1235067E+00
          4   -1    0    0  501    0  0.00000000000E+00  0.00000000000E+00  0.78665043417E+02  0.78675294444E+02  0.12700000000E+01 0.  1.
         -4   -1    0    0    0  501 -0.00000000000E+00 -0.00000000000E+00 -0.49636215641E+02  0.49652460193E+02  0.12700000000E+01 0.  1.
         25    2    1    2    0    0  0.00000000000E+00  0.00000000000E+00  0.29028827776E+02  0.12832775464E+03  0.12500135906E+03 0.  0.
    9000005    1    3    3    0    0 -0.61838712367E+02  0.48651459168E+01  0.67203512691E+01  0.62400794172E+02  0.10000000000E+01 0.  0.
    9000005    1    3    3    0    0  0.61838712367E+02 -0.48651459168E+01  0.22308476507E+02  0.65926960465E+02  0.10000000000E+01 0.  0.
<mgrwt>
<rscale>  0 0.12500136E+03</rscale>
<asrwt>0</asrwt>
<pdfrwt beam="1">  1        4 0.12104352E-01 0.12500136E+03</pdfrwt>
<pdfrwt beam="2">  1       -4 0.76383790E-02 0.12500136E+03</pdfrwt>
<totfact> 0.10380097E+04</totfact>
</mgrwt>
</event>
<event>
 5    1  0.3243498E-002  0.1250005E+03  0.7818608E-02  0.1235068E+00
          4   -1    0    0  501    0  0.00000000000E+00  0.00000000000E+00  0.18297374982E+03  0.18297815723E+03  0.12700000000E+01 0.  1.
         -4   -1    0    0    0  501 -0.00000000000E+00 -0.00000000000E+00 -0.21325315761E+02  0.21363098846E+02  0.12700000000E+01 0.  1.
         25    2    1    2    0    0  0.00000000000E+00  0.00000000000E+00  0.16164843406E+03  0.20434125608E+03  0.12500053080E+03 0.  0.
    9000005    1    3    3    0    0 -0.60219796271E+02  0.14685920947E+02  0.67830169404E+02  0.91891414280E+02  0.10000000000E+01 0.  0.
    9000005    1    3    3    0    0  0.60219796271E+02 -0.14685920947E+02  0.93818264658E+02  0.11244984180E+03  0.10000000000E+01 0.  0.
<mgrwt>
<rscale>  0 0.12500053E+03</rscale>
<asrwt>0</asrwt>
<pdfrwt beam="1">  1        4 0.28153051E-01 0.12500053E+03</pdfrwt>
<pdfrwt beam="2">  1       -4 0.32840634E-02 0.12500053E+03</pdfrwt>
<totfact> 0.89407387E+03</totfact>
</mgrwt>
</event>
<event>
 4    1  0.3243498E-002  0.1249375E+03  0.7818608E-02  0.1235167E+00
         -4   -1    0    0    0  501 -0.00000000000E+00  0.00000000000E+00  0.55022448828E+03  0.55022595395E+03  0.12700000000E+01 0. -1.
          4   -1    0    0  501    0  0.00000000000E+00 -0.00000000000E+00 -0.70339332994E+01  0.71476651895E+01  0.12700000000E+01 0. -1.
    9000005    1    1    2    0    0  0.40431001291E+02  0.45456545903E+02  0.20844424010E+03  0.21714272878E+03  0.10000000000E+01 0.  0.
    9000005    1    1    2    0    0 -0.40431001291E+02 -0.45456545903E+02  0.33474631488E+03  0.34023089036E+03  0.10000000000E+01 0.  0.
<mgrwt>
<rscale>  0 0.12493747E+03</rscale>
<asrwt>0</asrwt>
<pdfrwt beam="2">  1        4 0.10910047E-02 0.12493747E+03</pdfrwt>
<pdfrwt beam="1">  1       -4 0.84658799E-01 0.12493747E+03</pdfrwt>
<totfact> 0.51744800E+03</totfact>
</mgrwt>
</event>
<event>
 5    1  0.3243498E-002  0.1249950E+03  0.7818608E-02  0.1235077E+00
         -4   -1    0    0    0  501 -0.00000000000E+00  0.00000000000E+00  0.65313592977E+02  0.65325939163E+02  0.12700000000E+01 0. -1.
          4   -1    0    0  501    0  0.00000000000E+00 -0.00000000000E+00 -0.59778041140E+02  0.59791530358E+02  0.12700000000E+01 0. -1.
         25    2    1    2    0    0  0.00000000000E+00  0.00000000000E+00  0.55355518371E+01  0.12511746952E+03  0.12499495528E+03 0.  0.
    9000005    1    3    3    0    0 -0.53706288357E+02  0.29894516814E+02 -0.85076853309E+01  0.62059876364E+02  0.10000000000E+01 0.  0.
    9000005    1    3    3    0    0  0.53706288357E+02 -0.29894516814E+02  0.14043237168E+02  0.63057593157E+02  0.10000000000E+01 0.  0.
<mgrwt>
<rscale>  0 0.12499496E+03</rscale>
<asrwt>0</asrwt>
<pdfrwt beam="2">  1        4 0.91986090E-02 0.12499496E+03</pdfrwt>
<pdfrwt beam="1">  1       -4 0.10050232E-01 0.12499496E+03</pdfrwt>
<totfact> 0.10451503E+04</totfact>
</mgrwt>
</event>
<event>
 5    1  0.3243498E-002  0.1250009E+03  0.7818608E-02  0.1235068E+00
          4   -1    0    0  501    0  0.00000000000E+00  0.00000000000E+00  0.37471390616E+02  0.37492906192E+02  0.12700000000E+01 0. -1.
         -4   -1    0    0    0  501 -0.00000000000E+00 -0.00000000000E+00 -0.10419234524E+03  0.10420008496E+03  0.12700000000E+01 0. -1.
         25    2    1    2    0    0  0.00000000000E+00  0.00000000000E+00 -0.66720954620E+02  0.14169299115E+03  0.12500087182E+03 0.  0.
    9000005    1    3    3    0    0 -0.78076988718E-01  0.58934710650E+02 -0.56920534050E+02  0.81940548033E+02  0.10000000000E+01 0.  0.
    9000005    1    3    3    0    0  0.78076988718E-01 -0.58934710650E+02 -0.98004205697E+01  0.59752443119E+02  0.10000000000E+01 0.  0.
<mgrwt>
<rscale>  0 0.12500087E+03</rscale>
<asrwt>0</asrwt>
<pdfrwt beam="1">  1        4 0.57670798E-02 0.12500087E+03</pdfrwt>
<pdfrwt beam="2">  1       -4 0.16031842E-01 0.12500087E+03</pdfrwt>
<totfact> 0.10098419E+04</totfact>
</mgrwt>
</event>
<event>
 5    1  0.3243498E-002  0.1249992E+03  0.7818608E-02  0.1235070E+00
          4   -1    0    0  501    0  0.00000000000E+00  0.00000000000E+00  0.91731078160E+01  0.92606051100E+01  0.12700000000E+01 0. -1.
         -4   -1    0    0    0  501 -0.00000000000E+00 -0.00000000000E+00 -0.42372214928E+03  0.42372405253E+03  0.12700000000E+01 0. -1.
         25    2    1    2    0    0  0.00000000000E+00  0.00000000000E+00 -0.41454904147E+03  0.43298465764E+03  0.12499922388E+03 0.  0.
    9000005    1    3    3    0    0  0.55820656190E+02 -0.15055001296E+02 -0.28943559799E+03  0.29515515260E+03  0.10000000000E+01 0.  0.
    9000005    1    3    3    0    0 -0.55820656190E+02  0.15055001296E+02 -0.12511344347E+03  0.13782950504E+03  0.10000000000E+01 0.  0.
<mgrwt>
<rscale>  0 0.12499922E+03</rscale>
<asrwt>0</asrwt>
<pdfrwt beam="1">  1        4 0.14181246E-02 0.12499922E+03</pdfrwt>
<pdfrwt beam="2">  1       -4 0.65194885E-01 0.12499922E+03</pdfrwt>
<totfact> 0.61467438E+03</totfact>
</mgrwt>
</event>
<event>
 5    1  0.3243498E-002  0.1250024E+03  0.7818608E-02  0.1235065E+00
          4   -1    0    0  501    0  0.00000000000E+00  0.00000000000E+00  0.60132558478E+02  0.60145968186E+02  0.12700000000E+01 0.  1.
         -4   -1    0    0    0  501 -0.00000000000E+00 -0.00000000000E+00 -0.64936332572E+02  0.64948750472E+02  0.12700000000E+01 0.  1.
         25    2    1    2    0    0  0.00000000000E+00  0.00000000000E+00 -0.48037740940E+01  0.12509471866E+03  0.12500244954E+03 0.  0.
    9000005    1    3    3    0    0 -0.15160690197E+01 -0.34149495879E+02 -0.54756051177E+02  0.64557816525E+02  0.10000000000E+01 0.  0.
    9000005    1    3    3    0    0  0.15160690197E+01  0.34149495879E+02  0.49952277083E+02  0.60536902133E+02  0.10000000000E+01 0.  0.
<mgrwt>
<rscale>  0 0.12500245E+03</rscale>
<asrwt>0</asrwt>
<pdfrwt beam="1">  1        4 0.92531496E-02 0.12500245E+03</pdfrwt>
<pdfrwt beam="2">  1       -4 0.99921917E-02 0.12500245E+03</pdfrwt>
<totfact> 0.10450227E+04</totfact>
</mgrwt>
</event>
<event>
 5    1  0.3243498E-002  0.1250004E+03  0.7818608E-02  0.1235069E+00
         -4   -1    0    0    0  501 -0.00000000000E+00  0.00000000000E+00  0.89581834337E+03  0.89581924361E+03  0.12700000000E+01 0.  1.
          4   -1    0    0  501    0  0.00000000000E+00 -0.00000000000E+00 -0.42671745520E+01  0.44521543838E+01  0.12700000000E+01 0.  1.
         25    2    1    2    0    0  0.00000000000E+00  0.00000000000E+00  0.89155116882E+03  0.90027139799E+03  0.12500041368E+03 0.  0.
    9000005    1    3    3    0    0  0.23584027044E+02 -0.35643732385E+02  0.77413299557E+03  0.77531256718E+03  0.10000000000E+01 0.  0.
    9000005    1    3    3    0    0 -0.23584027044E+02  0.35643732385E+02  0.11741817324E+03  0.12495883081E+03  0.10000000000E+01 0.  0.
<mgrwt>
<rscale>  0 0.12500041E+03</rscale>
<asrwt>0</asrwt>
<pdfrwt beam="2">  1        4 0.67078702E-03 0.12500041E+03</pdfrwt>
<pdfrwt beam="1">  1       -4 0.13783247E+00 0.12500041E+03</pdfrwt>
<totfact> 0.34149225E+03</totfact>
</mgrwt>
</event>
<event>
 5    1  0.3243498E-002  0.1249969E+03  0.7818608E-02  0.1235074E+00
          4   -1    0    0  501    0  0.00000000000E+00  0.00000000000E+00  0.65770170044E+02  0.65782430539E+02  0.12700000000E+01 0. -1.
         -4   -1    0    0    0  501 -0.00000000000E+00 -0.00000000000E+00 -0.59364925548E+02  0.59378508615E+02  0.12700000000E+01 0. -1.
         25    2    1    2    0    0  0.00000000000E+00  0.00000000000E+00  0.64052444954E+01  0.12516093915E+03  0.12499693409E+03 0.  0.
    9000005    1    3    3    0    0  0.22588151573E+02 -0.52134630734E+02  0.29252407152E+02  0.63913595091E+02  0.10000000000E+01 0.  0.
    9000005    1    3    3    0    0 -0.22588151573E+02  0.52134630734E+02 -0.22847162656E+02  0.61247344063E+02  0.10000000000E+01 0.  0.
<mgrwt>
<rscale>  0 0.12499693E+03</rscale>
<asrwt>0</asrwt>
<pdfrwt beam="1">  1        4 0.10120476E-01 0.12499693E+03</pdfrwt>
<pdfrwt beam="2">  1       -4 0.91350534E-02 0.12499693E+03</pdfrwt>
<totfact> 0.10450092E+04</totfact>
</mgrwt>
</event>
<event>
 5    1  0.3243498E-002  0.1249981E+03  0.7818608E-02  0.1235072E+00
         -4   -1    0    0    0  501 -0.00000000000E+00  0.00000000000E+00  0.91415752291E+02  0.91424573649E+02  0.12700000000E+01 0.  1.
          4   -1    0    0  501    0  0.00000000000E+00 -0.00000000000E+00 -0.42708999826E+02  0.42727878091E+02  0.12700000000E+01 0.  1.
         25    2    1    2    0    0  0.00000000000E+00  0.00000000000E+00  0.48706752465E+02  0.13415245174E+03  0.12499813027E+03 0.  0.
    9000005    1    3    3    0    0 -0.39250469960E+02  0.16542569876E+02 -0.24721515907E+02  0.49258596802E+02  0.10000000000E+01 0.  0.
    9000005    1    3    3    0    0  0.39250469960E+02 -0.16542569876E+02  0.73428268371E+02  0.84893854938E+02  0.10000000000E+01 0.  0.
<mgrwt>
<rscale>  0 0.12499813E+03</rscale>
<asrwt>0</asrwt>
<pdfrwt beam="2">  1        4 0.65727461E-02 0.12499813E+03</pdfrwt>
<pdfrwt beam="1">  1       -4 0.14066093E-01 0.12499813E+03</pdfrwt>
<totfact> 0.10256399E+04</totfact>
</mgrwt>
</event>
<event>
 5    1  0.3243498E-002  0.1249974E+03  0.7818608E-02  0.1235073E+00
         -4   -1    0    0    0  501 -0.00000000000E+00  0.00000000000E+00  0.49138153918E+02  0.49154563068E+02  0.12700000000E+01 0. -1.
          4   -1    0    0  501    0  0.00000000000E+00 -0.00000000000E+00 -0.79457182691E+02  0.79467331535E+02  0.12700000000E+01 0. -1.
         25    2    1    2    0    0  0.00000000000E+00  0.00000000000E+00 -0.30319028774E+02  0.12862189460E+03  0.12499739303E+03 0.  0.
    9000005    1    3    3    0    0  0.53854647121E+02 -0.17518263504E+02  0.12023812643E+02  0.57903235170E+02  0.10000000000E+01 0.  0.
    9000005    1    3    3    0    0 -0.53854647121E+02  0.17518263504E+02 -0.42342841417E+02  0.70718659433E+02  0.10000000000E+01 0.  0.
<mgrwt>
<rscale>  0 0.12499739E+03</rscale>
<asrwt>0</asrwt>
<pdfrwt beam="2">  1        4 0.12226225E-01 0.12499739E+03</pdfrwt>
<pdfrwt beam="1">  1       -4 0.75617589E-02 0.12499739E+03</pdfrwt>
<totfact> 0.10374689E+04</totfact>
</mgrwt>
</event>
<event>
 5    1  0.3243498E-002  0.1250035E+03  0.7818608E-02  0.1235064E+00
          4   -1    0    0  501    0  0.00000000000E+00  0.00000000000E+00  0.42922451691E+03  0.42922639576E+03  0.12700000000E+01 0. -1.
         -4   -1    0    0    0  501 -0.00000000000E+00 -0.00000000000E+00 -0.90550052097E+01  0.91436327216E+01  0.12700000000E+01 0. -1.
         25    2    1    2    0    0  0.00000000000E+00  0.00000000000E+00  0.42016951170E+03  0.43837002848E+03  0.12500345318E+03 0.  0.
    9000005    1    3    3    0    0 -0.13859249311E+02 -0.54876189867E+02  0.30299948388E+03  0.30824205138E+03  0.10000000000E+01 0.  0.
    9000005    1    3    3    0    0  0.13859249311E+02  0.54876189867E+02  0.11717002782E+03  0.13012797711E+03  0.10000000000E+01 0.  0.
<mgrwt>
<rscale>  0 0.12500345E+03</rscale>
<asrwt>0</asrwt>
<pdfrwt beam="1">  1        4 0.66041511E-01 0.12500345E+03</pdfrwt>
<pdfrwt beam="2">  1       -4 0.14000396E-02 0.12500345E+03</pdfrwt>
<totfact> 0.60979911E+03</totfact>
</mgrwt>
</event>
<event>
 5    1  0.3243498E-002  0.1250013E+03  0.7818608E-02  0.1235067E+00
          4   -1    0    0  501    0  0.00000000000E+00  0.00000000000E+00  0.12687415728E+03  0.12688051342E+03  0.12700000000E+01 0.  1.
         -4   -1    0    0    0  501 -0.00000000000E+00 -0.00000000000E+00 -0.30768783743E+02  0.30794982595E+02  0.12700000000E+01 0.  1.
         25    2    1    2    0    0  0.00000000000E+00  0.00000000000E+00  0.96105373538E+02  0.15767549601E+03  0.12500127688E+03 0.  0.
    9000005    1    3    3    0    0  0.29809314357E+02  0.39149918730E+02 -0.53983144904E+00  0.49219942879E+02  0.10000000000E+01 0.  0.
    9000005    1    3    3    0    0 -0.29809314357E+02 -0.39149918730E+02  0.96645204987E+02  0.10845555314E+03  0.10000000000E+01 0.  0.
<mgrwt>
<rscale>  0 0.12500128E+03</rscale>
<asrwt>0</asrwt>
<pdfrwt beam="1">  1        4 0.19521605E-01 0.12500128E+03</pdfrwt>
<pdfrwt beam="2">  1       -4 0.47361633E-02 0.12500128E+03</pdfrwt>
<totfact> 0.97790004E+03</totfact>
</mgrwt>
</event>
<event>
 5    1  0.3243498E-002  0.1250003E+03  0.7818608E-02  0.1235069E+00
         -4   -1    0    0    0  501 -0.00000000000E+00  0.00000000000E+00  0.10652630872E+03  0.10653387888E+03  0.12700000000E+01 0. -1.
          4   -1    0    0  501    0  0.00000000000E+00 -0.00000000000E+00 -0.36649663798E+02  0.36671661491E+02  0.12700000000E+01 0. -1.
         25    2    1    2    0    0  0.00000000000E+00  0.00000000000E+00  0.69876644923E+02  0.14320554037E+03  0.12500032515E+03 0.  0.
    9000005    1    3    3    0    0  0.39001534253E+02 -0.12917408905E+02 -0.19007776396E+02  0.45279959037E+02  0.10000000000E+01 0.  0.
    9000005    1    3    3    0    0 -0.39001534253E+02  0.12917408905E+02  0.88884421318E+02  0.97925581336E+02  0.10000000000E+01 0.  0.
<mgrwt>
<rscale>  0 0.12500033E+03</rscale>
<asrwt>0</asrwt>
<pdfrwt beam="2">  1        4 0.56406842E-02 0.12500033E+03</pdfrwt>
<pdfrwt beam="1">  1       -4 0.16390937E-01 0.12500033E+03</pdfrwt>
<totfact> 0.10067502E+04</totfact>
</mgrwt>
</event>
<event>
 5    1  0.3243498E-002  0.1249810E+03  0.7818608E-02  0.1235099E+00
         -4   -1    0    0    0  501 -0.00000000000E+00  0.00000000000E+00  0.37254905530E+03  0.37255121997E+03  0.12700000000E+01 0.  1.
          4   -1    0    0  501    0  0.00000000000E+00 -0.00000000000E+00 -0.10441340745E+02  0.10518293424E+02  0.12700000000E+01 0.  1.
         25    2    1    2    0    0  0.00000000000E+00  0.00000000000E+00  0.36210771455E+03  0.38306951340E+03  0.12498101918E+03 0.  0.
    9000005    1    3    3    0    0  0.46323323132E+02  0.21907153615E+02  0.29063813468E+03  0.29512251519E+03  0.10000000000E+01 0.  0.
    9000005    1    3    3    0    0 -0.46323323132E+02 -0.21907153615E+02  0.71469579876E+02  0.87946998205E+02  0.10000000000E+01 0.  0.
<mgrwt>
<rscale>  0 0.12498102E+03</rscale>
<asrwt>0</asrwt>
<pdfrwt beam="2">  1        4 0.16124462E-02 0.12498102E+03</pdfrwt>
<pdfrwt beam="1">  1       -4 0.57321321E-01 0.12498102E+03</pdfrwt>
<totfact> 0.66261208E+03</totfact>
</mgrwt>
</event>
<event>
 5    1  0.3243498E-002  0.1250003E+03  0.7818608E-02  0.1235069E+00
          4   -1    0    0  501    0  0.00000000000E+00  0.00000000000E+00  0.26640953091E+03  0.26641255800E+03  0.12700000000E+01 0. -1.
         -4   -1    0    0    0  501 -0.00000000000E+00 -0.00000000000E+00 -0.14632031306E+02  0.14687043274E+02  0.12700000000E+01 0. -1.
         25    2    1    2    0    0  0.00000000000E+00  0.00000000000E+00  0.25177749960E+03  0.28109960127E+03  0.12500030612E+03 0.  0.
    9000005    1    3    3    0    0  0.37892349596E+02 -0.47304165378E+02  0.91654278356E+02  0.10988640026E+03  0.10000000000E+01 0.  0.
    9000005    1    3    3    0    0 -0.37892349596E+02  0.47304165378E+02  0.16012322125E+03  0.17121320102E+03  0.10000000000E+01 0.  0.
<mgrwt>
<rscale>  0 0.12500031E+03</rscale>
<asrwt>0</asrwt>
<pdfrwt beam="1">  1        4 0.40990547E-01 0.12500031E+03</pdfrwt>
<pdfrwt beam="2">  1       -4 0.22555463E-02 0.12500031E+03</pdfrwt>
<totfact> 0.78031999E+03</totfact>
</mgrwt>
</event>
<event>
 5    1  0.3243498E-002  0.1250122E+03  0.7818608E-02  0.1235050E+00
          4   -1    0    0  501    0  0.00000000000E+00  0.00000000000E+00  0.81035916411E+02  0.81045867560E+02  0.12700000000E+01 0.  1.
         -4   -1    0    0    0  501 -0.00000000000E+00 -0.00000000000E+00 -0.48192083140E+02  0.48208814312E+02  0.12700000000E+01 0.  1.
         25    2    1    2    0    0  0.00000000000E+00  0.00000000000E+00  0.32843833270E+02  0.12925468187E+03  0.12501222101E+03 0.  0.
    9000005    1    3    3    0    0 -0.26405210557E+01 -0.98319967860E+01  0.80177935442E+02  0.80827853144E+02  0.10000000000E+01 0.  0.
    9000005    1    3    3    0    0  0.26405210557E+01  0.98319967860E+01 -0.47334102171E+02  0.48426828728E+02  0.10000000000E+01 0.  0.
<mgrwt>
<rscale>  0 0.12501222E+03</rscale>
<asrwt>0</asrwt>
<pdfrwt beam="1">  1        4 0.12469116E-01 0.12501222E+03</pdfrwt>
<pdfrwt beam="2">  1       -4 0.74162192E-02 0.12501222E+03</pdfrwt>
<totfact> 0.10357620E+04</totfact>
</mgrwt>
</event>
<event>
 5    1  0.3243498E-002  0.1250012E+03  0.7818608E-02  0.1235067E+00
          4   -1    0    0  501    0  0.00000000000E+00  0.00000000000E+00  0.33542301115E+02  0.33566335280E+02  0.12700000000E+01 0. -1.
         -4   -1    0    0    0  501 -0.00000000000E+00 -0.00000000000E+00 -0.11639037844E+03  0.11639730707E+03  0.12700000000E+01 0. -1.
         25    2    1    2    0    0  0.00000000000E+00  0.00000000000E+00 -0.82848077327E+02  0.14996364235E+03  0.12500116044E+03 0.  0.
    9000005    1    3    3    0    0 -0.61543469732E+02  0.10755289284E+02 -0.43140744664E+02  0.75930222998E+02  0.10000000000E+01 0.  0.
    9000005    1    3    3    0    0  0.61543469732E+02 -0.10755289284E+02 -0.39707332663E+02  0.74033419356E+02  0.10000000000E+01 0.  0.
<mgrwt>
<rscale>  0 0.12500116E+03</rscale>
<asrwt>0</asrwt>
<pdfrwt beam="1">  1        4 0.51627358E-02 0.12500116E+03</pdfrwt>
<pdfrwt beam="2">  1       -4 0.17908594E-01 0.12500116E+03</pdfrwt>
<totfact> 0.99308352E+03</totfact>
</mgrwt>
</event>
<event>
 5    1  0.3243498E-002  0.1250002E+03  0.7818608E-02  0.1235069E+00
          4   -1    0    0  501    0  0.00000000000E+00  0.00000000000E+00  0.32563185779E+03  0.32563433435E+03  0.12700000000E+01 0.  1.
         -4   -1    0    0    0  501 -0.00000000000E+00 -0.00000000000E+00 -0.11959811287E+02  0.12027052259E+02  0.12700000000E+01 0.  1.
         25    2    1    2    0    0  0.00000000000E+00  0.00000000000E+00  0.31367204650E+03  0.33766138661E+03  0.12500023700E+03 0.  0.
    9000005    1    3    3    0    0 -0.92507997269E+00  0.46078761062E+02  0.27084043081E+03  0.27473559462E+03  0.10000000000E+01 0.  0.
    9000005    1    3    3    0    0  0.92507997269E+00 -0.46078761062E+02  0.42831615700E+02  0.62925791989E+02  0.10000000000E+01 0.  0.
<mgrwt>
<rscale>  0 0.12500024E+03</rscale>
<asrwt>0</asrwt>
<pdfrwt beam="1">  1        4 0.50102568E-01 0.12500024E+03</pdfrwt>
<pdfrwt beam="2">  1       -4 0.18453340E-02 0.12500024E+03</pdfrwt>
<totfact> 0.71103258E+03</totfact>
</mgrwt>
</event>
<event>
 5    1  0.3243498E-002  0.1250006E+03  0.7818608E-02  0.1235068E+00
          4   -1    0    0  501    0  0.00000000000E+00  0.00000000000E+00  0.41287615279E+03  0.41287810603E+03  0.12700000000E+01 0.  1.
         -4   -1    0    0    0  501 -0.00000000000E+00 -0.00000000000E+00 -0.94165527505E+01  0.95018085491E+01  0.12700000000E+01 0.  1.
         25    2    1    2    0    0  0.00000000000E+00  0.00000000000E+00  0.40345960004E+03  0.42237991458E+03  0.12500057352E+03 0.  0.
    9000005    1    3    3    0    0  0.51234872540E+02 -0.27856982559E+02  0.27760842652E+03  0.28366963552E+03  0.10000000000E+01 0.  0.
    9000005    1    3    3    0    0 -0.51234872540E+02  0.27856982559E+02  0.12585117352E+03  0.13871027907E+03  0.10000000000E+01 0.  0.
<mgrwt>
<rscale>  0 0.12500057E+03</rscale>
<asrwt>0</asrwt>
<pdfrwt beam="1">  1        4 0.63526109E-01 0.12500057E+03</pdfrwt>
<pdfrwt beam="2">  1       -4 0.14554090E-02 0.12500057E+03</pdfrwt>
<totfact> 0.62432044E+03</totfact>
</mgrwt>
</event>
<event>
 5    1  0.3243498E-002  0.1249988E+03  0.7818608E-02  0.1235071E+00
         -4   -1    0    0    0  501 -0.00000000000E+00  0.00000000000E+00  0.63558127244E+01  0.64814547278E+01  0.12700000000E+01 0. -1.
          4   -1    0    0  501    0  0.00000000000E+00 -0.00000000000E+00 -0.60844179109E+03  0.60844311652E+03  0.12700000000E+01 0. -1.
         25    2    1    2    0    0  0.00000000000E+00  0.00000000000E+00 -0.60208597836E+03  0.61492457125E+03  0.12499881193E+03 0.  0.
    9000005    1    3    3    0    0 -0.35689144793E+02 -0.51260177967E+02 -0.31070170540E+03  0.31691934406E+03  0.10000000000E+01 0.  0.
    9000005    1    3    3    0    0  0.35689144793E+02  0.51260177967E+02 -0.29138427296E+03  0.29800522719E+03  0.10000000000E+01 0.  0.
<mgrwt>
<rscale>  0 0.12499881E+03</rscale>
<asrwt>0</asrwt>
<pdfrwt beam="2">  1        4 0.93616151E-01 0.12499881E+03</pdfrwt>
<pdfrwt beam="1">  1       -4 0.98758455E-03 0.12499881E+03</pdfrwt>
<totfact> 0.47940145E+03</totfact>
</mgrwt>
</event>
<event>
 5    1  0.3243498E-002  0.1249965E+03  0.7818608E-02  0.1235075E+00
         -4   -1    0    0    0  501 -0.00000000000E+00  0.00000000000E+00  0.66181267280E+02  0.66193451631E+02  0.12700000000E+01 0.  1.
          4   -1    0    0  501    0  0.00000000000E+00 -0.00000000000E+00 -0.58995766627E+02  0.59009434669E+02  0.12700000000E+01 0.  1.
         25    2    1    2    0    0  0.00000000000E+00  0.00000000000E+00  0.71855006528E+01  0.12520288630E+03  0.12499652522E+03 0.  0.
    9000005    1    3    3    0    0 -0.35377735963E+02 -0.46158360038E+02 -0.19311010241E+02  0.61286976755E+02  0.10000000000E+01 0.  0.
    9000005    1    3    3    0    0  0.35377735963E+02  0.46158360038E+02  0.26496510894E+02  0.63915909544E+02  0.10000000000E+01 0.  0.
<mgrwt>
<rscale>  0 0.12499653E+03</rscale>
<asrwt>0</asrwt>
<pdfrwt beam="2">  1        4 0.90782604E-02 0.12499653E+03</pdfrwt>
<pdfrwt beam="1">  1       -4 0.10183722E-01 0.12499653E+03</pdfrwt>
<totfact> 0.10449278E+04</totfact>
</mgrwt>
</event>
<event>
 5    1  0.3243498E-002  0.1250096E+03  0.7818608E-02  0.1235054E+00
         -4   -1    0    0    0  501 -0.00000000000E+00  0.00000000000E+00  0.12585512037E+03  0.12586152797E+03  0.12700000000E+01 0. -1.
          4   -1    0    0  501    0  0.00000000000E+00 -0.00000000000E+00 -0.31022250753E+02  0.31048235727E+02  0.12700000000E+01 0. -1.
         25    2    1    2    0    0  0.00000000000E+00  0.00000000000E+00  0.94832869620E+02  0.15690976370E+03  0.12500960277E+03 0.  0.
    9000005    1    3    3    0    0 -0.42661267345E+02  0.12475441162E+02 -0.77291954926E+01  0.45126054853E+02  0.10000000000E+01 0.  0.
    9000005    1    3    3    0    0  0.42661267345E+02 -0.12475441162E+02  0.10256206511E+03  0.11178370885E+03  0.10000000000E+01 0.  0.
<mgrwt>
<rscale>  0 0.12500960E+03</rscale>
<asrwt>0</asrwt>
<pdfrwt beam="2">  1        4 0.47751457E-02 0.12500960E+03</pdfrwt>
<pdfrwt beam="1">  1       -4 0.19364818E-01 0.12500960E+03</pdfrwt>
<totfact> 0.97920743E+03</totfact>
</mgrwt>
</event>
<event>
 5    1  0.3243498E-002  0.1250000E+03  0.7818608E-02  0.1235069E+00
          4   -1    0    0  501    0  0.00000000000E+00  0.00000000000E+00  0.28443483114E+02  0.28471821713E+02  0.12700000000E+01 0. -1.
         -4   -1    0    0    0  501 -0.00000000000E+00 -0.00000000000E+00 -0.13723404229E+03  0.13723991862E+03  0.12700000000E+01 0. -1.
         25    2    1    2    0    0  0.00000000000E+00  0.00000000000E+00 -0.10879055917E+03  0.16571174033E+03  0.12499998048E+03 0.  0.
    9000005    1    3    3    0    0  0.27429167321E+02  0.56148996820E+02 -0.54957280029E+02  0.83224826175E+02  0.10000000000E+01 0.  0.
    9000005    1    3    3    0    0 -0.27429167321E+02 -0.56148996820E+02 -0.53833279146E+02  0.82486914158E+02  0.10000000000E+01 0.  0.
<mgrwt>
<rscale>  0 0.12499998E+03</rscale>
<asrwt>0</asrwt>
<pdfrwt beam="1">  1        4 0.43785525E-02 0.12499998E+03</pdfrwt>
<pdfrwt beam="2">  1       -4 0.21115561E-01 0.12499998E+03</pdfrwt>
<totfact> 0.96252812E+03</totfact>
</mgrwt>
</event>
<event>
 5    1  0.3243498E-002  0.1249986E+03  0.7818608E-02  0.1235071E+00
          4   -1    0    0  501    0  0.00000000000E+00  0.00000000000E+00  0.12865906036E+03  0.12866532833E+03  0.12700000000E+01 0.  1.
         -4   -1    0    0    0  501 -0.00000000000E+00 -0.00000000000E+00 -0.30340289072E+02  0.30366857607E+02  0.12700000000E+01 0.  1.
         25    2    1    2    0    0  0.00000000000E+00  0.00000000000E+00  0.98318771290E+02  0.15903218593E+03  0.12499862149E+03 0.  0.
    9000005    1    3    3    0    0  0.41745857500E+02 -0.36332301062E+02  0.86086200732E+02  0.10234542821E+03  0.10000000000E+01 0.  0.
    9000005    1    3    3    0    0 -0.41745857500E+02  0.36332301062E+02  0.12232570558E+02  0.56686757724E+02  0.10000000000E+01 0.  0.
<mgrwt>
<rscale>  0 0.12499862E+03</rscale>
<asrwt>0</asrwt>
<pdfrwt beam="1">  1        4 0.19796228E-01 0.12499862E+03</pdfrwt>
<pdfrwt beam="2">  1       -4 0.46702626E-02 0.12499862E+03</pdfrwt>
<totfact> 0.97532719E+03</totfact>
</mgrwt>
</event>
<event>
 5    1  0.3243498E-002  0.1250021E+03  0.7818608E-02  0.1235066E+00
         -4   -1    0    0    0  501 -0.00000000000E+00  0.00000000000E+00  0.68124108858E+02  0.68135945782E+02  0.12700000000E+01 0.  1.
          4   -1    0    0  501    0  0.00000000000E+00 -0.00000000000E+00 -0.57318263400E+02  0.57332331360E+02  0.12700000000E+01 0.  1.
         25    2    1    2    0    0  0.00000000000E+00  0.00000000000E+00  0.10805845458E+02  0.12546827714E+03  0.12500208908E+03 0.  0.
    9000005    1    3    3    0    0  0.45377087951E+02  0.99534851138E+01 -0.36552830981E+02  0.59120736037E+02  0.10000000000E+01 0.  0.
    9000005    1    3    3    0    0 -0.45377087951E+02 -0.99534851138E+01  0.47358676438E+02  0.66347541106E+02  0.10000000000E+01 0.  0.
<mgrwt>
<rscale>  0 0.12500209E+03</rscale>
<asrwt>0</asrwt>
<pdfrwt beam="2">  1        4 0.88201871E-02 0.12500209E+03</pdfrwt>
<pdfrwt beam="1">  1       -4 0.10482625E-01 0.12500209E+03</pdfrwt>
<totfact> 0.10442163E+04</totfact>
</mgrwt>
</event>
<event>
 5    1  0.3243498E-002  0.1250093E+03  0.7818608E-02  0.1235055E+00
         -4   -1    0    0    0  501 -0.00000000000E+00  0.00000000000E+00  0.32997056262E+03  0.32997300662E+03  0.12700000000E+01 0.  1.
          4   -1    0    0  501    0  0.00000000000E+00 -0.00000000000E+00 -0.11803393449E+02  0.11871520413E+02  0.12700000000E+01 0.  1.
         25    2    1    2    0    0  0.00000000000E+00  0.00000000000E+00  0.31816716917E+03  0.34184452703E+03  0.12500933214E+03 0.  0.
    9000005    1    3    3    0    0 -0.42094782028E+02 -0.13905240767E+02  0.38623326228E+02  0.58805507597E+02  0.10000000000E+01 0.  0.
    9000005    1    3    3    0    0  0.42094782028E+02  0.13905240767E+02  0.27954384294E+03  0.28303901943E+03  0.10000000000E+01 0.  0.
<mgrwt>
<rscale>  0 0.12500933E+03</rscale>
<asrwt>0</asrwt>
<pdfrwt beam="2">  1        4 0.18213353E-02 0.12500933E+03</pdfrwt>
<pdfrwt beam="1">  1       -4 0.50770127E-01 0.12500933E+03</pdfrwt>
<totfact> 0.70616584E+03</totfact>
</mgrwt>
</event>
<event>
 5    1  0.3243498E-002  0.1250024E+03  0.7818608E-02  0.1235065E+00
          4   -1    0    0  501    0  0.00000000000E+00  0.00000000000E+00  0.29642598662E+02  0.29669791968E+02  0.12700000000E+01 0. -1.
         -4   -1    0    0    0  501 -0.00000000000E+00 -0.00000000000E+00 -0.13169273275E+03  0.13169885633E+03  0.12700000000E+01 0. -1.
         25    2    1    2    0    0  0.00000000000E+00  0.00000000000E+00 -0.10205013409E+03  0.16136864830E+03  0.12500244312E+03 0.  0.
    9000005    1    3    3    0    0  0.66305982800E+01 -0.42516377351E+02 -0.10952821846E+03  0.11768193496E+03  0.10000000000E+01 0.  0.
    9000005    1    3    3    0    0 -0.66305982800E+01  0.42516377351E+02  0.74780843720E+01  0.43686713341E+02  0.10000000000E+01 0.  0.
<mgrwt>
<rscale>  0 0.12500244E+03</rscale>
<asrwt>0</asrwt>
<pdfrwt beam="1">  1        4 0.45629627E-02 0.12500244E+03</pdfrwt>
<pdfrwt beam="2">  1       -4 0.20262983E-01 0.12500244E+03</pdfrwt>
<totfact> 0.97074238E+03</totfact>
</mgrwt>
</event>
<event>
 5    1  0.3243498E-002  0.1250001E+03  0.7818608E-02  0.1235069E+00
         -4   -1    0    0    0  501 -0.00000000000E+00  0.00000000000E+00  0.22321583420E+03  0.22321944704E+03  0.12700000000E+01 0.  1.
          4   -1    0    0  501    0  0.00000000000E+00 -0.00000000000E+00 -0.17473113087E+02  0.17519206060E+02  0.12700000000E+01 0.  1.
         25    2    1    2    0    0  0.00000000000E+00  0.00000000000E+00  0.20574272111E+03  0.24073865310E+03  0.12500012722E+03 0.  0.
    9000005    1    3    3    0    0 -0.53483660669E+02 -0.19240059621E+02  0.15289218506E+03  0.16311867492E+03  0.10000000000E+01 0.  0.
    9000005    1    3    3    0    0  0.53483660669E+02  0.19240059621E+02  0.52850536047E+02  0.77619978183E+02  0.10000000000E+01 0.  0.
<mgrwt>
<rscale>  0 0.12500013E+03</rscale>
<asrwt>0</asrwt>
<pdfrwt beam="2">  1        4 0.26919948E-02 0.12500013E+03</pdfrwt>
<pdfrwt beam="1">  1       -4 0.34344720E-01 0.12500013E+03</pdfrwt>
<totfact> 0.83687244E+03</totfact>
</mgrwt>
</event>
<event>
 5    1  0.3243498E-002  0.1249975E+03  0.7818608E-02  0.1235073E+00
          4   -1    0    0  501    0  0.00000000000E+00  0.00000000000E+00  0.38879517929E+02  0.38900254683E+02  0.12700000000E+01 0.  1.
         -4   -1    0    0    0  501 -0.00000000000E+00 -0.00000000000E+00 -0.10041513027E+03  0.10042316111E+03  0.12700000000E+01 0.  1.
         25    2    1    2    0    0  0.00000000000E+00  0.00000000000E+00 -0.61535612339E+02  0.13932341579E+03  0.12499753038E+03 0.  0.
    9000005    1    3    3    0    0 -0.59142794701E+02 -0.69920365618E+01 -0.96684864485E+01  0.60342674539E+02  0.10000000000E+01 0.  0.
    9000005    1    3    3    0    0  0.59142794701E+02  0.69920365618E+01 -0.51867125890E+02  0.78980741250E+02  0.10000000000E+01 0.  0.
<mgrwt>
<rscale>  0 0.12499753E+03</rscale>
<asrwt>0</asrwt>
<pdfrwt beam="1">  1        4 0.59836773E-02 0.12499753E+03</pdfrwt>
<pdfrwt beam="2">  1       -4 0.15450694E-01 0.12499753E+03</pdfrwt>
<totfact> 0.10148192E+04</totfact>
</mgrwt>
</event>
<event>
 5    1  0.3243498E-002  0.1250008E+03  0.7818608E-02  0.1235068E+00
          4   -1    0    0  501    0  0.00000000000E+00  0.00000000000E+00  0.20757989340E+02  0.20796803155E+02  0.12700000000E+01 0. -1.
         -4   -1    0    0    0  501 -0.00000000000E+00 -0.00000000000E+00 -0.18796623644E+03  0.18797052679E+03  0.12700000000E+01 0. -1.
         25    2    1    2    0    0  0.00000000000E+00  0.00000000000E+00 -0.16720824710E+03  0.20876732995E+03  0.12500080061E+03 0.  0.
    9000005    1    3    3    0    0 -0.89299646135E+01 -0.59024664704E+02 -0.52734089872E+02  0.79658894959E+02  0.10000000000E+01 0.  0.
    9000005    1    3    3    0    0  0.89299646135E+01  0.59024664704E+02 -0.11447415723E+03  0.12910843499E+03  0.10000000000E+01 0.  0.
<mgrwt>
<rscale>  0 0.12500080E+03</rscale>
<asrwt>0</asrwt>
<pdfrwt beam="1">  1        4 0.31968526E-02 0.12500080E+03</pdfrwt>
<pdfrwt beam="2">  1       -4 0.28921197E-01 0.12500080E+03</pdfrwt>
<totfact> 0.88676001E+03</totfact>
</mgrwt>
</event>
<event>
 5    1  0.3243498E-002  0.1249998E+03  0.7818608E-02  0.1235070E+00
          4   -1    0    0  501    0  0.00000000000E+00  0.00000000000E+00  0.13870302557E+03  0.13870883967E+03  0.12700000000E+01 0. -1.
         -4   -1    0    0    0  501 -0.00000000000E+00 -0.00000000000E+00 -0.28141861511E+02  0.28170503533E+02  0.12700000000E+01 0. -1.
         25    2    1    2    0    0  0.00000000000E+00  0.00000000000E+00  0.11056116406E+03  0.16687934320E+03  0.12499977676E+03 0.  0.
    9000005    1    3    3    0    0 -0.23655235056E+02  0.76751343858E+01 -0.21257437943E+02  0.32731582627E+02  0.10000000000E+01 0.  0.
    9000005    1    3    3    0    0  0.23655235056E+02 -0.76751343858E+01  0.13181860200E+03  0.13414776057E+03  0.10000000000E+01 0.  0.
<mgrwt>
<rscale>  0 0.12499978E+03</rscale>
<asrwt>0</asrwt>
<pdfrwt beam="1">  1        4 0.21341577E-01 0.12499978E+03</pdfrwt>
<pdfrwt beam="2">  1       -4 0.43321676E-02 0.12499978E+03</pdfrwt>
<totfact> 0.96033135E+03</totfact>
</mgrwt>
</event>
<event>
 5    1  0.3243498E-002  0.1250016E+03  0.7818608E-02  0.1235067E+00
          4   -1    0    0  501    0  0.00000000000E+00  0.00000000000E+00  0.39398318199E+02  0.39418782032E+02  0.12700000000E+01 0.  1.
         -4   -1    0    0    0  501 -0.00000000000E+00 -0.00000000000E+00 -0.99099896009E+02  0.99108033424E+02  0.12700000000E+01 0.  1.
         25    2    1    2    0    0  0.00000000000E+00  0.00000000000E+00 -0.59701577811E+02  0.13852681546E+03  0.12500160082E+03 0.  0.
    9000005    1    3    3    0    0 -0.51258552292E+02  0.35746819632E+02 -0.29545772127E+02  0.69131953158E+02  0.10000000000E+01 0.  0.
    9000005    1    3    3    0    0  0.51258552292E+02 -0.35746819632E+02 -0.30155805683E+02  0.69394862298E+02  0.10000000000E+01 0.  0.
<mgrwt>
<rscale>  0 0.12500160E+03</rscale>
<asrwt>0</asrwt>
<pdfrwt beam="1">  1        4 0.60634798E-02 0.12500160E+03</pdfrwt>
<pdfrwt beam="2">  1       -4 0.15248338E-01 0.12500160E+03</pdfrwt>
<totfact> 0.10163843E+04</totfact>
</mgrwt>
</event>
<event>
 5    1  0.3243498E-002  0.1249980E+03  0.7818608E-02  0.1235072E+00
         -4   -1    0    0    0  501 -0.00000000000E+00  0.00000000000E+00  0.41796266855E+03  0.41796459802E+03  0.12700000000E+01 0.  1.
          4   -1    0    0  501    0  0.00000000000E+00 -0.00000000000E+00 -0.93005218993E+01  0.93868316060E+01  0.12700000000E+01 0.  1.
         25    2    1    2    0    0  0.00000000000E+00  0.00000000000E+00  0.40866214665E+03  0.42735142963E+03  0.12499797719E+03 0.  0.
    9000005    1    3    3    0    0  0.59283364924E+02 -0.58166917821E+01  0.26890805609E+03  0.27542856404E+03  0.10000000000E+01 0.  0.
    9000005    1    3    3    0    0 -0.59283364924E+02  0.58166917821E+01  0.13975409056E+03  0.15192286558E+03  0.10000000000E+01 0.  0.
<mgrwt>
<rscale>  0 0.12499798E+03</rscale>
<asrwt>0</asrwt>
<pdfrwt beam="2">  1        4 0.14376368E-02 0.12499798E+03</pdfrwt>
<pdfrwt beam="1">  1       -4 0.64308750E-01 0.12499798E+03</pdfrwt>
<totfact> 0.61979558E+03</totfact>
</mgrwt>
</event>
<event>
 5    1  0.3243498E-002  0.1249987E+03  0.7818608E-02  0.1235071E+00
         -4   -1    0    0    0  501 -0.00000000000E+00  0.00000000000E+00  0.20268728132E+03  0.20269126007E+03  0.12700000000E+01 0. -1.
          4   -1    0    0  501    0  0.00000000000E+00 -0.00000000000E+00 -0.19246813169E+02  0.19288668103E+02  0.12700000000E+01 0. -1.
         25    2    1    2    0    0  0.00000000000E+00  0.00000000000E+00  0.18344046815E+03  0.22197992817E+03  0.12499873262E+03 0.  0.
    9000005    1    3    3    0    0  0.20468794537E+02  0.15076252211E+02  0.19309830066E+03  0.19476708820E+03  0.10000000000E+01 0.  0.
    9000005    1    3    3    0    0 -0.20468794537E+02 -0.15076252211E+02 -0.96578325062E+01  0.27212839970E+02  0.10000000000E+01 0.  0.
<mgrwt>
<rscale>  0 0.12499873E+03</rscale>
<asrwt>0</asrwt>
<pdfrwt beam="2">  1        4 0.29645739E-02 0.12499873E+03</pdfrwt>
<pdfrwt beam="1">  1       -4 0.31186184E-01 0.12499873E+03</pdfrwt>
<totfact> 0.86558468E+03</totfact>
</mgrwt>
</event>
<event>
 5    1  0.3243498E-002  0.1249993E+03  0.7818608E-02  0.1235070E+00
          4   -1    0    0  501    0  0.00000000000E+00  0.00000000000E+00  0.62942165725E+02  0.62954976977E+02  0.12700000000E+01 0.  1.
         -4   -1    0    0    0  501 -0.00000000000E+00 -0.00000000000E+00 -0.62034609711E+02  0.62047608350E+02  0.12700000000E+01 0.  1.
         25    2    1    2    0    0  0.00000000000E+00  0.00000000000E+00  0.90755601420E+00  0.12500258533E+03  0.12499929072E+03 0.  0.
    9000005    1    3    3    0    0 -0.32854246530E+02  0.36853769645E+02  0.38764105366E+02  0.62779437055E+02  0.10000000000E+01 0.  0.
    9000005    1    3    3    0    0  0.32854246530E+02 -0.36853769645E+02 -0.37856549352E+02  0.62223148272E+02  0.10000000000E+01 0.  0.
<mgrwt>
<rscale>  0 0.12499929E+03</rscale>
<asrwt>0</asrwt>
<pdfrwt beam="1">  1        4 0.96853955E-02 0.12499929E+03</pdfrwt>
<pdfrwt beam="2">  1       -4 0.95457715E-02 0.12499929E+03</pdfrwt>
<totfact> 0.10452974E+04</totfact>
</mgrwt>
</event>
<event>
 5    1  0.3243498E-002  0.1250047E+03  0.7818608E-02  0.1235062E+00
          4   -1    0    0  501    0  0.00000000000E+00  0.00000000000E+00  0.51587358700E+02  0.51602989038E+02  0.12700000000E+01 0.  1.
         -4   -1    0    0    0  501 -0.00000000000E+00 -0.00000000000E+00 -0.75694362087E+02  0.75705015367E+02  0.12700000000E+01 0.  1.
         25    2    1    2    0    0  0.00000000000E+00  0.00000000000E+00 -0.24107003386E+02  0.12730800440E+03  0.12500472140E+03 0.  0.
    9000005    1    3    3    0    0 -0.59379730152E+02  0.11223773845E+02  0.41653736452E+01  0.60582801106E+02  0.10000000000E+01 0.  0.
    9000005    1    3    3    0    0  0.59379730152E+02 -0.11223773845E+02 -0.28272377031E+02  0.66725203299E+02  0.10000000000E+01 0.  0.
<mgrwt>
<rscale>  0 0.12500472E+03</rscale>
<asrwt>0</asrwt>
<pdfrwt beam="1">  1        4 0.79385385E-02 0.12500472E+03</pdfrwt>
<pdfrwt beam="2">  1       -4 0.11647308E-01 0.12500472E+03</pdfrwt>
<totfact> 0.10401352E+04</totfact>
</mgrwt>
</event>
<event>
 5    1  0.3243498E-002  0.1250048E+03  0.7818608E-02  0.1235062E+00
         -4   -1    0    0    0  501 -0.00000000000E+00  0.00000000000E+00  0.10164892637E+03  0.10165685974E+03  0.12700000000E+01 0. -1.
          4   -1    0    0  501    0  0.00000000000E+00 -0.00000000000E+00 -0.38411860274E+02  0.38432849357E+02  0.12700000000E+01 0. -1.
         25    2    1    2    0    0  0.00000000000E+00  0.00000000000E+00  0.63237066099E+02  0.14008970910E+03  0.12500480018E+03 0.  0.
    9000005    1    3    3    0    0  0.43848596518E+02  0.10626996137E+01 -0.18270010879E+02  0.47524962331E+02  0.10000000000E+01 0.  0.
    9000005    1    3    3    0    0 -0.43848596518E+02 -0.10626996137E+01  0.81507076978E+02  0.92564746770E+02  0.10000000000E+01 0.  0.
<mgrwt>
<rscale>  0 0.12500480E+03</rscale>
<asrwt>0</asrwt>
<pdfrwt beam="2">  1        4 0.59117418E-02 0.12500480E+03</pdfrwt>
<pdfrwt beam="1">  1       -4 0.15640521E-01 0.12500480E+03</pdfrwt>
<totfact> 0.10130631E+04</totfact>
</mgrwt>
</event>
<event>
 5    1  0.3243498E-002  0.1250033E+03  0.7818608E-02  0.1235064E+00
          4   -1    0    0  501    0  0.00000000000E+00  0.00000000000E+00  0.98251458449E+02  0.98259666127E+02  0.12700000000E+01 0. -1.
         -4   -1    0    0    0  501 -0.00000000000E+00 -0.00000000000E+00 -0.39739741011E+02  0.39760029120E+02  0.12700000000E+01 0. -1.
         25    2    1    2    0    0  0.00000000000E+00  0.00000000000E+00  0.58511717438E+02  0.13801969525E+03  0.12500326075E+03 0.  0.
    9000005    1    3    3    0    0 -0.25190482090E+01 -0.60266724204E+02  0.11213227535E+02  0.61360900596E+02  0.10000000000E+01 0.  0.
    9000005    1    3    3    0    0  0.25190482090E+01  0.60266724204E+02  0.47298489903E+02  0.76658794651E+02  0.10000000000E+01 0.  0.
<mgrwt>
<rscale>  0 0.12500326E+03</rscale>
<asrwt>0</asrwt>
<pdfrwt beam="1">  1        4 0.15117801E-01 0.12500326E+03</pdfrwt>
<pdfrwt beam="2">  1       -4 0.61159983E-02 0.12500326E+03</pdfrwt>
<totfact> 0.10174047E+04</totfact>
</mgrwt>
</event>
<event>
 5    1  0.3243498E-002  0.1250049E+03  0.7818608E-02  0.1235062E+00
         -4   -1    0    0    0  501 -0.00000000000E+00  0.00000000000E+00  0.10112077572E+03  0.10112875052E+03  0.12700000000E+01 0.  1.
          4   -1    0    0  501    0  0.00000000000E+00 -0.00000000000E+00 -0.38612624832E+02  0.38633504842E+02  0.12700000000E+01 0.  1.
         25    2    1    2    0    0  0.00000000000E+00  0.00000000000E+00  0.62508150887E+02  0.13976225536E+03  0.12500487629E+03 0.  0.
    9000005    1    3    3    0    0  0.56436820448E+02 -0.24264441035E+02  0.18424335209E+02  0.64143073896E+02  0.10000000000E+01 0.  0.
    9000005    1    3    3    0    0 -0.56436820448E+02  0.24264441035E+02  0.44083815678E+02  0.75619181467E+02  0.10000000000E+01 0.  0.
<mgrwt>
<rscale>  0 0.12500488E+03</rscale>
<asrwt>0</asrwt>
<pdfrwt beam="2">  1        4 0.59426235E-02 0.12500488E+03</pdfrwt>
<pdfrwt beam="1">  1       -4 0.15559262E-01 0.12500488E+03</pdfrwt>
<totfact> 0.10137402E+04</totfact>
</mgrwt>
</event>
<event>
 5    1  0.3243498E-002  0.1250051E+03  0.7818608E-02  0.1235061E+00
         -4   -1    0    0    0  501 -0.00000000000E+00  0.00000000000E+00  0.59035094986E+03  0.59035231591E+03  0.12700000000E+01 0. -1.
          4   -1    0    0  501    0  0.00000000000E+00 -0.00000000000E+00 -0.65550458039E+01  0.66769398298E+01  0.12700000000E+01 0. -1.
         25    2    1    2    0    0  0.00000000000E+00  0.00000000000E+00  0.58379590406E+03  0.59702925574E+03  0.12500509836E+03 0.  0.
    9000005    1    3    3    0    0  0.11723244187E+01 -0.31623925003E+02  0.34517658929E+02  0.46839254425E+02  0.10000000000E+01 0.  0.
    9000005    1    3    3    0    0 -0.11723244187E+01  0.31623925003E+02  0.54927824513E+03  0.55019000132E+03  0.10000000000E+01 0.  0.
<mgrwt>
<rscale>  0 0.12500510E+03</rscale>
<asrwt>0</asrwt>
<pdfrwt beam="2">  1        4 0.10179498E-02 0.12500510E+03</pdfrwt>
<pdfrwt beam="1">  1       -4 0.90832731E-01 0.12500510E+03</pdfrwt>
<totfact> 0.49050176E+03</totfact>
</mgrwt>
</event>
<event>
 5    1  0.3243498E-002  0.1250001E+03  0.7818608E-02  0.1235069E+00
          4   -1    0    0  501    0  0.00000000000E+00  0.00000000000E+00  0.17295123567E+03  0.17295589848E+03  0.12700000000E+01 0.  1.
         -4   -1    0    0    0  501 -0.00000000000E+00 -0.00000000000E+00 -0.22563041803E+02  0.22598755616E+02  0.12700000000E+01 0.  1.
         25    2    1    2    0    0  0.00000000000E+00  0.00000000000E+00  0.15038819386E+03  0.19555465409E+03  0.12500005554E+03 0.  0.
    9000005    1    3    3    0    0  0.59131345739E+02 -0.71750231388E+01  0.45624323371E+02  0.75037163386E+02  0.10000000000E+01 0.  0.
    9000005    1    3    3    0    0 -0.59131345739E+02  0.71750231388E+01  0.10476387049E+03  0.12051749071E+03  0.10000000000E+01 0.  0.
<mgrwt>
<rscale>  0 0.12500006E+03</rscale>
<asrwt>0</asrwt>
<pdfrwt beam="1">  1        4 0.26610988E-01 0.12500006E+03</pdfrwt>
<pdfrwt beam="2">  1       -4 0.34743432E-02 0.12500006E+03</pdfrwt>
<totfact> 0.90889592E+03</totfact>
</mgrwt>
</event>
<event>
 5    1  0.3243498E-002  0.1249917E+03  0.7818608E-02  0.1235082E+00
          4   -1    0    0  501    0  0.00000000000E+00  0.00000000000E+00  0.15718542316E+02  0.15769764505E+02  0.12700000000E+01 0.  1.
         -4   -1    0    0    0  501 -0.00000000000E+00 -0.00000000000E+00 -0.24802234161E+03  0.24802559311E+03  0.12700000000E+01 0.  1.
         25    2    1    2    0    0  0.00000000000E+00  0.00000000000E+00 -0.23230379930E+03  0.26379535762E+03  0.12499174186E+03 0.  0.
    9000005    1    3    3    0    0  0.38130833371E+02  0.49165091858E+02 -0.12837955550E+03  0.14266561247E+03  0.10000000000E+01 0.  0.
    9000005    1    3    3    0    0 -0.38130833371E+02 -0.49165091858E+02 -0.10392424380E+03  0.12112974515E+03  0.10000000000E+01 0.  0.
<mgrwt>
<rscale>  0 0.12499174E+03</rscale>
<asrwt>0</asrwt>
<pdfrwt beam="1">  1        4 0.24224278E-02 0.12499174E+03</pdfrwt>
<pdfrwt beam="2">  1       -4 0.38161471E-01 0.12499174E+03</pdfrwt>
<totfact> 0.80391144E+03</totfact>
</mgrwt>
</event>
<event>
 5    1  0.3243498E-002  0.1249979E+03  0.7818608E-02  0.1235073E+00
          4   -1    0    0  501    0  0.00000000000E+00  0.00000000000E+00  0.12326612628E+02  0.12391863415E+02  0.12700000000E+01 0. -1.
         -4   -1    0    0    0  501 -0.00000000000E+00 -0.00000000000E+00 -0.31598195962E+03  0.31598451181E+03  0.12700000000E+01 0. -1.
         25    2    1    2    0    0  0.00000000000E+00  0.00000000000E+00 -0.30365534699E+03  0.32837637523E+03  0.12499789618E+03 0.  0.
    9000005    1    3    3    0    0 -0.24860317325E+02  0.55592299752E+02 -0.18866076240E+03  0.19824838571E+03  0.10000000000E+01 0.  0.
    9000005    1    3    3    0    0  0.24860317325E+02 -0.55592299752E+02 -0.11499458460E+03  0.13012798952E+03  0.10000000000E+01 0.  0.
<mgrwt>
<rscale>  0 0.12499790E+03</rscale>
<asrwt>0</asrwt>
<pdfrwt beam="1">  1        4 0.19016178E-02 0.12499790E+03</pdfrwt>
<pdfrwt beam="2">  1       -4 0.48617819E-01 0.12499790E+03</pdfrwt>
<totfact> 0.72174186E+03</totfact>
</mgrwt>
</event>
<event>
 5    1  0.3243498E-002  0.1250044E+03  0.7818608E-02  0.1235062E+00
         -4   -1    0    0    0  501 -0.00000000000E+00  0.00000000000E+00  0.84629169714E+03  0.84629265006E+03  0.12700000000E+01 0.  1.
          4   -1    0    0  501    0  0.00000000000E+00 -0.00000000000E+00 -0.45277265246E+01  0.47024682329E+01  0.12700000000E+01 0.  1.
         25    2    1    2    0    0  0.00000000000E+00  0.00000000000E+00  0.84176397061E+03  0.85099511829E+03  0.12500443646E+03 0.  0.
    9000005    1    3    3    0    0 -0.14184028969E+02 -0.60257301418E+02  0.47920560112E+03  0.48318851103E+03  0.10000000000E+01 0.  0.
    9000005    1    3    3    0    0  0.14184028969E+02  0.60257301418E+02  0.36255836950E+03  0.36780660726E+03  0.10000000000E+01 0.  0.
<mgrwt>
<rscale>  0 0.12500444E+03</rscale>
<asrwt>0</asrwt>
<pdfrwt beam="2">  1        4 0.71008937E-03 0.12500444E+03</pdfrwt>
<pdfrwt beam="1">  1       -4 0.13021204E+00 0.12500444E+03</pdfrwt>
<totfact> 0.36083192E+03</totfact>
</mgrwt>
</event>
<event>
 5    1  0.3243498E-002  0.1250013E+03  0.7818608E-02  0.1235067E+00
         -4   -1    0    0    0  501 -0.00000000000E+00  0.00000000000E+00  0.16079585519E+03  0.16080087048E+03  0.12700000000E+01 0.  1.
          4   -1    0    0  501    0  0.00000000000E+00 -0.00000000000E+00 -0.24271741044E+02  0.24304944215E+02  0.12700000000E+01 0.  1.
         25    2    1    2    0    0  0.00000000000E+00  0.00000000000E+00  0.13652411415E+03  0.18510581470E+03  0.12500131555E+03 0.  0.
    9000005    1    3    3    0    0  0.57845559934E+02  0.15433609152E+02  0.41729668825E+02  0.72984041789E+02  0.10000000000E+01 0.  0.
    9000005    1    3    3    0    0 -0.57845559934E+02 -0.15433609152E+02  0.94794445325E+02  0.11212177291E+03  0.10000000000E+01 0.  0.
<mgrwt>
<rscale>  0 0.12500132E+03</rscale>
<asrwt>0</asrwt>
<pdfrwt beam="2">  1        4 0.37370541E-02 0.12500132E+03</pdfrwt>
<pdfrwt beam="1">  1       -4 0.24740762E-01 0.12500132E+03</pdfrwt>
<totfact> 0.92703198E+03</totfact>
</mgrwt>
</event>
<event>
 5    1  0.3243498E-002  0.1250126E+03  0.7818608E-02  0.1235050E+00
          4   -1    0    0  501    0  0.00000000000E+00  0.00000000000E+00  0.34948216856E+03  0.34948447611E+03  0.12700000000E+01 0. -1.
         -4   -1    0    0    0  501 -0.00000000000E+00 -0.00000000000E+00 -0.11141085377E+02  0.11213236971E+02  0.12700000000E+01 0. -1.
         25    2    1    2    0    0  0.00000000000E+00  0.00000000000E+00  0.33834108319E+03  0.36069771308E+03  0.12501260597E+03 0.  0.
    9000005    1    3    3    0    0 -0.57130126078E+01  0.42103842766E+02  0.36928950671E+02  0.56303814137E+02  0.10000000000E+01 0.  0.
    9000005    1    3    3    0    0  0.57130126078E+01 -0.42103842766E+02  0.30141213251E+03  0.30439389895E+03  0.10000000000E+01 0.  0.
<mgrwt>
<rscale>  0 0.12501261E+03</rscale>
<asrwt>0</asrwt>
<pdfrwt beam="1">  1        4 0.53772214E-01 0.12501261E+03</pdfrwt>
<pdfrwt beam="2">  1       -4 0.17197408E-02 0.12501261E+03</pdfrwt>
<totfact> 0.68544377E+03</totfact>
</mgrwt>
</event>
<event>
 5    1  0.3243498E-002  0.1250015E+03  0.7818608E-02  0.1235067E+00
         -4   -1    0    0    0  501 -0.00000000000E+00  0.00000000000E+00  0.13251420396E+03  0.13252028958E+03  0.12700000000E+01 0. -1.
          4   -1    0    0  501    0  0.00000000000E+00 -0.00000000000E+00 -0.29458249504E+02  0.29485612828E+02  0.12700000000E+01 0. -1.
         25    2    1    2    0    0  0.00000000000E+00  0.00000000000E+00  0.10305595446E+03  0.16200590241E+03  0.12500153066E+03 0.  0.
    9000005    1    3    3    0    0  0.57814028172E+02 -0.20938982160E+02  0.65985718957E+02  0.90199877681E+02  0.10000000000E+01 0.  0.
    9000005    1    3    3    0    0 -0.57814028172E+02  0.20938982160E+02  0.37070235498E+02  0.71806024728E+02  0.10000000000E+01 0.  0.
<mgrwt>
<rscale>  0 0.12500153E+03</rscale>
<asrwt>0</asrwt>
<pdfrwt beam="2">  1        4 0.45346112E-02 0.12500153E+03</pdfrwt>
<pdfrwt beam="1">  1       -4 0.20389374E-01 0.12500153E+03</pdfrwt>
<totfact> 0.96954115E+03</totfact>
</mgrwt>
</event>
<event>
 5    1  0.3243498E-002  0.1249968E+03  0.7818608E-02  0.1235074E+00
          4   -1    0    0  501    0  0.00000000000E+00  0.00000000000E+00  0.49519047771E+02  0.49535330746E+02  0.12700000000E+01 0. -1.
         -4   -1    0    0    0  501 -0.00000000000E+00 -0.00000000000E+00 -0.78845364340E+02  0.78855591926E+02  0.12700000000E+01 0. -1.
         25    2    1    2    0    0  0.00000000000E+00  0.00000000000E+00 -0.29326316570E+02  0.12839092267E+03  0.12499678468E+03 0.  0.
    9000005    1    3    3    0    0  0.10123428815E+02  0.52254182147E+02 -0.48294653448E+02  0.71877374148E+02  0.10000000000E+01 0.  0.
    9000005    1    3    3    0    0 -0.10123428815E+02 -0.52254182147E+02  0.18968336878E+02  0.56513548523E+02  0.10000000000E+01 0.  0.
<mgrwt>
<rscale>  0 0.12499678E+03</rscale>
<asrwt>0</asrwt>
<pdfrwt beam="1">  1        4 0.76203543E-02 0.12499678E+03</pdfrwt>
<pdfrwt beam="2">  1       -4 0.12132095E-01 0.12499678E+03</pdfrwt>
<totfact> 0.10379807E+04</totfact>
</mgrwt>
</event>
<event>
 5    1  0.3243498E-002  0.1250013E+03  0.7818608E-02  0.1235067E+00
          4   -1    0    0  501    0  0.00000000000E+00  0.00000000000E+00  0.75522267448E+03  0.75522374231E+03  0.12700000000E+01 0. -1.
         -4   -1    0    0    0  501 -0.00000000000E+00 -0.00000000000E+00 -0.50933747610E+01  0.52493205708E+01  0.12700000000E+01 0. -1.
         25    2    1    2    0    0  0.00000000000E+00  0.00000000000E+00  0.75012929972E+03  0.76047306288E+03  0.12500125228E+03 0.  0.
    9000005    1    3    3    0    0  0.87586379880E+01 -0.25364087924E+02  0.31709857601E+02  0.41551964631E+02  0.10000000000E+01 0.  0.
    9000005    1    3    3    0    0 -0.87586379880E+01  0.25364087924E+02  0.71841944212E+03  0.71892109825E+03  0.10000000000E+01 0.  0.
<mgrwt>
<rscale>  0 0.12500125E+03</rscale>
<asrwt>0</asrwt>
<pdfrwt beam="1">  1        4 0.11620022E+00 0.12500125E+03</pdfrwt>
<pdfrwt beam="2">  1       -4 0.79567384E-03 0.12500125E+03</pdfrwt>
<totfact> 0.40077043E+03</totfact>
</mgrwt>
</event>
<event>
 5    1  0.3243498E-002  0.1249931E+03  0.7818608E-02  0.1235080E+00
         -4   -1    0    0    0  501 -0.00000000000E+00  0.00000000000E+00  0.90843098390E+03  0.90843187164E+03  0.12700000000E+01 0. -1.
          4   -1    0    0  501    0  0.00000000000E+00 -0.00000000000E+00 -0.42048307991E+01  0.43924369146E+01  0.12700000000E+01 0. -1.
         25    2    1    2    0    0  0.00000000000E+00  0.00000000000E+00  0.90422615310E+03  0.91282430855E+03  0.12499312915E+03 0.  0.
    9000005    1    3    3    0    0 -0.15667634613E+02 -0.36112662294E+02  0.80653202160E+03  0.80749272506E+03  0.10000000000E+01 0.  0.
    9000005    1    3    3    0    0  0.15667634613E+02  0.36112662294E+02  0.97694131499E+02  0.10533158350E+03  0.10000000000E+01 0.  0.
<mgrwt>
<rscale>  0 0.12499313E+03</rscale>
<asrwt>0</asrwt>
<pdfrwt beam="2">  1        4 0.66139638E-03 0.12499313E+03</pdfrwt>
<pdfrwt beam="1">  1       -4 0.13977315E+00 0.12499313E+03</pdfrwt>
<totfact> 0.33678640E+03</totfact>
</mgrwt>
</event>
<event>
 5    1  0.3243498E-002  0.1250001E+03  0.7818608E-02  0.1235069E+00
         -4   -1    0    0    0  501 -0.00000000000E+00  0.00000000000E+00  0.72586943666E+01  0.73689581290E+01  0.12700000000E+01 0.  1.
          4   -1    0    0  501    0  0.00000000000E+00 -0.00000000000E+00 -0.53398084665E+03  0.53398235691E+03  0.12700000000E+01 0.  1.
         25    2    1    2    0    0  0.00000000000E+00  0.00000000000E+00 -0.52672215228E+03  0.54135131504E+03  0.12500008235E+03 0.  0.
    9000005    1    3    3    0    0 -0.30293739827E+02  0.47315583488E+01 -0.27534507868E+02  0.41221929124E+02  0.10000000000E+01 0.  0.
    9000005    1    3    3    0    0  0.30293739827E+02 -0.47315583488E+01 -0.49918764441E+03  0.50012938591E+03  0.10000000000E+01 0.  0.
<mgrwt>
<rscale>  0 0.12500008E+03</rscale>
<asrwt>0</asrwt>
<pdfrwt beam="2">  1        4 0.82159467E-01 0.12500008E+03</pdfrwt>
<pdfrwt beam="1">  1       -4 0.11253206E-02 0.12500008E+03</pdfrwt>
<totfact> 0.52792854E+03</totfact>
</mgrwt>
</event>
<event>
 5    1  0.3243498E-002  0.1249995E+03  0.7818608E-02  0.1235070E+00
          4   -1    0    0  501    0  0.00000000000E+00  0.00000000000E+00  0.48291239120E+01  0.49933293260E+01  0.12700000000E+01 0.  1.
         -4   -1    0    0    0  501 -0.00000000000E+00 -0.00000000000E+00 -0.79519995278E+03  0.79520096692E+03  0.12700000000E+01 0.  1.
         25    2    1    2    0    0  0.00000000000E+00  0.00000000000E+00 -0.79037082887E+03  0.80019429625E+03  0.12499945852E+03 0.  0.
    9000005    1    3    3    0    0  0.16354668551E+01  0.62470276308E+02 -0.39568060033E+03  0.40058625494E+03  0.10000000000E+01 0.  0.
    9000005    1    3    3    0    0 -0.16354668551E+01 -0.62470276308E+02 -0.39469022854E+03  0.39960804131E+03  0.10000000000E+01 0.  0.
<mgrwt>
<rscale>  0 0.12499946E+03</rscale>
<asrwt>0</asrwt>
<pdfrwt beam="1">  1        4 0.75565197E-03 0.12499946E+03</pdfrwt>
<pdfrwt beam="2">  1       -4 0.12235106E+00 0.12499946E+03</pdfrwt>
<totfact> 0.38256533E+03</totfact>
</mgrwt>
</event>
<event>
 4    1  0.3243498E-002  0.1242530E+03  0.7818608E-02  0.1236241E+00
          4   -1    0    0  501    0  0.00000000000E+00  0.00000000000E+00  0.28005613308E+02  0.28034394532E+02  0.12700000000E+01 0. -1.
         -4   -1    0    0    0  501 -0.00000000000E+00 -0.00000000000E+00 -0.13771640615E+03  0.13772226190E+03  0.12700000000E+01 0. -1.
    9000005    1    1    2    0    0 -0.53212716103E+02 -0.16819005310E+02 -0.91248394530E+02  0.10696607686E+03  0.10000000000E+01 0.  0.
    9000005    1    1    2    0    0  0.53212716103E+02  0.16819005310E+02 -0.18462398309E+02  0.58790579568E+02  0.10000000000E+01 0.  0.
<mgrwt>
<rscale>  0 0.12425301E+03</rscale>
<asrwt>0</asrwt>
<pdfrwt beam="1">  1        4 0.43112204E-02 0.12425301E+03</pdfrwt>
<pdfrwt beam="2">  1       -4 0.21189803E-01 0.12425301E+03</pdfrwt>
<totfact> 0.97877181E+03</totfact>
</mgrwt>
</event>
<event>
 4    1  0.3243498E-002  0.1248253E+03  0.7818608E-02  0.1235343E+00
         -4   -1    0    0    0  501 -0.00000000000E+00  0.00000000000E+00  0.98532301785E+01  0.99347392996E+01  0.12700000000E+01 0. -1.
          4   -1    0    0  501    0  0.00000000000E+00 -0.00000000000E+00 -0.39362499331E+03  0.39362704209E+03  0.12700000000E+01 0. -1.
    9000005    1    1    2    0    0  0.58852022266E+02 -0.13753352601E+02 -0.24214038179E+03  0.24957099135E+03  0.10000000000E+01 0.  0.
    9000005    1    1    2    0    0 -0.58852022266E+02  0.13753352601E+02 -0.14163138135E+03  0.15399079004E+03  0.10000000000E+01 0.  0.
<mgrwt>
<rscale>  0 0.12482526E+03</rscale>
<asrwt>0</asrwt>
<pdfrwt beam="2">  1        4 0.60564107E-01 0.12482526E+03</pdfrwt>
<pdfrwt beam="1">  1       -4 0.15223094E-02 0.12482526E+03</pdfrwt>
<totfact> 0.64456138E+03</totfact>
</mgrwt>
</event>
<event>
 5    1  0.3243498E-002  0.1250001E+03  0.7818608E-02  0.1235069E+00
         -4   -1    0    0    0  501 -0.00000000000E+00  0.00000000000E+00  0.18090790557E+03  0.18091236331E+03  0.12700000000E+01 0.  1.
          4   -1    0    0  501    0  0.00000000000E+00 -0.00000000000E+00 -0.21569115766E+02  0.21606472524E+02  0.12700000000E+01 0.  1.
         25    2    1    2    0    0  0.00000000000E+00  0.00000000000E+00  0.15933878980E+03  0.20251883583E+03  0.12500011572E+03 0.  0.
    9000005    1    3    3    0    0 -0.60061997756E+02 -0.12061251086E+02  0.59672534614E+02  0.85526187448E+02  0.10000000000E+01 0.  0.
    9000005    1    3    3    0    0  0.60061997756E+02  0.12061251086E+02  0.99666255187E+02  0.11699264838E+03  0.10000000000E+01 0.  0.
<mgrwt>
<rscale>  0 0.12500012E+03</rscale>
<asrwt>0</asrwt>
<pdfrwt beam="2">  1        4 0.33215421E-02 0.12500012E+03</pdfrwt>
<pdfrwt beam="1">  1       -4 0.27835202E-01 0.12500012E+03</pdfrwt>
<totfact> 0.89712184E+03</totfact>
</mgrwt>
</event>
<event>
 5    1  0.3243498E-002  0.1250011E+03  0.7818608E-02  0.1235068E+00
         -4   -1    0    0    0  501 -0.00000000000E+00  0.00000000000E+00  0.29710818703E+02  0.29737949627E+02  0.12700000000E+01 0.  1.
          4   -1    0    0  501    0  0.00000000000E+00 -0.00000000000E+00 -0.13138783811E+03  0.13139397590E+03  0.12700000000E+01 0.  1.
         25    2    1    2    0    0  0.00000000000E+00  0.00000000000E+00 -0.10167701941E+03  0.16113192553E+03  0.12500112459E+03 0.  0.
    9000005    1    3    3    0    0 -0.40640594156E+02  0.17783712307E+02 -0.10757696988E+03  0.11636890807E+03  0.10000000000E+01 0.  0.
    9000005    1    3    3    0    0  0.40640594156E+02 -0.17783712307E+02  0.58999504690E+01  0.44763017462E+02  0.10000000000E+01 0.  0.
<mgrwt>
<rscale>  0 0.12500112E+03</rscale>
<asrwt>0</asrwt>
<pdfrwt beam="2">  1        4 0.20216072E-01 0.12500112E+03</pdfrwt>
<pdfrwt beam="1">  1       -4 0.45734544E-02 0.12500112E+03</pdfrwt>
<totfact> 0.97122547E+03</totfact>
</mgrwt>
</event>
<event>
 5    1  0.3243498E-002  0.1250006E+03  0.7818608E-02  0.1235068E+00
          4   -1    0    0  501    0  0.00000000000E+00  0.00000000000E+00  0.38290917942E+02  0.38311973283E+02  0.12700000000E+01 0. -1.
         -4   -1    0    0    0  501 -0.00000000000E+00 -0.00000000000E+00 -0.10196301545E+03  0.10197092438E+03  0.12700000000E+01 0. -1.
         25    2    1    2    0    0  0.00000000000E+00  0.00000000000E+00 -0.63672097508E+02  0.14028289767E+03  0.12500062150E+03 0.  0.
    9000005    1    3    3    0    0 -0.10287814705E+02  0.60065310143E+02 -0.47370633025E+02  0.77192340858E+02  0.10000000000E+01 0.  0.
    9000005    1    3    3    0    0  0.10287814705E+02 -0.60065310143E+02 -0.16301464482E+02  0.63090556807E+02  0.10000000000E+01 0.  0.
<mgrwt>
<rscale>  0 0.12500062E+03</rscale>
<asrwt>0</asrwt>
<pdfrwt beam="1">  1        4 0.58931385E-02 0.12500062E+03</pdfrwt>
<pdfrwt beam="2">  1       -4 0.15688846E-01 0.12500062E+03</pdfrwt>
<totfact> 0.10127584E+04</totfact>
</mgrwt>
</event>
<event>
 5    1  0.3243498E-002  0.1250153E+03  0.7818608E-02  0.1235045E+00
         -4   -1    0    0    0  501 -0.00000000000E+00  0.00000000000E+00  0.10006412079E+02  0.10086683434E+02  0.12700000000E+01 0. -1.
          4   -1    0    0  501    0  0.00000000000E+00 -0.00000000000E+00 -0.38882898806E+03  0.38883106211E+03  0.12700000000E+01 0. -1.
         25    2    1    2    0    0  0.00000000000E+00  0.00000000000E+00 -0.37882257598E+03  0.39891774554E+03  0.12501529359E+03 0.  0.
    9000005    1    3    3    0    0 -0.23001992568E+02  0.36131892917E+02 -0.33464693397E+03  0.33737838663E+03  0.10000000000E+01 0.  0.
    9000005    1    3    3    0    0  0.23001992568E+02 -0.36131892917E+02 -0.44175642010E+02  0.61539358909E+02  0.10000000000E+01 0.  0.
<mgrwt>
<rscale>  0 0.12501529E+03</rscale>
<asrwt>0</asrwt>
<pdfrwt beam="2">  1        4 0.59826167E-01 0.12501529E+03</pdfrwt>
<pdfrwt beam="1">  1       -4 0.15457826E-02 0.12501529E+03</pdfrwt>
<totfact> 0.64636362E+03</totfact>
</mgrwt>
</event>
<event>
 5    1  0.3243498E-002  0.1249968E+03  0.7818608E-02  0.1235074E+00
          4   -1    0    0  501    0  0.00000000000E+00  0.00000000000E+00  0.67366217175E+03  0.67366336886E+03  0.12700000000E+01 0. -1.
         -4   -1    0    0    0  501 -0.00000000000E+00 -0.00000000000E+00 -0.57274753383E+01  0.58665896185E+01  0.12700000000E+01 0. -1.
         25    2    1    2    0    0  0.00000000000E+00  0.00000000000E+00  0.66793469641E+03  0.67952995848E+03  0.12499682317E+03 0.  0.
    9000005    1    3    3    0    0  0.40451558485E+02 -0.27481526701E+02  0.54546190949E+03  0.54765067114E+03  0.10000000000E+01 0.  0.
    9000005    1    3    3    0    0 -0.40451558485E+02  0.27481526701E+02  0.12247278692E+03  0.13187928734E+03  0.10000000000E+01 0.  0.
<mgrwt>
<rscale>  0 0.12499682E+03</rscale>
<asrwt>0</asrwt>
<pdfrwt beam="1">  1        4 0.10365105E+00 0.12499682E+03</pdfrwt>
<pdfrwt beam="2">  1       -4 0.89194388E-03 0.12499682E+03</pdfrwt>
<totfact> 0.44192636E+03</totfact>
</mgrwt>
</event>
<event>
 5    1  0.3243498E-002  0.1250000E+03  0.7818608E-02  0.1235069E+00
         -4   -1    0    0    0  501 -0.00000000000E+00  0.00000000000E+00  0.23764571700E+03  0.23764911047E+03  0.12700000000E+01 0. -1.
          4   -1    0    0  501    0  0.00000000000E+00 -0.00000000000E+00 -0.16409232050E+02  0.16458304787E+02  0.12700000000E+01 0. -1.
         25    2    1    2    0    0  0.00000000000E+00  0.00000000000E+00  0.22123648495E+03  0.25410741526E+03  0.12499998487E+03 0.  0.
    9000005    1    3    3    0    0 -0.97965568587E+01 -0.36924342214E+02  0.10081683403E+02  0.39522397630E+02  0.10000000000E+01 0.  0.
    9000005    1    3    3    0    0  0.97965568587E+01  0.36924342214E+02  0.21115480155E+03  0.21458501763E+03  0.10000000000E+01 0.  0.
<mgrwt>
<rscale>  0 0.12499998E+03</rscale>
<asrwt>0</asrwt>
<pdfrwt beam="2">  1        4 0.25285334E-02 0.12499998E+03</pdfrwt>
<pdfrwt beam="1">  1       -4 0.36564911E-01 0.12499998E+03</pdfrwt>
<totfact> 0.81740209E+03</totfact>
</mgrwt>
</event>
<event>
 5    1  0.3243498E-002  0.1249993E+03  0.7818608E-02  0.1235070E+00
          4   -1    0    0  501    0  0.00000000000E+00  0.00000000000E+00  0.81473000443E+01  0.82456896626E+01  0.12700000000E+01 0. -1.
         -4   -1    0    0    0  501 -0.00000000000E+00 -0.00000000000E+00 -0.47647117013E+03  0.47647286267E+03  0.12700000000E+01 0. -1.
         25    2    1    2    0    0  0.00000000000E+00  0.00000000000E+00 -0.46832387008E+03  0.48471855233E+03  0.12499931075E+03 0.  0.
    9000005    1    3    3    0    0 -0.33291850480E+02  0.28602345773E+02 -0.61665874424E+02  0.75697566411E+02  0.10000000000E+01 0.  0.
    9000005    1    3    3    0    0  0.33291850480E+02 -0.28602345773E+02 -0.40665799566E+03  0.40902098592E+03  0.10000000000E+01 0.  0.
<mgrwt>
<rscale>  0 0.12499931E+03</rscale>
<asrwt>0</asrwt>
<pdfrwt beam="1">  1        4 0.12611298E-02 0.12499931E+03</pdfrwt>
<pdfrwt beam="2">  1       -4 0.73310934E-01 0.12499931E+03</pdfrwt>
<totfact> 0.57070697E+03</totfact>
</mgrwt>
</event>
<event>
 5    1  0.3243498E-002  0.1249987E+03  0.7818608E-02  0.1235071E+00
          4   -1    0    0  501    0  0.00000000000E+00  0.00000000000E+00  0.12405554604E+04  0.12405561105E+04  0.12700000000E+01 0.  1.
         -4   -1    0    0    0  501 -0.00000000000E+00 -0.00000000000E+00 -0.30199900209E+01  0.32761623474E+01  0.12700000000E+01 0.  1.
         25    2    1    2    0    0  0.00000000000E+00  0.00000000000E+00  0.12375354704E+04  0.12438322728E+04  0.12499872983E+03 0.  0.
    9000005    1    3    3    0    0 -0.31786970851E+01  0.43463055556E+02  0.17308597861E+03  0.17849060845E+03  0.10000000000E+01 0.  0.
    9000005    1    3    3    0    0  0.31786970851E+01 -0.43463055556E+02  0.10644494918E+04  0.10653416644E+04  0.10000000000E+01 0.  0.
<mgrwt>
<rscale>  0 0.12499873E+03</rscale>
<asrwt>0</asrwt>
<pdfrwt beam="1">  1        4 0.19087466E+00 0.12499873E+03</pdfrwt>
<pdfrwt beam="2">  1       -4 0.48436886E-03 0.12499873E+03</pdfrwt>
<totfact> 0.23594008E+03</totfact>
</mgrwt>
</event>
<event>
 5    1  0.3243498E-002  0.1250024E+03  0.7818608E-02  0.1235066E+00
         -4   -1    0    0    0  501 -0.00000000000E+00  0.00000000000E+00  0.49372249458E+02  0.49388580831E+02  0.12700000000E+01 0.  1.
          4   -1    0    0  501    0  0.00000000000E+00 -0.00000000000E+00 -0.79086849398E+02  0.79097045758E+02  0.12700000000E+01 0.  1.
         25    2    1    2    0    0  0.00000000000E+00  0.00000000000E+00 -0.29714599940E+02  0.12848562659E+03  0.12500239514E+03 0.  0.
    9000005    1    3    3    0    0 -0.16004705134E+02 -0.98456400194E+01 -0.76119387762E+02  0.78410767163E+02  0.10000000000E+01 0.  0.
    9000005    1    3    3    0    0  0.16004705134E+02  0.98456400194E+01  0.46404787822E+02  0.50074859427E+02  0.10000000000E+01 0.  0.
<mgrwt>
<rscale>  0 0.12500240E+03</rscale>
<asrwt>0</asrwt>
<pdfrwt beam="2">  1        4 0.12169248E-01 0.12500240E+03</pdfrwt>
<pdfrwt beam="1">  1       -4 0.75977713E-02 0.12500240E+03</pdfrwt>
<totfact> 0.10376452E+04</totfact>
</mgrwt>
</event>
<event>
 5    1  0.3243498E-002  0.1250016E+03  0.7818608E-02  0.1235067E+00
          4   -1    0    0  501    0  0.00000000000E+00  0.00000000000E+00  0.10273182316E+02  0.10351385168E+02  0.12700000000E+01 0. -1.
         -4   -1    0    0    0  501 -0.00000000000E+00 -0.00000000000E+00 -0.37872596710E+03  0.37872809647E+03  0.12700000000E+01 0. -1.
         25    2    1    2    0    0  0.00000000000E+00  0.00000000000E+00 -0.36845278478E+03  0.38907948164E+03  0.12500155365E+03 0.  0.
    9000005    1    3    3    0    0 -0.49642780852E+02  0.18258487652E+02 -0.80638661054E+02  0.96443619378E+02  0.10000000000E+01 0.  0.
    9000005    1    3    3    0    0  0.49642780852E+02 -0.18258487652E+02 -0.28781412373E+03  0.29263586226E+03  0.10000000000E+01 0.  0.
<mgrwt>
<rscale>  0 0.12500155E+03</rscale>
<asrwt>0</asrwt>
<pdfrwt beam="1">  1        4 0.15866693E-02 0.12500155E+03</pdfrwt>
<pdfrwt beam="2">  1       -4 0.58271702E-01 0.12500155E+03</pdfrwt>
<totfact> 0.65626699E+03</totfact>
</mgrwt>
</event>
<event>
 4    1  0.3243498E-002  0.1252118E+03  0.7818608E-02  0.1234739E+00
         -4   -1    0    0    0  501 -0.00000000000E+00  0.00000000000E+00  0.96080282141E+02  0.96088675276E+02  0.12700000000E+01 0.  1.
          4   -1    0    0  501    0  0.00000000000E+00 -0.00000000000E+00 -0.40773912928E+02  0.40793686711E+02  0.12700000000E+01 0.  1.
    9000005    1    1    2    0    0  0.29090177281E+02  0.42764755493E+02 -0.10895867223E+02  0.52865703903E+02  0.10000000000E+01 0.  0.
    9000005    1    1    2    0    0 -0.29090177281E+02 -0.42764755493E+02  0.66202236435E+02  0.84016658084E+02  0.10000000000E+01 0.  0.
<mgrwt>
<rscale>  0 0.12521177E+03</rscale>
<asrwt>0</asrwt>
<pdfrwt beam="2">  1        4 0.62750764E-02 0.12521177E+03</pdfrwt>
<pdfrwt beam="1">  1       -4 0.14783748E-01 0.12521177E+03</pdfrwt>
<totfact> 0.10150002E+04</totfact>
</mgrwt>
</event>
<event>
 5    1  0.3243498E-002  0.1250061E+03  0.7818608E-02  0.1235060E+00
          4   -1    0    0  501    0  0.00000000000E+00  0.00000000000E+00  0.12188096216E+03  0.12188757868E+03  0.12700000000E+01 0.  1.
         -4   -1    0    0    0  501 -0.00000000000E+00 -0.00000000000E+00 -0.32032773822E+02  0.32057939715E+02  0.12700000000E+01 0.  1.
         25    2    1    2    0    0  0.00000000000E+00  0.00000000000E+00  0.89848188334E+02  0.15394551839E+03  0.12500610260E+03 0.  0.
    9000005    1    3    3    0    0 -0.30925186062E+02  0.53959742712E+02  0.37371604676E+02  0.72564852391E+02  0.10000000000E+01 0.  0.
    9000005    1    3    3    0    0  0.30925186062E+02 -0.53959742712E+02  0.52476583657E+02  0.81380666002E+02  0.10000000000E+01 0.  0.
<mgrwt>
<rscale>  0 0.12500610E+03</rscale>
<asrwt>0</asrwt>
<pdfrwt beam="1">  1        4 0.18753362E-01 0.12500610E+03</pdfrwt>
<pdfrwt beam="2">  1       -4 0.49305638E-02 0.12500610E+03</pdfrwt>
<totfact> 0.98509383E+03</totfact>
</mgrwt>
</event>
<event>
 5    1  0.3243498E-002  0.1250050E+03  0.7818608E-02  0.1235061E+00
         -4   -1    0    0    0  501 -0.00000000000E+00  0.00000000000E+00  0.35089434749E+03  0.35089664575E+03  0.12700000000E+01 0.  1.
          4   -1    0    0  501    0  0.00000000000E+00 -0.00000000000E+00 -0.11094601151E+02  0.11167053089E+02  0.12700000000E+01 0.  1.
         25    2    1    2    0    0  0.00000000000E+00  0.00000000000E+00  0.33979974634E+03  0.36206369884E+03  0.12500501753E+03 0.  0.
    9000005    1    3    3    0    0 -0.47805672217E+02 -0.40203509322E+02  0.17558975199E+03  0.18637184729E+03  0.10000000000E+01 0.  0.
    9000005    1    3    3    0    0  0.47805672217E+02  0.40203509322E+02  0.16420999435E+03  0.17569185156E+03  0.10000000000E+01 0.  0.
<mgrwt>
<rscale>  0 0.12500502E+03</rscale>
<asrwt>0</asrwt>
<pdfrwt beam="2">  1        4 0.17126117E-02 0.12500502E+03</pdfrwt>
<pdfrwt beam="1">  1       -4 0.53989498E-01 0.12500502E+03</pdfrwt>
<totfact> 0.68409882E+03</totfact>
</mgrwt>
</event>
<event>
 4    1  0.3243498E-002  0.1249385E+03  0.7818608E-02  0.1235165E+00
          4   -1    0    0  501    0  0.00000000000E+00  0.00000000000E+00  0.17295634717E+03  0.17296100985E+03  0.12700000000E+01 0. -1.
         -4   -1    0    0    0  501 -0.00000000000E+00 -0.00000000000E+00 -0.22540108565E+02  0.22575858658E+02  0.12700000000E+01 0. -1.
    9000005    1    1    2    0    0  0.48926419902E+02 -0.20297777157E+02  0.23404429564E+02  0.57918577720E+02  0.10000000000E+01 0.  0.
    9000005    1    1    2    0    0 -0.48926419902E+02  0.20297777157E+02  0.12701180904E+03  0.13761829078E+03  0.10000000000E+01 0.  0.
<mgrwt>
<rscale>  0 0.12493847E+03</rscale>
<asrwt>0</asrwt>
<pdfrwt beam="1">  1        4 0.26611777E-01 0.12493847E+03</pdfrwt>
<pdfrwt beam="2">  1       -4 0.34708177E-02 0.12493847E+03</pdfrwt>
<totfact> 0.91018057E+03</totfact>
</mgrwt>
</event>
<event>
 5    1  0.3243498E-002  0.1250023E+03  0.7818608E-02  0.1235066E+00
          4   -1    0    0  501    0  0.00000000000E+00  0.00000000000E+00  0.31149455714E+02  0.31175334662E+02  0.12700000000E+01 0.  1.
         -4   -1    0    0    0  501 -0.00000000000E+00 -0.00000000000E+00 -0.12532682126E+03  0.12533325587E+03  0.12700000000E+01 0.  1.
         25    2    1    2    0    0  0.00000000000E+00  0.00000000000E+00 -0.94177365541E+02  0.15650859053E+03  0.12500225090E+03 0.  0.
    9000005    1    3    3    0    0  0.53334752581E+02 -0.21742045845E+02 -0.77451210267E+02  0.96524620498E+02  0.10000000000E+01 0.  0.
    9000005    1    3    3    0    0 -0.53334752581E+02  0.21742045845E+02 -0.16726155274E+02  0.59983970031E+02  0.10000000000E+01 0.  0.
<mgrwt>
<rscale>  0 0.12500225E+03</rscale>
<asrwt>0</asrwt>
<pdfrwt beam="1">  1        4 0.47947097E-02 0.12500225E+03</pdfrwt>
<pdfrwt beam="2">  1       -4 0.19283535E-01 0.12500225E+03</pdfrwt>
<totfact> 0.98015194E+03</totfact>
</mgrwt>
</event>
<event>
 5    1  0.3243498E-002  0.1249953E+03  0.7818608E-02  0.1235077E+00
         -4   -1    0    0    0  501 -0.00000000000E+00  0.00000000000E+00  0.23306710238E+03  0.23307056251E+03  0.12700000000E+01 0.  1.
          4   -1    0    0  501    0  0.00000000000E+00 -0.00000000000E+00 -0.16731277534E+02  0.16779408449E+02  0.12700000000E+01 0.  1.
         25    2    1    2    0    0  0.00000000000E+00  0.00000000000E+00  0.21633582484E+03  0.24984997096E+03  0.12499527543E+03 0.  0.
    9000005    1    3    3    0    0  0.52395579346E+02 -0.25808466889E+02  0.63759532299E+02  0.86473415898E+02  0.10000000000E+01 0.  0.
    9000005    1    3    3    0    0 -0.52395579346E+02  0.25808466889E+02  0.15257629255E+03  0.16337655507E+03  0.10000000000E+01 0.  0.
<mgrwt>
<rscale>  0 0.12499528E+03</rscale>
<asrwt>0</asrwt>
<pdfrwt beam="2">  1        4 0.25780115E-02 0.12499528E+03</pdfrwt>
<pdfrwt beam="1">  1       -4 0.35860443E-01 0.12499528E+03</pdfrwt>
<totfact> 0.82360586E+03</totfact>
</mgrwt>
</event>
<event>
 5    1  0.3243498E-002  0.1250028E+03  0.7818608E-02  0.1235065E+00
         -4   -1    0    0    0  501 -0.00000000000E+00  0.00000000000E+00  0.19886419735E+03  0.19886825259E+03  0.12700000000E+01 0.  1.
          4   -1    0    0  501    0  0.00000000000E+00 -0.00000000000E+00 -0.19618906454E+02  0.19659969238E+02  0.12700000000E+01 0.  1.
         25    2    1    2    0    0  0.00000000000E+00  0.00000000000E+00  0.17924529090E+03  0.21852822183E+03  0.12500283767E+03 0.  0.
    9000005    1    3    3    0    0  0.34414754131E+02 -0.41449254533E+02  0.14498831858E+03  0.15467717520E+03  0.10000000000E+01 0.  0.
    9000005    1    3    3    0    0 -0.34414754131E+02  0.41449254533E+02  0.34256972320E+02  0.63851046630E+02  0.10000000000E+01 0.  0.
<mgrwt>
<rscale>  0 0.12500284E+03</rscale>
<asrwt>0</asrwt>
<pdfrwt beam="2">  1        4 0.30217640E-02 0.12500284E+03</pdfrwt>
<pdfrwt beam="1">  1       -4 0.30597962E-01 0.12500284E+03</pdfrwt>
<totfact> 0.87096255E+03</totfact>
</mgrwt>
</event>
<event>
 5    1  0.3243498E-002  0.1249947E+03  0.7818608E-02  0.1235078E+00
          4   -1    0    0  501    0  0.00000000000E+00  0.00000000000E+00  0.54084852764E+02  0.54099761538E+02  0.12700000000E+01 0.  1.
         -4   -1    0    0    0  501 -0.00000000000E+00 -0.00000000000E+00 -0.72187939729E+02  0.72199110399E+02  0.12700000000E+01 0.  1.
         25    2    1    2    0    0  0.00000000000E+00  0.00000000000E+00 -0.18103086965E+02  0.12629887194E+03  0.12499473307E+03 0.  0.
    9000005    1    3    3    0    0  0.49985565774E+02  0.26912981453E+02  0.17337132792E+02  0.59367007082E+02  0.10000000000E+01 0.  0.
    9000005    1    3    3    0    0 -0.49985565774E+02 -0.26912981453E+02 -0.35440219757E+02  0.66931864855E+02  0.10000000000E+01 0.  0.
<mgrwt>
<rscale>  0 0.12499473E+03</rscale>
<asrwt>0</asrwt>
<pdfrwt beam="1">  1        4 0.83227526E-02 0.12499473E+03</pdfrwt>
<pdfrwt beam="2">  1       -4 0.11107843E-01 0.12499473E+03</pdfrwt>
<totfact> 0.10425657E+04</totfact>
</mgrwt>
</event>
<event>
 5    1  0.3243498E-002  0.1249940E+03  0.7818608E-02  0.1235079E+00
          4   -1    0    0  501    0  0.00000000000E+00  0.00000000000E+00  0.17318670269E+02  0.17365173189E+02  0.12700000000E+01 0.  1.
         -4   -1    0    0    0  501 -0.00000000000E+00 -0.00000000000E+00 -0.22517922843E+03  0.22518280977E+03  0.12700000000E+01 0.  1.
         25    2    1    2    0    0  0.00000000000E+00  0.00000000000E+00 -0.20786055816E+03  0.24254798296E+03  0.12499404945E+03 0.  0.
    9000005    1    3    3    0    0  0.68104860723E+01 -0.62072371406E+02 -0.99372808368E+02  0.11736829664E+03  0.10000000000E+01 0.  0.
    9000005    1    3    3    0    0 -0.68104860723E+01  0.62072371406E+02 -0.10848774979E+03  0.12517968632E+03  0.10000000000E+01 0.  0.
<mgrwt>
<rscale>  0 0.12499405E+03</rscale>
<asrwt>0</asrwt>
<pdfrwt beam="1">  1        4 0.26682636E-02 0.12499405E+03</pdfrwt>
<pdfrwt beam="2">  1       -4 0.34646809E-01 0.12499405E+03</pdfrwt>
<totfact> 0.83430414E+03</totfact>
</mgrwt>
</event>
<event>
 5    1  0.3243498E-002  0.1250025E+03  0.7818608E-02  0.1235065E+00
         -4   -1    0    0    0  501 -0.00000000000E+00  0.00000000000E+00  0.51460594427E+02  0.51476263255E+02  0.12700000000E+01 0.  1.
          4   -1    0    0  501    0  0.00000000000E+00 -0.00000000000E+00 -0.75878144023E+02  0.75888771504E+02  0.12700000000E+01 0.  1.
         25    2    1    2    0    0  0.00000000000E+00  0.00000000000E+00 -0.24417549596E+02  0.12736503476E+03  0.12500254138E+03 0.  0.
    9000005    1    3    3    0    0  0.56098748748E+02  0.98014368727E+01 -0.38429775690E+02  0.68709427559E+02  0.10000000000E+01 0.  0.
    9000005    1    3    3    0    0 -0.56098748748E+02 -0.98014368727E+01  0.14012226094E+02  0.58655607200E+02  0.10000000000E+01 0.  0.
<mgrwt>
<rscale>  0 0.12500254E+03</rscale>
<asrwt>0</asrwt>
<pdfrwt beam="2">  1        4 0.11675583E-01 0.12500254E+03</pdfrwt>
<pdfrwt beam="1">  1       -4 0.79190373E-02 0.12500254E+03</pdfrwt>
<totfact> 0.10400628E+04</totfact>
</mgrwt>
</event>
<event>
 5    1  0.3243498E-002  0.1249989E+03  0.7818608E-02  0.1235071E+00
          4   -1    0    0  501    0  0.00000000000E+00  0.00000000000E+00  0.31825243679E+03  0.31825497077E+03  0.12700000000E+01 0. -1.
         -4   -1    0    0    0  501 -0.00000000000E+00 -0.00000000000E+00 -0.12238408172E+02  0.12304126730E+02  0.12700000000E+01 0. -1.
         25    2    1    2    0    0  0.00000000000E+00  0.00000000000E+00  0.30601402861E+03  0.33055909750E+03  0.12499892492E+03 0.  0.
    9000005    1    3    3    0    0  0.75471432535E+01 -0.35843913864E+02  0.19115151471E+02  0.41329584417E+02  0.10000000000E+01 0.  0.
    9000005    1    3    3    0    0 -0.75471432535E+01  0.35843913864E+02  0.28689887714E+03  0.28922951308E+03  0.10000000000E+01 0.  0.
<mgrwt>
<rscale>  0 0.12499892E+03</rscale>
<asrwt>0</asrwt>
<pdfrwt beam="1">  1        4 0.48967157E-01 0.12499892E+03</pdfrwt>
<pdfrwt beam="2">  1       -4 0.18880825E-02 0.12499892E+03</pdfrwt>
<totfact> 0.71919330E+03</totfact>
</mgrwt>
</event>
<event>
 4    1  0.3243498E-002  0.1256998E+03  0.7818608E-02  0.1233980E+00
          4   -1    0    0  501    0  0.00000000000E+00  0.00000000000E+00  0.69924186758E+02  0.69935719012E+02  0.12700000000E+01 0.  1.
         -4   -1    0    0    0  501 -0.00000000000E+00 -0.00000000000E+00 -0.56468031040E+02  0.56482310767E+02  0.12700000000E+01 0.  1.
    9000005    1    1    2    0    0 -0.17496588532E+02  0.19572593479E+02  0.64149788650E+02  0.69321082000E+02  0.10000000000E+01 0.  0.
    9000005    1    1    2    0    0  0.17496588532E+02 -0.19572593479E+02 -0.50693632933E+02  0.57096947779E+02  0.10000000000E+01 0.  0.
<mgrwt>
<rscale>  0 0.12569984E+03</rscale>
<asrwt>0</asrwt>
<pdfrwt beam="1">  1        4 0.10759553E-01 0.12569984E+03</pdfrwt>
<pdfrwt beam="2">  1       -4 0.86893749E-02 0.12569984E+03</pdfrwt>
<totfact> 0.10258920E+04</totfact>
</mgrwt>
</event>
<event>
 5    1  0.3243498E-002  0.1250049E+03  0.7818608E-02  0.1235062E+00
         -4   -1    0    0    0  501 -0.00000000000E+00  0.00000000000E+00  0.23831822668E+01  0.27004550944E+01  0.12700000000E+01 0. -1.
          4   -1    0    0  501    0  0.00000000000E+00 -0.00000000000E+00 -0.15365974778E+04  0.15365980026E+04  0.12700000000E+01 0. -1.
         25    2    1    2    0    0  0.00000000000E+00  0.00000000000E+00 -0.15342142955E+04  0.15392984577E+04  0.12500494922E+03 0.  0.
    9000005    1    3    3    0    0  0.26576553138E+02  0.55542809827E+02 -0.63549094824E+03  0.63846774562E+03  0.10000000000E+01 0.  0.
    9000005    1    3    3    0    0 -0.26576553138E+02 -0.55542809827E+02 -0.89872334728E+03  0.90083071209E+03  0.10000000000E+01 0.  0.
<mgrwt>
<rscale>  0 0.12500495E+03</rscale>
<asrwt>0</asrwt>
<pdfrwt beam="2">  1        4 0.23642332E+00 0.12500495E+03</pdfrwt>
<pdfrwt beam="1">  1       -4 0.39109063E-03 0.12500495E+03</pdfrwt>
<totfact> 0.17168946E+03</totfact>
</mgrwt>
</event>
<event>
 5    1  0.3243498E-002  0.1250019E+03  0.7818608E-02  0.1235066E+00
          4   -1    0    0  501    0  0.00000000000E+00  0.00000000000E+00  0.52905384363E+01  0.54408360521E+01  0.12700000000E+01 0.  1.
         -4   -1    0    0    0  501 -0.00000000000E+00 -0.00000000000E+00 -0.72787654916E+03  0.72787765711E+03  0.12700000000E+01 0.  1.
         25    2    1    2    0    0  0.00000000000E+00  0.00000000000E+00 -0.72258601072E+03  0.73331849316E+03  0.12500187805E+03 0.  0.
    9000005    1    3    3    0    0 -0.50159585090E+02  0.31631202193E+02 -0.47697543536E+03  0.48064860643E+03  0.10000000000E+01 0.  0.
    9000005    1    3    3    0    0  0.50159585090E+02 -0.31631202193E+02 -0.24561057536E+03  0.25266988673E+03  0.10000000000E+01 0.  0.
<mgrwt>
<rscale>  0 0.12500188E+03</rscale>
<asrwt>0</asrwt>
<pdfrwt beam="1">  1        4 0.82557615E-03 0.12500188E+03</pdfrwt>
<pdfrwt beam="2">  1       -4 0.11199258E+00 0.12500188E+03</pdfrwt>
<totfact> 0.41383330E+03</totfact>
</mgrwt>
</event>
<event>
 5    1  0.3243498E-002  0.1250226E+03  0.7818608E-02  0.1235034E+00
          4   -1    0    0  501    0  0.00000000000E+00  0.00000000000E+00  0.34463205783E+03  0.34463439786E+03  0.12700000000E+01 0. -1.
         -4   -1    0    0    0  501 -0.00000000000E+00 -0.00000000000E+00 -0.11300703183E+02  0.11371842086E+02  0.12700000000E+01 0. -1.
         25    2    1    2    0    0  0.00000000000E+00  0.00000000000E+00  0.33333135465E+03  0.35600623994E+03  0.12502260150E+03 0.  0.
    9000005    1    3    3    0    0 -0.34148679031E+02  0.46133192637E+02  0.96206647310E+02  0.11203179338E+03  0.10000000000E+01 0.  0.
    9000005    1    3    3    0    0  0.34148679031E+02 -0.46133192637E+02  0.23712470734E+03  0.24397444656E+03  0.10000000000E+01 0.  0.
<mgrwt>
<rscale>  0 0.12502260E+03</rscale>
<asrwt>0</asrwt>
<pdfrwt beam="1">  1        4 0.53025975E-01 0.12502260E+03</pdfrwt>
<pdfrwt beam="2">  1       -4 0.17442217E-02 0.12502260E+03</pdfrwt>
<totfact> 0.69034281E+03</totfact>
</mgrwt>
</event>
<event>
 5    1  0.3243498E-002  0.1250039E+03  0.7818608E-02  0.1235063E+00
         -4   -1    0    0    0  501 -0.00000000000E+00  0.00000000000E+00  0.27024029363E+03  0.27024327780E+03  0.12700000000E+01 0.  1.
          4   -1    0    0  501    0  0.00000000000E+00 -0.00000000000E+00 -0.14424660780E+02  0.14480460580E+02  0.12700000000E+01 0.  1.
         25    2    1    2    0    0  0.00000000000E+00  0.00000000000E+00  0.25581563285E+03  0.28472373839E+03  0.12500387671E+03 0.  0.
    9000005    1    3    3    0    0 -0.55614783561E+02  0.20610423103E+02  0.17275625378E+03  0.18265682826E+03  0.10000000000E+01 0.  0.
    9000005    1    3    3    0    0  0.55614783561E+02 -0.20610423103E+02  0.83059379064E+02  0.10206691012E+03  0.10000000000E+01 0.  0.
<mgrwt>
<rscale>  0 0.12500388E+03</rscale>
<asrwt>0</asrwt>
<pdfrwt beam="2">  1        4 0.22237004E-02 0.12500388E+03</pdfrwt>
<pdfrwt beam="1">  1       -4 0.41579952E-01 0.12500388E+03</pdfrwt>
<totfact> 0.77549230E+03</totfact>
</mgrwt>
</event>
<event>
 5    1  0.3243498E-002  0.1250001E+03  0.7818608E-02  0.1235069E+00
         -4   -1    0    0    0  501 -0.00000000000E+00  0.00000000000E+00  0.86161891616E+01  0.87092833039E+01  0.12700000000E+01 0. -1.
          4   -1    0    0  501    0  0.00000000000E+00 -0.00000000000E+00 -0.45083233829E+03  0.45083412709E+03  0.12700000000E+01 0. -1.
         25    2    1    2    0    0  0.00000000000E+00  0.00000000000E+00 -0.44221614913E+03  0.45954341040E+03  0.12500009394E+03 0.  0.
    9000005    1    3    3    0    0 -0.58476504243E+02  0.83380544208E+01 -0.29611191551E+03  0.30194749743E+03  0.10000000000E+01 0.  0.
    9000005    1    3    3    0    0  0.58476504243E+02 -0.83380544208E+01 -0.14610423363E+03  0.15759591297E+03  0.10000000000E+01 0.  0.
<mgrwt>
<rscale>  0 0.12500009E+03</rscale>
<asrwt>0</asrwt>
<pdfrwt beam="2">  1        4 0.69366102E-01 0.12500009E+03</pdfrwt>
<pdfrwt beam="1">  1       -4 0.13328666E-02 0.12500009E+03</pdfrwt>
<totfact> 0.59145761E+03</totfact>
</mgrwt>
</event>
<event>
 5    1  0.3243498E-002  0.1250004E+03  0.7818608E-02  0.1235069E+00
          4   -1    0    0  501    0  0.00000000000E+00  0.00000000000E+00  0.64928717020E+01  0.66159113460E+01  0.12700000000E+01 0.  1.
         -4   -1    0    0    0  501 -0.00000000000E+00 -0.00000000000E+00 -0.59585431332E+03  0.59585566675E+03  0.12700000000E+01 0.  1.
         25    2    1    2    0    0  0.00000000000E+00  0.00000000000E+00 -0.58936144162E+03  0.60247157810E+03  0.12500037421E+03 0.  0.
    9000005    1    3    3    0    0  0.38559237048E+02 -0.37878926500E+02 -0.14351804637E+03  0.15336250346E+03  0.10000000000E+01 0.  0.
    9000005    1    3    3    0    0 -0.38559237048E+02  0.37878926500E+02 -0.44584339525E+03  0.44910907463E+03  0.10000000000E+01 0.  0.
<mgrwt>
<rscale>  0 0.12500037E+03</rscale>
<asrwt>0</asrwt>
<pdfrwt beam="1">  1        4 0.10084725E-02 0.12500037E+03</pdfrwt>
<pdfrwt beam="2">  1       -4 0.91679421E-01 0.12500037E+03</pdfrwt>
<totfact> 0.48711585E+03</totfact>
</mgrwt>
</event>
<event>
 5    1  0.3243498E-002  0.1249992E+03  0.7818608E-02  0.1235071E+00
         -4   -1    0    0    0  501 -0.00000000000E+00  0.00000000000E+00  0.61936358145E+02  0.61949377401E+02  0.12700000000E+01 0. -1.
          4   -1    0    0  501    0  0.00000000000E+00 -0.00000000000E+00 -0.63041929674E+02  0.63054720656E+02  0.12700000000E+01 0. -1.
         25    2    1    2    0    0  0.00000000000E+00  0.00000000000E+00 -0.11055715282E+01  0.12500409806E+03  0.12499920897E+03 0.  0.
    9000005    1    3    3    0    0 -0.27123517244E+02  0.23797338771E+02  0.50470793905E+02  0.62050782087E+02  0.10000000000E+01 0.  0.
    9000005    1    3    3    0    0  0.27123517244E+02 -0.23797338771E+02 -0.51576365433E+02  0.62953315969E+02  0.10000000000E+01 0.  0.
<mgrwt>
<rscale>  0 0.12499921E+03</rscale>
<asrwt>0</asrwt>
<pdfrwt beam="2">  1        4 0.97007438E-02 0.12499921E+03</pdfrwt>
<pdfrwt beam="1">  1       -4 0.95306559E-02 0.12499921E+03</pdfrwt>
<totfact> 0.10452960E+04</totfact>
</mgrwt>
</event>
<event>
 5    1  0.3243498E-002  0.1249980E+03  0.7818608E-02  0.1235072E+00
         -4   -1    0    0    0  501 -0.00000000000E+00  0.00000000000E+00  0.51389411255E+03  0.51389568184E+03  0.12700000000E+01 0. -1.
          4   -1    0    0  501    0  0.00000000000E+00 -0.00000000000E+00 -0.75463925139E+01  0.76525120041E+01  0.12700000000E+01 0. -1.
         25    2    1    2    0    0  0.00000000000E+00  0.00000000000E+00  0.50634772003E+03  0.52154819384E+03  0.12499801965E+03 0.  0.
    9000005    1    3    3    0    0 -0.60841867348E+02 -0.43641640348E+01  0.30982516450E+03  0.31577430438E+03  0.10000000000E+01 0.  0.
    9000005    1    3    3    0    0  0.60841867348E+02  0.43641640348E+01  0.19652255554E+03  0.20577388946E+03  0.10000000000E+01 0.  0.
<mgrwt>
<rscale>  0 0.12499802E+03</rscale>
<asrwt>0</asrwt>
<pdfrwt beam="2">  1        4 0.11692669E-02 0.12499802E+03</pdfrwt>
<pdfrwt beam="1">  1       -4 0.79068939E-01 0.12499802E+03</pdfrwt>
<totfact> 0.54232759E+03</totfact>
</mgrwt>
</event>
<event>
 5    1  0.3243498E-002  0.1250051E+03  0.7818608E-02  0.1235061E+00
         -4   -1    0    0    0  501 -0.00000000000E+00  0.00000000000E+00  0.64977010439E+03  0.64977134552E+03  0.12700000000E+01 0. -1.
          4   -1    0    0  501    0  0.00000000000E+00 -0.00000000000E+00 -0.59438999642E+01  0.60780627493E+01  0.12700000000E+01 0. -1.
         25    2    1    2    0    0  0.00000000000E+00  0.00000000000E+00  0.64382620443E+03  0.65584940827E+03  0.12500505919E+03 0.  0.
    9000005    1    3    3    0    0  0.27280820220E+02 -0.50466974360E+02  0.19186476198E+03  0.20026044428E+03  0.10000000000E+01 0.  0.
    9000005    1    3    3    0    0 -0.27280820220E+02  0.50466974360E+02  0.45196144244E+03  0.45558896399E+03  0.10000000000E+01 0.  0.
<mgrwt>
<rscale>  0 0.12500506E+03</rscale>
<asrwt>0</asrwt>
<pdfrwt beam="2">  1        4 0.92486161E-03 0.12500506E+03</pdfrwt>
<pdfrwt beam="1">  1       -4 0.99975071E-01 0.12500506E+03</pdfrwt>
<totfact> 0.45516607E+03</totfact>
</mgrwt>
</event>
<event>
 5    1  0.3243498E-002  0.1250013E+03  0.7818608E-02  0.1235067E+00
         -4   -1    0    0    0  501 -0.00000000000E+00  0.00000000000E+00  0.52492605906E+02  0.52507966775E+02  0.12700000000E+01 0. -1.
          4   -1    0    0  501    0  0.00000000000E+00 -0.00000000000E+00 -0.74385072505E+02  0.74395913272E+02  0.12700000000E+01 0. -1.
         25    2    1    2    0    0  0.00000000000E+00  0.00000000000E+00 -0.21892466599E+02  0.12690388005E+03  0.12500125870E+03 0.  0.
    9000005    1    3    3    0    0  0.11119424862E+01 -0.22792067892E+02  0.48116709395E+02  0.53262862277E+02  0.10000000000E+01 0.  0.
    9000005    1    3    3    0    0 -0.11119424862E+01  0.22792067892E+02 -0.70009175994E+02  0.73641017770E+02  0.10000000000E+01 0.  0.
<mgrwt>
<rscale>  0 0.12500126E+03</rscale>
<asrwt>0</asrwt>
<pdfrwt beam="2">  1        4 0.11445873E-01 0.12500126E+03</pdfrwt>
<pdfrwt beam="1">  1       -4 0.80778011E-02 0.12500126E+03</pdfrwt>
<totfact> 0.10410939E+04</totfact>
</mgrwt>
</event>
<event>
 5    1  0.3243498E-002  0.1250028E+03  0.7818608E-02  0.1235065E+00
         -4   -1    0    0    0  501 -0.00000000000E+00  0.00000000000E+00  0.75700669936E+03  0.75700776468E+03  0.12700000000E+01 0. -1.
          4   -1    0    0  501    0  0.00000000000E+00 -0.00000000000E+00 -0.50811312321E+01  0.52374416081E+01  0.12700000000E+01 0. -1.
         25    2    1    2    0    0  0.00000000000E+00  0.00000000000E+00  0.75192556813E+03  0.76224520628E+03  0.12500277795E+03 0.  0.
    9000005    1    3    3    0    0 -0.25628739596E+02 -0.49232522171E+02  0.20084259259E+03  0.20837327211E+03  0.10000000000E+01 0.  0.
    9000005    1    3    3    0    0  0.25628739596E+02  0.49232522171E+02  0.55108297554E+03  0.55387193417E+03  0.10000000000E+01 0.  0.
<mgrwt>
<rscale>  0 0.12500278E+03</rscale>
<asrwt>0</asrwt>
<pdfrwt beam="2">  1        4 0.79381822E-03 0.12500278E+03</pdfrwt>
<pdfrwt beam="1">  1       -4 0.11647469E+00 0.12500278E+03</pdfrwt>
<totfact> 0.39992754E+03</totfact>
</mgrwt>
</event>
<event>
 5    1  0.3243498E-002  0.1249966E+03  0.7818608E-02  0.1235075E+00
         -4   -1    0    0    0  501 -0.00000000000E+00  0.00000000000E+00  0.12491479241E+03  0.12492124824E+03  0.12700000000E+01 0.  1.
          4   -1    0    0  501    0  0.00000000000E+00 -0.00000000000E+00 -0.31249464638E+02  0.31275260833E+02  0.12700000000E+01 0.  1.
         25    2    1    2    0    0  0.00000000000E+00  0.00000000000E+00  0.93665327771E+02  0.15619650908E+03  0.12499662324E+03 0.  0.
    9000005    1    3    3    0    0  0.54376307744E+02  0.27919837097E+02  0.63064981458E+02  0.87832181083E+02  0.10000000000E+01 0.  0.
    9000005    1    3    3    0    0 -0.54376307744E+02 -0.27919837097E+02  0.30600346313E+02  0.68364327993E+02  0.10000000000E+01 0.  0.
<mgrwt>
<rscale>  0 0.12499662E+03</rscale>
<asrwt>0</asrwt>
<pdfrwt beam="2">  1        4 0.48100910E-02 0.12499662E+03</pdfrwt>
<pdfrwt beam="1">  1       -4 0.19220141E-01 0.12499662E+03</pdfrwt>
<totfact> 0.98088568E+03</totfact>
</mgrwt>
</event>
<event>
 5    1  0.3243498E-002  0.1249975E+03  0.7818608E-02  0.1235073E+00
          4   -1    0    0  501    0  0.00000000000E+00  0.00000000000E+00  0.19136368221E+03  0.19136789639E+03  0.12700000000E+01 0. -1.
         -4   -1    0    0    0  501 -0.00000000000E+00 -0.00000000000E+00 -0.20387696344E+02  0.20427213765E+02  0.12700000000E+01 0. -1.
         25    2    1    2    0    0  0.00000000000E+00  0.00000000000E+00  0.17097598587E+03  0.21179511016E+03  0.12499752375E+03 0.  0.
    9000005    1    3    3    0    0 -0.45158480931E+02 -0.23759543821E+02  0.24365407240E+02  0.56555082818E+02  0.10000000000E+01 0.  0.
    9000005    1    3    3    0    0  0.45158480931E+02  0.23759543821E+02  0.14661057863E+03  0.15524002734E+03  0.10000000000E+01 0.  0.
<mgrwt>
<rscale>  0 0.12499752E+03</rscale>
<asrwt>0</asrwt>
<pdfrwt beam="1">  1        4 0.29443931E-01 0.12499752E+03</pdfrwt>
<pdfrwt beam="2">  1       -4 0.31399326E-02 0.12499752E+03</pdfrwt>
<totfact> 0.88188433E+03</totfact>
</mgrwt>
</event>
<event>
 5    1  0.3243498E-002  0.1249993E+03  0.7818608E-02  0.1235070E+00
          4   -1    0    0  501    0  0.00000000000E+00  0.00000000000E+00  0.10257337154E+03  0.10258123341E+03  0.12700000000E+01 0.  1.
         -4   -1    0    0    0  501 -0.00000000000E+00 -0.00000000000E+00 -0.38062126975E+02  0.38083308809E+02  0.12700000000E+01 0.  1.
         25    2    1    2    0    0  0.00000000000E+00  0.00000000000E+00  0.64511244561E+02  0.14066454222E+03  0.12499925105E+03 0.  0.
    9000005    1    3    3    0    0  0.24601871234E+02  0.28278570708E+02 -0.24013610097E+02  0.44526206883E+02  0.10000000000E+01 0.  0.
    9000005    1    3    3    0    0 -0.24601871234E+02 -0.28278570708E+02  0.88524854657E+02  0.96138335338E+02  0.10000000000E+01 0.  0.
<mgrwt>
<rscale>  0 0.12499925E+03</rscale>
<asrwt>0</asrwt>
<pdfrwt beam="1">  1        4 0.15782753E-01 0.12499925E+03</pdfrwt>
<pdfrwt beam="2">  1       -4 0.58579461E-02 0.12499925E+03</pdfrwt>
<totfact> 0.10120002E+04</totfact>
</mgrwt>
</event>
<event>
 5    1  0.3243498E-002  0.1249924E+03  0.7818608E-02  0.1235081E+00
          4   -1    0    0  501    0  0.00000000000E+00  0.00000000000E+00  0.10182577777E+04  0.10182585697E+04  0.12700000000E+01 0.  1.
         -4   -1    0    0    0  501 -0.00000000000E+00 -0.00000000000E+00 -0.37298025147E+01  0.39400922323E+01  0.12700000000E+01 0.  1.
         25    2    1    2    0    0  0.00000000000E+00  0.00000000000E+00  0.10145279752E+04  0.10221986619E+04  0.12499236777E+03 0.  0.
    9000005    1    3    3    0    0  0.24487326642E+02  0.21534942058E+02  0.94319447678E+03  0.94375855171E+03  0.10000000000E+01 0.  0.
    9000005    1    3    3    0    0 -0.24487326642E+02 -0.21534942058E+02  0.71333498408E+02  0.78440110216E+02  0.10000000000E+01 0.  0.
<mgrwt>
<rscale>  0 0.12499237E+03</rscale>
<asrwt>0</asrwt>
<pdfrwt beam="1">  1        4 0.15667131E+00 0.12499237E+03</pdfrwt>
<pdfrwt beam="2">  1       -4 0.59005270E-03 0.12499237E+03</pdfrwt>
<totfact> 0.29883913E+03</totfact>
</mgrwt>
</event>
<event>
 5    1  0.3243498E-002  0.1249987E+03  0.7818608E-02  0.1235071E+00
         -4   -1    0    0    0  501 -0.00000000000E+00  0.00000000000E+00  0.69627785609E+01  0.70776539396E+01  0.12700000000E+01 0. -1.
          4   -1    0    0  501    0  0.00000000000E+00 -0.00000000000E+00 -0.55630128542E+03  0.55630273508E+03  0.12700000000E+01 0. -1.
         25    2    1    2    0    0  0.00000000000E+00  0.00000000000E+00 -0.54933850686E+03  0.56338038902E+03  0.12499867046E+03 0.  0.
    9000005    1    3    3    0    0  0.27219896999E+02 -0.56229874436E+02 -0.28171724335E+03  0.28856251796E+03  0.10000000000E+01 0.  0.
    9000005    1    3    3    0    0 -0.27219896999E+02  0.56229874436E+02 -0.26762126351E+03  0.27481787106E+03  0.10000000000E+01 0.  0.
<mgrwt>
<rscale>  0 0.12499867E+03</rscale>
<asrwt>0</asrwt>
<pdfrwt beam="2">  1        4 0.85593727E-01 0.12499867E+03</pdfrwt>
<pdfrwt beam="1">  1       -4 0.10801452E-02 0.12499867E+03</pdfrwt>
<totfact> 0.51265368E+03</totfact>
</mgrwt>
</event>
<event>
 5    1  0.3243498E-002  0.1250015E+03  0.7818608E-02  0.1235067E+00
          4   -1    0    0  501    0  0.00000000000E+00  0.00000000000E+00  0.28479204843E+03  0.28479488013E+03  0.12700000000E+01 0.  1.
         -4   -1    0    0    0  501 -0.00000000000E+00 -0.00000000000E+00 -0.13684165232E+02  0.13742971953E+02  0.12700000000E+01 0.  1.
         25    2    1    2    0    0  0.00000000000E+00  0.00000000000E+00  0.27110788320E+03  0.29853785209E+03  0.12500145917E+03 0.  0.
    9000005    1    3    3    0    0  0.28316723308E+02  0.18573190408E+02  0.10117408824E+02  0.35357632587E+02  0.10000000000E+01 0.  0.
    9000005    1    3    3    0    0 -0.28316723308E+02 -0.18573190408E+02  0.26099047438E+03  0.26318021950E+03  0.10000000000E+01 0.  0.
<mgrwt>
<rscale>  0 0.12500146E+03</rscale>
<asrwt>0</asrwt>
<pdfrwt beam="1">  1        4 0.43818897E-01 0.12500146E+03</pdfrwt>
<pdfrwt beam="2">  1       -4 0.21099979E-02 0.12500146E+03</pdfrwt>
<totfact> 0.75780162E+03</totfact>
</mgrwt>
</event>
<event>
 5    1  0.3243498E-002  0.1250059E+03  0.7818608E-02  0.1235060E+00
          4   -1    0    0  501    0  0.00000000000E+00  0.00000000000E+00  0.44578443015E+02  0.44596529929E+02  0.12700000000E+01 0. -1.
         -4   -1    0    0    0  501 -0.00000000000E+00 -0.00000000000E+00 -0.87594186963E+02  0.87603393140E+02  0.12700000000E+01 0. -1.
         25    2    1    2    0    0  0.00000000000E+00  0.00000000000E+00 -0.43015743948E+02  0.13219992307E+03  0.12500586159E+03 0.  0.
    9000005    1    3    3    0    0 -0.54903794284E+02  0.98544465266E+01 -0.51309009953E+02  0.75796775957E+02  0.10000000000E+01 0.  0.
    9000005    1    3    3    0    0  0.54903794284E+02 -0.98544465266E+01  0.82932660054E+01  0.56403147112E+02  0.10000000000E+01 0.  0.
<mgrwt>
<rscale>  0 0.12500586E+03</rscale>
<asrwt>0</asrwt>
<pdfrwt beam="1">  1        4 0.68603215E-02 0.12500586E+03</pdfrwt>
<pdfrwt beam="2">  1       -4 0.13478128E-01 0.12500586E+03</pdfrwt>
<totfact> 0.10296072E+04</totfact>
</mgrwt>
</event>
<event>
 5    1  0.3243498E-002  0.1250050E+03  0.7818608E-02  0.1235061E+00
          4   -1    0    0  501    0  0.00000000000E+00  0.00000000000E+00  0.86951461661E+02  0.86960735881E+02  0.12700000000E+01 0. -1.
         -4   -1    0    0    0  501 -0.00000000000E+00 -0.00000000000E+00 -0.44907431548E+02  0.44925386011E+02  0.12700000000E+01 0. -1.
         25    2    1    2    0    0  0.00000000000E+00  0.00000000000E+00  0.42044030112E+02  0.13188612189E+03  0.12500499462E+03 0.  0.
    9000005    1    3    3    0    0  0.59634328241E+02 -0.57176584690E+01  0.22487784615E+01  0.59958333263E+02  0.10000000000E+01 0.  0.
    9000005    1    3    3    0    0 -0.59634328241E+02  0.57176584690E+01  0.39795251651E+02  0.71927788629E+02  0.10000000000E+01 0.  0.
<mgrwt>
<rscale>  0 0.12500499E+03</rscale>
<asrwt>0</asrwt>
<pdfrwt beam="1">  1        4 0.13379242E-01 0.12500499E+03</pdfrwt>
<pdfrwt beam="2">  1       -4 0.69109302E-02 0.12500499E+03</pdfrwt>
<totfact> 0.10302969E+04</totfact>
</mgrwt>
</event>
<event>
 5    1  0.3243498E-002  0.1249974E+03  0.7818608E-02  0.1235073E+00
         -4   -1    0    0    0  501 -0.00000000000E+00  0.00000000000E+00  0.53929982561E+02  0.53944934136E+02  0.12700000000E+01 0. -1.
          4   -1    0    0  501    0  0.00000000000E+00 -0.00000000000E+00 -0.72398360113E+02  0.72409498321E+02  0.12700000000E+01 0. -1.
         25    2    1    2    0    0  0.00000000000E+00  0.00000000000E+00 -0.18468377552E+02  0.12635443246E+03  0.12499744650E+03 0.  0.
    9000005    1    3    3    0    0 -0.25956270231E+02 -0.53342744716E+02  0.10623770880E+02  0.60274711827E+02  0.10000000000E+01 0.  0.
    9000005    1    3    3    0    0  0.25956270231E+02  0.53342744716E+02 -0.29092148433E+02  0.66079720630E+02  0.10000000000E+01 0.  0.
<mgrwt>
<rscale>  0 0.12499745E+03</rscale>
<asrwt>0</asrwt>
<pdfrwt beam="2">  1        4 0.11140216E-01 0.12499745E+03</pdfrwt>
<pdfrwt beam="1">  1       -4 0.82989273E-02 0.12499745E+03</pdfrwt>
<totfact> 0.10423805E+04</totfact>
</mgrwt>
</event>
<event>
 5    1  0.3243498E-002  0.1250073E+03  0.7818608E-02  0.1235058E+00
         -4   -1    0    0    0  501 -0.00000000000E+00  0.00000000000E+00  0.18935851295E+04  0.18935855554E+04  0.12700000000E+01 0. -1.
          4   -1    0    0  501    0  0.00000000000E+00 -0.00000000000E+00 -0.18672184724E+01  0.22581861800E+01  0.12700000000E+01 0. -1.
         25    2    1    2    0    0  0.00000000000E+00  0.00000000000E+00  0.18917179110E+04  0.18958437416E+04  0.12500734990E+03 0.  0.
    9000005    1    3    3    0    0  0.26849703109E+02  0.53247359305E+02  0.66232572176E+03  0.66500567631E+03  0.10000000000E+01 0.  0.
    9000005    1    3    3    0    0 -0.26849703109E+02 -0.53247359305E+02  0.12293921893E+04  0.12308380653E+04  0.10000000000E+01 0.  0.
<mgrwt>
<rscale>  0 0.12500735E+03</rscale>
<asrwt>0</asrwt>
<pdfrwt beam="2">  1        4 0.31736990E-03 0.12500735E+03</pdfrwt>
<pdfrwt beam="1">  1       -4 0.29135244E+00 0.12500735E+03</pdfrwt>
<totfact> 0.11280650E+03</totfact>
</mgrwt>
</event>
<event>
 5    1  0.3243498E-002  0.1250006E+03  0.7818608E-02  0.1235068E+00
         -4   -1    0    0    0  501 -0.00000000000E+00  0.00000000000E+00  0.21955089379E+02  0.21991790506E+02  0.12700000000E+01 0.  1.
          4   -1    0    0  501    0  0.00000000000E+00 -0.00000000000E+00 -0.17773425489E+03  0.17773879223E+03  0.12700000000E+01 0.  1.
         25    2    1    2    0    0  0.00000000000E+00  0.00000000000E+00 -0.15577916551E+03  0.19973058273E+03  0.12500062908E+03 0.  0.
    9000005    1    3    3    0    0  0.14018459756E+02 -0.44351350266E+02 -0.14457375518E+03  0.15187537711E+03  0.10000000000E+01 0.  0.
    9000005    1    3    3    0    0 -0.14018459756E+02  0.44351350266E+02 -0.11205410327E+02  0.47855205620E+02  0.10000000000E+01 0.  0.
<mgrwt>
<rscale>  0 0.12500063E+03</rscale>
<asrwt>0</asrwt>
<pdfrwt beam="2">  1        4 0.27346903E-01 0.12500063E+03</pdfrwt>
<pdfrwt beam="1">  1       -4 0.33808784E-02 0.12500063E+03</pdfrwt>
<totfact> 0.90179696E+03</totfact>
</mgrwt>
</event>
<event>
 5    1  0.3243498E-002  0.1250020E+03  0.7818608E-02  0.1235066E+00
          4   -1    0    0  501    0  0.00000000000E+00  0.00000000000E+00  0.15928355903E+02  0.15978905525E+02  0.12700000000E+01 0.  1.
         -4   -1    0    0    0  501 -0.00000000000E+00 -0.00000000000E+00 -0.24480598901E+03  0.24480928323E+03  0.12700000000E+01 0.  1.
         25    2    1    2    0    0  0.00000000000E+00  0.00000000000E+00 -0.22887763311E+03  0.26078818876E+03  0.12500203381E+03 0.  0.
    9000005    1    3    3    0    0 -0.22050164136E+02 -0.47602654564E+02 -0.18528469947E+03  0.19257113573E+03  0.10000000000E+01 0.  0.
    9000005    1    3    3    0    0  0.22050164136E+02  0.47602654564E+02 -0.43592933643E+02  0.68217053026E+02  0.10000000000E+01 0.  0.
<mgrwt>
<rscale>  0 0.12500203E+03</rscale>
<asrwt>0</asrwt>
<pdfrwt beam="1">  1        4 0.24546583E-02 0.12500203E+03</pdfrwt>
<pdfrwt beam="2">  1       -4 0.37666599E-01 0.12500203E+03</pdfrwt>
<totfact> 0.80791920E+03</totfact>
</mgrwt>
</event>
<event>
 5    1  0.3243498E-002  0.1249965E+03  0.7818608E-02  0.1235075E+00
          4   -1    0    0  501    0  0.00000000000E+00  0.00000000000E+00  0.36031597029E+02  0.36053971827E+02  0.12700000000E+01 0. -1.
         -4   -1    0    0    0  501 -0.00000000000E+00 -0.00000000000E+00 -0.10834597659E+03  0.10835341962E+03  0.12700000000E+01 0. -1.
         25    2    1    2    0    0  0.00000000000E+00  0.00000000000E+00 -0.72314379563E+02  0.14440739145E+03  0.12499650080E+03 0.  0.
    9000005    1    3    3    0    0 -0.50081506472E+02 -0.37320427874E+02 -0.38484944764E+02  0.73369357368E+02  0.10000000000E+01 0.  0.
    9000005    1    3    3    0    0  0.50081506472E+02  0.37320427874E+02 -0.33829434799E+02  0.71038034080E+02  0.10000000000E+01 0.  0.
<mgrwt>
<rscale>  0 0.12499650E+03</rscale>
<asrwt>0</asrwt>
<pdfrwt beam="1">  1        4 0.55456163E-02 0.12499650E+03</pdfrwt>
<pdfrwt beam="2">  1       -4 0.16670905E-01 0.12499650E+03</pdfrwt>
<totfact> 0.10043834E+04</totfact>
</mgrwt>
</event>
<event>
 5    1  0.3243498E-002  0.1249957E+03  0.7818608E-02  0.1235076E+00
          4   -1    0    0  501    0  0.00000000000E+00  0.00000000000E+00  0.56521266524E+01  0.57930506380E+01  0.12700000000E+01 0.  1.
         -4   -1    0    0    0  501 -0.00000000000E+00 -0.00000000000E+00 -0.68241365282E+03  0.68241483458E+03  0.12700000000E+01 0.  1.
         25    2    1    2    0    0  0.00000000000E+00  0.00000000000E+00 -0.67676152617E+03  0.68820788522E+03  0.12499571983E+03 0.  0.
    9000005    1    3    3    0    0  0.27041691792E+02 -0.28432379262E+02 -0.60615593064E+03  0.60742544031E+03  0.10000000000E+01 0.  0.
    9000005    1    3    3    0    0 -0.27041691792E+02  0.28432379262E+02 -0.70605595523E+02  0.80782444904E+02  0.10000000000E+01 0.  0.
<mgrwt>
<rscale>  0 0.12499572E+03</rscale>
<asrwt>0</asrwt>
<pdfrwt beam="1">  1        4 0.88048970E-03 0.12499572E+03</pdfrwt>
<pdfrwt beam="2">  1       -4 0.10499758E+00 0.12499572E+03</pdfrwt>
<totfact> 0.43720651E+03</totfact>
</mgrwt>
</event>
<event>
 5    1  0.3243498E-002  0.1250001E+03  0.7818608E-02  0.1235069E+00
          4   -1    0    0  501    0  0.00000000000E+00  0.00000000000E+00  0.27779594951E+01  0.30544981513E+01  0.12700000000E+01 0.  1.
         -4   -1    0    0    0  501 -0.00000000000E+00 -0.00000000000E+00 -0.13392122643E+04  0.13392128665E+04  0.12700000000E+01 0.  1.
         25    2    1    2    0    0  0.00000000000E+00  0.00000000000E+00 -0.13364343048E+04  0.13422673646E+04  0.12500010840E+03 0.  0.
    9000005    1    3    3    0    0  0.53700976166E+02  0.30982257673E+02 -0.58396446857E+03  0.58724713340E+03  0.10000000000E+01 0.  0.
    9000005    1    3    3    0    0 -0.53700976166E+02 -0.30982257673E+02 -0.75246983621E+03  0.75502023121E+03  0.10000000000E+01 0.  0.
<mgrwt>
<rscale>  0 0.12500011E+03</rscale>
<asrwt>0</asrwt>
<pdfrwt beam="1">  1        4 0.44869798E-03 0.12500011E+03</pdfrwt>
<pdfrwt beam="2">  1       -4 0.20605348E+00 0.12500011E+03</pdfrwt>
<totfact> 0.21252377E+03</totfact>
</mgrwt>
</event>
<event>
 5    1  0.3243498E-002  0.1249985E+03  0.7818608E-02  0.1235072E+00
         -4   -1    0    0    0  501 -0.00000000000E+00  0.00000000000E+00  0.76845962221E+02  0.76856455875E+02  0.12700000000E+01 0.  1.
          4   -1    0    0  501    0  0.00000000000E+00 -0.00000000000E+00 -0.50809051410E+02  0.50824921104E+02  0.12700000000E+01 0.  1.
         25    2    1    2    0    0  0.00000000000E+00  0.00000000000E+00  0.26036910811E+02  0.12768137698E+03  0.12499845320E+03 0.  0.
    9000005    1    3    3    0    0  0.23238103989E+02  0.64530215293E+01  0.71905656755E+02  0.75849023970E+02  0.10000000000E+01 0.  0.
    9000005    1    3    3    0    0 -0.23238103989E+02 -0.64530215293E+01 -0.45868745944E+02  0.51832353008E+02  0.10000000000E+01 0.  0.
<mgrwt>
<rscale>  0 0.12499845E+03</rscale>
<asrwt>0</asrwt>
<pdfrwt beam="2">  1        4 0.78188051E-02 0.12499845E+03</pdfrwt>
<pdfrwt beam="1">  1       -4 0.11824484E-01 0.12499845E+03</pdfrwt>
<totfact> 0.10394737E+04</totfact>
</mgrwt>
</event>
<event>
 5    1  0.3243498E-002  0.1250008E+03  0.7818608E-02  0.1235068E+00
          4   -1    0    0  501    0  0.00000000000E+00  0.00000000000E+00  0.30618609312E+02  0.30644936551E+02  0.12700000000E+01 0.  1.
         -4   -1    0    0    0  501 -0.00000000000E+00 -0.00000000000E+00 -0.12749498513E+03  0.12750131032E+03  0.12700000000E+01 0.  1.
         25    2    1    2    0    0  0.00000000000E+00  0.00000000000E+00 -0.96876375821E+02  0.15814624687E+03  0.12500081283E+03 0.  0.
    9000005    1    3    3    0    0 -0.12043351505E+02 -0.43803651550E+02 -0.10272967642E+03  0.11233071095E+03  0.10000000000E+01 0.  0.
    9000005    1    3    3    0    0  0.12043351505E+02  0.43803651550E+02  0.58533005966E+01  0.45815535929E+02  0.10000000000E+01 0.  0.
<mgrwt>
<rscale>  0 0.12500081E+03</rscale>
<asrwt>0</asrwt>
<pdfrwt beam="1">  1        4 0.47130671E-02 0.12500081E+03</pdfrwt>
<pdfrwt beam="2">  1       -4 0.19617125E-01 0.12500081E+03</pdfrwt>
<totfact> 0.97699583E+03</totfact>
</mgrwt>
</event>
<event>
 5    1  0.3243498E-002  0.1250000E+03  0.7818608E-02  0.1235069E+00
          4   -1    0    0  501    0  0.00000000000E+00  0.00000000000E+00  0.56981947740E+02  0.56996098710E+02  0.12700000000E+01 0.  1.
         -4   -1    0    0    0  501 -0.00000000000E+00 -0.00000000000E+00 -0.68523837987E+02  0.68535605874E+02  0.12700000000E+01 0.  1.
         25    2    1    2    0    0  0.00000000000E+00  0.00000000000E+00 -0.11541890247E+02  0.12553170458E+03  0.12499997450E+03 0.  0.
    9000005    1    3    3    0    0  0.53349836967E+02 -0.60852071684E+01 -0.37875882697E+02  0.65717709491E+02  0.10000000000E+01 0.  0.
    9000005    1    3    3    0    0 -0.53349836967E+02  0.60852071684E+01  0.26333992450E+02  0.59813995093E+02  0.10000000000E+01 0.  0.
<mgrwt>
<rscale>  0 0.12499997E+03</rscale>
<asrwt>0</asrwt>
<pdfrwt beam="1">  1        4 0.87684473E-02 0.12499997E+03</pdfrwt>
<pdfrwt beam="2">  1       -4 0.10544123E-01 0.12499997E+03</pdfrwt>
<totfact> 0.10441260E+04</totfact>
</mgrwt>
</event>
<event>
 5    1  0.3243498E-002  0.1249975E+03  0.7818608E-02  0.1235073E+00
          4   -1    0    0  501    0  0.00000000000E+00  0.00000000000E+00  0.36789524534E+02  0.36811438650E+02  0.12700000000E+01 0. -1.
         -4   -1    0    0    0  501 -0.00000000000E+00 -0.00000000000E+00 -0.10611678821E+03  0.10612438758E+03  0.12700000000E+01 0. -1.
         25    2    1    2    0    0  0.00000000000E+00  0.00000000000E+00 -0.69327263675E+02  0.14293582623E+03  0.12499752370E+03 0.  0.
    9000005    1    3    3    0    0  0.13911888635E+02  0.59199032442E+02 -0.51117023349E+02  0.79448197988E+02  0.10000000000E+01 0.  0.
    9000005    1    3    3    0    0 -0.13911888635E+02 -0.59199032442E+02 -0.18210240327E+02  0.63487628245E+02  0.10000000000E+01 0.  0.
<mgrwt>
<rscale>  0 0.12499752E+03</rscale>
<asrwt>0</asrwt>
<pdfrwt beam="1">  1        4 0.56621972E-02 0.12499752E+03</pdfrwt>
<pdfrwt beam="2">  1       -4 0.16327930E-01 0.12499752E+03</pdfrwt>
<totfact> 0.10073659E+04</totfact>
</mgrwt>
</event>
<event>
 5    1  0.3243498E-002  0.1249968E+03  0.7818608E-02  0.1235074E+00
         -4   -1    0    0    0  501 -0.00000000000E+00  0.00000000000E+00  0.64001712733E+02  0.64014311936E+02  0.12700000000E+01 0. -1.
          4   -1    0    0  501    0  0.00000000000E+00 -0.00000000000E+00 -0.61005226308E+02  0.61018444235E+02  0.12700000000E+01 0. -1.
         25    2    1    2    0    0  0.00000000000E+00  0.00000000000E+00  0.29964864247E+01  0.12503275617E+03  0.12499684470E+03 0.  0.
    9000005    1    3    3    0    0  0.54773202447E+02  0.15230431089E+02  0.27447613321E+02  0.63138270601E+02  0.10000000000E+01 0.  0.
    9000005    1    3    3    0    0 -0.54773202447E+02 -0.15230431089E+02 -0.24451126897E+02  0.61894485570E+02  0.10000000000E+01 0.  0.
<mgrwt>
<rscale>  0 0.12499684E+03</rscale>
<asrwt>0</asrwt>
<pdfrwt beam="2">  1        4 0.93874054E-02 0.12499684E+03</pdfrwt>
<pdfrwt beam="1">  1       -4 0.98484032E-02 0.12499684E+03</pdfrwt>
<totfact> 0.10452897E+04</totfact>
</mgrwt>
</event>
<event>
 5    1  0.3243498E-002  0.1250017E+03  0.7818608E-02  0.1235067E+00
         -4   -1    0    0    0  501 -0.00000000000E+00  0.00000000000E+00  0.33876348739E+02  0.33900146075E+02  0.12700000000E+01 0. -1.
          4   -1    0    0  501    0  0.00000000000E+00 -0.00000000000E+00 -0.11524433615E+03  0.11525133368E+03  0.12700000000E+01 0. -1.
         25    2    1    2    0    0  0.00000000000E+00  0.00000000000E+00 -0.81367987408E+02  0.14915147975E+03  0.12500165814E+03 0.  0.
    9000005    1    3    3    0    0 -0.36370696421E+02  0.50780050363E+02 -0.43044158681E+02  0.75863302523E+02  0.10000000000E+01 0.  0.
    9000005    1    3    3    0    0  0.36370696421E+02 -0.50780050363E+02 -0.38323828726E+02  0.73288177227E+02  0.10000000000E+01 0.  0.
<mgrwt>
<rscale>  0 0.12500166E+03</rscale>
<asrwt>0</asrwt>
<pdfrwt beam="2">  1        4 0.17732267E-01 0.12500166E+03</pdfrwt>
<pdfrwt beam="1">  1       -4 0.52141148E-02 0.12500166E+03</pdfrwt>
<totfact> 0.99469395E+03</totfact>
</mgrwt>
</event>
<event>
 5    1  0.3243498E-002  0.1250017E+03  0.7818608E-02  0.1235067E+00
          4   -1    0    0  501    0  0.00000000000E+00  0.00000000000E+00  0.22727481196E+02  0.22762937015E+02  0.12700000000E+01 0.  1.
         -4   -1    0    0    0  501 -0.00000000000E+00 -0.00000000000E+00 -0.17170625497E+03  0.17171095159E+03  0.12700000000E+01 0.  1.
         25    2    1    2    0    0  0.00000000000E+00  0.00000000000E+00 -0.14897877377E+03  0.19447388860E+03  0.12500167324E+03 0.  0.
    9000005    1    3    3    0    0 -0.43143319077E+02 -0.36831722087E+02 -0.11528003551E+03  0.12848505096E+03  0.10000000000E+01 0.  0.
    9000005    1    3    3    0    0  0.43143319077E+02  0.36831722087E+02 -0.33698738261E+02  0.65988837642E+02  0.10000000000E+01 0.  0.
<mgrwt>
<rscale>  0 0.12500167E+03</rscale>
<asrwt>0</asrwt>
<pdfrwt beam="1">  1        4 0.34996243E-02 0.12500167E+03</pdfrwt>
<pdfrwt beam="2">  1       -4 0.26419435E-01 0.12500167E+03</pdfrwt>
<totfact> 0.91071236E+03</totfact>
</mgrwt>
</event>
<event>
 5    1  0.3243498E-002  0.1250203E+03  0.7818608E-02  0.1235038E+00
         -4   -1    0    0    0  501 -0.00000000000E+00  0.00000000000E+00  0.16943498612E+02  0.16991028375E+02  0.12700000000E+01 0. -1.
          4   -1    0    0  501    0  0.00000000000E+00 -0.00000000000E+00 -0.23024826509E+03  0.23025176759E+03  0.12700000000E+01 0. -1.
         25    2    1    2    0    0  0.00000000000E+00  0.00000000000E+00 -0.21330476648E+03  0.24724279597E+03  0.12502030536E+03 0.  0.
    9000005    1    3    3    0    0  0.15265041881E+02  0.29669006785E+02 -0.21327643673E+01  0.33448769051E+02  0.10000000000E+01 0.  0.
    9000005    1    3    3    0    0 -0.15265041881E+02 -0.29669006785E+02 -0.21117200212E+03  0.21379402691E+03  0.10000000000E+01 0.  0.
<mgrwt>
<rscale>  0 0.12502031E+03</rscale>
<asrwt>0</asrwt>
<pdfrwt beam="2">  1        4 0.35426733E-01 0.12502031E+03</pdfrwt>
<pdfrwt beam="1">  1       -4 0.26106178E-02 0.12502031E+03</pdfrwt>
<totfact> 0.82692952E+03</totfact>
</mgrwt>
</event>
<event>
 5    1  0.3243498E-002  0.1249989E+03  0.7818608E-02  0.1235071E+00
          4   -1    0    0  501    0  0.00000000000E+00  0.00000000000E+00  0.15011925518E+04  0.15011930890E+04  0.12700000000E+01 0.  1.
         -4   -1    0    0    0  501 -0.00000000000E+00 -0.00000000000E+00 -0.24465195672E+01  0.27565119250E+01  0.12700000000E+01 0.  1.
         25    2    1    2    0    0  0.00000000000E+00  0.00000000000E+00  0.14987460322E+04  0.15039496009E+04  0.12499893202E+03 0.  0.
    9000005    1    3    3    0    0 -0.34821812166E+02  0.17281474205E+02  0.16068280703E+03  0.16532142157E+03  0.10000000000E+01 0.  0.
    9000005    1    3    3    0    0  0.34821812166E+02 -0.17281474205E+02  0.13380632252E+04  0.13386281794E+04  0.10000000000E+01 0.  0.
<mgrwt>
<rscale>  0 0.12499893E+03</rscale>
<asrwt>0</asrwt>
<pdfrwt beam="1">  1        4 0.23097654E+00 0.12499893E+03</pdfrwt>
<pdfrwt beam="2">  1       -4 0.40027460E-03 0.12499893E+03</pdfrwt>
<totfact> 0.17853341E+03</totfact>
</mgrwt>
</event>
<event>
 5    1  0.3243498E-002  0.1250033E+03  0.7818608E-02  0.1235064E+00
          4   -1    0    0  501    0  0.00000000000E+00  0.00000000000E+00  0.81567249054E+01  0.82550021915E+01  0.12700000000E+01 0. -1.
         -4   -1    0    0    0  501 -0.00000000000E+00 -0.00000000000E+00 -0.47595734580E+03  0.47595904017E+03  0.12700000000E+01 0. -1.
         25    2    1    2    0    0  0.00000000000E+00  0.00000000000E+00 -0.46780062089E+03  0.48421404236E+03  0.12500327161E+03 0.  0.
    9000005    1    3    3    0    0  0.44782210837E+02  0.37852725124E+02 -0.31762581682E+03  0.32299448093E+03  0.10000000000E+01 0.  0.
    9000005    1    3    3    0    0 -0.44782210837E+02 -0.37852725124E+02 -0.15017480408E+03  0.16121956143E+03  0.10000000000E+01 0.  0.
<mgrwt>
<rscale>  0 0.12500327E+03</rscale>
<asrwt>0</asrwt>
<pdfrwt beam="1">  1        4 0.12625713E-02 0.12500327E+03</pdfrwt>
<pdfrwt beam="2">  1       -4 0.73231876E-01 0.12500327E+03</pdfrwt>
<totfact> 0.57106206E+03</totfact>
</mgrwt>
</event>
<event>
 5    1  0.3243498E-002  0.1249976E+03  0.7818608E-02  0.1235073E+00
         -4   -1    0    0    0  501 -0.00000000000E+00  0.00000000000E+00  0.41197608148E+02  0.41217178665E+02  0.12700000000E+01 0.  1.
          4   -1    0    0  501    0  0.00000000000E+00 -0.00000000000E+00 -0.94767345998E+02  0.94775855403E+02  0.12700000000E+01 0.  1.
         25    2    1    2    0    0  0.00000000000E+00  0.00000000000E+00 -0.53569737850E+02  0.13599303407E+03  0.12499755398E+03 0.  0.
    9000005    1    3    3    0    0  0.30871610592E+02  0.27692495335E+01 -0.85820130415E+02  0.91251410225E+02  0.10000000000E+01 0.  0.
    9000005    1    3    3    0    0 -0.30871610592E+02 -0.27692495335E+01  0.32250392566E+02  0.44741623844E+02  0.10000000000E+01 0.  0.
<mgrwt>
<rscale>  0 0.12499755E+03</rscale>
<asrwt>0</asrwt>
<pdfrwt beam="2">  1        4 0.14581752E-01 0.12499755E+03</pdfrwt>
<pdfrwt beam="1">  1       -4 0.63402536E-02 0.12499755E+03</pdfrwt>
<totfact> 0.10217746E+04</totfact>
</mgrwt>
</event>
<event>
 5    1  0.3243498E-002  0.1249997E+03  0.7818608E-02  0.1235070E+00
          4   -1    0    0  501    0  0.00000000000E+00  0.00000000000E+00  0.21301690206E+02  0.21339515122E+02  0.12700000000E+01 0.  1.
         -4   -1    0    0    0  501 -0.00000000000E+00 -0.00000000000E+00 -0.18317399653E+03  0.18317839912E+03  0.12700000000E+01 0.  1.
         25    2    1    2    0    0  0.00000000000E+00  0.00000000000E+00 -0.16187230633E+03  0.20451791424E+03  0.12499973477E+03 0.  0.
    9000005    1    3    3    0    0 -0.26371602897E+02  0.49476792181E+02 -0.35776752569E+02  0.66516091499E+02  0.10000000000E+01 0.  0.
    9000005    1    3    3    0    0  0.26371602897E+02 -0.49476792181E+02 -0.12609555376E+03  0.13800182275E+03  0.10000000000E+01 0.  0.
<mgrwt>
<rscale>  0 0.12499973E+03</rscale>
<asrwt>0</asrwt>
<pdfrwt beam="1">  1        4 0.32804315E-02 0.12499973E+03</pdfrwt>
<pdfrwt beam="2">  1       -4 0.28183862E-01 0.12499973E+03</pdfrwt>
<totfact> 0.89379608E+03</totfact>
</mgrwt>
</event>
<event>
 5    1  0.3243498E-002  0.1250053E+03  0.7818608E-02  0.1235061E+00
         -4   -1    0    0    0  501 -0.00000000000E+00  0.00000000000E+00  0.46157207159E+02  0.46174675665E+02  0.12700000000E+01 0. -1.
          4   -1    0    0  501    0  0.00000000000E+00 -0.00000000000E+00 -0.84598242404E+02  0.84607774571E+02  0.12700000000E+01 0. -1.
         25    2    1    2    0    0  0.00000000000E+00  0.00000000000E+00 -0.38441035245E+02  0.13078245024E+03  0.12500534428E+03 0.  0.
    9000005    1    3    3    0    0  0.23436198697E+02  0.18578045491E+02  0.38189753371E+02  0.48516558474E+02  0.10000000000E+01 0.  0.
    9000005    1    3    3    0    0 -0.23436198697E+02 -0.18578045491E+02 -0.76630788616E+02  0.82265891762E+02  0.10000000000E+01 0.  0.
<mgrwt>
<rscale>  0 0.12500534E+03</rscale>
<asrwt>0</asrwt>
<pdfrwt beam="2">  1        4 0.13017191E-01 0.12500534E+03</pdfrwt>
<pdfrwt beam="1">  1       -4 0.71031858E-02 0.12500534E+03</pdfrwt>
<totfact> 0.10326510E+04</totfact>
</mgrwt>
</event>
<event>
 5    1  0.3243498E-002  0.1249941E+03  0.7818608E-02  0.1235079E+00
         -4   -1    0    0    0  501 -0.00000000000E+00  0.00000000000E+00  0.47018361671E+02  0.47035510354E+02  0.12700000000E+01 0. -1.
          4   -1    0    0  501    0  0.00000000000E+00 -0.00000000000E+00 -0.83034249073E+02  0.83043960763E+02  0.12700000000E+01 0. -1.
         25    2    1    2    0    0  0.00000000000E+00  0.00000000000E+00 -0.36015887402E+02  0.13007947112E+03  0.12499409850E+03 0.  0.
    9000005    1    3    3    0    0 -0.66613083893E+00 -0.13457748257E+02  0.45493677268E+02  0.47457658917E+02  0.10000000000E+01 0.  0.
    9000005    1    3    3    0    0  0.66613083893E+00  0.13457748257E+02 -0.81509564670E+02  0.82621812200E+02  0.10000000000E+01 0.  0.
<mgrwt>
<rscale>  0 0.12499410E+03</rscale>
<asrwt>0</asrwt>
<pdfrwt beam="2">  1        4 0.12776566E-01 0.12499410E+03</pdfrwt>
<pdfrwt beam="1">  1       -4 0.72356603E-02 0.12499410E+03</pdfrwt>
<totfact> 0.10344186E+04</totfact>
</mgrwt>
</event>
<event>
 5    1  0.3243498E-002  0.1249967E+03  0.7818608E-02  0.1235075E+00
          4   -1    0    0  501    0  0.00000000000E+00  0.00000000000E+00  0.74931884840E+01  0.76000508983E+01  0.12700000000E+01 0. -1.
         -4   -1    0    0    0  501 -0.00000000000E+00 -0.00000000000E+00 -0.51748052006E+03  0.51748207848E+03  0.12700000000E+01 0. -1.
         25    2    1    2    0    0  0.00000000000E+00  0.00000000000E+00 -0.50998733158E+03  0.52508212938E+03  0.12499665683E+03 0.  0.
    9000005    1    3    3    0    0  0.72500222488E+01 -0.17761281014E+02 -0.50482522533E+03  0.50519059181E+03  0.10000000000E+01 0.  0.
    9000005    1    3    3    0    0 -0.72500222488E+01  0.17761281014E+02 -0.51621062548E+01  0.19891537569E+02  0.10000000000E+01 0.  0.
<mgrwt>
<rscale>  0 0.12499666E+03</rscale>
<asrwt>0</asrwt>
<pdfrwt beam="1">  1        4 0.11611387E-02 0.12499666E+03</pdfrwt>
<pdfrwt beam="2">  1       -4 0.79620700E-01 0.12499666E+03</pdfrwt>
<totfact> 0.53973474E+03</totfact>
</mgrwt>
</event>
<event>
 5    1  0.3243498E-002  0.1250041E+03  0.7818608E-02  0.1235063E+00
          4   -1    0    0  501    0  0.00000000000E+00  0.00000000000E+00  0.40061466181E+03  0.40061667483E+03  0.12700000000E+01 0. -1.
         -4   -1    0    0    0  501 -0.00000000000E+00 -0.00000000000E+00 -0.97078875109E+01  0.97906067189E+01  0.12700000000E+01 0. -1.
         25    2    1    2    0    0  0.00000000000E+00  0.00000000000E+00  0.39090677430E+03  0.41040728155E+03  0.12500412217E+03 0.  0.
    9000005    1    3    3    0    0 -0.18402124197E+02  0.16046938636E+02  0.65833471019E+01  0.25307763110E+02  0.10000000000E+01 0.  0.
    9000005    1    3    3    0    0  0.18402124197E+02 -0.16046938636E+02  0.38432342719E+03  0.38509951844E+03  0.10000000000E+01 0.  0.
<mgrwt>
<rscale>  0 0.12500412E+03</rscale>
<asrwt>0</asrwt>
<pdfrwt beam="1">  1        4 0.61639518E-01 0.12500412E+03</pdfrwt>
<pdfrwt beam="2">  1       -4 0.15000396E-02 0.12500412E+03</pdfrwt>
<totfact> 0.63547253E+03</totfact>
</mgrwt>
</event>
<event>
 5    1  0.3243498E-002  0.1249971E+03  0.7818608E-02  0.1235074E+00
         -4   -1    0    0    0  501 -0.00000000000E+00  0.00000000000E+00  0.29564890478E+04  0.29564893205E+04  0.12700000000E+01 0.  1.
          4   -1    0    0  501    0  0.00000000000E+00 -0.00000000000E+00 -0.10156501471E+01  0.16261750279E+01  0.12700000000E+01 0.  1.
         25    2    1    2    0    0  0.00000000000E+00  0.00000000000E+00  0.29554733976E+04  0.29581154956E+04  0.12499712428E+03 0.  0.
    9000005    1    3    3    0    0 -0.60720461319E+02 -0.11972302855E+02  0.12731161698E+04  0.12746199795E+04  0.10000000000E+01 0.  0.
    9000005    1    3    3    0    0  0.60720461319E+02  0.11972302855E+02  0.16823572278E+04  0.16834955160E+04  0.10000000000E+01 0.  0.
<mgrwt>
<rscale>  0 0.12499712E+03</rscale>
<asrwt>0</asrwt>
<pdfrwt beam="2">  1        4 0.20323979E-03 0.12499712E+03</pdfrwt>
<pdfrwt beam="1">  1       -4 0.45488813E+00 0.12499712E+03</pdfrwt>
<totfact> 0.19831354E+02</totfact>
</mgrwt>
</event>
<event>
 5    1  0.3243498E-002  0.1250025E+03  0.7818608E-02  0.1235065E+00
          4   -1    0    0  501    0  0.00000000000E+00  0.00000000000E+00  0.29243958744E+02  0.29271522390E+02  0.12700000000E+01 0.  1.
         -4   -1    0    0    0  501 -0.00000000000E+00 -0.00000000000E+00 -0.13348639414E+03  0.13349243544E+03  0.12700000000E+01 0.  1.
         25    2    1    2    0    0  0.00000000000E+00  0.00000000000E+00 -0.10424243539E+03  0.16276395783E+03  0.12500248250E+03 0.  0.
    9000005    1    3    3    0    0  0.15775680665E+02  0.48818046833E+02 -0.56578888424E+01  0.51624466129E+02  0.10000000000E+01 0.  0.
    9000005    1    3    3    0    0 -0.15775680665E+02 -0.48818046833E+02 -0.98584546549E+02  0.11113949170E+03  0.10000000000E+01 0.  0.
<mgrwt>
<rscale>  0 0.12500248E+03</rscale>
<asrwt>0</asrwt>
<pdfrwt beam="1">  1        4 0.45016557E-02 0.12500248E+03</pdfrwt>
<pdfrwt beam="2">  1       -4 0.20538953E-01 0.12500248E+03</pdfrwt>
<totfact> 0.96807147E+03</totfact>
</mgrwt>
</event>
<event>
 5    1  0.3243498E-002  0.1249956E+03  0.7818608E-02  0.1235076E+00
         -4   -1    0    0    0  501 -0.00000000000E+00  0.00000000000E+00  0.34311541355E+01  0.36586498468E+01  0.12700000000E+01 0.  1.
          4   -1    0    0  501    0  0.00000000000E+00 -0.00000000000E+00 -0.11016294959E+04  0.11016302279E+04  0.12700000000E+01 0.  1.
         25    2    1    2    0    0  0.00000000000E+00  0.00000000000E+00 -0.10981983417E+04  0.11052888778E+04  0.12499562204E+03 0.  0.
    9000005    1    3    3    0    0  0.20103089138E+02 -0.54853234230E+02 -0.35296735469E+03  0.35777082745E+03  0.10000000000E+01 0.  0.
    9000005    1    3    3    0    0 -0.20103089138E+02  0.54853234230E+02 -0.74523098706E+03  0.74751805034E+03  0.10000000000E+01 0.  0.
<mgrwt>
<rscale>  0 0.12499562E+03</rscale>
<asrwt>0</asrwt>
<pdfrwt beam="2">  1        4 0.16949874E+00 0.12499562E+03</pdfrwt>
<pdfrwt beam="1">  1       -4 0.54542673E-03 0.12499562E+03</pdfrwt>
<totfact> 0.27331776E+03</totfact>
</mgrwt>
</event>
<event>
 5    1  0.3243498E-002  0.1250099E+03  0.7818608E-02  0.1235054E+00
          4   -1    0    0  501    0  0.00000000000E+00  0.00000000000E+00  0.16002383357E+02  0.16052699870E+02  0.12700000000E+01 0.  1.
         -4   -1    0    0    0  501 -0.00000000000E+00 -0.00000000000E+00 -0.24370762730E+03  0.24371093637E+03  0.12700000000E+01 0.  1.
         25    2    1    2    0    0  0.00000000000E+00  0.00000000000E+00 -0.22770524395E+03  0.25976363624E+03  0.12500987397E+03 0.  0.
    9000005    1    3    3    0    0  0.37784544707E+01  0.48933682216E+02 -0.33452391727E+02  0.59404078022E+02  0.10000000000E+01 0.  0.
    9000005    1    3    3    0    0 -0.37784544707E+01 -0.48933682216E+02 -0.19425285222E+03  0.20035955822E+03  0.10000000000E+01 0.  0.
<mgrwt>
<rscale>  0 0.12500987E+03</rscale>
<asrwt>0</asrwt>
<pdfrwt beam="1">  1        4 0.24660303E-02 0.12500987E+03</pdfrwt>
<pdfrwt beam="2">  1       -4 0.37497604E-01 0.12500987E+03</pdfrwt>
<totfact> 0.80921456E+03</totfact>
</mgrwt>
</event>
<event>
 5    1  0.3243498E-002  0.1250025E+03  0.7818608E-02  0.1235065E+00
         -4   -1    0    0    0  501 -0.00000000000E+00  0.00000000000E+00  0.73051628678E+02  0.73062667297E+02  0.12700000000E+01 0. -1.
          4   -1    0    0  501    0  0.00000000000E+00 -0.00000000000E+00 -0.53451992036E+02  0.53467077277E+02  0.12700000000E+01 0. -1.
         25    2    1    2    0    0  0.00000000000E+00  0.00000000000E+00  0.19599636643E+02  0.12652974457E+03  0.12500252200E+03 0.  0.
    9000005    1    3    3    0    0 -0.32735267280E+02 -0.37038023362E+02 -0.28903371446E+02  0.57269693376E+02  0.10000000000E+01 0.  0.
    9000005    1    3    3    0    0  0.32735267280E+02  0.37038023362E+02  0.48503008088E+02  0.69260051199E+02  0.10000000000E+01 0.  0.
<mgrwt>
<rscale>  0 0.12500252E+03</rscale>
<asrwt>0</asrwt>
<pdfrwt beam="2">  1        4 0.82253930E-02 0.12500252E+03</pdfrwt>
<pdfrwt beam="1">  1       -4 0.11240722E-01 0.12500252E+03</pdfrwt>
<totfact> 0.10418786E+04</totfact>
</mgrwt>
</event>
<event>
 5    1  0.3243498E-002  0.1249998E+03  0.7818608E-02  0.1235070E+00
         -4   -1    0    0    0  501 -0.00000000000E+00  0.00000000000E+00  0.34638619899E+02  0.34661893897E+02  0.12700000000E+01 0.  1.
          4   -1    0    0  501    0  0.00000000000E+00 -0.00000000000E+00 -0.11270638139E+03  0.11271353648E+03  0.12700000000E+01 0.  1.
         25    2    1    2    0    0  0.00000000000E+00  0.00000000000E+00 -0.78067761492E+02  0.14737543038E+03  0.12499976838E+03 0.  0.
    9000005    1    3    3    0    0 -0.20966882094E+02  0.35279516306E+00 -0.10844017977E+03  0.11045364276E+03  0.10000000000E+01 0.  0.
    9000005    1    3    3    0    0  0.20966882094E+02 -0.35279516306E+00  0.30372418279E+02  0.36921787623E+02  0.10000000000E+01 0.  0.
<mgrwt>
<rscale>  0 0.12499977E+03</rscale>
<asrwt>0</asrwt>
<pdfrwt beam="2">  1        4 0.17341784E-01 0.12499977E+03</pdfrwt>
<pdfrwt beam="1">  1       -4 0.53313592E-02 0.12499977E+03</pdfrwt>
<totfact> 0.99829983E+03</totfact>
</mgrwt>
</event>
<event>
 5    1  0.3243498E-002  0.1249998E+03  0.7818608E-02  0.1235070E+00
          4   -1    0    0  501    0  0.00000000000E+00  0.00000000000E+00  0.17532570516E+02  0.17578507585E+02  0.12700000000E+01 0.  1.
         -4   -1    0    0    0  501 -0.00000000000E+00 -0.00000000000E+00 -0.22245974706E+03  0.22246337218E+03  0.12700000000E+01 0.  1.
         25    2    1    2    0    0  0.00000000000E+00  0.00000000000E+00 -0.20492717654E+03  0.24004187976E+03  0.12499982542E+03 0.  0.
    9000005    1    3    3    0    0  0.35208012752E+02 -0.18525706396E+02 -0.19500779170E+03  0.19902724634E+03  0.10000000000E+01 0.  0.
    9000005    1    3    3    0    0 -0.35208012752E+02  0.18525706396E+02 -0.99193848368E+01  0.41014633425E+02  0.10000000000E+01 0.  0.
<mgrwt>
<rscale>  0 0.12499983E+03</rscale>
<asrwt>0</asrwt>
<pdfrwt beam="1">  1        4 0.27011312E-02 0.12499983E+03</pdfrwt>
<pdfrwt beam="2">  1       -4 0.34228387E-01 0.12499983E+03</pdfrwt>
<totfact> 0.83791458E+03</totfact>
</mgrwt>
</event>
<event>
 5    1  0.3243498E-002  0.1249805E+03  0.7818608E-02  0.1235100E+00
         -4   -1    0    0    0  501 -0.00000000000E+00  0.00000000000E+00  0.90899992485E+01  0.91782888567E+01  0.12700000000E+01 0.  1.
          4   -1    0    0  501    0  0.00000000000E+00 -0.00000000000E+00 -0.42743069440E+03  0.42743258113E+03  0.12700000000E+01 0.  1.
         25    2    1    2    0    0  0.00000000000E+00  0.00000000000E+00 -0.41834069515E+03  0.43661086999E+03  0.12498045677E+03 0.  0.
    9000005    1    3    3    0    0 -0.13685207505E+02 -0.51215056494E+02 -0.93635286682E+02  0.10760498979E+03  0.10000000000E+01 0.  0.
    9000005    1    3    3    0    0  0.13685207505E+02  0.51215056494E+02 -0.32470540847E+03  0.32900588019E+03  0.10000000000E+01 0.  0.
<mgrwt>
<rscale>  0 0.12498046E+03</rscale>
<asrwt>0</asrwt>
<pdfrwt beam="2">  1        4 0.65765490E-01 0.12498046E+03</pdfrwt>
<pdfrwt beam="1">  1       -4 0.14053984E-02 0.12498046E+03</pdfrwt>
<totfact> 0.61167647E+03</totfact>
</mgrwt>
</event>
<event>
 5    1  0.3243498E-002  0.1250051E+03  0.7818608E-02  0.1235061E+00
         -4   -1    0    0    0  501 -0.00000000000E+00  0.00000000000E+00  0.39674992513E+02  0.39695313714E+02  0.12700000000E+01 0.  1.
          4   -1    0    0  501    0  0.00000000000E+00 -0.00000000000E+00 -0.98414594023E+02  0.98422788096E+02  0.12700000000E+01 0.  1.
         25    2    1    2    0    0  0.00000000000E+00  0.00000000000E+00 -0.58739601510E+02  0.13811810181E+03  0.12500507695E+03 0.  0.
    9000005    1    3    3    0    0 -0.50853854030E+02 -0.43472258625E+01  0.10476427911E+02  0.52113034686E+02  0.10000000000E+01 0.  0.
    9000005    1    3    3    0    0  0.50853854030E+02  0.43472258625E+01 -0.69216029421E+02  0.86005067125E+02  0.10000000000E+01 0.  0.
<mgrwt>
<rscale>  0 0.12500508E+03</rscale>
<asrwt>0</asrwt>
<pdfrwt beam="2">  1        4 0.15142900E-01 0.12500508E+03</pdfrwt>
<pdfrwt beam="1">  1       -4 0.61060385E-02 0.12500508E+03</pdfrwt>
<totfact> 0.10171575E+04</totfact>
</mgrwt>
</event>
<event>
 5    1  0.3243498E-002  0.1249960E+03  0.7818608E-02  0.1235076E+00
          4   -1    0    0  501    0  0.00000000000E+00  0.00000000000E+00  0.11079499709E+02  0.11152049758E+02  0.12700000000E+01 0. -1.
         -4   -1    0    0    0  501 -0.00000000000E+00 -0.00000000000E+00 -0.35131881012E+03  0.35132110560E+03  0.12700000000E+01 0. -1.
         25    2    1    2    0    0  0.00000000000E+00  0.00000000000E+00 -0.34023931041E+03  0.36247315536E+03  0.12499599998E+03 0.  0.
    9000005    1    3    3    0    0 -0.38058443499E+02  0.14205233156E+02 -0.30781856257E+03  0.31048913223E+03  0.10000000000E+01 0.  0.
    9000005    1    3    3    0    0  0.38058443499E+02 -0.14205233156E+02 -0.32420747844E+02  0.51984023136E+02  0.10000000000E+01 0.  0.
<mgrwt>
<rscale>  0 0.12499600E+03</rscale>
<asrwt>0</asrwt>
<pdfrwt beam="1">  1        4 0.17102960E-02 0.12499600E+03</pdfrwt>
<pdfrwt beam="2">  1       -4 0.54054797E-01 0.12499600E+03</pdfrwt>
<totfact> 0.68379860E+03</totfact>
</mgrwt>
</event>
<event>
 5    1  0.3243498E-002  0.1249982E+03  0.7818608E-02  0.1235072E+00
          4   -1    0    0  501    0  0.00000000000E+00  0.00000000000E+00  0.14090696808E+03  0.14091269124E+03  0.12700000000E+01 0. -1.
         -4   -1    0    0    0  501 -0.00000000000E+00 -0.00000000000E+00 -0.27700567880E+02  0.27729665719E+02  0.12700000000E+01 0. -1.
         25    2    1    2    0    0  0.00000000000E+00  0.00000000000E+00  0.11320640020E+03  0.16864235696E+03  0.12499822205E+03 0.  0.
    9000005    1    3    3    0    0  0.58917541525E+02  0.12383234174E+02  0.34006607519E+02  0.69152516534E+02  0.10000000000E+01 0.  0.
    9000005    1    3    3    0    0 -0.58917541525E+02 -0.12383234174E+02  0.79199792679E+02  0.99489840428E+02  0.10000000000E+01 0.  0.
<mgrwt>
<rscale>  0 0.12499822E+03</rscale>
<asrwt>0</asrwt>
<pdfrwt beam="1">  1        4 0.21680674E-01 0.12499822E+03</pdfrwt>
<pdfrwt beam="2">  1       -4 0.42643044E-02 0.12499822E+03</pdfrwt>
<totfact> 0.95705821E+03</totfact>
</mgrwt>
</event>
<event>
 5    1  0.3243498E-002  0.1249966E+03  0.7818608E-02  0.1235075E+00
         -4   -1    0    0    0  501 -0.00000000000E+00  0.00000000000E+00  0.73150616895E+02  0.73161640578E+02  0.12700000000E+01 0. -1.
          4   -1    0    0  501    0  0.00000000000E+00 -0.00000000000E+00 -0.53374584843E+02  0.53389691956E+02  0.12700000000E+01 0. -1.
         25    2    1    2    0    0  0.00000000000E+00  0.00000000000E+00  0.19776032051E+02  0.12655133253E+03  0.12499659324E+03 0.  0.
    9000005    1    3    3    0    0  0.27069924054E+02 -0.11289869417E+02  0.65754017029E+02  0.72005782374E+02  0.10000000000E+01 0.  0.
    9000005    1    3    3    0    0 -0.27069924054E+02  0.11289869417E+02 -0.45977984978E+02  0.54545550161E+02  0.10000000000E+01 0.  0.
<mgrwt>
<rscale>  0 0.12499659E+03</rscale>
<asrwt>0</asrwt>
<pdfrwt beam="2">  1        4 0.82134847E-02 0.12499659E+03</pdfrwt>
<pdfrwt beam="1">  1       -4 0.11255951E-01 0.12499659E+03</pdfrwt>
<totfact> 0.10419710E+04</totfact>
</mgrwt>
</event>
<event>
 5    1  0.3243498E-002  0.1249984E+03  0.7818608E-02  0.1235072E+00
         -4   -1    0    0    0  501 -0.00000000000E+00  0.00000000000E+00  0.47937529449E+03  0.47937697678E+03  0.12700000000E+01 0. -1.
          4   -1    0    0  501    0  0.00000000000E+00 -0.00000000000E+00 -0.80972257454E+01  0.81962164913E+01  0.12700000000E+01 0. -1.
         25    2    1    2    0    0  0.00000000000E+00  0.00000000000E+00  0.47127806874E+03  0.48757319327E+03  0.12499840286E+03 0.  0.
    9000005    1    3    3    0    0  0.84184870108E+01 -0.29656043463E+02  0.23608074450E+02  0.38841897696E+02  0.10000000000E+01 0.  0.
    9000005    1    3    3    0    0 -0.84184870108E+01  0.29656043463E+02  0.44766999429E+03  0.44873129558E+03  0.10000000000E+01 0.  0.
<mgrwt>
<rscale>  0 0.12499840E+03</rscale>
<asrwt>0</asrwt>
<pdfrwt beam="2">  1        4 0.12534716E-02 0.12499840E+03</pdfrwt>
<pdfrwt beam="1">  1       -4 0.73757764E-01 0.12499840E+03</pdfrwt>
<totfact> 0.56843599E+03</totfact>
</mgrwt>
</event>
<event>
 5    1  0.3243498E-002  0.1250113E+03  0.7818608E-02  0.1235052E+00
          4   -1    0    0  501    0  0.00000000000E+00  0.00000000000E+00  0.12242562374E+02  0.12308258751E+02  0.12700000000E+01 0. -1.
         -4   -1    0    0    0  501 -0.00000000000E+00 -0.00000000000E+00 -0.31820781353E+03  0.31821034787E+03  0.12700000000E+01 0. -1.
         25    2    1    2    0    0  0.00000000000E+00  0.00000000000E+00 -0.30596525116E+03  0.33051860662E+03  0.12501125712E+03 0.  0.
    9000005    1    3    3    0    0 -0.32241350734E+02 -0.28366254799E+02 -0.27303493851E+03  0.27639324658E+03  0.10000000000E+01 0.  0.
    9000005    1    3    3    0    0  0.32241350734E+02  0.28366254799E+02 -0.32930312647E+02  0.54125360040E+02  0.10000000000E+01 0.  0.
<mgrwt>
<rscale>  0 0.12501126E+03</rscale>
<asrwt>0</asrwt>
<pdfrwt beam="1">  1        4 0.18887199E-02 0.12501126E+03</pdfrwt>
<pdfrwt beam="2">  1       -4 0.48960290E-01 0.12501126E+03</pdfrwt>
<totfact> 0.71904367E+03</totfact>
</mgrwt>
</event>
<event>
 5    1  0.3243498E-002  0.1250018E+03  0.7818608E-02  0.1235066E+00
          4   -1    0    0  501    0  0.00000000000E+00  0.00000000000E+00  0.40240629021E+02  0.40260664724E+02  0.12700000000E+01 0.  1.
         -4   -1    0    0    0  501 -0.00000000000E+00 -0.00000000000E+00 -0.97026757824E+02  0.97035069093E+02  0.12700000000E+01 0.  1.
         25    2    1    2    0    0  0.00000000000E+00  0.00000000000E+00 -0.56786128803E+02  0.13729573382E+03  0.12500181639E+03 0.  0.
    9000005    1    3    3    0    0  0.57345431769E+02  0.14023654288E+02 -0.58781744561E+01  0.59335607853E+02  0.10000000000E+01 0.  0.
    9000005    1    3    3    0    0 -0.57345431769E+02 -0.14023654288E+02 -0.50907954347E+02  0.77960125963E+02  0.10000000000E+01 0.  0.
<mgrwt>
<rscale>  0 0.12500182E+03</rscale>
<asrwt>0</asrwt>
<pdfrwt beam="1">  1        4 0.61930466E-02 0.12500182E+03</pdfrwt>
<pdfrwt beam="2">  1       -4 0.14929374E-01 0.12500182E+03</pdfrwt>
<totfact> 0.10189489E+04</totfact>
</mgrwt>
</event>
<event>
 5    1  0.3243498E-002  0.1250123E+03  0.7818608E-02  0.1235050E+00
          4   -1    0    0  501    0  0.00000000000E+00  0.00000000000E+00  0.37496462427E+03  0.37496677500E+03  0.12700000000E+01 0.  1.
         -4   -1    0    0    0  501 -0.00000000000E+00 -0.00000000000E+00 -0.10378817742E+02  0.10456230569E+02  0.12700000000E+01 0.  1.
         25    2    1    2    0    0  0.00000000000E+00  0.00000000000E+00  0.36458580653E+03  0.38542300557E+03  0.12501233099E+03 0.  0.
    9000005    1    3    3    0    0 -0.41222430812E+02 -0.44768308959E+02  0.13841661013E+03  0.15120730223E+03  0.10000000000E+01 0.  0.
    9000005    1    3    3    0    0  0.41222430812E+02  0.44768308959E+02  0.22616919640E+03  0.23421570334E+03  0.10000000000E+01 0.  0.
<mgrwt>
<rscale>  0 0.12501233E+03</rscale>
<asrwt>0</asrwt>
<pdfrwt beam="1">  1        4 0.57692987E-01 0.12501233E+03</pdfrwt>
<pdfrwt beam="2">  1       -4 0.16028614E-02 0.12501233E+03</pdfrwt>
<totfact> 0.65977682E+03</totfact>
</mgrwt>
</event>
<event>
 5    1  0.3243498E-002  0.1249900E+03  0.7818608E-02  0.1235085E+00
         -4   -1    0    0    0  501 -0.00000000000E+00  0.00000000000E+00  0.19694184801E+04  0.19694188896E+04  0.12700000000E+01 0. -1.
          4   -1    0    0  501    0  0.00000000000E+00 -0.00000000000E+00 -0.17793561806E+01  0.21860943295E+01  0.12700000000E+01 0. -1.
         25    2    1    2    0    0  0.00000000000E+00  0.00000000000E+00  0.19676391240E+04  0.19716049840E+04  0.12498996209E+03 0.  0.
    9000005    1    3    3    0    0 -0.49823325426E+02  0.75883761170E+01  0.40110018474E+03  0.40425524784E+03  0.10000000000E+01 0.  0.
    9000005    1    3    3    0    0  0.49823325426E+02 -0.75883761170E+01  0.15665389392E+04  0.15673497361E+04  0.10000000000E+01 0.  0.
<mgrwt>
<rscale>  0 0.12498996E+03</rscale>
<asrwt>0</asrwt>
<pdfrwt beam="2">  1        4 0.30506658E-03 0.12498996E+03</pdfrwt>
<pdfrwt beam="1">  1       -4 0.30301836E+00 0.12498996E+03</pdfrwt>
<totfact> 0.10238784E+03</totfact>
</mgrwt>
</event>
<event>
 5    1  0.3243498E-002  0.1250001E+03  0.7818608E-02  0.1235069E+00
          4   -1    0    0  501    0  0.00000000000E+00  0.00000000000E+00  0.10846016052E+02  0.10920117407E+02  0.12700000000E+01 0. -1.
         -4   -1    0    0    0  501 -0.00000000000E+00 -0.00000000000E+00 -0.35885423121E+03  0.35885647849E+03  0.12700000000E+01 0. -1.
         25    2    1    2    0    0  0.00000000000E+00  0.00000000000E+00 -0.34800821515E+03  0.36977659590E+03  0.12500005223E+03 0.  0.
    9000005    1    3    3    0    0 -0.50585286271E+01  0.57453190504E+02 -0.24517325795E+03  0.25186779116E+03  0.10000000000E+01 0.  0.
    9000005    1    3    3    0    0  0.50585286271E+01 -0.57453190504E+02 -0.10283495721E+03  0.11790880474E+03  0.10000000000E+01 0.  0.
<mgrwt>
<rscale>  0 0.12500005E+03</rscale>
<asrwt>0</asrwt>
<pdfrwt beam="1">  1        4 0.16744911E-02 0.12500005E+03</pdfrwt>
<pdfrwt beam="2">  1       -4 0.55214207E-01 0.12500005E+03</pdfrwt>
<totfact> 0.67602242E+03</totfact>
</mgrwt>
</event>
<event>
 4    1  0.3243498E-002  0.1197085E+03  0.7818608E-02  0.1243579E+00
          4   -1    0    0  501    0  0.00000000000E+00  0.00000000000E+00  0.31379788074E+03  0.31380045070E+03  0.12700000000E+01 0.  1.
         -4   -1    0    0    0  501 -0.00000000000E+00 -0.00000000000E+00 -0.11378743543E+02  0.11449397566E+02  0.12700000000E+01 0.  1.
    9000005    1    1    2    0    0  0.24958481308E+01 -0.58798542883E+02  0.12169092718E+03  0.13517832541E+03  0.10000000000E+01 0.  0.
    9000005    1    1    2    0    0 -0.24958481308E+01  0.58798542883E+02  0.18072821002E+03  0.19007152285E+03  0.10000000000E+01 0.  0.
<mgrwt>
<rscale>  0 0.11970852E+03</rscale>
<asrwt>0</asrwt>
<pdfrwt beam="1">  1        4 0.48282223E-01 0.11970852E+03</pdfrwt>
<pdfrwt beam="2">  1       -4 0.17562088E-02 0.11970852E+03</pdfrwt>
<totfact> 0.81744608E+03</totfact>
</mgrwt>
</event>
<event>
 5    1  0.3243498E-002  0.1249989E+03  0.7818608E-02  0.1235071E+00
         -4   -1    0    0    0  501 -0.00000000000E+00  0.00000000000E+00  0.25934681561E+02  0.25965758369E+02  0.12700000000E+01 0.  1.
          4   -1    0    0  501    0  0.00000000000E+00 -0.00000000000E+00 -0.15049230160E+03  0.15049766025E+03  0.12700000000E+01 0.  1.
         25    2    1    2    0    0  0.00000000000E+00  0.00000000000E+00 -0.12455762004E+03  0.17646341862E+03  0.12499894960E+03 0.  0.
    9000005    1    3    3    0    0  0.54155578618E+02  0.10177606744E+02 -0.10388919429E+03  0.11760261504E+03  0.10000000000E+01 0.  0.
    9000005    1    3    3    0    0 -0.54155578618E+02 -0.10177606744E+02 -0.20668425744E+02  0.58860803572E+02  0.10000000000E+01 0.  0.
<mgrwt>
<rscale>  0 0.12499895E+03</rscale>
<asrwt>0</asrwt>
<pdfrwt beam="2">  1        4 0.23155464E-01 0.12499895E+03</pdfrwt>
<pdfrwt beam="1">  1       -4 0.39927538E-02 0.12499895E+03</pdfrwt>
<totfact> 0.94259721E+03</totfact>
</mgrwt>
</event>
<event>
 5    1  0.3243498E-002  0.1250006E+03  0.7818608E-02  0.1235068E+00
         -4   -1    0    0    0  501 -0.00000000000E+00  0.00000000000E+00  0.14535441001E+03  0.14535995807E+03  0.12700000000E+01 0.  1.
          4   -1    0    0  501    0  0.00000000000E+00 -0.00000000000E+00 -0.26853176201E+02  0.26883191255E+02  0.12700000000E+01 0.  1.
         25    2    1    2    0    0  0.00000000000E+00  0.00000000000E+00  0.11850123381E+03  0.17224314932E+03  0.12500064030E+03 0.  0.
    9000005    1    3    3    0    0 -0.53681490246E+02  0.30985003687E+02  0.48268772392E+02  0.78566196527E+02  0.10000000000E+01 0.  0.
    9000005    1    3    3    0    0  0.53681490246E+02 -0.30985003687E+02  0.70232461418E+02  0.93676952797E+02  0.10000000000E+01 0.  0.
<mgrwt>
<rscale>  0 0.12500064E+03</rscale>
<asrwt>0</asrwt>
<pdfrwt beam="2">  1        4 0.41339934E-02 0.12500064E+03</pdfrwt>
<pdfrwt beam="1">  1       -4 0.22364953E-01 0.12500064E+03</pdfrwt>
<totfact> 0.95030824E+03</totfact>
</mgrwt>
</event>
<event>
 5    1  0.3243498E-002  0.1250014E+03  0.7818608E-02  0.1235067E+00
          4   -1    0    0  501    0  0.00000000000E+00  0.00000000000E+00  0.82721473909E+03  0.82721571399E+03  0.12700000000E+01 0.  1.
         -4   -1    0    0    0  501 -0.00000000000E+00 -0.00000000000E+00 -0.46358916469E+01  0.48067027537E+01  0.12700000000E+01 0.  1.
         25    2    1    2    0    0  0.00000000000E+00  0.00000000000E+00  0.82257884744E+03  0.83202241674E+03  0.12500136679E+03 0.  0.
    9000005    1    3    3    0    0 -0.43215825925E+02 -0.16206243256E+02  0.69172293075E+03  0.69326175638E+03  0.10000000000E+01 0.  0.
    9000005    1    3    3    0    0  0.43215825925E+02  0.16206243256E+02  0.13085591670E+03  0.13876066037E+03  0.10000000000E+01 0.  0.
<mgrwt>
<rscale>  0 0.12500137E+03</rscale>
<asrwt>0</asrwt>
<pdfrwt beam="1">  1        4 0.12727711E+00 0.12500137E+03</pdfrwt>
<pdfrwt beam="2">  1       -4 0.72642787E-03 0.12500137E+03</pdfrwt>
<totfact> 0.36873356E+03</totfact>
</mgrwt>
</event>
<event>
 5    1  0.3243498E-002  0.1249925E+03  0.7818608E-02  0.1235081E+00
         -4   -1    0    0    0  501 -0.00000000000E+00  0.00000000000E+00  0.40663464115E+02  0.40683291581E+02  0.12700000000E+01 0. -1.
          4   -1    0    0  501    0  0.00000000000E+00 -0.00000000000E+00 -0.96003911392E+02  0.96012311203E+02  0.12700000000E+01 0. -1.
         25    2    1    2    0    0  0.00000000000E+00  0.00000000000E+00 -0.55340447277E+02  0.13669560278E+03  0.12499249064E+03 0.  0.
    9000005    1    3    3    0    0  0.89348006051E+01  0.60331845110E+02 -0.42545949967E+02  0.74370155673E+02  0.10000000000E+01 0.  0.
    9000005    1    3    3    0    0 -0.89348006051E+01 -0.60331845110E+02 -0.12794497310E+02  0.62325447111E+02  0.10000000000E+01 0.  0.
<mgrwt>
<rscale>  0 0.12499249E+03</rscale>
<asrwt>0</asrwt>
<pdfrwt beam="2">  1        4 0.14772004E-01 0.12499249E+03</pdfrwt>
<pdfrwt beam="1">  1       -4 0.62580889E-02 0.12499249E+03</pdfrwt>
<totfact> 0.10204182E+04</totfact>
</mgrwt>
</event>
<event>
 5    1  0.3243498E-002  0.1249998E+03  0.7818608E-02  0.1235070E+00
          4   -1    0    0  501    0  0.00000000000E+00  0.00000000000E+00  0.34593479954E+01  0.36851036014E+01  0.12700000000E+01 0.  1.
         -4   -1    0    0    0  501 -0.00000000000E+00 -0.00000000000E+00 -0.10932769856E+04  0.10932777233E+04  0.12700000000E+01 0.  1.
         25    2    1    2    0    0  0.00000000000E+00  0.00000000000E+00 -0.10898176376E+04  0.10969628269E+04  0.12499984099E+03 0.  0.
    9000005    1    3    3    0    0  0.17391451336E+02 -0.96041544033E+01 -0.10648680236E+04  0.10650538062E+04  0.10000000000E+01 0.  0.
    9000005    1    3    3    0    0 -0.17391451336E+02  0.96041544033E+01 -0.24949614017E+02  0.31909020683E+02  0.10000000000E+01 0.  0.
<mgrwt>
<rscale>  0 0.12499984E+03</rscale>
<asrwt>0</asrwt>
<pdfrwt beam="1">  1        4 0.54963082E-03 0.12499984E+03</pdfrwt>
<pdfrwt beam="2">  1       -4 0.16821361E+00 0.12499984E+03</pdfrwt>
<totfact> 0.27572593E+03</totfact>
</mgrwt>
</event>
<event>
 5    1  0.3243498E-002  0.1249975E+03  0.7818608E-02  0.1235073E+00
         -4   -1    0    0    0  501 -0.00000000000E+00  0.00000000000E+00  0.92187017815E+02  0.92195765378E+02  0.12700000000E+01 0.  1.
          4   -1    0    0  501    0  0.00000000000E+00 -0.00000000000E+00 -0.42351111058E+02  0.42370148783E+02  0.12700000000E+01 0.  1.
         25    2    1    2    0    0  0.00000000000E+00  0.00000000000E+00  0.49835906757E+02  0.13456591416E+03  0.12499747058E+03 0.  0.
    9000005    1    3    3    0    0  0.25109590725E+02 -0.54869246559E+02  0.42408684321E+02  0.73760573955E+02  0.10000000000E+01 0.  0.
    9000005    1    3    3    0    0 -0.25109590725E+02  0.54869246559E+02  0.74272224355E+01  0.60805340205E+02  0.10000000000E+01 0.  0.
<mgrwt>
<rscale>  0 0.12499747E+03</rscale>
<asrwt>0</asrwt>
<pdfrwt beam="2">  1        4 0.65176929E-02 0.12499747E+03</pdfrwt>
<pdfrwt beam="1">  1       -4 0.14184755E-01 0.12499747E+03</pdfrwt>
<totfact> 0.10247813E+04</totfact>
</mgrwt>
</event>
<event>
 5    1  0.3243498E-002  0.1250034E+03  0.7818608E-02  0.1235064E+00
          4   -1    0    0  501    0  0.00000000000E+00  0.00000000000E+00  0.82177304370E+02  0.82187117320E+02  0.12700000000E+01 0.  1.
         -4   -1    0    0    0  501 -0.00000000000E+00 -0.00000000000E+00 -0.47515889578E+02  0.47532858765E+02  0.12700000000E+01 0.  1.
         25    2    1    2    0    0  0.00000000000E+00  0.00000000000E+00  0.34661414792E+02  0.12971997609E+03  0.12500343403E+03 0.  0.
    9000005    1    3    3    0    0 -0.28533760943E+02  0.16386982569E+02 -0.37803556343E+02  0.50128011963E+02  0.10000000000E+01 0.  0.
    9000005    1    3    3    0    0  0.28533760943E+02 -0.16386982569E+02  0.72464971134E+02  0.79591964122E+02  0.10000000000E+01 0.  0.
<mgrwt>
<rscale>  0 0.12500343E+03</rscale>
<asrwt>0</asrwt>
<pdfrwt beam="1">  1        4 0.12644722E-01 0.12500343E+03</pdfrwt>
<pdfrwt beam="2">  1       -4 0.73121971E-02 0.12500343E+03</pdfrwt>
<totfact> 0.10349699E+04</totfact>
</mgrwt>
</event>
<event>
 5    1  0.3243498E-002  0.1249999E+03  0.7818608E-02  0.1235070E+00
          4   -1    0    0  501    0  0.00000000000E+00  0.00000000000E+00  0.24268314175E+04  0.24268317498E+04  0.12700000000E+01 0. -1.
         -4   -1    0    0    0  501 -0.00000000000E+00 -0.00000000000E+00 -0.13587096318E+01  0.18598365153E+01  0.12700000000E+01 0. -1.
         25    2    1    2    0    0  0.00000000000E+00  0.00000000000E+00  0.24254727079E+04  0.24286915863E+04  0.12499985941E+03 0.  0.
    9000005    1    3    3    0    0  0.30073202274E+02 -0.27524503539E+02  0.29249607396E+03  0.29532515821E+03  0.10000000000E+01 0.  0.
    9000005    1    3    3    0    0 -0.30073202274E+02  0.27524503539E+02  0.21329766339E+04  0.21333664281E+04  0.10000000000E+01 0.  0.
<mgrwt>
<rscale>  0 0.12499986E+03</rscale>
<asrwt>0</asrwt>
<pdfrwt beam="1">  1        4 0.37339733E+00 0.12499986E+03</pdfrwt>
<pdfrwt beam="2">  1       -4 0.24760598E-03 0.12499986E+03</pdfrwt>
<totfact> 0.52540699E+02</totfact>
</mgrwt>
</event>
<event>
 5    1  0.3243498E-002  0.1249965E+03  0.7818608E-02  0.1235075E+00
         -4   -1    0    0    0  501 -0.00000000000E+00  0.00000000000E+00  0.44323570747E+03  0.44323752693E+03  0.12700000000E+01 0.  1.
          4   -1    0    0  501    0  0.00000000000E+00 -0.00000000000E+00 -0.87649281945E+01  0.88564590133E+01  0.12700000000E+01 0.  1.
         25    2    1    2    0    0  0.00000000000E+00  0.00000000000E+00  0.43447077928E+03  0.45209398594E+03  0.12499645627E+03 0.  0.
    9000005    1    3    3    0    0 -0.10232617172E+02 -0.26666984193E+02  0.16208745919E+02  0.32856627100E+02  0.10000000000E+01 0.  0.
    9000005    1    3    3    0    0  0.10232617172E+02  0.26666984193E+02  0.41826203336E+03  0.41923735884E+03  0.10000000000E+01 0.  0.
<mgrwt>
<rscale>  0 0.12499646E+03</rscale>
<asrwt>0</asrwt>
<pdfrwt beam="2">  1        4 0.13556314E-02 0.12499646E+03</pdfrwt>
<pdfrwt beam="1">  1       -4 0.68197284E-01 0.12499646E+03</pdfrwt>
<totfact> 0.59787489E+03</totfact>
</mgrwt>
</event>
<event>
 5    1  0.3243498E-002  0.1250011E+03  0.7818608E-02  0.1235068E+00
         -4   -1    0    0    0  501 -0.00000000000E+00  0.00000000000E+00  0.24035594213E+03  0.24035929734E+03  0.12700000000E+01 0. -1.
          4   -1    0    0  501    0  0.00000000000E+00 -0.00000000000E+00 -0.16223939124E+02  0.16273570619E+02  0.12700000000E+01 0. -1.
         25    2    1    2    0    0  0.00000000000E+00  0.00000000000E+00  0.22413200301E+03  0.25663286796E+03  0.12500109658E+03 0.  0.
    9000005    1    3    3    0    0 -0.28121799604E+02  0.52758131373E+02  0.74710596627E+02  0.95691845459E+02  0.10000000000E+01 0.  0.
    9000005    1    3    3    0    0  0.28121799604E+02 -0.52758131373E+02  0.14942140638E+03  0.16094102250E+03  0.10000000000E+01 0.  0.
<mgrwt>
<rscale>  0 0.12500110E+03</rscale>
<asrwt>0</asrwt>
<pdfrwt beam="2">  1        4 0.25000665E-02 0.12500110E+03</pdfrwt>
<pdfrwt beam="1">  1       -4 0.36981913E-01 0.12500110E+03</pdfrwt>
<totfact> 0.81378936E+03</totfact>
</mgrwt>
</event>
<event>
 5    1  0.3243498E-002  0.1249985E+03  0.7818608E-02  0.1235072E+00
          4   -1    0    0  501    0  0.00000000000E+00  0.00000000000E+00  0.26606848258E+02  0.26637140879E+02  0.12700000000E+01 0.  1.
         -4   -1    0    0    0  501 -0.00000000000E+00 -0.00000000000E+00 -0.14669360002E+03  0.14669909743E+03  0.12700000000E+01 0.  1.
         25    2    1    2    0    0  0.00000000000E+00  0.00000000000E+00 -0.12008675176E+03  0.17333623831E+03  0.12499849424E+03 0.  0.
    9000005    1    3    3    0    0  0.30086086152E+02  0.51585765827E+02 -0.34515463990E+02  0.68982469297E+02  0.10000000000E+01 0.  0.
    9000005    1    3    3    0    0 -0.30086086152E+02 -0.51585765827E+02 -0.85571287770E+02  0.10435376901E+03  0.10000000000E+01 0.  0.
<mgrwt>
<rscale>  0 0.12499849E+03</rscale>
<asrwt>0</asrwt>
<pdfrwt beam="1">  1        4 0.40961144E-02 0.12499849E+03</pdfrwt>
<pdfrwt beam="2">  1       -4 0.22570999E-01 0.12499849E+03</pdfrwt>
<totfact> 0.94833645E+03</totfact>
</mgrwt>
</event>
<event>
 5    1  0.3243498E-002  0.1249994E+03  0.7818608E-02  0.1235070E+00
         -4   -1    0    0    0  501 -0.00000000000E+00  0.00000000000E+00  0.24980987196E+03  0.24981310019E+03  0.12700000000E+01 0.  1.
          4   -1    0    0  501    0  0.00000000000E+00 -0.00000000000E+00 -0.15607612901E+02  0.15659197951E+02  0.12700000000E+01 0.  1.
         25    2    1    2    0    0  0.00000000000E+00  0.00000000000E+00  0.23420225906E+03  0.26547229815E+03  0.12499937174E+03 0.  0.
    9000005    1    3    3    0    0  0.28366415988E+02 -0.55544335938E+02  0.12543112810E+03  0.14008495532E+03  0.10000000000E+01 0.  0.
    9000005    1    3    3    0    0 -0.28366415988E+02  0.55544335938E+02  0.10877113096E+03  0.12538734282E+03  0.10000000000E+01 0.  0.
<mgrwt>
<rscale>  0 0.12499937E+03</rscale>
<asrwt>0</asrwt>
<pdfrwt beam="2">  1        4 0.24053878E-02 0.12499937E+03</pdfrwt>
<pdfrwt beam="1">  1       -4 0.38436502E-01 0.12499937E+03</pdfrwt>
<totfact> 0.80145304E+03</totfact>
</mgrwt>
</event>
<event>
 5    1  0.3243498E-002  0.1249995E+03  0.7818608E-02  0.1235070E+00
         -4   -1    0    0    0  501 -0.00000000000E+00  0.00000000000E+00  0.43051793267E+02  0.43070521282E+02  0.12700000000E+01 0. -1.
          4   -1    0    0  501    0  0.00000000000E+00 -0.00000000000E+00 -0.90690038578E+02  0.90698930518E+02  0.12700000000E+01 0. -1.
         25    2    1    2    0    0  0.00000000000E+00  0.00000000000E+00 -0.47638245311E+02  0.13376945180E+03  0.12499945527E+03 0.  0.
    9000005    1    3    3    0    0  0.31607707851E+02 -0.21317544624E+02  0.29169818394E+02  0.48014197999E+02  0.10000000000E+01 0.  0.
    9000005    1    3    3    0    0 -0.31607707851E+02  0.21317544624E+02 -0.76808063705E+02  0.85755253801E+02  0.10000000000E+01 0.  0.
<mgrwt>
<rscale>  0 0.12499946E+03</rscale>
<asrwt>0</asrwt>
<pdfrwt beam="2">  1        4 0.13954438E-01 0.12499946E+03</pdfrwt>
<pdfrwt beam="1">  1       -4 0.66254774E-02 0.12499946E+03</pdfrwt>
<totfact> 0.10264199E+04</totfact>
</mgrwt>
</event>
<event>
 5    1  0.3243498E-002  0.1249989E+03  0.7818608E-02  0.1235071E+00
          4   -1    0    0  501    0  0.00000000000E+00  0.00000000000E+00  0.86476536685E+01  0.87404126888E+01  0.12700000000E+01 0. -1.
         -4   -1    0    0    0  501 -0.00000000000E+00 -0.00000000000E+00 -0.44920047920E+03  0.44920227449E+03  0.12700000000E+01 0. -1.
         25    2    1    2    0    0  0.00000000000E+00  0.00000000000E+00 -0.44055282553E+03  0.45794268718E+03  0.12499885065E+03 0.  0.
    9000005    1    3    3    0    0 -0.15718989785E+02 -0.40994387967E+02 -0.57358427931E+02  0.72239987122E+02  0.10000000000E+01 0.  0.
    9000005    1    3    3    0    0  0.15718989785E+02  0.40994387967E+02 -0.38319439760E+03  0.38570270006E+03  0.10000000000E+01 0.  0.
<mgrwt>
<rscale>  0 0.12499885E+03</rscale>
<asrwt>0</asrwt>
<pdfrwt beam="1">  1        4 0.13376820E-02 0.12499885E+03</pdfrwt>
<pdfrwt beam="2">  1       -4 0.69115021E-01 0.12499885E+03</pdfrwt>
<totfact> 0.59283352E+03</totfact>
</mgrwt>
</event>
<event>
 5    1  0.3243498E-002  0.1249975E+03  0.7818608E-02  0.1235073E+00
          4   -1    0    0  501    0  0.00000000000E+00  0.00000000000E+00  0.44853302782E+03  0.44853482579E+03  0.12700000000E+01 0.  1.
         -4   -1    0    0    0  501 -0.00000000000E+00 -0.00000000000E+00 -0.86604658255E+01  0.87530890727E+01  0.12700000000E+01 0.  1.
         25    2    1    2    0    0  0.00000000000E+00  0.00000000000E+00  0.43987256200E+03  0.45728791486E+03  0.12499746511E+03 0.  0.
    9000005    1    3    3    0    0  0.40832877774E+02 -0.17115925479E+02  0.38127084350E+03  0.38383425448E+03  0.10000000000E+01 0.  0.
    9000005    1    3    3    0    0 -0.40832877774E+02  0.17115925479E+02  0.58601718496E+02  0.73453660379E+02  0.10000000000E+01 0.  0.
<mgrwt>
<rscale>  0 0.12499747E+03</rscale>
<asrwt>0</asrwt>
<pdfrwt beam="1">  1        4 0.69012335E-01 0.12499747E+03</pdfrwt>
<pdfrwt beam="2">  1       -4 0.13396427E-02 0.12499747E+03</pdfrwt>
<totfact> 0.59340918E+03</totfact>
</mgrwt>
</event>
<event>
 5    1  0.3243498E-002  0.1249940E+03  0.7818608E-02  0.1235079E+00
          4   -1    0    0  501    0  0.00000000000E+00  0.00000000000E+00  0.32898177416E+02  0.32922681806E+02  0.12700000000E+01 0. -1.
         -4   -1    0    0    0  501 -0.00000000000E+00 -0.00000000000E+00 -0.11865409946E+03  0.11866089592E+03  0.12700000000E+01 0. -1.
         25    2    1    2    0    0  0.00000000000E+00  0.00000000000E+00 -0.85755922048E+02  0.15158357772E+03  0.12499401133E+03 0.  0.
    9000005    1    3    3    0    0 -0.48974579142E+02 -0.35452401747E+02 -0.62033421098E+02  0.86628676112E+02  0.10000000000E+01 0.  0.
    9000005    1    3    3    0    0  0.48974579142E+02  0.35452401747E+02 -0.23722500951E+02  0.64954901610E+02  0.10000000000E+01 0.  0.
<mgrwt>
<rscale>  0 0.12499401E+03</rscale>
<asrwt>0</asrwt>
<pdfrwt beam="1">  1        4 0.50636659E-02 0.12499401E+03</pdfrwt>
<pdfrwt beam="2">  1       -4 0.18256884E-01 0.12499401E+03</pdfrwt>
<totfact> 0.99002308E+03</totfact>
</mgrwt>
</event>
<event>
 5    1  0.3243498E-002  0.1250010E+03  0.7818608E-02  0.1235068E+00
          4   -1    0    0  501    0  0.00000000000E+00  0.00000000000E+00  0.17200662090E+03  0.17201130932E+03  0.12700000000E+01 0. -1.
         -4   -1    0    0    0  501 -0.00000000000E+00 -0.00000000000E+00 -0.22687482170E+02  0.22723000400E+02  0.12700000000E+01 0. -1.
         25    2    1    2    0    0  0.00000000000E+00  0.00000000000E+00  0.14931913873E+03  0.19473430972E+03  0.12500098476E+03 0.  0.
    9000005    1    3    3    0    0 -0.36127664292E+02 -0.88348369389E+01  0.15289541979E+03  0.15735714748E+03  0.10000000000E+01 0.  0.
    9000005    1    3    3    0    0  0.36127664292E+02  0.88348369389E+01 -0.35762810562E+01  0.37377162240E+02  0.10000000000E+01 0.  0.
<mgrwt>
<rscale>  0 0.12500098E+03</rscale>
<asrwt>0</asrwt>
<pdfrwt beam="1">  1        4 0.26465650E-01 0.12500098E+03</pdfrwt>
<pdfrwt beam="2">  1       -4 0.34934747E-02 0.12500098E+03</pdfrwt>
<totfact> 0.91028016E+03</totfact>
</mgrwt>
</event>
<event>
 5    1  0.3243498E-002  0.1249998E+03  0.7818608E-02  0.1235070E+00
         -4   -1    0    0    0  501 -0.00000000000E+00  0.00000000000E+00  0.60387637134E+01  0.61708643792E+01  0.12700000000E+01 0. -1.
          4   -1    0    0  501    0  0.00000000000E+00 -0.00000000000E+00 -0.63972955593E+03  0.63973081654E+03  0.12700000000E+01 0. -1.
         25    2    1    2    0    0  0.00000000000E+00  0.00000000000E+00 -0.63369079222E+03  0.64590168092E+03  0.12499984509E+03 0.  0.
    9000005    1    3    3    0    0  0.61702882773E+02 -0.71255220446E+01 -0.28133734129E+03  0.28811407187E+03  0.10000000000E+01 0.  0.
    9000005    1    3    3    0    0 -0.61702882773E+02  0.71255220446E+01 -0.35235345093E+03  0.35778760905E+03  0.10000000000E+01 0.  0.
<mgrwt>
<rscale>  0 0.12499985E+03</rscale>
<asrwt>0</asrwt>
<pdfrwt beam="2">  1        4 0.98430137E-01 0.12499985E+03</pdfrwt>
<pdfrwt beam="1">  1       -4 0.93929964E-03 0.12499985E+03</pdfrwt>
<totfact> 0.46092737E+03</totfact>
</mgrwt>
</event>
<event>
 5    1  0.3243498E-002  0.1250000E+03  0.7818608E-02  0.1235069E+00
         -4   -1    0    0    0  501 -0.00000000000E+00  0.00000000000E+00  0.18031146727E+02  0.18075816781E+02  0.12700000000E+01 0. -1.
          4   -1    0    0  501    0  0.00000000000E+00 -0.00000000000E+00 -0.21632430738E+03  0.21632803531E+03  0.12700000000E+01 0. -1.
         25    2    1    2    0    0  0.00000000000E+00  0.00000000000E+00 -0.19829316065E+03  0.23440385209E+03  0.12499995326E+03 0.  0.
    9000005    1    3    3    0    0 -0.37442669031E+01 -0.34124732729E+02 -0.19706761071E+03  0.20003789668E+03  0.10000000000E+01 0.  0.
    9000005    1    3    3    0    0  0.37442669031E+01  0.34124732729E+02 -0.12255499369E+01  0.34365955408E+02  0.10000000000E+01 0.  0.
<mgrwt>
<rscale>  0 0.12499995E+03</rscale>
<asrwt>0</asrwt>
<pdfrwt beam="2">  1        4 0.33284384E-01 0.12499995E+03</pdfrwt>
<pdfrwt beam="1">  1       -4 0.27777456E-02 0.12499995E+03</pdfrwt>
<totfact> 0.84638026E+03</totfact>
</mgrwt>
</event>
<event>
 5    1  0.3243498E-002  0.1249979E+03  0.7818608E-02  0.1235073E+00
         -4   -1    0    0    0  501 -0.00000000000E+00  0.00000000000E+00  0.14110340929E+03  0.14110912448E+03  0.12700000000E+01 0. -1.
          4   -1    0    0  501    0  0.00000000000E+00 -0.00000000000E+00 -0.27661832495E+02  0.27690971037E+02  0.12700000000E+01 0. -1.
         25    2    1    2    0    0  0.00000000000E+00  0.00000000000E+00  0.11344157679E+03  0.16880009552E+03  0.12499792359E+03 0.  0.
    9000005    1    3    3    0    0 -0.55975802619E+02  0.35828322723E+01  0.19516860707E+02  0.59397264397E+02  0.10000000000E+01 0.  0.
    9000005    1    3    3    0    0  0.55975802619E+02 -0.35828322723E+01  0.93924716084E+02  0.10940283112E+03  0.10000000000E+01 0.  0.
<mgrwt>
<rscale>  0 0.12499792E+03</rscale>
<asrwt>0</asrwt>
<pdfrwt beam="2">  1        4 0.42583476E-02 0.12499792E+03</pdfrwt>
<pdfrwt beam="1">  1       -4 0.21710898E-01 0.12499792E+03</pdfrwt>
<totfact> 0.95676976E+03</totfact>
</mgrwt>
</event>
<event>
 5    1  0.3243498E-002  0.1249966E+03  0.7818608E-02  0.1235075E+00
          4   -1    0    0  501    0  0.00000000000E+00  0.00000000000E+00  0.14871134207E+03  0.14871676489E+03  0.12700000000E+01 0. -1.
         -4   -1    0    0    0  501 -0.00000000000E+00 -0.00000000000E+00 -0.26244626808E+02  0.26275337034E+02  0.12700000000E+01 0. -1.
         25    2    1    2    0    0  0.00000000000E+00  0.00000000000E+00  0.12246671526E+03  0.17499210193E+03  0.12499655751E+03 0.  0.
    9000005    1    3    3    0    0  0.39463357574E+02  0.11554126493E+02  0.12710930866E+03  0.13359876788E+03  0.10000000000E+01 0.  0.
    9000005    1    3    3    0    0 -0.39463357574E+02 -0.11554126493E+02 -0.46425934019E+01  0.41393334047E+02  0.10000000000E+01 0.  0.
<mgrwt>
<rscale>  0 0.12499656E+03</rscale>
<asrwt>0</asrwt>
<pdfrwt beam="1">  1        4 0.22881447E-01 0.12499656E+03</pdfrwt>
<pdfrwt beam="2">  1       -4 0.40404144E-02 0.12499656E+03</pdfrwt>
<totfact> 0.94533587E+03</totfact>
</mgrwt>
</event>
<event>
 5    1  0.3243498E-002  0.1250016E+03  0.7818608E-02  0.1235067E+00
         -4   -1    0    0    0  501 -0.00000000000E+00  0.00000000000E+00  0.23221985941E+02  0.23256687878E+02  0.12700000000E+01 0. -1.
          4   -1    0    0  501    0  0.00000000000E+00 -0.00000000000E+00 -0.16805503466E+03  0.16805983331E+03  0.12700000000E+01 0. -1.
         25    2    1    2    0    0  0.00000000000E+00  0.00000000000E+00 -0.14483304872E+03  0.19131652119E+03  0.12500159711E+03 0.  0.
    9000005    1    3    3    0    0 -0.25257120406E+02 -0.14771061905E+02 -0.15693136190E+03  0.15963883847E+03  0.10000000000E+01 0.  0.
    9000005    1    3    3    0    0  0.25257120406E+02  0.14771061905E+02  0.12098313179E+02  0.31677682724E+02  0.10000000000E+01 0.  0.
<mgrwt>
<rscale>  0 0.12500160E+03</rscale>
<asrwt>0</asrwt>
<pdfrwt beam="2">  1        4 0.25857658E-01 0.12500160E+03</pdfrwt>
<pdfrwt beam="1">  1       -4 0.35756518E-02 0.12500160E+03</pdfrwt>
<totfact> 0.91615471E+03</totfact>
</mgrwt>
</event>
<event>
 5    1  0.3243498E-002  0.1250012E+03  0.7818608E-02  0.1235067E+00
         -4   -1    0    0    0  501 -0.00000000000E+00  0.00000000000E+00  0.48508065093E+03  0.48508231344E+03  0.12700000000E+01 0. -1.
          4   -1    0    0  501    0  0.00000000000E+00 -0.00000000000E+00 -0.80011782325E+01  0.81013426732E+01  0.12700000000E+01 0. -1.
         25    2    1    2    0    0  0.00000000000E+00  0.00000000000E+00  0.47707947270E+03  0.49318365611E+03  0.12500118152E+03 0.  0.
    9000005    1    3    3    0    0 -0.58576551008E+02 -0.20665144208E+02  0.21147299984E+03  0.22040891582E+03  0.10000000000E+01 0.  0.
    9000005    1    3    3    0    0  0.58576551008E+02  0.20665144208E+02  0.26560647286E+03  0.27277474029E+03  0.10000000000E+01 0.  0.
<mgrwt>
<rscale>  0 0.12500118E+03</rscale>
<asrwt>0</asrwt>
<pdfrwt beam="2">  1        4 0.12387832E-02 0.12500118E+03</pdfrwt>
<pdfrwt beam="1">  1       -4 0.74635636E-01 0.12500118E+03</pdfrwt>
<totfact> 0.56395664E+03</totfact>
</mgrwt>
</event>
<event>
 5    1  0.3243498E-002  0.1250082E+03  0.7818608E-02  0.1235056E+00
          4   -1    0    0  501    0  0.00000000000E+00  0.00000000000E+00  0.23389141482E+03  0.23389486276E+03  0.12700000000E+01 0.  1.
         -4   -1    0    0    0  501 -0.00000000000E+00 -0.00000000000E+00 -0.16675607497E+02  0.16723898630E+02  0.12700000000E+01 0.  1.
         25    2    1    2    0    0  0.00000000000E+00  0.00000000000E+00  0.21721580732E+03  0.25061876139E+03  0.12500822617E+03 0.  0.
    9000005    1    3    3    0    0  0.18765445434E+02  0.23868992716E+02  0.21812114626E+03  0.22022648615E+03  0.10000000000E+01 0.  0.
    9000005    1    3    3    0    0 -0.18765445434E+02 -0.23868992716E+02 -0.90533894083E+00  0.30392275239E+02  0.10000000000E+01 0.  0.
<mgrwt>
<rscale>  0 0.12500823E+03</rscale>
<asrwt>0</asrwt>
<pdfrwt beam="1">  1        4 0.35987270E-01 0.12500823E+03</pdfrwt>
<pdfrwt beam="2">  1       -4 0.25694583E-02 0.12500823E+03</pdfrwt>
<totfact> 0.82225814E+03</totfact>
</mgrwt>
</event>
<event>
 5    1  0.3243498E-002  0.1250100E+03  0.7818608E-02  0.1235054E+00
         -4   -1    0    0    0  501 -0.00000000000E+00  0.00000000000E+00  0.21520560576E+04  0.21520564324E+04  0.12700000000E+01 0.  1.
          4   -1    0    0  501    0  0.00000000000E+00 -0.00000000000E+00 -0.15928820793E+01  0.20371974177E+01  0.12700000000E+01 0.  1.
         25    2    1    2    0    0  0.00000000000E+00  0.00000000000E+00  0.21504631756E+04  0.21540936298E+04  0.12500998548E+03 0.  0.
    9000005    1    3    3    0    0  0.49031476823E+02 -0.19308934485E+02  0.49625915111E+03  0.49905016354E+03  0.10000000000E+01 0.  0.
    9000005    1    3    3    0    0 -0.49031476823E+02  0.19308934485E+02  0.16542040244E+04  0.16550434662E+04  0.10000000000E+01 0.  0.
<mgrwt>
<rscale>  0 0.12500999E+03</rscale>
<asrwt>0</asrwt>
<pdfrwt beam="2">  1        4 0.27926604E-03 0.12500999E+03</pdfrwt>
<pdfrwt beam="1">  1       -4 0.33111937E+00 0.12500999E+03</pdfrwt>
<totfact> 0.79799210E+02</totfact>
</mgrwt>
</event>
<event>
 5    1  0.3243498E-002  0.1249989E+03  0.7818608E-02  0.1235071E+00
         -4   -1    0    0    0  501 -0.00000000000E+00  0.00000000000E+00  0.70309867705E+03  0.70309982404E+03  0.12700000000E+01 0. -1.
          4   -1    0    0  501    0  0.00000000000E+00 -0.00000000000E+00 -0.54819166648E+01  0.56271049679E+01  0.12700000000E+01 0. -1.
         25    2    1    2    0    0  0.00000000000E+00  0.00000000000E+00  0.69761676038E+03  0.70872692901E+03  0.12499886214E+03 0.  0.
    9000005    1    3    3    0    0  0.27398862478E+02 -0.31996841787E+02  0.87091141520E+02  0.96748966303E+02  0.10000000000E+01 0.  0.
    9000005    1    3    3    0    0 -0.27398862478E+02  0.31996841787E+02  0.61052561887E+03  0.61197796271E+03  0.10000000000E+01 0.  0.
<mgrwt>
<rscale>  0 0.12499886E+03</rscale>
<asrwt>0</asrwt>
<pdfrwt beam="2">  1        4 0.85462844E-03 0.12499886E+03</pdfrwt>
<pdfrwt beam="1">  1       -4 0.10818027E+00 0.12499886E+03</pdfrwt>
<totfact> 0.42631066E+03</totfact>
</mgrwt>
</event>
<event>
 5    1  0.3243498E-002  0.1250061E+03  0.7818608E-02  0.1235060E+00
          4   -1    0    0  501    0  0.00000000000E+00  0.00000000000E+00  0.19836634130E+03  0.19837040672E+03  0.12700000000E+01 0. -1.
         -4   -1    0    0    0  501 -0.00000000000E+00 -0.00000000000E+00 -0.19669282867E+02  0.19710240701E+02  0.12700000000E+01 0. -1.
         25    2    1    2    0    0  0.00000000000E+00  0.00000000000E+00  0.17869705844E+03  0.21808064742E+03  0.12500612019E+03 0.  0.
    9000005    1    3    3    0    0  0.56810504056E+02 -0.20782812606E+02  0.61970952671E+02  0.86606914539E+02  0.10000000000E+01 0.  0.
    9000005    1    3    3    0    0 -0.56810504056E+02  0.20782812606E+02  0.11672610577E+03  0.13147373288E+03  0.10000000000E+01 0.  0.
<mgrwt>
<rscale>  0 0.12500612E+03</rscale>
<asrwt>0</asrwt>
<pdfrwt beam="1">  1        4 0.30521362E-01 0.12500612E+03</pdfrwt>
<pdfrwt beam="2">  1       -4 0.30295068E-02 0.12500612E+03</pdfrwt>
<totfact> 0.87161057E+03</totfact>
</mgrwt>
</event>
<event>
 5    1  0.3243498E-002  0.1250047E+03  0.7818608E-02  0.1235062E+00
         -4   -1    0    0    0  501 -0.00000000000E+00  0.00000000000E+00  0.61209355140E+03  0.61209486893E+03  0.12700000000E+01 0.  1.
          4   -1    0    0  501    0  0.00000000000E+00 -0.00000000000E+00 -0.63177454593E+01  0.64441297076E+01  0.12700000000E+01 0.  1.
         25    2    1    2    0    0  0.00000000000E+00  0.00000000000E+00  0.60577580594E+03  0.61853899864E+03  0.12500466298E+03 0.  0.
    9000005    1    3    3    0    0 -0.45875440538E+02 -0.89235560600E+01  0.97593946448E+02  0.10821166425E+03  0.10000000000E+01 0.  0.
    9000005    1    3    3    0    0  0.45875440538E+02  0.89235560600E+01  0.50818185950E+03  0.51032733438E+03  0.10000000000E+01 0.  0.
<mgrwt>
<rscale>  0 0.12500466E+03</rscale>
<asrwt>0</asrwt>
<pdfrwt beam="2">  1        4 0.98178384E-03 0.12500466E+03</pdfrwt>
<pdfrwt beam="1">  1       -4 0.94178082E-01 0.12500466E+03</pdfrwt>
<totfact> 0.47713018E+03</totfact>
</mgrwt>
</event>
<event>
 4    1  0.3243498E-002  0.1250793E+03  0.7818608E-02  0.1234945E+00
         -4   -1    0    0    0  501 -0.00000000000E+00  0.00000000000E+00  0.37616709516E+03  0.37616923902E+03  0.12700000000E+01 0.  1.
          4   -1    0    0  501    0  0.00000000000E+00 -0.00000000000E+00 -0.10356565872E+02  0.10434143792E+02  0.12700000000E+01 0.  1.
    9000005    1    1    2    0    0  0.30224013195E+02 -0.33446303266E+02  0.48957600615E+02  0.66558191334E+02  0.10000000000E+01 0.  0.
    9000005    1    1    2    0    0 -0.30224013195E+02  0.33446303266E+02  0.31685292867E+03  0.32004519147E+03  0.10000000000E+01 0.  0.
<mgrwt>
<rscale>  0 0.12507930E+03</rscale>
<asrwt>0</asrwt>
<pdfrwt beam="2">  1        4 0.15994503E-02 0.12507930E+03</pdfrwt>
<pdfrwt beam="1">  1       -4 0.57877992E-01 0.12507930E+03</pdfrwt>
<totfact> 0.65761647E+03</totfact>
</mgrwt>
</event>
<event>
 5    1  0.3243498E-002  0.1249992E+03  0.7818608E-02  0.1235070E+00
         -4   -1    0    0    0  501 -0.00000000000E+00  0.00000000000E+00  0.94961092713E+02  0.94969584759E+02  0.12700000000E+01 0.  1.
          4   -1    0    0  501    0  0.00000000000E+00 -0.00000000000E+00 -0.41114631632E+02  0.41134241627E+02  0.12700000000E+01 0.  1.
         25    2    1    2    0    0  0.00000000000E+00  0.00000000000E+00  0.53846461082E+02  0.13610382639E+03  0.12499924074E+03 0.  0.
    9000005    1    3    3    0    0 -0.12932023094E+02 -0.60827431431E+02  0.20212166548E+02  0.65396829528E+02  0.10000000000E+01 0.  0.
    9000005    1    3    3    0    0  0.12932023094E+02  0.60827431431E+02  0.33634294534E+02  0.70706996858E+02  0.10000000000E+01 0.  0.
<mgrwt>
<rscale>  0 0.12499924E+03</rscale>
<asrwt>0</asrwt>
<pdfrwt beam="2">  1        4 0.63274897E-02 0.12499924E+03</pdfrwt>
<pdfrwt beam="1">  1       -4 0.14611560E-01 0.12499924E+03</pdfrwt>
<totfact> 0.10215032E+04</totfact>
</mgrwt>
</event>
<event>
 5    1  0.3243498E-002  0.1250070E+03  0.7818608E-02  0.1235058E+00
          4   -1    0    0  501    0  0.00000000000E+00  0.00000000000E+00  0.28865374770E+02  0.28893299580E+02  0.12700000000E+01 0.  1.
         -4   -1    0    0    0  501 -0.00000000000E+00 -0.00000000000E+00 -0.13524529772E+03  0.13525126046E+03  0.12700000000E+01 0.  1.
         25    2    1    2    0    0  0.00000000000E+00  0.00000000000E+00 -0.10637992295E+03  0.16414456004E+03  0.12500699414E+03 0.  0.
    9000005    1    3    3    0    0  0.28979996890E+02  0.88636109038E+01  0.18577963441E+02  0.35560435087E+02  0.10000000000E+01 0.  0.
    9000005    1    3    3    0    0 -0.28979996890E+02 -0.88636109038E+01 -0.12495788639E+03  0.12858412495E+03  0.10000000000E+01 0.  0.
<mgrwt>
<rscale>  0 0.12500699E+03</rscale>
<asrwt>0</asrwt>
<pdfrwt beam="1">  1        4 0.44434337E-02 0.12500699E+03</pdfrwt>
<pdfrwt beam="2">  1       -4 0.20809575E-01 0.12500699E+03</pdfrwt>
<totfact> 0.96534475E+03</totfact>
</mgrwt>
</event>
<event>
 5    1  0.3243498E-002  0.1249999E+03  0.7818608E-02  0.1235069E+00
         -4   -1    0    0    0  501 -0.00000000000E+00  0.00000000000E+00  0.85906010093E+01  0.86839694668E+01  0.12700000000E+01 0. -1.
          4   -1    0    0  501    0  0.00000000000E+00 -0.00000000000E+00 -0.45215968683E+03  0.45216147038E+03  0.12700000000E+01 0. -1.
         25    2    1    2    0    0  0.00000000000E+00  0.00000000000E+00 -0.44356908582E+03  0.46084543985E+03  0.12499994212E+03 0.  0.
    9000005    1    3    3    0    0  0.44600325944E+02 -0.43764219713E+02 -0.22497818625E+03  0.23349663871E+03  0.10000000000E+01 0.  0.
    9000005    1    3    3    0    0 -0.44600325944E+02  0.43764219713E+02 -0.21859089958E+03  0.22734880114E+03  0.10000000000E+01 0.  0.
<mgrwt>
<rscale>  0 0.12499994E+03</rscale>
<asrwt>0</asrwt>
<pdfrwt beam="2">  1        4 0.69570330E-01 0.12499994E+03</pdfrwt>
<pdfrwt beam="1">  1       -4 0.13289507E-02 0.12499994E+03</pdfrwt>
<totfact> 0.59035720E+03</totfact>
</mgrwt>
</event>
<event>
 5    1  0.3243498E-002  0.1250085E+03  0.7818608E-02  0.1235056E+00
         -4   -1    0    0    0  501 -0.00000000000E+00  0.00000000000E+00  0.12131172950E+03  0.12131837707E+03  0.12700000000E+01 0.  1.
          4   -1    0    0  501    0  0.00000000000E+00 -0.00000000000E+00 -0.32184405068E+02  0.32209452488E+02  0.12700000000E+01 0.  1.
         25    2    1    2    0    0  0.00000000000E+00  0.00000000000E+00  0.89127324430E+02  0.15352782955E+03  0.12500845766E+03 0.  0.
    9000005    1    3    3    0    0 -0.27886439602E+02 -0.23394507282E+02 -0.17828027995E+02  0.40543742635E+02  0.10000000000E+01 0.  0.
    9000005    1    3    3    0    0  0.27886439602E+02  0.23394507282E+02  0.10695535242E+03  0.11298408692E+03  0.10000000000E+01 0.  0.
<mgrwt>
<rscale>  0 0.12500846E+03</rscale>
<asrwt>0</asrwt>
<pdfrwt beam="2">  1        4 0.49538849E-02 0.12500846E+03</pdfrwt>
<pdfrwt beam="1">  1       -4 0.18665781E-01 0.12500846E+03</pdfrwt>
<totfact> 0.98586310E+03</totfact>
</mgrwt>
</event>
<event>
 5    1  0.3243498E-002  0.1249961E+03  0.7818608E-02  0.1235075E+00
          4   -1    0    0  501    0  0.00000000000E+00  0.00000000000E+00  0.16032745862E+03  0.16033248856E+03  0.12700000000E+01 0. -1.
         -4   -1    0    0    0  501 -0.00000000000E+00 -0.00000000000E+00 -0.24340716759E+02  0.24373825968E+02  0.12700000000E+01 0. -1.
         25    2    1    2    0    0  0.00000000000E+00  0.00000000000E+00  0.13598674186E+03  0.18470631453E+03  0.12499611460E+03 0.  0.
    9000005    1    3    3    0    0 -0.58364046551E+02 -0.22330062472E+02  0.68165357659E+02  0.92479779437E+02  0.10000000000E+01 0.  0.
    9000005    1    3    3    0    0  0.58364046551E+02  0.22330062472E+02  0.67821384203E+02  0.92226535092E+02  0.10000000000E+01 0.  0.
<mgrwt>
<rscale>  0 0.12499611E+03</rscale>
<asrwt>0</asrwt>
<pdfrwt beam="1">  1        4 0.24668697E-01 0.12499611E+03</pdfrwt>
<pdfrwt beam="2">  1       -4 0.37476594E-02 0.12499611E+03</pdfrwt>
<totfact> 0.92784724E+03</totfact>
</mgrwt>
</event>
<event>
 5    1  0.3243498E-002  0.1250059E+03  0.7818608E-02  0.1235060E+00
          4   -1    0    0  501    0  0.00000000000E+00  0.00000000000E+00  0.24785406555E+03  0.24785731926E+03  0.12700000000E+01 0. -1.
         -4   -1    0    0    0  501 -0.00000000000E+00 -0.00000000000E+00 -0.15732831891E+02  0.15784007707E+02  0.12700000000E+01 0. -1.
         25    2    1    2    0    0  0.00000000000E+00  0.00000000000E+00  0.23212123366E+03  0.26364132697E+03  0.12500592853E+03 0.  0.
    9000005    1    3    3    0    0  0.22860542390E+01  0.62044890838E+02  0.13109639556E+03  0.14505881377E+03  0.10000000000E+01 0.  0.
    9000005    1    3    3    0    0 -0.22860542390E+01 -0.62044890838E+02  0.10102483811E+03  0.11858251320E+03  0.10000000000E+01 0.  0.
<mgrwt>
<rscale>  0 0.12500593E+03</rscale>
<asrwt>0</asrwt>
<pdfrwt beam="1">  1        4 0.38135580E-01 0.12500593E+03</pdfrwt>
<pdfrwt beam="2">  1       -4 0.24246227E-02 0.12500593E+03</pdfrwt>
<totfact> 0.80387147E+03</totfact>
</mgrwt>
</event>
<event>
 5    1  0.3243498E-002  0.1250009E+03  0.7818608E-02  0.1235068E+00
         -4   -1    0    0    0  501 -0.00000000000E+00  0.00000000000E+00  0.11881815564E+02  0.11949495432E+02  0.12700000000E+01 0.  1.
          4   -1    0    0  501    0  0.00000000000E+00 -0.00000000000E+00 -0.32776064881E+03  0.32776310928E+03  0.12700000000E+01 0.  1.
         25    2    1    2    0    0  0.00000000000E+00  0.00000000000E+00 -0.31587883324E+03  0.33971260471E+03  0.12500086604E+03 0.  0.
    9000005    1    3    3    0    0  0.45868046098E+02  0.21120075975E+02 -0.25799178925E+03  0.26288913744E+03  0.10000000000E+01 0.  0.
    9000005    1    3    3    0    0 -0.45868046098E+02 -0.21120075975E+02 -0.57887043988E+02  0.76823467272E+02  0.10000000000E+01 0.  0.
<mgrwt>
<rscale>  0 0.12500087E+03</rscale>
<asrwt>0</asrwt>
<pdfrwt beam="2">  1        4 0.50430104E-01 0.12500087E+03</pdfrwt>
<pdfrwt beam="1">  1       -4 0.18333673E-02 0.12500087E+03</pdfrwt>
<totfact> 0.70869966E+03</totfact>
</mgrwt>
</event>
<event>
 5    1  0.3243498E-002  0.1249999E+03  0.7818608E-02  0.1235069E+00
         -4   -1    0    0    0  501 -0.00000000000E+00  0.00000000000E+00  0.41877210858E+02  0.41896463923E+02  0.12700000000E+01 0. -1.
          4   -1    0    0  501    0  0.00000000000E+00 -0.00000000000E+00 -0.93233505807E+02  0.93242155193E+02  0.12700000000E+01 0. -1.
         25    2    1    2    0    0  0.00000000000E+00  0.00000000000E+00 -0.51356294949E+02  0.13513861912E+03  0.12499990938E+03 0.  0.
    9000005    1    3    3    0    0  0.54972018137E+02 -0.17387530167E+02  0.38075425440E+00  0.57666228914E+02  0.10000000000E+01 0.  0.
    9000005    1    3    3    0    0 -0.54972018137E+02  0.17387530167E+02 -0.51737049203E+02  0.77472390202E+02  0.10000000000E+01 0.  0.
<mgrwt>
<rscale>  0 0.12499991E+03</rscale>
<asrwt>0</asrwt>
<pdfrwt beam="2">  1        4 0.14345763E-01 0.12499991E+03</pdfrwt>
<pdfrwt beam="1">  1       -4 0.64447942E-02 0.12499991E+03</pdfrwt>
<totfact> 0.10235171E+04</totfact>
</mgrwt>
</event>
<event>
 5    1  0.3243498E-002  0.1250002E+03  0.7818608E-02  0.1235069E+00
          4   -1    0    0  501    0  0.00000000000E+00  0.00000000000E+00  0.62769040317E+02  0.62781886897E+02  0.12700000000E+01 0. -1.
         -4   -1    0    0    0  501 -0.00000000000E+00 -0.00000000000E+00 -0.62206591379E+02  0.62219554089E+02  0.12700000000E+01 0. -1.
         25    2    1    2    0    0  0.00000000000E+00  0.00000000000E+00  0.56244893800E+00  0.12500144099E+03  0.12500017560E+03 0.  0.
    9000005    1    3    3    0    0 -0.46838643151E+01  0.33348422082E+02  0.52923994544E+02  0.62737588723E+02  0.10000000000E+01 0.  0.
    9000005    1    3    3    0    0  0.46838643151E+01 -0.33348422082E+02 -0.52361545606E+02  0.62263852263E+02  0.10000000000E+01 0.  0.
<mgrwt>
<rscale>  0 0.12500018E+03</rscale>
<asrwt>0</asrwt>
<pdfrwt beam="1">  1        4 0.96587607E-02 0.12500018E+03</pdfrwt>
<pdfrwt beam="2">  1       -4 0.95722302E-02 0.12500018E+03</pdfrwt>
<totfact> 0.10452790E+04</totfact>
</mgrwt>
</event>
<event>
 5    1  0.3243498E-002  0.1250144E+03  0.7818608E-02  0.1235047E+00
         -4   -1    0    0    0  501 -0.00000000000E+00  0.00000000000E+00  0.71275150257E+02  0.71286463961E+02  0.12700000000E+01 0. -1.
          4   -1    0    0  501    0  0.00000000000E+00 -0.00000000000E+00 -0.54794833715E+02  0.54809549367E+02  0.12700000000E+01 0. -1.
         25    2    1    2    0    0  0.00000000000E+00  0.00000000000E+00  0.16480316542E+02  0.12609601333E+03  0.12501441414E+03 0.  0.
    9000005    1    3    3    0    0  0.27597905732E+02 -0.46496261711E+02  0.39857879805E+02  0.67180334447E+02  0.10000000000E+01 0.  0.
    9000005    1    3    3    0    0 -0.27597905732E+02  0.46496261711E+02 -0.23377563263E+02  0.58915678881E+02  0.10000000000E+01 0.  0.
<mgrwt>
<rscale>  0 0.12501441E+03</rscale>
<asrwt>0</asrwt>
<pdfrwt beam="2">  1        4 0.84319767E-02 0.12501441E+03</pdfrwt>
<pdfrwt beam="1">  1       -4 0.10967410E-01 0.12501441E+03</pdfrwt>
<totfact> 0.10425462E+04</totfact>
</mgrwt>
</event>
<event>
 5    1  0.3243498E-002  0.1250004E+03  0.7818608E-02  0.1235069E+00
          4   -1    0    0  501    0  0.00000000000E+00  0.00000000000E+00  0.96531621604E+02  0.96539975500E+02  0.12700000000E+01 0. -1.
         -4   -1    0    0    0  501 -0.00000000000E+00 -0.00000000000E+00 -0.40446194729E+02  0.40466128652E+02  0.12700000000E+01 0. -1.
         25    2    1    2    0    0  0.00000000000E+00  0.00000000000E+00  0.56085426875E+02  0.13700610415E+03  0.12500038987E+03 0.  0.
    9000005    1    3    3    0    0  0.41987353263E+02  0.28089394458E+02 -0.12278091453E+02  0.51997148429E+02  0.10000000000E+01 0.  0.
    9000005    1    3    3    0    0 -0.41987353263E+02 -0.28089394458E+02  0.68363518328E+02  0.85008955723E+02  0.10000000000E+01 0.  0.
<mgrwt>
<rscale>  0 0.12500039E+03</rscale>
<asrwt>0</asrwt>
<pdfrwt beam="1">  1        4 0.14853194E-01 0.12500039E+03</pdfrwt>
<pdfrwt beam="2">  1       -4 0.62246676E-02 0.12500039E+03</pdfrwt>
<totfact> 0.10195869E+04</totfact>
</mgrwt>
</event>
<event>
 5    1  0.3243498E-002  0.1249981E+03  0.7818608E-02  0.1235072E+00
          4   -1    0    0  501    0  0.00000000000E+00  0.00000000000E+00  0.14115976019E+04  0.14115981732E+04  0.12700000000E+01 0. -1.
         -4   -1    0    0    0  501 -0.00000000000E+00 -0.00000000000E+00 -0.26208531413E+01  0.29123480541E+01  0.12700000000E+01 0. -1.
         25    2    1    2    0    0  0.00000000000E+00  0.00000000000E+00  0.14089767488E+04  0.14145105213E+04  0.12499814480E+03 0.  0.
    9000005    1    3    3    0    0 -0.12385682596E+02  0.50188706488E+02  0.30715694579E+03  0.31147825083E+03  0.10000000000E+01 0.  0.
    9000005    1    3    3    0    0  0.12385682596E+02 -0.50188706488E+02  0.11018198030E+04  0.11030322705E+04  0.10000000000E+01 0.  0.
<mgrwt>
<rscale>  0 0.12499814E+03</rscale>
<asrwt>0</asrwt>
<pdfrwt beam="1">  1        4 0.21719181E+00 0.12499814E+03</pdfrwt>
<pdfrwt beam="2">  1       -4 0.42567387E-03 0.12499814E+03</pdfrwt>
<totfact> 0.19672394E+03</totfact>
</mgrwt>
</event>
<event>
 5    1  0.3243498E-002  0.1250481E+03  0.7818608E-02  0.1234994E+00
          4   -1    0    0  501    0  0.00000000000E+00  0.00000000000E+00  0.97170905685E+02  0.97179204625E+02  0.12700000000E+01 0.  1.
         -4   -1    0    0    0  501 -0.00000000000E+00 -0.00000000000E+00 -0.40210671527E+02  0.40230722149E+02  0.12700000000E+01 0.  1.
         25    2    1    2    0    0  0.00000000000E+00  0.00000000000E+00  0.56960234158E+02  0.13740992677E+03  0.12504806956E+03 0.  0.
    9000005    1    3    3    0    0 -0.74776015304E+01 -0.50456358906E+01  0.96457376225E+02  0.96883426830E+02  0.10000000000E+01 0.  0.
    9000005    1    3    3    0    0  0.74776015304E+01  0.50456358906E+01 -0.39497142067E+02  0.40526499944E+02  0.10000000000E+01 0.  0.
<mgrwt>
<rscale>  0 0.12504807E+03</rscale>
<asrwt>0</asrwt>
<pdfrwt beam="1">  1        4 0.14951550E-01 0.12504807E+03</pdfrwt>
<pdfrwt beam="2">  1       -4 0.61884380E-02 0.12504807E+03</pdfrwt>
<totfact> 0.10176488E+04</totfact>
</mgrwt>
</event>
<event>
 5    1  0.3243498E-002  0.1249995E+03  0.7818608E-02  0.1235070E+00
          4   -1    0    0  501    0  0.00000000000E+00  0.00000000000E+00  0.26777545699E+03  0.26777846864E+03  0.12700000000E+01 0. -1.
         -4   -1    0    0    0  501 -0.00000000000E+00 -0.00000000000E+00 -0.14556924931E+02  0.14612219662E+02  0.12700000000E+01 0. -1.
         25    2    1    2    0    0  0.00000000000E+00  0.00000000000E+00  0.25321853206E+03  0.28239068830E+03  0.12499950344E+03 0.  0.
    9000005    1    3    3    0    0  0.33185856741E+02  0.52932802101E+02  0.12983305893E+03  0.14408610556E+03  0.10000000000E+01 0.  0.
    9000005    1    3    3    0    0 -0.33185856741E+02 -0.52932802101E+02  0.12338547313E+03  0.13830458274E+03  0.10000000000E+01 0.  0.
<mgrwt>
<rscale>  0 0.12499950E+03</rscale>
<asrwt>0</asrwt>
<pdfrwt beam="1">  1        4 0.41200709E-01 0.12499950E+03</pdfrwt>
<pdfrwt beam="2">  1       -4 0.22440120E-02 0.12499950E+03</pdfrwt>
<totfact> 0.77863040E+03</totfact>
</mgrwt>
</event>
<event>
 5    1  0.3243498E-002  0.1249985E+03  0.7818608E-02  0.1235072E+00
          4   -1    0    0  501    0  0.00000000000E+00  0.00000000000E+00  0.38063991693E+02  0.38085172490E+02  0.12700000000E+01 0.  1.
         -4   -1    0    0    0  501 -0.00000000000E+00 -0.00000000000E+00 -0.10256719157E+03  0.10257505392E+03  0.12700000000E+01 0.  1.
         25    2    1    2    0    0  0.00000000000E+00  0.00000000000E+00 -0.64503199881E+02  0.14066022641E+03  0.12499854599E+03 0.  0.
    9000005    1    3    3    0    0 -0.27691433437E+02  0.55104075514E+02 -0.43610085023E+02  0.75538825380E+02  0.10000000000E+01 0.  0.
    9000005    1    3    3    0    0  0.27691433437E+02 -0.55104075514E+02 -0.20893114858E+02  0.65121401033E+02  0.10000000000E+01 0.  0.
<mgrwt>
<rscale>  0 0.12499855E+03</rscale>
<asrwt>0</asrwt>
<pdfrwt beam="1">  1        4 0.58582328E-02 0.12499855E+03</pdfrwt>
<pdfrwt beam="2">  1       -4 0.15781802E-01 0.12499855E+03</pdfrwt>
<totfact> 0.10120252E+04</totfact>
</mgrwt>
</event>
<event>
 5    1  0.3243498E-002  0.1250002E+03  0.7818608E-02  0.1235069E+00
         -4   -1    0    0    0  501 -0.00000000000E+00  0.00000000000E+00  0.12563956257E+03  0.12564598117E+03  0.12700000000E+01 0.  1.
          4   -1    0    0  501    0  0.00000000000E+00 -0.00000000000E+00 -0.31070848873E+02  0.31096793238E+02  0.12700000000E+01 0.  1.
         25    2    1    2    0    0  0.00000000000E+00  0.00000000000E+00  0.94568713698E+02  0.15674277440E+03  0.12500022287E+03 0.  0.
    9000005    1    3    3    0    0  0.54110461247E+02  0.57522288455E+00  0.80901364118E+01  0.54724064222E+02  0.10000000000E+01 0.  0.
    9000005    1    3    3    0    0 -0.54110461247E+02 -0.57522288455E+00  0.86478577286E+02  0.10201871018E+03  0.10000000000E+01 0.  0.
<mgrwt>
<rscale>  0 0.12500022E+03</rscale>
<asrwt>0</asrwt>
<pdfrwt beam="2">  1        4 0.47826201E-02 0.12500022E+03</pdfrwt>
<pdfrwt beam="1">  1       -4 0.19331653E-01 0.12500022E+03</pdfrwt>
<totfact> 0.97973962E+03</totfact>
</mgrwt>
</event>
<event>
 5    1  0.3243498E-002  0.1249857E+03  0.7818608E-02  0.1235092E+00
         -4   -1    0    0    0  501 -0.00000000000E+00  0.00000000000E+00  0.33306380671E+02  0.33330584954E+02  0.12700000000E+01 0.  1.
          4   -1    0    0  501    0  0.00000000000E+00 -0.00000000000E+00 -0.11718535415E+03  0.11719223578E+03  0.12700000000E+01 0.  1.
         25    2    1    2    0    0  0.00000000000E+00  0.00000000000E+00 -0.83878973481E+02  0.15052282074E+03  0.12498574867E+03 0.  0.
    9000005    1    3    3    0    0  0.37752809127E+02  0.48199263557E+02 -0.26901599299E+02  0.66881534442E+02  0.10000000000E+01 0.  0.
    9000005    1    3    3    0    0 -0.37752809127E+02 -0.48199263557E+02 -0.56977374182E+02  0.83641286295E+02  0.10000000000E+01 0.  0.
<mgrwt>
<rscale>  0 0.12498575E+03</rscale>
<asrwt>0</asrwt>
<pdfrwt beam="2">  1        4 0.18030907E-01 0.12498575E+03</pdfrwt>
<pdfrwt beam="1">  1       -4 0.51264498E-02 0.12498575E+03</pdfrwt>
<totfact> 0.99231405E+03</totfact>
</mgrwt>
</event>
<event>
 5    1  0.3243498E-002  0.1250325E+03  0.7818608E-02  0.1235019E+00
         -4   -1    0    0    0  501 -0.00000000000E+00  0.00000000000E+00  0.12920341341E+03  0.12920965497E+03  0.12700000000E+01 0.  1.
          4   -1    0    0  501    0  0.00000000000E+00 -0.00000000000E+00 -0.30228740368E+02  0.30255406859E+02  0.12700000000E+01 0.  1.
         25    2    1    2    0    0  0.00000000000E+00  0.00000000000E+00  0.98974673045E+02  0.15946506183E+03  0.12503247594E+03 0.  0.
    9000005    1    3    3    0    0  0.10338039326E+02 -0.61632020045E+02  0.47729769721E+02  0.78641667515E+02  0.10000000000E+01 0.  0.
    9000005    1    3    3    0    0 -0.10338039326E+02  0.61632020045E+02  0.51244903324E+02  0.80823394315E+02  0.10000000000E+01 0.  0.
<mgrwt>
<rscale>  0 0.12503248E+03</rscale>
<asrwt>0</asrwt>
<pdfrwt beam="2">  1        4 0.46531068E-02 0.12503248E+03</pdfrwt>
<pdfrwt beam="1">  1       -4 0.19879980E-01 0.12503248E+03</pdfrwt>
<totfact> 0.97374913E+03</totfact>
</mgrwt>
</event>
<event>
 5    1  0.3243498E-002  0.1249983E+03  0.7818608E-02  0.1235072E+00
          4   -1    0    0  501    0  0.00000000000E+00  0.00000000000E+00  0.83314382258E+02  0.83324061297E+02  0.12700000000E+01 0.  1.
         -4   -1    0    0    0  501 -0.00000000000E+00 -0.00000000000E+00 -0.46863373610E+02  0.46880578987E+02  0.12700000000E+01 0.  1.
         25    2    1    2    0    0  0.00000000000E+00  0.00000000000E+00  0.36451008648E+02  0.13020464028E+03  0.12499828927E+03 0.  0.
    9000005    1    3    3    0    0 -0.54028254521E+02 -0.13854503508E+02 -0.11128806780E+02  0.56884531240E+02  0.10000000000E+01 0.  0.
    9000005    1    3    3    0    0  0.54028254521E+02  0.13854503508E+02  0.47579815428E+02  0.73320109044E+02  0.10000000000E+01 0.  0.
<mgrwt>
<rscale>  0 0.12499829E+03</rscale>
<asrwt>0</asrwt>
<pdfrwt beam="1">  1        4 0.12819665E-01 0.12499829E+03</pdfrwt>
<pdfrwt beam="2">  1       -4 0.72118179E-02 0.12499829E+03</pdfrwt>
<totfact> 0.10340531E+04</totfact>
</mgrwt>
</event>
<event>
 5    1  0.3243498E-002  0.1249964E+03  0.7818608E-02  0.1235075E+00
          4   -1    0    0  501    0  0.00000000000E+00  0.00000000000E+00  0.33578630015E+02  0.33602638195E+02  0.12700000000E+01 0. -1.
         -4   -1    0    0    0  501 -0.00000000000E+00 -0.00000000000E+00 -0.11625559791E+03  0.11626253458E+03  0.12700000000E+01 0. -1.
         25    2    1    2    0    0  0.00000000000E+00  0.00000000000E+00 -0.82676967897E+02  0.14986517277E+03  0.12499635590E+03 0.  0.
    9000005    1    3    3    0    0  0.23814649623E+01 -0.10643348302E+02 -0.11511152512E+03  0.11563137747E+03  0.10000000000E+01 0.  0.
    9000005    1    3    3    0    0 -0.23814649623E+01  0.10643348302E+02  0.32434557227E+02  0.34233795304E+02  0.10000000000E+01 0.  0.
<mgrwt>
<rscale>  0 0.12499636E+03</rscale>
<asrwt>0</asrwt>
<pdfrwt beam="1">  1        4 0.51683235E-02 0.12499636E+03</pdfrwt>
<pdfrwt beam="2">  1       -4 0.17887857E-01 0.12499636E+03</pdfrwt>
<totfact> 0.99338727E+03</totfact>
</mgrwt>
</event>
<event>
 5    1  0.3243498E-002  0.1250303E+03  0.7818608E-02  0.1235022E+00
          4   -1    0    0  501    0  0.00000000000E+00  0.00000000000E+00  0.54601390992E+02  0.54616158765E+02  0.12700000000E+01 0. -1.
         -4   -1    0    0    0  501 -0.00000000000E+00 -0.00000000000E+00 -0.71545833554E+02  0.71557104462E+02  0.12700000000E+01 0. -1.
         25    2    1    2    0    0  0.00000000000E+00  0.00000000000E+00 -0.16944442562E+02  0.12617326323E+03  0.12503030920E+03 0.  0.
    9000005    1    3    3    0    0 -0.52602806677E+02 -0.64620079654E+01 -0.41916266103E+02  0.67578000720E+02  0.10000000000E+01 0.  0.
    9000005    1    3    3    0    0  0.52602806677E+02  0.64620079654E+01  0.24971823541E+02  0.58595262507E+02  0.10000000000E+01 0.  0.
<mgrwt>
<rscale>  0 0.12503031E+03</rscale>
<asrwt>0</asrwt>
<pdfrwt beam="1">  1        4 0.84022169E-02 0.12503031E+03</pdfrwt>
<pdfrwt beam="2">  1       -4 0.11009054E-01 0.12503031E+03</pdfrwt>
<totfact> 0.10420034E+04</totfact>
</mgrwt>
</event>
<event>
 5    1  0.3243498E-002  0.1250010E+03  0.7818608E-02  0.1235068E+00
         -4   -1    0    0    0  501 -0.00000000000E+00  0.00000000000E+00  0.12123758071E+03  0.12124423234E+03  0.12700000000E+01 0. -1.
          4   -1    0    0  501    0  0.00000000000E+00 -0.00000000000E+00 -0.32200278990E+02  0.32225314072E+02  0.12700000000E+01 0. -1.
         25    2    1    2    0    0  0.00000000000E+00  0.00000000000E+00  0.89037301719E+02  0.15346954641E+03  0.12500104231E+03 0.  0.
    9000005    1    3    3    0    0  0.57457208101E+02  0.21780060563E+02  0.58496277404E+02  0.84844070335E+02  0.10000000000E+01 0.  0.
    9000005    1    3    3    0    0 -0.57457208101E+02 -0.21780060563E+02  0.30541024314E+02  0.68625476079E+02  0.10000000000E+01 0.  0.
<mgrwt>
<rscale>  0 0.12500104E+03</rscale>
<asrwt>0</asrwt>
<pdfrwt beam="2">  1        4 0.49563266E-02 0.12500104E+03</pdfrwt>
<pdfrwt beam="1">  1       -4 0.18654373E-01 0.12500104E+03</pdfrwt>
<totfact> 0.98614225E+03</totfact>
</mgrwt>
</event>
<event>
 5    1  0.3243498E-002  0.1249957E+03  0.7818608E-02  0.1235076E+00
         -4   -1    0    0    0  501 -0.00000000000E+00  0.00000000000E+00  0.64666643306E+02  0.64679112985E+02  0.12700000000E+01 0. -1.
          4   -1    0    0  501    0  0.00000000000E+00 -0.00000000000E+00 -0.60376818095E+02  0.60390173566E+02  0.12700000000E+01 0. -1.
         25    2    1    2    0    0  0.00000000000E+00  0.00000000000E+00  0.42898252111E+01  0.12506928655E+03  0.12499569528E+03 0.  0.
    9000005    1    3    3    0    0 -0.26019202553E+02  0.41655539809E+02 -0.36514579757E+02  0.61208638550E+02  0.10000000000E+01 0.  0.
    9000005    1    3    3    0    0  0.26019202553E+02 -0.41655539809E+02  0.40804404968E+02  0.63860648001E+02  0.10000000000E+01 0.  0.
<mgrwt>
<rscale>  0 0.12499570E+03</rscale>
<asrwt>0</asrwt>
<pdfrwt beam="2">  1        4 0.92907279E-02 0.12499570E+03</pdfrwt>
<pdfrwt beam="1">  1       -4 0.99507008E-02 0.12499570E+03</pdfrwt>
<totfact> 0.10452375E+04</totfact>
</mgrwt>
</event>
<event>
 5    1  0.3243498E-002  0.1250058E+03  0.7818608E-02  0.1235060E+00
          4   -1    0    0  501    0  0.00000000000E+00  0.00000000000E+00  0.15495781873E+01  0.20035200420E+01  0.12700000000E+01 0. -1.
         -4   -1    0    0    0  501 -0.00000000000E+00 -0.00000000000E+00 -0.21985347357E+04  0.21985351025E+04  0.12700000000E+01 0. -1.
         25    2    1    2    0    0  0.00000000000E+00  0.00000000000E+00 -0.21969851575E+04  0.22005386225E+04  0.12500578796E+03 0.  0.
    9000005    1    3    3    0    0  0.39797667206E+02 -0.72319639331E+01 -0.19371020640E+04  0.19375245965E+04  0.10000000000E+01 0.  0.
    9000005    1    3    3    0    0 -0.39797667206E+02  0.72319639331E+01 -0.25988309351E+03  0.26301402607E+03  0.10000000000E+01 0.  0.
<mgrwt>
<rscale>  0 0.12500579E+03</rscale>
<asrwt>0</asrwt>
<pdfrwt beam="1">  1        4 0.27334522E-03 0.12500579E+03</pdfrwt>
<pdfrwt beam="2">  1       -4 0.33826888E+00 0.12500579E+03</pdfrwt>
<totfact> 0.74648616E+02</totfact>
</mgrwt>
</event>
<event>
 5    1  0.3243498E-002  0.1250013E+03  0.7818608E-02  0.1235067E+00
         -4   -1    0    0    0  501 -0.00000000000E+00  0.00000000000E+00  0.39365612251E+03  0.39365817112E+03  0.12700000000E+01 0. -1.
          4   -1    0    0  501    0  0.00000000000E+00 -0.00000000000E+00 -0.98804914697E+01  0.99617775363E+01  0.12700000000E+01 0. -1.
         25    2    1    2    0    0  0.00000000000E+00  0.00000000000E+00  0.38377563104E+03  0.40361994866E+03  0.12500131188E+03 0.  0.
    9000005    1    3    3    0    0 -0.63487122971E+01 -0.50716102943E+02  0.75785473321E+02  0.91415902402E+02  0.10000000000E+01 0.  0.
    9000005    1    3    3    0    0  0.63487122971E+01  0.50716102943E+02  0.30799015772E+03  0.31220404625E+03  0.10000000000E+01 0.  0.
<mgrwt>
<rscale>  0 0.12500131E+03</rscale>
<asrwt>0</asrwt>
<pdfrwt beam="2">  1        4 0.15264860E-02 0.12500131E+03</pdfrwt>
<pdfrwt beam="1">  1       -4 0.60568890E-01 0.12500131E+03</pdfrwt>
<totfact> 0.64200373E+03</totfact>
</mgrwt>
</event>
<event>
 5    1  0.3243498E-002  0.1250011E+03  0.7818608E-02  0.1235068E+00
         -4   -1    0    0    0  501 -0.00000000000E+00  0.00000000000E+00  0.24678208547E+03  0.24678535331E+03  0.12700000000E+01 0. -1.
          4   -1    0    0  501    0  0.00000000000E+00 -0.00000000000E+00 -0.15800169000E+02  0.15851127418E+02  0.12700000000E+01 0. -1.
         25    2    1    2    0    0  0.00000000000E+00  0.00000000000E+00  0.23098191647E+03  0.26263648072E+03  0.12500110109E+03 0.  0.
    9000005    1    3    3    0    0  0.59852360610E+02  0.17284016507E+02  0.10513871569E+03  0.12221371378E+03  0.10000000000E+01 0.  0.
    9000005    1    3    3    0    0 -0.59852360610E+02 -0.17284016507E+02  0.12584320077E+03  0.14042276695E+03  0.10000000000E+01 0.  0.
<mgrwt>
<rscale>  0 0.12500110E+03</rscale>
<asrwt>0</asrwt>
<pdfrwt beam="2">  1        4 0.24349665E-02 0.12500110E+03</pdfrwt>
<pdfrwt beam="1">  1       -4 0.37970645E-01 0.12500110E+03</pdfrwt>
<totfact> 0.80535512E+03</totfact>
</mgrwt>
</event>
<event>
 5    1  0.3243498E-002  0.1249996E+03  0.7818608E-02  0.1235070E+00
          4   -1    0    0  501    0  0.00000000000E+00  0.00000000000E+00  0.19232000953E+03  0.19232420276E+03  0.12700000000E+01 0. -1.
         -4   -1    0    0    0  501 -0.00000000000E+00 -0.00000000000E+00 -0.20286812949E+02  0.20326526502E+02  0.12700000000E+01 0. -1.
         25    2    1    2    0    0  0.00000000000E+00  0.00000000000E+00  0.17203319658E+03  0.21265072926E+03  0.12499964771E+03 0.  0.
    9000005    1    3    3    0    0 -0.39053431864E+02 -0.25611519037E+02  0.15378294488E+02  0.49179389882E+02  0.10000000000E+01 0.  0.
    9000005    1    3    3    0    0  0.39053431864E+02  0.25611519037E+02  0.15665490209E+03  0.16347133938E+03  0.10000000000E+01 0.  0.
<mgrwt>
<rscale>  0 0.12499965E+03</rscale>
<asrwt>0</asrwt>
<pdfrwt beam="1">  1        4 0.29591072E-01 0.12499965E+03</pdfrwt>
<pdfrwt beam="2">  1       -4 0.31244255E-02 0.12499965E+03</pdfrwt>
<totfact> 0.88045496E+03</totfact>
</mgrwt>
</event>
<event>
 5    1  0.3243498E-002  0.1249972E+03  0.7818608E-02  0.1235074E+00
         -4   -1    0    0    0  501 -0.00000000000E+00  0.00000000000E+00  0.25924795994E+02  0.25955884637E+02  0.12700000000E+01 0.  1.
          4   -1    0    0  501    0  0.00000000000E+00 -0.00000000000E+00 -0.15054545387E+03  0.15055081062E+03  0.12700000000E+01 0.  1.
         25    2    1    2    0    0  0.00000000000E+00  0.00000000000E+00 -0.12462065787E+03  0.17650669526E+03  0.12499722038E+03 0.  0.
    9000005    1    3    3    0    0  0.13235756962E+02  0.56073924527E+02 -0.28138864767E+02  0.64126952092E+02  0.10000000000E+01 0.  0.
    9000005    1    3    3    0    0 -0.13235756962E+02 -0.56073924527E+02 -0.96481793105E+02  0.11237974317E+03  0.10000000000E+01 0.  0.
<mgrwt>
<rscale>  0 0.12499722E+03</rscale>
<asrwt>0</asrwt>
<pdfrwt beam="2">  1        4 0.23163642E-01 0.12499722E+03</pdfrwt>
<pdfrwt beam="1">  1       -4 0.39912337E-02 0.12499722E+03</pdfrwt>
<totfact> 0.94255492E+03</totfact>
</mgrwt>
</event>
<event>
 5    1  0.3243498E-002  0.1249974E+03  0.7818608E-02  0.1235073E+00
          4   -1    0    0  501    0  0.00000000000E+00  0.00000000000E+00  0.25430677304E+03  0.25430994420E+03  0.12700000000E+01 0.  1.
         -4   -1    0    0    0  501 -0.00000000000E+00 -0.00000000000E+00 -0.15330230919E+02  0.15382746179E+02  0.12700000000E+01 0.  1.
         25    2    1    2    0    0  0.00000000000E+00  0.00000000000E+00  0.23897654213E+03  0.26969269037E+03  0.12499743819E+03 0.  0.
    9000005    1    3    3    0    0 -0.43674868080E+02  0.44305315800E+02  0.10679059415E+03  0.12359484661E+03  0.10000000000E+01 0.  0.
    9000005    1    3    3    0    0  0.43674868080E+02 -0.44305315800E+02  0.13218594798E+03  0.14609784376E+03  0.10000000000E+01 0.  0.
<mgrwt>
<rscale>  0 0.12499744E+03</rscale>
<asrwt>0</asrwt>
<pdfrwt beam="1">  1        4 0.39128400E-01 0.12499744E+03</pdfrwt>
<pdfrwt beam="2">  1       -4 0.23627808E-02 0.12499744E+03</pdfrwt>
<totfact> 0.79569317E+03</totfact>
</mgrwt>
</event>
<event>
 5    1  0.3243498E-002  0.1249921E+03  0.7818608E-02  0.1235082E+00
          4   -1    0    0  501    0  0.00000000000E+00  0.00000000000E+00  0.13655292035E+02  0.13714222565E+02  0.12700000000E+01 0. -1.
         -4   -1    0    0    0  501 -0.00000000000E+00 -0.00000000000E+00 -0.28534899034E+03  0.28535181651E+03  0.12700000000E+01 0. -1.
         25    2    1    2    0    0  0.00000000000E+00  0.00000000000E+00 -0.27169369830E+03  0.29906603908E+03  0.12499211988E+03 0.  0.
    9000005    1    3    3    0    0  0.23627707489E+02  0.12046119053E+02 -0.27122640228E+03  0.27252181351E+03  0.10000000000E+01 0.  0.
    9000005    1    3    3    0    0 -0.23627707489E+02 -0.12046119053E+02 -0.46729602458E+00  0.26544225568E+02  0.10000000000E+01 0.  0.
<mgrwt>
<rscale>  0 0.12499212E+03</rscale>
<asrwt>0</asrwt>
<pdfrwt beam="1">  1        4 0.21055649E-02 0.12499212E+03</pdfrwt>
<pdfrwt beam="2">  1       -4 0.43904591E-01 0.12499212E+03</pdfrwt>
<totfact> 0.75729392E+03</totfact>
</mgrwt>
</event>
<event>
 5    1  0.3243498E-002  0.1250022E+03  0.7818608E-02  0.1235066E+00
         -4   -1    0    0    0  501 -0.00000000000E+00  0.00000000000E+00  0.30286579446E+02  0.30313195057E+02  0.12700000000E+01 0. -1.
          4   -1    0    0  501    0  0.00000000000E+00 -0.00000000000E+00 -0.12889449900E+03  0.12890075551E+03  0.12700000000E+01 0. -1.
         25    2    1    2    0    0  0.00000000000E+00  0.00000000000E+00 -0.98607919551E+02  0.15921395057E+03  0.12500224101E+03 0.  0.
    9000005    1    3    3    0    0  0.26634623978E+02  0.47631046171E+02 -0.10518718542E+02  0.55585638375E+02  0.10000000000E+01 0.  0.
    9000005    1    3    3    0    0 -0.26634623978E+02 -0.47631046171E+02 -0.88089201010E+02  0.10362831219E+03  0.10000000000E+01 0.  0.
<mgrwt>
<rscale>  0 0.12500224E+03</rscale>
<asrwt>0</asrwt>
<pdfrwt beam="2">  1        4 0.19832451E-01 0.12500224E+03</pdfrwt>
<pdfrwt beam="1">  1       -4 0.46620025E-02 0.12500224E+03</pdfrwt>
<totfact> 0.97489632E+03</totfact>
</mgrwt>
</event>
<event>
 5    1  0.3243498E-002  0.1249988E+03  0.7818608E-02  0.1235071E+00
         -4   -1    0    0    0  501 -0.00000000000E+00  0.00000000000E+00  0.14951973295E+03  0.14952512646E+03  0.12700000000E+01 0.  1.
          4   -1    0    0  501    0  0.00000000000E+00 -0.00000000000E+00 -0.26103495635E+02  0.26134371704E+02  0.12700000000E+01 0.  1.
         25    2    1    2    0    0  0.00000000000E+00  0.00000000000E+00  0.12341623732E+03  0.17565949816E+03  0.12499876664E+03 0.  0.
    9000005    1    3    3    0    0  0.26929549764E+02 -0.47628142888E+02  0.19280179846E+02  0.58020392797E+02  0.10000000000E+01 0.  0.
    9000005    1    3    3    0    0 -0.26929549764E+02  0.47628142888E+02  0.10413605747E+03  0.11763910537E+03  0.10000000000E+01 0.  0.
<mgrwt>
<rscale>  0 0.12499877E+03</rscale>
<asrwt>0</asrwt>
<pdfrwt beam="2">  1        4 0.40187123E-02 0.12499877E+03</pdfrwt>
<pdfrwt beam="1">  1       -4 0.23005826E-01 0.12499877E+03</pdfrwt>
<totfact> 0.94406805E+03</totfact>
</mgrwt>
</event>
<event>
 5    1  0.3243498E-002  0.1249988E+03  0.7818608E-02  0.1235071E+00
          4   -1    0    0  501    0  0.00000000000E+00  0.00000000000E+00  0.13145722297E+02  0.13206926770E+02  0.12700000000E+01 0.  1.
         -4   -1    0    0    0  501 -0.00000000000E+00 -0.00000000000E+00 -0.29639163031E+03  0.29639435119E+03  0.12700000000E+01 0.  1.
         25    2    1    2    0    0  0.00000000000E+00  0.00000000000E+00 -0.28324590801E+03  0.30960127796E+03  0.12499882763E+03 0.  0.
    9000005    1    3    3    0    0  0.42634017277E+02  0.10165978668E+02 -0.25195108564E+03  0.25573688844E+03  0.10000000000E+01 0.  0.
    9000005    1    3    3    0    0 -0.42634017277E+02 -0.10165978668E+02 -0.31294822371E+02  0.53864389523E+02  0.10000000000E+01 0.  0.
<mgrwt>
<rscale>  0 0.12499883E+03</rscale>
<asrwt>0</asrwt>
<pdfrwt beam="1">  1        4 0.20273364E-02 0.12499883E+03</pdfrwt>
<pdfrwt beam="2">  1       -4 0.45603625E-01 0.12499883E+03</pdfrwt>
<totfact> 0.74411979E+03</totfact>
</mgrwt>
</event>
<event>
 5    1  0.3243498E-002  0.1249896E+03  0.7818608E-02  0.1235086E+00
         -4   -1    0    0    0  501 -0.00000000000E+00  0.00000000000E+00  0.19548830528E+03  0.19549243055E+03  0.12700000000E+01 0. -1.
          4   -1    0    0  501    0  0.00000000000E+00 -0.00000000000E+00 -0.19954153964E+02  0.19994528262E+02  0.12700000000E+01 0. -1.
         25    2    1    2    0    0  0.00000000000E+00  0.00000000000E+00  0.17553415132E+03  0.21548695881E+03  0.12498956412E+03 0.  0.
    9000005    1    3    3    0    0  0.28276786911E+02 -0.50210666399E+02  0.46106983430E+02  0.73807463168E+02  0.10000000000E+01 0.  0.
    9000005    1    3    3    0    0 -0.28276786911E+02  0.50210666399E+02  0.12942716789E+03  0.14167949564E+03  0.10000000000E+01 0.  0.
<mgrwt>
<rscale>  0 0.12498956E+03</rscale>
<asrwt>0</asrwt>
<pdfrwt beam="2">  1        4 0.30732929E-02 0.12498956E+03</pdfrwt>
<pdfrwt beam="1">  1       -4 0.30078547E-01 0.12498956E+03</pdfrwt>
<totfact> 0.87607983E+03</totfact>
</mgrwt>
</event>
<event>
 5    1  0.3243498E-002  0.1250013E+03  0.7818608E-02  0.1235067E+00
          4   -1    0    0  501    0  0.00000000000E+00  0.00000000000E+00  0.39682402921E+02  0.39702720330E+02  0.12700000000E+01 0. -1.
         -4   -1    0    0    0  501 -0.00000000000E+00 -0.00000000000E+00 -0.98390351997E+02  0.98398548089E+02  0.12700000000E+01 0. -1.
         25    2    1    2    0    0  0.00000000000E+00  0.00000000000E+00 -0.58707949076E+02  0.13810126842E+03  0.12500134821E+03 0.  0.
    9000005    1    3    3    0    0  0.19929095774E+02 -0.56098162063E+02 -0.83581098345E+01  0.60125124908E+02  0.10000000000E+01 0.  0.
    9000005    1    3    3    0    0 -0.19929095774E+02  0.56098162063E+02 -0.50349839241E+02  0.77976143511E+02  0.10000000000E+01 0.  0.
<mgrwt>
<rscale>  0 0.12500135E+03</rscale>
<asrwt>0</asrwt>
<pdfrwt beam="1">  1        4 0.61071785E-02 0.12500135E+03</pdfrwt>
<pdfrwt beam="2">  1       -4 0.15139170E-01 0.12500135E+03</pdfrwt>
<totfact> 0.10172781E+04</totfact>
</mgrwt>
</event>
<event>
 5    1  0.3243498E-002  0.1250025E+03  0.7818608E-02  0.1235065E+00
         -4   -1    0    0    0  501 -0.00000000000E+00  0.00000000000E+00  0.22184227927E+02  0.22220550595E+02  0.12700000000E+01 0.  1.
          4   -1    0    0  501    0  0.00000000000E+00 -0.00000000000E+00 -0.17590656948E+03  0.17591115395E+03  0.12700000000E+01 0.  1.
         25    2    1    2    0    0  0.00000000000E+00  0.00000000000E+00 -0.15372234155E+03  0.19813170455E+03  0.12500245620E+03 0.  0.
    9000005    1    3    3    0    0  0.56354892981E+02 -0.26495145856E+02 -0.85178657960E+02  0.10551905273E+03  0.10000000000E+01 0.  0.
    9000005    1    3    3    0    0 -0.56354892981E+02  0.26495145856E+02 -0.68543683589E+02  0.92612651818E+02  0.10000000000E+01 0.  0.
<mgrwt>
<rscale>  0 0.12500246E+03</rscale>
<asrwt>0</asrwt>
<pdfrwt beam="2">  1        4 0.27065695E-01 0.12500246E+03</pdfrwt>
<pdfrwt beam="1">  1       -4 0.34161050E-02 0.12500246E+03</pdfrwt>
<totfact> 0.90446387E+03</totfact>
</mgrwt>
</event>
<event>
 5    1  0.3243498E-002  0.1250026E+03  0.7818608E-02  0.1235065E+00
         -4   -1    0    0    0  501 -0.00000000000E+00  0.00000000000E+00  0.41882896935E+01  0.43766049121E+01  0.12700000000E+01 0. -1.
          4   -1    0    0  501    0  0.00000000000E+00 -0.00000000000E+00 -0.91200277406E+03  0.91200365832E+03  0.12700000000E+01 0. -1.
         25    2    1    2    0    0  0.00000000000E+00  0.00000000000E+00 -0.90781448437E+03  0.91638026323E+03  0.12500259525E+03 0.  0.
    9000005    1    3    3    0    0  0.49290031144E+02  0.53908012529E+01 -0.73275528171E+03  0.73443166515E+03  0.10000000000E+01 0.  0.
    9000005    1    3    3    0    0 -0.49290031144E+02 -0.53908012529E+01 -0.17505920266E+03  0.18194859808E+03  0.10000000000E+01 0.  0.
<mgrwt>
<rscale>  0 0.12500260E+03</rscale>
<asrwt>0</asrwt>
<pdfrwt beam="2">  1        4 0.14032252E+00 0.12500260E+03</pdfrwt>
<pdfrwt beam="1">  1       -4 0.65890679E-03 0.12500260E+03</pdfrwt>
<totfact> 0.33538559E+03</totfact>
</mgrwt>
</event>
<event>
 5    1  0.3243498E-002  0.1249980E+03  0.7818608E-02  0.1235072E+00
         -4   -1    0    0    0  501 -0.00000000000E+00  0.00000000000E+00  0.33127043754E+02  0.33151378974E+02  0.12700000000E+01 0.  1.
          4   -1    0    0  501    0  0.00000000000E+00 -0.00000000000E+00 -0.11784244904E+03  0.11784929230E+03  0.12700000000E+01 0.  1.
         25    2    1    2    0    0  0.00000000000E+00  0.00000000000E+00 -0.84715405283E+02  0.15100067127E+03  0.12499801131E+03 0.  0.
    9000005    1    3    3    0    0 -0.47874704262E+02 -0.15316976307E+02 -0.87209894433E+02  0.10066361189E+03  0.10000000000E+01 0.  0.
    9000005    1    3    3    0    0  0.47874704262E+02  0.15316976307E+02  0.24944891493E+01  0.50337059385E+02  0.10000000000E+01 0.  0.
<mgrwt>
<rscale>  0 0.12499801E+03</rscale>
<asrwt>0</asrwt>
<pdfrwt beam="2">  1        4 0.18132006E-01 0.12499801E+03</pdfrwt>
<pdfrwt beam="1">  1       -4 0.50988667E-02 0.12499801E+03</pdfrwt>
<totfact> 0.99109038E+03</totfact>
</mgrwt>
</event>
<event>
 5    1  0.3243498E-002  0.1250021E+03  0.7818608E-02  0.1235066E+00
         -4   -1    0    0    0  501 -0.00000000000E+00  0.00000000000E+00  0.13352519661E+04  0.13352525700E+04  0.12700000000E+01 0. -1.
          4   -1    0    0  501    0  0.00000000000E+00 -0.00000000000E+00 -0.27871157885E+01  0.30628278467E+01  0.12700000000E+01 0. -1.
         25    2    1    2    0    0  0.00000000000E+00  0.00000000000E+00  0.13324648503E+04  0.13383153979E+04  0.12500210790E+03 0.  0.
    9000005    1    3    3    0    0 -0.82496838174E+01 -0.20282410918E+02  0.12928917965E+04  0.12930775811E+04  0.10000000000E+01 0.  0.
    9000005    1    3    3    0    0  0.82496838174E+01  0.20282410918E+02  0.39573053826E+02  0.45237816756E+02  0.10000000000E+01 0.  0.
<mgrwt>
<rscale>  0 0.12500211E+03</rscale>
<asrwt>0</asrwt>
<pdfrwt beam="2">  1        4 0.45004173E-03 0.12500211E+03</pdfrwt>
<pdfrwt beam="1">  1       -4 0.20544481E+00 0.12500211E+03</pdfrwt>
<totfact> 0.21340850E+03</totfact>
</mgrwt>
</event>
<event>
 5    1  0.3243498E-002  0.1249970E+03  0.7818608E-02  0.1235074E+00
          4   -1    0    0  501    0  0.00000000000E+00  0.00000000000E+00  0.61308530876E+02  0.61321683426E+02  0.12700000000E+01 0.  1.
         -4   -1    0    0    0  501 -0.00000000000E+00 -0.00000000000E+00 -0.63685236456E+02  0.63697898258E+02  0.12700000000E+01 0.  1.
         25    2    1    2    0    0  0.00000000000E+00  0.00000000000E+00 -0.23767055800E+01  0.12501958168E+03  0.12499698826E+03 0.  0.
    9000005    1    3    3    0    0  0.69582538595E+01 -0.16605104709E+02  0.58663210260E+02  0.61371972734E+02  0.10000000000E+01 0.  0.
    9000005    1    3    3    0    0 -0.69582538595E+01  0.16605104709E+02 -0.61039915840E+02  0.63647608950E+02  0.10000000000E+01 0.  0.
<mgrwt>
<rscale>  0 0.12499699E+03</rscale>
<asrwt>0</asrwt>
<pdfrwt beam="1">  1        4 0.94340674E-02 0.12499699E+03</pdfrwt>
<pdfrwt beam="2">  1       -4 0.97997144E-02 0.12499699E+03</pdfrwt>
<totfact> 0.10453149E+04</totfact>
</mgrwt>
</event>
<event>
 5    1  0.3243498E-002  0.1249957E+03  0.7818608E-02  0.1235076E+00
         -4   -1    0    0    0  501 -0.00000000000E+00  0.00000000000E+00  0.23219287879E+01  0.26465549864E+01  0.12700000000E+01 0.  1.
          4   -1    0    0  501    0  0.00000000000E+00 -0.00000000000E+00 -0.15719770364E+04  0.15719775495E+04  0.12700000000E+01 0.  1.
         25    2    1    2    0    0  0.00000000000E+00  0.00000000000E+00 -0.15696551077E+04  0.15746241044E+04  0.12499565318E+03 0.  0.
    9000005    1    3    3    0    0 -0.45531677205E+02 -0.13877397369E+02 -0.12948699091E+04  0.12957448812E+04  0.10000000000E+01 0.  0.
    9000005    1    3    3    0    0  0.45531677205E+02  0.13877397369E+02 -0.27478519859E+03  0.27887922324E+03  0.10000000000E+01 0.  0.
<mgrwt>
<rscale>  0 0.12499565E+03</rscale>
<asrwt>0</asrwt>
<pdfrwt beam="2">  1        4 0.24186684E+00 0.12499565E+03</pdfrwt>
<pdfrwt beam="1">  1       -4 0.38223178E-03 0.12499565E+03</pdfrwt>
<totfact> 0.16510933E+03</totfact>
</mgrwt>
</event>
<event>
 5    1  0.3243498E-002  0.1250036E+03  0.7818608E-02  0.1235064E+00
          4   -1    0    0  501    0  0.00000000000E+00  0.00000000000E+00  0.10607024429E+03  0.10607784700E+03  0.12700000000E+01 0.  1.
         -4   -1    0    0    0  501 -0.00000000000E+00 -0.00000000000E+00 -0.36809256775E+02  0.36831159150E+02  0.12700000000E+01 0.  1.
         25    2    1    2    0    0  0.00000000000E+00  0.00000000000E+00  0.69260987520E+02  0.14290900615E+03  0.12500359854E+03 0.  0.
    9000005    1    3    3    0    0 -0.57373968050E+02  0.77232886897E+00  0.62938217010E+02  0.85173868423E+02  0.10000000000E+01 0.  0.
    9000005    1    3    3    0    0  0.57373968050E+02 -0.77232886897E+00  0.63227705103E+01  0.57735137730E+02  0.10000000000E+01 0.  0.
<mgrwt>
<rscale>  0 0.12500360E+03</rscale>
<asrwt>0</asrwt>
<pdfrwt beam="1">  1        4 0.16320769E-01 0.12500360E+03</pdfrwt>
<pdfrwt beam="2">  1       -4 0.56652322E-02 0.12500360E+03</pdfrwt>
<totfact> 0.10072831E+04</totfact>
</mgrwt>
</event>
<event>
 5    1  0.3243498E-002  0.1250116E+03  0.7818608E-02  0.1235051E+00
          4   -1    0    0  501    0  0.00000000000E+00  0.00000000000E+00  0.59340767693E+02  0.59354356288E+02  0.12700000000E+01 0.  1.
         -4   -1    0    0    0  501 -0.00000000000E+00 -0.00000000000E+00 -0.65812392098E+02  0.65824644728E+02  0.12700000000E+01 0.  1.
         25    2    1    2    0    0  0.00000000000E+00  0.00000000000E+00 -0.64716244051E+01  0.12517900102E+03  0.12501160095E+03 0.  0.
    9000005    1    3    3    0    0  0.58041445109E+02  0.14889572977E+02  0.14549344309E+02  0.61670026379E+02  0.10000000000E+01 0.  0.
    9000005    1    3    3    0    0 -0.58041445109E+02 -0.14889572977E+02 -0.21020968714E+02  0.63508974637E+02  0.10000000000E+01 0.  0.
<mgrwt>
<rscale>  0 0.12501160E+03</rscale>
<asrwt>0</asrwt>
<pdfrwt beam="1">  1        4 0.91313366E-02 0.12501160E+03</pdfrwt>
<pdfrwt beam="2">  1       -4 0.10126971E-01 0.12501160E+03</pdfrwt>
<totfact> 0.10446237E+04</totfact>
</mgrwt>
</event>
<event>
 4    1  0.3243498E-002  0.1249364E+03  0.7818608E-02  0.1235169E+00
         -4   -1    0    0    0  501 -0.00000000000E+00  0.00000000000E+00  0.67688424411E+02  0.67700337512E+02  0.12700000000E+01 0. -1.
          4   -1    0    0  501    0  0.00000000000E+00 -0.00000000000E+00 -0.57626564650E+02  0.57640557365E+02  0.12700000000E+01 0. -1.
    9000005    1    1    2    0    0  0.28284514354E+02  0.61451648595E+01  0.60559011520E+02  0.67128017100E+02  0.10000000000E+01 0.  0.
    9000005    1    1    2    0    0 -0.28284514354E+02 -0.61451648595E+01 -0.50497151759E+02  0.58212877778E+02  0.10000000000E+01 0.  0.
<mgrwt>
<rscale>  0 0.12493638E+03</rscale>
<asrwt>0</asrwt>
<pdfrwt beam="2">  1        4 0.88676182E-02 0.12493638E+03</pdfrwt>
<pdfrwt beam="1">  1       -4 0.10415596E-01 0.12493638E+03</pdfrwt>
<totfact> 0.10460477E+04</totfact>
</mgrwt>
</event>
<event>
 5    1  0.3243498E-002  0.1249660E+03  0.7818608E-02  0.1235122E+00
         -4   -1    0    0    0  501 -0.00000000000E+00  0.00000000000E+00  0.32599211046E+02  0.32623939995E+02  0.12700000000E+01 0.  1.
          4   -1    0    0  501    0  0.00000000000E+00 -0.00000000000E+00 -0.11968787183E+03  0.11969460958E+03  0.12700000000E+01 0.  1.
         25    2    1    2    0    0  0.00000000000E+00  0.00000000000E+00 -0.87088660779E+02  0.15231854957E+03  0.12496601821E+03 0.  0.
    9000005    1    3    3    0    0  0.39337589345E+02 -0.41891861310E+02 -0.13669280595E+02  0.59078111103E+02  0.10000000000E+01 0.  0.
    9000005    1    3    3    0    0 -0.39337589345E+02  0.41891861310E+02 -0.73419380184E+02  0.93240438470E+02  0.10000000000E+01 0.  0.
<mgrwt>
<rscale>  0 0.12496602E+03</rscale>
<asrwt>0</asrwt>
<pdfrwt beam="2">  1        4 0.18415939E-01 0.12496602E+03</pdfrwt>
<pdfrwt beam="1">  1       -4 0.50176838E-02 0.12496602E+03</pdfrwt>
<totfact> 0.98919134E+03</totfact>
</mgrwt>
</event>
<event>
 5    1  0.3243498E-002  0.1249977E+03  0.7818608E-02  0.1235073E+00
         -4   -1    0    0    0  501 -0.00000000000E+00  0.00000000000E+00  0.89227258750E+02  0.89236296449E+02  0.12700000000E+01 0.  1.
          4   -1    0    0  501    0  0.00000000000E+00 -0.00000000000E+00 -0.43756555100E+02  0.43774981602E+02  0.12700000000E+01 0.  1.
         25    2    1    2    0    0  0.00000000000E+00  0.00000000000E+00  0.45470703649E+02  0.13301127805E+03  0.12499766077E+03 0.  0.
    9000005    1    3    3    0    0  0.36715744681E+02  0.21059283250E+02 -0.26185536191E+02  0.49781739866E+02  0.10000000000E+01 0.  0.
    9000005    1    3    3    0    0 -0.36715744681E+02 -0.21059283250E+02  0.71656239840E+02  0.83229538185E+02  0.10000000000E+01 0.  0.
<mgrwt>
<rscale>  0 0.12499766E+03</rscale>
<asrwt>0</asrwt>
<pdfrwt beam="2">  1        4 0.67338904E-02 0.12499766E+03</pdfrwt>
<pdfrwt beam="1">  1       -4 0.13729383E-01 0.12499766E+03</pdfrwt>
<totfact> 0.10280703E+04</totfact>
</mgrwt>
</event>
<event>
 5    1  0.3243498E-002  0.1250017E+03  0.7818608E-02  0.1235067E+00
          4   -1    0    0  501    0  0.00000000000E+00  0.00000000000E+00  0.29362505211E+03  0.29362779863E+03  0.12700000000E+01 0.  1.
         -4   -1    0    0    0  501 -0.00000000000E+00 -0.00000000000E+00 -0.13270763558E+02  0.13331393979E+02  0.12700000000E+01 0.  1.
         25    2    1    2    0    0  0.00000000000E+00  0.00000000000E+00  0.28035428856E+03  0.30695919261E+03  0.12500167525E+03 0.  0.
    9000005    1    3    3    0    0 -0.31060149925E+01 -0.61418472260E+02  0.16746445458E+03  0.17840184868E+03  0.10000000000E+01 0.  0.
    9000005    1    3    3    0    0  0.31060149925E+01  0.61418472260E+02  0.11288983398E+03  0.12855734393E+03  0.10000000000E+01 0.  0.
<mgrwt>
<rscale>  0 0.12500168E+03</rscale>
<asrwt>0</asrwt>
<pdfrwt beam="1">  1        4 0.45177958E-01 0.12500168E+03</pdfrwt>
<pdfrwt beam="2">  1       -4 0.20465312E-02 0.12500168E+03</pdfrwt>
<totfact> 0.74731323E+03</totfact>
</mgrwt>
</event>
<event>
 5    1  0.3243498E-002  0.1250016E+03  0.7818608E-02  0.1235067E+00
         -4   -1    0    0    0  501 -0.00000000000E+00  0.00000000000E+00  0.21738924778E+03  0.21739295746E+03  0.12700000000E+01 0.  1.
          4   -1    0    0  501    0  0.00000000000E+00 -0.00000000000E+00 -0.17943080501E+02  0.17987969254E+02  0.12700000000E+01 0.  1.
         25    2    1    2    0    0  0.00000000000E+00  0.00000000000E+00  0.19944616728E+03  0.23538092671E+03  0.12500162805E+03 0.  0.
    9000005    1    3    3    0    0 -0.36662792336E+02  0.45210916821E+02  0.14254537628E+03  0.15397523060E+03  0.10000000000E+01 0.  0.
    9000005    1    3    3    0    0  0.36662792336E+02 -0.45210916821E+02  0.56900791006E+02  0.81405696108E+02  0.10000000000E+01 0.  0.
<mgrwt>
<rscale>  0 0.12500163E+03</rscale>
<asrwt>0</asrwt>
<pdfrwt beam="2">  1        4 0.27642121E-02 0.12500163E+03</pdfrwt>
<pdfrwt beam="1">  1       -4 0.33448240E-01 0.12500163E+03</pdfrwt>
<totfact> 0.84487071E+03</totfact>
</mgrwt>
</event>
<event>
 5    1  0.3243498E-002  0.1250012E+03  0.7818608E-02  0.1235067E+00
          4   -1    0    0  501    0  0.00000000000E+00  0.00000000000E+00  0.13729669021E+02  0.13788281670E+02  0.12700000000E+01 0.  1.
         -4   -1    0    0    0  501 -0.00000000000E+00 -0.00000000000E+00 -0.28385087432E+03  0.28385371541E+03  0.12700000000E+01 0.  1.
         25    2    1    2    0    0  0.00000000000E+00  0.00000000000E+00 -0.27012120529E+03  0.29764199708E+03  0.12500117149E+03 0.  0.
    9000005    1    3    3    0    0  0.57817735389E+02  0.11113085489E+02 -0.18494661161E+03  0.19409441090E+03  0.10000000000E+01 0.  0.
    9000005    1    3    3    0    0 -0.57817735389E+02 -0.11113085489E+02 -0.85174593683E+02  0.10354758618E+03  0.10000000000E+01 0.  0.
<mgrwt>
<rscale>  0 0.12500117E+03</rscale>
<asrwt>0</asrwt>
<pdfrwt beam="1">  1        4 0.21169842E-02 0.12500117E+03</pdfrwt>
<pdfrwt beam="2">  1       -4 0.43674088E-01 0.12500117E+03</pdfrwt>
<totfact> 0.75893605E+03</totfact>
</mgrwt>
</event>
<event>
 5    1  0.3243498E-002  0.1250001E+03  0.7818608E-02  0.1235069E+00
         -4   -1    0    0    0  501 -0.00000000000E+00  0.00000000000E+00  0.71684245276E+03  0.71684357776E+03  0.12700000000E+01 0. -1.
          4   -1    0    0  501    0  0.00000000000E+00 -0.00000000000E+00 -0.53741081936E+01  0.55221317330E+01  0.12700000000E+01 0. -1.
         25    2    1    2    0    0  0.00000000000E+00  0.00000000000E+00  0.71146834457E+03  0.72236570950E+03  0.12500005174E+03 0.  0.
    9000005    1    3    3    0    0 -0.23515614904E+02 -0.33877253948E+02  0.62707297542E+03  0.62842833242E+03  0.10000000000E+01 0.  0.
    9000005    1    3    3    0    0  0.23515614904E+02  0.33877253948E+02  0.84395369144E+02  0.93937377078E+02  0.10000000000E+01 0.  0.
<mgrwt>
<rscale>  0 0.12500005E+03</rscale>
<asrwt>0</asrwt>
<pdfrwt beam="2">  1        4 0.83825919E-03 0.12500005E+03</pdfrwt>
<pdfrwt beam="1">  1       -4 0.11029488E+00 0.12500005E+03</pdfrwt>
<totfact> 0.41931974E+03</totfact>
</mgrwt>
</event>
<event>
 5    1  0.3243498E-002  0.1250028E+03  0.7818608E-02  0.1235065E+00
         -4   -1    0    0    0  501 -0.00000000000E+00  0.00000000000E+00  0.29831315990E+01  0.32422174722E+01  0.12700000000E+01 0. -1.
          4   -1    0    0  501    0  0.00000000000E+00 -0.00000000000E+00 -0.12547465714E+04  0.12547472141E+04  0.12700000000E+01 0. -1.
         25    2    1    2    0    0  0.00000000000E+00  0.00000000000E+00 -0.12517634398E+04  0.12579894316E+04  0.12500280306E+03 0.  0.
    9000005    1    3    3    0    0  0.30254097698E+02  0.36285619699E+01 -0.11749709018E+04  0.11753663671E+04  0.10000000000E+01 0.  0.
    9000005    1    3    3    0    0 -0.30254097698E+02 -0.36285619699E+01 -0.76792538013E+02  0.82623064479E+02  0.10000000000E+01 0.  0.
<mgrwt>
<rscale>  0 0.12500280E+03</rscale>
<asrwt>0</asrwt>
<pdfrwt beam="2">  1        4 0.19305751E+00 0.12500280E+03</pdfrwt>
<pdfrwt beam="1">  1       -4 0.47892345E-03 0.12500280E+03</pdfrwt>
<totfact> 0.23240899E+03</totfact>
</mgrwt>
</event>
<event>
 5    1  0.3243498E-002  0.1249999E+03  0.7818608E-02  0.1235069E+00
         -4   -1    0    0    0  501 -0.00000000000E+00  0.00000000000E+00  0.22183028876E+02  0.22219353503E+02  0.12700000000E+01 0. -1.
          4   -1    0    0  501    0  0.00000000000E+00 -0.00000000000E+00 -0.17590882510E+03  0.17591340952E+03  0.12700000000E+01 0. -1.
         25    2    1    2    0    0  0.00000000000E+00  0.00000000000E+00 -0.15372579622E+03  0.19813276302E+03  0.12499988543E+03 0.  0.
    9000005    1    3    3    0    0  0.15265380838E+02 -0.35195868434E+02  0.13284949240E+01  0.38399816480E+02  0.10000000000E+01 0.  0.
    9000005    1    3    3    0    0 -0.15265380838E+02  0.35195868434E+02 -0.15505429115E+03  0.15973294654E+03  0.10000000000E+01 0.  0.
<mgrwt>
<rscale>  0 0.12499989E+03</rscale>
<asrwt>0</asrwt>
<pdfrwt beam="2">  1        4 0.27066042E-01 0.12499989E+03</pdfrwt>
<pdfrwt beam="1">  1       -4 0.34159206E-02 0.12499989E+03</pdfrwt>
<totfact> 0.90451412E+03</totfact>
</mgrwt>
</event>
<event>
 5    1  0.3243498E-002  0.1249980E+03  0.7818608E-02  0.1235072E+00
          4   -1    0    0  501    0  0.00000000000E+00  0.00000000000E+00  0.33346821962E+03  0.33347063798E+03  0.12700000000E+01 0.  1.
         -4   -1    0    0    0  501 -0.00000000000E+00 -0.00000000000E+00 -0.11676747450E+02  0.11745609010E+02  0.12700000000E+01 0.  1.
         25    2    1    2    0    0  0.00000000000E+00  0.00000000000E+00  0.32179147217E+03  0.34521624699E+03  0.12499802249E+03 0.  0.
    9000005    1    3    3    0    0 -0.56324443561E+02 -0.11813938595E+02  0.22815580205E+03  0.23530423306E+03  0.10000000000E+01 0.  0.
    9000005    1    3    3    0    0  0.56324443561E+02  0.11813938595E+02  0.93635670117E+02  0.10991201393E+03  0.10000000000E+01 0.  0.
<mgrwt>
<rscale>  0 0.12499802E+03</rscale>
<asrwt>0</asrwt>
<pdfrwt beam="1">  1        4 0.51308296E-01 0.12499802E+03</pdfrwt>
<pdfrwt beam="2">  1       -4 0.18019054E-02 0.12499802E+03</pdfrwt>
<totfact> 0.70257120E+03</totfact>
</mgrwt>
</event>
<event>
 5    1  0.3243498E-002  0.1249991E+03  0.7818608E-02  0.1235071E+00
         -4   -1    0    0    0  501 -0.00000000000E+00  0.00000000000E+00  0.11090350807E+02  0.11162830332E+02  0.12700000000E+01 0.  1.
          4   -1    0    0  501    0  0.00000000000E+00 -0.00000000000E+00 -0.35099458969E+03  0.35099688729E+03  0.12700000000E+01 0.  1.
         25    2    1    2    0    0  0.00000000000E+00  0.00000000000E+00 -0.33990423888E+03  0.36215971763E+03  0.12499907784E+03 0.  0.
    9000005    1    3    3    0    0  0.28703292681E+02  0.55331908528E+02 -0.18280948722E+03  0.19314711422E+03  0.10000000000E+01 0.  0.
    9000005    1    3    3    0    0 -0.28703292681E+02 -0.55331908528E+02 -0.15709475166E+03  0.16901260341E+03  0.10000000000E+01 0.  0.
<mgrwt>
<rscale>  0 0.12499908E+03</rscale>
<asrwt>0</asrwt>
<pdfrwt beam="2">  1        4 0.54004911E-01 0.12499908E+03</pdfrwt>
<pdfrwt beam="1">  1       -4 0.17119602E-02 0.12499908E+03</pdfrwt>
<totfact> 0.68408632E+03</totfact>
</mgrwt>
</event>
<event>
 5    1  0.3243498E-002  0.1250026E+03  0.7818608E-02  0.1235065E+00
          4   -1    0    0  501    0  0.00000000000E+00  0.00000000000E+00  0.10220919940E+04  0.10220927831E+04  0.12700000000E+01 0. -1.
         -4   -1    0    0    0  501 -0.00000000000E+00 -0.00000000000E+00 -0.37156609255E+01  0.39267080504E+01  0.12700000000E+01 0. -1.
         25    2    1    2    0    0  0.00000000000E+00  0.00000000000E+00  0.10183763331E+04  0.10260194911E+04  0.12500256113E+03 0.  0.
    9000005    1    3    3    0    0  0.45743516672E+01 -0.32431192635E+02  0.72333247226E+02  0.79409102773E+02  0.10000000000E+01 0.  0.
    9000005    1    3    3    0    0 -0.45743516672E+01  0.32431192635E+02  0.94604308588E+03  0.94661038833E+03  0.10000000000E+01 0.  0.
<mgrwt>
<rscale>  0 0.12500256E+03</rscale>
<asrwt>0</asrwt>
<pdfrwt beam="1">  1        4 0.15726137E+00 0.12500256E+03</pdfrwt>
<pdfrwt beam="2">  1       -4 0.58793465E-03 0.12500256E+03</pdfrwt>
<totfact> 0.29753803E+03</totfact>
</mgrwt>
</event>
<event>
 5    1  0.3243498E-002  0.1250129E+03  0.7818608E-02  0.1235049E+00
         -4   -1    0    0    0  501 -0.00000000000E+00  0.00000000000E+00  0.26881639538E+02  0.26911622847E+02  0.12700000000E+01 0. -1.
          4   -1    0    0  501    0  0.00000000000E+00 -0.00000000000E+00 -0.14522912692E+03  0.14523467976E+03  0.12700000000E+01 0. -1.
         25    2    1    2    0    0  0.00000000000E+00  0.00000000000E+00 -0.11834748738E+03  0.17214630261E+03  0.12501288627E+03 0.  0.
    9000005    1    3    3    0    0 -0.55473838042E+02  0.21385246254E+02 -0.85710763873E+02  0.10431687547E+03  0.10000000000E+01 0.  0.
    9000005    1    3    3    0    0  0.55473838042E+02 -0.21385246254E+02 -0.32636723507E+02  0.67829427137E+02  0.10000000000E+01 0.  0.
<mgrwt>
<rscale>  0 0.12501289E+03</rscale>
<asrwt>0</asrwt>
<pdfrwt beam="2">  1        4 0.22345676E-01 0.12501289E+03</pdfrwt>
<pdfrwt beam="1">  1       -4 0.41383705E-02 0.12501289E+03</pdfrwt>
<totfact> 0.95022622E+03</totfact>
</mgrwt>
</event>
<event>
 4    1  0.3243498E-002  0.1249127E+03  0.7818608E-02  0.1235206E+00
          4   -1    0    0  501    0  0.00000000000E+00  0.00000000000E+00  0.31773503708E+03  0.31773757519E+03  0.12700000000E+01 0. -1.
         -4   -1    0    0    0  501 -0.00000000000E+00 -0.00000000000E+00 -0.12241440830E+02  0.12307143194E+02  0.12700000000E+01 0. -1.
    9000005    1    1    2    0    0 -0.22217040726E+02 -0.20913334709E+02  0.87811334898E+01  0.31765905821E+02  0.10000000000E+01 0.  0.
    9000005    1    1    2    0    0  0.22217040726E+02  0.20913334709E+02  0.29671246276E+03  0.29827881256E+03  0.10000000000E+01 0.  0.
<mgrwt>
<rscale>  0 0.12491268E+03</rscale>
<asrwt>0</asrwt>
<pdfrwt beam="1">  1        4 0.48887564E-01 0.12491268E+03</pdfrwt>
<pdfrwt beam="2">  1       -4 0.18885478E-02 0.12491268E+03</pdfrwt>
<totfact> 0.72116563E+03</totfact>
</mgrwt>
</event>
<event>
 5    1  0.3243498E-002  0.1250008E+03  0.7818608E-02  0.1235068E+00
          4   -1    0    0  501    0  0.00000000000E+00  0.00000000000E+00  0.12708834584E+03  0.12709469127E+03  0.12700000000E+01 0. -1.
         -4   -1    0    0    0  501 -0.00000000000E+00 -0.00000000000E+00 -0.30716634885E+02  0.30742878178E+02  0.12700000000E+01 0. -1.
         25    2    1    2    0    0  0.00000000000E+00  0.00000000000E+00  0.96371710957E+02  0.15783756945E+03  0.12500076662E+03 0.  0.
    9000005    1    3    3    0    0 -0.48638041833E+02  0.38719549911E+02  0.56215157678E+02  0.83821277796E+02  0.10000000000E+01 0.  0.
    9000005    1    3    3    0    0  0.48638041833E+02 -0.38719549911E+02  0.40156553279E+02  0.74016291652E+02  0.10000000000E+01 0.  0.
<mgrwt>
<rscale>  0 0.12500077E+03</rscale>
<asrwt>0</asrwt>
<pdfrwt beam="1">  1        4 0.19554560E-01 0.12500077E+03</pdfrwt>
<pdfrwt beam="2">  1       -4 0.47281430E-02 0.12500077E+03</pdfrwt>
<totfact> 0.97759626E+03</totfact>
</mgrwt>
</event>
<event>
 5    1  0.3243498E-002  0.1249992E+03  0.7818608E-02  0.1235070E+00
          4   -1    0    0  501    0  0.00000000000E+00  0.00000000000E+00  0.47902820683E+02  0.47919652851E+02  0.12700000000E+01 0. -1.
         -4   -1    0    0    0  501 -0.00000000000E+00 -0.00000000000E+00 -0.81508197209E+02  0.81518090706E+02  0.12700000000E+01 0. -1.
         25    2    1    2    0    0  0.00000000000E+00  0.00000000000E+00 -0.33605376526E+02  0.12943774356E+03  0.12499923250E+03 0.  0.
    9000005    1    3    3    0    0  0.28883762212E+02  0.13007402472E+01 -0.74170581019E+02  0.79613056300E+02  0.10000000000E+01 0.  0.
    9000005    1    3    3    0    0 -0.28883762212E+02 -0.13007402472E+01  0.40565204493E+02  0.49824687257E+02  0.10000000000E+01 0.  0.
<mgrwt>
<rscale>  0 0.12499923E+03</rscale>
<asrwt>0</asrwt>
<pdfrwt beam="1">  1        4 0.73717206E-02 0.12499923E+03</pdfrwt>
<pdfrwt beam="2">  1       -4 0.12541778E-01 0.12499923E+03</pdfrwt>
<totfact> 0.10356729E+04</totfact>
</mgrwt>
</event>
<event>
 5    1  0.3243498E-002  0.1250044E+03  0.7818608E-02  0.1235062E+00
          4   -1    0    0  501    0  0.00000000000E+00  0.00000000000E+00  0.16917858408E+02  0.16965460003E+02  0.12700000000E+01 0.  1.
         -4   -1    0    0    0  501 -0.00000000000E+00 -0.00000000000E+00 -0.23053753126E+03  0.23054102937E+03  0.12700000000E+01 0.  1.
         25    2    1    2    0    0  0.00000000000E+00  0.00000000000E+00 -0.21361967286E+03  0.24750648937E+03  0.12500439052E+03 0.  0.
    9000005    1    3    3    0    0 -0.34493249281E+02  0.22083294843E+02 -0.20026979167E+03  0.20441733198E+03  0.10000000000E+01 0.  0.
    9000005    1    3    3    0    0  0.34493249281E+02 -0.22083294843E+02 -0.13349881186E+02  0.43089157392E+02  0.10000000000E+01 0.  0.
<mgrwt>
<rscale>  0 0.12500439E+03</rscale>
<asrwt>0</asrwt>
<pdfrwt beam="1">  1        4 0.26066783E-02 0.12500439E+03</pdfrwt>
<pdfrwt beam="2">  1       -4 0.35471241E-01 0.12500439E+03</pdfrwt>
<totfact> 0.82683871E+03</totfact>
</mgrwt>
</event>
<event>
 5    1  0.3243498E-002  0.1249965E+03  0.7818608E-02  0.1235075E+00
          4   -1    0    0  501    0  0.00000000000E+00  0.00000000000E+00  0.78608384307E+02  0.78618642721E+02  0.12700000000E+01 0. -1.
         -4   -1    0    0    0  501 -0.00000000000E+00 -0.00000000000E+00 -0.49668097099E+02  0.49684331227E+02  0.12700000000E+01 0. -1.
         25    2    1    2    0    0  0.00000000000E+00  0.00000000000E+00  0.28940287208E+02  0.12830297395E+03  0.12499645155E+03 0.  0.
    9000005    1    3    3    0    0  0.30740798400E+02 -0.13542257123E+02  0.68557870950E+02  0.76351627904E+02  0.10000000000E+01 0.  0.
    9000005    1    3    3    0    0 -0.30740798400E+02  0.13542257123E+02 -0.39617583742E+02  0.51951346045E+02  0.10000000000E+01 0.  0.
<mgrwt>
<rscale>  0 0.12499645E+03</rscale>
<asrwt>0</asrwt>
<pdfrwt beam="1">  1        4 0.12095636E-01 0.12499645E+03</pdfrwt>
<pdfrwt beam="2">  1       -4 0.76432836E-02 0.12499645E+03</pdfrwt>
<totfact> 0.10381781E+04</totfact>
</mgrwt>
</event>
<event>
 5    1  0.3243498E-002  0.1249986E+03  0.7818608E-02  0.1235072E+00
         -4   -1    0    0    0  501 -0.00000000000E+00  0.00000000000E+00  0.76162634894E+01  0.77214227666E+01  0.12700000000E+01 0. -1.
          4   -1    0    0  501    0  0.00000000000E+00 -0.00000000000E+00 -0.50924871205E+03  0.50925029565E+03  0.12700000000E+01 0. -1.
         25    2    1    2    0    0  0.00000000000E+00  0.00000000000E+00 -0.50163244856E+03  0.51697171842E+03  0.12499857679E+03 0.  0.
    9000005    1    3    3    0    0 -0.17344997386E+02 -0.20018195191E+02 -0.16727888930E+02  0.31343250328E+02  0.10000000000E+01 0.  0.
    9000005    1    3    3    0    0  0.17344997386E+02  0.20018195191E+02 -0.48490455963E+03  0.48562846809E+03  0.10000000000E+01 0.  0.
<mgrwt>
<rscale>  0 0.12499858E+03</rscale>
<asrwt>0</asrwt>
<pdfrwt beam="2">  1        4 0.78354140E-01 0.12499858E+03</pdfrwt>
<pdfrwt beam="1">  1       -4 0.11799442E-02 0.12499858E+03</pdfrwt>
<totfact> 0.54572920E+03</totfact>
</mgrwt>
</event>
<event>
 5    1  0.3243498E-002  0.1249953E+03  0.7818608E-02  0.1235077E+00
          4   -1    0    0  501    0  0.00000000000E+00  0.00000000000E+00  0.59800579016E+03  0.59800713872E+03  0.12700000000E+01 0. -1.
         -4   -1    0    0    0  501 -0.00000000000E+00 -0.00000000000E+00 -0.64685295312E+01  0.65920235357E+01  0.12700000000E+01 0. -1.
         25    2    1    2    0    0  0.00000000000E+00  0.00000000000E+00  0.59153726063E+03  0.60459916226E+03  0.12499526508E+03 0.  0.
    9000005    1    3    3    0    0 -0.62399212643E+02  0.25227855239E+01  0.30650616034E+03  0.31280513505E+03  0.10000000000E+01 0.  0.
    9000005    1    3    3    0    0  0.62399212643E+02 -0.25227855239E+01  0.28503110028E+03  0.29179402721E+03  0.10000000000E+01 0.  0.
<mgrwt>
<rscale>  0 0.12499527E+03</rscale>
<asrwt>0</asrwt>
<pdfrwt beam="1">  1        4 0.92010490E-01 0.12499527E+03</pdfrwt>
<pdfrwt beam="2">  1       -4 0.10047617E-02 0.12499527E+03</pdfrwt>
<totfact> 0.48583623E+03</totfact>
</mgrwt>
</event>
<event>
 5    1  0.3243498E-002  0.1250000E+03  0.7818608E-02  0.1235069E+00
         -4   -1    0    0    0  501 -0.00000000000E+00  0.00000000000E+00  0.90652014254E+03  0.90652103215E+03  0.12700000000E+01 0. -1.
          4   -1    0    0  501    0  0.00000000000E+00 -0.00000000000E+00 -0.42145764952E+01  0.44017672626E+01  0.12700000000E+01 0. -1.
         25    2    1    2    0    0  0.00000000000E+00  0.00000000000E+00  0.90230556604E+03  0.91092279941E+03  0.12500004790E+03 0.  0.
    9000005    1    3    3    0    0  0.59753206104E+02 -0.70734134441E+01  0.32817640584E+03  0.33364836605E+03  0.10000000000E+01 0.  0.
    9000005    1    3    3    0    0 -0.59753206104E+02  0.70734134441E+01  0.57412916020E+03  0.57727443336E+03  0.10000000000E+01 0.  0.
<mgrwt>
<rscale>  0 0.12500005E+03</rscale>
<asrwt>0</asrwt>
<pdfrwt beam="2">  1        4 0.66286308E-03 0.12500005E+03</pdfrwt>
<pdfrwt beam="1">  1       -4 0.13947932E+00 0.12500005E+03</pdfrwt>
<totfact> 0.33745024E+03</totfact>
</mgrwt>
</event>
<event>
 5    1  0.3243498E-002  0.1250028E+03  0.7818608E-02  0.1235065E+00
          4   -1    0    0  501    0  0.00000000000E+00  0.00000000000E+00  0.74145029299E+02  0.74155905158E+02  0.12700000000E+01 0.  1.
         -4   -1    0    0    0  501 -0.00000000000E+00 -0.00000000000E+00 -0.52663911304E+02  0.52679222221E+02  0.12700000000E+01 0.  1.
         25    2    1    2    0    0  0.00000000000E+00  0.00000000000E+00  0.21481117995E+02  0.12683512738E+03  0.12500284439E+03 0.  0.
    9000005    1    3    3    0    0 -0.71920414050E+01  0.48265560432E+02 -0.28871899634E+02  0.56708697498E+02  0.10000000000E+01 0.  0.
    9000005    1    3    3    0    0  0.71920414050E+01 -0.48265560432E+02  0.50353017629E+02  0.70126429881E+02  0.10000000000E+01 0.  0.
<mgrwt>
<rscale>  0 0.12500284E+03</rscale>
<asrwt>0</asrwt>
<pdfrwt beam="1">  1        4 0.11408942E-01 0.12500284E+03</pdfrwt>
<pdfrwt beam="2">  1       -4 0.81041546E-02 0.12500284E+03</pdfrwt>
<totfact> 0.10412061E+04</totfact>
</mgrwt>
</event>
<event>
 5    1  0.3243498E-002  0.1249685E+03  0.7818608E-02  0.1235119E+00
          4   -1    0    0  501    0  0.00000000000E+00  0.00000000000E+00  0.37312486554E+03  0.37312702687E+03  0.12700000000E+01 0. -1.
         -4   -1    0    0    0  501 -0.00000000000E+00 -0.00000000000E+00 -0.10422997114E+02  0.10500084230E+02  0.12700000000E+01 0. -1.
         25    2    1    2    0    0  0.00000000000E+00  0.00000000000E+00  0.36270186843E+03  0.38362711110E+03  0.12496845608E+03 0.  0.
    9000005    1    3    3    0    0  0.42906436672E+02 -0.44544943169E+02  0.15422806476E+03  0.16617012436E+03  0.10000000000E+01 0.  0.
    9000005    1    3    3    0    0 -0.42906436672E+02  0.44544943169E+02  0.20847380366E+03  0.21745698674E+03  0.10000000000E+01 0.  0.
<mgrwt>
<rscale>  0 0.12496846E+03</rscale>
<asrwt>0</asrwt>
<pdfrwt beam="1">  1        4 0.57409909E-01 0.12496846E+03</pdfrwt>
<pdfrwt beam="2">  1       -4 0.16096344E-02 0.12496846E+03</pdfrwt>
<totfact> 0.66223116E+03</totfact>
</mgrwt>
</event>
<event>
 5    1  0.3243498E-002  0.1249630E+03  0.7818608E-02  0.1235127E+00
          4   -1    0    0  501    0  0.00000000000E+00  0.00000000000E+00  0.98225968249E+01  0.99043580501E+01  0.12700000000E+01 0. -1.
         -4   -1    0    0    0  501 -0.00000000000E+00 -0.00000000000E+00 -0.39571451321E+03  0.39571655117E+03  0.12700000000E+01 0. -1.
         25    2    1    2    0    0  0.00000000000E+00  0.00000000000E+00 -0.38589191639E+03  0.40562090922E+03  0.12496299796E+03 0.  0.
    9000005    1    3    3    0    0 -0.38844209935E+01 -0.54324757902E+02 -0.93604134881E+02  0.10830051761E+03  0.10000000000E+01 0.  0.
    9000005    1    3    3    0    0  0.38844209935E+01  0.54324757902E+02 -0.29228778151E+03  0.29732039161E+03  0.10000000000E+01 0.  0.
<mgrwt>
<rscale>  0 0.12496300E+03</rscale>
<asrwt>0</asrwt>
<pdfrwt beam="1">  1        4 0.15176151E-02 0.12496300E+03</pdfrwt>
<pdfrwt beam="2">  1       -4 0.60885590E-01 0.12496300E+03</pdfrwt>
<totfact> 0.64062063E+03</totfact>
</mgrwt>
</event>
<event>
 5    1  0.3243498E-002  0.1249951E+03  0.7818608E-02  0.1235077E+00
          4   -1    0    0  501    0  0.00000000000E+00  0.00000000000E+00  0.26170854852E+02  0.26201651545E+02  0.12700000000E+01 0.  1.
         -4   -1    0    0    0  501 -0.00000000000E+00 -0.00000000000E+00 -0.14912662638E+03  0.14913203410E+03  0.12700000000E+01 0.  1.
         25    2    1    2    0    0  0.00000000000E+00  0.00000000000E+00 -0.12295577152E+03  0.17533368564E+03  0.12499511819E+03 0.  0.
    9000005    1    3    3    0    0  0.50086011605E+02  0.27450704379E+02 -0.97041722731E+02  0.11260659696E+03  0.10000000000E+01 0.  0.
    9000005    1    3    3    0    0 -0.50086011605E+02 -0.27450704379E+02 -0.25914048793E+02  0.62727088680E+02  0.10000000000E+01 0.  0.
<mgrwt>
<rscale>  0 0.12499512E+03</rscale>
<asrwt>0</asrwt>
<pdfrwt beam="1">  1        4 0.40290704E-02 0.12499512E+03</pdfrwt>
<pdfrwt beam="2">  1       -4 0.22945342E-01 0.12499512E+03</pdfrwt>
<totfact> 0.94474108E+03</totfact>
</mgrwt>
</event>
<event>
 5    1  0.3243498E-002  0.1250003E+03  0.7818608E-02  0.1235069E+00
         -4   -1    0    0    0  501 -0.00000000000E+00  0.00000000000E+00  0.53793374066E+02  0.53808363601E+02  0.12700000000E+01 0. -1.
          4   -1    0    0  501    0  0.00000000000E+00 -0.00000000000E+00 -0.72585469266E+02  0.72596578767E+02  0.12700000000E+01 0. -1.
         25    2    1    2    0    0  0.00000000000E+00  0.00000000000E+00 -0.18792095201E+02  0.12640494237E+03  0.12500026645E+03 0.  0.
    9000005    1    3    3    0    0 -0.19552483257E+01  0.54789512153E+02  0.20933539504E+02  0.58693498057E+02  0.10000000000E+01 0.  0.
    9000005    1    3    3    0    0  0.19552483257E+01 -0.54789512153E+02 -0.39725634705E+02  0.67711444311E+02  0.10000000000E+01 0.  0.
<mgrwt>
<rscale>  0 0.12500027E+03</rscale>
<asrwt>0</asrwt>
<pdfrwt beam="2">  1        4 0.11169003E-01 0.12500027E+03</pdfrwt>
<pdfrwt beam="1">  1       -4 0.82779113E-02 0.12500027E+03</pdfrwt>
<totfact> 0.10422039E+04</totfact>
</mgrwt>
</event>
<event>
 5    1  0.3243498E-002  0.1250036E+03  0.7818608E-02  0.1235064E+00
          4   -1    0    0  501    0  0.00000000000E+00  0.00000000000E+00  0.15525611066E+02  0.15577467669E+02  0.12700000000E+01 0. -1.
         -4   -1    0    0    0  501 -0.00000000000E+00 -0.00000000000E+00 -0.25114203534E+03  0.25114524645E+03  0.12700000000E+01 0. -1.
         25    2    1    2    0    0  0.00000000000E+00  0.00000000000E+00 -0.23561642427E+03  0.26672271412E+03  0.12500362731E+03 0.  0.
    9000005    1    3    3    0    0 -0.61475674926E+01 -0.51502089336E+02 -0.43426760936E+02  0.67654573811E+02  0.10000000000E+01 0.  0.
    9000005    1    3    3    0    0  0.61475674926E+01  0.51502089336E+02 -0.19218966334E+03  0.19906814031E+03  0.10000000000E+01 0.  0.
<mgrwt>
<rscale>  0 0.12500363E+03</rscale>
<asrwt>0</asrwt>
<pdfrwt beam="1">  1        4 0.23927917E-02 0.12500363E+03</pdfrwt>
<pdfrwt beam="2">  1       -4 0.38641469E-01 0.12500363E+03</pdfrwt>
<totfact> 0.79965331E+03</totfact>
</mgrwt>
</event>
<event>
 5    1  0.3243498E-002  0.1250031E+03  0.7818608E-02  0.1235064E+00
         -4   -1    0    0    0  501 -0.00000000000E+00  0.00000000000E+00  0.12261595320E+04  0.12261601897E+04  0.12700000000E+01 0.  1.
          4   -1    0    0  501    0  0.00000000000E+00 -0.00000000000E+00 -0.30586701134E+01  0.33118518781E+01  0.12700000000E+01 0.  1.
         25    2    1    2    0    0  0.00000000000E+00  0.00000000000E+00  0.12231008619E+04  0.12294720416E+04  0.12500313070E+03 0.  0.
    9000005    1    3    3    0    0 -0.54313409423E+02  0.20287370739E+01  0.91492247951E+03  0.91653598169E+03  0.10000000000E+01 0.  0.
    9000005    1    3    3    0    0  0.54313409423E+02 -0.20287370739E+01  0.30817838238E+03  0.31293605989E+03  0.10000000000E+01 0.  0.
<mgrwt>
<rscale>  0 0.12500313E+03</rscale>
<asrwt>0</asrwt>
<pdfrwt beam="2">  1        4 0.49009075E-03 0.12500313E+03</pdfrwt>
<pdfrwt beam="1">  1       -4 0.18865945E+00 0.12500313E+03</pdfrwt>
<totfact> 0.23952463E+03</totfact>
</mgrwt>
</event>
<event>
 5    1  0.3243498E-002  0.1250000E+03  0.7818608E-02  0.1235069E+00
         -4   -1    0    0    0  501 -0.00000000000E+00  0.00000000000E+00  0.11509430110E+03  0.11510130775E+03  0.12700000000E+01 0. -1.
          4   -1    0    0  501    0  0.00000000000E+00 -0.00000000000E+00 -0.33919615787E+02  0.33943382788E+02  0.12700000000E+01 0. -1.
         25    2    1    2    0    0  0.00000000000E+00  0.00000000000E+00  0.81174685318E+02  0.14904469054E+03  0.12499996097E+03 0.  0.
    9000005    1    3    3    0    0 -0.32521239263E+02 -0.16836827369E+02 -0.19790461290E+02  0.41638589279E+02  0.10000000000E+01 0.  0.
    9000005    1    3    3    0    0  0.32521239263E+02  0.16836827369E+02  0.10096514661E+03  0.10740610126E+03  0.10000000000E+01 0.  0.
<mgrwt>
<rscale>  0 0.12499996E+03</rscale>
<asrwt>0</asrwt>
<pdfrwt beam="2">  1        4 0.52207696E-02 0.12499996E+03</pdfrwt>
<pdfrwt beam="1">  1       -4 0.17709183E-01 0.12499996E+03</pdfrwt>
<totfact> 0.99494553E+03</totfact>
</mgrwt>
</event>
<event>
 5    1  0.3243498E-002  0.1250102E+03  0.7818608E-02  0.1235053E+00
         -4   -1    0    0    0  501 -0.00000000000E+00  0.00000000000E+00  0.50219957013E+03  0.50220117596E+03  0.12700000000E+01 0. -1.
          4   -1    0    0  501    0  0.00000000000E+00 -0.00000000000E+00 -0.77260868946E+01  0.78297713059E+01  0.12700000000E+01 0. -1.
         25    2    1    2    0    0  0.00000000000E+00  0.00000000000E+00  0.49447348323E+03  0.51003094727E+03  0.12501016578E+03 0.  0.
    9000005    1    3    3    0    0  0.57103352428E+02 -0.23356575952E+02  0.20652685042E+03  0.21554735545E+03  0.10000000000E+01 0.  0.
    9000005    1    3    3    0    0 -0.57103352428E+02  0.23356575952E+02  0.28794663282E+03  0.29448359182E+03  0.10000000000E+01 0.  0.
<mgrwt>
<rscale>  0 0.12501017E+03</rscale>
<asrwt>0</asrwt>
<pdfrwt beam="2">  1        4 0.11967279E-02 0.12501017E+03</pdfrwt>
<pdfrwt beam="1">  1       -4 0.77269579E-01 0.12501017E+03</pdfrwt>
<totfact> 0.55082088E+03</totfact>
</mgrwt>
</event>
<event>
 5    1  0.3243498E-002  0.1250003E+03  0.7818608E-02  0.1235069E+00
         -4   -1    0    0    0  501 -0.00000000000E+00  0.00000000000E+00  0.19748584631E+02  0.19789378336E+02  0.12700000000E+01 0. -1.
          4   -1    0    0  501    0  0.00000000000E+00 -0.00000000000E+00 -0.19755306801E+03  0.19755715016E+03  0.12700000000E+01 0. -1.
         25    2    1    2    0    0  0.00000000000E+00  0.00000000000E+00 -0.17780448338E+03  0.21734652850E+03  0.12500031656E+03 0.  0.
    9000005    1    3    3    0    0 -0.44558529494E+02  0.12611153642E+01 -0.16505584244E+03  0.17097217343E+03  0.10000000000E+01 0.  0.
    9000005    1    3    3    0    0  0.44558529494E+02 -0.12611153642E+01 -0.12748640940E+02  0.46374355073E+02  0.10000000000E+01 0.  0.
<mgrwt>
<rscale>  0 0.12500032E+03</rscale>
<asrwt>0</asrwt>
<pdfrwt beam="2">  1        4 0.30396230E-01 0.12500032E+03</pdfrwt>
<pdfrwt beam="1">  1       -4 0.30416959E-02 0.12500032E+03</pdfrwt>
<totfact> 0.87289359E+03</totfact>
</mgrwt>
</event>
<event>
 5    1  0.3243498E-002  0.1249999E+03  0.7818608E-02  0.1235069E+00
          4   -1    0    0  501    0  0.00000000000E+00  0.00000000000E+00  0.13455081891E+04  0.13455087885E+04  0.12700000000E+01 0.  1.
         -4   -1    0    0    0  501 -0.00000000000E+00 -0.00000000000E+00 -0.27636525519E+01  0.30414923027E+01  0.12700000000E+01 0.  1.
         25    2    1    2    0    0  0.00000000000E+00  0.00000000000E+00  0.13427445366E+04  0.13485502808E+04  0.12499987731E+03 0.  0.
    9000005    1    3    3    0    0  0.87488617212E+01  0.12543985212E+02  0.13250600150E+04  0.13251486473E+04  0.10000000000E+01 0.  0.
    9000005    1    3    3    0    0 -0.87488617212E+01 -0.12543985212E+02  0.17684521626E+02  0.23401633523E+02  0.10000000000E+01 0.  0.
<mgrwt>
<rscale>  0 0.12499988E+03</rscale>
<asrwt>0</asrwt>
<pdfrwt beam="1">  1        4 0.20702242E+00 0.12499988E+03</pdfrwt>
<pdfrwt beam="2">  1       -4 0.44659627E-03 0.12499988E+03</pdfrwt>
<totfact> 0.21110884E+03</totfact>
</mgrwt>
</event>
<event>
 5    1  0.3243498E-002  0.1250031E+03  0.7818608E-02  0.1235064E+00
          4   -1    0    0  501    0  0.00000000000E+00  0.00000000000E+00  0.21668040955E+02  0.21705227454E+02  0.12700000000E+01 0. -1.
         -4   -1    0    0    0  501 -0.00000000000E+00 -0.00000000000E+00 -0.18009199867E+03  0.18009647660E+03  0.12700000000E+01 0. -1.
         25    2    1    2    0    0  0.00000000000E+00  0.00000000000E+00 -0.15842395771E+03  0.20180170406E+03  0.12500310949E+03 0.  0.
    9000005    1    3    3    0    0 -0.45180319924E+01 -0.61667402873E+02 -0.93845288669E+02  0.11238869781E+03  0.10000000000E+01 0.  0.
    9000005    1    3    3    0    0  0.45180319924E+01  0.61667402873E+02 -0.64578669044E+02  0.89413006244E+02  0.10000000000E+01 0.  0.
<mgrwt>
<rscale>  0 0.12500311E+03</rscale>
<asrwt>0</asrwt>
<pdfrwt beam="1">  1        4 0.33367498E-02 0.12500311E+03</pdfrwt>
<pdfrwt beam="2">  1       -4 0.27709665E-01 0.12500311E+03</pdfrwt>
<totfact> 0.89826273E+03</totfact>
</mgrwt>
</event>
<event>
 5    1  0.3243498E-002  0.1249982E+03  0.7818608E-02  0.1235072E+00
         -4   -1    0    0    0  501 -0.00000000000E+00  0.00000000000E+00  0.89348357666E+01  0.90246434930E+01  0.12700000000E+01 0.  1.
          4   -1    0    0  501    0  0.00000000000E+00 -0.00000000000E+00 -0.43490367691E+03  0.43490553122E+03  0.12700000000E+01 0.  1.
         25    2    1    2    0    0  0.00000000000E+00  0.00000000000E+00 -0.42596884114E+03  0.44393017471E+03  0.12499818559E+03 0.  0.
    9000005    1    3    3    0    0 -0.41223075689E+02 -0.42168605154E+02 -0.28642422580E+03  0.29243353151E+03  0.10000000000E+01 0.  0.
    9000005    1    3    3    0    0  0.41223075689E+02  0.42168605154E+02 -0.13954461534E+03  0.15149664320E+03  0.10000000000E+01 0.  0.
<mgrwt>
<rscale>  0 0.12499819E+03</rscale>
<asrwt>0</asrwt>
<pdfrwt beam="2">  1        4 0.66915293E-01 0.12499819E+03</pdfrwt>
<pdfrwt beam="1">  1       -4 0.13816414E-02 0.12499819E+03</pdfrwt>
<totfact> 0.60495680E+03</totfact>
</mgrwt>
</event>
<event>
 5    1  0.3243498E-002  0.1249980E+03  0.7818608E-02  0.1235072E+00
         -4   -1    0    0    0  501 -0.00000000000E+00  0.00000000000E+00  0.20871297379E+02  0.20909900868E+02  0.12700000000E+01 0. -1.
          4   -1    0    0  501    0  0.00000000000E+00 -0.00000000000E+00 -0.18693939776E+03  0.18694371168E+03  0.12700000000E+01 0. -1.
         25    2    1    2    0    0  0.00000000000E+00  0.00000000000E+00 -0.16606810038E+03  0.20785361255E+03  0.12499804112E+03 0.  0.
    9000005    1    3    3    0    0 -0.35116370667E+02 -0.39503997203E+02 -0.13846981110E+03  0.14821812936E+03  0.10000000000E+01 0.  0.
    9000005    1    3    3    0    0  0.35116370667E+02  0.39503997203E+02 -0.27598289282E+02  0.59635483188E+02  0.10000000000E+01 0.  0.
<mgrwt>
<rscale>  0 0.12499804E+03</rscale>
<asrwt>0</asrwt>
<pdfrwt beam="2">  1        4 0.28763208E-01 0.12499804E+03</pdfrwt>
<pdfrwt beam="1">  1       -4 0.32142703E-02 0.12499804E+03</pdfrwt>
<totfact> 0.88831510E+03</totfact>
</mgrwt>
</event>
<event>
 5    1  0.3243498E-002  0.1249890E+03  0.7818608E-02  0.1235086E+00
         -4   -1    0    0    0  501 -0.00000000000E+00  0.00000000000E+00  0.20438096672E+03  0.20438491250E+03  0.12700000000E+01 0.  1.
          4   -1    0    0  501    0  0.00000000000E+00 -0.00000000000E+00 -0.19083992655E+02  0.19126203901E+02  0.12700000000E+01 0.  1.
         25    2    1    2    0    0  0.00000000000E+00  0.00000000000E+00  0.18529697406E+03  0.22351111640E+03  0.12498900174E+03 0.  0.
    9000005    1    3    3    0    0  0.31946066537E+02  0.16080907506E+02  0.10208719605E+01  0.35793699627E+02  0.10000000000E+01 0.  0.
    9000005    1    3    3    0    0 -0.31946066537E+02 -0.16080907506E+02  0.18427610210E+03  0.18771741677E+03  0.10000000000E+01 0.  0.
<mgrwt>
<rscale>  0 0.12498900E+03</rscale>
<asrwt>0</asrwt>
<pdfrwt beam="2">  1        4 0.29395494E-02 0.12498900E+03</pdfrwt>
<pdfrwt beam="1">  1       -4 0.31446776E-01 0.12498900E+03</pdfrwt>
<totfact> 0.86336993E+03</totfact>
</mgrwt>
</event>
<event>
 5    1  0.3243498E-002  0.1249953E+03  0.7818608E-02  0.1235077E+00
          4   -1    0    0  501    0  0.00000000000E+00  0.00000000000E+00  0.37196981623E+02  0.37218655831E+02  0.12700000000E+01 0.  1.
         -4   -1    0    0    0  501 -0.00000000000E+00 -0.00000000000E+00 -0.10495125069E+03  0.10495893445E+03  0.12700000000E+01 0.  1.
         25    2    1    2    0    0  0.00000000000E+00  0.00000000000E+00 -0.67754269067E+02  0.14217759028E+03  0.12499530472E+03 0.  0.
    9000005    1    3    3    0    0  0.28889856443E+02  0.41970685888E+02 -0.75027447477E+02  0.90698843179E+02  0.10000000000E+01 0.  0.
    9000005    1    3    3    0    0 -0.28889856443E+02 -0.41970685888E+02  0.72731784100E+01  0.51478747104E+02  0.10000000000E+01 0.  0.
<mgrwt>
<rscale>  0 0.12499530E+03</rscale>
<asrwt>0</asrwt>
<pdfrwt beam="1">  1        4 0.57248709E-02 0.12499530E+03</pdfrwt>
<pdfrwt beam="2">  1       -4 0.16148605E-01 0.12499530E+03</pdfrwt>
<totfact> 0.10089719E+04</totfact>
</mgrwt>
</event>
<event>
 5    1  0.3243498E-002  0.1249996E+03  0.7818608E-02  0.1235070E+00
          4   -1    0    0  501    0  0.00000000000E+00  0.00000000000E+00  0.48797931512E+02  0.48814455030E+02  0.12700000000E+01 0.  1.
         -4   -1    0    0    0  501 -0.00000000000E+00 -0.00000000000E+00 -0.80013927174E+02  0.80024005409E+02  0.12700000000E+01 0.  1.
         25    2    1    2    0    0  0.00000000000E+00  0.00000000000E+00 -0.31215995662E+02  0.12883846044E+03  0.12499964201E+03 0.  0.
    9000005    1    3    3    0    0 -0.37002509245E+02 -0.38418865996E+02 -0.49166022015E+02  0.72549932292E+02  0.10000000000E+01 0.  0.
    9000005    1    3    3    0    0  0.37002509245E+02  0.38418865996E+02  0.17950026353E+02  0.56288528147E+02  0.10000000000E+01 0.  0.
<mgrwt>
<rscale>  0 0.12499964E+03</rscale>
<asrwt>0</asrwt>
<pdfrwt beam="1">  1        4 0.75094204E-02 0.12499964E+03</pdfrwt>
<pdfrwt beam="2">  1       -4 0.12311881E-01 0.12499964E+03</pdfrwt>
<totfact> 0.10369503E+04</totfact>
</mgrwt>
</event>
<event>
 5    1  0.3243498E-002  0.1250017E+03  0.7818608E-02  0.1235067E+00
         -4   -1    0    0    0  501 -0.00000000000E+00  0.00000000000E+00  0.54487788137E+02  0.54502586692E+02  0.12700000000E+01 0. -1.
          4   -1    0    0  501    0  0.00000000000E+00 -0.00000000000E+00 -0.71662194203E+02  0.71673446813E+02  0.12700000000E+01 0. -1.
         25    2    1    2    0    0  0.00000000000E+00  0.00000000000E+00 -0.17174406066E+02  0.12617603350E+03  0.12500172482E+03 0.  0.
    9000005    1    3    3    0    0  0.14966675151E+02  0.60276284133E+02 -0.15847406617E+01  0.62134879069E+02  0.10000000000E+01 0.  0.
    9000005    1    3    3    0    0 -0.14966675151E+02 -0.60276284133E+02 -0.15589665404E+02  0.64041154435E+02  0.10000000000E+01 0.  0.
<mgrwt>
<rscale>  0 0.12500172E+03</rscale>
<asrwt>0</asrwt>
<pdfrwt beam="2">  1        4 0.11026957E-01 0.12500172E+03</pdfrwt>
<pdfrwt beam="1">  1       -4 0.83847406E-02 0.12500172E+03</pdfrwt>
<totfact> 0.10426697E+04</totfact>
</mgrwt>
</event>
<event>
 5    1  0.3243498E-002  0.1250066E+03  0.7818608E-02  0.1235059E+00
          4   -1    0    0  501    0  0.00000000000E+00  0.00000000000E+00  0.42688502271E+01  0.44537604630E+01  0.12700000000E+01 0.  1.
         -4   -1    0    0    0  501 -0.00000000000E+00 -0.00000000000E+00 -0.89556978872E+03  0.89557068920E+03  0.12700000000E+01 0.  1.
         25    2    1    2    0    0  0.00000000000E+00  0.00000000000E+00 -0.89130093849E+03  0.90002444967E+03  0.12500658801E+03 0.  0.
    9000005    1    3    3    0    0  0.46270673432E+02 -0.12561071066E+02 -0.15703696565E+03  0.16419611538E+03  0.10000000000E+01 0.  0.
    9000005    1    3    3    0    0 -0.46270673432E+02  0.12561071066E+02 -0.73426397284E+03  0.73582833428E+03  0.10000000000E+01 0.  0.
<mgrwt>
<rscale>  0 0.12500659E+03</rscale>
<asrwt>0</asrwt>
<pdfrwt beam="1">  1        4 0.67104003E-03 0.12500659E+03</pdfrwt>
<pdfrwt beam="2">  1       -4 0.13779411E+00 0.12500659E+03</pdfrwt>
<totfact> 0.34154104E+03</totfact>
</mgrwt>
</event>
<event>
 5    1  0.3243498E-002  0.1249939E+03  0.7818608E-02  0.1235079E+00
          4   -1    0    0  501    0  0.00000000000E+00  0.00000000000E+00  0.33590838315E+03  0.33591078394E+03  0.12700000000E+01 0.  1.
         -4   -1    0    0    0  501 -0.00000000000E+00 -0.00000000000E+00 -0.11590659490E+02  0.11660029477E+02  0.12700000000E+01 0.  1.
         25    2    1    2    0    0  0.00000000000E+00  0.00000000000E+00  0.32431772366E+03  0.34757081342E+03  0.12499393770E+03 0.  0.
    9000005    1    3    3    0    0  0.10442603404E+02 -0.59379146463E+02  0.11647234328E+03  0.13115539543E+03  0.10000000000E+01 0.  0.
    9000005    1    3    3    0    0 -0.10442603404E+02  0.59379146463E+02  0.20784538037E+03  0.21641541799E+03  0.10000000000E+01 0.  0.
<mgrwt>
<rscale>  0 0.12499394E+03</rscale>
<asrwt>0</asrwt>
<pdfrwt beam="1">  1        4 0.51683724E-01 0.12499394E+03</pdfrwt>
<pdfrwt beam="2">  1       -4 0.17886995E-02 0.12499394E+03</pdfrwt>
<totfact> 0.70002022E+03</totfact>
</mgrwt>
</event>
<event>
 5    1  0.3243498E-002  0.1249975E+03  0.7818608E-02  0.1235073E+00
         -4   -1    0    0    0  501 -0.00000000000E+00  0.00000000000E+00  0.79224554478E+01  0.80236027022E+01  0.12700000000E+01 0.  1.
          4   -1    0    0  501    0  0.00000000000E+00 -0.00000000000E+00 -0.48981129982E+03  0.48981294626E+03  0.12700000000E+01 0.  1.
         25    2    1    2    0    0  0.00000000000E+00  0.00000000000E+00 -0.48188884437E+03  0.49783654897E+03  0.12499748461E+03 0.  0.
    9000005    1    3    3    0    0 -0.11505841810E+02 -0.57838241135E+02 -0.32328734204E+03  0.32862341983E+03  0.10000000000E+01 0.  0.
    9000005    1    3    3    0    0  0.11505841810E+02  0.57838241135E+02 -0.15860150233E+03  0.16921312914E+03  0.10000000000E+01 0.  0.
<mgrwt>
<rscale>  0 0.12499748E+03</rscale>
<asrwt>0</asrwt>
<pdfrwt beam="2">  1        4 0.75363468E-01 0.12499748E+03</pdfrwt>
<pdfrwt beam="1">  1       -4 0.12267469E-02 0.12499748E+03</pdfrwt>
<totfact> 0.56035725E+03</totfact>
</mgrwt>
</event>
<event>
 5    1  0.3243498E-002  0.1250009E+03  0.7818608E-02  0.1235068E+00
         -4   -1    0    0    0  501 -0.00000000000E+00  0.00000000000E+00  0.11589069162E+03  0.11589765012E+03  0.12700000000E+01 0. -1.
          4   -1    0    0  501    0  0.00000000000E+00 -0.00000000000E+00 -0.33686891979E+02  0.33710823057E+02  0.12700000000E+01 0. -1.
         25    2    1    2    0    0  0.00000000000E+00  0.00000000000E+00  0.82203799641E+02  0.14960847318E+03  0.12500092228E+03 0.  0.
    9000005    1    3    3    0    0  0.47374127877E+02 -0.19060867295E+02  0.84216789506E+02  0.98494123118E+02  0.10000000000E+01 0.  0.
    9000005    1    3    3    0    0 -0.47374127877E+02  0.19060867295E+02 -0.20129898642E+01  0.51114350063E+02  0.10000000000E+01 0.  0.
<mgrwt>
<rscale>  0 0.12500092E+03</rscale>
<asrwt>0</asrwt>
<pdfrwt beam="2">  1        4 0.51849748E-02 0.12500092E+03</pdfrwt>
<pdfrwt beam="1">  1       -4 0.17831714E-01 0.12500092E+03</pdfrwt>
<totfact> 0.99379737E+03</totfact>
</mgrwt>
</event>
<event>
 5    1  0.3243498E-002  0.1249796E+03  0.7818608E-02  0.1235101E+00
          4   -1    0    0  501    0  0.00000000000E+00  0.00000000000E+00  0.11919741656E+03  0.11920418204E+03  0.12700000000E+01 0. -1.
         -4   -1    0    0    0  501 -0.00000000000E+00 -0.00000000000E+00 -0.32740567906E+02  0.32765190169E+02  0.12700000000E+01 0. -1.
         25    2    1    2    0    0  0.00000000000E+00  0.00000000000E+00  0.86456848659E+02  0.15196937221E+03  0.12497961197E+03 0.  0.
    9000005    1    3    3    0    0  0.54451012563E+02 -0.29913309512E+01  0.61445392314E+01  0.54887304474E+02  0.10000000000E+01 0.  0.
    9000005    1    3    3    0    0 -0.54451012563E+02  0.29913309512E+01  0.80312309427E+02  0.97082067734E+02  0.10000000000E+01 0.  0.
<mgrwt>
<rscale>  0 0.12497961E+03</rscale>
<asrwt>0</asrwt>
<pdfrwt beam="1">  1        4 0.18340479E-01 0.12497961E+03</pdfrwt>
<pdfrwt beam="2">  1       -4 0.50394249E-02 0.12497961E+03</pdfrwt>
<totfact> 0.98957962E+03</totfact>
</mgrwt>
</event>
<event>
 5    1  0.3243498E-002  0.1250006E+03  0.7818608E-02  0.1235068E+00
         -4   -1    0    0    0  501 -0.00000000000E+00  0.00000000000E+00  0.71838984675E+01  0.72952928106E+01  0.12700000000E+01 0. -1.
          4   -1    0    0  501    0  0.00000000000E+00 -0.00000000000E+00 -0.53946035560E+03  0.53946185052E+03  0.12700000000E+01 0. -1.
         25    2    1    2    0    0  0.00000000000E+00  0.00000000000E+00 -0.53227645714E+03  0.54675714333E+03  0.12500058785E+03 0.  0.
    9000005    1    3    3    0    0 -0.60281625135E+02 -0.14937288951E+02 -0.29653378943E+03  0.30296911593E+03  0.10000000000E+01 0.  0.
    9000005    1    3    3    0    0  0.60281625135E+02  0.14937288951E+02 -0.23574266770E+03  0.24378802741E+03  0.10000000000E+01 0.  0.
<mgrwt>
<rscale>  0 0.12500059E+03</rscale>
<asrwt>0</asrwt>
<pdfrwt beam="2">  1        4 0.83002553E-01 0.12500059E+03</pdfrwt>
<pdfrwt beam="1">  1       -4 0.11138994E-02 0.12500059E+03</pdfrwt>
<totfact> 0.52410062E+03</totfact>
</mgrwt>
</event>
<event>
 5    1  0.3243498E-002  0.1250007E+03  0.7818608E-02  0.1235068E+00
          4   -1    0    0  501    0  0.00000000000E+00  0.00000000000E+00  0.77043071442E+02  0.77053538252E+02  0.12700000000E+01 0. -1.
         -4   -1    0    0    0  501 -0.00000000000E+00 -0.00000000000E+00 -0.50680888208E+02  0.50696798021E+02  0.12700000000E+01 0. -1.
         25    2    1    2    0    0  0.00000000000E+00  0.00000000000E+00  0.26362183234E+02  0.12775033627E+03  0.12500073485E+03 0.  0.
    9000005    1    3    3    0    0 -0.81595437984E+01 -0.24875523437E+02 -0.44811489486E+02  0.51907989859E+02  0.10000000000E+01 0.  0.
    9000005    1    3    3    0    0  0.81595437984E+01  0.24875523437E+02  0.71173672720E+02  0.75842346415E+02  0.10000000000E+01 0.  0.
<mgrwt>
<rscale>  0 0.12500073E+03</rscale>
<asrwt>0</asrwt>
<pdfrwt beam="1">  1        4 0.11854809E-01 0.12500073E+03</pdfrwt>
<pdfrwt beam="2">  1       -4 0.77990887E-02 0.12500073E+03</pdfrwt>
<totfact> 0.10392711E+04</totfact>
</mgrwt>
</event>
<event>
 5    1  0.3243498E-002  0.1250020E+03  0.7818608E-02  0.1235066E+00
         -4   -1    0    0    0  501 -0.00000000000E+00  0.00000000000E+00  0.13369570807E+02  0.13429755157E+02  0.12700000000E+01 0.  1.
          4   -1    0    0  501    0  0.00000000000E+00 -0.00000000000E+00 -0.29146649868E+03  0.29146926554E+03  0.12700000000E+01 0.  1.
         25    2    1    2    0    0  0.00000000000E+00  0.00000000000E+00 -0.27809692787E+03  0.30489902069E+03  0.12500204610E+03 0.  0.
    9000005    1    3    3    0    0  0.28209996134E+02  0.13738380856E+02 -0.27087174417E+03  0.27268488917E+03  0.10000000000E+01 0.  0.
    9000005    1    3    3    0    0 -0.28209996134E+02 -0.13738380856E+02 -0.72251837009E+01  0.32214131525E+02  0.10000000000E+01 0.  0.
<mgrwt>
<rscale>  0 0.12500205E+03</rscale>
<asrwt>0</asrwt>
<pdfrwt beam="2">  1        4 0.44845837E-01 0.12500205E+03</pdfrwt>
<pdfrwt beam="1">  1       -4 0.20616997E-02 0.12500205E+03</pdfrwt>
<totfact> 0.74984993E+03</totfact>
</mgrwt>
</event>
<event>
 5    1  0.3243498E-002  0.1250027E+03  0.7818608E-02  0.1235065E+00
         -4   -1    0    0    0  501 -0.00000000000E+00  0.00000000000E+00  0.72993872270E+01  0.74090454101E+01  0.12700000000E+01 0. -1.
          4   -1    0    0  501    0  0.00000000000E+00 -0.00000000000E+00 -0.53107025146E+03  0.53107177000E+03  0.12700000000E+01 0. -1.
         25    2    1    2    0    0  0.00000000000E+00  0.00000000000E+00 -0.52377086424E+03  0.53848081541E+03  0.12500268133E+03 0.  0.
    9000005    1    3    3    0    0 -0.57368940975E+02  0.24124393690E+02 -0.28634339631E+03  0.29303024139E+03  0.10000000000E+01 0.  0.
    9000005    1    3    3    0    0  0.57368940975E+02 -0.24124393690E+02 -0.23742746793E+03  0.24545057402E+03  0.10000000000E+01 0.  0.
<mgrwt>
<rscale>  0 0.12500268E+03</rscale>
<asrwt>0</asrwt>
<pdfrwt beam="2">  1        4 0.81711638E-01 0.12500268E+03</pdfrwt>
<pdfrwt beam="1">  1       -4 0.11315351E-02 0.12500268E+03</pdfrwt>
<totfact> 0.52994529E+03</totfact>
</mgrwt>
</event>
<event>
 4    1  0.3243498E-002  0.1251811E+03  0.7818608E-02  0.1234787E+00
         -4   -1    0    0    0  501 -0.00000000000E+00  0.00000000000E+00  0.10971922946E+02  0.11045179634E+02  0.12700000000E+01 0. -1.
          4   -1    0    0  501    0  0.00000000000E+00 -0.00000000000E+00 -0.35579239119E+03  0.35579465781E+03  0.12700000000E+01 0. -1.
    9000005    1    1    2    0    0 -0.35312639240E+02  0.11134398579E+02 -0.24555747275E+02  0.44440320048E+02  0.10000000000E+01 0.  0.
    9000005    1    1    2    0    0  0.35312639240E+02 -0.11134398579E+02 -0.32026472097E+03  0.32239951740E+03  0.10000000000E+01 0.  0.
<mgrwt>
<rscale>  0 0.12518111E+03</rscale>
<asrwt>0</asrwt>
<pdfrwt beam="2">  1        4 0.54743092E-01 0.12518111E+03</pdfrwt>
<pdfrwt beam="1">  1       -4 0.16937979E-02 0.12518111E+03</pdfrwt>
<totfact> 0.67639612E+03</totfact>
</mgrwt>
</event>
<event>
 5    1  0.3243498E-002  0.1249982E+03  0.7818608E-02  0.1235072E+00
          4   -1    0    0  501    0  0.00000000000E+00  0.00000000000E+00  0.64148157971E+02  0.64160728417E+02  0.12700000000E+01 0. -1.
         -4   -1    0    0    0  501 -0.00000000000E+00 -0.00000000000E+00 -0.60867261347E+02  0.60880509228E+02  0.12700000000E+01 0. -1.
         25    2    1    2    0    0  0.00000000000E+00  0.00000000000E+00  0.32808966234E+01  0.12504123765E+03  0.12499818730E+03 0.  0.
    9000005    1    3    3    0    0 -0.38350583361E+02 -0.30935879994E+02 -0.36808980586E+02  0.61511762834E+02  0.10000000000E+01 0.  0.
    9000005    1    3    3    0    0  0.38350583361E+02  0.30935879994E+02  0.40089877210E+02  0.63529474812E+02  0.10000000000E+01 0.  0.
<mgrwt>
<rscale>  0 0.12499819E+03</rscale>
<asrwt>0</asrwt>
<pdfrwt beam="1">  1        4 0.98709333E-02 0.12499819E+03</pdfrwt>
<pdfrwt beam="2">  1       -4 0.93661802E-02 0.12499819E+03</pdfrwt>
<totfact> 0.10452395E+04</totfact>
</mgrwt>
</event>
<event>
 5    1  0.3243498E-002  0.1249971E+03  0.7818608E-02  0.1235074E+00
          4   -1    0    0  501    0  0.00000000000E+00  0.00000000000E+00  0.26680501873E+02  0.26710710964E+02  0.12700000000E+01 0. -1.
         -4   -1    0    0    0  501 -0.00000000000E+00 -0.00000000000E+00 -0.14628577766E+03  0.14629129039E+03  0.12700000000E+01 0. -1.
         25    2    1    2    0    0  0.00000000000E+00  0.00000000000E+00 -0.11960527578E+03  0.17300200136E+03  0.12499708188E+03 0.  0.
    9000005    1    3    3    0    0 -0.12553715806E+02 -0.54659911373E+02 -0.21652935036E+02  0.60126128160E+02  0.10000000000E+01 0.  0.
    9000005    1    3    3    0    0  0.12553715806E+02  0.54659911373E+02 -0.97952340747E+02  0.11287587320E+03  0.10000000000E+01 0.  0.
<mgrwt>
<rscale>  0 0.12499708E+03</rscale>
<asrwt>0</asrwt>
<pdfrwt beam="1">  1        4 0.41074405E-02 0.12499708E+03</pdfrwt>
<pdfrwt beam="2">  1       -4 0.22508252E-01 0.12499708E+03</pdfrwt>
<totfact> 0.94898262E+03</totfact>
</mgrwt>
</event>
<event>
 5    1  0.3243498E-002  0.1249993E+03  0.7818608E-02  0.1235070E+00
         -4   -1    0    0    0  501 -0.00000000000E+00  0.00000000000E+00  0.35060397786E+03  0.35060627802E+03  0.12700000000E+01 0. -1.
          4   -1    0    0  501    0  0.00000000000E+00 -0.00000000000E+00 -0.11102828097E+02  0.11175226698E+02  0.12700000000E+01 0. -1.
         25    2    1    2    0    0  0.00000000000E+00  0.00000000000E+00  0.33950114976E+03  0.36178150472E+03  0.12499930588E+03 0.  0.
    9000005    1    3    3    0    0  0.22645481160E+02  0.23033812217E+02  0.14918530025E+02  0.35594056531E+02  0.10000000000E+01 0.  0.
    9000005    1    3    3    0    0 -0.22645481160E+02 -0.23033812217E+02  0.32458261973E+03  0.32618744819E+03  0.10000000000E+01 0.  0.
<mgrwt>
<rscale>  0 0.12499931E+03</rscale>
<asrwt>0</asrwt>
<pdfrwt beam="2">  1        4 0.17138735E-02 0.12499931E+03</pdfrwt>
<pdfrwt beam="1">  1       -4 0.53944819E-01 0.12499931E+03</pdfrwt>
<totfact> 0.68448650E+03</totfact>
</mgrwt>
</event>
<event>
 5    1  0.3243498E-002  0.1249986E+03  0.7818608E-02  0.1235071E+00
         -4   -1    0    0    0  501 -0.00000000000E+00  0.00000000000E+00  0.84277009581E+02  0.84286578077E+02  0.12700000000E+01 0.  1.
          4   -1    0    0  501    0  0.00000000000E+00 -0.00000000000E+00 -0.46328205780E+02  0.46345609833E+02  0.12700000000E+01 0.  1.
         25    2    1    2    0    0  0.00000000000E+00  0.00000000000E+00  0.37948803801E+02  0.13063218791E+03  0.12499862723E+03 0.  0.
    9000005    1    3    3    0    0 -0.48961644009E+02 -0.36145596390E+02  0.41426129878E+01  0.61007441880E+02  0.10000000000E+01 0.  0.
    9000005    1    3    3    0    0  0.48961644009E+02  0.36145596390E+02  0.33806190813E+02  0.69624746030E+02  0.10000000000E+01 0.  0.
<mgrwt>
<rscale>  0 0.12499863E+03</rscale>
<asrwt>0</asrwt>
<pdfrwt beam="2">  1        4 0.71294911E-02 0.12499863E+03</pdfrwt>
<pdfrwt beam="1">  1       -4 0.12967769E-01 0.12499863E+03</pdfrwt>
<totfact> 0.10331301E+04</totfact>
</mgrwt>
</event>
<event>
 5    1  0.3243498E-002  0.1250032E+03  0.7818608E-02  0.1235064E+00
         -4   -1    0    0    0  501 -0.00000000000E+00  0.00000000000E+00  0.60383284529E+03  0.60383418084E+03  0.12700000000E+01 0. -1.
          4   -1    0    0  501    0  0.00000000000E+00 -0.00000000000E+00 -0.64057344254E+01  0.65304160302E+01  0.12700000000E+01 0. -1.
         25    2    1    2    0    0  0.00000000000E+00  0.00000000000E+00  0.59742711087E+03  0.61036459687E+03  0.12500315323E+03 0.  0.
    9000005    1    3    3    0    0 -0.91675907926E+01 -0.50780926194E+02  0.47084154543E+03  0.47366180772E+03  0.10000000000E+01 0.  0.
    9000005    1    3    3    0    0  0.91675907926E+01  0.50780926194E+02  0.12658556543E+03  0.13670278915E+03  0.10000000000E+01 0.  0.
<mgrwt>
<rscale>  0 0.12500315E+03</rscale>
<asrwt>0</asrwt>
<pdfrwt beam="2">  1        4 0.99519109E-03 0.12500315E+03</pdfrwt>
<pdfrwt beam="1">  1       -4 0.92907068E-01 0.12500315E+03</pdfrwt>
<totfact> 0.48216496E+03</totfact>
</mgrwt>
</event>
<event>
 5    1  0.3243498E-002  0.1249981E+03  0.7818608E-02  0.1235072E+00
          4   -1    0    0  501    0  0.00000000000E+00  0.00000000000E+00  0.37382801952E+02  0.37404368485E+02  0.12700000000E+01 0. -1.
         -4   -1    0    0    0  501 -0.00000000000E+00 -0.00000000000E+00 -0.10443456038E+03  0.10444228216E+03  0.12700000000E+01 0. -1.
         25    2    1    2    0    0  0.00000000000E+00  0.00000000000E+00 -0.67051758432E+02  0.14184665064E+03  0.12499813595E+03 0.  0.
    9000005    1    3    3    0    0 -0.13571828409E+02  0.39380168498E+02  0.19338064020E+02  0.45934223813E+02  0.10000000000E+01 0.  0.
    9000005    1    3    3    0    0  0.13571828409E+02 -0.39380168498E+02 -0.86389822452E+02  0.95912426831E+02  0.10000000000E+01 0.  0.
<mgrwt>
<rscale>  0 0.12499814E+03</rscale>
<asrwt>0</asrwt>
<pdfrwt beam="1">  1        4 0.57534533E-02 0.12499814E+03</pdfrwt>
<pdfrwt beam="2">  1       -4 0.16069108E-01 0.12499814E+03</pdfrwt>
<totfact> 0.10095879E+04</totfact>
</mgrwt>
</event>
<event>
 5    1  0.3243498E-002  0.1250022E+03  0.7818608E-02  0.1235066E+00
         -4   -1    0    0    0  501 -0.00000000000E+00  0.00000000000E+00  0.49622708070E+03  0.49622870586E+03  0.12700000000E+01 0. -1.
          4   -1    0    0  501    0  0.00000000000E+00 -0.00000000000E+00 -0.78193033140E+01  0.79217677520E+01  0.12700000000E+01 0. -1.
         25    2    1    2    0    0  0.00000000000E+00  0.00000000000E+00  0.48840777739E+03  0.50415047361E+03  0.12500217211E+03 0.  0.
    9000005    1    3    3    0    0 -0.51721687683E+02 -0.27898999134E+02  0.32993987170E+03  0.33513401210E+03  0.10000000000E+01 0.  0.
    9000005    1    3    3    0    0  0.51721687683E+02  0.27898999134E+02  0.15846790569E+03  0.16901646152E+03  0.10000000000E+01 0.  0.
<mgrwt>
<rscale>  0 0.12500217E+03</rscale>
<asrwt>0</asrwt>
<pdfrwt beam="2">  1        4 0.12109761E-02 0.12500217E+03</pdfrwt>
<pdfrwt beam="1">  1       -4 0.76350670E-01 0.12500217E+03</pdfrwt>
<totfact> 0.55541102E+03</totfact>
</mgrwt>
</event>
<event>
 5    1  0.3243498E-002  0.1249996E+03  0.7818608E-02  0.1235070E+00
          4   -1    0    0  501    0  0.00000000000E+00  0.00000000000E+00  0.49377585599E+02  0.49393915208E+02  0.12700000000E+01 0.  1.
         -4   -1    0    0    0  501 -0.00000000000E+00 -0.00000000000E+00 -0.79074735012E+02  0.79084932935E+02  0.12700000000E+01 0.  1.
         25    2    1    2    0    0  0.00000000000E+00  0.00000000000E+00 -0.29697149413E+02  0.12847884814E+03  0.12499957495E+03 0.  0.
    9000005    1    3    3    0    0  0.55622499655E+02  0.17998555984E+02  0.78433654458E+01  0.58994312157E+02  0.10000000000E+01 0.  0.
    9000005    1    3    3    0    0 -0.55622499655E+02 -0.17998555984E+02 -0.37540514859E+02  0.69484535986E+02  0.10000000000E+01 0.  0.
<mgrwt>
<rscale>  0 0.12499957E+03</rscale>
<asrwt>0</asrwt>
<pdfrwt beam="1">  1        4 0.75985922E-02 0.12499957E+03</pdfrwt>
<pdfrwt beam="2">  1       -4 0.12167384E-01 0.12499957E+03</pdfrwt>
<totfact> 0.10377259E+04</totfact>
</mgrwt>
</event>
<event>
 5    1  0.3243498E-002  0.1249928E+03  0.7818608E-02  0.1235081E+00
         -4   -1    0    0    0  501 -0.00000000000E+00  0.00000000000E+00  0.69185364656E+02  0.69197020041E+02  0.12700000000E+01 0.  1.
          4   -1    0    0  501    0  0.00000000000E+00 -0.00000000000E+00 -0.56430592379E+02  0.56444881577E+02  0.12700000000E+01 0.  1.
         25    2    1    2    0    0  0.00000000000E+00  0.00000000000E+00  0.12754772277E+02  0.12564190162E+03  0.12499281270E+03 0.  0.
    9000005    1    3    3    0    0  0.54941297982E+02  0.29145596351E+02  0.28051175825E+00  0.62202015220E+02  0.10000000000E+01 0.  0.
    9000005    1    3    3    0    0 -0.54941297982E+02 -0.29145596351E+02  0.12474260519E+02  0.63439886397E+02  0.10000000000E+01 0.  0.
<mgrwt>
<rscale>  0 0.12499281E+03</rscale>
<asrwt>0</asrwt>
<pdfrwt beam="2">  1        4 0.86836253E-02 0.12499281E+03</pdfrwt>
<pdfrwt beam="1">  1       -4 0.10645898E-01 0.12499281E+03</pdfrwt>
<totfact> 0.10440516E+04</totfact>
</mgrwt>
</event>
<event>
 5    1  0.3243498E-002  0.1249987E+03  0.7818608E-02  0.1235071E+00
          4   -1    0    0  501    0  0.00000000000E+00  0.00000000000E+00  0.22564762177E+02  0.22600473272E+02  0.12700000000E+01 0.  1.
         -4   -1    0    0    0  501 -0.00000000000E+00 -0.00000000000E+00 -0.17293422404E+03  0.17293888731E+03  0.12700000000E+01 0.  1.
         25    2    1    2    0    0  0.00000000000E+00  0.00000000000E+00 -0.15036946186E+03  0.19553936058E+03  0.12499866590E+03 0.  0.
    9000005    1    3    3    0    0  0.16401009133E+02  0.60284426511E+02 -0.72993863153E+02  0.96084906402E+02  0.10000000000E+01 0.  0.
    9000005    1    3    3    0    0 -0.16401009133E+02 -0.60284426511E+02 -0.77375598707E+02  0.99454454177E+02  0.10000000000E+01 0.  0.
<mgrwt>
<rscale>  0 0.12499867E+03</rscale>
<asrwt>0</asrwt>
<pdfrwt beam="1">  1        4 0.34746077E-02 0.12499867E+03</pdfrwt>
<pdfrwt beam="2">  1       -4 0.26608370E-01 0.12499867E+03</pdfrwt>
<totfact> 0.90895032E+03</totfact>
</mgrwt>
</event>
<event>
 5    1  0.3243498E-002  0.1250420E+03  0.7818608E-02  0.1235004E+00
          4   -1    0    0  501    0  0.00000000000E+00  0.00000000000E+00  0.11577636851E+03  0.11578333388E+03  0.12700000000E+01 0.  1.
         -4   -1    0    0    0  501 -0.00000000000E+00 -0.00000000000E+00 -0.33742344662E+02  0.33766236440E+02  0.12700000000E+01 0.  1.
         25    2    1    2    0    0  0.00000000000E+00  0.00000000000E+00  0.82034023846E+02  0.14954957032E+03  0.12504196462E+03 0.  0.
    9000005    1    3    3    0    0 -0.98339829860E+01  0.94162585013E+01 -0.31953390123E+02  0.34747550789E+02  0.10000000000E+01 0.  0.
    9000005    1    3    3    0    0  0.98339829860E+01 -0.94162585013E+01  0.11398741397E+03  0.11480201953E+03  0.10000000000E+01 0.  0.
<mgrwt>
<rscale>  0 0.12504196E+03</rscale>
<asrwt>0</asrwt>
<pdfrwt beam="1">  1        4 0.17814123E-01 0.12504196E+03</pdfrwt>
<pdfrwt beam="2">  1       -4 0.51935036E-02 0.12504196E+03</pdfrwt>
<totfact> 0.99299742E+03</totfact>
</mgrwt>
</event>
<event>
 5    1  0.3243498E-002  0.1249994E+03  0.7818608E-02  0.1235070E+00
         -4   -1    0    0    0  501 -0.00000000000E+00  0.00000000000E+00  0.13007436484E+04  0.13007442684E+04  0.12700000000E+01 0. -1.
          4   -1    0    0  501    0  0.00000000000E+00 -0.00000000000E+00 -0.28681422228E+01  0.31367403160E+01  0.12700000000E+01 0. -1.
         25    2    1    2    0    0  0.00000000000E+00  0.00000000000E+00  0.12978755061E+04  0.13038810087E+04  0.12499942133E+03 0.  0.
    9000005    1    3    3    0    0 -0.32598048852E+02 -0.51454429346E+02  0.50326692478E+03  0.50694061651E+03  0.10000000000E+01 0.  0.
    9000005    1    3    3    0    0  0.32598048852E+02  0.51454429346E+02  0.79460858136E+03  0.79694039216E+03  0.10000000000E+01 0.  0.
<mgrwt>
<rscale>  0 0.12499942E+03</rscale>
<asrwt>0</asrwt>
<pdfrwt beam="2">  1        4 0.46196112E-03 0.12499942E+03</pdfrwt>
<pdfrwt beam="1">  1       -4 0.20013538E+00 0.12499942E+03</pdfrwt>
<totfact> 0.22137340E+03</totfact>
</mgrwt>
</event>
<event>
 5    1  0.3243498E-002  0.1250394E+03  0.7818608E-02  0.1235008E+00
          4   -1    0    0  501    0  0.00000000000E+00  0.00000000000E+00  0.14239445475E+02  0.14295968223E+02  0.12700000000E+01 0. -1.
         -4   -1    0    0    0  501 -0.00000000000E+00 -0.00000000000E+00 -0.27389738811E+03  0.27390033244E+03  0.12700000000E+01 0. -1.
         25    2    1    2    0    0  0.00000000000E+00  0.00000000000E+00 -0.25965794263E+03  0.28819630067E+03  0.12503943596E+03 0.  0.
    9000005    1    3    3    0    0  0.34061791700E+02 -0.48909000014E+02 -0.17328117819E+03  0.18324754473E+03  0.10000000000E+01 0.  0.
    9000005    1    3    3    0    0 -0.34061791700E+02  0.48909000014E+02 -0.86376764445E+02  0.10494875593E+03  0.10000000000E+01 0.  0.
<mgrwt>
<rscale>  0 0.12503944E+03</rscale>
<asrwt>0</asrwt>
<pdfrwt beam="1">  1        4 0.21952585E-02 0.12503944E+03</pdfrwt>
<pdfrwt beam="2">  1       -4 0.42142630E-01 0.12503944E+03</pdfrwt>
<totfact> 0.77036226E+03</totfact>
</mgrwt>
</event>
<event>
 5    1  0.3243498E-002  0.1249997E+03  0.7818608E-02  0.1235070E+00
          4   -1    0    0  501    0  0.00000000000E+00  0.00000000000E+00  0.33009869434E+02  0.33034290973E+02  0.12700000000E+01 0.  1.
         -4   -1    0    0    0  501 -0.00000000000E+00 -0.00000000000E+00 -0.11826363111E+03  0.11827045000E+03  0.12700000000E+01 0.  1.
         25    2    1    2    0    0  0.00000000000E+00  0.00000000000E+00 -0.85253761674E+02  0.15130474097E+03  0.12499968304E+03 0.  0.
    9000005    1    3    3    0    0 -0.33368309082E+02 -0.52253477804E+01 -0.10626985962E+03  0.11151247183E+03  0.10000000000E+01 0.  0.
    9000005    1    3    3    0    0  0.33368309082E+02  0.52253477804E+01  0.21016097946E+02  0.39792269140E+02  0.10000000000E+01 0.  0.
<mgrwt>
<rscale>  0 0.12499968E+03</rscale>
<asrwt>0</asrwt>
<pdfrwt beam="1">  1        4 0.50808446E-02 0.12499968E+03</pdfrwt>
<pdfrwt beam="2">  1       -4 0.18196808E-01 0.12499968E+03</pdfrwt>
<totfact> 0.99044957E+03</totfact>
</mgrwt>
</event>
<event>
 5    1  0.3243498E-002  0.1249994E+03  0.7818608E-02  0.1235070E+00
          4   -1    0    0  501    0  0.00000000000E+00  0.00000000000E+00  0.23873204748E+02  0.23906961433E+02  0.12700000000E+01 0. -1.
         -4   -1    0    0    0  501 -0.00000000000E+00 -0.00000000000E+00 -0.16347140786E+03  0.16347634107E+03  0.12700000000E+01 0. -1.
         25    2    1    2    0    0  0.00000000000E+00  0.00000000000E+00 -0.13959820312E+03  0.18738330250E+03  0.12499937497E+03 0.  0.
    9000005    1    3    3    0    0 -0.21764726699E+02  0.39730907790E+02 -0.13432831495E+03  0.14176510347E+03  0.10000000000E+01 0.  0.
    9000005    1    3    3    0    0  0.21764726699E+02 -0.39730907790E+02 -0.52698881617E+01  0.45618199036E+02  0.10000000000E+01 0.  0.
<mgrwt>
<rscale>  0 0.12499937E+03</rscale>
<asrwt>0</asrwt>
<pdfrwt beam="1">  1        4 0.36757770E-02 0.12499937E+03</pdfrwt>
<pdfrwt beam="2">  1       -4 0.25152423E-01 0.12499937E+03</pdfrwt>
<totfact> 0.92305908E+03</totfact>
</mgrwt>
</event>
<event>
 5    1  0.3243498E-002  0.1249982E+03  0.7818608E-02  0.1235072E+00
         -4   -1    0    0    0  501 -0.00000000000E+00  0.00000000000E+00  0.44864483673E+03  0.44864663425E+03  0.12700000000E+01 0. -1.
          4   -1    0    0  501    0  0.00000000000E+00 -0.00000000000E+00 -0.86583888712E+01  0.87510341015E+01  0.12700000000E+01 0. -1.
         25    2    1    2    0    0  0.00000000000E+00  0.00000000000E+00  0.43998644786E+03  0.45739766835E+03  0.12499821085E+03 0.  0.
    9000005    1    3    3    0    0  0.41477156050E+02  0.46567050819E+02  0.20522265879E+03  0.21449052282E+03  0.10000000000E+01 0.  0.
    9000005    1    3    3    0    0 -0.41477156050E+02 -0.46567050819E+02  0.23476378906E+03  0.24290714553E+03  0.10000000000E+01 0.  0.
<mgrwt>
<rscale>  0 0.12499821E+03</rscale>
<asrwt>0</asrwt>
<pdfrwt beam="2">  1        4 0.13393247E-02 0.12499821E+03</pdfrwt>
<pdfrwt beam="1">  1       -4 0.69029547E-01 0.12499821E+03</pdfrwt>
<totfact> 0.59330586E+03</totfact>
</mgrwt>
</event>
<event>
 5    1  0.3243498E-002  0.1249942E+03  0.7818608E-02  0.1235078E+00
         -4   -1    0    0    0  501 -0.00000000000E+00  0.00000000000E+00  0.89118543057E+01  0.90018913105E+01  0.12700000000E+01 0. -1.
          4   -1    0    0  501    0  0.00000000000E+00 -0.00000000000E+00 -0.43598645386E+03  0.43598830357E+03  0.12700000000E+01 0. -1.
         25    2    1    2    0    0  0.00000000000E+00  0.00000000000E+00 -0.42707459955E+03  0.44499019488E+03  0.12499423969E+03 0.  0.
    9000005    1    3    3    0    0  0.47044478743E+02 -0.10273796849E+02 -0.71751281591E+02  0.86417476773E+02  0.10000000000E+01 0.  0.
    9000005    1    3    3    0    0 -0.47044478743E+02  0.10273796849E+02 -0.35532331796E+03  0.35857271811E+03  0.10000000000E+01 0.  0.
<mgrwt>
<rscale>  0 0.12499424E+03</rscale>
<asrwt>0</asrwt>
<pdfrwt beam="2">  1        4 0.67081891E-01 0.12499424E+03</pdfrwt>
<pdfrwt beam="1">  1       -4 0.13781231E-02 0.12499424E+03</pdfrwt>
<totfact> 0.60407938E+03</totfact>
</mgrwt>
</event>
<event>
 5    1  0.3243498E-002  0.1250006E+03  0.7818608E-02  0.1235068E+00
         -4   -1    0    0    0  501 -0.00000000000E+00  0.00000000000E+00  0.11981739126E+02  0.12048857725E+02  0.12700000000E+01 0.  1.
          4   -1    0    0  501    0  0.00000000000E+00 -0.00000000000E+00 -0.32504091271E+03  0.32504339377E+03  0.12700000000E+01 0.  1.
         25    2    1    2    0    0  0.00000000000E+00  0.00000000000E+00 -0.31305917358E+03  0.33709225149E+03  0.12500055942E+03 0.  0.
    9000005    1    3    3    0    0  0.37009014032E+02  0.35586755895E+02 -0.60456453260E+02  0.79322550738E+02  0.10000000000E+01 0.  0.
    9000005    1    3    3    0    0 -0.37009014032E+02 -0.35586755895E+02 -0.25260272032E+03  0.25776970076E+03  0.10000000000E+01 0.  0.
<mgrwt>
<rscale>  0 0.12500056E+03</rscale>
<asrwt>0</asrwt>
<pdfrwt beam="2">  1        4 0.50011641E-01 0.12500056E+03</pdfrwt>
<pdfrwt beam="1">  1       -4 0.18486985E-02 0.12500056E+03</pdfrwt>
<totfact> 0.71167426E+03</totfact>
</mgrwt>
</event>
<event>
 4    1  0.3243498E-002  0.1249116E+03  0.7818608E-02  0.1235207E+00
         -4   -1    0    0    0  501 -0.00000000000E+00  0.00000000000E+00  0.27971401367E+03  0.27971689678E+03  0.12700000000E+01 0. -1.
          4   -1    0    0  501    0  0.00000000000E+00 -0.00000000000E+00 -0.13913537072E+02  0.13971378380E+02  0.12700000000E+01 0. -1.
    9000005    1    1    2    0    0  0.11748586561E+02 -0.59147195864E+02  0.17105206112E+03  0.18137317243E+03  0.10000000000E+01 0.  0.
    9000005    1    1    2    0    0 -0.11748586561E+02  0.59147195864E+02  0.94748415477E+02  0.11231510272E+03  0.10000000000E+01 0.  0.
<mgrwt>
<rscale>  0 0.12491161E+03</rscale>
<asrwt>0</asrwt>
<pdfrwt beam="2">  1        4 0.21452153E-02 0.12491161E+03</pdfrwt>
<pdfrwt beam="1">  1       -4 0.43037595E-01 0.12491161E+03</pdfrwt>
<totfact> 0.76547618E+03</totfact>
</mgrwt>
</event>
<event>
 5    1  0.3243498E-002  0.1249989E+03  0.7818608E-02  0.1235071E+00
          4   -1    0    0  501    0  0.00000000000E+00  0.00000000000E+00  0.95123262263E+02  0.95131739832E+02  0.12700000000E+01 0.  1.
         -4   -1    0    0    0  501 -0.00000000000E+00 -0.00000000000E+00 -0.41044290013E+02  0.41063933600E+02  0.12700000000E+01 0.  1.
         25    2    1    2    0    0  0.00000000000E+00  0.00000000000E+00  0.54078972250E+02  0.13619567343E+03  0.12499890488E+03 0.  0.
    9000005    1    3    3    0    0 -0.55725300880E+02  0.15126777263E+02  0.53076748210E+02  0.78436405764E+02  0.10000000000E+01 0.  0.
    9000005    1    3    3    0    0  0.55725300880E+02 -0.15126777263E+02  0.10022240397E+01  0.57759267668E+02  0.10000000000E+01 0.  0.
<mgrwt>
<rscale>  0 0.12499890E+03</rscale>
<asrwt>0</asrwt>
<pdfrwt beam="1">  1        4 0.14636511E-01 0.12499890E+03</pdfrwt>
<pdfrwt beam="2">  1       -4 0.63166693E-02 0.12499890E+03</pdfrwt>
<totfact> 0.10213182E+04</totfact>
</mgrwt>
</event>
<event>
 5    1  0.3243498E-002  0.1249990E+03  0.7818608E-02  0.1235071E+00
         -4   -1    0    0    0  501 -0.00000000000E+00  0.00000000000E+00  0.92484155482E+02  0.92492874943E+02  0.12700000000E+01 0. -1.
          4   -1    0    0  501    0  0.00000000000E+00 -0.00000000000E+00 -0.42216005339E+02  0.42235103963E+02  0.12700000000E+01 0. -1.
         25    2    1    2    0    0  0.00000000000E+00  0.00000000000E+00  0.50268150144E+02  0.13472797891E+03  0.12499896552E+03 0.  0.
    9000005    1    3    3    0    0  0.25945809972E+02  0.31957693231E+02 -0.25543623509E+02  0.48455710847E+02  0.10000000000E+01 0.  0.
    9000005    1    3    3    0    0 -0.25945809972E+02 -0.31957693231E+02  0.75811773653E+02  0.86272268059E+02  0.10000000000E+01 0.  0.
<mgrwt>
<rscale>  0 0.12499897E+03</rscale>
<asrwt>0</asrwt>
<pdfrwt beam="2">  1        4 0.64969100E-02 0.12499897E+03</pdfrwt>
<pdfrwt beam="1">  1       -4 0.14230471E-01 0.12499897E+03</pdfrwt>
<totfact> 0.10244047E+04</totfact>
</mgrwt>
</event>
<event>
 5    1  0.3243498E-002  0.1250014E+03  0.7818608E-02  0.1235067E+00
         -4   -1    0    0    0  501 -0.00000000000E+00  0.00000000000E+00  0.39192165673E+02  0.39212737090E+02  0.12700000000E+01 0.  1.
          4   -1    0    0  501    0  0.00000000000E+00 -0.00000000000E+00 -0.99620548160E+02  0.99628643049E+02  0.12700000000E+01 0.  1.
         25    2    1    2    0    0  0.00000000000E+00  0.00000000000E+00 -0.60428382488E+02  0.13884138014E+03  0.12500135771E+03 0.  0.
    9000005    1    3    3    0    0 -0.57983923387E+02 -0.13240958966E+02 -0.89104827953E+01  0.60148608207E+02  0.10000000000E+01 0.  0.
    9000005    1    3    3    0    0  0.57983923387E+02  0.13240958966E+02 -0.51517899692E+02  0.78692771932E+02  0.10000000000E+01 0.  0.
<mgrwt>
<rscale>  0 0.12500136E+03</rscale>
<asrwt>0</asrwt>
<pdfrwt beam="2">  1        4 0.15328443E-01 0.12500136E+03</pdfrwt>
<pdfrwt beam="1">  1       -4 0.60317691E-02 0.12500136E+03</pdfrwt>
<totfact> 0.10157345E+04</totfact>
</mgrwt>
</event>
<event>
 5    1  0.3243498E-002  0.1249978E+03  0.7818608E-02  0.1235073E+00
         -4   -1    0    0    0  501 -0.00000000000E+00  0.00000000000E+00  0.59971185468E+03  0.59971319940E+03  0.12700000000E+01 0. -1.
          4   -1    0    0  501    0  0.00000000000E+00 -0.00000000000E+00 -0.64500426330E+01  0.65738839332E+01  0.12700000000E+01 0. -1.
         25    2    1    2    0    0  0.00000000000E+00  0.00000000000E+00  0.59326181204E+03  0.60628708334E+03  0.12499779915E+03 0.  0.
    9000005    1    3    3    0    0 -0.37000459312E+02 -0.41649297452E+02  0.15932015512E+03  0.16878272955E+03  0.10000000000E+01 0.  0.
    9000005    1    3    3    0    0  0.37000459312E+02  0.41649297452E+02  0.43394165693E+03  0.43750435379E+03  0.10000000000E+01 0.  0.
<mgrwt>
<rscale>  0 0.12499780E+03</rscale>
<asrwt>0</asrwt>
<pdfrwt beam="2">  1        4 0.10019440E-02 0.12499780E+03</pdfrwt>
<pdfrwt beam="1">  1       -4 0.92272991E-01 0.12499780E+03</pdfrwt>
<totfact> 0.48475480E+03</totfact>
</mgrwt>
</event>
<event>
 5    1  0.3243498E-002  0.1249983E+03  0.7818608E-02  0.1235072E+00
          4   -1    0    0  501    0  0.00000000000E+00  0.00000000000E+00  0.31564394134E+01  0.34023535634E+01  0.12700000000E+01 0.  1.
         -4   -1    0    0    0  501 -0.00000000000E+00 -0.00000000000E+00 -0.11908711423E+04  0.11908718195E+04  0.12700000000E+01 0.  1.
         25    2    1    2    0    0  0.00000000000E+00  0.00000000000E+00 -0.11877147029E+04  0.11942741731E+04  0.12499833990E+03 0.  0.
    9000005    1    3    3    0    0  0.28954594444E+02  0.27126970783E+02 -0.13258003650E+03  0.13839330606E+03  0.10000000000E+01 0.  0.
    9000005    1    3    3    0    0 -0.28954594444E+02 -0.27126970783E+02 -0.10551346664E+04  0.10558808670E+04  0.10000000000E+01 0.  0.
<mgrwt>
<rscale>  0 0.12499834E+03</rscale>
<asrwt>0</asrwt>
<pdfrwt beam="1">  1        4 0.50457558E-03 0.12499834E+03</pdfrwt>
<pdfrwt beam="2">  1       -4 0.18322957E+00 0.12499834E+03</pdfrwt>
<totfact> 0.24864073E+03</totfact>
</mgrwt>
</event>
<event>
 5    1  0.3243498E-002  0.1250004E+03  0.7818608E-02  0.1235069E+00
          4   -1    0    0  501    0  0.00000000000E+00  0.00000000000E+00  0.11674514415E+02  0.11743389069E+02  0.12700000000E+01 0. -1.
         -4   -1    0    0    0  501 -0.00000000000E+00 -0.00000000000E+00 -0.33354450876E+03  0.33354692657E+03  0.12700000000E+01 0. -1.
         25    2    1    2    0    0  0.00000000000E+00  0.00000000000E+00 -0.32186999435E+03  0.34529031564E+03  0.12500043526E+03 0.  0.
    9000005    1    3    3    0    0 -0.18084599668E+02  0.28112033873E+02 -0.15082311956E+02  0.36685355765E+02  0.10000000000E+01 0.  0.
    9000005    1    3    3    0    0  0.18084599668E+02 -0.28112033873E+02 -0.30678768239E+03  0.30860495988E+03  0.10000000000E+01 0.  0.
<mgrwt>
<rscale>  0 0.12500044E+03</rscale>
<asrwt>0</asrwt>
<pdfrwt beam="1">  1        4 0.18015634E-02 0.12500044E+03</pdfrwt>
<pdfrwt beam="2">  1       -4 0.51320017E-01 0.12500044E+03</pdfrwt>
<totfact> 0.70245131E+03</totfact>
</mgrwt>
</event>
<event>
 5    1  0.3243498E-002  0.1250001E+03  0.7818608E-02  0.1235069E+00
         -4   -1    0    0    0  501 -0.00000000000E+00  0.00000000000E+00  0.18286779681E+03  0.18287220677E+03  0.12700000000E+01 0.  1.
          4   -1    0    0  501    0  0.00000000000E+00 -0.00000000000E+00 -0.21337559965E+02  0.21375321408E+02  0.12700000000E+01 0.  1.
         25    2    1    2    0    0  0.00000000000E+00  0.00000000000E+00  0.16153023685E+03  0.20424752818E+03  0.12500014141E+03 0.  0.
    9000005    1    3    3    0    0 -0.79742654542E+01 -0.55936173914E+02  0.12439002703E+03  0.13662475357E+03  0.10000000000E+01 0.  0.
    9000005    1    3    3    0    0  0.79742654542E+01  0.55936173914E+02  0.37140209811E+02  0.67622774614E+02  0.10000000000E+01 0.  0.
<mgrwt>
<rscale>  0 0.12500014E+03</rscale>
<asrwt>0</asrwt>
<pdfrwt beam="2">  1        4 0.32859456E-02 0.12500014E+03</pdfrwt>
<pdfrwt beam="1">  1       -4 0.28136751E-01 0.12500014E+03</pdfrwt>
<totfact> 0.89423755E+03</totfact>
</mgrwt>
</event>
<event>
 5    1  0.3243498E-002  0.1249952E+03  0.7818608E-02  0.1235077E+00
         -4   -1    0    0    0  501 -0.00000000000E+00  0.00000000000E+00  0.31333715186E+02  0.31359442077E+02  0.12700000000E+01 0.  1.
          4   -1    0    0  501    0  0.00000000000E+00 -0.00000000000E+00 -0.12457625546E+03  0.12458272884E+03  0.12700000000E+01 0.  1.
         25    2    1    2    0    0  0.00000000000E+00  0.00000000000E+00 -0.93242540278E+02  0.15594217092E+03  0.12499515732E+03 0.  0.
    9000005    1    3    3    0    0 -0.16143557948E+02 -0.30546928306E+02  0.18339716386E+02  0.39128946948E+02  0.10000000000E+01 0.  0.
    9000005    1    3    3    0    0  0.16143557948E+02  0.30546928306E+02 -0.11158225666E+03  0.11681322397E+03  0.10000000000E+01 0.  0.
<mgrwt>
<rscale>  0 0.12499516E+03</rscale>
<asrwt>0</asrwt>
<pdfrwt beam="2">  1        4 0.19168054E-01 0.12499516E+03</pdfrwt>
<pdfrwt beam="1">  1       -4 0.48230486E-02 0.12499516E+03</pdfrwt>
<totfact> 0.98141543E+03</totfact>
</mgrwt>
</event>
<event>
 5    1  0.3243498E-002  0.1250005E+03  0.7818608E-02  0.1235068E+00
          4   -1    0    0  501    0  0.00000000000E+00  0.00000000000E+00  0.19480912171E+02  0.19522265212E+02  0.12700000000E+01 0.  1.
         -4   -1    0    0    0  501 -0.00000000000E+00 -0.00000000000E+00 -0.20026248228E+03  0.20026650920E+03  0.12700000000E+01 0.  1.
         25    2    1    2    0    0  0.00000000000E+00  0.00000000000E+00 -0.18078157011E+03  0.21978877441E+03  0.12500051707E+03 0.  0.
    9000005    1    3    3    0    0 -0.20900572303E+02  0.36031505978E+02 -0.84799273965E+01  0.42520730406E+02  0.10000000000E+01 0.  0.
    9000005    1    3    3    0    0  0.20900572303E+02 -0.36031505978E+02 -0.17230164271E+03  0.17726804401E+03  0.10000000000E+01 0.  0.
<mgrwt>
<rscale>  0 0.12500052E+03</rscale>
<asrwt>0</asrwt>
<pdfrwt beam="1">  1        4 0.30005543E-02 0.12500052E+03</pdfrwt>
<pdfrwt beam="2">  1       -4 0.30813102E-01 0.12500052E+03</pdfrwt>
<totfact> 0.86900781E+03</totfact>
</mgrwt>
</event>
<event>
 5    1  0.3243498E-002  0.1250059E+03  0.7818608E-02  0.1235060E+00
         -4   -1    0    0    0  501 -0.00000000000E+00  0.00000000000E+00  0.63101017557E+03  0.63101145360E+03  0.12700000000E+01 0.  1.
          4   -1    0    0  501    0  0.00000000000E+00 -0.00000000000E+00 -0.61246275460E+01  0.62549150736E+01  0.12700000000E+01 0.  1.
         25    2    1    2    0    0  0.00000000000E+00  0.00000000000E+00  0.62488554802E+03  0.63726636867E+03  0.12500590591E+03 0.  0.
    9000005    1    3    3    0    0 -0.37520072062E+02  0.49880509586E+02  0.29648541401E+03  0.30298584417E+03  0.10000000000E+01 0.  0.
    9000005    1    3    3    0    0  0.37520072062E+02 -0.49880509586E+02  0.32840013401E+03  0.33428052450E+03  0.10000000000E+01 0.  0.
<mgrwt>
<rscale>  0 0.12500591E+03</rscale>
<asrwt>0</asrwt>
<pdfrwt beam="2">  1        4 0.95237098E-03 0.12500591E+03</pdfrwt>
<pdfrwt beam="1">  1       -4 0.97088592E-01 0.12500591E+03</pdfrwt>
<totfact> 0.46590649E+03</totfact>
</mgrwt>
</event>
<event>
 5    1  0.3243498E-002  0.1250009E+03  0.7818608E-02  0.1235068E+00
         -4   -1    0    0    0  501 -0.00000000000E+00  0.00000000000E+00  0.42163181180E+03  0.42163372448E+03  0.12700000000E+01 0. -1.
          4   -1    0    0  501    0  0.00000000000E+00 -0.00000000000E+00 -0.92192653234E+01  0.93063286587E+01  0.12700000000E+01 0. -1.
         25    2    1    2    0    0  0.00000000000E+00  0.00000000000E+00  0.41241254648E+03  0.43094005314E+03  0.12500088364E+03 0.  0.
    9000005    1    3    3    0    0 -0.53229703190E+02 -0.25645715123E+02  0.13604306071E+03  0.14832335748E+03  0.10000000000E+01 0.  0.
    9000005    1    3    3    0    0  0.53229703190E+02  0.25645715123E+02  0.27636948576E+03  0.28261669566E+03  0.10000000000E+01 0.  0.
<mgrwt>
<rscale>  0 0.12500088E+03</rscale>
<asrwt>0</asrwt>
<pdfrwt beam="2">  1        4 0.14251929E-02 0.12500088E+03</pdfrwt>
<pdfrwt beam="1">  1       -4 0.64873274E-01 0.12500088E+03</pdfrwt>
<totfact> 0.61649673E+03</totfact>
</mgrwt>
</event>
<event>
 5    1  0.3243498E-002  0.1249981E+03  0.7818608E-02  0.1235072E+00
         -4   -1    0    0    0  501 -0.00000000000E+00  0.00000000000E+00  0.26105795631E+03  0.26106104545E+03  0.12700000000E+01 0.  1.
          4   -1    0    0  501    0  0.00000000000E+00 -0.00000000000E+00 -0.14932575755E+02  0.14986484534E+02  0.12700000000E+01 0.  1.
         25    2    1    2    0    0  0.00000000000E+00  0.00000000000E+00  0.24612538055E+03  0.27604752998E+03  0.12499814342E+03 0.  0.
    9000005    1    3    3    0    0  0.52185100148E+01  0.54750347848E+02  0.18858599363E+03  0.19644467524E+03  0.10000000000E+01 0.  0.
    9000005    1    3    3    0    0 -0.52185100148E+01 -0.54750347848E+02  0.57539386924E+02  0.79602854747E+02  0.10000000000E+01 0.  0.
<mgrwt>
<rscale>  0 0.12499814E+03</rscale>
<asrwt>0</asrwt>
<pdfrwt beam="2">  1        4 0.23017038E-02 0.12499814E+03</pdfrwt>
<pdfrwt beam="1">  1       -4 0.40167147E-01 0.12499814E+03</pdfrwt>
<totfact> 0.78708357E+03</totfact>
</mgrwt>
</event>
<event>
 5    1  0.3243498E-002  0.1250031E+03  0.7818608E-02  0.1235064E+00
         -4   -1    0    0    0  501 -0.00000000000E+00  0.00000000000E+00  0.18429680678E+02  0.18473387071E+02  0.12700000000E+01 0.  1.
          4   -1    0    0  501    0  0.00000000000E+00 -0.00000000000E+00 -0.21166813017E+03  0.21167194011E+03  0.12700000000E+01 0.  1.
         25    2    1    2    0    0  0.00000000000E+00  0.00000000000E+00 -0.19323844949E+03  0.23014532718E+03  0.12500309301E+03 0.  0.
    9000005    1    3    3    0    0  0.42033288696E+01  0.41255844058E+02 -0.18269475878E+03  0.18734483587E+03  0.10000000000E+01 0.  0.
    9000005    1    3    3    0    0 -0.42033288696E+01 -0.41255844058E+02 -0.10543690714E+02  0.42800491310E+02  0.10000000000E+01 0.  0.
<mgrwt>
<rscale>  0 0.12500309E+03</rscale>
<asrwt>0</asrwt>
<pdfrwt beam="2">  1        4 0.32567981E-01 0.12500309E+03</pdfrwt>
<pdfrwt beam="1">  1       -4 0.28389907E-02 0.12500309E+03</pdfrwt>
<totfact> 0.85281402E+03</totfact>
</mgrwt>
</event>
<event>
 5    1  0.3243498E-002  0.1250003E+03  0.7818608E-02  0.1235069E+00
          4   -1    0    0  501    0  0.00000000000E+00  0.00000000000E+00  0.16917437644E+03  0.16917914334E+03  0.12700000000E+01 0. -1.
         -4   -1    0    0    0  501 -0.00000000000E+00 -0.00000000000E+00 -0.23067640072E+02  0.23102573850E+02  0.12700000000E+01 0. -1.
         25    2    1    2    0    0  0.00000000000E+00  0.00000000000E+00  0.14610673636E+03  0.19228171719E+03  0.12500032142E+03 0.  0.
    9000005    1    3    3    0    0 -0.57623581428E+02 -0.23224276283E+02  0.83420982689E+02  0.10401876993E+03  0.10000000000E+01 0.  0.
    9000005    1    3    3    0    0  0.57623581428E+02  0.23224276283E+02  0.62685753674E+02  0.88262947261E+02  0.10000000000E+01 0.  0.
<mgrwt>
<rscale>  0 0.12500032E+03</rscale>
<asrwt>0</asrwt>
<pdfrwt beam="1">  1        4 0.26029880E-01 0.12500032E+03</pdfrwt>
<pdfrwt beam="2">  1       -4 0.35519217E-02 0.12500032E+03</pdfrwt>
<totfact> 0.91451154E+03</totfact>
</mgrwt>
</event>
<event>
 5    1  0.3243498E-002  0.1249989E+03  0.7818608E-02  0.1235071E+00
          4   -1    0    0  501    0  0.00000000000E+00  0.00000000000E+00  0.14275434732E+03  0.14275999643E+03  0.12700000000E+01 0.  1.
         -4   -1    0    0    0  501 -0.00000000000E+00 -0.00000000000E+00 -0.27342041375E+02  0.27371520355E+02  0.12700000000E+01 0.  1.
         25    2    1    2    0    0  0.00000000000E+00  0.00000000000E+00  0.11541230595E+03  0.17013151678E+03  0.12499893055E+03 0.  0.
    9000005    1    3    3    0    0 -0.53945521650E+02 -0.13308816939E+02  0.96632083190E+02  0.11147198489E+03  0.10000000000E+01 0.  0.
    9000005    1    3    3    0    0  0.53945521650E+02  0.13308816939E+02  0.18780222759E+02  0.58659531888E+02  0.10000000000E+01 0.  0.
<mgrwt>
<rscale>  0 0.12499893E+03</rscale>
<asrwt>0</asrwt>
<pdfrwt beam="1">  1        4 0.21964910E-01 0.12499893E+03</pdfrwt>
<pdfrwt beam="2">  1       -4 0.42091700E-02 0.12499893E+03</pdfrwt>
<totfact> 0.95426419E+03</totfact>
</mgrwt>
</event>
<event>
 5    1  0.3243498E-002  0.1250016E+03  0.7818608E-02  0.1235067E+00
         -4   -1    0    0    0  501 -0.00000000000E+00  0.00000000000E+00  0.79885954369E+02  0.79896048748E+02  0.12700000000E+01 0.  1.
          4   -1    0    0  501    0  0.00000000000E+00 -0.00000000000E+00 -0.48877671834E+02  0.48894168404E+02  0.12700000000E+01 0.  1.
         25    2    1    2    0    0  0.00000000000E+00  0.00000000000E+00  0.31008282535E+02  0.12879021715E+03  0.12500162578E+03 0.  0.
    9000005    1    3    3    0    0  0.21861004856E+02  0.50000716280E+02  0.46879972881E+02  0.71949336474E+02  0.10000000000E+01 0.  0.
    9000005    1    3    3    0    0 -0.21861004856E+02 -0.50000716280E+02 -0.15871690345E+02  0.56840880678E+02  0.10000000000E+01 0.  0.
<mgrwt>
<rscale>  0 0.12500163E+03</rscale>
<asrwt>0</asrwt>
<pdfrwt beam="2">  1        4 0.75216874E-02 0.12500163E+03</pdfrwt>
<pdfrwt beam="1">  1       -4 0.12292192E-01 0.12500163E+03</pdfrwt>
<totfact> 0.10370076E+04</totfact>
</mgrwt>
</event>
<event>
 5    1  0.3243498E-002  0.1250014E+03  0.7818608E-02  0.1235067E+00
          4   -1    0    0  501    0  0.00000000000E+00  0.00000000000E+00  0.47812505768E+02  0.47829369720E+02  0.12700000000E+01 0. -1.
         -4   -1    0    0    0  501 -0.00000000000E+00 -0.00000000000E+00 -0.81664954570E+02  0.81674829078E+02  0.12700000000E+01 0. -1.
         25    2    1    2    0    0  0.00000000000E+00  0.00000000000E+00 -0.33852448802E+02  0.12950419880E+03  0.12500139686E+03 0.  0.
    9000005    1    3    3    0    0  0.45513785574E+02  0.41045764261E+02 -0.42766602297E+01  0.61445498320E+02  0.10000000000E+01 0.  0.
    9000005    1    3    3    0    0 -0.45513785574E+02 -0.41045764261E+02 -0.29575788572E+02  0.68058700478E+02  0.10000000000E+01 0.  0.
<mgrwt>
<rscale>  0 0.12500140E+03</rscale>
<asrwt>0</asrwt>
<pdfrwt beam="1">  1        4 0.73578269E-02 0.12500140E+03</pdfrwt>
<pdfrwt beam="2">  1       -4 0.12565896E-01 0.12500140E+03</pdfrwt>
<totfact> 0.10354799E+04</totfact>
</mgrwt>
</event>
<event>
 5    1  0.3243498E-002  0.1249921E+03  0.7818608E-02  0.1235082E+00
         -4   -1    0    0    0  501 -0.00000000000E+00  0.00000000000E+00  0.79681283114E+02  0.79691403418E+02  0.12700000000E+01 0.  1.
          4   -1    0    0  501    0  0.00000000000E+00 -0.00000000000E+00 -0.48995776725E+02  0.49012233543E+02  0.12700000000E+01 0.  1.
         25    2    1    2    0    0  0.00000000000E+00  0.00000000000E+00  0.30685506389E+02  0.12870363696E+03  0.12499210321E+03 0.  0.
    9000005    1    3    3    0    0 -0.23631263764E+02  0.28357992754E+02  0.67259602068E+02  0.76729827645E+02  0.10000000000E+01 0.  0.
    9000005    1    3    3    0    0  0.23631263764E+02 -0.28357992754E+02 -0.36574095678E+02  0.51973809316E+02  0.10000000000E+01 0.  0.
<mgrwt>
<rscale>  0 0.12499210E+03</rscale>
<asrwt>0</asrwt>
<pdfrwt beam="2">  1        4 0.75398562E-02 0.12499210E+03</pdfrwt>
<pdfrwt beam="1">  1       -4 0.12260703E-01 0.12499210E+03</pdfrwt>
<totfact> 0.10374169E+04</totfact>
</mgrwt>
</event>
<event>
 5    1  0.3243498E-002  0.1250006E+03  0.7818608E-02  0.1235068E+00
          4   -1    0    0  501    0  0.00000000000E+00  0.00000000000E+00  0.21846838751E+01  0.25270028955E+01  0.12700000000E+01 0. -1.
         -4   -1    0    0    0  501 -0.00000000000E+00 -0.00000000000E+00 -0.16577847707E+04  0.16577852572E+04  0.12700000000E+01 0. -1.
         25    2    1    2    0    0  0.00000000000E+00  0.00000000000E+00 -0.16556000869E+04  0.16603122601E+04  0.12500061361E+03 0.  0.
    9000005    1    3    3    0    0  0.27961522448E+02 -0.49558175136E+02 -0.48465310312E+03  0.48798308355E+03  0.10000000000E+01 0.  0.
    9000005    1    3    3    0    0 -0.27961522448E+02  0.49558175136E+02 -0.11709469837E+04  0.11723291765E+04  0.10000000000E+01 0.  0.
<mgrwt>
<rscale>  0 0.12500061E+03</rscale>
<asrwt>0</asrwt>
<pdfrwt beam="1">  1        4 0.36247619E-03 0.12500061E+03</pdfrwt>
<pdfrwt beam="2">  1       -4 0.25506925E+00 0.12500061E+03</pdfrwt>
<totfact> 0.14980829E+03</totfact>
</mgrwt>
</event>
<event>
 5    1  0.3243498E-002  0.1250015E+03  0.7818608E-02  0.1235067E+00
         -4   -1    0    0    0  501 -0.00000000000E+00  0.00000000000E+00  0.15727406937E+02  0.15778600349E+02  0.12700000000E+01 0.  1.
          4   -1    0    0  501    0  0.00000000000E+00 -0.00000000000E+00 -0.24792154962E+03  0.24792480244E+03  0.12700000000E+01 0.  1.
         25    2    1    2    0    0  0.00000000000E+00  0.00000000000E+00 -0.23219414268E+03  0.26370340279E+03  0.12500145898E+03 0.  0.
    9000005    1    3    3    0    0 -0.52336013058E+02  0.16411782988E+02 -0.52916804900E+02  0.76220686985E+02  0.10000000000E+01 0.  0.
    9000005    1    3    3    0    0  0.52336013058E+02 -0.16411782988E+02 -0.17927733778E+03  0.18748271581E+03  0.10000000000E+01 0.  0.
<mgrwt>
<rscale>  0 0.12500146E+03</rscale>
<asrwt>0</asrwt>
<pdfrwt beam="2">  1        4 0.38145962E-01 0.12500146E+03</pdfrwt>
<pdfrwt beam="1">  1       -4 0.24237894E-02 0.12500146E+03</pdfrwt>
<totfact> 0.80386525E+03</totfact>
</mgrwt>
</event>
<event>
 5    1  0.3243498E-002  0.1249985E+03  0.7818608E-02  0.1235072E+00
         -4   -1    0    0    0  501 -0.00000000000E+00  0.00000000000E+00  0.20236462471E+02  0.20276274641E+02  0.12700000000E+01 0.  1.
          4   -1    0    0  501    0  0.00000000000E+00 -0.00000000000E+00 -0.19279404022E+03  0.19279822313E+03  0.12700000000E+01 0.  1.
         25    2    1    2    0    0  0.00000000000E+00  0.00000000000E+00 -0.17255757775E+03  0.21307449777E+03  0.12499849585E+03 0.  0.
    9000005    1    3    3    0    0  0.60558454688E+02 -0.12121790228E+02 -0.70027457743E+02  0.93376169714E+02  0.10000000000E+01 0.  0.
    9000005    1    3    3    0    0 -0.60558454688E+02  0.12121790228E+02 -0.10253012000E+03  0.11969832806E+03  0.10000000000E+01 0.  0.
<mgrwt>
<rscale>  0 0.12499850E+03</rscale>
<asrwt>0</asrwt>
<pdfrwt beam="2">  1        4 0.29664005E-01 0.12499850E+03</pdfrwt>
<pdfrwt beam="1">  1       -4 0.31166863E-02 0.12499850E+03</pdfrwt>
<totfact> 0.87979182E+03</totfact>
</mgrwt>
</event>
<event>
 5    1  0.3243498E-002  0.1249953E+03  0.7818608E-02  0.1235077E+00
          4   -1    0    0  501    0  0.00000000000E+00  0.00000000000E+00  0.26344810980E+01  0.29246180359E+01  0.12700000000E+01 0.  1.
         -4   -1    0    0    0  501 -0.00000000000E+00 -0.00000000000E+00 -0.14049564059E+04  0.14049569799E+04  0.12700000000E+01 0.  1.
         25    2    1    2    0    0  0.00000000000E+00  0.00000000000E+00 -0.14023219248E+04  0.14078815979E+04  0.12499525205E+03 0.  0.
    9000005    1    3    3    0    0  0.22126950629E+02 -0.24106356012E+02 -0.10152104225E+03  0.10666883502E+03  0.10000000000E+01 0.  0.
    9000005    1    3    3    0    0 -0.22126950629E+02  0.24106356012E+02 -0.13008008825E+04  0.13012127629E+04  0.10000000000E+01 0.  0.
<mgrwt>
<rscale>  0 0.12499525E+03</rscale>
<asrwt>0</asrwt>
<pdfrwt beam="1">  1        4 0.42766829E-03 0.12499525E+03</pdfrwt>
<pdfrwt beam="2">  1       -4 0.21616893E+00 0.12499525E+03</pdfrwt>
<totfact> 0.19814552E+03</totfact>
</mgrwt>
</event>
<event>
 5    1  0.3243498E-002  0.1249991E+03  0.7818608E-02  0.1235071E+00
         -4   -1    0    0    0  501 -0.00000000000E+00  0.00000000000E+00  0.10052174220E+03  0.10052976453E+03  0.12700000000E+01 0. -1.
          4   -1    0    0  501    0  0.00000000000E+00 -0.00000000000E+00 -0.38839244681E+02  0.38860002926E+02  0.12700000000E+01 0. -1.
         25    2    1    2    0    0  0.00000000000E+00  0.00000000000E+00  0.61682497523E+02  0.13938976745E+03  0.12499910708E+03 0.  0.
    9000005    1    3    3    0    0  0.61138756951E+02 -0.11966388645E+02  0.36310158902E+02  0.72114975548E+02  0.10000000000E+01 0.  0.
    9000005    1    3    3    0    0 -0.61138756951E+02  0.11966388645E+02  0.25372338621E+02  0.67274791905E+02  0.10000000000E+01 0.  0.
<mgrwt>
<rscale>  0 0.12499911E+03</rscale>
<asrwt>0</asrwt>
<pdfrwt beam="2">  1        4 0.59774823E-02 0.12499911E+03</pdfrwt>
<pdfrwt beam="1">  1       -4 0.15467097E-01 0.12499911E+03</pdfrwt>
<totfact> 0.10146453E+04</totfact>
</mgrwt>
</event>
<event>
 5    1  0.3243498E-002  0.1250003E+03  0.7818608E-02  0.1235069E+00
         -4   -1    0    0    0  501 -0.00000000000E+00  0.00000000000E+00  0.19231583898E+02  0.19273471904E+02  0.12700000000E+01 0. -1.
          4   -1    0    0  501    0  0.00000000000E+00 -0.00000000000E+00 -0.20285242664E+03  0.20285640215E+03  0.12700000000E+01 0. -1.
         25    2    1    2    0    0  0.00000000000E+00  0.00000000000E+00 -0.18362084274E+03  0.22212987406E+03  0.12500026823E+03 0.  0.
    9000005    1    3    3    0    0  0.41712350739E+02 -0.40120979331E+02 -0.13369923718E+03  0.14569179527E+03  0.10000000000E+01 0.  0.
    9000005    1    3    3    0    0 -0.41712350739E+02  0.40120979331E+02 -0.49921605567E+02  0.76438078789E+02  0.10000000000E+01 0.  0.
<mgrwt>
<rscale>  0 0.12500027E+03</rscale>
<asrwt>0</asrwt>
<pdfrwt beam="2">  1        4 0.31211592E-01 0.12500027E+03</pdfrwt>
<pdfrwt beam="1">  1       -4 0.29622333E-02 0.12500027E+03</pdfrwt>
<totfact> 0.86531925E+03</totfact>
</mgrwt>
</event>
<event>
 5    1  0.3243498E-002  0.1250002E+03  0.7818608E-02  0.1235069E+00
          4   -1    0    0  501    0  0.00000000000E+00  0.00000000000E+00  0.79084603624E+02  0.79094800274E+02  0.12700000000E+01 0. -1.
         -4   -1    0    0    0  501 -0.00000000000E+00 -0.00000000000E+00 -0.49371932316E+02  0.49388263794E+02  0.12700000000E+01 0. -1.
         25    2    1    2    0    0  0.00000000000E+00  0.00000000000E+00  0.29712671308E+02  0.12848306407E+03  0.12500021966E+03 0.  0.
    9000005    1    3    3    0    0  0.32516342790E+02 -0.53363759299E+02  0.14331849543E+02  0.64120240691E+02  0.10000000000E+01 0.  0.
    9000005    1    3    3    0    0 -0.32516342790E+02  0.53363759299E+02  0.15380821765E+02  0.64362823377E+02  0.10000000000E+01 0.  0.
<mgrwt>
<rscale>  0 0.12500022E+03</rscale>
<asrwt>0</asrwt>
<pdfrwt beam="1">  1        4 0.12168903E-01 0.12500022E+03</pdfrwt>
<pdfrwt beam="2">  1       -4 0.75977226E-02 0.12500022E+03</pdfrwt>
<totfact> 0.10377017E+04</totfact>
</mgrwt>
</event>
<event>
 5    1  0.3243498E-002  0.1249995E+03  0.7818608E-02  0.1235070E+00
          4   -1    0    0  501    0  0.00000000000E+00  0.00000000000E+00  0.13869575143E+02  0.13927599027E+02  0.12700000000E+01 0. -1.
         -4   -1    0    0    0  501 -0.00000000000E+00 -0.00000000000E+00 -0.28099204911E+03  0.28099491910E+03  0.12700000000E+01 0. -1.
         25    2    1    2    0    0  0.00000000000E+00  0.00000000000E+00 -0.26712247396E+03  0.29492251813E+03  0.12499950241E+03 0.  0.
    9000005    1    3    3    0    0  0.28239057324E+02 -0.55393560231E+02 -0.11876501870E+03  0.13405976481E+03  0.10000000000E+01 0.  0.
    9000005    1    3    3    0    0 -0.28239057324E+02  0.55393560231E+02 -0.14835745527E+03  0.16086275332E+03  0.10000000000E+01 0.  0.
<mgrwt>
<rscale>  0 0.12499950E+03</rscale>
<asrwt>0</asrwt>
<pdfrwt beam="1">  1        4 0.21384651E-02 0.12499950E+03</pdfrwt>
<pdfrwt beam="2">  1       -4 0.43234226E-01 0.12499950E+03</pdfrwt>
<totfact> 0.76241039E+03</totfact>
</mgrwt>
</event>
<event>
 5    1  0.3243498E-002  0.1249988E+03  0.7818608E-02  0.1235071E+00
         -4   -1    0    0    0  501 -0.00000000000E+00  0.00000000000E+00  0.38153534877E+02  0.38174665992E+02  0.12700000000E+01 0.  1.
          4   -1    0    0  501    0  0.00000000000E+00 -0.00000000000E+00 -0.10232701029E+03  0.10233489109E+03  0.12700000000E+01 0.  1.
         25    2    1    2    0    0  0.00000000000E+00  0.00000000000E+00 -0.64173475411E+02  0.14050955708E+03  0.12499880274E+03 0.  0.
    9000005    1    3    3    0    0  0.16016256896E+02  0.48581500810E+02  0.82630220428E+01  0.51826250484E+02  0.10000000000E+01 0.  0.
    9000005    1    3    3    0    0 -0.16016256896E+02 -0.48581500810E+02 -0.72436497454E+02  0.88683306599E+02  0.10000000000E+01 0.  0.
<mgrwt>
<rscale>  0 0.12499880E+03</rscale>
<asrwt>0</asrwt>
<pdfrwt beam="2">  1        4 0.15744849E-01 0.12499880E+03</pdfrwt>
<pdfrwt beam="1">  1       -4 0.58720063E-02 0.12499880E+03</pdfrwt>
<totfact> 0.10123309E+04</totfact>
</mgrwt>
</event>
<event>
 5    1  0.3243498E-002  0.1250023E+03  0.7818608E-02  0.1235066E+00
          4   -1    0    0  501    0  0.00000000000E+00  0.00000000000E+00  0.45108487768E+02  0.45126362237E+02  0.12700000000E+01 0.  1.
         -4   -1    0    0    0  501 -0.00000000000E+00 -0.00000000000E+00 -0.86560276257E+02  0.86569592385E+02  0.12700000000E+01 0.  1.
         25    2    1    2    0    0  0.00000000000E+00  0.00000000000E+00 -0.41451788488E+02  0.13169595462E+03  0.12500229476E+03 0.  0.
    9000005    1    3    3    0    0 -0.57855596188E+02 -0.16224167255E+02 -0.38818107391E+02  0.71542568271E+02  0.10000000000E+01 0.  0.
    9000005    1    3    3    0    0  0.57855596188E+02  0.16224167255E+02 -0.26336810976E+01  0.60153386351E+02  0.10000000000E+01 0.  0.
<mgrwt>
<rscale>  0 0.12500229E+03</rscale>
<asrwt>0</asrwt>
<pdfrwt beam="1">  1        4 0.69418589E-02 0.12500229E+03</pdfrwt>
<pdfrwt beam="2">  1       -4 0.13319057E-01 0.12500229E+03</pdfrwt>
<totfact> 0.10307659E+04</totfact>
</mgrwt>
</event>
<event>
 5    1  0.3243498E-002  0.1250045E+03  0.7818608E-02  0.1235062E+00
          4   -1    0    0  501    0  0.00000000000E+00  0.00000000000E+00  0.42453771276E+02  0.42472762984E+02  0.12700000000E+01 0. -1.
         -4   -1    0    0    0  501 -0.00000000000E+00 -0.00000000000E+00 -0.91974565409E+02  0.91983333176E+02  0.12700000000E+01 0. -1.
         25    2    1    2    0    0  0.00000000000E+00  0.00000000000E+00 -0.49520794133E+02  0.13445609616E+03  0.12500453089E+03 0.  0.
    9000005    1    3    3    0    0  0.19158804008E+02  0.51268397025E+02  0.76871130366E+01  0.55277481956E+02  0.10000000000E+01 0.  0.
    9000005    1    3    3    0    0 -0.19158804008E+02 -0.51268397025E+02 -0.57207907170E+02  0.79178614204E+02  0.10000000000E+01 0.  0.
<mgrwt>
<rscale>  0 0.12500453E+03</rscale>
<asrwt>0</asrwt>
<pdfrwt beam="1">  1        4 0.65334848E-02 0.12500453E+03</pdfrwt>
<pdfrwt beam="2">  1       -4 0.14152068E-01 0.12500453E+03</pdfrwt>
<totfact> 0.10248500E+04</totfact>
</mgrwt>
</event>
<event>
 5    1  0.3243498E-002  0.1249996E+03  0.7818608E-02  0.1235070E+00
          4   -1    0    0  501    0  0.00000000000E+00  0.00000000000E+00  0.12255604298E+04  0.12255610878E+04  0.12700000000E+01 0.  1.
         -4   -1    0    0    0  501 -0.00000000000E+00 -0.00000000000E+00 -0.30601023607E+01  0.33131746797E+01  0.12700000000E+01 0.  1.
         25    2    1    2    0    0  0.00000000000E+00  0.00000000000E+00  0.12225003274E+04  0.12288742625E+04  0.12499960983E+03 0.  0.
    9000005    1    3    3    0    0  0.39803413901E+02  0.38038466247E+02  0.32061258958E+03  0.32530703846E+03  0.10000000000E+01 0.  0.
    9000005    1    3    3    0    0 -0.39803413901E+02 -0.38038466247E+02  0.90188773787E+03  0.90356722406E+03  0.10000000000E+01 0.  0.
<mgrwt>
<rscale>  0 0.12499961E+03</rscale>
<asrwt>0</asrwt>
<pdfrwt beam="1">  1        4 0.18856713E+00 0.12499961E+03</pdfrwt>
<pdfrwt beam="2">  1       -4 0.49030307E-03 0.12499961E+03</pdfrwt>
<totfact> 0.23969466E+03</totfact>
</mgrwt>
</event>
<event>
 5    1  0.3243498E-002  0.1250162E+03  0.7818608E-02  0.1235044E+00
         -4   -1    0    0    0  501 -0.00000000000E+00  0.00000000000E+00  0.16615850265E+02  0.16664314568E+02  0.12700000000E+01 0.  1.
          4   -1    0    0  501    0  0.00000000000E+00 -0.00000000000E+00 -0.23475995494E+03  0.23476339012E+03  0.12700000000E+01 0.  1.
         25    2    1    2    0    0  0.00000000000E+00  0.00000000000E+00 -0.21814410467E+03  0.25142770469E+03  0.12501616009E+03 0.  0.
    9000005    1    3    3    0    0  0.21090548354E+01  0.44740674546E+02 -0.19673849333E+03  0.20177514919E+03  0.10000000000E+01 0.  0.
    9000005    1    3    3    0    0 -0.21090548354E+01 -0.44740674546E+02 -0.21405611339E+02  0.49652555502E+02  0.10000000000E+01 0.  0.
<mgrwt>
<rscale>  0 0.12501616E+03</rscale>
<asrwt>0</asrwt>
<pdfrwt beam="2">  1        4 0.36120906E-01 0.12501616E+03</pdfrwt>
<pdfrwt beam="1">  1       -4 0.25602771E-02 0.12501616E+03</pdfrwt>
<totfact> 0.82094765E+03</totfact>
</mgrwt>
</event>
<event>
 5    1  0.3243498E-002  0.1250002E+03  0.7818608E-02  0.1235069E+00
         -4   -1    0    0    0  501 -0.00000000000E+00  0.00000000000E+00  0.16549491849E+03  0.16549979138E+03  0.12700000000E+01 0.  1.
          4   -1    0    0  501    0  0.00000000000E+00 -0.00000000000E+00 -0.23581212763E+02  0.23615386835E+02  0.12700000000E+01 0.  1.
         25    2    1    2    0    0  0.00000000000E+00  0.00000000000E+00  0.14191370573E+03  0.18911517821E+03  0.12500020303E+03 0.  0.
    9000005    1    3    3    0    0  0.15070774485E+02 -0.34927761052E+02  0.14596752108E+03  0.15084625930E+03  0.10000000000E+01 0.  0.
    9000005    1    3    3    0    0 -0.15070774485E+02  0.34927761052E+02 -0.40538153512E+01  0.38268918911E+02  0.10000000000E+01 0.  0.
<mgrwt>
<rscale>  0 0.12500020E+03</rscale>
<asrwt>0</asrwt>
<pdfrwt beam="2">  1        4 0.36308823E-02 0.12500020E+03</pdfrwt>
<pdfrwt beam="1">  1       -4 0.25463762E-01 0.12500020E+03</pdfrwt>
<totfact> 0.92001078E+03</totfact>
</mgrwt>
</event>
<event>
 5    1  0.3243498E-002  0.1249992E+03  0.7818608E-02  0.1235071E+00
         -4   -1    0    0    0  501 -0.00000000000E+00  0.00000000000E+00  0.52003822030E+02  0.52019327232E+02  0.12700000000E+01 0.  1.
          4   -1    0    0  501    0  0.00000000000E+00 -0.00000000000E+00 -0.75081645238E+02  0.75092385444E+02  0.12700000000E+01 0.  1.
         25    2    1    2    0    0  0.00000000000E+00  0.00000000000E+00 -0.23077823208E+02  0.12711171268E+03  0.12499920630E+03 0.  0.
    9000005    1    3    3    0    0  0.42310806095E+02  0.42386595873E+02 -0.29683458928E+02  0.66850097652E+02  0.10000000000E+01 0.  0.
    9000005    1    3    3    0    0 -0.42310806095E+02 -0.42386595873E+02  0.66056357205E+01  0.60261615024E+02  0.10000000000E+01 0.  0.
<mgrwt>
<rscale>  0 0.12499921E+03</rscale>
<asrwt>0</asrwt>
<pdfrwt beam="2">  1        4 0.11553041E-01 0.12499921E+03</pdfrwt>
<pdfrwt beam="1">  1       -4 0.80026069E-02 0.12499921E+03</pdfrwt>
<totfact> 0.10406906E+04</totfact>
</mgrwt>
</event>
<event>
 5    1  0.3243498E-002  0.1249994E+03  0.7818608E-02  0.1235070E+00
         -4   -1    0    0    0  501 -0.00000000000E+00  0.00000000000E+00  0.61115764755E+02  0.61128958781E+02  0.12700000000E+01 0.  1.
          4   -1    0    0  501    0  0.00000000000E+00 -0.00000000000E+00 -0.63888539892E+02  0.63901161409E+02  0.12700000000E+01 0.  1.
         25    2    1    2    0    0  0.00000000000E+00  0.00000000000E+00 -0.27727751365E+01  0.12503012019E+03  0.12499937069E+03 0.  0.
    9000005    1    3    3    0    0  0.88004255936E+01  0.83104634751E+01 -0.62709701742E+02  0.63875018484E+02  0.10000000000E+01 0.  0.
    9000005    1    3    3    0    0 -0.88004255936E+01 -0.83104634751E+01  0.59936926605E+02  0.61155101706E+02  0.10000000000E+01 0.  0.
<mgrwt>
<rscale>  0 0.12499937E+03</rscale>
<asrwt>0</asrwt>
<pdfrwt beam="2">  1        4 0.98309920E-02 0.12499937E+03</pdfrwt>
<pdfrwt beam="1">  1       -4 0.94044111E-02 0.12499937E+03</pdfrwt>
<totfact> 0.10452357E+04</totfact>
</mgrwt>
</event>
<event>
 5    1  0.3243498E-002  0.1249983E+03  0.7818608E-02  0.1235072E+00
         -4   -1    0    0    0  501 -0.00000000000E+00  0.00000000000E+00  0.46405391763E+03  0.46405565547E+03  0.12700000000E+01 0. -1.
          4   -1    0    0  501    0  0.00000000000E+00 -0.00000000000E+00 -0.83677681907E+01  0.84635952464E+01  0.12700000000E+01 0. -1.
         25    2    1    2    0    0  0.00000000000E+00  0.00000000000E+00  0.45568614944E+03  0.47251925071E+03  0.12499830199E+03 0.  0.
    9000005    1    3    3    0    0  0.41008539120E+02  0.30921195721E+02  0.93269715232E+02  0.10648032872E+03  0.10000000000E+01 0.  0.
    9000005    1    3    3    0    0 -0.41008539120E+02 -0.30921195721E+02  0.36241643421E+03  0.36603892199E+03  0.10000000000E+01 0.  0.
<mgrwt>
<rscale>  0 0.12499830E+03</rscale>
<asrwt>0</asrwt>
<pdfrwt beam="2">  1        4 0.12948540E-02 0.12499830E+03</pdfrwt>
<pdfrwt beam="1">  1       -4 0.71400412E-01 0.12499830E+03</pdfrwt>
<totfact> 0.58063580E+03</totfact>
</mgrwt>
</event>
<event>
 5    1  0.3243498E-002  0.1250030E+03  0.7818608E-02  0.1235065E+00
         -4   -1    0    0    0  501 -0.00000000000E+00  0.00000000000E+00  0.66077897862E+01  0.67287283983E+01  0.12700000000E+01 0.  1.
          4   -1    0    0  501    0  0.00000000000E+00 -0.00000000000E+00 -0.58570403374E+03  0.58570541063E+03  0.12700000000E+01 0.  1.
         25    2    1    2    0    0  0.00000000000E+00  0.00000000000E+00 -0.57909624396E+03  0.59243413903E+03  0.12500299726E+03 0.  0.
    9000005    1    3    3    0    0 -0.21267528928E+02 -0.55322409368E+02 -0.19564652338E+03  0.20442954502E+03  0.10000000000E+01 0.  0.
    9000005    1    3    3    0    0  0.21267528928E+02  0.55322409368E+02 -0.38344972057E+03  0.38800459401E+03  0.10000000000E+01 0.  0.
<mgrwt>
<rscale>  0 0.12500300E+03</rscale>
<asrwt>0</asrwt>
<pdfrwt beam="2">  1        4 0.90117681E-01 0.12500300E+03</pdfrwt>
<pdfrwt beam="1">  1       -4 0.10259924E-02 0.12500300E+03</pdfrwt>
<totfact> 0.49345471E+03</totfact>
</mgrwt>
</event>
<event>
 5    1  0.3243498E-002  0.1250008E+03  0.7818608E-02  0.1235068E+00
         -4   -1    0    0    0  501 -0.00000000000E+00  0.00000000000E+00  0.99143935876E+01  0.99954039543E+01  0.12700000000E+01 0.  1.
          4   -1    0    0  501    0  0.00000000000E+00 -0.00000000000E+00 -0.39231768534E+03  0.39231974094E+03  0.12700000000E+01 0.  1.
         25    2    1    2    0    0  0.00000000000E+00  0.00000000000E+00 -0.38240329175E+03  0.40231514489E+03  0.12500079307E+03 0.  0.
    9000005    1    3    3    0    0 -0.19674298493E+02 -0.51697795490E+02 -0.28479083760E+03  0.29011473810E+03  0.10000000000E+01 0.  0.
    9000005    1    3    3    0    0  0.19674298493E+02  0.51697795490E+02 -0.97612454151E+02  0.11220040680E+03  0.10000000000E+01 0.  0.
<mgrwt>
<rscale>  0 0.12500079E+03</rscale>
<asrwt>0</asrwt>
<pdfrwt beam="2">  1        4 0.60362945E-01 0.12500079E+03</pdfrwt>
<pdfrwt beam="1">  1       -4 0.15316813E-02 0.12500079E+03</pdfrwt>
<totfact> 0.64327122E+03</totfact>
</mgrwt>
</event>
<event>
 5    1  0.3243498E-002  0.1250007E+03  0.7818608E-02  0.1235068E+00
         -4   -1    0    0    0  501 -0.00000000000E+00  0.00000000000E+00  0.65864750692E+01  0.67077979872E+01  0.12700000000E+01 0. -1.
          4   -1    0    0  501    0  0.00000000000E+00 -0.00000000000E+00 -0.58754380521E+03  0.58754517779E+03  0.12700000000E+01 0. -1.
         25    2    1    2    0    0  0.00000000000E+00  0.00000000000E+00 -0.58095733014E+03  0.59425297578E+03  0.12500071909E+03 0.  0.
    9000005    1    3    3    0    0 -0.10700531308E+02  0.33836041156E+02 -0.53501695519E+03  0.53619354845E+03  0.10000000000E+01 0.  0.
    9000005    1    3    3    0    0  0.10700531308E+02 -0.33836041156E+02 -0.45940374950E+02  0.58059427330E+02  0.10000000000E+01 0.  0.
<mgrwt>
<rscale>  0 0.12500072E+03</rscale>
<asrwt>0</asrwt>
<pdfrwt beam="2">  1        4 0.90400752E-01 0.12500072E+03</pdfrwt>
<pdfrwt beam="1">  1       -4 0.10227424E-02 0.12500072E+03</pdfrwt>
<totfact> 0.49231640E+03</totfact>
</mgrwt>
</event>
<event>
 5    1  0.3243498E-002  0.1250005E+03  0.7818608E-02  0.1235069E+00
         -4   -1    0    0    0  501 -0.00000000000E+00  0.00000000000E+00  0.32694851815E+02  0.32719508481E+02  0.12700000000E+01 0.  1.
          4   -1    0    0  501    0  0.00000000000E+00 -0.00000000000E+00 -0.11940380224E+03  0.11941055602E+03  0.12700000000E+01 0.  1.
         25    2    1    2    0    0  0.00000000000E+00  0.00000000000E+00 -0.86708950425E+02  0.15213006450E+03  0.12500045777E+03 0.  0.
    9000005    1    3    3    0    0  0.10206666756E+02 -0.58584492742E+02 -0.66731700162E+02  0.89389253508E+02  0.10000000000E+01 0.  0.
    9000005    1    3    3    0    0 -0.10206666756E+02  0.58584492742E+02 -0.19977250263E+02  0.62740810994E+02  0.10000000000E+01 0.  0.
<mgrwt>
<rscale>  0 0.12500046E+03</rscale>
<asrwt>0</asrwt>
<pdfrwt beam="2">  1        4 0.18372232E-01 0.12500046E+03</pdfrwt>
<pdfrwt beam="1">  1       -4 0.50323934E-02 0.12500046E+03</pdfrwt>
<totfact> 0.98879766E+03</totfact>
</mgrwt>
</event>
<event>
 5    1  0.3243498E-002  0.1249975E+03  0.7818608E-02  0.1235073E+00
         -4   -1    0    0    0  501 -0.00000000000E+00  0.00000000000E+00  0.12722411416E+02  0.12785642426E+02  0.12700000000E+01 0.  1.
          4   -1    0    0  501    0  0.00000000000E+00 -0.00000000000E+00 -0.30619923966E+03  0.30620187339E+03  0.12700000000E+01 0.  1.
         25    2    1    2    0    0  0.00000000000E+00  0.00000000000E+00 -0.29347682824E+03  0.31898751582E+03  0.12499754610E+03 0.  0.
    9000005    1    3    3    0    0  0.50511136061E+02  0.85516678576E-02 -0.52844618953E+02  0.73109019222E+02  0.10000000000E+01 0.  0.
    9000005    1    3    3    0    0 -0.50511136061E+02 -0.85516678576E-02 -0.24063220929E+03  0.24587849660E+03  0.10000000000E+01 0.  0.
<mgrwt>
<rscale>  0 0.12499755E+03</rscale>
<asrwt>0</asrwt>
<pdfrwt beam="2">  1        4 0.47112636E-01 0.12499755E+03</pdfrwt>
<pdfrwt beam="1">  1       -4 0.19623608E-02 0.12499755E+03</pdfrwt>
<totfact> 0.73280697E+03</totfact>
</mgrwt>
</event>
<event>
 5    1  0.3243498E-002  0.1249996E+03  0.7818608E-02  0.1235070E+00
          4   -1    0    0  501    0  0.00000000000E+00  0.00000000000E+00  0.59411748851E+03  0.59411884590E+03  0.12700000000E+01 0.  1.
         -4   -1    0    0    0  501 -0.00000000000E+00 -0.00000000000E+00 -0.65121287294E+01  0.66348112700E+01  0.12700000000E+01 0.  1.
         25    2    1    2    0    0  0.00000000000E+00  0.00000000000E+00  0.58760535979E+03  0.60075365717E+03  0.12499959104E+03 0.  0.
    9000005    1    3    3    0    0  0.22965569019E+02  0.35374967248E+02  0.51542435338E+03  0.51714801529E+03  0.10000000000E+01 0.  0.
    9000005    1    3    3    0    0 -0.22965569019E+02 -0.35374967248E+02  0.72181006409E+02  0.83605641881E+02  0.10000000000E+01 0.  0.
<mgrwt>
<rscale>  0 0.12499959E+03</rscale>
<asrwt>0</asrwt>
<pdfrwt beam="1">  1        4 0.91412217E-01 0.12499959E+03</pdfrwt>
<pdfrwt beam="2">  1       -4 0.10114077E-02 0.12499959E+03</pdfrwt>
<totfact> 0.48820515E+03</totfact>
</mgrwt>
</event>
<event>
 5    1  0.3243498E-002  0.1250006E+03  0.7818608E-02  0.1235068E+00
         -4   -1    0    0    0  501 -0.00000000000E+00  0.00000000000E+00  0.20728014841E+02  0.20766884679E+02  0.12700000000E+01 0.  1.
          4   -1    0    0  501    0  0.00000000000E+00 -0.00000000000E+00 -0.18823706895E+03  0.18824135313E+03  0.12700000000E+01 0.  1.
         25    2    1    2    0    0  0.00000000000E+00  0.00000000000E+00 -0.16750905411E+03  0.20900823780E+03  0.12500064105E+03 0.  0.
    9000005    1    3    3    0    0 -0.20730527218E+02 -0.13761197470E+02 -0.17960534645E+03  0.18132348382E+03  0.10000000000E+01 0.  0.
    9000005    1    3    3    0    0  0.20730527218E+02  0.13761197470E+02  0.12096292338E+02  0.27684753979E+02  0.10000000000E+01 0.  0.
<mgrwt>
<rscale>  0 0.12500064E+03</rscale>
<asrwt>0</asrwt>
<pdfrwt beam="2">  1        4 0.28962867E-01 0.12500064E+03</pdfrwt>
<pdfrwt beam="1">  1       -4 0.31922450E-02 0.12500064E+03</pdfrwt>
<totfact> 0.88636835E+03</totfact>
</mgrwt>
</event>
<event>
 5    1  0.3243498E-002  0.1250029E+03  0.7818608E-02  0.1235065E+00
          4   -1    0    0  501    0  0.00000000000E+00  0.00000000000E+00  0.55120618430E+01  0.56564764439E+01  0.12700000000E+01 0. -1.
         -4   -1    0    0    0  501 -0.00000000000E+00 -0.00000000000E+00 -0.69939752127E+03  0.69939867433E+03  0.12700000000E+01 0. -1.
         25    2    1    2    0    0  0.00000000000E+00  0.00000000000E+00 -0.69388545943E+03  0.70505515078E+03  0.12500293930E+03 0.  0.
    9000005    1    3    3    0    0 -0.51943088767E+02  0.30512469008E+02 -0.25318144682E+03  0.26025168635E+03  0.10000000000E+01 0.  0.
    9000005    1    3    3    0    0  0.51943088767E+02 -0.30512469008E+02 -0.44070401261E+03  0.44480346443E+03  0.10000000000E+01 0.  0.
<mgrwt>
<rscale>  0 0.12500294E+03</rscale>
<asrwt>0</asrwt>
<pdfrwt beam="1">  1        4 0.85920758E-03 0.12500294E+03</pdfrwt>
<pdfrwt beam="2">  1       -4 0.10761075E+00 0.12500294E+03</pdfrwt>
<totfact> 0.42818449E+03</totfact>
</mgrwt>
</event>
<event>
 5    1  0.3243498E-002  0.1250011E+03  0.7818608E-02  0.1235068E+00
         -4   -1    0    0    0  501 -0.00000000000E+00  0.00000000000E+00  0.11442400706E+02  0.11512664066E+02  0.12700000000E+01 0. -1.
          4   -1    0    0  501    0  0.00000000000E+00 -0.00000000000E+00 -0.34027344076E+03  0.34027581076E+03  0.12700000000E+01 0. -1.
         25    2    1    2    0    0  0.00000000000E+00  0.00000000000E+00 -0.32883104006E+03  0.35178847483E+03  0.12500111246E+03 0.  0.
    9000005    1    3    3    0    0 -0.58603453827E+02  0.39348535056E+00 -0.22547961278E+03  0.23297333626E+03  0.10000000000E+01 0.  0.
    9000005    1    3    3    0    0  0.58603453827E+02 -0.39348535056E+00 -0.10335142728E+03  0.11881513856E+03  0.10000000000E+01 0.  0.
<mgrwt>
<rscale>  0 0.12500111E+03</rscale>
<asrwt>0</asrwt>
<pdfrwt beam="2">  1        4 0.52355340E-01 0.12500111E+03</pdfrwt>
<pdfrwt beam="1">  1       -4 0.17659568E-02 0.12500111E+03</pdfrwt>
<totfact> 0.69526541E+03</totfact>
</mgrwt>
</event>
<event>
 5    1  0.3243498E-002  0.1250000E+03  0.7818608E-02  0.1235069E+00
         -4   -1    0    0    0  501 -0.00000000000E+00  0.00000000000E+00  0.36796949318E+03  0.36797168480E+03  0.12700000000E+01 0. -1.
          4   -1    0    0  501    0  0.00000000000E+00 -0.00000000000E+00 -0.10575472429E+02  0.10651456102E+02  0.12700000000E+01 0. -1.
         25    2    1    2    0    0  0.00000000000E+00  0.00000000000E+00  0.35739402075E+03  0.37862314090E+03  0.12499998702E+03 0.  0.
    9000005    1    3    3    0    0  0.62085645791E+02  0.25721516075E+01  0.19879035362E+03  0.20827829477E+03  0.10000000000E+01 0.  0.
    9000005    1    3    3    0    0 -0.62085645791E+02 -0.25721516075E+01  0.15860366713E+03  0.17034484613E+03  0.10000000000E+01 0.  0.
<mgrwt>
<rscale>  0 0.12499999E+03</rscale>
<asrwt>0</asrwt>
<pdfrwt beam="2">  1        4 0.16330093E-02 0.12499999E+03</pdfrwt>
<pdfrwt beam="1">  1       -4 0.56616702E-01 0.12499999E+03</pdfrwt>
<totfact> 0.66686360E+03</totfact>
</mgrwt>
</event>
<event>
 5    1  0.3243498E-002  0.1249988E+03  0.7818608E-02  0.1235071E+00
          4   -1    0    0  501    0  0.00000000000E+00  0.00000000000E+00  0.13604850349E+03  0.13605443103E+03  0.12700000000E+01 0.  1.
         -4   -1    0    0    0  501 -0.00000000000E+00 -0.00000000000E+00 -0.28691016652E+02  0.28719110998E+02  0.12700000000E+01 0.  1.
         25    2    1    2    0    0  0.00000000000E+00  0.00000000000E+00  0.10735748684E+03  0.16477354203E+03  0.12499876068E+03 0.  0.
    9000005    1    3    3    0    0 -0.11017909863E+02 -0.61223678489E+02  0.45831358875E+02  0.77273841639E+02  0.10000000000E+01 0.  0.
    9000005    1    3    3    0    0  0.11017909863E+02  0.61223678489E+02  0.61526127968E+02  0.87499700389E+02  0.10000000000E+01 0.  0.
<mgrwt>
<rscale>  0 0.12499876E+03</rscale>
<asrwt>0</asrwt>
<pdfrwt beam="1">  1        4 0.20933156E-01 0.12499876E+03</pdfrwt>
<pdfrwt beam="2">  1       -4 0.44166197E-02 0.12499876E+03</pdfrwt>
<totfact> 0.96432982E+03</totfact>
</mgrwt>
</event>
<event>
 5    1  0.3243498E-002  0.1249991E+03  0.7818608E-02  0.1235071E+00
          4   -1    0    0  501    0  0.00000000000E+00  0.00000000000E+00  0.18974907896E+02  0.19017361270E+02  0.12700000000E+01 0.  1.
         -4   -1    0    0    0  501 -0.00000000000E+00 -0.00000000000E+00 -0.20558648043E+03  0.20559040307E+03  0.12700000000E+01 0.  1.
         25    2    1    2    0    0  0.00000000000E+00  0.00000000000E+00 -0.18661157253E+03  0.22460776434E+03  0.12499907519E+03 0.  0.
    9000005    1    3    3    0    0  0.19114210146E+02 -0.24455588265E+02 -0.19076475990E+03  0.19327602656E+03  0.10000000000E+01 0.  0.
    9000005    1    3    3    0    0 -0.19114210146E+02  0.24455588265E+02  0.41531873616E+01  0.31331737777E+02  0.10000000000E+01 0.  0.
<mgrwt>
<rscale>  0 0.12499908E+03</rscale>
<asrwt>0</asrwt>
<pdfrwt beam="1">  1        4 0.29227841E-02 0.12499908E+03</pdfrwt>
<pdfrwt beam="2">  1       -4 0.31632255E-01 0.12499908E+03</pdfrwt>
<totfact> 0.86146221E+03</totfact>
</mgrwt>
</event>
<event>
 5    1  0.3243498E-002  0.1250148E+03  0.7818608E-02  0.1235046E+00
          4   -1    0    0  501    0  0.00000000000E+00  0.00000000000E+00  0.59455324430E+03  0.59455460069E+03  0.12700000000E+01 0.  1.
         -4   -1    0    0    0  501 -0.00000000000E+00 -0.00000000000E+00 -0.65088775885E+01  0.66316202743E+01  0.12700000000E+01 0.  1.
         25    2    1    2    0    0  0.00000000000E+00  0.00000000000E+00  0.58804436671E+03  0.60118622097E+03  0.12501477938E+03 0.  0.
    9000005    1    3    3    0    0  0.43548980951E+02  0.27308531363E+02  0.12305816095E+03  0.13336633984E+03  0.10000000000E+01 0.  0.
    9000005    1    3    3    0    0 -0.43548980951E+02 -0.27308531363E+02  0.46498620576E+03  0.46781988113E+03  0.10000000000E+01 0.  0.
<mgrwt>
<rscale>  0 0.12501478E+03</rscale>
<asrwt>0</asrwt>
<pdfrwt beam="1">  1        4 0.91479287E-01 0.12501478E+03</pdfrwt>
<pdfrwt beam="2">  1       -4 0.10109117E-02 0.12501478E+03</pdfrwt>
<totfact> 0.48777005E+03</totfact>
</mgrwt>
</event>
<event>
 5    1  0.3243498E-002  0.1250094E+03  0.7818608E-02  0.1235055E+00
          4   -1    0    0  501    0  0.00000000000E+00  0.00000000000E+00  0.28229676286E+03  0.28229961959E+03  0.12700000000E+01 0.  1.
         -4   -1    0    0    0  501 -0.00000000000E+00 -0.00000000000E+00 -0.13807398525E+02  0.13865682602E+02  0.12700000000E+01 0.  1.
         25    2    1    2    0    0  0.00000000000E+00  0.00000000000E+00  0.26848936434E+03  0.29616530220E+03  0.12500938950E+03 0.  0.
    9000005    1    3    3    0    0  0.22731788121E+02  0.57080410154E+02  0.10713588702E+03  0.12350710790E+03  0.10000000000E+01 0.  0.
    9000005    1    3    3    0    0 -0.22731788121E+02 -0.57080410154E+02  0.16135347731E+03  0.17265819429E+03  0.10000000000E+01 0.  0.
<mgrwt>
<rscale>  0 0.12500939E+03</rscale>
<asrwt>0</asrwt>
<pdfrwt beam="1">  1        4 0.43434969E-01 0.12500939E+03</pdfrwt>
<pdfrwt beam="2">  1       -4 0.21289186E-02 0.12500939E+03</pdfrwt>
<totfact> 0.76066530E+03</totfact>
</mgrwt>
</event>
<event>
 5    1  0.3243498E-002  0.1250026E+03  0.7818608E-02  0.1235065E+00
         -4   -1    0    0    0  501 -0.00000000000E+00  0.00000000000E+00  0.44170807145E+01  0.45960311180E+01  0.12700000000E+01 0. -1.
          4   -1    0    0  501    0  0.00000000000E+00 -0.00000000000E+00 -0.86664960093E+03  0.86665053147E+03  0.12700000000E+01 0. -1.
         25    2    1    2    0    0  0.00000000000E+00  0.00000000000E+00 -0.86223252022E+03  0.87124656259E+03  0.12500261557E+03 0.  0.
    9000005    1    3    3    0    0 -0.37709080541E+02  0.49833884499E+02 -0.43006672091E+03  0.43458460077E+03  0.10000000000E+01 0.  0.
    9000005    1    3    3    0    0  0.37709080541E+02 -0.49833884499E+02 -0.43216579931E+03  0.43666196181E+03  0.10000000000E+01 0.  0.
<mgrwt>
<rscale>  0 0.12500262E+03</rscale>
<asrwt>0</asrwt>
<pdfrwt beam="2">  1        4 0.13334441E+00 0.12500262E+03</pdfrwt>
<pdfrwt beam="1">  1       -4 0.69338856E-03 0.12500262E+03</pdfrwt>
<totfact> 0.35271340E+03</totfact>
</mgrwt>
</event>
<event>
 5    1  0.3243498E-002  0.1249980E+03  0.7818608E-02  0.1235072E+00
         -4   -1    0    0    0  501 -0.00000000000E+00  0.00000000000E+00  0.55391980890E+03  0.55392126479E+03  0.12700000000E+01 0.  1.
          4   -1    0    0  501    0  0.00000000000E+00 -0.00000000000E+00 -0.69931312557E+01  0.71075160752E+01  0.12700000000E+01 0.  1.
         25    2    1    2    0    0  0.00000000000E+00  0.00000000000E+00  0.54692667764E+03  0.56102878087E+03  0.12499800897E+03 0.  0.
    9000005    1    3    3    0    0  0.43386915872E+02 -0.38001960639E+01  0.72326337127E+02  0.84433198454E+02  0.10000000000E+01 0.  0.
    9000005    1    3    3    0    0 -0.43386915872E+02  0.38001960639E+01  0.47460034051E+03  0.47659558241E+03  0.10000000000E+01 0.  0.
<mgrwt>
<rscale>  0 0.12499801E+03</rscale>
<asrwt>0</asrwt>
<pdfrwt beam="2">  1        4 0.10847767E-02 0.12499801E+03</pdfrwt>
<pdfrwt beam="1">  1       -4 0.85227380E-01 0.12499801E+03</pdfrwt>
<totfact> 0.51425995E+03</totfact>
</mgrwt>
</event>
<event>
 5    1  0.3243498E-002  0.1249923E+03  0.7818608E-02  0.1235081E+00
         -4   -1    0    0    0  501 -0.00000000000E+00  0.00000000000E+00  0.86741663009E+03  0.86741755981E+03  0.12700000000E+01 0.  1.
          4   -1    0    0  501    0  0.00000000000E+00 -0.00000000000E+00 -0.44122593840E+01  0.45913977035E+01  0.12700000000E+01 0.  1.
         25    2    1    2    0    0  0.00000000000E+00  0.00000000000E+00  0.86300437071E+03  0.87200895751E+03  0.12499231223E+03 0.  0.
    9000005    1    3    3    0    0 -0.49496835143E+01 -0.21834303930E+02  0.83850990662E+03  0.83880933453E+03  0.10000000000E+01 0.  0.
    9000005    1    3    3    0    0  0.49496835143E+01  0.21834303930E+02  0.24494464087E+02  0.33199622979E+02  0.10000000000E+01 0.  0.
<mgrwt>
<rscale>  0 0.12499231E+03</rscale>
<asrwt>0</asrwt>
<pdfrwt beam="2">  1        4 0.69266120E-03 0.12499231E+03</pdfrwt>
<pdfrwt beam="1">  1       -4 0.13346243E+00 0.12499231E+03</pdfrwt>
<totfact> 0.35249184E+03</totfact>
</mgrwt>
</event>
<event>
 5    1  0.3243498E-002  0.1249967E+03  0.7818608E-02  0.1235074E+00
         -4   -1    0    0    0  501 -0.00000000000E+00  0.00000000000E+00  0.55102171531E+03  0.55102317887E+03  0.12700000000E+01 0.  1.
          4   -1    0    0  501    0  0.00000000000E+00 -0.00000000000E+00 -0.70303574091E+01  0.71441462260E+01  0.12700000000E+01 0.  1.
         25    2    1    2    0    0  0.00000000000E+00  0.00000000000E+00  0.54399135791E+03  0.55816732509E+03  0.12499666126E+03 0.  0.
    9000005    1    3    3    0    0 -0.32527173587E+02 -0.47045759116E+02  0.38440828023E+03  0.38864128239E+03  0.10000000000E+01 0.  0.
    9000005    1    3    3    0    0  0.32527173587E+02  0.47045759116E+02  0.15958307768E+03  0.16952604270E+03  0.10000000000E+01 0.  0.
<mgrwt>
<rscale>  0 0.12499666E+03</rscale>
<asrwt>0</asrwt>
<pdfrwt beam="2">  1        4 0.10904591E-02 0.12499666E+03</pdfrwt>
<pdfrwt beam="1">  1       -4 0.84781432E-01 0.12499666E+03</pdfrwt>
<totfact> 0.51623149E+03</totfact>
</mgrwt>
</event>
<event>
 5    1  0.3243498E-002  0.1250012E+03  0.7818608E-02  0.1235067E+00
          4   -1    0    0  501    0  0.00000000000E+00  0.00000000000E+00  0.41617368127E+02  0.41636741345E+02  0.12700000000E+01 0.  1.
         -4   -1    0    0    0  501 -0.00000000000E+00 -0.00000000000E+00 -0.93817293644E+02  0.93825889213E+02  0.12700000000E+01 0.  1.
         25    2    1    2    0    0  0.00000000000E+00  0.00000000000E+00 -0.52199925517E+02  0.13546263056E+03  0.12500116821E+03 0.  0.
    9000005    1    3    3    0    0 -0.13221778175E+02  0.60628248524E+02 -0.18083354071E+02  0.64642150580E+02  0.10000000000E+01 0.  0.
    9000005    1    3    3    0    0  0.13221778175E+02 -0.60628248524E+02 -0.34116571446E+02  0.70820479978E+02  0.10000000000E+01 0.  0.
<mgrwt>
<rscale>  0 0.12500117E+03</rscale>
<asrwt>0</asrwt>
<pdfrwt beam="1">  1        4 0.64048235E-02 0.12500117E+03</pdfrwt>
<pdfrwt beam="2">  1       -4 0.14435581E-01 0.12500117E+03</pdfrwt>
<totfact> 0.10228060E+04</totfact>
</mgrwt>
</event>
<event>
 5    1  0.3243498E-002  0.1249985E+03  0.7818608E-02  0.1235072E+00
          4   -1    0    0  501    0  0.00000000000E+00  0.00000000000E+00  0.17135764461E+03  0.17136235079E+03  0.12700000000E+01 0. -1.
         -4   -1    0    0    0  501 -0.00000000000E+00 -0.00000000000E+00 -0.22772647368E+02  0.22808032974E+02  0.12700000000E+01 0. -1.
         25    2    1    2    0    0  0.00000000000E+00  0.00000000000E+00  0.14858499725E+03  0.19417038376E+03  0.12499854609E+03 0.  0.
    9000005    1    3    3    0    0 -0.15678292478E+02 -0.51716242595E+02  0.12303948294E+03  0.13438784531E+03  0.10000000000E+01 0.  0.
    9000005    1    3    3    0    0  0.15678292478E+02  0.51716242595E+02  0.25545514303E+02  0.59782538456E+02  0.10000000000E+01 0.  0.
<mgrwt>
<rscale>  0 0.12499855E+03</rscale>
<asrwt>0</asrwt>
<pdfrwt beam="1">  1        4 0.26365798E-01 0.12499855E+03</pdfrwt>
<pdfrwt beam="2">  1       -4 0.35065683E-02 0.12499855E+03</pdfrwt>
<totfact> 0.91129669E+03</totfact>
</mgrwt>
</event>
<event>
 5    1  0.3243498E-002  0.1250013E+03  0.7818608E-02  0.1235067E+00
          4   -1    0    0  501    0  0.00000000000E+00  0.00000000000E+00  0.55271554227E+02  0.55286142990E+02  0.12700000000E+01 0. -1.
         -4   -1    0    0    0  501 -0.00000000000E+00 -0.00000000000E+00 -0.70645642198E+02  0.70657056700E+02  0.12700000000E+01 0. -1.
         25    2    1    2    0    0  0.00000000000E+00  0.00000000000E+00 -0.15374087971E+02  0.12594319969E+03  0.12500130786E+03 0.  0.
    9000005    1    3    3    0    0  0.17942443193E+02  0.24679632895E+02  0.47261189326E+02  0.56263981054E+02  0.10000000000E+01 0.  0.
    9000005    1    3    3    0    0 -0.17942443193E+02 -0.24679632895E+02 -0.62635277297E+02  0.69679218635E+02  0.10000000000E+01 0.  0.
<mgrwt>
<rscale>  0 0.12500131E+03</rscale>
<asrwt>0</asrwt>
<pdfrwt beam="1">  1        4 0.85053162E-02 0.12500131E+03</pdfrwt>
<pdfrwt beam="2">  1       -4 0.10870561E-01 0.12500131E+03</pdfrwt>
<totfact> 0.10431894E+04</totfact>
</mgrwt>
</event>
<event>
 5    1  0.3243498E-002  0.1250023E+03  0.7818608E-02  0.1235066E+00
         -4   -1    0    0    0  501 -0.00000000000E+00  0.00000000000E+00  0.13259738047E+02  0.13320418652E+02  0.12700000000E+01 0. -1.
          4   -1    0    0  501    0  0.00000000000E+00 -0.00000000000E+00 -0.29387101490E+03  0.29387375912E+03  0.12700000000E+01 0. -1.
         25    2    1    2    0    0  0.00000000000E+00  0.00000000000E+00 -0.28061127686E+03  0.30719417777E+03  0.12500229662E+03 0.  0.
    9000005    1    3    3    0    0 -0.42009071322E+02  0.11739510685E+02 -0.25028607627E+03  0.25406042226E+03  0.10000000000E+01 0.  0.
    9000005    1    3    3    0    0  0.42009071322E+02 -0.11739510685E+02 -0.30325200588E+02  0.53133755515E+02  0.10000000000E+01 0.  0.
<mgrwt>
<rscale>  0 0.12500230E+03</rscale>
<asrwt>0</asrwt>
<pdfrwt beam="2">  1        4 0.45215799E-01 0.12500230E+03</pdfrwt>
<pdfrwt beam="1">  1       -4 0.20448388E-02 0.12500230E+03</pdfrwt>
<totfact> 0.74701381E+03</totfact>
</mgrwt>
</event>
<event>
 5    1  0.3243498E-002  0.1249961E+03  0.7818608E-02  0.1235075E+00
          4   -1    0    0  501    0  0.00000000000E+00  0.00000000000E+00  0.11183627679E+02  0.11255506567E+02  0.12700000000E+01 0. -1.
         -4   -1    0    0    0  501 -0.00000000000E+00 -0.00000000000E+00 -0.34806931638E+03  0.34807163329E+03  0.12700000000E+01 0. -1.
         25    2    1    2    0    0  0.00000000000E+00  0.00000000000E+00 -0.33688568870E+03  0.35932713986E+03  0.12499610470E+03 0.  0.
    9000005    1    3    3    0    0 -0.49941694744E+02  0.36363683133E+02 -0.14139672390E+03  0.15430659044E+03  0.10000000000E+01 0.  0.
    9000005    1    3    3    0    0  0.49941694744E+02 -0.36363683133E+02 -0.19548896480E+03  0.20502054942E+03  0.10000000000E+01 0.  0.
<mgrwt>
<rscale>  0 0.12499610E+03</rscale>
<asrwt>0</asrwt>
<pdfrwt beam="1">  1        4 0.17262657E-02 0.12499610E+03</pdfrwt>
<pdfrwt beam="2">  1       -4 0.53554825E-01 0.12499610E+03</pdfrwt>
<totfact> 0.68716424E+03</totfact>
</mgrwt>
</event>
<event>
 5    1  0.3243498E-002  0.1250008E+03  0.7818608E-02  0.1235068E+00
          4   -1    0    0  501    0  0.00000000000E+00  0.00000000000E+00  0.10660371048E+02  0.10735753857E+02  0.12700000000E+01 0.  1.
         -4   -1    0    0    0  501 -0.00000000000E+00 -0.00000000000E+00 -0.36506418668E+03  0.36506639574E+03  0.12700000000E+01 0.  1.
         25    2    1    2    0    0  0.00000000000E+00  0.00000000000E+00 -0.35440381564E+03  0.37580214960E+03  0.12500076442E+03 0.  0.
    9000005    1    3    3    0    0 -0.28522967076E+02 -0.96849810991E+01 -0.12591228817E+02  0.32663397754E+02  0.10000000000E+01 0.  0.
    9000005    1    3    3    0    0  0.28522967076E+02  0.96849810991E+01 -0.34181258682E+03  0.34313875184E+03  0.10000000000E+01 0.  0.
<mgrwt>
<rscale>  0 0.12500076E+03</rscale>
<asrwt>0</asrwt>
<pdfrwt beam="1">  1        4 0.16460260E-02 0.12500076E+03</pdfrwt>
<pdfrwt beam="2">  1       -4 0.56169680E-01 0.12500076E+03</pdfrwt>
<totfact> 0.66975134E+03</totfact>
</mgrwt>
</event>
<event>
 5    1  0.3243498E-002  0.1249963E+03  0.7818608E-02  0.1235075E+00
          4   -1    0    0  501    0  0.00000000000E+00  0.00000000000E+00  0.11582481837E+02  0.11651900511E+02  0.12700000000E+01 0. -1.
         -4   -1    0    0    0  501 -0.00000000000E+00 -0.00000000000E+00 -0.33615662520E+03  0.33615902422E+03  0.12700000000E+01 0. -1.
         25    2    1    2    0    0  0.00000000000E+00  0.00000000000E+00 -0.32457414337E+03  0.34781092474E+03  0.12499625924E+03 0.  0.
    9000005    1    3    3    0    0 -0.26607078682E+02 -0.28796868443E+02 -0.26886487046E+02  0.47550809181E+02  0.10000000000E+01 0.  0.
    9000005    1    3    3    0    0  0.26607078682E+02  0.28796868443E+02 -0.29768765632E+03  0.30026011555E+03  0.10000000000E+01 0.  0.
<mgrwt>
<rscale>  0 0.12499626E+03</rscale>
<asrwt>0</asrwt>
<pdfrwt beam="1">  1        4 0.17874450E-02 0.12499626E+03</pdfrwt>
<pdfrwt beam="2">  1       -4 0.51721921E-01 0.12499626E+03</pdfrwt>
<totfact> 0.69971850E+03</totfact>
</mgrwt>
</event>
<event>
 5    1  0.3243498E-002  0.1250003E+03  0.7818608E-02  0.1235069E+00
          4   -1    0    0  501    0  0.00000000000E+00  0.00000000000E+00  0.42285056783E+01  0.44151059184E+01  0.12700000000E+01 0. -1.
         -4   -1    0    0    0  501 -0.00000000000E+00 -0.00000000000E+00 -0.90366426427E+03  0.90366515669E+03  0.12700000000E+01 0. -1.
         25    2    1    2    0    0  0.00000000000E+00  0.00000000000E+00 -0.89943575859E+03  0.90808026261E+03  0.12500031803E+03 0.  0.
    9000005    1    3    3    0    0 -0.24007784136E+02  0.47667659370E+02 -0.68586736551E+03  0.68794158365E+03  0.10000000000E+01 0.  0.
    9000005    1    3    3    0    0  0.24007784136E+02 -0.47667659370E+02 -0.21356839308E+03  0.22013867896E+03  0.10000000000E+01 0.  0.
<mgrwt>
<rscale>  0 0.12500032E+03</rscale>
<asrwt>0</asrwt>
<pdfrwt beam="1">  1        4 0.66496257E-03 0.12500032E+03</pdfrwt>
<pdfrwt beam="2">  1       -4 0.13903954E+00 0.12500032E+03</pdfrwt>
<totfact> 0.33852201E+03</totfact>
</mgrwt>
</event>
<event>
 5    1  0.3243498E-002  0.1250003E+03  0.7818608E-02  0.1235069E+00
         -4   -1    0    0    0  501 -0.00000000000E+00  0.00000000000E+00  0.18049069087E+02  0.18093694894E+02  0.12700000000E+01 0.  1.
          4   -1    0    0  501    0  0.00000000000E+00 -0.00000000000E+00 -0.21611105760E+03  0.21611478921E+03  0.12700000000E+01 0.  1.
         25    2    1    2    0    0  0.00000000000E+00  0.00000000000E+00 -0.19806198851E+03  0.23420848411E+03  0.12500025094E+03 0.  0.
    9000005    1    3    3    0    0  0.36501185894E+02  0.21169665807E+01 -0.40739713259E+01  0.36802382552E+02  0.10000000000E+01 0.  0.
    9000005    1    3    3    0    0 -0.36501185894E+02 -0.21169665807E+01 -0.19398801718E+03  0.19740610155E+03  0.10000000000E+01 0.  0.
<mgrwt>
<rscale>  0 0.12500025E+03</rscale>
<asrwt>0</asrwt>
<pdfrwt beam="2">  1        4 0.33251573E-01 0.12500025E+03</pdfrwt>
<pdfrwt beam="1">  1       -4 0.27804998E-02 0.12500025E+03</pdfrwt>
<totfact> 0.84667069E+03</totfact>
</mgrwt>
</event>
<event>
 5    1  0.3243498E-002  0.1250024E+03  0.7818608E-02  0.1235066E+00
          4   -1    0    0  501    0  0.00000000000E+00  0.00000000000E+00  0.67617428820E+02  0.67629354427E+02  0.12700000000E+01 0.  1.
         -4   -1    0    0    0  501 -0.00000000000E+00 -0.00000000000E+00 -0.57748055573E+02  0.57762018857E+02  0.12700000000E+01 0.  1.
         25    2    1    2    0    0  0.00000000000E+00  0.00000000000E+00  0.98693732472E+01  0.12539137328E+03  0.12500236784E+03 0.  0.
    9000005    1    3    3    0    0 -0.30405580707E+02  0.53608298605E+02 -0.54439587674E+01  0.61878798506E+02  0.10000000000E+01 0.  0.
    9000005    1    3    3    0    0  0.30405580707E+02 -0.53608298605E+02  0.15313332015E+02  0.63512574778E+02  0.10000000000E+01 0.  0.
<mgrwt>
<rscale>  0 0.12500237E+03</rscale>
<asrwt>0</asrwt>
<pdfrwt beam="1">  1        4 0.10404673E-01 0.12500237E+03</pdfrwt>
<pdfrwt beam="2">  1       -4 0.88863077E-02 0.12500237E+03</pdfrwt>
<totfact> 0.10443800E+04</totfact>
</mgrwt>
</event>
<event>
 5    1  0.3243498E-002  0.1250004E+03  0.7818608E-02  0.1235069E+00
          4   -1    0    0  501    0  0.00000000000E+00  0.00000000000E+00  0.21619712616E+02  0.21656982098E+02  0.12700000000E+01 0. -1.
         -4   -1    0    0    0  501 -0.00000000000E+00 -0.00000000000E+00 -0.18048620862E+03  0.18049067677E+03  0.12700000000E+01 0. -1.
         25    2    1    2    0    0  0.00000000000E+00  0.00000000000E+00 -0.15886649600E+03  0.20214765887E+03  0.12500044974E+03 0.  0.
    9000005    1    3    3    0    0  0.57762512462E+02 -0.38769609920E+01 -0.41378410873E+02  0.71166786908E+02  0.10000000000E+01 0.  0.
    9000005    1    3    3    0    0 -0.57762512462E+02  0.38769609920E+01 -0.11748808513E+03  0.13098087196E+03  0.10000000000E+01 0.  0.
<mgrwt>
<rscale>  0 0.12500045E+03</rscale>
<asrwt>0</asrwt>
<pdfrwt beam="1">  1        4 0.33293203E-02 0.12500045E+03</pdfrwt>
<pdfrwt beam="2">  1       -4 0.27770319E-01 0.12500045E+03</pdfrwt>
<totfact> 0.89773644E+03</totfact>
</mgrwt>
</event>
<event>
 5    1  0.3243498E-002  0.1249839E+03  0.7818608E-02  0.1235094E+00
         -4   -1    0    0    0  501 -0.00000000000E+00  0.00000000000E+00  0.28867754323E+03  0.28868033682E+03  0.12700000000E+01 0.  1.
          4   -1    0    0  501    0  0.00000000000E+00 -0.00000000000E+00 -0.13495379367E+02  0.13555005137E+02  0.12700000000E+01 0.  1.
         25    2    1    2    0    0  0.00000000000E+00  0.00000000000E+00  0.27518216386E+03  0.30223534195E+03  0.12498391344E+03 0.  0.
    9000005    1    3    3    0    0  0.24517577132E+02 -0.57171372806E+02  0.12337358266E+03  0.13817278443E+03  0.10000000000E+01 0.  0.
    9000005    1    3    3    0    0 -0.24517577132E+02  0.57171372806E+02  0.15180858120E+03  0.16406255753E+03  0.10000000000E+01 0.  0.
<mgrwt>
<rscale>  0 0.12498391E+03</rscale>
<asrwt>0</asrwt>
<pdfrwt beam="2">  1        4 0.20810137E-02 0.12498391E+03</pdfrwt>
<pdfrwt beam="1">  1       -4 0.44416732E-01 0.12498391E+03</pdfrwt>
<totfact> 0.75346192E+03</totfact>
</mgrwt>
</event>
<event>
 4    1  0.3243498E-002  0.1248935E+03  0.7818608E-02  0.1235236E+00
          4   -1    0    0  501    0  0.00000000000E+00  0.00000000000E+00  0.38732971379E+02  0.38753786548E+02  0.12700000000E+01 0.  1.
         -4   -1    0    0    0  501 -0.00000000000E+00 -0.00000000000E+00 -0.10062707597E+03  0.10063508990E+03  0.12700000000E+01 0.  1.
    9000005    1    1    2    0    0  0.52706074625E+02  0.32509714800E+02 -0.22033717331E+02  0.65736569413E+02  0.10000000000E+01 0.  0.
    9000005    1    1    2    0    0 -0.52706074625E+02 -0.32509714800E+02 -0.39860387264E+02  0.73652307035E+02  0.10000000000E+01 0.  0.
<mgrwt>
<rscale>  0 0.12489347E+03</rscale>
<asrwt>0</asrwt>
<pdfrwt beam="1">  1        4 0.59611363E-02 0.12489347E+03</pdfrwt>
<pdfrwt beam="2">  1       -4 0.15483306E-01 0.12489347E+03</pdfrwt>
<totfact> 0.10170659E+04</totfact>
</mgrwt>
</event>
<event>
 5    1  0.3243498E-002  0.1249821E+03  0.7818608E-02  0.1235097E+00
         -4   -1    0    0    0  501 -0.00000000000E+00  0.00000000000E+00  0.57564113057E+02  0.57578120949E+02  0.12700000000E+01 0. -1.
          4   -1    0    0  501    0  0.00000000000E+00 -0.00000000000E+00 -0.67811485478E+02  0.67823376964E+02  0.12700000000E+01 0. -1.
         25    2    1    2    0    0  0.00000000000E+00  0.00000000000E+00 -0.10247372421E+02  0.12540149791E+03  0.12498210687E+03 0.  0.
    9000005    1    3    3    0    0 -0.57484162573E+02  0.24031830993E+02 -0.98484058165E+01  0.63086836541E+02  0.10000000000E+01 0.  0.
    9000005    1    3    3    0    0  0.57484162573E+02 -0.24031830993E+02 -0.39896660457E+00  0.62314661372E+02  0.10000000000E+01 0.  0.
<mgrwt>
<rscale>  0 0.12498211E+03</rscale>
<asrwt>0</asrwt>
<pdfrwt beam="2">  1        4 0.10434528E-01 0.12498211E+03</pdfrwt>
<pdfrwt beam="1">  1       -4 0.88580097E-02 0.12498211E+03</pdfrwt>
<totfact> 0.10448349E+04</totfact>
</mgrwt>
</event>
<event>
 5    1  0.3243498E-002  0.1250004E+03  0.7818608E-02  0.1235069E+00
         -4   -1    0    0    0  501 -0.00000000000E+00  0.00000000000E+00  0.72214300938E+01  0.73322542645E+01  0.12700000000E+01 0.  1.
          4   -1    0    0  501    0  0.00000000000E+00 -0.00000000000E+00 -0.53669761299E+03  0.53669911560E+03  0.12700000000E+01 0.  1.
         25    2    1    2    0    0  0.00000000000E+00  0.00000000000E+00 -0.52947618289E+03  0.54403136986E+03  0.12500041258E+03 0.  0.
    9000005    1    3    3    0    0  0.60299454590E+02  0.15593601856E+02 -0.24250708858E+03  0.25037945734E+03  0.10000000000E+01 0.  0.
    9000005    1    3    3    0    0 -0.60299454590E+02 -0.15593601856E+02 -0.28696909431E+03  0.29365191253E+03  0.10000000000E+01 0.  0.
<mgrwt>
<rscale>  0 0.12500041E+03</rscale>
<asrwt>0</asrwt>
<pdfrwt beam="2">  1        4 0.82577473E-01 0.12500041E+03</pdfrwt>
<pdfrwt beam="1">  1       -4 0.11196302E-02 0.12500041E+03</pdfrwt>
<totfact> 0.52602450E+03</totfact>
</mgrwt>
</event>
<event>
 5    1  0.3243498E-002  0.1250025E+03  0.7818608E-02  0.1235065E+00
         -4   -1    0    0    0  501 -0.00000000000E+00  0.00000000000E+00  0.67801600699E+02  0.67813493918E+02  0.12700000000E+01 0. -1.
          4   -1    0    0  501    0  0.00000000000E+00 -0.00000000000E+00 -0.57591282327E+02  0.57605283612E+02  0.12700000000E+01 0. -1.
         25    2    1    2    0    0  0.00000000000E+00  0.00000000000E+00  0.10210318372E+02  0.12541877753E+03  0.12500247660E+03 0.  0.
    9000005    1    3    3    0    0 -0.52146992136E+01  0.62106255652E+02  0.97057006784E+01  0.63083917956E+02  0.10000000000E+01 0.  0.
    9000005    1    3    3    0    0  0.52146992136E+01 -0.62106255652E+02  0.50461769384E+00  0.62334859574E+02  0.10000000000E+01 0.  0.
<mgrwt>
<rscale>  0 0.12500248E+03</rscale>
<asrwt>0</asrwt>
<pdfrwt beam="2">  1        4 0.88621892E-02 0.12500248E+03</pdfrwt>
<pdfrwt beam="1">  1       -4 0.10433007E-01 0.12500248E+03</pdfrwt>
<totfact> 0.10443168E+04</totfact>
</mgrwt>
</event>
<event>
 5    1  0.3243498E-002  0.1249997E+03  0.7818608E-02  0.1235070E+00
          4   -1    0    0  501    0  0.00000000000E+00  0.00000000000E+00  0.48103024438E+03  0.48103192088E+03  0.12700000000E+01 0. -1.
         -4   -1    0    0    0  501 -0.00000000000E+00 -0.00000000000E+00 -0.80691970244E+01  0.81685274449E+01  0.12700000000E+01 0. -1.
         25    2    1    2    0    0  0.00000000000E+00  0.00000000000E+00  0.47296104735E+03  0.48920044832E+03  0.12499970531E+03 0.  0.
    9000005    1    3    3    0    0 -0.11605554502E+02  0.51485167538E+02  0.10551650054E+03  0.11798365674E+03  0.10000000000E+01 0.  0.
    9000005    1    3    3    0    0  0.11605554502E+02 -0.51485167538E+02  0.36744454681E+03  0.37121679158E+03  0.10000000000E+01 0.  0.
<mgrwt>
<rscale>  0 0.12499971E+03</rscale>
<asrwt>0</asrwt>
<pdfrwt beam="1">  1        4 0.74012417E-01 0.12499971E+03</pdfrwt>
<pdfrwt beam="2">  1       -4 0.12491848E-02 0.12499971E+03</pdfrwt>
<totfact> 0.56712492E+03</totfact>
</mgrwt>
</event>
<event>
 5    1  0.3243498E-002  0.1250004E+03  0.7818608E-02  0.1235069E+00
          4   -1    0    0  501    0  0.00000000000E+00  0.00000000000E+00  0.10433683070E+03  0.10434455971E+03  0.12700000000E+01 0.  1.
         -4   -1    0    0    0  501 -0.00000000000E+00 -0.00000000000E+00 -0.37419168282E+02  0.37440713868E+02  0.12700000000E+01 0.  1.
         25    2    1    2    0    0  0.00000000000E+00  0.00000000000E+00  0.66917662420E+02  0.14178527358E+03  0.12500036104E+03 0.  0.
    9000005    1    3    3    0    0  0.38692688250E+02  0.13415867864E+02  0.87000675962E+02  0.96162504400E+02  0.10000000000E+01 0.  0.
    9000005    1    3    3    0    0 -0.38692688250E+02 -0.13415867864E+02 -0.20083013542E+02  0.45622769178E+02  0.10000000000E+01 0.  0.
<mgrwt>
<rscale>  0 0.12500036E+03</rscale>
<asrwt>0</asrwt>
<pdfrwt beam="1">  1        4 0.16054072E-01 0.12500036E+03</pdfrwt>
<pdfrwt beam="2">  1       -4 0.57590471E-02 0.12500036E+03</pdfrwt>
<totfact> 0.10096636E+04</totfact>
</mgrwt>
</event>
<event>
 5    1  0.3243498E-002  0.1249999E+03  0.7818608E-02  0.1235069E+00
          4   -1    0    0  501    0  0.00000000000E+00  0.00000000000E+00  0.12417893002E+02  0.12482666646E+02  0.12700000000E+01 0. -1.
         -4   -1    0    0    0  501 -0.00000000000E+00 -0.00000000000E+00 -0.31368129877E+03  0.31368386968E+03  0.12700000000E+01 0. -1.
         25    2    1    2    0    0  0.00000000000E+00  0.00000000000E+00 -0.30126340577E+03  0.32616653633E+03  0.12499987906E+03 0.  0.
    9000005    1    3    3    0    0  0.24995810076E+02 -0.50943534263E+02 -0.21893491005E+03  0.22617145939E+03  0.10000000000E+01 0.  0.
    9000005    1    3    3    0    0 -0.24995810076E+02  0.50943534263E+02 -0.82328495726E+02  0.99995076944E+02  0.10000000000E+01 0.  0.
<mgrwt>
<rscale>  0 0.12499988E+03</rscale>
<asrwt>0</asrwt>
<pdfrwt beam="1">  1        4 0.19156257E-02 0.12499988E+03</pdfrwt>
<pdfrwt beam="2">  1       -4 0.48263836E-01 0.12499988E+03</pdfrwt>
<totfact> 0.72428848E+03</totfact>
</mgrwt>
</event>
<event>
 5    1  0.3243498E-002  0.1249955E+03  0.7818608E-02  0.1235076E+00
         -4   -1    0    0    0  501 -0.00000000000E+00  0.00000000000E+00  0.99483224894E+03  0.99483305958E+03  0.12700000000E+01 0. -1.
          4   -1    0    0  501    0  0.00000000000E+00 -0.00000000000E+00 -0.38227227820E+01  0.40281645284E+01  0.12700000000E+01 0. -1.
         25    2    1    2    0    0  0.00000000000E+00  0.00000000000E+00  0.99100952616E+03  0.99886122411E+03  0.12499545627E+03 0.  0.
    9000005    1    3    3    0    0  0.31884611784E+02 -0.44778719463E+02  0.25801691000E+03  0.26380956774E+03  0.10000000000E+01 0.  0.
    9000005    1    3    3    0    0 -0.31884611784E+02  0.44778719463E+02  0.73299261616E+03  0.73505165637E+03  0.10000000000E+01 0.  0.
<mgrwt>
<rscale>  0 0.12499546E+03</rscale>
<asrwt>0</asrwt>
<pdfrwt beam="2">  1        4 0.60397672E-03 0.12499546E+03</pdfrwt>
<pdfrwt beam="1">  1       -4 0.15306699E+00 0.12499546E+03</pdfrwt>
<totfact> 0.30645146E+03</totfact>
</mgrwt>
</event>
<event>
 5    1  0.3243498E-002  0.1250076E+03  0.7818608E-02  0.1235057E+00
          4   -1    0    0  501    0  0.00000000000E+00  0.00000000000E+00  0.19306155490E+03  0.19306573202E+03  0.12700000000E+01 0.  1.
         -4   -1    0    0    0  501 -0.00000000000E+00 -0.00000000000E+00 -0.20211311721E+02  0.20251173336E+02  0.12700000000E+01 0.  1.
         25    2    1    2    0    0  0.00000000000E+00  0.00000000000E+00  0.17285024318E+03  0.21331690536E+03  0.12500758195E+03 0.  0.
    9000005    1    3    3    0    0 -0.49615757963E+02  0.34253972508E+02  0.58351035707E+02  0.83910079483E+02  0.10000000000E+01 0.  0.
    9000005    1    3    3    0    0  0.49615757963E+02 -0.34253972508E+02  0.11449920748E+03  0.12940682588E+03  0.10000000000E+01 0.  0.
<mgrwt>
<rscale>  0 0.12500758E+03</rscale>
<asrwt>0</asrwt>
<pdfrwt beam="1">  1        4 0.29705164E-01 0.12500758E+03</pdfrwt>
<pdfrwt beam="2">  1       -4 0.31128203E-02 0.12500758E+03</pdfrwt>
<totfact> 0.87922136E+03</totfact>
</mgrwt>
</event>
<event>
 5    1  0.3243498E-002  0.1250008E+03  0.7818608E-02  0.1235068E+00
         -4   -1    0    0    0  501 -0.00000000000E+00  0.00000000000E+00  0.16124106718E+03  0.16124606862E+03  0.12700000000E+01 0.  1.
          4   -1    0    0  501    0  0.00000000000E+00 -0.00000000000E+00 -0.24204447922E+02  0.24237743278E+02  0.12700000000E+01 0.  1.
         25    2    1    2    0    0  0.00000000000E+00  0.00000000000E+00  0.13703661926E+03  0.18548381190E+03  0.12500083783E+03 0.  0.
    9000005    1    3    3    0    0  0.39716076986E+02 -0.20626049501E+02  0.13324085857E+03  0.14055933652E+03  0.10000000000E+01 0.  0.
    9000005    1    3    3    0    0 -0.39716076986E+02  0.20626049501E+02  0.37957606884E+01  0.44924475382E+02  0.10000000000E+01 0.  0.
<mgrwt>
<rscale>  0 0.12500084E+03</rscale>
<asrwt>0</asrwt>
<pdfrwt beam="2">  1        4 0.37267071E-02 0.12500084E+03</pdfrwt>
<pdfrwt beam="1">  1       -4 0.24809264E-01 0.12500084E+03</pdfrwt>
<totfact> 0.92637369E+03</totfact>
</mgrwt>
</event>
<event>
 5    1  0.3243498E-002  0.1250006E+03  0.7818608E-02  0.1235068E+00
         -4   -1    0    0    0  501 -0.00000000000E+00  0.00000000000E+00  0.28513648873E+02  0.28541917806E+02  0.12700000000E+01 0.  1.
          4   -1    0    0  501    0  0.00000000000E+00 -0.00000000000E+00 -0.13689793852E+03  0.13690382928E+03  0.12700000000E+01 0.  1.
         25    2    1    2    0    0  0.00000000000E+00  0.00000000000E+00 -0.10838428965E+03  0.16544574708E+03  0.12500056394E+03 0.  0.
    9000005    1    3    3    0    0 -0.53440772336E+02 -0.41119129178E+01 -0.11663600271E+02  0.54862223315E+02  0.10000000000E+01 0.  0.
    9000005    1    3    3    0    0  0.53440772336E+02  0.41119129178E+01 -0.96720689376E+02  0.11058352377E+03  0.10000000000E+01 0.  0.
<mgrwt>
<rscale>  0 0.12500056E+03</rscale>
<asrwt>0</asrwt>
<pdfrwt beam="2">  1        4 0.21063849E-01 0.12500056E+03</pdfrwt>
<pdfrwt beam="1">  1       -4 0.43893430E-02 0.12500056E+03</pdfrwt>
<totfact> 0.96301822E+03</totfact>
</mgrwt>
</event>
<event>
 5    1  0.3243498E-002  0.1250006E+03  0.7818608E-02  0.1235068E+00
         -4   -1    0    0    0  501 -0.00000000000E+00  0.00000000000E+00  0.71719587910E+01  0.72835357416E+01  0.12700000000E+01 0. -1.
          4   -1    0    0  501    0  0.00000000000E+00 -0.00000000000E+00 -0.54034484660E+03  0.54034633907E+03  0.12700000000E+01 0. -1.
         25    2    1    2    0    0  0.00000000000E+00  0.00000000000E+00 -0.53317288781E+03  0.54762987481E+03  0.12500060597E+03 0.  0.
    9000005    1    3    3    0    0  0.46596145620E+02 -0.22251422046E+02 -0.11237951613E+03  0.12367894815E+03  0.10000000000E+01 0.  0.
    9000005    1    3    3    0    0 -0.46596145620E+02  0.22251422046E+02 -0.42079337168E+03  0.42395092666E+03  0.10000000000E+01 0.  0.
<mgrwt>
<rscale>  0 0.12500061E+03</rscale>
<asrwt>0</asrwt>
<pdfrwt beam="2">  1        4 0.83138642E-01 0.12500061E+03</pdfrwt>
<pdfrwt beam="1">  1       -4 0.11120763E-02 0.12500061E+03</pdfrwt>
<totfact> 0.52348845E+03</totfact>
</mgrwt>
</event>
<event>
 4    1  0.3243498E-002  0.1248809E+03  0.7818608E-02  0.1235256E+00
         -4   -1    0    0    0  501 -0.00000000000E+00  0.00000000000E+00  0.37060383072E+01  0.39176038512E+01  0.12700000000E+01 0. -1.
          4   -1    0    0  501    0  0.00000000000E+00 -0.00000000000E+00 -0.10226091009E+04  0.10226098895E+04  0.12700000000E+01 0. -1.
    9000005    1    1    2    0    0 -0.11971760022E+02 -0.59540175416E+02 -0.39048623842E+03  0.39518205668E+03  0.10000000000E+01 0.  0.
    9000005    1    1    2    0    0  0.11971760022E+02  0.59540175416E+02 -0.62841682414E+03  0.63134543665E+03  0.10000000000E+01 0.  0.
<mgrwt>
<rscale>  0 0.12488092E+03</rscale>
<asrwt>0</asrwt>
<pdfrwt beam="2">  1        4 0.15734059E+00 0.12488092E+03</pdfrwt>
<pdfrwt beam="1">  1       -4 0.58649549E-03 0.12488092E+03</pdfrwt>
<totfact> 0.29816555E+03</totfact>
</mgrwt>
</event>
<event>
 5    1  0.3243498E-002  0.1249974E+03  0.7818608E-02  0.1235073E+00
         -4   -1    0    0    0  501 -0.00000000000E+00  0.00000000000E+00  0.53483625176E+02  0.53498701498E+02  0.12700000000E+01 0.  1.
          4   -1    0    0  501    0  0.00000000000E+00 -0.00000000000E+00 -0.73002384844E+02  0.73013430907E+02  0.12700000000E+01 0.  1.
         25    2    1    2    0    0  0.00000000000E+00  0.00000000000E+00 -0.19518759667E+02  0.12651213241E+03  0.12499735064E+03 0.  0.
    9000005    1    3    3    0    0  0.20720481905E+01 -0.39194251466E+02 -0.58975838964E+02  0.70849363535E+02  0.10000000000E+01 0.  0.
    9000005    1    3    3    0    0 -0.20720481905E+01  0.39194251466E+02  0.39457079297E+02  0.55662768871E+02  0.10000000000E+01 0.  0.
<mgrwt>
<rscale>  0 0.12499735E+03</rscale>
<asrwt>0</asrwt>
<pdfrwt beam="2">  1        4 0.11233146E-01 0.12499735E+03</pdfrwt>
<pdfrwt beam="1">  1       -4 0.82302594E-02 0.12499735E+03</pdfrwt>
<totfact> 0.10420387E+04</totfact>
</mgrwt>
</event>
<event>
 5    1  0.3243498E-002  0.1250010E+03  0.7818608E-02  0.1235068E+00
         -4   -1    0    0    0  501 -0.00000000000E+00  0.00000000000E+00  0.88613722984E+01  0.89519170578E+01  0.12700000000E+01 0. -1.
          4   -1    0    0  501    0  0.00000000000E+00 -0.00000000000E+00 -0.43849269036E+03  0.43849452950E+03  0.12700000000E+01 0. -1.
         25    2    1    2    0    0  0.00000000000E+00  0.00000000000E+00 -0.42963131806E+03  0.44744644656E+03  0.12500101230E+03 0.  0.
    9000005    1    3    3    0    0 -0.55856329345E+02 -0.23598748319E+02 -0.16070855282E+03  0.17177039733E+03  0.10000000000E+01 0.  0.
    9000005    1    3    3    0    0  0.55856329345E+02  0.23598748319E+02 -0.26892276525E+03  0.27567604923E+03  0.10000000000E+01 0.  0.
<mgrwt>
<rscale>  0 0.12500101E+03</rscale>
<asrwt>0</asrwt>
<pdfrwt beam="2">  1        4 0.67467504E-01 0.12500101E+03</pdfrwt>
<pdfrwt beam="1">  1       -4 0.13703948E-02 0.12500101E+03</pdfrwt>
<totfact> 0.60184314E+03</totfact>
</mgrwt>
</event>
<event>
 5    1  0.3243498E-002  0.1249977E+03  0.7818608E-02  0.1235073E+00
          4   -1    0    0  501    0  0.00000000000E+00  0.00000000000E+00  0.13951550456E+02  0.14009234816E+02  0.12700000000E+01 0. -1.
         -4   -1    0    0    0  501 -0.00000000000E+00 -0.00000000000E+00 -0.27933976507E+03  0.27934265204E+03  0.12700000000E+01 0. -1.
         25    2    1    2    0    0  0.00000000000E+00  0.00000000000E+00 -0.26538821461E+03  0.29335188686E+03  0.12499770024E+03 0.  0.
    9000005    1    3    3    0    0 -0.21310380662E+02 -0.41266233453E+02 -0.23081613434E+03  0.23544452047E+03  0.10000000000E+01 0.  0.
    9000005    1    3    3    0    0  0.21310380662E+02  0.41266233453E+02 -0.34572080272E+02  0.57907366385E+02  0.10000000000E+01 0.  0.
<mgrwt>
<rscale>  0 0.12499770E+03</rscale>
<asrwt>0</asrwt>
<pdfrwt beam="1">  1        4 0.21510519E-02 0.12499770E+03</pdfrwt>
<pdfrwt beam="2">  1       -4 0.42980004E-01 0.12499770E+03</pdfrwt>
<totfact> 0.76444311E+03</totfact>
</mgrwt>
</event>
<event>
 5    1  0.3243498E-002  0.1250050E+03  0.7818608E-02  0.1235062E+00
         -4   -1    0    0    0  501 -0.00000000000E+00  0.00000000000E+00  0.11948288974E+02  0.12015594426E+02  0.12700000000E+01 0.  1.
          4   -1    0    0  501    0  0.00000000000E+00 -0.00000000000E+00 -0.32596882517E+03  0.32597129917E+03  0.12700000000E+01 0.  1.
         25    2    1    2    0    0  0.00000000000E+00  0.00000000000E+00 -0.31402053619E+03  0.33798689359E+03  0.12500497226E+03 0.  0.
    9000005    1    3    3    0    0  0.24365996708E+01 -0.54501788294E+02 -0.74592239130E+02  0.92419608761E+02  0.10000000000E+01 0.  0.
    9000005    1    3    3    0    0 -0.24365996708E+01  0.54501788294E+02 -0.23942829706E+03  0.24556728483E+03  0.10000000000E+01 0.  0.
<mgrwt>
<rscale>  0 0.12500497E+03</rscale>
<asrwt>0</asrwt>
<pdfrwt beam="2">  1        4 0.50154411E-01 0.12500497E+03</pdfrwt>
<pdfrwt beam="1">  1       -4 0.18435662E-02 0.12500497E+03</pdfrwt>
<totfact> 0.71058861E+03</totfact>
</mgrwt>
</event>
<event>
 5    1  0.3243498E-002  0.1250021E+03  0.7818608E-02  0.1235066E+00
          4   -1    0    0  501    0  0.00000000000E+00  0.00000000000E+00  0.24482733743E+03  0.24483063136E+03  0.12700000000E+01 0.  1.
         -4   -1    0    0    0  501 -0.00000000000E+00 -0.00000000000E+00 -0.15926971099E+02  0.15977525102E+02  0.12700000000E+01 0.  1.
         25    2    1    2    0    0  0.00000000000E+00  0.00000000000E+00  0.22890036633E+03  0.26080815646E+03  0.12500206707E+03 0.  0.
    9000005    1    3    3    0    0 -0.30106584135E+02 -0.38722818856E+02  0.19524426296E+03  0.20131364913E+03  0.10000000000E+01 0.  0.
    9000005    1    3    3    0    0  0.30106584135E+02  0.38722818856E+02  0.33656103370E+02  0.59494507330E+02  0.10000000000E+01 0.  0.
<mgrwt>
<rscale>  0 0.12500207E+03</rscale>
<asrwt>0</asrwt>
<pdfrwt beam="1">  1        4 0.37669883E-01 0.12500207E+03</pdfrwt>
<pdfrwt beam="2">  1       -4 0.24544456E-02 0.12500207E+03</pdfrwt>
<totfact> 0.80789065E+03</totfact>
</mgrwt>
</event>
<event>
 5    1  0.3243498E-002  0.1250002E+03  0.7818608E-02  0.1235069E+00
         -4   -1    0    0    0  501 -0.00000000000E+00  0.00000000000E+00  0.25069624693E+02  0.25101772493E+02  0.12700000000E+01 0.  1.
          4   -1    0    0  501    0  0.00000000000E+00 -0.00000000000E+00 -0.15568199967E+03  0.15568717970E+03  0.12700000000E+01 0.  1.
         25    2    1    2    0    0  0.00000000000E+00  0.00000000000E+00 -0.13061237498E+03  0.18078895219E+03  0.12500021094E+03 0.  0.
    9000005    1    3    3    0    0 -0.57890199429E+02 -0.93959459617E+00 -0.99320758288E+02  0.11496856551E+03  0.10000000000E+01 0.  0.
    9000005    1    3    3    0    0  0.57890199429E+02  0.93959459617E+00 -0.31291616691E+02  0.65820386682E+02  0.10000000000E+01 0.  0.
<mgrwt>
<rscale>  0 0.12500021E+03</rscale>
<asrwt>0</asrwt>
<pdfrwt beam="2">  1        4 0.23953948E-01 0.12500021E+03</pdfrwt>
<pdfrwt beam="1">  1       -4 0.38597368E-02 0.12500021E+03</pdfrwt>
<totfact> 0.93474740E+03</totfact>
</mgrwt>
</event>
<event>
 5    1  0.3243498E-002  0.1249989E+03  0.7818608E-02  0.1235071E+00
          4   -1    0    0  501    0  0.00000000000E+00  0.00000000000E+00  0.82786453216E+02  0.82796193971E+02  0.12700000000E+01 0.  1.
         -4   -1    0    0    0  501 -0.00000000000E+00 -0.00000000000E+00 -0.47162729186E+02  0.47179825395E+02  0.12700000000E+01 0.  1.
         25    2    1    2    0    0  0.00000000000E+00  0.00000000000E+00  0.35623724030E+02  0.12997601937E+03  0.12499886358E+03 0.  0.
    9000005    1    3    3    0    0  0.52550213502E+02 -0.31125128329E+01  0.52827112812E+02  0.74584961777E+02  0.10000000000E+01 0.  0.
    9000005    1    3    3    0    0 -0.52550213502E+02  0.31125128329E+01 -0.17203388782E+02  0.55391057589E+02  0.10000000000E+01 0.  0.
<mgrwt>
<rscale>  0 0.12499886E+03</rscale>
<asrwt>0</asrwt>
<pdfrwt beam="1">  1        4 0.12738442E-01 0.12499886E+03</pdfrwt>
<pdfrwt beam="2">  1       -4 0.72578690E-02 0.12499886E+03</pdfrwt>
<totfact> 0.10345286E+04</totfact>
</mgrwt>
</event>
<event>
 5    1  0.3243498E-002  0.1249791E+03  0.7818608E-02  0.1235102E+00
         -4   -1    0    0    0  501 -0.00000000000E+00  0.00000000000E+00  0.11572440355E+03  0.11573137205E+03  0.12700000000E+01 0.  1.
          4   -1    0    0  501    0  0.00000000000E+00 -0.00000000000E+00 -0.33723556114E+02  0.33747461193E+02  0.12700000000E+01 0.  1.
         25    2    1    2    0    0  0.00000000000E+00  0.00000000000E+00  0.82000847439E+02  0.14947883325E+03  0.12497912869E+03 0.  0.
    9000005    1    3    3    0    0 -0.33917509101E+02 -0.13244445320E+02  0.10172924573E+03  0.10805393187E+03  0.10000000000E+01 0.  0.
    9000005    1    3    3    0    0  0.33917509101E+02  0.13244445320E+02 -0.19728398288E+02  0.41424901381E+02  0.10000000000E+01 0.  0.
<mgrwt>
<rscale>  0 0.12497913E+03</rscale>
<asrwt>0</asrwt>
<pdfrwt beam="2">  1        4 0.51906143E-02 0.12497913E+03</pdfrwt>
<pdfrwt beam="1">  1       -4 0.17806129E-01 0.12497913E+03</pdfrwt>
<totfact> 0.99454397E+03</totfact>
</mgrwt>
</event>
<event>
 5    1  0.3243498E-002  0.1249983E+03  0.7818608E-02  0.1235072E+00
         -4   -1    0    0    0  501 -0.00000000000E+00  0.00000000000E+00  0.48596765320E+02  0.48613357213E+02  0.12700000000E+01 0. -1.
          4   -1    0    0  501    0  0.00000000000E+00 -0.00000000000E+00 -0.80343366871E+02  0.80353403787E+02  0.12700000000E+01 0. -1.
         25    2    1    2    0    0  0.00000000000E+00  0.00000000000E+00 -0.31746601551E+02  0.12896676100E+03  0.12499831492E+03 0.  0.
    9000005    1    3    3    0    0 -0.62390388594E+02  0.21220575289E+01 -0.18806254953E+02  0.65205359768E+02  0.10000000000E+01 0.  0.
    9000005    1    3    3    0    0  0.62390388594E+02 -0.21220575289E+01 -0.12940346599E+02  0.63761401233E+02  0.10000000000E+01 0.  0.
<mgrwt>
<rscale>  0 0.12499831E+03</rscale>
<asrwt>0</asrwt>
<pdfrwt beam="2">  1        4 0.12362566E-01 0.12499831E+03</pdfrwt>
<pdfrwt beam="1">  1       -4 0.74784738E-02 0.12499831E+03</pdfrwt>
<totfact> 0.10367055E+04</totfact>
</mgrwt>
</event>
<event>
 5    1  0.3243498E-002  0.1250020E+03  0.7818608E-02  0.1235066E+00
         -4   -1    0    0    0  501 -0.00000000000E+00  0.00000000000E+00  0.35572868093E+02  0.35595531242E+02  0.12700000000E+01 0.  1.
          4   -1    0    0  501    0  0.00000000000E+00 -0.00000000000E+00 -0.10975206969E+03  0.10975941737E+03  0.12700000000E+01 0.  1.
         25    2    1    2    0    0  0.00000000000E+00  0.00000000000E+00 -0.74179201601E+02  0.14535494862E+03  0.12500202853E+03 0.  0.
    9000005    1    3    3    0    0  0.48066663514E+02  0.35205854481E+02 -0.59014876168E+02  0.83866631864E+02  0.10000000000E+01 0.  0.
    9000005    1    3    3    0    0 -0.48066663514E+02 -0.35205854481E+02 -0.15164325433E+02  0.61488316752E+02  0.10000000000E+01 0.  0.
<mgrwt>
<rscale>  0 0.12500203E+03</rscale>
<asrwt>0</asrwt>
<pdfrwt beam="2">  1        4 0.16887242E-01 0.12500203E+03</pdfrwt>
<pdfrwt beam="1">  1       -4 0.54750575E-02 0.12500203E+03</pdfrwt>
<totfact> 0.10023324E+04</totfact>
</mgrwt>
</event>
<event>
 5    1  0.3243498E-002  0.1249994E+03  0.7818608E-02  0.1235070E+00
          4   -1    0    0  501    0  0.00000000000E+00  0.00000000000E+00  0.40167280549E+02  0.40187352820E+02  0.12700000000E+01 0.  1.
         -4   -1    0    0    0  501 -0.00000000000E+00 -0.00000000000E+00 -0.97200176275E+02  0.97208472717E+02  0.12700000000E+01 0.  1.
         25    2    1    2    0    0  0.00000000000E+00  0.00000000000E+00 -0.57032895726E+02  0.13739582554E+03  0.12499944672E+03 0.  0.
    9000005    1    3    3    0    0  0.46400738056E+02 -0.12598545502E+02 -0.72393406640E+02  0.86911202764E+02  0.10000000000E+01 0.  0.
    9000005    1    3    3    0    0 -0.46400738056E+02  0.12598545502E+02  0.15360510913E+02  0.50484622772E+02  0.10000000000E+01 0.  0.
<mgrwt>
<rscale>  0 0.12499945E+03</rscale>
<asrwt>0</asrwt>
<pdfrwt beam="1">  1        4 0.61817639E-02 0.12499945E+03</pdfrwt>
<pdfrwt beam="2">  1       -4 0.14956055E-01 0.12499945E+03</pdfrwt>
<totfact> 0.10187943E+04</totfact>
</mgrwt>
</event>
<event>
 5    1  0.3243498E-002  0.1250000E+03  0.7818608E-02  0.1235069E+00
         -4   -1    0    0    0  501 -0.00000000000E+00  0.00000000000E+00  0.11879292387E+02  0.11946986550E+02  0.12700000000E+01 0.  1.
          4   -1    0    0  501    0  0.00000000000E+00 -0.00000000000E+00 -0.32782518535E+03  0.32782764534E+03  0.12700000000E+01 0.  1.
         25    2    1    2    0    0  0.00000000000E+00  0.00000000000E+00 -0.31594589296E+03  0.33977463189E+03  0.12499997279E+03 0.  0.
    9000005    1    3    3    0    0  0.62372571157E+02  0.23162245145E+01 -0.14957474046E+03  0.16207808462E+03  0.10000000000E+01 0.  0.
    9000005    1    3    3    0    0 -0.62372571157E+02 -0.23162245145E+01 -0.16637115250E+03  0.17769654727E+03  0.10000000000E+01 0.  0.
<mgrwt>
<rscale>  0 0.12499997E+03</rscale>
<asrwt>0</asrwt>
<pdfrwt beam="2">  1        4 0.50440033E-01 0.12499997E+03</pdfrwt>
<pdfrwt beam="1">  1       -4 0.18329802E-02 0.12499997E+03</pdfrwt>
<totfact> 0.70864362E+03</totfact>
</mgrwt>
</event>
<event>
 5    1  0.3243498E-002  0.1249814E+03  0.7818608E-02  0.1235098E+00
          4   -1    0    0  501    0  0.00000000000E+00  0.00000000000E+00  0.22490090808E+02  0.22525920282E+02  0.12700000000E+01 0. -1.
         -4   -1    0    0    0  501 -0.00000000000E+00 -0.00000000000E+00 -0.17345963096E+03  0.17346428010E+03  0.12700000000E+01 0. -1.
         25    2    1    2    0    0  0.00000000000E+00  0.00000000000E+00 -0.15096954015E+03  0.19599020039E+03  0.12498142500E+03 0.  0.
    9000005    1    3    3    0    0  0.14105547824E+02 -0.45839655295E+02 -0.12683188751E+02  0.49619590425E+02  0.10000000000E+01 0.  0.
    9000005    1    3    3    0    0 -0.14105547824E+02  0.45839655295E+02 -0.13828635140E+03  0.14637060996E+03  0.10000000000E+01 0.  0.
<mgrwt>
<rscale>  0 0.12498142E+03</rscale>
<asrwt>0</asrwt>
<pdfrwt beam="1">  1        4 0.34631278E-02 0.12498142E+03</pdfrwt>
<pdfrwt beam="2">  1       -4 0.26689210E-01 0.12498142E+03</pdfrwt>
<totfact> 0.90853134E+03</totfact>
</mgrwt>
</event>
<event>
 5    1  0.3243498E-002  0.1250404E+03  0.7818608E-02  0.1235006E+00
          4   -1    0    0  501    0  0.00000000000E+00  0.00000000000E+00  0.25854575861E+02  0.25885748839E+02  0.12700000000E+01 0.  1.
         -4   -1    0    0    0  501 -0.00000000000E+00 -0.00000000000E+00 -0.15105821169E+03  0.15106355027E+03  0.12700000000E+01 0.  1.
         25    2    1    2    0    0  0.00000000000E+00  0.00000000000E+00 -0.12520363583E+03  0.17694929911E+03  0.12504040958E+03 0.  0.
    9000005    1    3    3    0    0 -0.10294291971E+02 -0.16427161028E+02 -0.14670372654E+03  0.14798245656E+03  0.10000000000E+01 0.  0.
    9000005    1    3    3    0    0  0.10294291971E+02  0.16427161028E+02  0.21500090713E+02  0.28966842550E+02  0.10000000000E+01 0.  0.
<mgrwt>
<rscale>  0 0.12504041E+03</rscale>
<asrwt>0</asrwt>
<pdfrwt beam="1">  1        4 0.39804357E-02 0.12504041E+03</pdfrwt>
<pdfrwt beam="2">  1       -4 0.23242533E-01 0.12504041E+03</pdfrwt>
<totfact> 0.94083741E+03</totfact>
</mgrwt>
</event>
<event>
 5    1  0.3243498E-002  0.1250001E+03  0.7818608E-02  0.1235069E+00
         -4   -1    0    0    0  501 -0.00000000000E+00  0.00000000000E+00  0.10454693990E+03  0.10455465337E+03  0.12700000000E+01 0.  1.
          4   -1    0    0  501    0  0.00000000000E+00 -0.00000000000E+00 -0.37343777616E+02  0.37365366674E+02  0.12700000000E+01 0.  1.
         25    2    1    2    0    0  0.00000000000E+00  0.00000000000E+00  0.67203162280E+02  0.14192002005E+03  0.12500010828E+03 0.  0.
    9000005    1    3    3    0    0  0.38493567914E+02 -0.14331789831E+02  0.87073283579E+02  0.96280380576E+02  0.10000000000E+01 0.  0.
    9000005    1    3    3    0    0 -0.38493567914E+02  0.14331789831E+02 -0.19870121299E+02  0.45639639470E+02  0.10000000000E+01 0.  0.
<mgrwt>
<rscale>  0 0.12500011E+03</rscale>
<asrwt>0</asrwt>
<pdfrwt beam="2">  1        4 0.57474506E-02 0.12500011E+03</pdfrwt>
<pdfrwt beam="1">  1       -4 0.16086399E-01 0.12500011E+03</pdfrwt>
<totfact> 0.10093922E+04</totfact>
</mgrwt>
</event>
<event>
 5    1  0.3243498E-002  0.1249994E+03  0.7818608E-02  0.1235070E+00
         -4   -1    0    0    0  501 -0.00000000000E+00  0.00000000000E+00  0.67741825748E+02  0.67753729459E+02  0.12700000000E+01 0.  1.
          4   -1    0    0  501    0  0.00000000000E+00 -0.00000000000E+00 -0.57639263626E+02  0.57653253259E+02  0.12700000000E+01 0.  1.
         25    2    1    2    0    0  0.00000000000E+00  0.00000000000E+00  0.10102562122E+02  0.12540698272E+03  0.12499939821E+03 0.  0.
    9000005    1    3    3    0    0  0.22092252210E+01 -0.61566020966E+02  0.15571500356E+02  0.63550981401E+02  0.10000000000E+01 0.  0.
    9000005    1    3    3    0    0 -0.22092252210E+01  0.61566020966E+02 -0.54689382341E+01  0.61856001318E+02  0.10000000000E+01 0.  0.
<mgrwt>
<rscale>  0 0.12499940E+03</rscale>
<asrwt>0</asrwt>
<pdfrwt beam="2">  1        4 0.88695709E-02 0.12499940E+03</pdfrwt>
<pdfrwt beam="1">  1       -4 0.10423811E-01 0.12499940E+03</pdfrwt>
<totfact> 0.10444154E+04</totfact>
</mgrwt>
</event>
