<event>
 5    1  0.3316206E-002  0.1249999E+03  0.7818608E-02  0.1235069E+00
         -4   -1    0    0    0  501 -0.00000000000E+00  0.00000000000E+00  0.11546077044E+03  0.11546775486E+03  0.12700000000E+01 0. -1.
          4   -1    0    0  501    0  0.00000000000E+00 -0.00000000000E+00 -0.33811848365E+02  0.33835691065E+02  0.12700000000E+01 0. -1.
         25    2    1    2    0    0  0.00000000000E+00  0.00000000000E+00  0.81648922078E+02  0.14930344592E+03  0.12499988995E+03 0.  0.
    9000005    1    3    3    0    0  0.14524896511E+02 -0.54147550323E+02  0.73802661103E+02  0.92686366908E+02  0.10000000000E+01 0.  0.
    9000005    1    3    3    0    0 -0.14524896511E+02  0.54147550323E+02  0.78462609748E+01  0.56617079013E+02  0.10000000000E+01 0.  0.
<mgrwt>
<rscale>  0 0.12499989E+03</rscale>
<asrwt>0</asrwt>
<pdfrwt beam="2">  1        4 0.52041941E-02 0.12499989E+03</pdfrwt>
<pdfrwt beam="1">  1       -4 0.17765567E-01 0.12499989E+03</pdfrwt>
<totfact> 0.99442973E+03</totfact>
</mgrwt>
</event>
<event>
 5    1  0.3316206E-002  0.1250025E+03  0.7818608E-02  0.1235065E+00
         -4   -1    0    0    0  501 -0.00000000000E+00  0.00000000000E+00  0.19536646126E+02  0.19577881445E+02  0.12700000000E+01 0.  1.
          4   -1    0    0  501    0  0.00000000000E+00 -0.00000000000E+00 -0.19969884366E+03  0.19970288195E+03  0.12700000000E+01 0.  1.
         25    2    1    2    0    0  0.00000000000E+00  0.00000000000E+00 -0.18016219753E+03  0.21928076339E+03  0.12500254307E+03 0.  0.
    9000005    1    3    3    0    0  0.51424477436E+02  0.26987749583E+02 -0.49597455336E+02  0.76378813050E+02  0.10000000000E+01 0.  0.
    9000005    1    3    3    0    0 -0.51424477436E+02 -0.26987749583E+02 -0.13056474220E+03  0.14290195034E+03  0.10000000000E+01 0.  0.
<mgrwt>
<rscale>  0 0.12500254E+03</rscale>
<asrwt>0</asrwt>
<pdfrwt beam="2">  1        4 0.30726380E-01 0.12500254E+03</pdfrwt>
<pdfrwt beam="1">  1       -4 0.30091206E-02 0.12500254E+03</pdfrwt>
<totfact> 0.86977347E+03</totfact>
</mgrwt>
</event>
<event>
 5    1  0.3316206E-002  0.1250002E+03  0.7818608E-02  0.1235069E+00
          4   -1    0    0  501    0  0.00000000000E+00  0.00000000000E+00  0.84697242455E+02  0.84706763481E+02  0.12700000000E+01 0.  1.
         -4   -1    0    0    0  501 -0.00000000000E+00 -0.00000000000E+00 -0.46099448046E+02  0.46116938430E+02  0.12700000000E+01 0.  1.
         25    2    1    2    0    0  0.00000000000E+00  0.00000000000E+00  0.38597794409E+02  0.13082370191E+03  0.12500020499E+03 0.  0.
    9000005    1    3    3    0    0  0.36664662466E+02  0.48041776304E+02  0.35944352723E+02  0.70322871364E+02  0.10000000000E+01 0.  0.
    9000005    1    3    3    0    0 -0.36664662466E+02 -0.48041776304E+02  0.26534416863E+01  0.60500830547E+02  0.10000000000E+01 0.  0.
<mgrwt>
<rscale>  0 0.12500020E+03</rscale>
<asrwt>0</asrwt>
<pdfrwt beam="1">  1        4 0.13032423E-01 0.12500020E+03</pdfrwt>
<pdfrwt beam="2">  1       -4 0.70943007E-02 0.12500020E+03</pdfrwt>
<totfact> 0.10326823E+04</totfact>
</mgrwt>
</event>
<event>
 5    1  0.3316206E-002  0.1250006E+03  0.7818608E-02  0.1235068E+00
         -4   -1    0    0    0  501 -0.00000000000E+00  0.00000000000E+00  0.11259287416E+03  0.11260003646E+03  0.12700000000E+01 0.  1.
          4   -1    0    0  501    0  0.00000000000E+00 -0.00000000000E+00 -0.34674018984E+02  0.34697269237E+02  0.12700000000E+01 0.  1.
         25    2    1    2    0    0  0.00000000000E+00  0.00000000000E+00  0.77918855172E+02  0.14729730570E+03  0.12500059309E+03 0.  0.
    9000005    1    3    3    0    0 -0.40043145922E+01  0.14076928386E+02  0.11055071971E+03  0.11151975644E+03  0.10000000000E+01 0.  0.
    9000005    1    3    3    0    0  0.40043145922E+01 -0.14076928386E+02 -0.32631864533E+02  0.35777549260E+02  0.10000000000E+01 0.  0.
<mgrwt>
<rscale>  0 0.12500059E+03</rscale>
<asrwt>0</asrwt>
<pdfrwt beam="2">  1        4 0.53368040E-02 0.12500059E+03</pdfrwt>
<pdfrwt beam="1">  1       -4 0.17324320E-01 0.12500059E+03</pdfrwt>
<totfact> 0.99843861E+03</totfact>
</mgrwt>
</event>
<event>
 5    1  0.3316206E-002  0.1250106E+03  0.7818608E-02  0.1235053E+00
         -4   -1    0    0    0  501 -0.00000000000E+00  0.00000000000E+00  0.23638560137E+02  0.23672651422E+02  0.12700000000E+01 0. -1.
          4   -1    0    0  501    0  0.00000000000E+00 -0.00000000000E+00 -0.16512149294E+03  0.16512637685E+03  0.12700000000E+01 0. -1.
         25    2    1    2    0    0  0.00000000000E+00  0.00000000000E+00 -0.14148293281E+03  0.18879902827E+03  0.12501061075E+03 0.  0.
    9000005    1    3    3    0    0  0.42624586208E+02 -0.43131732133E+02 -0.93581509086E+02  0.11151547206E+03  0.10000000000E+01 0.  0.
    9000005    1    3    3    0    0 -0.42624586208E+02  0.43131732133E+02 -0.47901423719E+02  0.77283556211E+02  0.10000000000E+01 0.  0.
<mgrwt>
<rscale>  0 0.12501061E+03</rscale>
<asrwt>0</asrwt>
<pdfrwt beam="2">  1        4 0.25406304E-01 0.12501061E+03</pdfrwt>
<pdfrwt beam="1">  1       -4 0.36396998E-02 0.12501061E+03</pdfrwt>
<totfact> 0.92034822E+03</totfact>
</mgrwt>
</event>
<event>
 5    1  0.3316206E-002  0.1250075E+03  0.7818608E-02  0.1235058E+00
          4   -1    0    0  501    0  0.00000000000E+00  0.00000000000E+00  0.15325710202E+02  0.15378240900E+02  0.12700000000E+01 0.  1.
         -4   -1    0    0    0  501 -0.00000000000E+00 -0.00000000000E+00 -0.25442235163E+03  0.25442552134E+03  0.12700000000E+01 0.  1.
         25    2    1    2    0    0  0.00000000000E+00  0.00000000000E+00 -0.23909664143E+03  0.26980376224E+03  0.12500746448E+03 0.  0.
    9000005    1    3    3    0    0  0.51083449750E+02  0.24828622915E+02 -0.63277587940E+02  0.85035477829E+02  0.10000000000E+01 0.  0.
    9000005    1    3    3    0    0 -0.51083449750E+02 -0.24828622915E+02 -0.17581905349E+03  0.18476828441E+03  0.10000000000E+01 0.  0.
<mgrwt>
<rscale>  0 0.12500746E+03</rscale>
<asrwt>0</asrwt>
<pdfrwt beam="1">  1        4 0.23620864E-02 0.12500746E+03</pdfrwt>
<pdfrwt beam="2">  1       -4 0.39146182E-01 0.12500746E+03</pdfrwt>
<totfact> 0.79536423E+03</totfact>
</mgrwt>
</event>
<event>
 5    1  0.3316206E-002  0.1250002E+03  0.7818608E-02  0.1235069E+00
          4   -1    0    0  501    0  0.00000000000E+00  0.00000000000E+00  0.50609550885E+02  0.50625483117E+02  0.12700000000E+01 0.  1.
         -4   -1    0    0    0  501 -0.00000000000E+00 -0.00000000000E+00 -0.77150953089E+02  0.77161405265E+02  0.12700000000E+01 0.  1.
         25    2    1    2    0    0  0.00000000000E+00  0.00000000000E+00 -0.26541402203E+02  0.12778688838E+03  0.12500017125E+03 0.  0.
    9000005    1    3    3    0    0  0.22605900713E+02 -0.58080130887E+02 -0.17947887746E+02  0.64864898254E+02  0.10000000000E+01 0.  0.
    9000005    1    3    3    0    0 -0.22605900713E+02  0.58080130887E+02 -0.85935144578E+01  0.62921990128E+02  0.10000000000E+01 0.  0.
<mgrwt>
<rscale>  0 0.12500017E+03</rscale>
<asrwt>0</asrwt>
<pdfrwt beam="1">  1        4 0.77881143E-02 0.12500017E+03</pdfrwt>
<pdfrwt beam="2">  1       -4 0.11871407E-01 0.12500017E+03</pdfrwt>
<totfact> 0.10392052E+04</totfact>
</mgrwt>
</event>
<event>
 5    1  0.3316206E-002  0.1249986E+03  0.7818608E-02  0.1235071E+00
         -4   -1    0    0    0  501 -0.00000000000E+00  0.00000000000E+00  0.92021098733E+02  0.92029862067E+02  0.12700000000E+01 0.  1.
          4   -1    0    0  501    0  0.00000000000E+00 -0.00000000000E+00 -0.42428257287E+02  0.42447260411E+02  0.12700000000E+01 0.  1.
         25    2    1    2    0    0  0.00000000000E+00  0.00000000000E+00  0.49592841447E+02  0.13447712248E+03  0.12499858618E+03 0.  0.
    9000005    1    3    3    0    0  0.58410429272E+02 -0.89806465234E+01  0.46652741194E+02  0.75298794948E+02  0.10000000000E+01 0.  0.
    9000005    1    3    3    0    0 -0.58410429272E+02  0.89806465234E+01  0.29401002530E+01  0.59178327530E+02  0.10000000000E+01 0.  0.
<mgrwt>
<rscale>  0 0.12499859E+03</rscale>
<asrwt>0</asrwt>
<pdfrwt beam="2">  1        4 0.65295601E-02 0.12499859E+03</pdfrwt>
<pdfrwt beam="1">  1       -4 0.14159228E-01 0.12499859E+03</pdfrwt>
<totfact> 0.10249430E+04</totfact>
</mgrwt>
</event>
<event>
 5    1  0.3316206E-002  0.1249990E+03  0.7818608E-02  0.1235071E+00
         -4   -1    0    0    0  501 -0.00000000000E+00  0.00000000000E+00  0.60700438390E+02  0.60713722672E+02  0.12700000000E+01 0.  1.
          4   -1    0    0  501    0  0.00000000000E+00 -0.00000000000E+00 -0.64325279756E+02  0.64337815596E+02  0.12700000000E+01 0.  1.
         25    2    1    2    0    0  0.00000000000E+00  0.00000000000E+00 -0.36248413658E+01  0.12505153827E+03  0.12499899099E+03 0.  0.
    9000005    1    3    3    0    0 -0.20014855529E+02  0.46998503040E+02  0.34199005852E+02  0.61481913854E+02  0.10000000000E+01 0.  0.
    9000005    1    3    3    0    0  0.20014855529E+02 -0.46998503040E+02 -0.37823847218E+02  0.63569624415E+02  0.10000000000E+01 0.  0.
<mgrwt>
<rscale>  0 0.12499899E+03</rscale>
<asrwt>0</asrwt>
<pdfrwt beam="2">  1        4 0.98981831E-02 0.12499899E+03</pdfrwt>
<pdfrwt beam="1">  1       -4 0.93405151E-02 0.12499899E+03</pdfrwt>
<totfact> 0.10451982E+04</totfact>
</mgrwt>
</event>
<event>
 5    1  0.3316206E-002  0.1249981E+03  0.7818608E-02  0.1235072E+00
          4   -1    0    0  501    0  0.00000000000E+00  0.00000000000E+00  0.30223903071E+02  0.30250573827E+02  0.12700000000E+01 0.  1.
         -4   -1    0    0    0  501 -0.00000000000E+00 -0.00000000000E+00 -0.12915309107E+03  0.12915933506E+03  0.12700000000E+01 0.  1.
         25    2    1    2    0    0  0.00000000000E+00  0.00000000000E+00 -0.98929187996E+02  0.15940990888E+03  0.12499813924E+03 0.  0.
    9000005    1    3    3    0    0  0.25596080434E+02 -0.71585296670E+00  0.23232573835E+02  0.34589366372E+02  0.10000000000E+01 0.  0.
    9000005    1    3    3    0    0 -0.25596080434E+02  0.71585296670E+00 -0.12216176183E+03  0.12482054251E+03  0.10000000000E+01 0.  0.
<mgrwt>
<rscale>  0 0.12499814E+03</rscale>
<asrwt>0</asrwt>
<pdfrwt beam="1">  1        4 0.46523632E-02 0.12499814E+03</pdfrwt>
<pdfrwt beam="2">  1       -4 0.19872238E-01 0.12499814E+03</pdfrwt>
<totfact> 0.97460747E+03</totfact>
</mgrwt>
</event>
<event>
 5    1  0.3316206E-002  0.1249998E+03  0.7818608E-02  0.1235070E+00
          4   -1    0    0  501    0  0.00000000000E+00  0.00000000000E+00  0.15692319832E+03  0.15692833737E+03  0.12700000000E+01 0.  1.
         -4   -1    0    0    0  501 -0.00000000000E+00 -0.00000000000E+00 -0.24870907956E+02  0.24903312281E+02  0.12700000000E+01 0.  1.
         25    2    1    2    0    0  0.00000000000E+00  0.00000000000E+00  0.13205229036E+03  0.18183164965E+03  0.12499976570E+03 0.  0.
    9000005    1    3    3    0    0 -0.31649039922E+02  0.19407270777E+02  0.13914965216E+03  0.14402058736E+03  0.10000000000E+01 0.  0.
    9000005    1    3    3    0    0  0.31649039922E+02 -0.19407270777E+02 -0.70973618026E+01  0.37811062290E+02  0.10000000000E+01 0.  0.
<mgrwt>
<rscale>  0 0.12499977E+03</rscale>
<asrwt>0</asrwt>
<pdfrwt beam="1">  1        4 0.24144919E-01 0.12499977E+03</pdfrwt>
<pdfrwt beam="2">  1       -4 0.38291814E-02 0.12499977E+03</pdfrwt>
<totfact> 0.93288825E+03</totfact>
</mgrwt>
</event>
<event>
 5    1  0.3316206E-002  0.1250064E+03  0.7818608E-02  0.1235059E+00
         -4   -1    0    0    0  501 -0.00000000000E+00  0.00000000000E+00  0.72926218467E+03  0.72926329051E+03  0.12700000000E+01 0. -1.
          4   -1    0    0  501    0  0.00000000000E+00 -0.00000000000E+00 -0.52805894422E+01  0.54311623854E+01  0.12700000000E+01 0. -1.
         25    2    1    2    0    0  0.00000000000E+00  0.00000000000E+00  0.72398159523E+03  0.73469445290E+03  0.12500635540E+03 0.  0.
    9000005    1    3    3    0    0 -0.49771825895E+02 -0.37274179789E+02  0.32526471809E+03  0.33115666378E+03  0.10000000000E+01 0.  0.
    9000005    1    3    3    0    0  0.49771825895E+02  0.37274179789E+02  0.39871687714E+03  0.40353778912E+03  0.10000000000E+01 0.  0.
<mgrwt>
<rscale>  0 0.12500636E+03</rscale>
<asrwt>0</asrwt>
<pdfrwt beam="2">  1        4 0.82406607E-03 0.12500636E+03</pdfrwt>
<pdfrwt beam="1">  1       -4 0.11220584E+00 0.12500636E+03</pdfrwt>
<totfact> 0.41311381E+03</totfact>
</mgrwt>
</event>
<event>
 5    1  0.3316206E-002  0.1250115E+03  0.7818608E-02  0.1235051E+00
         -4   -1    0    0    0  501 -0.00000000000E+00  0.00000000000E+00  0.78675466104E+02  0.78685715772E+02  0.12700000000E+01 0.  1.
          4   -1    0    0  501    0  0.00000000000E+00 -0.00000000000E+00 -0.49637670975E+02  0.49653915051E+02  0.12700000000E+01 0.  1.
         25    2    1    2    0    0  0.00000000000E+00  0.00000000000E+00  0.29037795128E+02  0.12833963082E+03  0.12501146865E+03 0.  0.
    9000005    1    3    3    0    0 -0.16005951411E+02 -0.49915914593E+02 -0.20419143334E+02  0.56264824044E+02  0.10000000000E+01 0.  0.
    9000005    1    3    3    0    0  0.16005951411E+02  0.49915914593E+02  0.49456938462E+02  0.72074806779E+02  0.10000000000E+01 0.  0.
<mgrwt>
<rscale>  0 0.12501147E+03</rscale>
<asrwt>0</asrwt>
<pdfrwt beam="2">  1        4 0.76386028E-02 0.12501147E+03</pdfrwt>
<pdfrwt beam="1">  1       -4 0.12105956E-01 0.12501147E+03</pdfrwt>
<totfact> 0.10377473E+04</totfact>
</mgrwt>
</event>
<event>
 5    1  0.3316206E-002  0.1249993E+03  0.7818608E-02  0.1235070E+00
          4   -1    0    0  501    0  0.00000000000E+00  0.00000000000E+00  0.17438541333E+02  0.17484725443E+02  0.12700000000E+01 0.  1.
         -4   -1    0    0    0  501 -0.00000000000E+00 -0.00000000000E+00 -0.22365430798E+03  0.22365791374E+03  0.12700000000E+01 0.  1.
         25    2    1    2    0    0  0.00000000000E+00  0.00000000000E+00 -0.20621576664E+03  0.24114263918E+03  0.12499932007E+03 0.  0.
    9000005    1    3    3    0    0  0.40881873249E+02  0.97655696375E+01 -0.19231969659E+03  0.19686177792E+03  0.10000000000E+01 0.  0.
    9000005    1    3    3    0    0 -0.40881873249E+02 -0.97655696375E+01 -0.13896070055E+02  0.44280861257E+02  0.10000000000E+01 0.  0.
<mgrwt>
<rscale>  0 0.12499932E+03</rscale>
<asrwt>0</asrwt>
<pdfrwt beam="1">  1        4 0.26866827E-02 0.12499932E+03</pdfrwt>
<pdfrwt beam="2">  1       -4 0.34412183E-01 0.12499932E+03</pdfrwt>
<totfact> 0.83628754E+03</totfact>
</mgrwt>
</event>
<event>
 5    1  0.3316206E-002  0.1249975E+03  0.7818608E-02  0.1235073E+00
          4   -1    0    0  501    0  0.00000000000E+00  0.00000000000E+00  0.32922211069E+03  0.32922456024E+03  0.12700000000E+01 0.  1.
         -4   -1    0    0    0  501 -0.00000000000E+00 -0.00000000000E+00 -0.11828129094E+02  0.11896114402E+02  0.12700000000E+01 0.  1.
         25    2    1    2    0    0  0.00000000000E+00  0.00000000000E+00  0.31739398159E+03  0.34112067464E+03  0.12499750044E+03 0.  0.
    9000005    1    3    3    0    0 -0.32742140236E+01  0.10342013957E+02  0.32664629964E+03  0.32682791006E+03  0.10000000000E+01 0.  0.
    9000005    1    3    3    0    0  0.32742140236E+01 -0.10342013957E+02 -0.92523180427E+01  0.14292764579E+02  0.10000000000E+01 0.  0.
<mgrwt>
<rscale>  0 0.12499750E+03</rscale>
<asrwt>0</asrwt>
<pdfrwt beam="1">  1        4 0.50654974E-01 0.12499750E+03</pdfrwt>
<pdfrwt beam="2">  1       -4 0.18251302E-02 0.12499750E+03</pdfrwt>
<totfact> 0.70716475E+03</totfact>
</mgrwt>
</event>
<event>
 5    1  0.3316206E-002  0.1249960E+03  0.7818608E-02  0.1235075E+00
          4   -1    0    0  501    0  0.00000000000E+00  0.00000000000E+00  0.30807516917E+02  0.30833682858E+02  0.12700000000E+01 0.  1.
         -4   -1    0    0    0  501 -0.00000000000E+00 -0.00000000000E+00 -0.12670414272E+03  0.12671050739E+03  0.12700000000E+01 0.  1.
         25    2    1    2    0    0  0.00000000000E+00  0.00000000000E+00 -0.95896625807E+02  0.15754419025E+03  0.12499603610E+03 0.  0.
    9000005    1    3    3    0    0 -0.60030406811E+02 -0.17112516157E+02 -0.44270574345E+02  0.76533467868E+02  0.10000000000E+01 0.  0.
    9000005    1    3    3    0    0  0.60030406811E+02  0.17112516157E+02 -0.51626051462E+02  0.81010722381E+02  0.10000000000E+01 0.  0.
<mgrwt>
<rscale>  0 0.12499604E+03</rscale>
<asrwt>0</asrwt>
<pdfrwt beam="1">  1        4 0.47421204E-02 0.12499604E+03</pdfrwt>
<pdfrwt beam="2">  1       -4 0.19495447E-01 0.12499604E+03</pdfrwt>
<totfact> 0.97827064E+03</totfact>
</mgrwt>
</event>
<event>
 5    1  0.3316206E-002  0.1250004E+03  0.7818608E-02  0.1235069E+00
         -4   -1    0    0    0  501 -0.00000000000E+00  0.00000000000E+00  0.98601879803E+02  0.98610058314E+02  0.12700000000E+01 0. -1.
          4   -1    0    0  501    0  0.00000000000E+00 -0.00000000000E+00 -0.39596648257E+02  0.39617009644E+02  0.12700000000E+01 0. -1.
         25    2    1    2    0    0  0.00000000000E+00  0.00000000000E+00  0.59005231547E+02  0.13822706796E+03  0.12500041987E+03 0.  0.
    9000005    1    3    3    0    0 -0.29757732112E+02  0.11111684745E+02 -0.30009063202E+02  0.43709678935E+02  0.10000000000E+01 0.  0.
    9000005    1    3    3    0    0  0.29757732112E+02 -0.11111684745E+02  0.89014294749E+02  0.94517389024E+02  0.10000000000E+01 0.  0.
<mgrwt>
<rscale>  0 0.12500042E+03</rscale>
<asrwt>0</asrwt>
<pdfrwt beam="2">  1        4 0.60939874E-02 0.12500042E+03</pdfrwt>
<pdfrwt beam="1">  1       -4 0.15171715E-01 0.12500042E+03</pdfrwt>
<totfact> 0.10170367E+04</totfact>
</mgrwt>
</event>
<event>
 5    1  0.3316206E-002  0.1250001E+03  0.7818608E-02  0.1235069E+00
         -4   -1    0    0    0  501 -0.00000000000E+00  0.00000000000E+00  0.69515689586E+01  0.70666265633E+01  0.12700000000E+01 0.  1.
          4   -1    0    0  501    0  0.00000000000E+00 -0.00000000000E+00 -0.55719633728E+03  0.55719778461E+03  0.12700000000E+01 0.  1.
         25    2    1    2    0    0  0.00000000000E+00  0.00000000000E+00 -0.55024476832E+03  0.56426441118E+03  0.12500008262E+03 0.  0.
    9000005    1    3    3    0    0 -0.31029435169E+01  0.51581743839E+02 -0.11648806327E+03  0.12743929315E+03  0.10000000000E+01 0.  0.
    9000005    1    3    3    0    0  0.31029435169E+01 -0.51581743839E+02 -0.43375670505E+03  0.43682511802E+03  0.10000000000E+01 0.  0.
<mgrwt>
<rscale>  0 0.12500008E+03</rscale>
<asrwt>0</asrwt>
<pdfrwt beam="2">  1        4 0.85731441E-01 0.12500008E+03</pdfrwt>
<pdfrwt beam="1">  1       -4 0.10784345E-02 0.12500008E+03</pdfrwt>
<totfact> 0.51203862E+03</totfact>
</mgrwt>
</event>
<event>
 5    1  0.3316206E-002  0.1249987E+03  0.7818608E-02  0.1235071E+00
         -4   -1    0    0    0  501 -0.00000000000E+00  0.00000000000E+00  0.66513321606E+02  0.66525445140E+02  0.12700000000E+01 0.  1.
          4   -1    0    0  501    0  0.00000000000E+00 -0.00000000000E+00 -0.58703282108E+02  0.58717018233E+02  0.12700000000E+01 0.  1.
         25    2    1    2    0    0  0.00000000000E+00  0.00000000000E+00  0.78100394983E+01  0.12524246337E+03  0.12499871165E+03 0.  0.
    9000005    1    3    3    0    0  0.18491128413E+01 -0.58653415185E+02  0.25430095584E+02  0.63963521577E+02  0.10000000000E+01 0.  0.
    9000005    1    3    3    0    0 -0.18491128413E+01  0.58653415185E+02 -0.17620056086E+02  0.61278941796E+02  0.10000000000E+01 0.  0.
<mgrwt>
<rscale>  0 0.12499871E+03</rscale>
<asrwt>0</asrwt>
<pdfrwt beam="2">  1        4 0.90332634E-02 0.12499871E+03</pdfrwt>
<pdfrwt beam="1">  1       -4 0.10234808E-01 0.12499871E+03</pdfrwt>
<totfact> 0.10447903E+04</totfact>
</mgrwt>
</event>
<event>
 5    1  0.3316206E-002  0.1249981E+03  0.7818608E-02  0.1235072E+00
         -4   -1    0    0    0  501 -0.00000000000E+00  0.00000000000E+00  0.47832257677E+02  0.47849114668E+02  0.12700000000E+01 0. -1.
          4   -1    0    0  501    0  0.00000000000E+00 -0.00000000000E+00 -0.81626944297E+02  0.81636823402E+02  0.12700000000E+01 0. -1.
         25    2    1    2    0    0  0.00000000000E+00  0.00000000000E+00 -0.33794686619E+02  0.12948593807E+03  0.12499810924E+03 0.  0.
    9000005    1    3    3    0    0 -0.57923883559E+02 -0.54475751830E+01 -0.40525917002E+02  0.70909818155E+02  0.10000000000E+01 0.  0.
    9000005    1    3    3    0    0  0.57923883559E+02  0.54475751830E+01  0.67312303825E+01  0.58576119916E+02  0.10000000000E+01 0.  0.
<mgrwt>
<rscale>  0 0.12499811E+03</rscale>
<asrwt>0</asrwt>
<pdfrwt beam="2">  1        4 0.12560048E-01 0.12499811E+03</pdfrwt>
<pdfrwt beam="1">  1       -4 0.73608655E-02 0.12499811E+03</pdfrwt>
<totfact> 0.10355959E+04</totfact>
</mgrwt>
</event>
<event>
 5    1  0.3316206E-002  0.1249996E+03  0.7818608E-02  0.1235070E+00
          4   -1    0    0  501    0  0.00000000000E+00  0.00000000000E+00  0.76842788037E+02  0.76853282125E+02  0.12700000000E+01 0.  1.
         -4   -1    0    0    0  501 -0.00000000000E+00 -0.00000000000E+00 -0.50812078548E+02  0.50827947297E+02  0.12700000000E+01 0.  1.
         25    2    1    2    0    0  0.00000000000E+00  0.00000000000E+00  0.26030709489E+02  0.12768122942E+03  0.12499959404E+03 0.  0.
    9000005    1    3    3    0    0  0.41777501096E+02 -0.44980197683E+02  0.24955737799E+02  0.66274932142E+02  0.10000000000E+01 0.  0.
    9000005    1    3    3    0    0 -0.41777501096E+02  0.44980197683E+02  0.10749716899E+01  0.61406297279E+02  0.10000000000E+01 0.  0.
<mgrwt>
<rscale>  0 0.12499959E+03</rscale>
<asrwt>0</asrwt>
<pdfrwt beam="1">  1        4 0.11823995E-01 0.12499959E+03</pdfrwt>
<pdfrwt beam="2">  1       -4 0.78192708E-02 0.12499959E+03</pdfrwt>
<totfact> 0.10394473E+04</totfact>
</mgrwt>
</event>
<event>
 5    1  0.3316206E-002  0.1250009E+03  0.7818608E-02  0.1235068E+00
          4   -1    0    0  501    0  0.00000000000E+00  0.00000000000E+00  0.40269139533E+03  0.40269339798E+03  0.12700000000E+01 0.  1.
         -4   -1    0    0    0  501 -0.00000000000E+00 -0.00000000000E+00 -0.96568888290E+01  0.97400411630E+01  0.12700000000E+01 0.  1.
         25    2    1    2    0    0  0.00000000000E+00  0.00000000000E+00  0.39303450650E+03  0.41243343914E+03  0.12500087367E+03 0.  0.
    9000005    1    3    3    0    0 -0.54394565951E+02  0.30759052368E+02  0.19438790441E+03  0.20418752530E+03  0.10000000000E+01 0.  0.
    9000005    1    3    3    0    0  0.54394565951E+02 -0.30759052368E+02  0.19864660209E+03  0.20824591384E+03  0.10000000000E+01 0.  0.
<mgrwt>
<rscale>  0 0.12500087E+03</rscale>
<asrwt>0</asrwt>
<pdfrwt beam="1">  1        4 0.61959078E-01 0.12500087E+03</pdfrwt>
<pdfrwt beam="2">  1       -4 0.14922255E-02 0.12500087E+03</pdfrwt>
<totfact> 0.63360002E+03</totfact>
</mgrwt>
</event>
<event>
 5    1  0.3316206E-002  0.1249965E+03  0.7818608E-02  0.1235075E+00
         -4   -1    0    0    0  501 -0.00000000000E+00  0.00000000000E+00  0.11810148040E+04  0.11810154868E+04  0.12700000000E+01 0. -1.
          4   -1    0    0  501    0  0.00000000000E+00 -0.00000000000E+00 -0.31847259825E+01  0.34286119033E+01  0.12700000000E+01 0. -1.
         25    2    1    2    0    0  0.00000000000E+00  0.00000000000E+00  0.11778300780E+04  0.11844440987E+04  0.12499652146E+03 0.  0.
    9000005    1    3    3    0    0  0.39649490280E+02  0.14322582370E+01  0.10464016446E+04  0.10471540169E+04  0.10000000000E+01 0.  0.
    9000005    1    3    3    0    0 -0.39649490280E+02 -0.14322582370E+01  0.13142843343E+03  0.13729008179E+03  0.10000000000E+01 0.  0.
<mgrwt>
<rscale>  0 0.12499652E+03</rscale>
<asrwt>0</asrwt>
<pdfrwt beam="2">  1        4 0.50877071E-03 0.12499652E+03</pdfrwt>
<pdfrwt beam="1">  1       -4 0.18171344E+00 0.12499652E+03</pdfrwt>
<totfact> 0.25125492E+03</totfact>
</mgrwt>
</event>
<event>
 5    1  0.3316206E-002  0.1249960E+03  0.7818608E-02  0.1235076E+00
         -4   -1    0    0    0  501 -0.00000000000E+00  0.00000000000E+00  0.70398073412E+01  0.71534458411E+01  0.12700000000E+01 0.  1.
          4   -1    0    0  501    0  0.00000000000E+00 -0.00000000000E+00 -0.55028793605E+03  0.55028940155E+03  0.12700000000E+01 0.  1.
         25    2    1    2    0    0  0.00000000000E+00  0.00000000000E+00 -0.54324812871E+03  0.55744284739E+03  0.12499599500E+03 0.  0.
    9000005    1    3    3    0    0  0.59758710390E+02  0.18272720868E+02 -0.27134569696E+03  0.27845014464E+03  0.10000000000E+01 0.  0.
    9000005    1    3    3    0    0 -0.59758710390E+02 -0.18272720868E+02 -0.27190243175E+03  0.27899270275E+03  0.10000000000E+01 0.  0.
<mgrwt>
<rscale>  0 0.12499599E+03</rscale>
<asrwt>0</asrwt>
<pdfrwt beam="2">  1        4 0.84668503E-01 0.12499599E+03</pdfrwt>
<pdfrwt beam="1">  1       -4 0.10919019E-02 0.12499599E+03</pdfrwt>
<totfact> 0.51673623E+03</totfact>
</mgrwt>
</event>
<event>
 5    1  0.3316206E-002  0.1249981E+03  0.7818608E-02  0.1235072E+00
          4   -1    0    0  501    0  0.00000000000E+00  0.00000000000E+00  0.20846906232E+03  0.20847293072E+03  0.12700000000E+01 0. -1.
         -4   -1    0    0    0  501 -0.00000000000E+00 -0.00000000000E+00 -0.18711652476E+02  0.18754701768E+02  0.12700000000E+01 0. -1.
         25    2    1    2    0    0  0.00000000000E+00  0.00000000000E+00  0.18975740984E+03  0.22722763249E+03  0.12499808949E+03 0.  0.
    9000005    1    3    3    0    0  0.39535153898E+02 -0.20968416102E+02  0.17416750615E+03  0.17982775945E+03  0.10000000000E+01 0.  0.
    9000005    1    3    3    0    0 -0.39535153898E+02  0.20968416102E+02  0.15589903688E+02  0.47399873044E+02  0.10000000000E+01 0.  0.
<mgrwt>
<rscale>  0 0.12499809E+03</rscale>
<asrwt>0</asrwt>
<pdfrwt beam="1">  1        4 0.32075772E-01 0.12499809E+03</pdfrwt>
<pdfrwt beam="2">  1       -4 0.28823249E-02 0.12499809E+03</pdfrwt>
<totfact> 0.85740778E+03</totfact>
</mgrwt>
</event>
<event>
 5    1  0.3316206E-002  0.1249975E+03  0.7818608E-02  0.1235073E+00
          4   -1    0    0  501    0  0.00000000000E+00  0.00000000000E+00  0.65029237530E+02  0.65041637693E+02  0.12700000000E+01 0. -1.
         -4   -1    0    0    0  501 -0.00000000000E+00 -0.00000000000E+00 -0.60041857107E+02  0.60055287068E+02  0.12700000000E+01 0. -1.
         25    2    1    2    0    0  0.00000000000E+00  0.00000000000E+00  0.49873804236E+01  0.12509692476E+03  0.12499746646E+03 0.  0.
    9000005    1    3    3    0    0  0.18445498877E+02  0.50002666367E+02  0.35147685461E+02  0.63850316099E+02  0.10000000000E+01 0.  0.
    9000005    1    3    3    0    0 -0.18445498877E+02 -0.50002666367E+02 -0.30160305037E+02  0.61246608662E+02  0.10000000000E+01 0.  0.
<mgrwt>
<rscale>  0 0.12499747E+03</rscale>
<asrwt>0</asrwt>
<pdfrwt beam="1">  1        4 0.10006485E-01 0.12499747E+03</pdfrwt>
<pdfrwt beam="2">  1       -4 0.92391957E-02 0.12499747E+03</pdfrwt>
<totfact> 0.10451356E+04</totfact>
</mgrwt>
</event>
<event>
 5    1  0.3316206E-002  0.1250014E+03  0.7818608E-02  0.1235067E+00
          4   -1    0    0  501    0  0.00000000000E+00  0.00000000000E+00  0.21567210534E+01  0.25028674959E+01  0.12700000000E+01 0. -1.
         -4   -1    0    0    0  501 -0.00000000000E+00 -0.00000000000E+00 -0.16763416485E+04  0.16763421295E+04  0.12700000000E+01 0. -1.
         25    2    1    2    0    0  0.00000000000E+00  0.00000000000E+00 -0.16741849274E+04  0.16788449970E+04  0.12500141162E+03 0.  0.
    9000005    1    3    3    0    0  0.54213992880E+02 -0.30653647092E+02 -0.90627655421E+03  0.90841455064E+03  0.10000000000E+01 0.  0.
    9000005    1    3    3    0    0 -0.54213992880E+02  0.30653647092E+02 -0.76790837319E+03  0.77043044639E+03  0.10000000000E+01 0.  0.
<mgrwt>
<rscale>  0 0.12500141E+03</rscale>
<asrwt>0</asrwt>
<pdfrwt beam="1">  1        4 0.35846823E-03 0.12500141E+03</pdfrwt>
<pdfrwt beam="2">  1       -4 0.25792442E+00 0.12500141E+03</pdfrwt>
<totfact> 0.14663586E+03</totfact>
</mgrwt>
</event>
<event>
 4    1  0.3316206E-002  0.1253453E+03  0.7818608E-02  0.1234531E+00
          4   -1    0    0  501    0  0.00000000000E+00  0.00000000000E+00  0.19034535474E+02  0.19076856154E+02  0.12700000000E+01 0. -1.
         -4   -1    0    0    0  501 -0.00000000000E+00 -0.00000000000E+00 -0.20608110462E+03  0.20608501785E+03  0.12700000000E+01 0. -1.
    9000005    1    1    2    0    0  0.31475199185E+01  0.39169862138E+02 -0.18120708372E+03  0.18542166047E+03  0.10000000000E+01 0.  0.
    9000005    1    1    2    0    0 -0.31475199185E+01 -0.39169862138E+02 -0.58394854276E+01  0.39740213532E+02  0.10000000000E+01 0.  0.
<mgrwt>
<rscale>  0 0.12534532E+03</rscale>
<asrwt>0</asrwt>
<pdfrwt beam="1">  1        4 0.29319467E-02 0.12534532E+03</pdfrwt>
<pdfrwt beam="2">  1       -4 0.31708340E-01 0.12534532E+03</pdfrwt>
<totfact> 0.85397937E+03</totfact>
</mgrwt>
</event>
<event>
 5    1  0.3316206E-002  0.1250011E+03  0.7818608E-02  0.1235068E+00
         -4   -1    0    0    0  501 -0.00000000000E+00  0.00000000000E+00  0.99960574219E+03  0.99960654896E+03  0.12700000000E+01 0. -1.
          4   -1    0    0  501    0  0.00000000000E+00 -0.00000000000E+00 -0.38038454608E+01  0.40102543922E+01  0.12700000000E+01 0. -1.
         25    2    1    2    0    0  0.00000000000E+00  0.00000000000E+00  0.99580189673E+03  0.10036168034E+04  0.12500108174E+03 0.  0.
    9000005    1    3    3    0    0 -0.54469937650E+02 -0.16872049619E+02  0.29262602339E+03  0.29813189989E+03  0.10000000000E+01 0.  0.
    9000005    1    3    3    0    0  0.54469937650E+02  0.16872049619E+02  0.70317587334E+03  0.70548490347E+03  0.10000000000E+01 0.  0.
<mgrwt>
<rscale>  0 0.12500108E+03</rscale>
<asrwt>0</asrwt>
<pdfrwt beam="2">  1        4 0.60114635E-03 0.12500108E+03</pdfrwt>
<pdfrwt beam="1">  1       -4 0.15380152E+00 0.12500108E+03</pdfrwt>
<totfact> 0.30484623E+03</totfact>
</mgrwt>
</event>
<event>
 5    1  0.3316206E-002  0.1249994E+03  0.7818608E-02  0.1235070E+00
         -4   -1    0    0    0  501 -0.00000000000E+00  0.00000000000E+00  0.83353506045E+03  0.83353602796E+03  0.12700000000E+01 0.  1.
          4   -1    0    0  501    0  0.00000000000E+00 -0.00000000000E+00 -0.45992868459E+01  0.47714085437E+01  0.12700000000E+01 0.  1.
         25    2    1    2    0    0  0.00000000000E+00  0.00000000000E+00  0.82893577361E+03  0.83830743650E+03  0.12499936531E+03 0.  0.
    9000005    1    3    3    0    0 -0.60268914792E+02 -0.16116733512E+02  0.39017672748E+03  0.39513411629E+03  0.10000000000E+01 0.  0.
    9000005    1    3    3    0    0  0.60268914792E+02  0.16116733512E+02  0.43875904613E+03  0.44317332021E+03  0.10000000000E+01 0.  0.
<mgrwt>
<rscale>  0 0.12499937E+03</rscale>
<asrwt>0</asrwt>
<pdfrwt beam="2">  1        4 0.72089683E-03 0.12499937E+03</pdfrwt>
<pdfrwt beam="1">  1       -4 0.12824953E+00 0.12499937E+03</pdfrwt>
<totfact> 0.36611121E+03</totfact>
</mgrwt>
</event>
<event>
 5    1  0.3316206E-002  0.1249967E+03  0.7818608E-02  0.1235074E+00
          4   -1    0    0  501    0  0.00000000000E+00  0.00000000000E+00  0.19644330701E+03  0.19644741223E+03  0.12700000000E+01 0.  1.
         -4   -1    0    0    0  501 -0.00000000000E+00 -0.00000000000E+00 -0.19859235413E+02  0.19899802291E+02  0.12700000000E+01 0.  1.
         25    2    1    2    0    0  0.00000000000E+00  0.00000000000E+00  0.17658407160E+03  0.21634721452E+03  0.12499673150E+03 0.  0.
    9000005    1    3    3    0    0  0.32682255361E+02 -0.20690509765E+02  0.33437324717E+01  0.38838222882E+02  0.10000000000E+01 0.  0.
    9000005    1    3    3    0    0 -0.32682255361E+02  0.20690509765E+02  0.17324033913E+03  0.17750899163E+03  0.10000000000E+01 0.  0.
<mgrwt>
<rscale>  0 0.12499673E+03</rscale>
<asrwt>0</asrwt>
<pdfrwt beam="1">  1        4 0.30225482E-01 0.12499673E+03</pdfrwt>
<pdfrwt beam="2">  1       -4 0.30587035E-02 0.12499673E+03</pdfrwt>
<totfact> 0.87456063E+03</totfact>
</mgrwt>
</event>
<event>
 5    1  0.3316206E-002  0.1249872E+03  0.7818608E-02  0.1235089E+00
          4   -1    0    0  501    0  0.00000000000E+00  0.00000000000E+00  0.20217026686E+03  0.20217425579E+03  0.12700000000E+01 0. -1.
         -4   -1    0    0    0  501 -0.00000000000E+00 -0.00000000000E+00 -0.19292564701E+02  0.19334320592E+02  0.12700000000E+01 0. -1.
         25    2    1    2    0    0  0.00000000000E+00  0.00000000000E+00  0.18287770216E+03  0.22150857638E+03  0.12498718119E+03 0.  0.
    9000005    1    3    3    0    0  0.42989191056E+02  0.13338931682E+02  0.14627565645E+02  0.47338814125E+02  0.10000000000E+01 0.  0.
    9000005    1    3    3    0    0 -0.42989191056E+02 -0.13338931682E+02  0.16825013652E+03  0.17416976225E+03  0.10000000000E+01 0.  0.
<mgrwt>
<rscale>  0 0.12498718E+03</rscale>
<asrwt>0</asrwt>
<pdfrwt beam="1">  1        4 0.31106634E-01 0.12498718E+03</pdfrwt>
<pdfrwt beam="2">  1       -4 0.29716060E-02 0.12498718E+03</pdfrwt>
<totfact> 0.86655007E+03</totfact>
</mgrwt>
</event>
<event>
 5    1  0.3316206E-002  0.1250022E+03  0.7818608E-02  0.1235066E+00
          4   -1    0    0  501    0  0.00000000000E+00  0.00000000000E+00  0.36417690746E+01  0.38568616766E+01  0.12700000000E+01 0. -1.
         -4   -1    0    0    0  501 -0.00000000000E+00 -0.00000000000E+00 -0.10416784705E+04  0.10416792446E+04  0.12700000000E+01 0. -1.
         25    2    1    2    0    0  0.00000000000E+00  0.00000000000E+00 -0.10380367014E+04  0.10455361063E+04  0.12500222476E+03 0.  0.
    9000005    1    3    3    0    0 -0.16936406839E+02  0.59583813243E+02 -0.44988562366E+03  0.45413120026E+03  0.10000000000E+01 0.  0.
    9000005    1    3    3    0    0  0.16936406839E+02 -0.59583813243E+02 -0.58815107773E+03  0.59140490606E+03  0.10000000000E+01 0.  0.
<mgrwt>
<rscale>  0 0.12500222E+03</rscale>
<asrwt>0</asrwt>
<pdfrwt beam="1">  1        4 0.57687813E-03 0.12500222E+03</pdfrwt>
<pdfrwt beam="2">  1       -4 0.16027460E+00 0.12500222E+03</pdfrwt>
<totfact> 0.29133190E+03</totfact>
</mgrwt>
</event>
<event>
 5    1  0.3316206E-002  0.1250049E+03  0.7818608E-02  0.1235062E+00
         -4   -1    0    0    0  501 -0.00000000000E+00  0.00000000000E+00  0.50010858715E+03  0.50011019969E+03  0.12700000000E+01 0. -1.
          4   -1    0    0  501    0  0.00000000000E+00 -0.00000000000E+00 -0.77581592412E+01  0.78614206612E+01  0.12700000000E+01 0. -1.
         25    2    1    2    0    0  0.00000000000E+00  0.00000000000E+00  0.49235042790E+03  0.50797162035E+03  0.12500489281E+03 0.  0.
    9000005    1    3    3    0    0 -0.18662351859E+02  0.12944573207E+01  0.38666903367E+01  0.19128781739E+02  0.10000000000E+01 0.  0.
    9000005    1    3    3    0    0  0.18662351859E+02 -0.12944573207E+01  0.48848373757E+03  0.48884283862E+03  0.10000000000E+01 0.  0.
<mgrwt>
<rscale>  0 0.12500489E+03</rscale>
<asrwt>0</asrwt>
<pdfrwt beam="2">  1        4 0.12016300E-02 0.12500489E+03</pdfrwt>
<pdfrwt beam="1">  1       -4 0.76947859E-01 0.12500489E+03</pdfrwt>
<totfact> 0.55245180E+03</totfact>
</mgrwt>
</event>
<event>
 5    1  0.3316206E-002  0.1250000E+03  0.7818608E-02  0.1235069E+00
         -4   -1    0    0    0  501 -0.00000000000E+00  0.00000000000E+00  0.13082696029E+03  0.13083312439E+03  0.12700000000E+01 0.  1.
          4   -1    0    0  501    0  0.00000000000E+00 -0.00000000000E+00 -0.29837788011E+02  0.29864803589E+02  0.12700000000E+01 0.  1.
         25    2    1    2    0    0  0.00000000000E+00  0.00000000000E+00  0.10098917227E+03  0.16069792798E+03  0.12500004456E+03 0.  0.
    9000005    1    3    3    0    0 -0.25960447988E+02 -0.16762102405E+02 -0.19334463556E+02  0.36465523687E+02  0.10000000000E+01 0.  0.
    9000005    1    3    3    0    0  0.25960447988E+02  0.16762102405E+02  0.12032363583E+03  0.12423240429E+03  0.10000000000E+01 0.  0.
<mgrwt>
<rscale>  0 0.12500004E+03</rscale>
<asrwt>0</asrwt>
<pdfrwt beam="2">  1        4 0.45929813E-02 0.12500004E+03</pdfrwt>
<pdfrwt beam="1">  1       -4 0.20129777E-01 0.12500004E+03</pdfrwt>
<totfact> 0.97208301E+03</totfact>
</mgrwt>
</event>
<event>
 5    1  0.3316206E-002  0.1250006E+03  0.7818608E-02  0.1235068E+00
         -4   -1    0    0    0  501 -0.00000000000E+00  0.00000000000E+00  0.55555426890E+01  0.56988555490E+01  0.12700000000E+01 0.  1.
          4   -1    0    0  501    0  0.00000000000E+00 -0.00000000000E+00 -0.69403582674E+03  0.69403698871E+03  0.12700000000E+01 0.  1.
         25    2    1    2    0    0  0.00000000000E+00  0.00000000000E+00 -0.68848028405E+03  0.69973584426E+03  0.12500060086E+03 0.  0.
    9000005    1    3    3    0    0 -0.34076682202E+01 -0.62031899152E+02 -0.38209046725E+03  0.38710940815E+03  0.10000000000E+01 0.  0.
    9000005    1    3    3    0    0  0.34076682202E+01  0.62031899152E+02 -0.30638981680E+03  0.31262643611E+03  0.10000000000E+01 0.  0.
<mgrwt>
<rscale>  0 0.12500060E+03</rscale>
<asrwt>0</asrwt>
<pdfrwt beam="2">  1        4 0.10678579E+00 0.12500060E+03</pdfrwt>
<pdfrwt beam="1">  1       -4 0.86581287E-03 0.12500060E+03</pdfrwt>
<totfact> 0.43100093E+03</totfact>
</mgrwt>
</event>
<event>
 5    1  0.3316206E-002  0.1249797E+03  0.7818608E-02  0.1235101E+00
          4   -1    0    0  501    0  0.00000000000E+00  0.00000000000E+00  0.24398407711E+03  0.24398738242E+03  0.12700000000E+01 0.  1.
         -4   -1    0    0    0  501 -0.00000000000E+00 -0.00000000000E+00 -0.15976449646E+02  0.16026847578E+02  0.12700000000E+01 0.  1.
         25    2    1    2    0    0  0.00000000000E+00  0.00000000000E+00  0.22800762746E+03  0.26001423000E+03  0.12497968484E+03 0.  0.
    9000005    1    3    3    0    0  0.24305425145E+02  0.21009899526E+02  0.22549373438E+03  0.22777311916E+03  0.10000000000E+01 0.  0.
    9000005    1    3    3    0    0 -0.24305425145E+02 -0.21009899526E+02  0.25138930818E+01  0.32241110837E+02  0.10000000000E+01 0.  0.
<mgrwt>
<rscale>  0 0.12497968E+03</rscale>
<asrwt>0</asrwt>
<pdfrwt beam="1">  1        4 0.37540139E-01 0.12497968E+03</pdfrwt>
<pdfrwt beam="2">  1       -4 0.24620466E-02 0.12497968E+03</pdfrwt>
<totfact> 0.80940662E+03</totfact>
</mgrwt>
</event>
<event>
 5    1  0.3316206E-002  0.1249971E+03  0.7818608E-02  0.1235074E+00
          4   -1    0    0  501    0  0.00000000000E+00  0.00000000000E+00  0.70516432172E+01  0.71650940024E+01  0.12700000000E+01 0.  1.
         -4   -1    0    0    0  501 -0.00000000000E+00 -0.00000000000E+00 -0.54938852461E+03  0.54938999252E+03  0.12700000000E+01 0.  1.
         25    2    1    2    0    0  0.00000000000E+00  0.00000000000E+00 -0.54233688140E+03  0.55655508652E+03  0.12499708559E+03 0.  0.
    9000005    1    3    3    0    0 -0.47124560616E+02 -0.23747252832E+02 -0.42020646044E+03  0.42350811754E+03  0.10000000000E+01 0.  0.
    9000005    1    3    3    0    0  0.47124560616E+02  0.23747252832E+02 -0.12213042096E+03  0.13304696897E+03  0.10000000000E+01 0.  0.
<mgrwt>
<rscale>  0 0.12499709E+03</rscale>
<asrwt>0</asrwt>
<pdfrwt beam="1">  1        4 0.10937085E-02 0.12499709E+03</pdfrwt>
<pdfrwt beam="2">  1       -4 0.84530118E-01 0.12499709E+03</pdfrwt>
<totfact> 0.51733394E+03</totfact>
</mgrwt>
</event>
<event>
 5    1  0.3316206E-002  0.1249986E+03  0.7818608E-02  0.1235072E+00
         -4   -1    0    0    0  501 -0.00000000000E+00  0.00000000000E+00  0.16860750238E+03  0.16861228531E+03  0.12700000000E+01 0. -1.
          4   -1    0    0  501    0  0.00000000000E+00 -0.00000000000E+00 -0.23144662519E+02  0.23179480217E+02  0.12700000000E+01 0. -1.
         25    2    1    2    0    0  0.00000000000E+00  0.00000000000E+00  0.14546283986E+03  0.19179176553E+03  0.12499857417E+03 0.  0.
    9000005    1    3    3    0    0 -0.42493124157E+02 -0.24071676447E+02  0.13255243649E+03  0.14126662602E+03  0.10000000000E+01 0.  0.
    9000005    1    3    3    0    0  0.42493124157E+02  0.24071676447E+02  0.12910403373E+02  0.50525139513E+02  0.10000000000E+01 0.  0.
<mgrwt>
<rscale>  0 0.12499857E+03</rscale>
<asrwt>0</asrwt>
<pdfrwt beam="2">  1        4 0.35637637E-02 0.12499857E+03</pdfrwt>
<pdfrwt beam="1">  1       -4 0.25942661E-01 0.12499857E+03</pdfrwt>
<totfact> 0.91539409E+03</totfact>
</mgrwt>
</event>
<event>
 5    1  0.3316206E-002  0.1250007E+03  0.7818608E-02  0.1235068E+00
          4   -1    0    0  501    0  0.00000000000E+00  0.00000000000E+00  0.49037045207E+03  0.49037209664E+03  0.12700000000E+01 0. -1.
         -4   -1    0    0    0  501 -0.00000000000E+00 -0.00000000000E+00 -0.79137149666E+01  0.80149725248E+01  0.12700000000E+01 0. -1.
         25    2    1    2    0    0  0.00000000000E+00  0.00000000000E+00  0.48245673710E+03  0.49838706916E+03  0.12500067014E+03 0.  0.
    9000005    1    3    3    0    0 -0.57189614416E+02 -0.24809992413E+02  0.25865520006E+03  0.26606333877E+03  0.10000000000E+01 0.  0.
    9000005    1    3    3    0    0  0.57189614416E+02  0.24809992413E+02  0.22380153704E+03  0.23232373039E+03  0.10000000000E+01 0.  0.
<mgrwt>
<rscale>  0 0.12500067E+03</rscale>
<asrwt>0</asrwt>
<pdfrwt beam="1">  1        4 0.75449548E-01 0.12500067E+03</pdfrwt>
<pdfrwt beam="2">  1       -4 0.12254098E-02 0.12500067E+03</pdfrwt>
<totfact> 0.55988889E+03</totfact>
</mgrwt>
</event>
<event>
 5    1  0.3316206E-002  0.1250004E+03  0.7818608E-02  0.1235069E+00
         -4   -1    0    0    0  501 -0.00000000000E+00  0.00000000000E+00  0.10855016067E+02  0.10929056401E+02  0.12700000000E+01 0.  1.
          4   -1    0    0  501    0  0.00000000000E+00 -0.00000000000E+00 -0.35856054767E+03  0.35856279679E+03  0.12700000000E+01 0.  1.
         25    2    1    2    0    0  0.00000000000E+00  0.00000000000E+00 -0.34770553160E+03  0.36949185319E+03  0.12500037148E+03 0.  0.
    9000005    1    3    3    0    0 -0.68764198015E+01  0.59691566243E+02 -0.12309124529E+03  0.13697745397E+03  0.10000000000E+01 0.  0.
    9000005    1    3    3    0    0  0.68764198015E+01 -0.59691566243E+02 -0.22461428632E+03  0.23251439923E+03  0.10000000000E+01 0.  0.
<mgrwt>
<rscale>  0 0.12500037E+03</rscale>
<asrwt>0</asrwt>
<pdfrwt beam="2">  1        4 0.55169021E-01 0.12500037E+03</pdfrwt>
<pdfrwt beam="1">  1       -4 0.16758712E-02 0.12500037E+03</pdfrwt>
<totfact> 0.67631581E+03</totfact>
</mgrwt>
</event>
<event>
 5    1  0.3316206E-002  0.1250017E+03  0.7818608E-02  0.1235067E+00
          4   -1    0    0  501    0  0.00000000000E+00  0.00000000000E+00  0.72015772573E+02  0.72026969944E+02  0.12700000000E+01 0. -1.
         -4   -1    0    0    0  501 -0.00000000000E+00 -0.00000000000E+00 -0.54220201318E+02  0.54235072886E+02  0.12700000000E+01 0. -1.
         25    2    1    2    0    0  0.00000000000E+00  0.00000000000E+00  0.17795571256E+02  0.12626204283E+03  0.12500168440E+03 0.  0.
    9000005    1    3    3    0    0  0.38768111464E+02 -0.30046651965E+02  0.48012742384E+02  0.68643945050E+02  0.10000000000E+01 0.  0.
    9000005    1    3    3    0    0 -0.38768111464E+02  0.30046651965E+02 -0.30217171128E+02  0.57618097780E+02  0.10000000000E+01 0.  0.
<mgrwt>
<rscale>  0 0.12500168E+03</rscale>
<asrwt>0</asrwt>
<pdfrwt beam="1">  1        4 0.11081355E-01 0.12500168E+03</pdfrwt>
<pdfrwt beam="2">  1       -4 0.83435748E-02 0.12500168E+03</pdfrwt>
<totfact> 0.10424826E+04</totfact>
</mgrwt>
</event>
<event>
 5    1  0.3316206E-002  0.1250012E+03  0.7818608E-02  0.1235067E+00
          4   -1    0    0  501    0  0.00000000000E+00  0.00000000000E+00  0.51175299829E+03  0.51175457415E+03  0.12700000000E+01 0. -1.
         -4   -1    0    0    0  501 -0.00000000000E+00 -0.00000000000E+00 -0.75787946379E+01  0.76844666804E+01  0.12700000000E+01 0. -1.
         25    2    1    2    0    0  0.00000000000E+00  0.00000000000E+00  0.50417420365E+03  0.51943904083E+03  0.12500115802E+03 0.  0.
    9000005    1    3    3    0    0 -0.19062058987E+02 -0.31853684227E+02  0.43181918728E+02  0.56953466942E+02  0.10000000000E+01 0.  0.
    9000005    1    3    3    0    0  0.19062058987E+02  0.31853684227E+02  0.46099228493E+03  0.46248557389E+03  0.10000000000E+01 0.  0.
<mgrwt>
<rscale>  0 0.12500116E+03</rscale>
<asrwt>0</asrwt>
<pdfrwt beam="1">  1        4 0.78739478E-01 0.12500116E+03</pdfrwt>
<pdfrwt beam="2">  1       -4 0.11742183E-02 0.12500116E+03</pdfrwt>
<totfact> 0.54385677E+03</totfact>
</mgrwt>
</event>
<event>
 5    1  0.3316206E-002  0.1250023E+03  0.7818608E-02  0.1235066E+00
          4   -1    0    0  501    0  0.00000000000E+00  0.00000000000E+00  0.10684216380E+02  0.10759432125E+02  0.12700000000E+01 0. -1.
         -4   -1    0    0    0  501 -0.00000000000E+00 -0.00000000000E+00 -0.36426424196E+03  0.36426645586E+03  0.12700000000E+01 0. -1.
         25    2    1    2    0    0  0.00000000000E+00  0.00000000000E+00 -0.35358002558E+03  0.37502588799E+03  0.12500232868E+03 0.  0.
    9000005    1    3    3    0    0  0.21735845641E+02 -0.50757057877E+02 -0.26460119636E+03  0.27030264339E+03  0.10000000000E+01 0.  0.
    9000005    1    3    3    0    0 -0.21735845641E+02  0.50757057877E+02 -0.88978829214E+02  0.10472324459E+03  0.10000000000E+01 0.  0.
<mgrwt>
<rscale>  0 0.12500233E+03</rscale>
<asrwt>0</asrwt>
<pdfrwt beam="1">  1        4 0.16496820E-02 0.12500233E+03</pdfrwt>
<pdfrwt beam="2">  1       -4 0.56046599E-01 0.12500233E+03</pdfrwt>
<totfact> 0.67052946E+03</totfact>
</mgrwt>
</event>
<event>
 5    1  0.3316206E-002  0.1249440E+03  0.7818608E-02  0.1235157E+00
         -4   -1    0    0    0  501 -0.00000000000E+00  0.00000000000E+00  0.19363229593E+04  0.19363233757E+04  0.12700000000E+01 0. -1.
          4   -1    0    0  501    0  0.00000000000E+00 -0.00000000000E+00 -0.18150310164E+01  0.22152285639E+01  0.12700000000E+01 0. -1.
         25    2    1    2    0    0  0.00000000000E+00  0.00000000000E+00  0.19345079282E+04  0.19385386043E+04  0.12494397128E+03 0.  0.
    9000005    1    3    3    0    0  0.89736078548E+01 -0.55418986166E+02  0.54236250340E+03  0.54526129035E+03  0.10000000000E+01 0.  0.
    9000005    1    3    3    0    0 -0.89736078548E+01  0.55418986166E+02  0.13921454248E+04  0.13932773140E+04  0.10000000000E+01 0.  0.
<mgrwt>
<rscale>  0 0.12494397E+03</rscale>
<asrwt>0</asrwt>
<pdfrwt beam="2">  1        4 0.31005113E-03 0.12494397E+03</pdfrwt>
<pdfrwt beam="1">  1       -4 0.29792749E+00 0.12494397E+03</pdfrwt>
<totfact> 0.10697955E+03</totfact>
</mgrwt>
</event>
<event>
 5    1  0.3316206E-002  0.1249991E+03  0.7818608E-02  0.1235071E+00
          4   -1    0    0  501    0  0.00000000000E+00  0.00000000000E+00  0.54846927407E+02  0.54861629086E+02  0.12700000000E+01 0. -1.
         -4   -1    0    0    0  501 -0.00000000000E+00 -0.00000000000E+00 -0.71190012734E+02  0.71201339967E+02  0.12700000000E+01 0. -1.
         25    2    1    2    0    0  0.00000000000E+00  0.00000000000E+00 -0.16343085328E+02  0.12606296905E+03  0.12499910291E+03 0.  0.
    9000005    1    3    3    0    0 -0.18521564916E+02 -0.57320012890E+02  0.86001402675E+01  0.60857166031E+02  0.10000000000E+01 0.  0.
    9000005    1    3    3    0    0  0.18521564916E+02  0.57320012890E+02 -0.24943225595E+02  0.65205803022E+02  0.10000000000E+01 0.  0.
<mgrwt>
<rscale>  0 0.12499910E+03</rscale>
<asrwt>0</asrwt>
<pdfrwt beam="1">  1        4 0.84399910E-02 0.12499910E+03</pdfrwt>
<pdfrwt beam="2">  1       -4 0.10954312E-01 0.12499910E+03</pdfrwt>
<totfact> 0.10429789E+04</totfact>
</mgrwt>
</event>
<event>
 5    1  0.3316206E-002  0.1250029E+03  0.7818608E-02  0.1235065E+00
         -4   -1    0    0    0  501 -0.00000000000E+00  0.00000000000E+00  0.11618627783E+04  0.11618634724E+04  0.12700000000E+01 0.  1.
          4   -1    0    0  501    0  0.00000000000E+00 -0.00000000000E+00 -0.32415680868E+01  0.34814743517E+01  0.12700000000E+01 0.  1.
         25    2    1    2    0    0  0.00000000000E+00  0.00000000000E+00  0.11586212102E+04  0.11653449467E+04  0.12500294463E+03 0.  0.
    9000005    1    3    3    0    0 -0.28043662991E+02 -0.55710175825E+02  0.61585129544E+03  0.61900233346E+03  0.10000000000E+01 0.  0.
    9000005    1    3    3    0    0  0.28043662991E+02  0.55710175825E+02  0.54276991473E+03  0.54634261326E+03  0.10000000000E+01 0.  0.
<mgrwt>
<rscale>  0 0.12500294E+03</rscale>
<asrwt>0</asrwt>
<pdfrwt beam="2">  1        4 0.51721038E-03 0.12500294E+03</pdfrwt>
<pdfrwt beam="1">  1       -4 0.17876667E+00 0.12500294E+03</pdfrwt>
<totfact> 0.25636629E+03</totfact>
</mgrwt>
</event>
<event>
 5    1  0.3316206E-002  0.1249997E+03  0.7818608E-02  0.1235070E+00
         -4   -1    0    0    0  501 -0.00000000000E+00  0.00000000000E+00  0.87979382288E+03  0.87979473952E+03  0.12700000000E+01 0.  1.
          4   -1    0    0  501    0  0.00000000000E+00 -0.00000000000E+00 -0.43481821760E+01  0.45298552113E+01  0.12700000000E+01 0.  1.
         25    2    1    2    0    0  0.00000000000E+00  0.00000000000E+00  0.87544564071E+03  0.88432459473E+03  0.12499967604E+03 0.  0.
    9000005    1    3    3    0    0  0.53273496517E+02  0.70577717418E+01  0.21207118975E+03  0.21877629464E+03  0.10000000000E+01 0.  0.
    9000005    1    3    3    0    0 -0.53273496517E+02 -0.70577717418E+01  0.66337445095E+03  0.66554830009E+03  0.10000000000E+01 0.  0.
<mgrwt>
<rscale>  0 0.12499968E+03</rscale>
<asrwt>0</asrwt>
<pdfrwt beam="2">  1        4 0.68299665E-03 0.12499968E+03</pdfrwt>
<pdfrwt beam="1">  1       -4 0.13536690E+00 0.12499968E+03</pdfrwt>
<totfact> 0.34762633E+03</totfact>
</mgrwt>
</event>
<event>
 5    1  0.3316206E-002  0.1249982E+03  0.7818608E-02  0.1235072E+00
         -4   -1    0    0    0  501 -0.00000000000E+00  0.00000000000E+00  0.70954695455E+02  0.70966060247E+02  0.12700000000E+01 0.  1.
          4   -1    0    0  501    0  0.00000000000E+00 -0.00000000000E+00 -0.55028072595E+02  0.55042725891E+02  0.12700000000E+01 0.  1.
         25    2    1    2    0    0  0.00000000000E+00  0.00000000000E+00  0.15926622859E+02  0.12600878614E+03  0.12499822746E+03 0.  0.
    9000005    1    3    3    0    0  0.27417229201E+02  0.39428424709E+02 -0.32345377494E+02  0.57909658757E+02  0.10000000000E+01 0.  0.
    9000005    1    3    3    0    0 -0.27417229201E+02 -0.39428424709E+02  0.48272000354E+02  0.68099127382E+02  0.10000000000E+01 0.  0.
<mgrwt>
<rscale>  0 0.12499823E+03</rscale>
<asrwt>0</asrwt>
<pdfrwt beam="2">  1        4 0.84678587E-02 0.12499823E+03</pdfrwt>
<pdfrwt beam="1">  1       -4 0.10918108E-01 0.12499823E+03</pdfrwt>
<totfact> 0.10431182E+04</totfact>
</mgrwt>
</event>
<event>
 5    1  0.3316206E-002  0.1249880E+03  0.7818608E-02  0.1235088E+00
         -4   -1    0    0    0  501 -0.00000000000E+00  0.00000000000E+00  0.16898514744E+02  0.16946170675E+02  0.12700000000E+01 0. -1.
          4   -1    0    0  501    0  0.00000000000E+00 -0.00000000000E+00 -0.23074015833E+03  0.23074365336E+03  0.12700000000E+01 0. -1.
         25    2    1    2    0    0  0.00000000000E+00  0.00000000000E+00 -0.21384164358E+03  0.24768982403E+03  0.12498800102E+03 0.  0.
    9000005    1    3    3    0    0 -0.74940966132E+01 -0.31964426999E+02 -0.21228017524E+03  0.21480632877E+03  0.10000000000E+01 0.  0.
    9000005    1    3    3    0    0  0.74940966132E+01  0.31964426999E+02 -0.15614683399E+01  0.32883495265E+02  0.10000000000E+01 0.  0.
<mgrwt>
<rscale>  0 0.12498800E+03</rscale>
<asrwt>0</asrwt>
<pdfrwt beam="2">  1        4 0.35502418E-01 0.12498800E+03</pdfrwt>
<pdfrwt beam="1">  1       -4 0.26037064E-02 0.12498800E+03</pdfrwt>
<totfact> 0.82687375E+03</totfact>
</mgrwt>
</event>
<event>
 5    1  0.3316206E-002  0.1249962E+03  0.7818608E-02  0.1235075E+00
         -4   -1    0    0    0  501 -0.00000000000E+00  0.00000000000E+00  0.12265993839E+02  0.12331565385E+02  0.12700000000E+01 0. -1.
          4   -1    0    0  501    0  0.00000000000E+00 -0.00000000000E+00 -0.31752668345E+03  0.31752922322E+03  0.12700000000E+01 0. -1.
         25    2    1    2    0    0  0.00000000000E+00  0.00000000000E+00 -0.30526068961E+03  0.32986078861E+03  0.12499620491E+03 0.  0.
    9000005    1    3    3    0    0  0.10128132882E+02 -0.61294453124E+02 -0.17041622498E+03  0.18138985307E+03  0.10000000000E+01 0.  0.
    9000005    1    3    3    0    0 -0.10128132882E+02  0.61294453124E+02 -0.13484446462E+03  0.14847093554E+03  0.10000000000E+01 0.  0.
<mgrwt>
<rscale>  0 0.12499620E+03</rscale>
<asrwt>0</asrwt>
<pdfrwt beam="2">  1        4 0.48855492E-01 0.12499620E+03</pdfrwt>
<pdfrwt beam="1">  1       -4 0.18923155E-02 0.12499620E+03</pdfrwt>
<totfact> 0.72004520E+03</totfact>
</mgrwt>
</event>
<event>
 5    1  0.3316206E-002  0.1250012E+03  0.7818608E-02  0.1235067E+00
          4   -1    0    0  501    0  0.00000000000E+00  0.00000000000E+00  0.62075859138E+02  0.62088849142E+02  0.12700000000E+01 0.  1.
         -4   -1    0    0    0  501 -0.00000000000E+00 -0.00000000000E+00 -0.62902215965E+02  0.62915035352E+02  0.12700000000E+01 0.  1.
         25    2    1    2    0    0  0.00000000000E+00  0.00000000000E+00 -0.82635682652E+00  0.12500388449E+03  0.12500115309E+03 0.  0.
    9000005    1    3    3    0    0 -0.62285095745E+02 -0.41249079615E+01  0.25658211377E+01  0.62482249126E+02  0.10000000000E+01 0.  0.
    9000005    1    3    3    0    0  0.62285095745E+02  0.41249079615E+01 -0.33921779642E+01  0.62521635368E+02  0.10000000000E+01 0.  0.
<mgrwt>
<rscale>  0 0.12500115E+03</rscale>
<asrwt>0</asrwt>
<pdfrwt beam="1">  1        4 0.95521175E-02 0.12500115E+03</pdfrwt>
<pdfrwt beam="2">  1       -4 0.96792493E-02 0.12500115E+03</pdfrwt>
<totfact> 0.10452506E+04</totfact>
</mgrwt>
</event>
<event>
 5    1  0.3316206E-002  0.1249994E+03  0.7818608E-02  0.1235070E+00
          4   -1    0    0  501    0  0.00000000000E+00  0.00000000000E+00  0.34943834065E+02  0.34966904912E+02  0.12700000000E+01 0.  1.
         -4   -1    0    0    0  501 -0.00000000000E+00 -0.00000000000E+00 -0.11172194409E+03  0.11172916222E+03  0.12700000000E+01 0.  1.
         25    2    1    2    0    0  0.00000000000E+00  0.00000000000E+00 -0.76778110022E+02  0.14669606713E+03  0.12499943173E+03 0.  0.
    9000005    1    3    3    0    0  0.26931376216E+02 -0.36311372199E+02 -0.89021657767E+02  0.99848236476E+02  0.10000000000E+01 0.  0.
    9000005    1    3    3    0    0 -0.26931376216E+02  0.36311372199E+02  0.12243547745E+02  0.46847830657E+02  0.10000000000E+01 0.  0.
<mgrwt>
<rscale>  0 0.12499943E+03</rscale>
<asrwt>0</asrwt>
<pdfrwt beam="1">  1        4 0.53783044E-02 0.12499943E+03</pdfrwt>
<pdfrwt beam="2">  1       -4 0.17190321E-01 0.12499943E+03</pdfrwt>
<totfact> 0.99967692E+03</totfact>
</mgrwt>
</event>
<event>
 5    1  0.3316206E-002  0.1249981E+03  0.7818608E-02  0.1235072E+00
          4   -1    0    0  501    0  0.00000000000E+00  0.00000000000E+00  0.54103208811E+02  0.54118112529E+02  0.12700000000E+01 0.  1.
         -4   -1    0    0    0  501 -0.00000000000E+00 -0.00000000000E+00 -0.72167332372E+02  0.72178506231E+02  0.12700000000E+01 0.  1.
         25    2    1    2    0    0  0.00000000000E+00  0.00000000000E+00 -0.18064123561E+02  0.12629661876E+03  0.12499809339E+03 0.  0.
    9000005    1    3    3    0    0  0.30044034284E+02 -0.52495245153E+01 -0.64141586046E+02  0.71030588933E+02  0.10000000000E+01 0.  0.
    9000005    1    3    3    0    0 -0.30044034284E+02  0.52495245153E+01  0.46077462485E+02  0.55266029826E+02  0.10000000000E+01 0.  0.
<mgrwt>
<rscale>  0 0.12499809E+03</rscale>
<asrwt>0</asrwt>
<pdfrwt beam="1">  1        4 0.83255765E-02 0.12499809E+03</pdfrwt>
<pdfrwt beam="2">  1       -4 0.11104673E-01 0.12499809E+03</pdfrwt>
<totfact> 0.10424916E+04</totfact>
</mgrwt>
</event>
<event>
 5    1  0.3316206E-002  0.1249964E+03  0.7818608E-02  0.1235075E+00
          4   -1    0    0  501    0  0.00000000000E+00  0.00000000000E+00  0.45129186657E+03  0.45129365355E+03  0.12700000000E+01 0.  1.
         -4   -1    0    0    0  501 -0.00000000000E+00 -0.00000000000E+00 -0.86068033886E+01  0.86999979638E+01  0.12700000000E+01 0.  1.
         25    2    1    2    0    0  0.00000000000E+00  0.00000000000E+00  0.44268506318E+03  0.45999365151E+03  0.12499637701E+03 0.  0.
    9000005    1    3    3    0    0 -0.46184775613E+02  0.35479045673E+02  0.30471243993E+03  0.31022970075E+03  0.10000000000E+01 0.  0.
    9000005    1    3    3    0    0  0.46184775613E+02 -0.35479045673E+02  0.13797262325E+03  0.14976395076E+03  0.10000000000E+01 0.  0.
<mgrwt>
<rscale>  0 0.12499638E+03</rscale>
<asrwt>0</asrwt>
<pdfrwt beam="1">  1        4 0.69436827E-01 0.12499638E+03</pdfrwt>
<pdfrwt beam="2">  1       -4 0.13314298E-02 0.12499638E+03</pdfrwt>
<totfact> 0.59112431E+03</totfact>
</mgrwt>
</event>
<event>
 5    1  0.3316206E-002  0.1250042E+03  0.7818608E-02  0.1235063E+00
         -4   -1    0    0    0  501 -0.00000000000E+00  0.00000000000E+00  0.47074841645E+02  0.47091969760E+02  0.12700000000E+01 0. -1.
          4   -1    0    0  501    0  0.00000000000E+00 -0.00000000000E+00 -0.82948069008E+02  0.82957790787E+02  0.12700000000E+01 0. -1.
         25    2    1    2    0    0  0.00000000000E+00  0.00000000000E+00 -0.35873227364E+02  0.13004976055E+03  0.12500420704E+03 0.  0.
    9000005    1    3    3    0    0 -0.56821740174E+02 -0.25629455578E+02 -0.13291675734E+02  0.63743609825E+02  0.10000000000E+01 0.  0.
    9000005    1    3    3    0    0  0.56821740174E+02  0.25629455578E+02 -0.22581551629E+02  0.66306150722E+02  0.10000000000E+01 0.  0.
<mgrwt>
<rscale>  0 0.12500421E+03</rscale>
<asrwt>0</asrwt>
<pdfrwt beam="2">  1        4 0.12763307E-01 0.12500421E+03</pdfrwt>
<pdfrwt beam="1">  1       -4 0.72443487E-02 0.12500421E+03</pdfrwt>
<totfact> 0.10342461E+04</totfact>
</mgrwt>
</event>
<event>
 5    1  0.3316206E-002  0.1249982E+03  0.7818608E-02  0.1235072E+00
          4   -1    0    0  501    0  0.00000000000E+00  0.00000000000E+00  0.12043183276E+03  0.12043852889E+03  0.12700000000E+01 0. -1.
         -4   -1    0    0    0  501 -0.00000000000E+00 -0.00000000000E+00 -0.32414389887E+02  0.32439259728E+02  0.12700000000E+01 0. -1.
         25    2    1    2    0    0  0.00000000000E+00  0.00000000000E+00  0.88017442871E+02  0.15287778862E+03  0.12499819200E+03 0.  0.
    9000005    1    3    3    0    0  0.22381216035E+02 -0.45736945075E+02  0.88315023353E+02  0.10194768426E+03  0.10000000000E+01 0.  0.
    9000005    1    3    3    0    0 -0.22381216035E+02  0.45736945075E+02 -0.29758048219E+00  0.50930104360E+02  0.10000000000E+01 0.  0.
<mgrwt>
<rscale>  0 0.12499819E+03</rscale>
<asrwt>0</asrwt>
<pdfrwt beam="1">  1        4 0.18530402E-01 0.12499819E+03</pdfrwt>
<pdfrwt beam="2">  1       -4 0.49892575E-02 0.12499819E+03</pdfrwt>
<totfact> 0.98737133E+03</totfact>
</mgrwt>
</event>
<event>
 5    1  0.3316206E-002  0.1249984E+03  0.7818608E-02  0.1235072E+00
         -4   -1    0    0    0  501 -0.00000000000E+00  0.00000000000E+00  0.66921501927E+02  0.66933551528E+02  0.12700000000E+01 0.  1.
          4   -1    0    0  501    0  0.00000000000E+00 -0.00000000000E+00 -0.58344954958E+02  0.58358775425E+02  0.12700000000E+01 0.  1.
         25    2    1    2    0    0  0.00000000000E+00  0.00000000000E+00  0.85765469682E+01  0.12529232695E+03  0.12499844013E+03 0.  0.
    9000005    1    3    3    0    0 -0.49335128124E+01  0.10236949475E+02 -0.57305512487E+02  0.58429927645E+02  0.10000000000E+01 0.  0.
    9000005    1    3    3    0    0  0.49335128124E+01 -0.10236949475E+02  0.65882059455E+02  0.66862399308E+02  0.10000000000E+01 0.  0.
<mgrwt>
<rscale>  0 0.12499844E+03</rscale>
<asrwt>0</asrwt>
<pdfrwt beam="2">  1        4 0.89781369E-02 0.12499844E+03</pdfrwt>
<pdfrwt beam="1">  1       -4 0.10297606E-01 0.12499844E+03</pdfrwt>
<totfact> 0.10446885E+04</totfact>
</mgrwt>
</event>
<event>
 5    1  0.3316206E-002  0.1249997E+03  0.7818608E-02  0.1235070E+00
         -4   -1    0    0    0  501 -0.00000000000E+00  0.00000000000E+00  0.21438193575E+02  0.21475778071E+02  0.12700000000E+01 0. -1.
          4   -1    0    0  501    0  0.00000000000E+00 -0.00000000000E+00 -0.18200966079E+03  0.18201409154E+03  0.12700000000E+01 0. -1.
         25    2    1    2    0    0  0.00000000000E+00  0.00000000000E+00 -0.16057146721E+03  0.20348986961E+03  0.12499972381E+03 0.  0.
    9000005    1    3    3    0    0 -0.13743191285E+02  0.10158248264E+02  0.17568086132E+02  0.24529634421E+02  0.10000000000E+01 0.  0.
    9000005    1    3    3    0    0  0.13743191285E+02 -0.10158248264E+02 -0.17813955334E+03  0.17896023519E+03  0.10000000000E+01 0.  0.
<mgrwt>
<rscale>  0 0.12499972E+03</rscale>
<asrwt>0</asrwt>
<pdfrwt beam="2">  1        4 0.28004717E-01 0.12499972E+03</pdfrwt>
<pdfrwt beam="1">  1       -4 0.33014157E-02 0.12499972E+03</pdfrwt>
<totfact> 0.89550785E+03</totfact>
</mgrwt>
</event>
<event>
 5    1  0.3316206E-002  0.1250003E+03  0.7818608E-02  0.1235069E+00
          4   -1    0    0  501    0  0.00000000000E+00  0.00000000000E+00  0.16601809695E+02  0.16650314866E+02  0.12700000000E+01 0. -1.
         -4   -1    0    0    0  501 -0.00000000000E+00 -0.00000000000E+00 -0.23489812832E+03  0.23490156149E+03  0.12700000000E+01 0. -1.
         25    2    1    2    0    0  0.00000000000E+00  0.00000000000E+00 -0.21829631863E+03  0.25155187635E+03  0.12500025508E+03 0.  0.
    9000005    1    3    3    0    0 -0.20379599199E+02 -0.58733298915E+02 -0.12192934167E+03  0.13686742792E+03  0.10000000000E+01 0.  0.
    9000005    1    3    3    0    0  0.20379599199E+02  0.58733298915E+02 -0.96366976957E+02  0.11468444843E+03  0.10000000000E+01 0.  0.
<mgrwt>
<rscale>  0 0.12500026E+03</rscale>
<asrwt>0</asrwt>
<pdfrwt beam="1">  1        4 0.25581200E-02 0.12500026E+03</pdfrwt>
<pdfrwt beam="2">  1       -4 0.36142166E-01 0.12500026E+03</pdfrwt>
<totfact> 0.82105984E+03</totfact>
</mgrwt>
</event>
<event>
 5    1  0.3316206E-002  0.1250047E+03  0.7818608E-02  0.1235062E+00
         -4   -1    0    0    0  501 -0.00000000000E+00  0.00000000000E+00  0.13684563957E+04  0.13684569850E+04  0.12700000000E+01 0. -1.
          4   -1    0    0  501    0  0.00000000000E+00 -0.00000000000E+00 -0.27128409906E+01  0.29953975096E+01  0.12700000000E+01 0. -1.
         25    2    1    2    0    0  0.00000000000E+00  0.00000000000E+00  0.13657435547E+04  0.13714523825E+04  0.12500472110E+03 0.  0.
    9000005    1    3    3    0    0  0.33465687445E+02  0.40858282743E+02  0.10494140564E+04  0.10507426961E+04  0.10000000000E+01 0.  0.
    9000005    1    3    3    0    0 -0.33465687445E+02 -0.40858282743E+02  0.31632949825E+03  0.32070968643E+03  0.10000000000E+01 0.  0.
<mgrwt>
<rscale>  0 0.12500472E+03</rscale>
<asrwt>0</asrwt>
<pdfrwt beam="2">  1        4 0.43914178E-03 0.12500472E+03</pdfrwt>
<pdfrwt beam="1">  1       -4 0.21055297E+00 0.12500472E+03</pdfrwt>
<totfact> 0.20599884E+03</totfact>
</mgrwt>
</event>
<event>
 5    1  0.3316206E-002  0.1249873E+03  0.7818608E-02  0.1235089E+00
          4   -1    0    0  501    0  0.00000000000E+00  0.00000000000E+00  0.94886182128E+02  0.94894680877E+02  0.12700000000E+01 0.  1.
         -4   -1    0    0    0  501 -0.00000000000E+00 -0.00000000000E+00 -0.41139242302E+02  0.41158840571E+02  0.12700000000E+01 0.  1.
         25    2    1    2    0    0  0.00000000000E+00  0.00000000000E+00  0.53746939826E+02  0.13605352145E+03  0.12498730799E+03 0.  0.
    9000005    1    3    3    0    0  0.43362500206E+02 -0.34035404956E+02 -0.51551340733E+01  0.55374097031E+02  0.10000000000E+01 0.  0.
    9000005    1    3    3    0    0 -0.43362500206E+02  0.34035404956E+02  0.58902073899E+02  0.80679424417E+02  0.10000000000E+01 0.  0.
<mgrwt>
<rscale>  0 0.12498731E+03</rscale>
<asrwt>0</asrwt>
<pdfrwt beam="1">  1        4 0.14600035E-01 0.12498731E+03</pdfrwt>
<pdfrwt beam="2">  1       -4 0.63312756E-02 0.12498731E+03</pdfrwt>
<totfact> 0.10218837E+04</totfact>
</mgrwt>
</event>
<event>
 5    1  0.3316206E-002  0.1249994E+03  0.7818608E-02  0.1235070E+00
          4   -1    0    0  501    0  0.00000000000E+00  0.00000000000E+00  0.45396923958E+02  0.45414684903E+02  0.12700000000E+01 0.  1.
         -4   -1    0    0    0  501 -0.00000000000E+00 -0.00000000000E+00 -0.86006442141E+02  0.86015818253E+02  0.12700000000E+01 0.  1.
         25    2    1    2    0    0  0.00000000000E+00  0.00000000000E+00 -0.40609518183E+02  0.13143050316E+03  0.12499937677E+03 0.  0.
    9000005    1    3    3    0    0  0.24050307506E-03  0.61715377676E+02 -0.99800194847E+01  0.62525104004E+02  0.10000000000E+01 0.  0.
    9000005    1    3    3    0    0 -0.24050307506E-03 -0.61715377676E+02 -0.30629498698E+02  0.68905399152E+02  0.10000000000E+01 0.  0.
<mgrwt>
<rscale>  0 0.12499938E+03</rscale>
<asrwt>0</asrwt>
<pdfrwt beam="1">  1        4 0.69862296E-02 0.12499938E+03</pdfrwt>
<pdfrwt beam="2">  1       -4 0.13233848E-01 0.12499938E+03</pdfrwt>
<totfact> 0.10314014E+04</totfact>
</mgrwt>
</event>
<event>
 5    1  0.3316206E-002  0.1249985E+03  0.7818608E-02  0.1235072E+00
          4   -1    0    0  501    0  0.00000000000E+00  0.00000000000E+00  0.39363492367E+02  0.39383974296E+02  0.12700000000E+01 0. -1.
         -4   -1    0    0    0  501 -0.00000000000E+00 -0.00000000000E+00 -0.99182677937E+02  0.99190808560E+02  0.12700000000E+01 0. -1.
         25    2    1    2    0    0  0.00000000000E+00  0.00000000000E+00 -0.59819185570E+02  0.13857478286E+03  0.12499854192E+03 0.  0.
    9000005    1    3    3    0    0  0.59707389952E+02 -0.10747122188E+02 -0.13292039035E+02  0.62114018964E+02  0.10000000000E+01 0.  0.
    9000005    1    3    3    0    0 -0.59707389952E+02  0.10747122188E+02 -0.46527146535E+02  0.76460763891E+02  0.10000000000E+01 0.  0.
<mgrwt>
<rscale>  0 0.12499854E+03</rscale>
<asrwt>0</asrwt>
<pdfrwt beam="1">  1        4 0.60581229E-02 0.12499854E+03</pdfrwt>
<pdfrwt beam="2">  1       -4 0.15261074E-01 0.12499854E+03</pdfrwt>
<totfact> 0.10163544E+04</totfact>
</mgrwt>
</event>
<event>
 5    1  0.3316206E-002  0.1249982E+03  0.7818608E-02  0.1235072E+00
         -4   -1    0    0    0  501 -0.00000000000E+00  0.00000000000E+00  0.30734151097E+02  0.30760379446E+02  0.12700000000E+01 0. -1.
          4   -1    0    0  501    0  0.00000000000E+00 -0.00000000000E+00 -0.12701070333E+03  0.12701705264E+03  0.12700000000E+01 0. -1.
         25    2    1    2    0    0  0.00000000000E+00  0.00000000000E+00 -0.96276552233E+02  0.15777743208E+03  0.12499817424E+03 0.  0.
    9000005    1    3    3    0    0 -0.43245665050E+02 -0.17558532314E+02 -0.10058796344E+03  0.11089376894E+03  0.10000000000E+01 0.  0.
    9000005    1    3    3    0    0  0.43245665050E+02  0.17558532314E+02  0.43114112018E+01  0.46883663138E+02  0.10000000000E+01 0.  0.
<mgrwt>
<rscale>  0 0.12499817E+03</rscale>
<asrwt>0</asrwt>
<pdfrwt beam="2">  1        4 0.19542614E-01 0.12499817E+03</pdfrwt>
<pdfrwt beam="1">  1       -4 0.47308370E-02 0.12499817E+03</pdfrwt>
<totfact> 0.97777011E+03</totfact>
</mgrwt>
</event>
<event>
 5    1  0.3316206E-002  0.1249948E+03  0.7818608E-02  0.1235077E+00
          4   -1    0    0  501    0  0.00000000000E+00  0.00000000000E+00  0.10529842559E+02  0.10606153135E+02  0.12700000000E+01 0.  1.
         -4   -1    0    0    0  501 -0.00000000000E+00 -0.00000000000E+00 -0.36952174204E+03  0.36952392445E+03  0.12700000000E+01 0.  1.
         25    2    1    2    0    0  0.00000000000E+00  0.00000000000E+00 -0.35899189948E+03  0.38013007758E+03  0.12499476786E+03 0.  0.
    9000005    1    3    3    0    0  0.46382463312E+02 -0.33519331233E+02 -0.25583135617E+03  0.26215560507E+03  0.10000000000E+01 0.  0.
    9000005    1    3    3    0    0 -0.46382463312E+02  0.33519331233E+02 -0.10316054331E+03  0.11797447252E+03  0.10000000000E+01 0.  0.
<mgrwt>
<rscale>  0 0.12499477E+03</rscale>
<asrwt>0</asrwt>
<pdfrwt beam="1">  1        4 0.16260140E-02 0.12499477E+03</pdfrwt>
<pdfrwt beam="2">  1       -4 0.56855527E-01 0.12499477E+03</pdfrwt>
<totfact> 0.66539988E+03</totfact>
</mgrwt>
</event>
<event>
 5    1  0.3316206E-002  0.1250022E+03  0.7818608E-02  0.1235066E+00
          4   -1    0    0  501    0  0.00000000000E+00  0.00000000000E+00  0.16006369083E+03  0.16006872906E+03  0.12700000000E+01 0. -1.
         -4   -1    0    0    0  501 -0.00000000000E+00 -0.00000000000E+00 -0.24383267125E+02  0.24416318635E+02  0.12700000000E+01 0. -1.
         25    2    1    2    0    0  0.00000000000E+00  0.00000000000E+00  0.13568042370E+03  0.18448504769E+03  0.12500222176E+03 0.  0.
    9000005    1    3    3    0    0  0.46529291194E+02 -0.39495711379E+02  0.87668503488E+02  0.10682533716E+03  0.10000000000E+01 0.  0.
    9000005    1    3    3    0    0 -0.46529291194E+02  0.39495711379E+02  0.48011920215E+02  0.77659710527E+02  0.10000000000E+01 0.  0.
<mgrwt>
<rscale>  0 0.12500222E+03</rscale>
<asrwt>0</asrwt>
<pdfrwt beam="1">  1        4 0.24628113E-01 0.12500222E+03</pdfrwt>
<pdfrwt beam="2">  1       -4 0.37542018E-02 0.12500222E+03</pdfrwt>
<totfact> 0.92811231E+03</totfact>
</mgrwt>
</event>
<event>
 5    1  0.3316206E-002  0.1250041E+03  0.7818608E-02  0.1235063E+00
         -4   -1    0    0    0  501 -0.00000000000E+00  0.00000000000E+00  0.51258063489E+02  0.51273794209E+02  0.12700000000E+01 0.  1.
          4   -1    0    0  501    0  0.00000000000E+00 -0.00000000000E+00 -0.76179803140E+02  0.76190388543E+02  0.12700000000E+01 0.  1.
         25    2    1    2    0    0  0.00000000000E+00  0.00000000000E+00 -0.24921739651E+02  0.12746418275E+03  0.12500409904E+03 0.  0.
    9000005    1    3    3    0    0  0.43534400061E+02  0.23331746675E+02 -0.51501324744E+02  0.71365263553E+02  0.10000000000E+01 0.  0.
    9000005    1    3    3    0    0 -0.43534400061E+02 -0.23331746675E+02  0.26579585094E+02  0.56098919200E+02  0.10000000000E+01 0.  0.
<mgrwt>
<rscale>  0 0.12500410E+03</rscale>
<asrwt>0</asrwt>
<pdfrwt beam="2">  1        4 0.11721994E-01 0.12500410E+03</pdfrwt>
<pdfrwt beam="1">  1       -4 0.78878803E-02 0.12500410E+03</pdfrwt>
<totfact> 0.10398114E+04</totfact>
</mgrwt>
</event>
<event>
 5    1  0.3316206E-002  0.1250036E+03  0.7818608E-02  0.1235064E+00
         -4   -1    0    0    0  501 -0.00000000000E+00  0.00000000000E+00  0.33819567173E+03  0.33819805629E+03  0.12700000000E+01 0. -1.
          4   -1    0    0  501    0  0.00000000000E+00 -0.00000000000E+00 -0.11513587494E+02  0.11583419054E+02  0.12700000000E+01 0. -1.
         25    2    1    2    0    0  0.00000000000E+00  0.00000000000E+00  0.32668208423E+03  0.34978147534E+03  0.12500358527E+03 0.  0.
    9000005    1    3    3    0    0  0.27307439450E+02  0.55848431150E+02  0.14548296936E+03  0.15821200297E+03  0.10000000000E+01 0.  0.
    9000005    1    3    3    0    0 -0.27307439450E+02 -0.55848431150E+02  0.18119911488E+03  0.19156947237E+03  0.10000000000E+01 0.  0.
<mgrwt>
<rscale>  0 0.12500359E+03</rscale>
<asrwt>0</asrwt>
<pdfrwt beam="2">  1        4 0.17768764E-02 0.12500359E+03</pdfrwt>
<pdfrwt beam="1">  1       -4 0.52035655E-01 0.12500359E+03</pdfrwt>
<totfact> 0.69743070E+03</totfact>
</mgrwt>
</event>
<event>
 5    1  0.3316206E-002  0.1249988E+03  0.7818608E-02  0.1235071E+00
          4   -1    0    0  501    0  0.00000000000E+00  0.00000000000E+00  0.79601447923E+01  0.80608191342E+01  0.12700000000E+01 0. -1.
         -4   -1    0    0    0  501 -0.00000000000E+00 -0.00000000000E+00 -0.48753155252E+03  0.48753320667E+03  0.12700000000E+01 0. -1.
         25    2    1    2    0    0  0.00000000000E+00  0.00000000000E+00 -0.47957140773E+03  0.49559402581E+03  0.12499881319E+03 0.  0.
    9000005    1    3    3    0    0  0.30633452810E+02 -0.54389468089E+02 -0.22819036784E+03  0.23657655557E+03  0.10000000000E+01 0.  0.
    9000005    1    3    3    0    0 -0.30633452810E+02  0.54389468089E+02 -0.25138103989E+03  0.25901747024E+03  0.10000000000E+01 0.  0.
<mgrwt>
<rscale>  0 0.12499881E+03</rscale>
<asrwt>0</asrwt>
<pdfrwt beam="1">  1        4 0.12325095E-02 0.12499881E+03</pdfrwt>
<pdfrwt beam="2">  1       -4 0.75012703E-01 0.12499881E+03</pdfrwt>
<totfact> 0.56209320E+03</totfact>
</mgrwt>
</event>
<event>
 5    1  0.3316206E-002  0.1249805E+03  0.7818608E-02  0.1235100E+00
          4   -1    0    0  501    0  0.00000000000E+00  0.00000000000E+00  0.47781728690E+02  0.47798603500E+02  0.12700000000E+01 0. -1.
         -4   -1    0    0    0  501 -0.00000000000E+00 -0.00000000000E+00 -0.81690197933E+02  0.81700069390E+02  0.12700000000E+01 0. -1.
         25    2    1    2    0    0  0.00000000000E+00  0.00000000000E+00 -0.33908469243E+02  0.12949867289E+03  0.12498048645E+03 0.  0.
    9000005    1    3    3    0    0  0.60448086655E+02 -0.11771463383E+02 -0.60135399556E+01  0.61884579608E+02  0.10000000000E+01 0.  0.
    9000005    1    3    3    0    0 -0.60448086655E+02  0.11771463383E+02 -0.27894929287E+02  0.67614093282E+02  0.10000000000E+01 0.  0.
<mgrwt>
<rscale>  0 0.12498049E+03</rscale>
<asrwt>0</asrwt>
<pdfrwt beam="1">  1        4 0.73530926E-02 0.12498049E+03</pdfrwt>
<pdfrwt beam="2">  1       -4 0.12569780E-01 0.12498049E+03</pdfrwt>
<totfact> 0.10359806E+04</totfact>
</mgrwt>
</event>
<event>
 5    1  0.3316206E-002  0.1250045E+03  0.7818608E-02  0.1235062E+00
         -4   -1    0    0    0  501 -0.00000000000E+00  0.00000000000E+00  0.12834942883E+04  0.12834949166E+04  0.12700000000E+01 0. -1.
          4   -1    0    0  501    0  0.00000000000E+00 -0.00000000000E+00 -0.29105339935E+01  0.31755484766E+01  0.12700000000E+01 0. -1.
         25    2    1    2    0    0  0.00000000000E+00  0.00000000000E+00  0.12805837543E+04  0.12866704651E+04  0.12500453579E+03 0.  0.
    9000005    1    3    3    0    0  0.59152356618E+02  0.13861640807E+02  0.48958228385E+03  0.49333858458E+03  0.10000000000E+01 0.  0.
    9000005    1    3    3    0    0 -0.59152356618E+02 -0.13861640807E+02  0.79100147042E+03  0.79333188048E+03  0.10000000000E+01 0.  0.
<mgrwt>
<rscale>  0 0.12500454E+03</rscale>
<asrwt>0</asrwt>
<pdfrwt beam="2">  1        4 0.46820959E-03 0.12500454E+03</pdfrwt>
<pdfrwt beam="1">  1       -4 0.19748064E+00 0.12500454E+03</pdfrwt>
<totfact> 0.22543156E+03</totfact>
</mgrwt>
</event>
<event>
 5    1  0.3316206E-002  0.1250022E+03  0.7818608E-02  0.1235066E+00
         -4   -1    0    0    0  501 -0.00000000000E+00  0.00000000000E+00  0.19324620793E+01  0.23124250664E+01  0.12700000000E+01 0. -1.
          4   -1    0    0  501    0  0.00000000000E+00 -0.00000000000E+00 -0.18401342774E+04  0.18401347156E+04  0.12700000000E+01 0. -1.
         25    2    1    2    0    0  0.00000000000E+00  0.00000000000E+00 -0.18382018153E+04  0.18424471407E+04  0.12500221001E+03 0.  0.
    9000005    1    3    3    0    0  0.14603283506E+02 -0.53199480276E+02 -0.48637015318E+03  0.48948990439E+03  0.10000000000E+01 0.  0.
    9000005    1    3    3    0    0 -0.14603283506E+02  0.53199480276E+02 -0.13518316621E+04  0.13529572363E+04  0.10000000000E+01 0.  0.
<mgrwt>
<rscale>  0 0.12500221E+03</rscale>
<asrwt>0</asrwt>
<pdfrwt beam="2">  1        4 0.28312557E+00 0.12500221E+03</pdfrwt>
<pdfrwt beam="1">  1       -4 0.32656497E-03 0.12500221E+03</pdfrwt>
<totfact> 0.12060344E+03</totfact>
</mgrwt>
</event>
<event>
 5    1  0.3316206E-002  0.1249988E+03  0.7818608E-02  0.1235071E+00
          4   -1    0    0  501    0  0.00000000000E+00  0.00000000000E+00  0.13574019633E+04  0.13574025574E+04  0.12700000000E+01 0. -1.
         -4   -1    0    0    0  501 -0.00000000000E+00 -0.00000000000E+00 -0.27369412392E+01  0.30172416785E+01  0.12700000000E+01 0. -1.
         25    2    1    2    0    0  0.00000000000E+00  0.00000000000E+00  0.13546650221E+04  0.13604197991E+04  0.12499883105E+03 0.  0.
    9000005    1    3    3    0    0 -0.30684988822E+02 -0.42611925863E+02  0.30860444999E+03  0.31304161276E+03  0.10000000000E+01 0.  0.
    9000005    1    3    3    0    0  0.30684988822E+02  0.42611925863E+02  0.10460605721E+04  0.10473781863E+04  0.10000000000E+01 0.  0.
<mgrwt>
<rscale>  0 0.12499883E+03</rscale>
<asrwt>0</asrwt>
<pdfrwt beam="1">  1        4 0.20885274E+00 0.12499883E+03</pdfrwt>
<pdfrwt beam="2">  1       -4 0.44267502E-03 0.12499883E+03</pdfrwt>
<totfact> 0.20846265E+03</totfact>
</mgrwt>
</event>
<event>
 5    1  0.3316206E-002  0.1250099E+03  0.7818608E-02  0.1235054E+00
         -4   -1    0    0    0  501 -0.00000000000E+00  0.00000000000E+00  0.29198040232E+03  0.29198316431E+03  0.12700000000E+01 0. -1.
          4   -1    0    0  501    0  0.00000000000E+00 -0.00000000000E+00 -0.13347624164E+02  0.13407907026E+02  0.12700000000E+01 0. -1.
         25    2    1    2    0    0  0.00000000000E+00  0.00000000000E+00  0.27863277816E+03  0.30539107133E+03  0.12500992516E+03 0.  0.
    9000005    1    3    3    0    0 -0.27345295957E+02  0.39851741606E+02  0.42521172232E+02  0.64381492745E+02  0.10000000000E+01 0.  0.
    9000005    1    3    3    0    0  0.27345295957E+02 -0.39851741606E+02  0.23611160592E+03  0.24100957859E+03  0.10000000000E+01 0.  0.
<mgrwt>
<rscale>  0 0.12500993E+03</rscale>
<asrwt>0</asrwt>
<pdfrwt beam="2">  1        4 0.20583304E-02 0.12500993E+03</pdfrwt>
<pdfrwt beam="1">  1       -4 0.44924908E-01 0.12500993E+03</pdfrwt>
<totfact> 0.74911031E+03</totfact>
</mgrwt>
</event>
<event>
 5    1  0.3316206E-002  0.1250081E+03  0.7818608E-02  0.1235057E+00
          4   -1    0    0  501    0  0.00000000000E+00  0.00000000000E+00  0.33248895512E+02  0.33273141613E+02  0.12700000000E+01 0.  1.
         -4   -1    0    0    0  501 -0.00000000000E+00 -0.00000000000E+00 -0.11742986267E+03  0.11743672997E+03  0.12700000000E+01 0.  1.
         25    2    1    2    0    0  0.00000000000E+00  0.00000000000E+00 -0.84180967157E+02  0.15070987158E+03  0.12500812038E+03 0.  0.
    9000005    1    3    3    0    0 -0.38431224091E+02  0.46334060910E+02 -0.21846680327E+02  0.64047495087E+02  0.10000000000E+01 0.  0.
    9000005    1    3    3    0    0  0.38431224091E+02 -0.46334060910E+02 -0.62334286830E+02  0.86662376498E+02  0.10000000000E+01 0.  0.
<mgrwt>
<rscale>  0 0.12500812E+03</rscale>
<asrwt>0</asrwt>
<pdfrwt beam="1">  1        4 0.51176081E-02 0.12500812E+03</pdfrwt>
<pdfrwt beam="2">  1       -4 0.18068526E-01 0.12500812E+03</pdfrwt>
<totfact> 0.99144265E+03</totfact>
</mgrwt>
</event>
<event>
 5    1  0.3316206E-002  0.1250015E+03  0.7818608E-02  0.1235067E+00
          4   -1    0    0  501    0  0.00000000000E+00  0.00000000000E+00  0.23502934732E+03  0.23503277857E+03  0.12700000000E+01 0. -1.
         -4   -1    0    0    0  501 -0.00000000000E+00 -0.00000000000E+00 -0.16592853856E+02  0.16641385131E+02  0.12700000000E+01 0. -1.
         25    2    1    2    0    0  0.00000000000E+00  0.00000000000E+00  0.21843649346E+03  0.25167416370E+03  0.12500153198E+03 0.  0.
    9000005    1    3    3    0    0  0.38759357553E+00 -0.16198788055E+02  0.23073625753E+03  0.23130666117E+03  0.10000000000E+01 0.  0.
    9000005    1    3    3    0    0 -0.38759357553E+00  0.16198788055E+02 -0.12299764065E+02  0.20367502529E+02  0.10000000000E+01 0.  0.
<mgrwt>
<rscale>  0 0.12500153E+03</rscale>
<asrwt>0</asrwt>
<pdfrwt beam="1">  1        4 0.36162354E-01 0.12500153E+03</pdfrwt>
<pdfrwt beam="2">  1       -4 0.25567441E-02 0.12500153E+03</pdfrwt>
<totfact> 0.82086061E+03</totfact>
</mgrwt>
</event>
<event>
 5    1  0.3316206E-002  0.1250002E+03  0.7818608E-02  0.1235069E+00
          4   -1    0    0  501    0  0.00000000000E+00  0.00000000000E+00  0.59337820655E+02  0.59351409925E+02  0.12700000000E+01 0.  1.
         -4   -1    0    0    0  501 -0.00000000000E+00 -0.00000000000E+00 -0.65803627863E+02  0.65815882125E+02  0.12700000000E+01 0.  1.
         25    2    1    2    0    0  0.00000000000E+00  0.00000000000E+00 -0.64658072079E+01  0.12516729205E+03  0.12500017735E+03 0.  0.
    9000005    1    3    3    0    0 -0.39809426355E+02 -0.42444349944E+02  0.19577978047E+02  0.61405296949E+02  0.10000000000E+01 0.  0.
    9000005    1    3    3    0    0  0.39809426355E+02  0.42444349944E+02 -0.26043785255E+02  0.63761995102E+02  0.10000000000E+01 0.  0.
<mgrwt>
<rscale>  0 0.12500018E+03</rscale>
<asrwt>0</asrwt>
<pdfrwt beam="1">  1        4 0.91308834E-02 0.12500018E+03</pdfrwt>
<pdfrwt beam="2">  1       -4 0.10125623E-01 0.12500018E+03</pdfrwt>
<totfact> 0.10449188E+04</totfact>
</mgrwt>
</event>
<event>
 5    1  0.3316206E-002  0.1249983E+03  0.7818608E-02  0.1235072E+00
         -4   -1    0    0    0  501 -0.00000000000E+00  0.00000000000E+00  0.20627865354E+02  0.20666923551E+02  0.12700000000E+01 0. -1.
          4   -1    0    0  501    0  0.00000000000E+00 -0.00000000000E+00 -0.18914203343E+03  0.18914629711E+03  0.12700000000E+01 0. -1.
         25    2    1    2    0    0  0.00000000000E+00  0.00000000000E+00 -0.16851416807E+03  0.20981322066E+03  0.12499825087E+03 0.  0.
    9000005    1    3    3    0    0 -0.53313136774E+02  0.32219952426E+02 -0.75910759878E+02  0.98203153475E+02  0.10000000000E+01 0.  0.
    9000005    1    3    3    0    0  0.53313136774E+02 -0.32219952426E+02 -0.92603408196E+02  0.11161006718E+03  0.10000000000E+01 0.  0.
<mgrwt>
<rscale>  0 0.12499825E+03</rscale>
<asrwt>0</asrwt>
<pdfrwt beam="2">  1        4 0.29102106E-01 0.12499825E+03</pdfrwt>
<pdfrwt beam="1">  1       -4 0.31768503E-02 0.12499825E+03</pdfrwt>
<totfact> 0.88509855E+03</totfact>
</mgrwt>
</event>
<event>
 5    1  0.3316206E-002  0.1250123E+03  0.7818608E-02  0.1235050E+00
         -4   -1    0    0    0  501 -0.00000000000E+00  0.00000000000E+00  0.39650230950E+02  0.39670564836E+02  0.12700000000E+01 0.  1.
          4   -1    0    0  501    0  0.00000000000E+00 -0.00000000000E+00 -0.98487450183E+02  0.98495638195E+02  0.12700000000E+01 0.  1.
         25    2    1    2    0    0  0.00000000000E+00  0.00000000000E+00 -0.58837219233E+02  0.13816620303E+03  0.12501232456E+03 0.  0.
    9000005    1    3    3    0    0  0.92809191468E+01  0.70754747768E+01  0.38440701142E+02  0.40185635590E+02  0.10000000000E+01 0.  0.
    9000005    1    3    3    0    0 -0.92809191468E+01 -0.70754747768E+01 -0.97277920375E+02  0.97980567441E+02  0.10000000000E+01 0.  0.
<mgrwt>
<rscale>  0 0.12501232E+03</rscale>
<asrwt>0</asrwt>
<pdfrwt beam="2">  1        4 0.15154109E-01 0.12501232E+03</pdfrwt>
<pdfrwt beam="1">  1       -4 0.61022295E-02 0.12501232E+03</pdfrwt>
<totfact> 0.10168910E+04</totfact>
</mgrwt>
</event>
<event>
 5    1  0.3316206E-002  0.1250086E+03  0.7818608E-02  0.1235056E+00
          4   -1    0    0  501    0  0.00000000000E+00  0.00000000000E+00  0.32271037474E+02  0.32296017705E+02  0.12700000000E+01 0. -1.
         -4   -1    0    0    0  501 -0.00000000000E+00 -0.00000000000E+00 -0.12098661055E+03  0.12099327598E+03  0.12700000000E+01 0. -1.
         25    2    1    2    0    0  0.00000000000E+00  0.00000000000E+00 -0.88715573079E+02  0.15328929369E+03  0.12500861831E+03 0.  0.
    9000005    1    3    3    0    0 -0.29673772107E+02  0.31467845761E+02 -0.99674623565E+02  0.10865904772E+03  0.10000000000E+01 0.  0.
    9000005    1    3    3    0    0  0.29673772107E+02 -0.31467845761E+02  0.10959050486E+02  0.44630245971E+02  0.10000000000E+01 0.  0.
<mgrwt>
<rscale>  0 0.12500862E+03</rscale>
<asrwt>0</asrwt>
<pdfrwt beam="1">  1        4 0.49672093E-02 0.12500862E+03</pdfrwt>
<pdfrwt beam="2">  1       -4 0.18615759E-01 0.12500862E+03</pdfrwt>
<totfact> 0.98632897E+03</totfact>
</mgrwt>
</event>
<event>
 5    1  0.3316206E-002  0.1250018E+03  0.7818608E-02  0.1235066E+00
         -4   -1    0    0    0  501 -0.00000000000E+00  0.00000000000E+00  0.16658924817E+03  0.16659408905E+03  0.12700000000E+01 0.  1.
          4   -1    0    0  501    0  0.00000000000E+00 -0.00000000000E+00 -0.23426699482E+02  0.23461098624E+02  0.12700000000E+01 0.  1.
         25    2    1    2    0    0  0.00000000000E+00  0.00000000000E+00  0.14316254869E+03  0.19005518767E+03  0.12500183604E+03 0.  0.
    9000005    1    3    3    0    0 -0.46565030340E+01  0.61719807201E+02  0.84691055646E+02  0.10490277655E+03  0.10000000000E+01 0.  0.
    9000005    1    3    3    0    0  0.46565030340E+01 -0.61719807201E+02  0.58471493044E+02  0.85152411124E+02  0.10000000000E+01 0.  0.
<mgrwt>
<rscale>  0 0.12500184E+03</rscale>
<asrwt>0</asrwt>
<pdfrwt beam="2">  1        4 0.36071261E-02 0.12500184E+03</pdfrwt>
<pdfrwt beam="1">  1       -4 0.25632133E-01 0.12500184E+03</pdfrwt>
<totfact> 0.91833936E+03</totfact>
</mgrwt>
</event>
<event>
 5    1  0.3316206E-002  0.1250023E+03  0.7818608E-02  0.1235066E+00
          4   -1    0    0  501    0  0.00000000000E+00  0.00000000000E+00  0.26074546732E+02  0.26105457041E+02  0.12700000000E+01 0.  1.
         -4   -1    0    0    0  501 -0.00000000000E+00 -0.00000000000E+00 -0.14969402109E+03  0.14969940831E+03  0.12700000000E+01 0.  1.
         25    2    1    2    0    0  0.00000000000E+00  0.00000000000E+00 -0.12361947436E+03  0.17580486536E+03  0.12500230495E+03 0.  0.
    9000005    1    3    3    0    0 -0.49675073774E+02  0.37662422893E+02 -0.67992039451E+02  0.92249598814E+02  0.10000000000E+01 0.  0.
    9000005    1    3    3    0    0  0.49675073774E+02 -0.37662422893E+02 -0.55627434906E+02  0.83555266541E+02  0.10000000000E+01 0.  0.
<mgrwt>
<rscale>  0 0.12500230E+03</rscale>
<asrwt>0</asrwt>
<pdfrwt beam="1">  1        4 0.40142609E-02 0.12500230E+03</pdfrwt>
<pdfrwt beam="2">  1       -4 0.23032641E-01 0.12500230E+03</pdfrwt>
<totfact> 0.94372758E+03</totfact>
</mgrwt>
</event>
<event>
 5    1  0.3316206E-002  0.1250020E+03  0.7818608E-02  0.1235066E+00
          4   -1    0    0  501    0  0.00000000000E+00  0.00000000000E+00  0.14534421539E+03  0.14534976384E+03  0.12700000000E+01 0.  1.
         -4   -1    0    0    0  501 -0.00000000000E+00 -0.00000000000E+00 -0.26855667960E+02  0.26885680233E+02  0.12700000000E+01 0.  1.
         25    2    1    2    0    0  0.00000000000E+00  0.00000000000E+00  0.11848854743E+03  0.17223544407E+03  0.12500204927E+03 0.  0.
    9000005    1    3    3    0    0  0.36085380893E+02  0.60597487641E+01 -0.10559076710E+02  0.38096841999E+02  0.10000000000E+01 0.  0.
    9000005    1    3    3    0    0 -0.36085380893E+02 -0.60597487641E+01  0.12904762414E+03  0.13413860207E+03  0.10000000000E+01 0.  0.
<mgrwt>
<rscale>  0 0.12500205E+03</rscale>
<asrwt>0</asrwt>
<pdfrwt beam="1">  1        4 0.22363383E-01 0.12500205E+03</pdfrwt>
<pdfrwt beam="2">  1       -4 0.41343768E-02 0.12500205E+03</pdfrwt>
<totfact> 0.95029245E+03</totfact>
</mgrwt>
</event>
<event>
 5    1  0.3316206E-002  0.1250028E+03  0.7818608E-02  0.1235065E+00
          4   -1    0    0  501    0  0.00000000000E+00  0.00000000000E+00  0.15861820622E+04  0.15861825706E+04  0.12700000000E+01 0.  1.
         -4   -1    0    0    0  501 -0.00000000000E+00 -0.00000000000E+00 -0.22985129795E+01  0.26260353991E+01  0.12700000000E+01 0.  1.
         25    2    1    2    0    0  0.00000000000E+00  0.00000000000E+00  0.15838835492E+04  0.15888086060E+04  0.12500275627E+03 0.  0.
    9000005    1    3    3    0    0  0.36376098529E+02  0.45085549956E+02  0.49399833217E+03  0.49738443838E+03  0.10000000000E+01 0.  0.
    9000005    1    3    3    0    0 -0.36376098529E+02 -0.45085549956E+02  0.10898852171E+04  0.10914241676E+04  0.10000000000E+01 0.  0.
<mgrwt>
<rscale>  0 0.12500276E+03</rscale>
<asrwt>0</asrwt>
<pdfrwt beam="1">  1        4 0.24405307E+00 0.12500276E+03</pdfrwt>
<pdfrwt beam="2">  1       -4 0.37885079E-03 0.12500276E+03</pdfrwt>
<totfact> 0.16248217E+03</totfact>
</mgrwt>
</event>
<event>
 5    1  0.3316206E-002  0.1250008E+03  0.7818608E-02  0.1235068E+00
          4   -1    0    0  501    0  0.00000000000E+00  0.00000000000E+00  0.49425147096E+03  0.49425310262E+03  0.12700000000E+01 0. -1.
         -4   -1    0    0    0  501 -0.00000000000E+00 -0.00000000000E+00 -0.78507952537E+01  0.79528539604E+01  0.12700000000E+01 0. -1.
         25    2    1    2    0    0  0.00000000000E+00  0.00000000000E+00  0.48640067570E+03  0.50220595658E+03  0.12500082197E+03 0.  0.
    9000005    1    3    3    0    0 -0.13548652833E+02 -0.30117521473E+02  0.45634907034E+03  0.45754355540E+03  0.10000000000E+01 0.  0.
    9000005    1    3    3    0    0  0.13548652833E+02  0.30117521473E+02  0.30051605366E+02  0.44662401171E+02  0.10000000000E+01 0.  0.
<mgrwt>
<rscale>  0 0.12500082E+03</rscale>
<asrwt>0</asrwt>
<pdfrwt beam="1">  1        4 0.76046670E-01 0.12500082E+03</pdfrwt>
<pdfrwt beam="2">  1       -4 0.12157907E-02 0.12500082E+03</pdfrwt>
<totfact> 0.55692606E+03</totfact>
</mgrwt>
</event>
<event>
 5    1  0.3316206E-002  0.1249989E+03  0.7818608E-02  0.1235071E+00
          4   -1    0    0  501    0  0.00000000000E+00  0.00000000000E+00  0.20831666876E+03  0.20832053999E+03  0.12700000000E+01 0. -1.
         -4   -1    0    0    0  501 -0.00000000000E+00 -0.00000000000E+00 -0.18725601233E+02  0.18768618531E+02  0.12700000000E+01 0. -1.
         25    2    1    2    0    0  0.00000000000E+00  0.00000000000E+00  0.18959106753E+03  0.22708915852E+03  0.12499885213E+03 0.  0.
    9000005    1    3    3    0    0 -0.33152866068E+02 -0.64174234119E+01  0.19032309898E+03  0.19329815792E+03  0.10000000000E+01 0.  0.
    9000005    1    3    3    0    0  0.33152866068E+02  0.64174234119E+01 -0.73203144930E+00  0.33791000604E+02  0.10000000000E+01 0.  0.
<mgrwt>
<rscale>  0 0.12499885E+03</rscale>
<asrwt>0</asrwt>
<pdfrwt beam="1">  1        4 0.32052324E-01 0.12499885E+03</pdfrwt>
<pdfrwt beam="2">  1       -4 0.28844686E-02 0.12499885E+03</pdfrwt>
<totfact> 0.85760769E+03</totfact>
</mgrwt>
</event>
<event>
 5    1  0.3316206E-002  0.1250012E+03  0.7818608E-02  0.1235067E+00
          4   -1    0    0  501    0  0.00000000000E+00  0.00000000000E+00  0.72910682205E+02  0.72921742160E+02  0.12700000000E+01 0.  1.
         -4   -1    0    0    0  501 -0.00000000000E+00 -0.00000000000E+00 -0.53554207481E+02  0.53569263938E+02  0.12700000000E+01 0.  1.
         25    2    1    2    0    0  0.00000000000E+00  0.00000000000E+00  0.19356474725E+02  0.12649100610E+03  0.12500120603E+03 0.  0.
    9000005    1    3    3    0    0  0.61042266270E+02  0.35287592265E+01 -0.33874642526E+01  0.61246104587E+02  0.10000000000E+01 0.  0.
    9000005    1    3    3    0    0 -0.61042266270E+02 -0.35287592265E+01  0.22743938977E+02  0.65244901511E+02  0.10000000000E+01 0.  0.
<mgrwt>
<rscale>  0 0.12500121E+03</rscale>
<asrwt>0</asrwt>
<pdfrwt beam="1">  1        4 0.11219037E-01 0.12500121E+03</pdfrwt>
<pdfrwt beam="2">  1       -4 0.82411178E-02 0.12500121E+03</pdfrwt>
<totfact> 0.10419941E+04</totfact>
</mgrwt>
</event>
<event>
 5    1  0.3316206E-002  0.1249981E+03  0.7818608E-02  0.1235072E+00
          4   -1    0    0  501    0  0.00000000000E+00  0.00000000000E+00  0.14856687907E+02  0.14910871053E+02  0.12700000000E+01 0.  1.
         -4   -1    0    0    0  501 -0.00000000000E+00 -0.00000000000E+00 -0.26238637798E+03  0.26238945148E+03  0.12700000000E+01 0.  1.
         25    2    1    2    0    0  0.00000000000E+00  0.00000000000E+00 -0.24752969007E+03  0.27730032253E+03  0.12499808563E+03 0.  0.
    9000005    1    3    3    0    0 -0.13694449056E+02 -0.47963921452E+02 -0.40254493133E+02  0.64105381314E+02  0.10000000000E+01 0.  0.
    9000005    1    3    3    0    0  0.13694449056E+02  0.47963921452E+02 -0.20727519694E+03  0.21319494122E+03  0.10000000000E+01 0.  0.
<mgrwt>
<rscale>  0 0.12499809E+03</rscale>
<asrwt>0</asrwt>
<pdfrwt beam="1">  1        4 0.22900488E-02 0.12499809E+03</pdfrwt>
<pdfrwt beam="2">  1       -4 0.40371536E-01 0.12499809E+03</pdfrwt>
<totfact> 0.78540774E+03</totfact>
</mgrwt>
</event>
<event>
 4    1  0.3316206E-002  0.1249302E+03  0.7818608E-02  0.1235178E+00
         -4   -1    0    0    0  501 -0.00000000000E+00  0.00000000000E+00  0.28581348349E+03  0.28581630507E+03  0.12700000000E+01 0.  1.
          4   -1    0    0  501    0  0.00000000000E+00 -0.00000000000E+00 -0.13619444654E+02  0.13678529624E+02  0.12700000000E+01 0.  1.
    9000005    1    1    2    0    0 -0.20237504591E+01  0.28074637665E+01 -0.13401165721E+02  0.13876911090E+02  0.10000000000E+01 0.  0.
    9000005    1    1    2    0    0  0.20237504591E+01 -0.28074637665E+01  0.28559520456E+03  0.28561792361E+03  0.10000000000E+01 0.  0.
<mgrwt>
<rscale>  0 0.12493023E+03</rscale>
<asrwt>0</asrwt>
<pdfrwt beam="2">  1        4 0.21000614E-02 0.12493023E+03</pdfrwt>
<pdfrwt beam="1">  1       -4 0.43976064E-01 0.12493023E+03</pdfrwt>
<totfact> 0.75779570E+03</totfact>
</mgrwt>
</event>
<event>
 5    1  0.3316206E-002  0.1249996E+03  0.7818608E-02  0.1235070E+00
         -4   -1    0    0    0  501 -0.00000000000E+00  0.00000000000E+00  0.93348854068E+01  0.94208802963E+01  0.12700000000E+01 0.  1.
          4   -1    0    0  501    0  0.00000000000E+00 -0.00000000000E+00 -0.41644885114E+03  0.41645078763E+03  0.12700000000E+01 0.  1.
         25    2    1    2    0    0  0.00000000000E+00  0.00000000000E+00 -0.40711396574E+03  0.42587166793E+03  0.12499958578E+03 0.  0.
    9000005    1    3    3    0    0 -0.78213292240E+01  0.22626626040E+02 -0.68914187159E+01  0.24932489821E+02  0.10000000000E+01 0.  0.
    9000005    1    3    3    0    0  0.78213292240E+01 -0.22626626040E+02 -0.40022254702E+03  0.40093917811E+03  0.10000000000E+01 0.  0.
<mgrwt>
<rscale>  0 0.12499959E+03</rscale>
<asrwt>0</asrwt>
<pdfrwt beam="2">  1        4 0.64075804E-01 0.12499959E+03</pdfrwt>
<pdfrwt beam="1">  1       -4 0.14429005E-02 0.12499959E+03</pdfrwt>
<totfact> 0.62112564E+03</totfact>
</mgrwt>
</event>
<event>
 5    1  0.3316206E-002  0.1249638E+03  0.7818608E-02  0.1235126E+00
         -4   -1    0    0    0  501 -0.00000000000E+00  0.00000000000E+00  0.33952043115E+02  0.33975787433E+02  0.12700000000E+01 0.  1.
          4   -1    0    0  501    0  0.00000000000E+00 -0.00000000000E+00 -0.11491798843E+03  0.11492500583E+03  0.12700000000E+01 0.  1.
         25    2    1    2    0    0  0.00000000000E+00  0.00000000000E+00 -0.80965945317E+02  0.14890079326E+03  0.12496384250E+03 0.  0.
    9000005    1    3    3    0    0  0.18028620818E+02 -0.43134808084E+01  0.30605336304E+02  0.35795584861E+02  0.10000000000E+01 0.  0.
    9000005    1    3    3    0    0 -0.18028620818E+02  0.43134808084E+01 -0.11157128162E+03  0.11310520840E+03  0.10000000000E+01 0.  0.
<mgrwt>
<rscale>  0 0.12496384E+03</rscale>
<asrwt>0</asrwt>
<pdfrwt beam="2">  1        4 0.17682057E-01 0.12496384E+03</pdfrwt>
<pdfrwt beam="1">  1       -4 0.52257576E-02 0.12496384E+03</pdfrwt>
<totfact> 0.99604301E+03</totfact>
</mgrwt>
</event>
<event>
 5    1  0.3316206E-002  0.1249912E+03  0.7818608E-02  0.1235083E+00
         -4   -1    0    0    0  501 -0.00000000000E+00  0.00000000000E+00  0.35999512688E+03  0.35999736705E+03  0.12700000000E+01 0.  1.
          4   -1    0    0  501    0  0.00000000000E+00 -0.00000000000E+00 -0.10809859479E+02  0.10884206997E+02  0.12700000000E+01 0.  1.
         25    2    1    2    0    0  0.00000000000E+00  0.00000000000E+00  0.34918526740E+03  0.37088157404E+03  0.12499116366E+03 0.  0.
    9000005    1    3    3    0    0  0.35039258913E+02 -0.49298476885E+02  0.12799544073E+03  0.14156949649E+03  0.10000000000E+01 0.  0.
    9000005    1    3    3    0    0 -0.35039258913E+02  0.49298476885E+02  0.22118982667E+03  0.22931207755E+03  0.10000000000E+01 0.  0.
<mgrwt>
<rscale>  0 0.12499116E+03</rscale>
<asrwt>0</asrwt>
<pdfrwt beam="2">  1        4 0.16689469E-02 0.12499116E+03</pdfrwt>
<pdfrwt beam="1">  1       -4 0.55389749E-01 0.12499116E+03</pdfrwt>
<totfact> 0.67499997E+03</totfact>
</mgrwt>
</event>
<event>
 5    1  0.3316206E-002  0.1249993E+03  0.7818608E-02  0.1235070E+00
          4   -1    0    0  501    0  0.00000000000E+00  0.00000000000E+00  0.24726307110E+02  0.24758900688E+02  0.12700000000E+01 0. -1.
         -4   -1    0    0    0  501 -0.00000000000E+00 -0.00000000000E+00 -0.15783861663E+03  0.15784372588E+03  0.12700000000E+01 0. -1.
         25    2    1    2    0    0  0.00000000000E+00  0.00000000000E+00 -0.13311230952E+03  0.18260262657E+03  0.12499932913E+03 0.  0.
    9000005    1    3    3    0    0 -0.58641261523E+02 -0.87985575897E+01 -0.95368051607E+02  0.11230439633E+03  0.10000000000E+01 0.  0.
    9000005    1    3    3    0    0  0.58641261523E+02  0.87985575897E+01 -0.37744257915E+02  0.70298230235E+02  0.10000000000E+01 0.  0.
<mgrwt>
<rscale>  0 0.12499933E+03</rscale>
<asrwt>0</asrwt>
<pdfrwt beam="1">  1        4 0.38069476E-02 0.12499933E+03</pdfrwt>
<pdfrwt beam="2">  1       -4 0.24285764E-01 0.12499933E+03</pdfrwt>
<totfact> 0.93152010E+03</totfact>
</mgrwt>
</event>
<event>
 5    1  0.3316206E-002  0.1249983E+03  0.7818608E-02  0.1235072E+00
         -4   -1    0    0    0  501 -0.00000000000E+00  0.00000000000E+00  0.19288816741E+03  0.19289234829E+03  0.12700000000E+01 0. -1.
          4   -1    0    0  501    0  0.00000000000E+00 -0.00000000000E+00 -0.20226489533E+02  0.20266321294E+02  0.12700000000E+01 0. -1.
         25    2    1    2    0    0  0.00000000000E+00  0.00000000000E+00  0.17266167788E+03  0.21315866958E+03  0.12499825363E+03 0.  0.
    9000005    1    3    3    0    0  0.80728336756E+01 -0.56522958262E+02  0.43017553694E+02  0.71494932548E+02  0.10000000000E+01 0.  0.
    9000005    1    3    3    0    0 -0.80728336756E+01  0.56522958262E+02  0.12964412419E+03  0.14166373703E+03  0.10000000000E+01 0.  0.
<mgrwt>
<rscale>  0 0.12499825E+03</rscale>
<asrwt>0</asrwt>
<pdfrwt beam="2">  1        4 0.31151532E-02 0.12499825E+03</pdfrwt>
<pdfrwt beam="1">  1       -4 0.29678489E-01 0.12499825E+03</pdfrwt>
<totfact> 0.87966045E+03</totfact>
</mgrwt>
</event>
<event>
 5    1  0.3316206E-002  0.1249988E+03  0.7818608E-02  0.1235071E+00
         -4   -1    0    0    0  501 -0.00000000000E+00  0.00000000000E+00  0.52611040881E+01  0.54122191591E+01  0.12700000000E+01 0.  1.
          4   -1    0    0  501    0  0.00000000000E+00 -0.00000000000E+00 -0.73179925488E+03  0.73180035689E+03  0.12700000000E+01 0.  1.
         25    2    1    2    0    0  0.00000000000E+00  0.00000000000E+00 -0.72653815079E+03  0.73721257605E+03  0.12499879090E+03 0.  0.
    9000005    1    3    3    0    0  0.10180345423E+02  0.56621649015E+02 -0.21934398633E+03  0.22676515365E+03  0.10000000000E+01 0.  0.
    9000005    1    3    3    0    0 -0.10180345423E+02 -0.56621649015E+02 -0.50719416446E+03  0.51044742239E+03  0.10000000000E+01 0.  0.
<mgrwt>
<rscale>  0 0.12499879E+03</rscale>
<asrwt>0</asrwt>
<pdfrwt beam="2">  1        4 0.11259613E+00 0.12499879E+03</pdfrwt>
<pdfrwt beam="1">  1       -4 0.82111021E-03 0.12499879E+03</pdfrwt>
<totfact> 0.41194469E+03</totfact>
</mgrwt>
</event>
<event>
 5    1  0.3316206E-002  0.1249883E+03  0.7818608E-02  0.1235088E+00
         -4   -1    0    0    0  501 -0.00000000000E+00  0.00000000000E+00  0.23116571674E+03  0.23116920534E+03  0.12700000000E+01 0.  1.
          4   -1    0    0  501    0  0.00000000000E+00 -0.00000000000E+00 -0.16867390831E+02  0.16915134450E+02  0.12700000000E+01 0.  1.
         25    2    1    2    0    0  0.00000000000E+00  0.00000000000E+00  0.21429832591E+03  0.24808433978E+03  0.12498826809E+03 0.  0.
    9000005    1    3    3    0    0  0.55595252607E+02 -0.28102853390E+02  0.97442744337E+02  0.11565764525E+03  0.10000000000E+01 0.  0.
    9000005    1    3    3    0    0 -0.55595252607E+02  0.28102853390E+02  0.11685558157E+03  0.13242669453E+03  0.10000000000E+01 0.  0.
<mgrwt>
<rscale>  0 0.12498827E+03</rscale>
<asrwt>0</asrwt>
<pdfrwt beam="2">  1        4 0.25989243E-02 0.12498827E+03</pdfrwt>
<pdfrwt beam="1">  1       -4 0.35567895E-01 0.12498827E+03</pdfrwt>
<totfact> 0.82629488E+03</totfact>
</mgrwt>
</event>
<event>
 5    1  0.3316206E-002  0.1249969E+03  0.7818608E-02  0.1235074E+00
          4   -1    0    0  501    0  0.00000000000E+00  0.00000000000E+00  0.10394789790E+03  0.10395565582E+03  0.12700000000E+01 0. -1.
         -4   -1    0    0    0  501 -0.00000000000E+00 -0.00000000000E+00 -0.37557190404E+02  0.37578656855E+02  0.12700000000E+01 0. -1.
         25    2    1    2    0    0  0.00000000000E+00  0.00000000000E+00  0.66390707492E+02  0.14153431268E+03  0.12499694246E+03 0.  0.
    9000005    1    3    3    0    0 -0.19404926872E+02 -0.56009826156E+02  0.55596832933E+02  0.81275209290E+02  0.10000000000E+01 0.  0.
    9000005    1    3    3    0    0  0.19404926872E+02  0.56009826156E+02  0.10793874559E+02  0.60259103386E+02  0.10000000000E+01 0.  0.
<mgrwt>
<rscale>  0 0.12499694E+03</rscale>
<asrwt>0</asrwt>
<pdfrwt beam="1">  1        4 0.15994232E-01 0.12499694E+03</pdfrwt>
<pdfrwt beam="2">  1       -4 0.57802775E-02 0.12499694E+03</pdfrwt>
<totfact> 0.10102581E+04</totfact>
</mgrwt>
</event>
<event>
 5    1  0.3316206E-002  0.1250001E+03  0.7818608E-02  0.1235069E+00
         -4   -1    0    0    0  501 -0.00000000000E+00  0.00000000000E+00  0.80942554441E+01  0.81932820770E+01  0.12700000000E+01 0. -1.
          4   -1    0    0  501    0  0.00000000000E+00 -0.00000000000E+00 -0.47956222819E+03  0.47956390982E+03  0.12700000000E+01 0. -1.
         25    2    1    2    0    0  0.00000000000E+00  0.00000000000E+00 -0.47146797274E+03  0.48775719190E+03  0.12500011571E+03 0.  0.
    9000005    1    3    3    0    0 -0.97759991788E+01  0.30993082917E+02 -0.44401434826E+03  0.44520319272E+03  0.10000000000E+01 0.  0.
    9000005    1    3    3    0    0  0.97759991788E+01 -0.30993082917E+02 -0.27453624480E+02  0.42553999174E+02  0.10000000000E+01 0.  0.
<mgrwt>
<rscale>  0 0.12500012E+03</rscale>
<asrwt>0</asrwt>
<pdfrwt beam="2">  1        4 0.73786529E-01 0.12500012E+03</pdfrwt>
<pdfrwt beam="1">  1       -4 0.12530172E-02 0.12500012E+03</pdfrwt>
<totfact> 0.56826794E+03</totfact>
</mgrwt>
</event>
<event>
 5    1  0.3316206E-002  0.1249990E+03  0.7818608E-02  0.1235071E+00
         -4   -1    0    0    0  501 -0.00000000000E+00  0.00000000000E+00  0.98460734555E+01  0.99276413358E+01  0.12700000000E+01 0. -1.
          4   -1    0    0  501    0  0.00000000000E+00 -0.00000000000E+00 -0.39500628745E+03  0.39500832906E+03  0.12700000000E+01 0. -1.
         25    2    1    2    0    0  0.00000000000E+00  0.00000000000E+00 -0.38516021399E+03  0.40493597039E+03  0.12499899869E+03 0.  0.
    9000005    1    3    3    0    0 -0.61897809828E+02 -0.78326175577E+01 -0.18112731068E+03  0.19157450622E+03  0.10000000000E+01 0.  0.
    9000005    1    3    3    0    0  0.61897809828E+02  0.78326175577E+01 -0.20403290331E+03  0.21336146417E+03  0.10000000000E+01 0.  0.
<mgrwt>
<rscale>  0 0.12499900E+03</rscale>
<asrwt>0</asrwt>
<pdfrwt beam="2">  1        4 0.60776617E-01 0.12499900E+03</pdfrwt>
<pdfrwt beam="1">  1       -4 0.15212123E-02 0.12499900E+03</pdfrwt>
<totfact> 0.64076959E+03</totfact>
</mgrwt>
</event>
<event>
 4    1  0.3316206E-002  0.1251138E+03  0.7818608E-02  0.1234891E+00
          4   -1    0    0  501    0  0.00000000000E+00  0.00000000000E+00  0.17279977996E+03  0.17280444686E+03  0.12700000000E+01 0. -1.
         -4   -1    0    0    0  501 -0.00000000000E+00 -0.00000000000E+00 -0.22624051355E+02  0.22659669011E+02  0.12700000000E+01 0. -1.
    9000005    1    1    2    0    0  0.14341307742E+02  0.56960841136E+02  0.10867373389E+03  0.12353619295E+03  0.10000000000E+01 0.  0.
    9000005    1    1    2    0    0 -0.14341307742E+02 -0.56960841136E+02  0.41501994720E+02  0.71927922926E+02  0.10000000000E+01 0.  0.
<mgrwt>
<rscale>  0 0.12511383E+03</rscale>
<asrwt>0</asrwt>
<pdfrwt beam="1">  1        4 0.26587680E-01 0.12511383E+03</pdfrwt>
<pdfrwt beam="2">  1       -4 0.34837221E-02 0.12511383E+03</pdfrwt>
<totfact> 0.90673889E+03</totfact>
</mgrwt>
</event>
<event>
 5    1  0.3316206E-002  0.1249918E+03  0.7818608E-02  0.1235082E+00
          4   -1    0    0  501    0  0.00000000000E+00  0.00000000000E+00  0.25846700918E+03  0.25847012928E+03  0.12700000000E+01 0.  1.
         -4   -1    0    0    0  501 -0.00000000000E+00 -0.00000000000E+00 -0.15081272421E+02  0.15134651560E+02  0.12700000000E+01 0.  1.
         25    2    1    2    0    0  0.00000000000E+00  0.00000000000E+00  0.24338573675E+03  0.27360478084E+03  0.12499183672E+03 0.  0.
    9000005    1    3    3    0    0 -0.14396947807E+02  0.52313146394E+02  0.53841427310E+02  0.76444991246E+02  0.10000000000E+01 0.  0.
    9000005    1    3    3    0    0  0.14396947807E+02 -0.52313146394E+02  0.18954430944E+03  0.19715978960E+03  0.10000000000E+01 0.  0.
<mgrwt>
<rscale>  0 0.12499184E+03</rscale>
<asrwt>0</asrwt>
<pdfrwt beam="1">  1        4 0.39768501E-01 0.12499184E+03</pdfrwt>
<pdfrwt beam="2">  1       -4 0.23245419E-02 0.12499184E+03</pdfrwt>
<totfact> 0.79048126E+03</totfact>
</mgrwt>
</event>
<event>
 5    1  0.3316206E-002  0.1249899E+03  0.7818608E-02  0.1235085E+00
         -4   -1    0    0    0  501 -0.00000000000E+00  0.00000000000E+00  0.66057129725E+02  0.66069336969E+02  0.12700000000E+01 0. -1.
          4   -1    0    0  501    0  0.00000000000E+00 -0.00000000000E+00 -0.59100411044E+02  0.59114054890E+02  0.12700000000E+01 0. -1.
         25    2    1    2    0    0  0.00000000000E+00  0.00000000000E+00  0.69567186811E+01  0.12518339186E+03  0.12498994225E+03 0.  0.
    9000005    1    3    3    0    0 -0.40928289041E+02 -0.26989179327E+02  0.42282107569E+02  0.64748106266E+02  0.10000000000E+01 0.  0.
    9000005    1    3    3    0    0  0.40928289041E+02  0.26989179327E+02 -0.35325388888E+02  0.60435285593E+02  0.10000000000E+01 0.  0.
<mgrwt>
<rscale>  0 0.12498994E+03</rscale>
<asrwt>0</asrwt>
<pdfrwt beam="2">  1        4 0.90943595E-02 0.12498994E+03</pdfrwt>
<pdfrwt beam="1">  1       -4 0.10164624E-01 0.12498994E+03</pdfrwt>
<totfact> 0.10451256E+04</totfact>
</mgrwt>
</event>
<event>
 5    1  0.3316206E-002  0.1249990E+03  0.7818608E-02  0.1235071E+00
         -4   -1    0    0    0  501 -0.00000000000E+00  0.00000000000E+00  0.21440885354E+02  0.21478465140E+02  0.12700000000E+01 0. -1.
          4   -1    0    0  501    0  0.00000000000E+00 -0.00000000000E+00 -0.18198482744E+03  0.18198925880E+03  0.12700000000E+01 0. -1.
         25    2    1    2    0    0  0.00000000000E+00  0.00000000000E+00 -0.16054394209E+03  0.20346772394E+03  0.12499902938E+03 0.  0.
    9000005    1    3    3    0    0 -0.54626341190E+02  0.29158988623E+02 -0.93978549398E+02  0.11254888501E+03  0.10000000000E+01 0.  0.
    9000005    1    3    3    0    0  0.54626341190E+02 -0.29158988623E+02 -0.66565392692E+02  0.90918838937E+02  0.10000000000E+01 0.  0.
<mgrwt>
<rscale>  0 0.12499903E+03</rscale>
<asrwt>0</asrwt>
<pdfrwt beam="2">  1        4 0.28000896E-01 0.12499903E+03</pdfrwt>
<pdfrwt beam="1">  1       -4 0.33018295E-02 0.12499903E+03</pdfrwt>
<totfact> 0.89555869E+03</totfact>
</mgrwt>
</event>
<event>
 5    1  0.3316206E-002  0.1250009E+03  0.7818608E-02  0.1235068E+00
          4   -1    0    0  501    0  0.00000000000E+00  0.00000000000E+00  0.48995290761E+02  0.49011747743E+02  0.12700000000E+01 0.  1.
         -4   -1    0    0    0  501 -0.00000000000E+00 -0.00000000000E+00 -0.79693276253E+02  0.79703395034E+02  0.12700000000E+01 0.  1.
         25    2    1    2    0    0  0.00000000000E+00  0.00000000000E+00 -0.30697985492E+02  0.12871514278E+03  0.12500088666E+03 0.  0.
    9000005    1    3    3    0    0 -0.43019640241E+02 -0.32320183474E+02 -0.48074162174E+02  0.72162377837E+02  0.10000000000E+01 0.  0.
    9000005    1    3    3    0    0  0.43019640241E+02  0.32320183474E+02  0.17376176683E+02  0.56552764940E+02  0.10000000000E+01 0.  0.
<mgrwt>
<rscale>  0 0.12500089E+03</rscale>
<asrwt>0</asrwt>
<pdfrwt beam="1">  1        4 0.75397813E-02 0.12500089E+03</pdfrwt>
<pdfrwt beam="2">  1       -4 0.12262548E-01 0.12500089E+03</pdfrwt>
<totfact> 0.10371864E+04</totfact>
</mgrwt>
</event>
<event>
 5    1  0.3316206E-002  0.1249989E+03  0.7818608E-02  0.1235071E+00
          4   -1    0    0  501    0  0.00000000000E+00  0.00000000000E+00  0.59637930456E+01  0.60975181419E+01  0.12700000000E+01 0.  1.
         -4   -1    0    0    0  501 -0.00000000000E+00 -0.00000000000E+00 -0.64758678932E+03  0.64758803464E+03  0.12700000000E+01 0.  1.
         25    2    1    2    0    0  0.00000000000E+00  0.00000000000E+00 -0.64162299628E+03  0.65368555278E+03  0.12499893024E+03 0.  0.
    9000005    1    3    3    0    0  0.15316165380E+02 -0.54429552340E+02 -0.18166061017E+03  0.19025966040E+03  0.10000000000E+01 0.  0.
    9000005    1    3    3    0    0 -0.15316165380E+02  0.54429552340E+02 -0.45996238611E+03  0.46342589238E+03  0.10000000000E+01 0.  0.
<mgrwt>
<rscale>  0 0.12499893E+03</rscale>
<asrwt>0</asrwt>
<pdfrwt beam="1">  1        4 0.92788947E-03 0.12499893E+03</pdfrwt>
<pdfrwt beam="2">  1       -4 0.99639064E-01 0.12499893E+03</pdfrwt>
<totfact> 0.45646051E+03</totfact>
</mgrwt>
</event>
<event>
 5    1  0.3316206E-002  0.1250000E+03  0.7818608E-02  0.1235069E+00
          4   -1    0    0  501    0  0.00000000000E+00  0.00000000000E+00  0.56901676066E+01  0.58301721579E+01  0.12700000000E+01 0. -1.
         -4   -1    0    0    0  501 -0.00000000000E+00 -0.00000000000E+00 -0.67800740798E+03  0.67800859742E+03  0.12700000000E+01 0. -1.
         25    2    1    2    0    0  0.00000000000E+00  0.00000000000E+00 -0.67231724037E+03  0.68383876958E+03  0.12499996430E+03 0.  0.
    9000005    1    3    3    0    0 -0.57063984966E+02  0.44691192458E-01 -0.47552196962E+03  0.47893469698E+03  0.10000000000E+01 0.  0.
    9000005    1    3    3    0    0  0.57063984966E+02 -0.44691192458E-01 -0.19679527075E+03  0.20490407260E+03  0.10000000000E+01 0.  0.
<mgrwt>
<rscale>  0 0.12499996E+03</rscale>
<asrwt>0</asrwt>
<pdfrwt beam="1">  1        4 0.88627201E-03 0.12499996E+03</pdfrwt>
<pdfrwt beam="2">  1       -4 0.10431963E+00 0.12499996E+03</pdfrwt>
<totfact> 0.43953722E+03</totfact>
</mgrwt>
</event>
<event>
 5    1  0.3316206E-002  0.1249984E+03  0.7818608E-02  0.1235072E+00
         -4   -1    0    0    0  501 -0.00000000000E+00  0.00000000000E+00  0.67524931363E+03  0.67525050793E+03  0.12700000000E+01 0. -1.
          4   -1    0    0  501    0  0.00000000000E+00 -0.00000000000E+00 -0.57138355014E+01  0.58532739674E+01  0.12700000000E+01 0. -1.
         25    2    1    2    0    0  0.00000000000E+00  0.00000000000E+00  0.66953547813E+03  0.68110378190E+03  0.12499842095E+03 0.  0.
    9000005    1    3    3    0    0  0.58814183974E+02 -0.19207935620E+02  0.28692333854E+03  0.29352011043E+03  0.10000000000E+01 0.  0.
    9000005    1    3    3    0    0 -0.58814183974E+02  0.19207935620E+02  0.38261213959E+03  0.38758367147E+03  0.10000000000E+01 0.  0.
<mgrwt>
<rscale>  0 0.12499842E+03</rscale>
<asrwt>0</asrwt>
<pdfrwt beam="2">  1        4 0.88986947E-03 0.12499842E+03</pdfrwt>
<pdfrwt beam="1">  1       -4 0.10389533E+00 0.12499842E+03</pdfrwt>
<totfact> 0.44104673E+03</totfact>
</mgrwt>
</event>
<event>
 5    1  0.3316206E-002  0.1249986E+03  0.7818608E-02  0.1235071E+00
          4   -1    0    0  501    0  0.00000000000E+00  0.00000000000E+00  0.32810069723E+03  0.32810315516E+03  0.12700000000E+01 0.  1.
         -4   -1    0    0    0  501 -0.00000000000E+00 -0.00000000000E+00 -0.11868996394E+02  0.11936748946E+02  0.12700000000E+01 0.  1.
         25    2    1    2    0    0  0.00000000000E+00  0.00000000000E+00  0.31623170084E+03  0.34003990411E+03  0.12499859106E+03 0.  0.
    9000005    1    3    3    0    0  0.19610275592E+02  0.16043058311E+02  0.27169653656E+01  0.25501461322E+02  0.10000000000E+01 0.  0.
    9000005    1    3    3    0    0 -0.19610275592E+02 -0.16043058311E+02  0.31351473548E+03  0.31453844278E+03  0.10000000000E+01 0.  0.
<mgrwt>
<rscale>  0 0.12499859E+03</rscale>
<asrwt>0</asrwt>
<pdfrwt beam="1">  1        4 0.50482427E-01 0.12499859E+03</pdfrwt>
<pdfrwt beam="2">  1       -4 0.18314004E-02 0.12499859E+03</pdfrwt>
<totfact> 0.70836579E+03</totfact>
</mgrwt>
</event>
<event>
 5    1  0.3316206E-002  0.1249998E+03  0.7818608E-02  0.1235070E+00
         -4   -1    0    0    0  501 -0.00000000000E+00  0.00000000000E+00  0.60716927509E+01  0.62030922015E+01  0.12700000000E+01 0.  1.
          4   -1    0    0  501    0  0.00000000000E+00 -0.00000000000E+00 -0.63633294583E+03  0.63633421317E+03  0.12700000000E+01 0.  1.
         25    2    1    2    0    0  0.00000000000E+00  0.00000000000E+00 -0.63026125308E+03  0.64253730537E+03  0.12499976664E+03 0.  0.
    9000005    1    3    3    0    0  0.58022492260E+02 -0.18978004163E+02 -0.38379967145E+03  0.38862573519E+03  0.10000000000E+01 0.  0.
    9000005    1    3    3    0    0 -0.58022492260E+02  0.18978004163E+02 -0.24646158163E+03  0.25391157018E+03  0.10000000000E+01 0.  0.
<mgrwt>
<rscale>  0 0.12499977E+03</rscale>
<asrwt>0</asrwt>
<pdfrwt beam="2">  1        4 0.97907529E-01 0.12499977E+03</pdfrwt>
<pdfrwt beam="1">  1       -4 0.94431222E-03 0.12499977E+03</pdfrwt>
<totfact> 0.46288267E+03</totfact>
</mgrwt>
</event>
<event>
 5    1  0.3316206E-002  0.1250027E+03  0.7818608E-02  0.1235065E+00
          4   -1    0    0  501    0  0.00000000000E+00  0.00000000000E+00  0.38950576561E+02  0.38971275504E+02  0.12700000000E+01 0.  1.
         -4   -1    0    0    0  501 -0.00000000000E+00 -0.00000000000E+00 -0.10024038223E+03  0.10024842707E+03  0.12700000000E+01 0.  1.
         25    2    1    2    0    0  0.00000000000E+00  0.00000000000E+00 -0.61289805671E+02  0.13921970257E+03  0.12500274119E+03 0.  0.
    9000005    1    3    3    0    0 -0.58503143093E+02  0.98629988137E+01 -0.52512816041E+02  0.79236938014E+02  0.10000000000E+01 0.  0.
    9000005    1    3    3    0    0  0.58503143093E+02 -0.98629988137E+01 -0.87769896308E+01  0.59982764560E+02  0.10000000000E+01 0.  0.
<mgrwt>
<rscale>  0 0.12500274E+03</rscale>
<asrwt>0</asrwt>
<pdfrwt beam="1">  1        4 0.59946075E-02 0.12500274E+03</pdfrwt>
<pdfrwt beam="2">  1       -4 0.15423808E-01 0.12500274E+03</pdfrwt>
<totfact> 0.10149157E+04</totfact>
</mgrwt>
</event>
<event>
 5    1  0.3316206E-002  0.1249993E+03  0.7818608E-02  0.1235070E+00
          4   -1    0    0  501    0  0.00000000000E+00  0.00000000000E+00  0.20665906799E+03  0.20666297027E+03  0.12700000000E+01 0. -1.
         -4   -1    0    0    0  501 -0.00000000000E+00 -0.00000000000E+00 -0.18876288827E+02  0.18918963499E+02  0.12700000000E+01 0. -1.
         25    2    1    2    0    0  0.00000000000E+00  0.00000000000E+00  0.18778277916E+03  0.22558193377E+03  0.12499934678E+03 0.  0.
    9000005    1    3    3    0    0 -0.49278817667E+02  0.10900977636E+02  0.27388178213E+02  0.57431223998E+02  0.10000000000E+01 0.  0.
    9000005    1    3    3    0    0  0.49278817667E+02 -0.10900977636E+02  0.16039460094E+03  0.16815070977E+03  0.10000000000E+01 0.  0.
<mgrwt>
<rscale>  0 0.12499935E+03</rscale>
<asrwt>0</asrwt>
<pdfrwt beam="1">  1        4 0.31797285E-01 0.12499935E+03</pdfrwt>
<pdfrwt beam="2">  1       -4 0.29076274E-02 0.12499935E+03</pdfrwt>
<totfact> 0.85993898E+03</totfact>
</mgrwt>
</event>
<event>
 5    1  0.3316206E-002  0.1249966E+03  0.7818608E-02  0.1235075E+00
          4   -1    0    0  501    0  0.00000000000E+00  0.00000000000E+00  0.56515263043E+02  0.56529530838E+02  0.12700000000E+01 0. -1.
         -4   -1    0    0    0  501 -0.00000000000E+00 -0.00000000000E+00 -0.69085905037E+02  0.69097577199E+02  0.12700000000E+01 0. -1.
         25    2    1    2    0    0  0.00000000000E+00  0.00000000000E+00 -0.12570641994E+02  0.12562710804E+03  0.12499659689E+03 0.  0.
    9000005    1    3    3    0    0  0.83579060108E+01 -0.51502914719E+02  0.28277571163E+02  0.59355082751E+02  0.10000000000E+01 0.  0.
    9000005    1    3    3    0    0 -0.83579060108E+01  0.51502914719E+02 -0.40848213156E+02  0.66272025286E+02  0.10000000000E+01 0.  0.
<mgrwt>
<rscale>  0 0.12499660E+03</rscale>
<asrwt>0</asrwt>
<pdfrwt beam="1">  1        4 0.86966512E-02 0.12499660E+03</pdfrwt>
<pdfrwt beam="2">  1       -4 0.10630596E-01 0.12499660E+03</pdfrwt>
<totfact> 0.10439951E+04</totfact>
</mgrwt>
</event>
<event>
 5    1  0.3316206E-002  0.1250013E+03  0.7818608E-02  0.1235067E+00
         -4   -1    0    0    0  501 -0.00000000000E+00  0.00000000000E+00  0.66663356255E+01  0.67862309621E+01  0.12700000000E+01 0. -1.
          4   -1    0    0  501    0  0.00000000000E+00 -0.00000000000E+00 -0.58063562591E+03  0.58063701482E+03  0.12700000000E+01 0. -1.
         25    2    1    2    0    0  0.00000000000E+00  0.00000000000E+00 -0.57396929028E+03  0.58742324578E+03  0.12500129396E+03 0.  0.
    9000005    1    3    3    0    0  0.60951860704E+02 -0.11406590021E+02 -0.25055606426E+03  0.25811737825E+03  0.10000000000E+01 0.  0.
    9000005    1    3    3    0    0 -0.60951860704E+02  0.11406590021E+02 -0.32341322602E+03  0.32930586753E+03  0.10000000000E+01 0.  0.
<mgrwt>
<rscale>  0 0.12500129E+03</rscale>
<asrwt>0</asrwt>
<pdfrwt beam="2">  1        4 0.89337848E-01 0.12500129E+03</pdfrwt>
<pdfrwt beam="1">  1       -4 0.10349201E-02 0.12500129E+03</pdfrwt>
<totfact> 0.49669844E+03</totfact>
</mgrwt>
</event>
<event>
 5    1  0.3316206E-002  0.1249979E+03  0.7818608E-02  0.1235073E+00
          4   -1    0    0  501    0  0.00000000000E+00  0.00000000000E+00  0.79327223565E+03  0.79327325226E+03  0.12700000000E+01 0. -1.
         -4   -1    0    0    0  501 -0.00000000000E+00 -0.00000000000E+00 -0.48411320262E+01  0.50049434857E+01  0.12700000000E+01 0. -1.
         25    2    1    2    0    0  0.00000000000E+00  0.00000000000E+00  0.78843110363E+03  0.79827819575E+03  0.12499789056E+03 0.  0.
    9000005    1    3    3    0    0  0.54050646213E+02  0.31318636199E+02  0.38355050627E+03  0.38860561008E+03  0.10000000000E+01 0.  0.
    9000005    1    3    3    0    0 -0.54050646213E+02 -0.31318636199E+02  0.40488059736E+03  0.40967258567E+03  0.10000000000E+01 0.  0.
<mgrwt>
<rscale>  0 0.12499789E+03</rscale>
<asrwt>0</asrwt>
<pdfrwt beam="1">  1        4 0.12205443E+00 0.12499789E+03</pdfrwt>
<pdfrwt beam="2">  1       -4 0.75746946E-03 0.12499789E+03</pdfrwt>
<totfact> 0.38343511E+03</totfact>
</mgrwt>
</event>
<event>
 5    1  0.3316206E-002  0.1249970E+03  0.7818608E-02  0.1235074E+00
          4   -1    0    0  501    0  0.00000000000E+00  0.00000000000E+00  0.34796932952E+01  0.37042091503E+01  0.12700000000E+01 0. -1.
         -4   -1    0    0    0  501 -0.00000000000E+00 -0.00000000000E+00 -0.10872230452E+04  0.10872237869E+04  0.12700000000E+01 0. -1.
         25    2    1    2    0    0  0.00000000000E+00  0.00000000000E+00 -0.10837433519E+04  0.10909279961E+04  0.12499695949E+03 0.  0.
    9000005    1    3    3    0    0  0.40937851627E+02  0.16517008295E+02 -0.15584360699E+03  0.16197823650E+03  0.10000000000E+01 0.  0.
    9000005    1    3    3    0    0 -0.40937851627E+02 -0.16517008295E+02 -0.92789974486E+03  0.92894975955E+03  0.10000000000E+01 0.  0.
<mgrwt>
<rscale>  0 0.12499696E+03</rscale>
<asrwt>0</asrwt>
<pdfrwt beam="1">  1        4 0.55266580E-03 0.12499696E+03</pdfrwt>
<pdfrwt beam="2">  1       -4 0.16728215E+00 0.12499696E+03</pdfrwt>
<totfact> 0.27752315E+03</totfact>
</mgrwt>
</event>
<event>
 5    1  0.3316206E-002  0.1249988E+03  0.7818608E-02  0.1235071E+00
          4   -1    0    0  501    0  0.00000000000E+00  0.00000000000E+00  0.35030580837E+02  0.35053594591E+02  0.12700000000E+01 0.  1.
         -4   -1    0    0    0  501 -0.00000000000E+00 -0.00000000000E+00 -0.11144439920E+03  0.11145163531E+03  0.12700000000E+01 0.  1.
         25    2    1    2    0    0  0.00000000000E+00  0.00000000000E+00 -0.76413818365E+02  0.14650522990E+03  0.12499884300E+03 0.  0.
    9000005    1    3    3    0    0 -0.62230977983E+02 -0.53599494151E+01 -0.40477792483E+02  0.74437056381E+02  0.10000000000E+01 0.  0.
    9000005    1    3    3    0    0  0.62230977983E+02  0.53599494151E+01 -0.35936025881E+02  0.72068173520E+02  0.10000000000E+01 0.  0.
<mgrwt>
<rscale>  0 0.12499884E+03</rscale>
<asrwt>0</asrwt>
<pdfrwt beam="1">  1        4 0.53916471E-02 0.12499884E+03</pdfrwt>
<pdfrwt beam="2">  1       -4 0.17147619E-01 0.12499884E+03</pdfrwt>
<totfact> 0.10000755E+04</totfact>
</mgrwt>
</event>
<event>
 5    1  0.3316206E-002  0.1250163E+03  0.7818608E-02  0.1235044E+00
         -4   -1    0    0    0  501 -0.00000000000E+00  0.00000000000E+00  0.77170281356E+02  0.77180730915E+02  0.12700000000E+01 0.  1.
          4   -1    0    0  501    0  0.00000000000E+00 -0.00000000000E+00 -0.50609911738E+02  0.50625843856E+02  0.12700000000E+01 0.  1.
         25    2    1    2    0    0  0.00000000000E+00  0.00000000000E+00  0.26560369618E+02  0.12780657477E+03  0.12501626822E+03 0.  0.
    9000005    1    3    3    0    0  0.72674771616E+01  0.38505232503E+02  0.63057779976E+02  0.74247914246E+02  0.10000000000E+01 0.  0.
    9000005    1    3    3    0    0 -0.72674771616E+01 -0.38505232503E+02 -0.36497410358E+02  0.53558660525E+02  0.10000000000E+01 0.  0.
<mgrwt>
<rscale>  0 0.12501627E+03</rscale>
<asrwt>0</asrwt>
<pdfrwt beam="2">  1        4 0.77881697E-02 0.12501627E+03</pdfrwt>
<pdfrwt beam="1">  1       -4 0.11874380E-01 0.12501627E+03</pdfrwt>
<totfact> 0.10387852E+04</totfact>
</mgrwt>
</event>
<event>
 5    1  0.3316206E-002  0.1249921E+03  0.7818608E-02  0.1235082E+00
         -4   -1    0    0    0  501 -0.00000000000E+00  0.00000000000E+00  0.81981768934E+02  0.81991605287E+02  0.12700000000E+01 0. -1.
          4   -1    0    0  501    0  0.00000000000E+00 -0.00000000000E+00 -0.47620615245E+02  0.47637547127E+02  0.12700000000E+01 0. -1.
         25    2    1    2    0    0  0.00000000000E+00  0.00000000000E+00  0.34361153689E+02  0.12962915241E+03  0.12499211284E+03 0.  0.
    9000005    1    3    3    0    0  0.61104738350E+02 -0.54869609824E+01  0.48717720291E+01  0.61551847676E+02  0.10000000000E+01 0.  0.
    9000005    1    3    3    0    0 -0.61104738350E+02  0.54869609824E+01  0.29489381660E+02  0.68077304738E+02  0.10000000000E+01 0.  0.
<mgrwt>
<rscale>  0 0.12499211E+03</rscale>
<asrwt>0</asrwt>
<pdfrwt beam="2">  1        4 0.73283076E-02 0.12499211E+03</pdfrwt>
<pdfrwt beam="1">  1       -4 0.12614639E-01 0.12499211E+03</pdfrwt>
<totfact> 0.10354290E+04</totfact>
</mgrwt>
</event>
<event>
 5    1  0.3316206E-002  0.1249972E+03  0.7818608E-02  0.1235074E+00
          4   -1    0    0  501    0  0.00000000000E+00  0.00000000000E+00  0.25455166203E+02  0.25486827704E+02  0.12700000000E+01 0.  1.
         -4   -1    0    0    0  501 -0.00000000000E+00 -0.00000000000E+00 -0.15331949633E+03  0.15332475617E+03  0.12700000000E+01 0.  1.
         25    2    1    2    0    0  0.00000000000E+00  0.00000000000E+00 -0.12786433012E+03  0.17881158387E+03  0.12499718240E+03 0.  0.
    9000005    1    3    3    0    0  0.41934385674E+02 -0.46184314744E+02 -0.58658536963E+02  0.85634733542E+02  0.10000000000E+01 0.  0.
    9000005    1    3    3    0    0 -0.41934385674E+02  0.46184314744E+02 -0.69205793160E+02  0.93176850328E+02  0.10000000000E+01 0.  0.
<mgrwt>
<rscale>  0 0.12499718E+03</rscale>
<asrwt>0</asrwt>
<pdfrwt beam="1">  1        4 0.39190196E-02 0.12499718E+03</pdfrwt>
<pdfrwt beam="2">  1       -4 0.23590454E-01 0.12499718E+03</pdfrwt>
<totfact> 0.93837289E+03</totfact>
</mgrwt>
</event>
<event>
 5    1  0.3316206E-002  0.1250052E+03  0.7818608E-02  0.1235061E+00
         -4   -1    0    0    0  501 -0.00000000000E+00  0.00000000000E+00  0.27059559000E+03  0.27059857026E+03  0.12700000000E+01 0. -1.
          4   -1    0    0  501    0  0.00000000000E+00 -0.00000000000E+00 -0.14405948331E+02  0.14461820332E+02  0.12700000000E+01 0. -1.
         25    2    1    2    0    0  0.00000000000E+00  0.00000000000E+00  0.25618964167E+03  0.28506039059E+03  0.12500517504E+03 0.  0.
    9000005    1    3    3    0    0  0.15246070996E+02 -0.17746688486E+02  0.26024301861E+03  0.26129450122E+03  0.10000000000E+01 0.  0.
    9000005    1    3    3    0    0 -0.15246070996E+02  0.17746688486E+02 -0.40533769402E+01  0.23765889373E+02  0.10000000000E+01 0.  0.
<mgrwt>
<rscale>  0 0.12500518E+03</rscale>
<asrwt>0</asrwt>
<pdfrwt beam="2">  1        4 0.22208267E-02 0.12500518E+03</pdfrwt>
<pdfrwt beam="1">  1       -4 0.41634621E-01 0.12500518E+03</pdfrwt>
<totfact> 0.77502967E+03</totfact>
</mgrwt>
</event>
<event>
 5    1  0.3316206E-002  0.1250012E+03  0.7818608E-02  0.1235067E+00
          4   -1    0    0  501    0  0.00000000000E+00  0.00000000000E+00  0.13052117750E+02  0.13113759101E+02  0.12700000000E+01 0.  1.
         -4   -1    0    0    0  501 -0.00000000000E+00 -0.00000000000E+00 -0.29851876174E+03  0.29852146324E+03  0.12700000000E+01 0.  1.
         25    2    1    2    0    0  0.00000000000E+00  0.00000000000E+00 -0.28546664399E+03  0.31163522234E+03  0.12500122787E+03 0.  0.
    9000005    1    3    3    0    0  0.19582286506E+02 -0.48855373176E+02 -0.22672431882E+03  0.23275573071E+03  0.10000000000E+01 0.  0.
    9000005    1    3    3    0    0 -0.19582286506E+02  0.48855373176E+02 -0.58742325175E+02  0.78879491631E+02  0.10000000000E+01 0.  0.
<mgrwt>
<rscale>  0 0.12500123E+03</rscale>
<asrwt>0</asrwt>
<pdfrwt beam="1">  1        4 0.20129678E-02 0.12500123E+03</pdfrwt>
<pdfrwt beam="2">  1       -4 0.45930908E-01 0.12500123E+03</pdfrwt>
<totfact> 0.74160120E+03</totfact>
</mgrwt>
</event>
<event>
 5    1  0.3316206E-002  0.1250005E+03  0.7818608E-02  0.1235068E+00
         -4   -1    0    0    0  501 -0.00000000000E+00  0.00000000000E+00  0.40653309842E+02  0.40673142258E+02  0.12700000000E+01 0. -1.
          4   -1    0    0  501    0  0.00000000000E+00 -0.00000000000E+00 -0.96040222296E+02  0.96048618932E+02  0.12700000000E+01 0. -1.
         25    2    1    2    0    0  0.00000000000E+00  0.00000000000E+00 -0.55386912454E+02  0.13672176119E+03  0.12500051965E+03 0.  0.
    9000005    1    3    3    0    0  0.48728007527E+02  0.23648295535E+02  0.64002699243E+01  0.54549280970E+02  0.10000000000E+01 0.  0.
    9000005    1    3    3    0    0 -0.48728007527E+02 -0.23648295535E+02 -0.61787182378E+02  0.82172480220E+02  0.10000000000E+01 0.  0.
<mgrwt>
<rscale>  0 0.12500052E+03</rscale>
<asrwt>0</asrwt>
<pdfrwt beam="2">  1        4 0.14777590E-01 0.12500052E+03</pdfrwt>
<pdfrwt beam="1">  1       -4 0.62565269E-02 0.12500052E+03</pdfrwt>
<totfact> 0.10201787E+04</totfact>
</mgrwt>
</event>
<event>
 5    1  0.3316206E-002  0.1249990E+03  0.7818608E-02  0.1235071E+00
          4   -1    0    0  501    0  0.00000000000E+00  0.00000000000E+00  0.50323399364E+03  0.50323559617E+03  0.12700000000E+01 0.  1.
         -4   -1    0    0    0  501 -0.00000000000E+00 -0.00000000000E+00 -0.77085958457E+01  0.78125123944E+01  0.12700000000E+01 0.  1.
         25    2    1    2    0    0  0.00000000000E+00  0.00000000000E+00  0.49552539779E+03  0.51104810856E+03  0.12499899764E+03 0.  0.
    9000005    1    3    3    0    0  0.49971667064E+02  0.14283518278E+02  0.38962554528E+03  0.39307792095E+03  0.10000000000E+01 0.  0.
    9000005    1    3    3    0    0 -0.49971667064E+02 -0.14283518278E+02  0.10589985251E+03  0.11797018761E+03  0.10000000000E+01 0.  0.
<mgrwt>
<rscale>  0 0.12499900E+03</rscale>
<asrwt>0</asrwt>
<pdfrwt beam="1">  1        4 0.77428734E-01 0.12499900E+03</pdfrwt>
<pdfrwt beam="2">  1       -4 0.11940546E-02 0.12499900E+03</pdfrwt>
<totfact> 0.55018453E+03</totfact>
</mgrwt>
</event>
<event>
 5    1  0.3316206E-002  0.1250000E+03  0.7818608E-02  0.1235069E+00
          4   -1    0    0  501    0  0.00000000000E+00  0.00000000000E+00  0.84333520276E+01  0.85284422037E+01  0.12700000000E+01 0.  1.
         -4   -1    0    0    0  501 -0.00000000000E+00 -0.00000000000E+00 -0.46049799452E+03  0.46049974577E+03  0.12700000000E+01 0.  1.
         25    2    1    2    0    0  0.00000000000E+00  0.00000000000E+00 -0.45206464249E+03  0.46902818797E+03  0.12500000050E+03 0.  0.
    9000005    1    3    3    0    0 -0.36987565146E+02  0.50094886024E+02 -0.20629388537E+03  0.21548954667E+03  0.10000000000E+01 0.  0.
    9000005    1    3    3    0    0  0.36987565146E+02 -0.50094886024E+02 -0.24577075711E+03  0.25353864130E+03  0.10000000000E+01 0.  0.
<mgrwt>
<rscale>  0 0.12500000E+03</rscale>
<asrwt>0</asrwt>
<pdfrwt beam="1">  1        4 0.13048885E-02 0.12500000E+03</pdfrwt>
<pdfrwt beam="2">  1       -4 0.70853275E-01 0.12500000E+03</pdfrwt>
<totfact> 0.58350119E+03</totfact>
</mgrwt>
</event>
<event>
 5    1  0.3316206E-002  0.1249985E+03  0.7818608E-02  0.1235072E+00
          4   -1    0    0  501    0  0.00000000000E+00  0.00000000000E+00  0.77258097111E+01  0.78294977931E+01  0.12700000000E+01 0.  1.
         -4   -1    0    0    0  501 -0.00000000000E+00 -0.00000000000E+00 -0.50212324150E+03  0.50212484758E+03  0.12700000000E+01 0.  1.
         25    2    1    2    0    0  0.00000000000E+00  0.00000000000E+00 -0.49439743179E+03  0.50995434537E+03  0.12499845520E+03 0.  0.
    9000005    1    3    3    0    0  0.52034201805E+02  0.20214207697E+02 -0.36179220714E+03  0.36607481954E+03  0.10000000000E+01 0.  0.
    9000005    1    3    3    0    0 -0.52034201805E+02 -0.20214207697E+02 -0.13260522464E+03  0.14387952583E+03  0.10000000000E+01 0.  0.
<mgrwt>
<rscale>  0 0.12499846E+03</rscale>
<asrwt>0</asrwt>
<pdfrwt beam="1">  1        4 0.11966861E-02 0.12499846E+03</pdfrwt>
<pdfrwt beam="2">  1       -4 0.77257803E-01 0.12499846E+03</pdfrwt>
<totfact> 0.55102102E+03</totfact>
</mgrwt>
</event>
<event>
 5    1  0.3316206E-002  0.1250038E+03  0.7818608E-02  0.1235063E+00
          4   -1    0    0  501    0  0.00000000000E+00  0.00000000000E+00  0.23821281365E+03  0.23821619904E+03  0.12700000000E+01 0.  1.
         -4   -1    0    0    0  501 -0.00000000000E+00 -0.00000000000E+00 -0.16371051110E+02  0.16420237954E+02  0.12700000000E+01 0.  1.
         25    2    1    2    0    0  0.00000000000E+00  0.00000000000E+00  0.22184176254E+03  0.25463643700E+03  0.12500378970E+03 0.  0.
    9000005    1    3    3    0    0  0.59730727765E+02 -0.13417933838E+02  0.85341264306E+02  0.10503300520E+03  0.10000000000E+01 0.  0.
    9000005    1    3    3    0    0 -0.59730727765E+02  0.13417933838E+02  0.13650049823E+03  0.14960343180E+03  0.10000000000E+01 0.  0.
<mgrwt>
<rscale>  0 0.12500379E+03</rscale>
<asrwt>0</asrwt>
<pdfrwt beam="1">  1        4 0.36652169E-01 0.12500379E+03</pdfrwt>
<pdfrwt beam="2">  1       -4 0.25226672E-02 0.12500379E+03</pdfrwt>
<totfact> 0.81657810E+03</totfact>
</mgrwt>
</event>
<event>
 5    1  0.3316206E-002  0.1249998E+03  0.7818608E-02  0.1235070E+00
          4   -1    0    0  501    0  0.00000000000E+00  0.00000000000E+00  0.40706265256E+02  0.40726071884E+02  0.12700000000E+01 0. -1.
         -4   -1    0    0    0  501 -0.00000000000E+00 -0.00000000000E+00 -0.95914184747E+02  0.95922592416E+02  0.12700000000E+01 0. -1.
         25    2    1    2    0    0  0.00000000000E+00  0.00000000000E+00 -0.55207919492E+02  0.13664866430E+03  0.12499977232E+03 0.  0.
    9000005    1    3    3    0    0  0.24048042803E+02 -0.19996754267E+02 -0.86748107157E+02  0.92219372364E+02  0.10000000000E+01 0.  0.
    9000005    1    3    3    0    0 -0.24048042803E+02  0.19996754267E+02  0.31540187666E+02  0.44429291935E+02  0.10000000000E+01 0.  0.
<mgrwt>
<rscale>  0 0.12499977E+03</rscale>
<asrwt>0</asrwt>
<pdfrwt beam="1">  1        4 0.62646727E-02 0.12499977E+03</pdfrwt>
<pdfrwt beam="2">  1       -4 0.14758199E-01 0.12499977E+03</pdfrwt>
<totfact> 0.10203489E+04</totfact>
</mgrwt>
</event>
<event>
 5    1  0.3316206E-002  0.1249891E+03  0.7818608E-02  0.1235086E+00
         -4   -1    0    0    0  501 -0.00000000000E+00  0.00000000000E+00  0.38209558677E+03  0.38209769737E+03  0.12700000000E+01 0. -1.
          4   -1    0    0  501    0  0.00000000000E+00 -0.00000000000E+00 -0.10179847887E+02  0.10258762255E+02  0.12700000000E+01 0. -1.
         25    2    1    2    0    0  0.00000000000E+00  0.00000000000E+00  0.37191573889E+03  0.39235645962E+03  0.12498909782E+03 0.  0.
    9000005    1    3    3    0    0  0.23440716846E+02 -0.57044947156E+02  0.21750185417E+03  0.22607885741E+03  0.10000000000E+01 0.  0.
    9000005    1    3    3    0    0 -0.23440716846E+02  0.57044947156E+02  0.15441388472E+03  0.16627760221E+03  0.10000000000E+01 0.  0.
<mgrwt>
<rscale>  0 0.12498910E+03</rscale>
<asrwt>0</asrwt>
<pdfrwt beam="2">  1        4 0.15723630E-02 0.12498910E+03</pdfrwt>
<pdfrwt beam="1">  1       -4 0.58790173E-01 0.12498910E+03</pdfrwt>
<totfact> 0.65318763E+03</totfact>
</mgrwt>
</event>
<event>
 5    1  0.3316206E-002  0.1250025E+03  0.7818608E-02  0.1235065E+00
         -4   -1    0    0    0  501 -0.00000000000E+00  0.00000000000E+00  0.39664648048E+03  0.39664851365E+03  0.12700000000E+01 0.  1.
          4   -1    0    0  501    0  0.00000000000E+00 -0.00000000000E+00 -0.98055754165E+01  0.98874773956E+01  0.12700000000E+01 0.  1.
         25    2    1    2    0    0  0.00000000000E+00  0.00000000000E+00  0.38684090506E+03  0.40653599104E+03  0.12500250470E+03 0.  0.
    9000005    1    3    3    0    0  0.86188475498E+01 -0.56275130574E+02  0.10960191457E+03  0.12351013939E+03  0.10000000000E+01 0.  0.
    9000005    1    3    3    0    0 -0.86188475498E+01  0.56275130574E+02  0.27723899049E+03  0.28302585165E+03  0.10000000000E+01 0.  0.
<mgrwt>
<rscale>  0 0.12500250E+03</rscale>
<asrwt>0</asrwt>
<pdfrwt beam="2">  1        4 0.15150067E-02 0.12500250E+03</pdfrwt>
<pdfrwt beam="1">  1       -4 0.61028988E-01 0.12500250E+03</pdfrwt>
<totfact> 0.63918500E+03</totfact>
</mgrwt>
</event>
<event>
 5    1  0.3316206E-002  0.1250006E+03  0.7818608E-02  0.1235068E+00
         -4   -1    0    0    0  501 -0.00000000000E+00  0.00000000000E+00  0.94682026182E+01  0.95529974782E+01  0.12700000000E+01 0. -1.
          4   -1    0    0  501    0  0.00000000000E+00 -0.00000000000E+00 -0.41064391531E+03  0.41064587917E+03  0.12700000000E+01 0. -1.
         25    2    1    2    0    0  0.00000000000E+00  0.00000000000E+00 -0.40117571269E+03  0.42019887665E+03  0.12500057394E+03 0.  0.
    9000005    1    3    3    0    0 -0.46494434221E+02  0.61097600844E+01 -0.61733042660E+02  0.77530833465E+02  0.10000000000E+01 0.  0.
    9000005    1    3    3    0    0  0.46494434221E+02 -0.61097600844E+01 -0.33944267003E+03  0.34266804318E+03  0.10000000000E+01 0.  0.
<mgrwt>
<rscale>  0 0.12500057E+03</rscale>
<asrwt>0</asrwt>
<pdfrwt beam="2">  1        4 0.63182647E-01 0.12500057E+03</pdfrwt>
<pdfrwt beam="1">  1       -4 0.14633206E-02 0.12500057E+03</pdfrwt>
<totfact> 0.62633777E+03</totfact>
</mgrwt>
</event>
<event>
 5    1  0.3316206E-002  0.1250001E+03  0.7818608E-02  0.1235069E+00
         -4   -1    0    0    0  501 -0.00000000000E+00  0.00000000000E+00  0.15074704312E+04  0.15074709662E+04  0.12700000000E+01 0.  1.
          4   -1    0    0  501    0  0.00000000000E+00 -0.00000000000E+00 -0.24350869769E+01  0.27463700743E+01  0.12700000000E+01 0.  1.
         25    2    1    2    0    0  0.00000000000E+00  0.00000000000E+00  0.15050353443E+04  0.15102173363E+04  0.12500006132E+03 0.  0.
    9000005    1    3    3    0    0  0.35591993796E+02 -0.15048854131E+02  0.15915872022E+03  0.16378570223E+03  0.10000000000E+01 0.  0.
    9000005    1    3    3    0    0 -0.35591993796E+02  0.15048854131E+02  0.13458766240E+04  0.13464316341E+04  0.10000000000E+01 0.  0.
<mgrwt>
<rscale>  0 0.12500006E+03</rscale>
<asrwt>0</asrwt>
<pdfrwt beam="2">  1        4 0.39861515E-03 0.12500006E+03</pdfrwt>
<pdfrwt beam="1">  1       -4 0.23194230E+00 0.12500006E+03</pdfrwt>
<totfact> 0.17730439E+03</totfact>
</mgrwt>
</event>
<event>
 5    1  0.3316206E-002  0.1250074E+03  0.7818608E-02  0.1235058E+00
         -4   -1    0    0    0  501 -0.00000000000E+00  0.00000000000E+00  0.14407054905E+03  0.14407614654E+03  0.12700000000E+01 0.  1.
          4   -1    0    0  501    0  0.00000000000E+00 -0.00000000000E+00 -0.27095684284E+02  0.27125430998E+02  0.12700000000E+01 0.  1.
         25    2    1    2    0    0  0.00000000000E+00  0.00000000000E+00  0.11697486476E+03  0.17120157754E+03  0.12500744444E+03 0.  0.
    9000005    1    3    3    0    0  0.62049849879E+02 -0.67119856408E+01  0.54053731252E+02  0.82571426556E+02  0.10000000000E+01 0.  0.
    9000005    1    3    3    0    0 -0.62049849879E+02  0.67119856408E+01  0.62921133511E+02  0.88630150985E+02  0.10000000000E+01 0.  0.
<mgrwt>
<rscale>  0 0.12500744E+03</rscale>
<asrwt>0</asrwt>
<pdfrwt beam="2">  1        4 0.41712856E-02 0.12500744E+03</pdfrwt>
<pdfrwt beam="1">  1       -4 0.22167419E-01 0.12500744E+03</pdfrwt>
<totfact> 0.95209244E+03</totfact>
</mgrwt>
</event>
<event>
 5    1  0.3316206E-002  0.1250104E+03  0.7818608E-02  0.1235053E+00
          4   -1    0    0  501    0  0.00000000000E+00  0.00000000000E+00  0.37350328534E+01  0.39450437788E+01  0.12700000000E+01 0.  1.
         -4   -1    0    0    0  501 -0.00000000000E+00 -0.00000000000E+00 -0.10172009404E+04  0.10172017332E+04  0.12700000000E+01 0.  1.
         25    2    1    2    0    0  0.00000000000E+00  0.00000000000E+00 -0.10134659076E+04  0.10211467770E+04  0.12501037717E+03 0.  0.
    9000005    1    3    3    0    0  0.31026965854E+02 -0.27517583089E+02 -0.88864911784E+03  0.88961685271E+03  0.10000000000E+01 0.  0.
    9000005    1    3    3    0    0 -0.31026965854E+02  0.27517583089E+02 -0.12481678975E+03  0.13152992432E+03  0.10000000000E+01 0.  0.
<mgrwt>
<rscale>  0 0.12501038E+03</rscale>
<asrwt>0</asrwt>
<pdfrwt beam="1">  1        4 0.59083692E-03 0.12501038E+03</pdfrwt>
<pdfrwt beam="2">  1       -4 0.15650845E+00 0.12501038E+03</pdfrwt>
<totfact> 0.29906316E+03</totfact>
</mgrwt>
</event>
<event>
 5    1  0.3316206E-002  0.1250009E+03  0.7818608E-02  0.1235068E+00
         -4   -1    0    0    0  501 -0.00000000000E+00  0.00000000000E+00  0.56257659879E+03  0.56257803228E+03  0.12700000000E+01 0.  1.
          4   -1    0    0  501    0  0.00000000000E+00 -0.00000000000E+00 -0.68840775163E+01  0.70002445136E+01  0.12700000000E+01 0.  1.
         25    2    1    2    0    0  0.00000000000E+00  0.00000000000E+00  0.55569252127E+03  0.56957827679E+03  0.12500094079E+03 0.  0.
    9000005    1    3    3    0    0  0.36376272165E+02  0.50537314146E+02  0.30198136359E+03  0.30833585139E+03  0.10000000000E+01 0.  0.
    9000005    1    3    3    0    0 -0.36376272165E+02 -0.50537314146E+02  0.25371115768E+03  0.26124242540E+03  0.10000000000E+01 0.  0.
<mgrwt>
<rscale>  0 0.12500094E+03</rscale>
<asrwt>0</asrwt>
<pdfrwt beam="2">  1        4 0.10681349E-02 0.12500094E+03</pdfrwt>
<pdfrwt beam="1">  1       -4 0.86559305E-01 0.12500094E+03</pdfrwt>
<totfact> 0.50844947E+03</totfact>
</mgrwt>
</event>
<event>
 5    1  0.3316206E-002  0.1249961E+03  0.7818608E-02  0.1235075E+00
         -4   -1    0    0    0  501 -0.00000000000E+00  0.00000000000E+00  0.32929284983E+01  0.35293452785E+01  0.12700000000E+01 0. -1.
          4   -1    0    0  501    0  0.00000000000E+00 -0.00000000000E+00 -0.11448376332E+04  0.11448383376E+04  0.12700000000E+01 0. -1.
         25    2    1    2    0    0  0.00000000000E+00  0.00000000000E+00 -0.11415447047E+04  0.11483676829E+04  0.12499608914E+03 0.  0.
    9000005    1    3    3    0    0  0.25388205302E+02 -0.33659829038E+00 -0.10953567920E+04  0.10956514848E+04  0.10000000000E+01 0.  0.
    9000005    1    3    3    0    0 -0.25388205302E+02  0.33659829038E+00 -0.46187912679E+02  0.52716198122E+02  0.10000000000E+01 0.  0.
<mgrwt>
<rscale>  0 0.12499609E+03</rscale>
<asrwt>0</asrwt>
<pdfrwt beam="2">  1        4 0.17614680E+00 0.12499609E+03</pdfrwt>
<pdfrwt beam="1">  1       -4 0.52484539E-03 0.12499609E+03</pdfrwt>
<totfact> 0.26107847E+03</totfact>
</mgrwt>
</event>
<event>
 5    1  0.3316206E-002  0.1249989E+03  0.7818608E-02  0.1235071E+00
         -4   -1    0    0    0  501 -0.00000000000E+00  0.00000000000E+00  0.48567855551E+02  0.48584457318E+02  0.12700000000E+01 0. -1.
          4   -1    0    0  501    0  0.00000000000E+00 -0.00000000000E+00 -0.80391886956E+02  0.80401917815E+02  0.12700000000E+01 0. -1.
         25    2    1    2    0    0  0.00000000000E+00  0.00000000000E+00 -0.31824031405E+02  0.12898637513E+03  0.12499886398E+03 0.  0.
    9000005    1    3    3    0    0  0.35954754630E+02 -0.44032786809E+02 -0.42692729331E+02  0.71100631730E+02  0.10000000000E+01 0.  0.
    9000005    1    3    3    0    0 -0.35954754630E+02  0.44032786809E+02  0.10868697927E+02  0.57885743403E+02  0.10000000000E+01 0.  0.
<mgrwt>
<rscale>  0 0.12499886E+03</rscale>
<asrwt>0</asrwt>
<pdfrwt beam="2">  1        4 0.12370031E-01 0.12499886E+03</pdfrwt>
<pdfrwt beam="1">  1       -4 0.74740264E-02 0.12499886E+03</pdfrwt>
<totfact> 0.10366505E+04</totfact>
</mgrwt>
</event>
<event>
 5    1  0.3316206E-002  0.1250033E+03  0.7818608E-02  0.1235064E+00
         -4   -1    0    0    0  501 -0.00000000000E+00  0.00000000000E+00  0.93380329781E+01  0.94239991458E+01  0.12700000000E+01 0.  1.
          4   -1    0    0  501    0  0.00000000000E+00 -0.00000000000E+00 -0.41633443159E+03  0.41633636861E+03  0.12700000000E+01 0.  1.
         25    2    1    2    0    0  0.00000000000E+00  0.00000000000E+00 -0.40699639861E+03  0.42576036775E+03  0.12500328903E+03 0.  0.
    9000005    1    3    3    0    0 -0.11895546185E+02  0.17289895238E+02 -0.40398976412E+03  0.40453575121E+03  0.10000000000E+01 0.  0.
    9000005    1    3    3    0    0  0.11895546185E+02 -0.17289895238E+02 -0.30066344924E+01  0.21224616542E+02  0.10000000000E+01 0.  0.
<mgrwt>
<rscale>  0 0.12500329E+03</rscale>
<asrwt>0</asrwt>
<pdfrwt beam="2">  1        4 0.64058198E-01 0.12500329E+03</pdfrwt>
<pdfrwt beam="1">  1       -4 0.14433826E-02 0.12500329E+03</pdfrwt>
<totfact> 0.62117678E+03</totfact>
</mgrwt>
</event>
<event>
 5    1  0.3316206E-002  0.1250009E+03  0.7818608E-02  0.1235068E+00
         -4   -1    0    0    0  501 -0.00000000000E+00  0.00000000000E+00  0.11159269191E+02  0.11231303970E+02  0.12700000000E+01 0.  1.
          4   -1    0    0  501    0  0.00000000000E+00 -0.00000000000E+00 -0.34885111040E+03  0.34885342212E+03  0.12700000000E+01 0.  1.
         25    2    1    2    0    0  0.00000000000E+00  0.00000000000E+00 -0.33769184121E+03  0.36008472609E+03  0.12500092138E+03 0.  0.
    9000005    1    3    3    0    0 -0.49985850585E+02  0.33916936279E+02 -0.12272268103E+03  0.13678742729E+03  0.10000000000E+01 0.  0.
    9000005    1    3    3    0    0  0.49985850585E+02 -0.33916936279E+02 -0.21496916017E+03  0.22329729880E+03  0.10000000000E+01 0.  0.
<mgrwt>
<rscale>  0 0.12500092E+03</rscale>
<asrwt>0</asrwt>
<pdfrwt beam="2">  1        4 0.53675112E-01 0.12500092E+03</pdfrwt>
<pdfrwt beam="1">  1       -4 0.17225299E-02 0.12500092E+03</pdfrwt>
<totfact> 0.68627783E+03</totfact>
</mgrwt>
</event>
<event>
 5    1  0.3316206E-002  0.1249981E+03  0.7818608E-02  0.1235072E+00
         -4   -1    0    0    0  501 -0.00000000000E+00  0.00000000000E+00  0.97237596944E+02  0.97245890193E+02  0.12700000000E+01 0.  1.
          4   -1    0    0  501    0  0.00000000000E+00 -0.00000000000E+00 -0.40150968757E+02  0.40171049179E+02  0.12700000000E+01 0.  1.
         25    2    1    2    0    0  0.00000000000E+00  0.00000000000E+00  0.57086628187E+02  0.13741693937E+03  0.12499812842E+03 0.  0.
    9000005    1    3    3    0    0  0.28664522037E+02 -0.24657339287E+02  0.83240840235E+02  0.91431267558E+02  0.10000000000E+01 0.  0.
    9000005    1    3    3    0    0 -0.28664522037E+02  0.24657339287E+02 -0.26154212048E+02  0.45985671814E+02  0.10000000000E+01 0.  0.
<mgrwt>
<rscale>  0 0.12499813E+03</rscale>
<asrwt>0</asrwt>
<pdfrwt beam="2">  1        4 0.61792548E-02 0.12499813E+03</pdfrwt>
<pdfrwt beam="1">  1       -4 0.14961813E-01 0.12499813E+03</pdfrwt>
<totfact> 0.10187805E+04</totfact>
</mgrwt>
</event>
<event>
 5    1  0.3316206E-002  0.1250000E+03  0.7818608E-02  0.1235069E+00
          4   -1    0    0  501    0  0.00000000000E+00  0.00000000000E+00  0.63695027734E+03  0.63695154345E+03  0.12700000000E+01 0.  1.
         -4   -1    0    0    0  501 -0.00000000000E+00 -0.00000000000E+00 -0.60657023115E+01  0.61972287784E+01  0.12700000000E+01 0.  1.
         25    2    1    2    0    0  0.00000000000E+00  0.00000000000E+00  0.63088457503E+03  0.64314877223E+03  0.12499998484E+03 0.  0.
    9000005    1    3    3    0    0 -0.12497568695E+02  0.48841673487E+02  0.12544948912E+03  0.13520455841E+03  0.10000000000E+01 0.  0.
    9000005    1    3    3    0    0  0.12497568695E+02 -0.48841673487E+02  0.50543508590E+03  0.50794421382E+03  0.10000000000E+01 0.  0.
<mgrwt>
<rscale>  0 0.12499998E+03</rscale>
<asrwt>0</asrwt>
<pdfrwt beam="1">  1        4 0.98002608E-01 0.12499998E+03</pdfrwt>
<pdfrwt beam="2">  1       -4 0.94339938E-03 0.12499998E+03</pdfrwt>
<totfact> 0.46252398E+03</totfact>
</mgrwt>
</event>
<event>
 5    1  0.3316206E-002  0.1249838E+03  0.7818608E-02  0.1235095E+00
         -4   -1    0    0    0  501 -0.00000000000E+00  0.00000000000E+00  0.10945564694E+03  0.10946301452E+03  0.12700000000E+01 0.  1.
          4   -1    0    0  501    0  0.00000000000E+00 -0.00000000000E+00 -0.35658843119E+02  0.35681451661E+02  0.12700000000E+01 0.  1.
         25    2    1    2    0    0  0.00000000000E+00  0.00000000000E+00  0.73796803821E+02  0.14514446618E+03  0.12498379018E+03 0.  0.
    9000005    1    3    3    0    0  0.30325409645E+02  0.52637711736E+02  0.53881997136E+02  0.81207319758E+02  0.10000000000E+01 0.  0.
    9000005    1    3    3    0    0 -0.30325409645E+02 -0.52637711736E+02  0.19914806685E+02  0.63937146420E+02  0.10000000000E+01 0.  0.
<mgrwt>
<rscale>  0 0.12498379E+03</rscale>
<asrwt>0</asrwt>
<pdfrwt beam="2">  1        4 0.54882818E-02 0.12498379E+03</pdfrwt>
<pdfrwt beam="1">  1       -4 0.16841636E-01 0.12498379E+03</pdfrwt>
<totfact> 0.10031715E+04</totfact>
</mgrwt>
</event>
<event>
 5    1  0.3316206E-002  0.1249749E+03  0.7818608E-02  0.1235109E+00
          4   -1    0    0  501    0  0.00000000000E+00  0.00000000000E+00  0.87720778479E+01  0.88635348349E+01  0.12700000000E+01 0. -1.
         -4   -1    0    0    0  501 -0.00000000000E+00 -0.00000000000E+00 -0.44272532045E+03  0.44272714200E+03  0.12700000000E+01 0. -1.
         25    2    1    2    0    0  0.00000000000E+00  0.00000000000E+00 -0.43395324260E+03  0.45159067684E+03  0.12497488805E+03 0.  0.
    9000005    1    3    3    0    0 -0.37864381913E+02  0.49335227810E+02 -0.23865869642E+03  0.24663059319E+03  0.10000000000E+01 0.  0.
    9000005    1    3    3    0    0  0.37864381913E+02 -0.49335227810E+02 -0.19529454618E+03  0.20496008365E+03  0.10000000000E+01 0.  0.
<mgrwt>
<rscale>  0 0.12497489E+03</rscale>
<asrwt>0</asrwt>
<pdfrwt beam="1">  1        4 0.13567261E-02 0.12497489E+03</pdfrwt>
<pdfrwt beam="2">  1       -4 0.68118746E-01 0.12497489E+03</pdfrwt>
<totfact> 0.59859352E+03</totfact>
</mgrwt>
</event>
<event>
 5    1  0.3316206E-002  0.1249960E+03  0.7818608E-02  0.1235076E+00
          4   -1    0    0  501    0  0.00000000000E+00  0.00000000000E+00  0.21817310431E+02  0.21854242939E+02  0.12700000000E+01 0.  1.
         -4   -1    0    0    0  501 -0.00000000000E+00 -0.00000000000E+00 -0.17884148842E+03  0.17884599766E+03  0.12700000000E+01 0.  1.
         25    2    1    2    0    0  0.00000000000E+00  0.00000000000E+00 -0.15702417799E+03  0.20070024060E+03  0.12499597635E+03 0.  0.
    9000005    1    3    3    0    0 -0.27901362869E+02 -0.17712436511E+02 -0.16366900058E+03  0.16697532215E+03  0.10000000000E+01 0.  0.
    9000005    1    3    3    0    0  0.27901362869E+02  0.17712436511E+02  0.66448225924E+01  0.33724918449E+02  0.10000000000E+01 0.  0.
<mgrwt>
<rscale>  0 0.12499598E+03</rscale>
<asrwt>0</asrwt>
<pdfrwt beam="1">  1        4 0.33596972E-02 0.12499598E+03</pdfrwt>
<pdfrwt beam="2">  1       -4 0.27517262E-01 0.12499598E+03</pdfrwt>
<totfact> 0.90025645E+03</totfact>
</mgrwt>
</event>
<event>
 5    1  0.3316206E-002  0.1249954E+03  0.7818608E-02  0.1235076E+00
         -4   -1    0    0    0  501 -0.00000000000E+00  0.00000000000E+00  0.11905858290E+02  0.11973402258E+02  0.12700000000E+01 0. -1.
          4   -1    0    0  501    0  0.00000000000E+00 -0.00000000000E+00 -0.32707408979E+03  0.32707655543E+03  0.12700000000E+01 0. -1.
         25    2    1    2    0    0  0.00000000000E+00  0.00000000000E+00 -0.31516823150E+03  0.33904995769E+03  0.12499543856E+03 0.  0.
    9000005    1    3    3    0    0  0.15476690305E+02 -0.60018483339E+02 -0.17915123156E+03  0.18957296763E+03  0.10000000000E+01 0.  0.
    9000005    1    3    3    0    0 -0.15476690305E+02  0.60018483339E+02 -0.13601699994E+03  0.14947699006E+03  0.10000000000E+01 0.  0.
<mgrwt>
<rscale>  0 0.12499544E+03</rscale>
<asrwt>0</asrwt>
<pdfrwt beam="2">  1        4 0.50324469E-01 0.12499544E+03</pdfrwt>
<pdfrwt beam="1">  1       -4 0.18370561E-02 0.12499544E+03</pdfrwt>
<totfact> 0.70953404E+03</totfact>
</mgrwt>
</event>
<event>
 5    1  0.3316206E-002  0.1249995E+03  0.7818608E-02  0.1235070E+00
         -4   -1    0    0    0  501 -0.00000000000E+00  0.00000000000E+00  0.56922537018E+02  0.56936702755E+02  0.12700000000E+01 0. -1.
          4   -1    0    0  501    0  0.00000000000E+00 -0.00000000000E+00 -0.68594884697E+02  0.68606640397E+02  0.12700000000E+01 0. -1.
         25    2    1    2    0    0  0.00000000000E+00  0.00000000000E+00 -0.11672347679E+02  0.12554334315E+03  0.12499954924E+03 0.  0.
    9000005    1    3    3    0    0 -0.59371958563E+02  0.14898554228E+02  0.67973180637E+01  0.61597077159E+02  0.10000000000E+01 0.  0.
    9000005    1    3    3    0    0  0.59371958563E+02 -0.14898554228E+02 -0.18469665742E+02  0.63946265992E+02  0.10000000000E+01 0.  0.
<mgrwt>
<rscale>  0 0.12499955E+03</rscale>
<asrwt>0</asrwt>
<pdfrwt beam="2">  1        4 0.10555053E-01 0.12499955E+03</pdfrwt>
<pdfrwt beam="1">  1       -4 0.87593074E-02 0.12499955E+03</pdfrwt>
<totfact> 0.10441103E+04</totfact>
</mgrwt>
</event>
<event>
 5    1  0.3316206E-002  0.1249987E+03  0.7818608E-02  0.1235071E+00
          4   -1    0    0  501    0  0.00000000000E+00  0.00000000000E+00  0.10921259364E+04  0.10921266748E+04  0.12700000000E+01 0. -1.
         -4   -1    0    0    0  501 -0.00000000000E+00 -0.00000000000E+00 -0.34631632822E+01  0.36886853917E+01  0.12700000000E+01 0. -1.
         25    2    1    2    0    0  0.00000000000E+00  0.00000000000E+00  0.10886627731E+04  0.10958153602E+04  0.12499868042E+03 0.  0.
    9000005    1    3    3    0    0  0.25120083456E+02  0.57215183958E+02  0.55095965862E+03  0.55449268823E+03  0.10000000000E+01 0.  0.
    9000005    1    3    3    0    0 -0.25120083456E+02 -0.57215183958E+02  0.53770311447E+03  0.54132267196E+03  0.10000000000E+01 0.  0.
<mgrwt>
<rscale>  0 0.12499868E+03</rscale>
<asrwt>0</asrwt>
<pdfrwt beam="1">  1        4 0.16803665E+00 0.12499868E+03</pdfrwt>
<pdfrwt beam="2">  1       -4 0.55019945E-03 0.12499868E+03</pdfrwt>
<totfact> 0.27607002E+03</totfact>
</mgrwt>
</event>
<event>
 5    1  0.3316206E-002  0.1250000E+03  0.7818608E-02  0.1235069E+00
          4   -1    0    0  501    0  0.00000000000E+00  0.00000000000E+00  0.40129046426E+02  0.40149137812E+02  0.12700000000E+01 0.  1.
         -4   -1    0    0    0  501 -0.00000000000E+00 -0.00000000000E+00 -0.97293600149E+02  0.97301888625E+02  0.12700000000E+01 0.  1.
         25    2    1    2    0    0  0.00000000000E+00  0.00000000000E+00 -0.57164553724E+02  0.13745102644E+03  0.12499999386E+03 0.  0.
    9000005    1    3    3    0    0 -0.51192321432E+02 -0.33423601755E+01  0.10657324922E+02  0.52406142003E+02  0.10000000000E+01 0.  0.
    9000005    1    3    3    0    0  0.51192321432E+02  0.33423601755E+01 -0.67821878646E+02  0.85044884433E+02  0.10000000000E+01 0.  0.
<mgrwt>
<rscale>  0 0.12499999E+03</rscale>
<asrwt>0</asrwt>
<pdfrwt beam="1">  1        4 0.61758825E-02 0.12499999E+03</pdfrwt>
<pdfrwt beam="2">  1       -4 0.14970429E-01 0.12499999E+03</pdfrwt>
<totfact> 0.10186665E+04</totfact>
</mgrwt>
</event>
<event>
 5    1  0.3316206E-002  0.1250009E+03  0.7818608E-02  0.1235068E+00
         -4   -1    0    0    0  501 -0.00000000000E+00  0.00000000000E+00  0.16344486961E+02  0.16393753506E+02  0.12700000000E+01 0. -1.
          4   -1    0    0  501    0  0.00000000000E+00 -0.00000000000E+00 -0.23858759600E+03  0.23859097607E+03  0.12700000000E+01 0. -1.
         25    2    1    2    0    0  0.00000000000E+00  0.00000000000E+00 -0.22224310903E+03  0.25498472958E+03  0.12500085122E+03 0.  0.
    9000005    1    3    3    0    0 -0.33501509378E+02 -0.46236915207E+02 -0.59311429972E+02  0.82334981532E+02  0.10000000000E+01 0.  0.
    9000005    1    3    3    0    0  0.33501509378E+02  0.46236915207E+02 -0.16293167906E+03  0.17264974805E+03  0.10000000000E+01 0.  0.
<mgrwt>
<rscale>  0 0.12500085E+03</rscale>
<asrwt>0</asrwt>
<pdfrwt beam="2">  1        4 0.36709831E-01 0.12500085E+03</pdfrwt>
<pdfrwt beam="1">  1       -4 0.25185864E-02 0.12500085E+03</pdfrwt>
<totfact> 0.81613529E+03</totfact>
</mgrwt>
</event>
<event>
 5    1  0.3316206E-002  0.1249982E+03  0.7818608E-02  0.1235072E+00
          4   -1    0    0  501    0  0.00000000000E+00  0.00000000000E+00  0.34209237747E+02  0.34232803672E+02  0.12700000000E+01 0.  1.
         -4   -1    0    0    0  501 -0.00000000000E+00 -0.00000000000E+00 -0.11411733923E+03  0.11412440586E+03  0.12700000000E+01 0.  1.
         25    2    1    2    0    0  0.00000000000E+00  0.00000000000E+00 -0.79908101482E+02  0.14835720953E+03  0.12499822774E+03 0.  0.
    9000005    1    3    3    0    0 -0.42613219844E+02 -0.12110989585E+02 -0.92265154507E+02  0.10235439077E+03  0.10000000000E+01 0.  0.
    9000005    1    3    3    0    0  0.42613219844E+02  0.12110989585E+02  0.12357053025E+02  0.46002818758E+02  0.10000000000E+01 0.  0.
<mgrwt>
<rscale>  0 0.12499823E+03</rscale>
<asrwt>0</asrwt>
<pdfrwt beam="1">  1        4 0.52653161E-02 0.12499823E+03</pdfrwt>
<pdfrwt beam="2">  1       -4 0.17558870E-01 0.12499823E+03</pdfrwt>
<totfact> 0.99636151E+03</totfact>
</mgrwt>
</event>
<event>
 5    1  0.3316206E-002  0.1249984E+03  0.7818608E-02  0.1235072E+00
          4   -1    0    0  501    0  0.00000000000E+00  0.00000000000E+00  0.64069955526E+02  0.64082541313E+02  0.12700000000E+01 0. -1.
         -4   -1    0    0    0  501 -0.00000000000E+00 -0.00000000000E+00 -0.60941799616E+02  0.60955031297E+02  0.12700000000E+01 0. -1.
         25    2    1    2    0    0  0.00000000000E+00  0.00000000000E+00  0.31281559107E+01  0.12503757261E+03  0.12499843681E+03 0.  0.
    9000005    1    3    3    0    0 -0.19495355974E+02 -0.17852522041E+02 -0.55078476146E+02  0.61101718325E+02  0.10000000000E+01 0.  0.
    9000005    1    3    3    0    0  0.19495355974E+02  0.17852522041E+02  0.58206632056E+02  0.63935854285E+02  0.10000000000E+01 0.  0.
<mgrwt>
<rscale>  0 0.12499844E+03</rscale>
<asrwt>0</asrwt>
<pdfrwt beam="1">  1        4 0.98589022E-02 0.12499844E+03</pdfrwt>
<pdfrwt beam="2">  1       -4 0.93776474E-02 0.12499844E+03</pdfrwt>
<totfact> 0.10452416E+04</totfact>
</mgrwt>
</event>
<event>
 5    1  0.3316206E-002  0.1249991E+03  0.7818608E-02  0.1235071E+00
         -4   -1    0    0    0  501 -0.00000000000E+00  0.00000000000E+00  0.73780616226E+01  0.74865675251E+01  0.12700000000E+01 0.  1.
          4   -1    0    0  501    0  0.00000000000E+00 -0.00000000000E+00 -0.52545973490E+03  0.52546126965E+03  0.12700000000E+01 0.  1.
         25    2    1    2    0    0  0.00000000000E+00  0.00000000000E+00 -0.51808167328E+03  0.53294783718E+03  0.12499910785E+03 0.  0.
    9000005    1    3    3    0    0  0.14642957183E+02 -0.42767058438E+02 -0.44300755452E+03  0.44530902848E+03  0.10000000000E+01 0.  0.
    9000005    1    3    3    0    0 -0.14642957183E+02  0.42767058438E+02 -0.75074118760E+02  0.87638808699E+02  0.10000000000E+01 0.  0.
<mgrwt>
<rscale>  0 0.12499911E+03</rscale>
<asrwt>0</asrwt>
<pdfrwt beam="2">  1        4 0.80848394E-01 0.12499911E+03</pdfrwt>
<pdfrwt beam="1">  1       -4 0.11435515E-02 0.12499911E+03</pdfrwt>
<totfact> 0.53396729E+03</totfact>
</mgrwt>
</event>
<event>
 5    1  0.3316206E-002  0.1249999E+03  0.7818608E-02  0.1235069E+00
          4   -1    0    0  501    0  0.00000000000E+00  0.00000000000E+00  0.23468425800E+02  0.23502763870E+02  0.12700000000E+01 0. -1.
         -4   -1    0    0    0  501 -0.00000000000E+00 -0.00000000000E+00 -0.16628843907E+03  0.16629328870E+03  0.12700000000E+01 0. -1.
         25    2    1    2    0    0  0.00000000000E+00  0.00000000000E+00 -0.14282001327E+03  0.18979605257E+03  0.12499994153E+03 0.  0.
    9000005    1    3    3    0    0  0.13922349328E+02  0.35690734394E+02  0.35547853769E+01  0.38487619197E+02  0.10000000000E+01 0.  0.
    9000005    1    3    3    0    0 -0.13922349328E+02 -0.35690734394E+02 -0.14637479865E+03  0.15130843338E+03  0.10000000000E+01 0.  0.
<mgrwt>
<rscale>  0 0.12499994E+03</rscale>
<asrwt>0</asrwt>
<pdfrwt beam="1">  1        4 0.36135416E-02 0.12499994E+03</pdfrwt>
<pdfrwt beam="2">  1       -4 0.25585850E-01 0.12499994E+03</pdfrwt>
<totfact> 0.91882933E+03</totfact>
</mgrwt>
</event>
<event>
 5    1  0.3316206E-002  0.1249963E+03  0.7818608E-02  0.1235075E+00
          4   -1    0    0  501    0  0.00000000000E+00  0.00000000000E+00  0.94847795678E+02  0.94856297867E+02  0.12700000000E+01 0. -1.
         -4   -1    0    0    0  501 -0.00000000000E+00 -0.00000000000E+00 -0.41161830520E+02  0.41181418040E+02  0.12700000000E+01 0. -1.
         25    2    1    2    0    0  0.00000000000E+00  0.00000000000E+00  0.53685965158E+02  0.13603771591E+03  0.12499630912E+03 0.  0.
    9000005    1    3    3    0    0 -0.56466712935E+02  0.28754193122E+01  0.55807013040E+02  0.79449231654E+02  0.10000000000E+01 0.  0.
    9000005    1    3    3    0    0  0.56466712935E+02 -0.28754193122E+01 -0.21210478821E+01  0.56588484253E+02  0.10000000000E+01 0.  0.
<mgrwt>
<rscale>  0 0.12499631E+03</rscale>
<asrwt>0</asrwt>
<pdfrwt beam="1">  1        4 0.14594129E-01 0.12499631E+03</pdfrwt>
<pdfrwt beam="2">  1       -4 0.63347500E-02 0.12499631E+03</pdfrwt>
<totfact> 0.10217095E+04</totfact>
</mgrwt>
</event>
<event>
 5    1  0.3316206E-002  0.1249961E+03  0.7818608E-02  0.1235075E+00
          4   -1    0    0  501    0  0.00000000000E+00  0.00000000000E+00  0.12549913088E+03  0.12550555666E+03  0.12700000000E+01 0.  1.
         -4   -1    0    0    0  501 -0.00000000000E+00 -0.00000000000E+00 -0.31103594848E+02  0.31129511921E+02  0.12700000000E+01 0.  1.
         25    2    1    2    0    0  0.00000000000E+00  0.00000000000E+00  0.94395536036E+02  0.15663506858E+03  0.12499610988E+03 0.  0.
    9000005    1    3    3    0    0 -0.12036450866E+02  0.15664505896E+02 -0.27093876149E+02  0.33545953842E+02  0.10000000000E+01 0.  0.
    9000005    1    3    3    0    0  0.12036450866E+02 -0.15664505896E+02  0.12148941218E+03  0.12308911474E+03  0.10000000000E+01 0.  0.
<mgrwt>
<rscale>  0 0.12499611E+03</rscale>
<asrwt>0</asrwt>
<pdfrwt beam="1">  1        4 0.19310047E-01 0.12499611E+03</pdfrwt>
<pdfrwt beam="2">  1       -4 0.47876563E-02 0.12499611E+03</pdfrwt>
<totfact> 0.98004040E+03</totfact>
</mgrwt>
</event>
<event>
 5    1  0.3316206E-002  0.1250002E+03  0.7818608E-02  0.1235069E+00
         -4   -1    0    0    0  501 -0.00000000000E+00  0.00000000000E+00  0.14814585807E+03  0.14815130160E+03  0.12700000000E+01 0. -1.
          4   -1    0    0  501    0  0.00000000000E+00 -0.00000000000E+00 -0.26346460651E+02  0.26377052315E+02  0.12700000000E+01 0. -1.
         25    2    1    2    0    0  0.00000000000E+00  0.00000000000E+00  0.12179939742E+03  0.17452835391E+03  0.12500021243E+03 0.  0.
    9000005    1    3    3    0    0 -0.20163271803E+01 -0.11257578580E+02 -0.24879684925E+02  0.27400681976E+02  0.10000000000E+01 0.  0.
    9000005    1    3    3    0    0  0.20163271803E+01  0.11257578580E+02  0.14667908235E+03  0.14712767194E+03  0.10000000000E+01 0.  0.
<mgrwt>
<rscale>  0 0.12500021E+03</rscale>
<asrwt>0</asrwt>
<pdfrwt beam="2">  1        4 0.40560735E-02 0.12500021E+03</pdfrwt>
<pdfrwt beam="1">  1       -4 0.22794443E-01 0.12500021E+03</pdfrwt>
<totfact> 0.94610841E+03</totfact>
</mgrwt>
</event>
<event>
 5    1  0.3316206E-002  0.1250044E+03  0.7818608E-02  0.1235062E+00
         -4   -1    0    0    0  501 -0.00000000000E+00  0.00000000000E+00  0.51680102235E+03  0.51680258282E+03  0.12700000000E+01 0. -1.
          4   -1    0    0  501    0  0.00000000000E+00 -0.00000000000E+00 -0.75041203645E+01  0.76108292876E+01  0.12700000000E+01 0. -1.
         25    2    1    2    0    0  0.00000000000E+00  0.00000000000E+00  0.50929690199E+03  0.52441341210E+03  0.12500436960E+03 0.  0.
    9000005    1    3    3    0    0  0.13946685741E+01  0.15695426029E-01  0.51675629224E+03  0.51675914207E+03  0.10000000000E+01 0.  0.
    9000005    1    3    3    0    0 -0.13946685741E+01 -0.15695426029E-01 -0.74593902512E+01  0.76542700304E+01  0.10000000000E+01 0.  0.
<mgrwt>
<rscale>  0 0.12500437E+03</rscale>
<asrwt>0</asrwt>
<pdfrwt beam="2">  1        4 0.11628080E-02 0.12500437E+03</pdfrwt>
<pdfrwt beam="1">  1       -4 0.79516208E-01 0.12500437E+03</pdfrwt>
<totfact> 0.54013520E+03</totfact>
</mgrwt>
</event>
<event>
 5    1  0.3316206E-002  0.1249915E+03  0.7818608E-02  0.1235083E+00
         -4   -1    0    0    0  501 -0.00000000000E+00  0.00000000000E+00  0.78839519959E+02  0.78849748303E+02  0.12700000000E+01 0. -1.
          4   -1    0    0  501    0  0.00000000000E+00 -0.00000000000E+00 -0.49518556111E+02  0.49534839248E+02  0.12700000000E+01 0. -1.
         25    2    1    2    0    0  0.00000000000E+00  0.00000000000E+00  0.29320963848E+02  0.12838458755E+03  0.12499153331E+03 0.  0.
    9000005    1    3    3    0    0 -0.94656671610E-02 -0.52866360344E+02 -0.19558579807E+02  0.56377213390E+02  0.10000000000E+01 0.  0.
    9000005    1    3    3    0    0  0.94656671610E-02  0.52866360344E+02  0.48879543655E+02  0.72007374161E+02  0.10000000000E+01 0.  0.
<mgrwt>
<rscale>  0 0.12499153E+03</rscale>
<asrwt>0</asrwt>
<pdfrwt beam="2">  1        4 0.76202788E-02 0.12499153E+03</pdfrwt>
<pdfrwt beam="1">  1       -4 0.12131196E-01 0.12499153E+03</pdfrwt>
<totfact> 0.10381174E+04</totfact>
</mgrwt>
</event>
<event>
 5    1  0.3316206E-002  0.1249965E+03  0.7818608E-02  0.1235075E+00
          4   -1    0    0  501    0  0.00000000000E+00  0.00000000000E+00  0.10307265580E+02  0.10385211781E+02  0.12700000000E+01 0. -1.
         -4   -1    0    0    0  501 -0.00000000000E+00 -0.00000000000E+00 -0.37745250684E+03  0.37745464340E+03  0.12700000000E+01 0. -1.
         25    2    1    2    0    0  0.00000000000E+00  0.00000000000E+00 -0.36714524126E+03  0.38783985518E+03  0.12499650028E+03 0.  0.
    9000005    1    3    3    0    0  0.40682140427E+02  0.47279287501E+02 -0.19545425761E+03  0.20516757637E+03  0.10000000000E+01 0.  0.
    9000005    1    3    3    0    0 -0.40682140427E+02 -0.47279287501E+02 -0.17169098366E+03  0.18267227881E+03  0.10000000000E+01 0.  0.
<mgrwt>
<rscale>  0 0.12499650E+03</rscale>
<asrwt>0</asrwt>
<pdfrwt beam="1">  1        4 0.15918937E-02 0.12499650E+03</pdfrwt>
<pdfrwt beam="2">  1       -4 0.58075766E-01 0.12499650E+03</pdfrwt>
<totfact> 0.65757994E+03</totfact>
</mgrwt>
</event>
<event>
 5    1  0.3316206E-002  0.1250005E+03  0.7818608E-02  0.1235068E+00
         -4   -1    0    0    0  501 -0.00000000000E+00  0.00000000000E+00  0.14342354038E+02  0.14398472814E+02  0.12700000000E+01 0.  1.
          4   -1    0    0  501    0  0.00000000000E+00 -0.00000000000E+00 -0.27177044407E+03  0.27177341145E+03  0.12700000000E+01 0.  1.
         25    2    1    2    0    0  0.00000000000E+00  0.00000000000E+00 -0.25742809003E+03  0.28617188426E+03  0.12500050322E+03 0.  0.
    9000005    1    3    3    0    0 -0.37977648063E+01 -0.45773802421E+02 -0.22572529709E+03  0.23035315008E+03  0.10000000000E+01 0.  0.
    9000005    1    3    3    0    0  0.37977648063E+01  0.45773802421E+02 -0.31702792949E+02  0.55818734189E+02  0.10000000000E+01 0.  0.
<mgrwt>
<rscale>  0 0.12500050E+03</rscale>
<asrwt>0</asrwt>
<pdfrwt beam="2">  1        4 0.41815379E-01 0.12500050E+03</pdfrwt>
<pdfrwt beam="1">  1       -4 0.22110613E-02 0.12500050E+03</pdfrwt>
<totfact> 0.77365948E+03</totfact>
</mgrwt>
</event>
<event>
 5    1  0.3316206E-002  0.1250014E+03  0.7818608E-02  0.1235067E+00
         -4   -1    0    0    0  501 -0.00000000000E+00  0.00000000000E+00  0.24035324386E+04  0.24035327742E+04  0.12700000000E+01 0. -1.
          4   -1    0    0  501    0  0.00000000000E+00 -0.00000000000E+00 -0.13767597609E+01  0.18730636506E+01  0.12700000000E+01 0. -1.
         25    2    1    2    0    0  0.00000000000E+00  0.00000000000E+00  0.24021556789E+04  0.24054058378E+04  0.12500135614E+03 0.  0.
    9000005    1    3    3    0    0  0.35569129133E+02 -0.13685303727E+01  0.21894844405E+04  0.21897739954E+04  0.10000000000E+01 0.  0.
    9000005    1    3    3    0    0 -0.35569129133E+02  0.13685303727E+01  0.21267123842E+03  0.21563184244E+03  0.10000000000E+01 0.  0.
<mgrwt>
<rscale>  0 0.12500136E+03</rscale>
<asrwt>0</asrwt>
<pdfrwt beam="2">  1        4 0.25001305E-03 0.12500136E+03</pdfrwt>
<pdfrwt beam="1">  1       -4 0.36981121E+00 0.12500136E+03</pdfrwt>
<totfact> 0.54556120E+02</totfact>
</mgrwt>
</event>
<event>
 5    1  0.3316206E-002  0.1250173E+03  0.7818608E-02  0.1235042E+00
         -4   -1    0    0    0  501 -0.00000000000E+00  0.00000000000E+00  0.25345537426E+03  0.25345855607E+03  0.12700000000E+01 0.  1.
          4   -1    0    0  501    0  0.00000000000E+00 -0.00000000000E+00 -0.15386811763E+02  0.15439134569E+02  0.12700000000E+01 0.  1.
         25    2    1    2    0    0  0.00000000000E+00  0.00000000000E+00  0.23806856250E+03  0.26889769064E+03  0.12501730911E+03 0.  0.
    9000005    1    3    3    0    0 -0.48989121884E+02 -0.30871903302E+02  0.16962914737E+03  0.17924300855E+03  0.10000000000E+01 0.  0.
    9000005    1    3    3    0    0  0.48989121884E+02  0.30871903302E+02  0.68439415131E+02  0.89654682086E+02  0.10000000000E+01 0.  0.
<mgrwt>
<rscale>  0 0.12501731E+03</rscale>
<asrwt>0</asrwt>
<pdfrwt beam="2">  1        4 0.23714715E-02 0.12501731E+03</pdfrwt>
<pdfrwt beam="1">  1       -4 0.38997403E-01 0.12501731E+03</pdfrwt>
<totfact> 0.79642717E+03</totfact>
</mgrwt>
</event>
<event>
 5    1  0.3316206E-002  0.1250037E+03  0.7818608E-02  0.1235063E+00
         -4   -1    0    0    0  501 -0.00000000000E+00  0.00000000000E+00  0.59330444278E+02  0.59344035237E+02  0.12700000000E+01 0. -1.
          4   -1    0    0  501    0  0.00000000000E+00 -0.00000000000E+00 -0.65815550290E+02  0.65827802333E+02  0.12700000000E+01 0. -1.
         25    2    1    2    0    0  0.00000000000E+00  0.00000000000E+00 -0.64851060114E+01  0.12517183757E+03  0.12500372923E+03 0.  0.
    9000005    1    3    3    0    0 -0.51080154553E+02  0.35630341815E+02  0.19393105175E+01  0.62317448377E+02  0.10000000000E+01 0.  0.
    9000005    1    3    3    0    0  0.51080154553E+02 -0.35630341815E+02 -0.84244165290E+01  0.62854389193E+02  0.10000000000E+01 0.  0.
<mgrwt>
<rscale>  0 0.12500373E+03</rscale>
<asrwt>0</asrwt>
<pdfrwt beam="2">  1        4 0.10127457E-01 0.12500373E+03</pdfrwt>
<pdfrwt beam="1">  1       -4 0.91297486E-02 0.12500373E+03</pdfrwt>
<totfact> 0.10448251E+04</totfact>
</mgrwt>
</event>
<event>
 5    1  0.3316206E-002  0.1250031E+03  0.7818608E-02  0.1235064E+00
          4   -1    0    0  501    0  0.00000000000E+00  0.00000000000E+00  0.91216621891E+02  0.91225462505E+02  0.12700000000E+01 0.  1.
         -4   -1    0    0    0  501 -0.00000000000E+00 -0.00000000000E+00 -0.42805656485E+02  0.42824492141E+02  0.12700000000E+01 0.  1.
         25    2    1    2    0    0  0.00000000000E+00  0.00000000000E+00  0.48410965406E+02  0.13404995465E+03  0.12500307504E+03 0.  0.
    9000005    1    3    3    0    0 -0.52702162042E+02 -0.10067092843E+02 -0.10153630048E+02  0.54616485107E+02  0.10000000000E+01 0.  0.
    9000005    1    3    3    0    0  0.52702162042E+02  0.10067092843E+02  0.58564595455E+02  0.79433469539E+02  0.10000000000E+01 0.  0.
<mgrwt>
<rscale>  0 0.12500308E+03</rscale>
<asrwt>0</asrwt>
<pdfrwt beam="1">  1        4 0.14035455E-01 0.12500308E+03</pdfrwt>
<pdfrwt beam="2">  1       -4 0.65876146E-02 0.12500308E+03</pdfrwt>
<totfact> 0.10257423E+04</totfact>
</mgrwt>
</event>
<event>
 5    1  0.3316206E-002  0.1250022E+03  0.7818608E-02  0.1235066E+00
          4   -1    0    0  501    0  0.00000000000E+00  0.00000000000E+00  0.23857142040E+04  0.23857145421E+04  0.12700000000E+01 0. -1.
         -4   -1    0    0    0  501 -0.00000000000E+00 -0.00000000000E+00 -0.13907600708E+01  0.18833782346E+01  0.12700000000E+01 0. -1.
         25    2    1    2    0    0  0.00000000000E+00  0.00000000000E+00  0.23843234440E+04  0.23875979203E+04  0.12500217436E+03 0.  0.
    9000005    1    3    3    0    0 -0.40054587889E+02 -0.30715886552E+02  0.18959168521E+04  0.18965889238E+04  0.10000000000E+01 0.  0.
    9000005    1    3    3    0    0  0.40054587889E+02  0.30715886552E+02  0.48840659188E+03  0.49100899655E+03  0.10000000000E+01 0.  0.
<mgrwt>
<rscale>  0 0.12500217E+03</rscale>
<asrwt>0</asrwt>
<pdfrwt beam="1">  1        4 0.36707243E+00 0.12500217E+03</pdfrwt>
<pdfrwt beam="2">  1       -4 0.25188173E-03 0.12500217E+03</pdfrwt>
<totfact> 0.56131821E+02</totfact>
</mgrwt>
</event>
<event>
 5    1  0.3316206E-002  0.1249405E+03  0.7818608E-02  0.1235162E+00
          4   -1    0    0  501    0  0.00000000000E+00  0.00000000000E+00  0.45698578890E+01  0.47430476622E+01  0.12700000000E+01 0.  1.
         -4   -1    0    0    0  501 -0.00000000000E+00 -0.00000000000E+00 -0.83791720958E+03  0.83791817202E+03  0.12700000000E+01 0.  1.
         25    2    1    2    0    0  0.00000000000E+00  0.00000000000E+00 -0.83334735169E+03  0.84266121968E+03  0.12494047621E+03 0.  0.
    9000005    1    3    3    0    0  0.48529420922E+02 -0.12952760062E+02 -0.66709838155E+03  0.66898739102E+03  0.10000000000E+01 0.  0.
    9000005    1    3    3    0    0 -0.48529420922E+02  0.12952760062E+02 -0.16624897014E+03  0.17367382866E+03  0.10000000000E+01 0.  0.
<mgrwt>
<rscale>  0 0.12494048E+03</rscale>
<asrwt>0</asrwt>
<pdfrwt beam="1">  1        4 0.71645205E-03 0.12494048E+03</pdfrwt>
<pdfrwt beam="2">  1       -4 0.12892362E+00 0.12494048E+03</pdfrwt>
<totfact> 0.36476955E+03</totfact>
</mgrwt>
</event>
<event>
 5    1  0.3316206E-002  0.1249979E+03  0.7818608E-02  0.1235073E+00
         -4   -1    0    0    0  501 -0.00000000000E+00  0.00000000000E+00  0.12600007034E+04  0.12600013434E+04  0.12700000000E+01 0.  1.
          4   -1    0    0  501    0  0.00000000000E+00 -0.00000000000E+00 -0.29693549984E+01  0.32295462694E+01  0.12700000000E+01 0.  1.
         25    2    1    2    0    0  0.00000000000E+00  0.00000000000E+00  0.12570313484E+04  0.12632308897E+04  0.12499787938E+03 0.  0.
    9000005    1    3    3    0    0  0.53476811228E+02 -0.32274029263E+02  0.64804712946E+03  0.65105104585E+03  0.10000000000E+01 0.  0.
    9000005    1    3    3    0    0 -0.53476811228E+02  0.32274029263E+02  0.60898421895E+03  0.61217984387E+03  0.10000000000E+01 0.  0.
<mgrwt>
<rscale>  0 0.12499788E+03</rscale>
<asrwt>0</asrwt>
<pdfrwt beam="2">  1        4 0.47688803E-03 0.12499788E+03</pdfrwt>
<pdfrwt beam="1">  1       -4 0.19386623E+00 0.12499788E+03</pdfrwt>
<totfact> 0.23114391E+03</totfact>
</mgrwt>
</event>
<event>
 5    1  0.3316206E-002  0.1249984E+03  0.7818608E-02  0.1235072E+00
         -4   -1    0    0    0  501 -0.00000000000E+00  0.00000000000E+00  0.63637514677E+02  0.63650185972E+02  0.12700000000E+01 0. -1.
          4   -1    0    0  501    0  0.00000000000E+00 -0.00000000000E+00 -0.61355936982E+02  0.61369079372E+02  0.12700000000E+01 0. -1.
         25    2    1    2    0    0  0.00000000000E+00  0.00000000000E+00  0.22815776946E+01  0.12501926534E+03  0.12499844443E+03 0.  0.
    9000005    1    3    3    0    0 -0.17571810588E+02  0.59891819631E+02  0.41997605884E+01  0.62565458321E+02  0.10000000000E+01 0.  0.
    9000005    1    3    3    0    0  0.17571810588E+02 -0.59891819631E+02 -0.19181828938E+01  0.62453807022E+02  0.10000000000E+01 0.  0.
<mgrwt>
<rscale>  0 0.12499844E+03</rscale>
<asrwt>0</asrwt>
<pdfrwt beam="2">  1        4 0.94413606E-02 0.12499844E+03</pdfrwt>
<pdfrwt beam="1">  1       -4 0.97923725E-02 0.12499844E+03</pdfrwt>
<totfact> 0.10452812E+04</totfact>
</mgrwt>
</event>
<event>
 5    1  0.3316206E-002  0.1249982E+03  0.7818608E-02  0.1235072E+00
          4   -1    0    0  501    0  0.00000000000E+00  0.00000000000E+00  0.30394559874E+02  0.30421081012E+02  0.12700000000E+01 0. -1.
         -4   -1    0    0    0  501 -0.00000000000E+00 -0.00000000000E+00 -0.12842875723E+03  0.12843503643E+03  0.12700000000E+01 0. -1.
         25    2    1    2    0    0  0.00000000000E+00  0.00000000000E+00 -0.98034197351E+02  0.15885611744E+03  0.12499824878E+03 0.  0.
    9000005    1    3    3    0    0 -0.44218531755E+02  0.40759695424E+02 -0.70603481237E+02  0.92749570805E+02  0.10000000000E+01 0.  0.
    9000005    1    3    3    0    0  0.44218531755E+02 -0.40759695424E+02 -0.27430716114E+02  0.66106546636E+02  0.10000000000E+01 0.  0.
<mgrwt>
<rscale>  0 0.12499825E+03</rscale>
<asrwt>0</asrwt>
<pdfrwt beam="1">  1        4 0.46786093E-02 0.12499825E+03</pdfrwt>
<pdfrwt beam="2">  1       -4 0.19760793E-01 0.12499825E+03</pdfrwt>
<totfact> 0.97567612E+03</totfact>
</mgrwt>
</event>
<event>
 5    1  0.3316206E-002  0.1249999E+03  0.7818608E-02  0.1235069E+00
          4   -1    0    0  501    0  0.00000000000E+00  0.00000000000E+00  0.48608610504E+03  0.48608776410E+03  0.12700000000E+01 0.  1.
         -4   -1    0    0    0  501 -0.00000000000E+00 -0.00000000000E+00 -0.79842600366E+01  0.80846340877E+01  0.12700000000E+01 0.  1.
         25    2    1    2    0    0  0.00000000000E+00  0.00000000000E+00  0.47810184500E+03  0.49417239819E+03  0.12499993976E+03 0.  0.
    9000005    1    3    3    0    0  0.44755352154E+02  0.32585479025E+01  0.67108995448E+02  0.80735846753E+02  0.10000000000E+01 0.  0.
    9000005    1    3    3    0    0 -0.44755352154E+02 -0.32585479025E+01  0.41099284955E+03  0.41343655144E+03  0.10000000000E+01 0.  0.
<mgrwt>
<rscale>  0 0.12499994E+03</rscale>
<asrwt>0</asrwt>
<pdfrwt beam="1">  1        4 0.74790358E-01 0.12499994E+03</pdfrwt>
<pdfrwt beam="2">  1       -4 0.12361959E-02 0.12499994E+03</pdfrwt>
<totfact> 0.56319426E+03</totfact>
</mgrwt>
</event>
<event>
 5    1  0.3316206E-002  0.1249996E+03  0.7818608E-02  0.1235070E+00
          4   -1    0    0  501    0  0.00000000000E+00  0.00000000000E+00  0.20953852445E+02  0.20992304120E+02  0.12700000000E+01 0. -1.
         -4   -1    0    0    0  501 -0.00000000000E+00 -0.00000000000E+00 -0.18620875602E+03  0.18621308686E+03  0.12700000000E+01 0. -1.
         25    2    1    2    0    0  0.00000000000E+00  0.00000000000E+00 -0.16525490358E+03  0.20720539098E+03  0.12499956359E+03 0.  0.
    9000005    1    3    3    0    0  0.16885332058E+02 -0.28915518561E+01  0.16993623925E+02  0.24150750815E+02  0.10000000000E+01 0.  0.
    9000005    1    3    3    0    0 -0.16885332058E+02  0.28915518561E+01 -0.18224852750E+03  0.18305464017E+03  0.10000000000E+01 0.  0.
<mgrwt>
<rscale>  0 0.12499956E+03</rscale>
<asrwt>0</asrwt>
<pdfrwt beam="1">  1        4 0.32269607E-02 0.12499956E+03</pdfrwt>
<pdfrwt beam="2">  1       -4 0.28650791E-01 0.12499956E+03</pdfrwt>
<totfact> 0.88935189E+03</totfact>
</mgrwt>
</event>
<event>
 5    1  0.3316206E-002  0.1250181E+03  0.7818608E-02  0.1235041E+00
         -4   -1    0    0    0  501 -0.00000000000E+00  0.00000000000E+00  0.54075976622E+02  0.54090887843E+02  0.12700000000E+01 0.  1.
          4   -1    0    0  501    0  0.00000000000E+00 -0.00000000000E+00 -0.72226743156E+02  0.72237907825E+02  0.12700000000E+01 0.  1.
         25    2    1    2    0    0  0.00000000000E+00  0.00000000000E+00 -0.18150766534E+02  0.12632879567E+03  0.12501805585E+03 0.  0.
    9000005    1    3    3    0    0  0.39541159390E+02 -0.13590843100E-01  0.39835351091E+02  0.56136963466E+02  0.10000000000E+01 0.  0.
    9000005    1    3    3    0    0 -0.39541159390E+02  0.13590843100E-01 -0.57986117625E+02  0.70191832202E+02  0.10000000000E+01 0.  0.
<mgrwt>
<rscale>  0 0.12501806E+03</rscale>
<asrwt>0</asrwt>
<pdfrwt beam="2">  1        4 0.11113812E-01 0.12501806E+03</pdfrwt>
<pdfrwt beam="1">  1       -4 0.83213869E-02 0.12501806E+03</pdfrwt>
<totfact> 0.10419518E+04</totfact>
</mgrwt>
</event>
<event>
 5    1  0.3316206E-002  0.1249975E+03  0.7818608E-02  0.1235073E+00
         -4   -1    0    0    0  501 -0.00000000000E+00  0.00000000000E+00  0.16678219552E+02  0.16726503144E+02  0.12700000000E+01 0. -1.
          4   -1    0    0  501    0  0.00000000000E+00 -0.00000000000E+00 -0.23381489679E+03  0.23381834587E+03  0.12700000000E+01 0. -1.
         25    2    1    2    0    0  0.00000000000E+00  0.00000000000E+00 -0.21713667724E+03  0.25054484901E+03  0.12499753902E+03 0.  0.
    9000005    1    3    3    0    0 -0.35940410482E+01  0.20973398394E+02  0.92025642211E+01  0.23205339030E+02  0.10000000000E+01 0.  0.
    9000005    1    3    3    0    0  0.35940410482E+01 -0.20973398394E+02 -0.22633924146E+03  0.22733950998E+03  0.10000000000E+01 0.  0.
<mgrwt>
<rscale>  0 0.12499754E+03</rscale>
<asrwt>0</asrwt>
<pdfrwt beam="2">  1        4 0.35975500E-01 0.12499754E+03</pdfrwt>
<pdfrwt beam="1">  1       -4 0.25698595E-02 0.12499754E+03</pdfrwt>
<totfact> 0.82256054E+03</totfact>
</mgrwt>
</event>
<event>
 5    1  0.3316206E-002  0.1250011E+03  0.7818608E-02  0.1235067E+00
          4   -1    0    0  501    0  0.00000000000E+00  0.00000000000E+00  0.10979434475E+04  0.10979441820E+04  0.12700000000E+01 0.  1.
         -4   -1    0    0    0  501 -0.00000000000E+00 -0.00000000000E+00 -0.34437601849E+01  0.36704746574E+01  0.12700000000E+01 0.  1.
         25    2    1    2    0    0  0.00000000000E+00  0.00000000000E+00  0.10944996873E+04  0.11016146566E+04  0.12500114499E+03 0.  0.
    9000005    1    3    3    0    0 -0.12629175030E+02 -0.64422052171E+01  0.10836268688E+04  0.10837200694E+04  0.10000000000E+01 0.  0.
    9000005    1    3    3    0    0  0.12629175030E+02  0.64422052171E+01  0.10872818485E+02  0.17894587221E+02  0.10000000000E+01 0.  0.
<mgrwt>
<rscale>  0 0.12500114E+03</rscale>
<asrwt>0</asrwt>
<pdfrwt beam="1">  1        4 0.16893192E+00 0.12500114E+03</pdfrwt>
<pdfrwt beam="2">  1       -4 0.54730518E-03 0.12500114E+03</pdfrwt>
<totfact> 0.27435486E+03</totfact>
</mgrwt>
</event>
<event>
 5    1  0.3316206E-002  0.1249995E+03  0.7818608E-02  0.1235070E+00
         -4   -1    0    0    0  501 -0.00000000000E+00  0.00000000000E+00  0.44141088224E+03  0.44141270922E+03  0.12700000000E+01 0.  1.
          4   -1    0    0  501    0  0.00000000000E+00 -0.00000000000E+00 -0.88019678461E+01  0.88931174491E+01  0.12700000000E+01 0.  1.
         25    2    1    2    0    0  0.00000000000E+00  0.00000000000E+00  0.43260891440E+03  0.45030582667E+03  0.12499945887E+03 0.  0.
    9000005    1    3    3    0    0  0.54704730473E+02  0.15027765028E+02  0.12189692452E+03  0.13445557432E+03  0.10000000000E+01 0.  0.
    9000005    1    3    3    0    0 -0.54704730473E+02 -0.15027765028E+02  0.31071198988E+03  0.31585025235E+03  0.10000000000E+01 0.  0.
<mgrwt>
<rscale>  0 0.12499946E+03</rscale>
<asrwt>0</asrwt>
<pdfrwt beam="2">  1        4 0.13613011E-02 0.12499946E+03</pdfrwt>
<pdfrwt beam="1">  1       -4 0.67916513E-01 0.12499946E+03</pdfrwt>
<totfact> 0.59938026E+03</totfact>
</mgrwt>
</event>
<event>
 5    1  0.3316206E-002  0.1249998E+03  0.7818608E-02  0.1235070E+00
         -4   -1    0    0    0  501 -0.00000000000E+00  0.00000000000E+00  0.19245361552E+02  0.19287219636E+02  0.12700000000E+01 0. -1.
          4   -1    0    0  501    0  0.00000000000E+00 -0.00000000000E+00 -0.20270589364E+03  0.20270987203E+03  0.12700000000E+01 0. -1.
         25    2    1    2    0    0  0.00000000000E+00  0.00000000000E+00 -0.18346053209E+03  0.22199709166E+03  0.12499976749E+03 0.  0.
    9000005    1    3    3    0    0  0.28023597505E+02 -0.46315130276E+02 -0.36280364938E+02  0.65174214146E+02  0.10000000000E+01 0.  0.
    9000005    1    3    3    0    0 -0.28023597505E+02  0.46315130276E+02 -0.14718016715E+03  0.15682287752E+03  0.10000000000E+01 0.  0.
<mgrwt>
<rscale>  0 0.12499977E+03</rscale>
<asrwt>0</asrwt>
<pdfrwt beam="2">  1        4 0.31189046E-01 0.12499977E+03</pdfrwt>
<pdfrwt beam="1">  1       -4 0.29643509E-02 0.12499977E+03</pdfrwt>
<totfact> 0.86553769E+03</totfact>
</mgrwt>
</event>
<event>
 5    1  0.3316206E-002  0.1249998E+03  0.7818608E-02  0.1235070E+00
          4   -1    0    0  501    0  0.00000000000E+00  0.00000000000E+00  0.87041425061E+02  0.87050689696E+02  0.12700000000E+01 0.  1.
         -4   -1    0    0    0  501 -0.00000000000E+00 -0.00000000000E+00 -0.44857272825E+02  0.44875247356E+02  0.12700000000E+01 0.  1.
         25    2    1    2    0    0  0.00000000000E+00  0.00000000000E+00  0.42184152236E+02  0.13192593705E+03  0.12499980067E+03 0.  0.
    9000005    1    3    3    0    0  0.10700889437E+02  0.33606153340E+02 -0.33354712452E+02  0.48553263740E+02  0.10000000000E+01 0.  0.
    9000005    1    3    3    0    0 -0.10700889437E+02 -0.33606153340E+02  0.75538864688E+02  0.83372673313E+02  0.10000000000E+01 0.  0.
<mgrwt>
<rscale>  0 0.12499980E+03</rscale>
<asrwt>0</asrwt>
<pdfrwt beam="1">  1        4 0.13393084E-01 0.12499980E+03</pdfrwt>
<pdfrwt beam="2">  1       -4 0.69032142E-02 0.12499980E+03</pdfrwt>
<totfact> 0.10303326E+04</totfact>
</mgrwt>
</event>
<event>
 5    1  0.3316206E-002  0.1249969E+03  0.7818608E-02  0.1235074E+00
          4   -1    0    0  501    0  0.00000000000E+00  0.00000000000E+00  0.21958197761E+02  0.21994893701E+02  0.12700000000E+01 0. -1.
         -4   -1    0    0    0  501 -0.00000000000E+00 -0.00000000000E+00 -0.17769867108E+03  0.17770320933E+03  0.12700000000E+01 0. -1.
         25    2    1    2    0    0  0.00000000000E+00  0.00000000000E+00 -0.15574047332E+03  0.19969810303E+03  0.12499694925E+03 0.  0.
    9000005    1    3    3    0    0 -0.59880174848E+02  0.16030921360E+02 -0.65246627381E+02  0.90004156371E+02  0.10000000000E+01 0.  0.
    9000005    1    3    3    0    0  0.59880174848E+02 -0.16030921360E+02 -0.90493845941E+02  0.10969394665E+03  0.10000000000E+01 0.  0.
<mgrwt>
<rscale>  0 0.12499695E+03</rscale>
<asrwt>0</asrwt>
<pdfrwt beam="1">  1        4 0.33813563E-02 0.12499695E+03</pdfrwt>
<pdfrwt beam="2">  1       -4 0.27341428E-01 0.12499695E+03</pdfrwt>
<totfact> 0.90192606E+03</totfact>
</mgrwt>
</event>
<event>
 5    1  0.3316206E-002  0.1249964E+03  0.7818608E-02  0.1235075E+00
          4   -1    0    0  501    0  0.00000000000E+00  0.00000000000E+00  0.35051896920E+03  0.35052126992E+03  0.12700000000E+01 0.  1.
         -4   -1    0    0    0  501 -0.00000000000E+00 -0.00000000000E+00 -0.11105025498E+02  0.11177409866E+02  0.12700000000E+01 0.  1.
         25    2    1    2    0    0  0.00000000000E+00  0.00000000000E+00  0.33941394370E+03  0.36169867979E+03  0.12499643908E+03 0.  0.
    9000005    1    3    3    0    0 -0.47002174509E+01  0.62312734619E+02  0.17040689295E+03  0.18150613792E+03  0.10000000000E+01 0.  0.
    9000005    1    3    3    0    0  0.47002174509E+01 -0.62312734619E+02  0.16900705075E+03  0.18019254187E+03  0.10000000000E+01 0.  0.
<mgrwt>
<rscale>  0 0.12499644E+03</rscale>
<asrwt>0</asrwt>
<pdfrwt beam="1">  1        4 0.53931735E-01 0.12499644E+03</pdfrwt>
<pdfrwt beam="2">  1       -4 0.17142106E-02 0.12499644E+03</pdfrwt>
<totfact> 0.68461839E+03</totfact>
</mgrwt>
</event>
<event>
 5    1  0.3316206E-002  0.1249899E+03  0.7818608E-02  0.1235085E+00
          4   -1    0    0  501    0  0.00000000000E+00  0.00000000000E+00  0.21923612455E+02  0.21960366187E+02  0.12700000000E+01 0.  1.
         -4   -1    0    0    0  501 -0.00000000000E+00 -0.00000000000E+00 -0.17795835762E+03  0.17796288924E+03  0.12700000000E+01 0.  1.
         25    2    1    2    0    0  0.00000000000E+00  0.00000000000E+00 -0.15603474517E+03  0.19992325543E+03  0.12498986504E+03 0.  0.
    9000005    1    3    3    0    0 -0.59526976856E+02 -0.27026474818E+01 -0.10810576066E+03  0.12344480858E+03  0.10000000000E+01 0.  0.
    9000005    1    3    3    0    0  0.59526976856E+02  0.27026474818E+01 -0.47928984508E+02  0.76478446853E+02  0.10000000000E+01 0.  0.
<mgrwt>
<rscale>  0 0.12498987E+03</rscale>
<asrwt>0</asrwt>
<pdfrwt beam="1">  1        4 0.33760394E-02 0.12498987E+03</pdfrwt>
<pdfrwt beam="2">  1       -4 0.27381384E-01 0.12498987E+03</pdfrwt>
<totfact> 0.90168900E+03</totfact>
</mgrwt>
</event>
<event>
 5    1  0.3316206E-002  0.1249989E+03  0.7818608E-02  0.1235071E+00
         -4   -1    0    0    0  501 -0.00000000000E+00  0.00000000000E+00  0.21747724388E+03  0.21748095206E+03  0.12700000000E+01 0. -1.
          4   -1    0    0  501    0  0.00000000000E+00 -0.00000000000E+00 -0.17935027337E+02  0.17979936195E+02  0.12700000000E+01 0. -1.
         25    2    1    2    0    0  0.00000000000E+00  0.00000000000E+00  0.19954221655E+03  0.23546088825E+03  0.12499893484E+03 0.  0.
    9000005    1    3    3    0    0 -0.28323202136E+02  0.40588475766E+02  0.27904554709E+02  0.56826862642E+02  0.10000000000E+01 0.  0.
    9000005    1    3    3    0    0  0.28323202136E+02 -0.40588475766E+02  0.17163766184E+03  0.17863402561E+03  0.10000000000E+01 0.  0.
<mgrwt>
<rscale>  0 0.12499893E+03</rscale>
<asrwt>0</asrwt>
<pdfrwt beam="2">  1        4 0.27629747E-02 0.12499893E+03</pdfrwt>
<pdfrwt beam="1">  1       -4 0.33461778E-01 0.12499893E+03</pdfrwt>
<totfact> 0.84480071E+03</totfact>
</mgrwt>
</event>
<event>
 5    1  0.3316206E-002  0.1249594E+03  0.7818608E-02  0.1235133E+00
          4   -1    0    0  501    0  0.00000000000E+00  0.00000000000E+00  0.24121208819E+02  0.24154618914E+02  0.12700000000E+01 0. -1.
         -4   -1    0    0    0  501 -0.00000000000E+00 -0.00000000000E+00 -0.16168946993E+03  0.16169445750E+03  0.12700000000E+01 0. -1.
         25    2    1    2    0    0  0.00000000000E+00  0.00000000000E+00 -0.13756826111E+03  0.18584907641E+03  0.12495940436E+03 0.  0.
    9000005    1    3    3    0    0 -0.19869770465E+02  0.53542139949E+02 -0.10644319043E+03  0.12080033658E+03  0.10000000000E+01 0.  0.
    9000005    1    3    3    0    0  0.19869770465E+02 -0.53542139949E+02 -0.31125070673E+02  0.65048739827E+02  0.10000000000E+01 0.  0.
<mgrwt>
<rscale>  0 0.12495940E+03</rscale>
<asrwt>0</asrwt>
<pdfrwt beam="1">  1        4 0.37139090E-02 0.12495940E+03</pdfrwt>
<pdfrwt beam="2">  1       -4 0.24878256E-01 0.12495940E+03</pdfrwt>
<totfact> 0.92658886E+03</totfact>
</mgrwt>
</event>
<event>
 4    1  0.3316206E-002  0.1249004E+03  0.7818608E-02  0.1235225E+00
         -4   -1    0    0    0  501 -0.00000000000E+00  0.00000000000E+00  0.98835871743E+03  0.98835953338E+03  0.12700000000E+01 0. -1.
          4   -1    0    0  501    0  0.00000000000E+00 -0.00000000000E+00 -0.38429392798E+01  0.40473549768E+01  0.12700000000E+01 0. -1.
    9000005    1    1    2    0    0 -0.37682111864E+02 -0.35812883237E+02  0.76710214984E+03  0.76886228445E+03  0.10000000000E+01 0.  0.
    9000005    1    1    2    0    0  0.37682111864E+02  0.35812883237E+02  0.21741362832E+03  0.22354460391E+03  0.10000000000E+01 0.  0.
<mgrwt>
<rscale>  0 0.12490042E+03</rscale>
<asrwt>0</asrwt>
<pdfrwt beam="2">  1        4 0.60700809E-03 0.12490042E+03</pdfrwt>
<pdfrwt beam="1">  1       -4 0.15207107E+00 0.12490042E+03</pdfrwt>
<totfact> 0.30923628E+03</totfact>
</mgrwt>
</event>
<event>
 5    1  0.3316206E-002  0.1250001E+03  0.7818608E-02  0.1235069E+00
         -4   -1    0    0    0  501 -0.00000000000E+00  0.00000000000E+00  0.48464283046E+02  0.48480920280E+02  0.12700000000E+01 0. -1.
          4   -1    0    0  501    0  0.00000000000E+00 -0.00000000000E+00 -0.80565261067E+02  0.80575270342E+02  0.12700000000E+01 0. -1.
         25    2    1    2    0    0  0.00000000000E+00  0.00000000000E+00 -0.32100978020E+02  0.12905619062E+03  0.12500011019E+03 0.  0.
    9000005    1    3    3    0    0 -0.58548679735E+02 -0.41647331138E+01  0.60922000026E+01  0.59020401570E+02  0.10000000000E+01 0.  0.
    9000005    1    3    3    0    0  0.58548679735E+02  0.41647331138E+01 -0.38193178023E+02  0.70035789052E+02  0.10000000000E+01 0.  0.
<mgrwt>
<rscale>  0 0.12500011E+03</rscale>
<asrwt>0</asrwt>
<pdfrwt beam="2">  1        4 0.12396705E-01 0.12500011E+03</pdfrwt>
<pdfrwt beam="1">  1       -4 0.74580933E-02 0.12500011E+03</pdfrwt>
<totfact> 0.10364714E+04</totfact>
</mgrwt>
</event>
<event>
 5    1  0.3316206E-002  0.1249973E+03  0.7818608E-02  0.1235073E+00
         -4   -1    0    0    0  501 -0.00000000000E+00  0.00000000000E+00  0.19365133400E+03  0.19365549840E+03  0.12700000000E+01 0. -1.
          4   -1    0    0  501    0  0.00000000000E+00 -0.00000000000E+00 -0.20146324141E+02  0.20186314086E+02  0.12700000000E+01 0. -1.
         25    2    1    2    0    0  0.00000000000E+00  0.00000000000E+00  0.17350500986E+03  0.21384181248E+03  0.12499732925E+03 0.  0.
    9000005    1    3    3    0    0  0.70352148990E+01  0.32544026875E+02  0.17722100187E+03  0.18032440610E+03  0.10000000000E+01 0.  0.
    9000005    1    3    3    0    0 -0.70352148990E+01 -0.32544026875E+02 -0.37159920079E+01  0.33517406381E+02  0.10000000000E+01 0.  0.
<mgrwt>
<rscale>  0 0.12499733E+03</rscale>
<asrwt>0</asrwt>
<pdfrwt beam="2">  1        4 0.31028310E-02 0.12499733E+03</pdfrwt>
<pdfrwt beam="1">  1       -4 0.29795909E-01 0.12499733E+03</pdfrwt>
<totfact> 0.87857525E+03</totfact>
</mgrwt>
</event>
<event>
 5    1  0.3316206E-002  0.1249940E+03  0.7818608E-02  0.1235079E+00
          4   -1    0    0  501    0  0.00000000000E+00  0.00000000000E+00  0.22398747959E+02  0.22434723313E+02  0.12700000000E+01 0.  1.
         -4   -1    0    0    0  501 -0.00000000000E+00 -0.00000000000E+00 -0.17420103498E+03  0.17420566434E+03  0.12700000000E+01 0.  1.
         25    2    1    2    0    0  0.00000000000E+00  0.00000000000E+00 -0.15180228702E+03  0.19664038766E+03  0.12499403071E+03 0.  0.
    9000005    1    3    3    0    0  0.22989198679E+02  0.50940312183E+02 -0.31923055553E+02  0.64370025144E+02  0.10000000000E+01 0.  0.
    9000005    1    3    3    0    0 -0.22989198679E+02 -0.50940312183E+02 -0.11987923147E+03  0.13227036251E+03  0.10000000000E+01 0.  0.
<mgrwt>
<rscale>  0 0.12499403E+03</rscale>
<asrwt>0</asrwt>
<pdfrwt beam="1">  1        4 0.34490848E-02 0.12499403E+03</pdfrwt>
<pdfrwt beam="2">  1       -4 0.26803282E-01 0.12499403E+03</pdfrwt>
<totfact> 0.90716696E+03</totfact>
</mgrwt>
</event>
<event>
 5    1  0.3316206E-002  0.1249997E+03  0.7818608E-02  0.1235070E+00
          4   -1    0    0  501    0  0.00000000000E+00  0.00000000000E+00  0.14504701288E+03  0.14505257270E+03  0.12700000000E+01 0.  1.
         -4   -1    0    0    0  501 -0.00000000000E+00 -0.00000000000E+00 -0.26909724536E+02  0.26939676587E+02  0.12700000000E+01 0.  1.
         25    2    1    2    0    0  0.00000000000E+00  0.00000000000E+00  0.11813728835E+03  0.17199224928E+03  0.12499965966E+03 0.  0.
    9000005    1    3    3    0    0  0.49317960326E+01 -0.53434668726E+02  0.10313407357E+03  0.11626359519E+03  0.10000000000E+01 0.  0.
    9000005    1    3    3    0    0 -0.49317960326E+01  0.53434668726E+02  0.15003214772E+02  0.55728654097E+02  0.10000000000E+01 0.  0.
<mgrwt>
<rscale>  0 0.12499966E+03</rscale>
<asrwt>0</asrwt>
<pdfrwt beam="1">  1        4 0.22317657E-01 0.12499966E+03</pdfrwt>
<pdfrwt beam="2">  1       -4 0.41426893E-02 0.12499966E+03</pdfrwt>
<totfact> 0.95079333E+03</totfact>
</mgrwt>
</event>
<event>
 5    1  0.3316206E-002  0.1250038E+03  0.7818608E-02  0.1235063E+00
         -4   -1    0    0    0  501 -0.00000000000E+00  0.00000000000E+00  0.65195795436E+03  0.65195919133E+03  0.12700000000E+01 0. -1.
          4   -1    0    0  501    0  0.00000000000E+00 -0.00000000000E+00 -0.59233789543E+01  0.60579962229E+01  0.12700000000E+01 0. -1.
         25    2    1    2    0    0  0.00000000000E+00  0.00000000000E+00  0.64603457541E+03  0.65801718755E+03  0.12500378590E+03 0.  0.
    9000005    1    3    3    0    0  0.18061716497E+02 -0.42269002480E+02  0.54588895016E+03  0.54782172290E+03  0.10000000000E+01 0.  0.
    9000005    1    3    3    0    0 -0.18061716497E+02  0.42269002480E+02  0.10014562525E+03  0.11019546466E+03  0.10000000000E+01 0.  0.
<mgrwt>
<rscale>  0 0.12500379E+03</rscale>
<asrwt>0</asrwt>
<pdfrwt beam="2">  1        4 0.92173989E-03 0.12500379E+03</pdfrwt>
<pdfrwt beam="1">  1       -4 0.10031162E+00 0.12500379E+03</pdfrwt>
<totfact> 0.45393532E+03</totfact>
</mgrwt>
</event>
<event>
 5    1  0.3316206E-002  0.1250010E+03  0.7818608E-02  0.1235068E+00
         -4   -1    0    0    0  501 -0.00000000000E+00  0.00000000000E+00  0.84446482581E+02  0.84456031876E+02  0.12700000000E+01 0.  1.
          4   -1    0    0  501    0  0.00000000000E+00 -0.00000000000E+00 -0.46236971835E+02  0.46254410216E+02  0.12700000000E+01 0.  1.
         25    2    1    2    0    0  0.00000000000E+00  0.00000000000E+00  0.38209510746E+02  0.13071044209E+03  0.12500101184E+03 0.  0.
    9000005    1    3    3    0    0 -0.31795774337E+02  0.33341061298E+02  0.63255475158E+02  0.78261438599E+02  0.10000000000E+01 0.  0.
    9000005    1    3    3    0    0  0.31795774337E+02 -0.33341061298E+02 -0.25045964411E+02  0.52449003493E+02  0.10000000000E+01 0.  0.
<mgrwt>
<rscale>  0 0.12500101E+03</rscale>
<asrwt>0</asrwt>
<pdfrwt beam="2">  1        4 0.71154564E-02 0.12500101E+03</pdfrwt>
<pdfrwt beam="1">  1       -4 0.12993842E-01 0.12500101E+03</pdfrwt>
<totfact> 0.10329065E+04</totfact>
</mgrwt>
</event>
<event>
 5    1  0.3316206E-002  0.1250017E+03  0.7818608E-02  0.1235067E+00
         -4   -1    0    0    0  501 -0.00000000000E+00  0.00000000000E+00  0.10496958639E+04  0.10496966322E+04  0.12700000000E+01 0. -1.
          4   -1    0    0  501    0  0.00000000000E+00 -0.00000000000E+00 -0.36122752028E+01  0.38290249596E+01  0.12700000000E+01 0. -1.
         25    2    1    2    0    0  0.00000000000E+00  0.00000000000E+00  0.10460835887E+04  0.10535256572E+04  0.12500174274E+03 0.  0.
    9000005    1    3    3    0    0 -0.18349435288E+01  0.58106651044E+02  0.32981806990E+03  0.33490402975E+03  0.10000000000E+01 0.  0.
    9000005    1    3    3    0    0  0.18349435288E+01 -0.58106651044E+02  0.71626551883E+03  0.71862162741E+03  0.10000000000E+01 0.  0.
<mgrwt>
<rscale>  0 0.12500174E+03</rscale>
<asrwt>0</asrwt>
<pdfrwt beam="2">  1        4 0.57246716E-03 0.12500174E+03</pdfrwt>
<pdfrwt beam="1">  1       -4 0.16150830E+00 0.12500174E+03</pdfrwt>
<totfact> 0.28883860E+03</totfact>
</mgrwt>
</event>
<event>
 5    1  0.3316206E-002  0.1249889E+03  0.7818608E-02  0.1235087E+00
          4   -1    0    0  501    0  0.00000000000E+00  0.00000000000E+00  0.17360929804E+03  0.17361394318E+03  0.12700000000E+01 0. -1.
         -4   -1    0    0    0  501 -0.00000000000E+00 -0.00000000000E+00 -0.22473358137E+02  0.22509214245E+02  0.12700000000E+01 0. -1.
         25    2    1    2    0    0  0.00000000000E+00  0.00000000000E+00  0.15113593990E+03  0.19612315742E+03  0.12498888169E+03 0.  0.
    9000005    1    3    3    0    0 -0.51034889594E+01  0.34203849128E+02  0.15723192918E+03  0.16099325591E+03  0.10000000000E+01 0.  0.
    9000005    1    3    3    0    0  0.51034889594E+01 -0.34203849128E+02 -0.60959892818E+01  0.35129901509E+02  0.10000000000E+01 0.  0.
<mgrwt>
<rscale>  0 0.12498888E+03</rscale>
<asrwt>0</asrwt>
<pdfrwt beam="1">  1        4 0.26712239E-01 0.12498888E+03</pdfrwt>
<pdfrwt beam="2">  1       -4 0.34605552E-02 0.12498888E+03</pdfrwt>
<totfact> 0.90815287E+03</totfact>
</mgrwt>
</event>
<event>
 5    1  0.3316206E-002  0.1249936E+03  0.7818608E-02  0.1235079E+00
         -4   -1    0    0    0  501 -0.00000000000E+00  0.00000000000E+00  0.58736226231E+03  0.58736363532E+03  0.12700000000E+01 0.  1.
          4   -1    0    0  501    0  0.00000000000E+00 -0.00000000000E+00 -0.65877830039E+01  0.67090822701E+01  0.12700000000E+01 0.  1.
         25    2    1    2    0    0  0.00000000000E+00  0.00000000000E+00  0.58077447931E+03  0.59407271759E+03  0.12499359168E+03 0.  0.
    9000005    1    3    3    0    0 -0.55757218555E+02 -0.69677689627E+01  0.16044875994E+03  0.17000653456E+03  0.10000000000E+01 0.  0.
    9000005    1    3    3    0    0  0.55757218555E+02  0.69677689627E+01  0.42032571937E+03  0.42406618303E+03  0.10000000000E+01 0.  0.
<mgrwt>
<rscale>  0 0.12499359E+03</rscale>
<asrwt>0</asrwt>
<pdfrwt beam="2">  1        4 0.10229416E-02 0.12499359E+03</pdfrwt>
<pdfrwt beam="1">  1       -4 0.90372844E-01 0.12499359E+03</pdfrwt>
<totfact> 0.49250836E+03</totfact>
</mgrwt>
</event>
<event>
 5    1  0.3316206E-002  0.1249989E+03  0.7818608E-02  0.1235071E+00
          4   -1    0    0  501    0  0.00000000000E+00  0.00000000000E+00  0.35613065022E+03  0.35613291469E+03  0.12700000000E+01 0. -1.
         -4   -1    0    0    0  501 -0.00000000000E+00 -0.00000000000E+00 -0.10929321992E+02  0.11002862318E+02  0.12700000000E+01 0. -1.
         25    2    1    2    0    0  0.00000000000E+00  0.00000000000E+00  0.34520132823E+03  0.36713577701E+03  0.12499888699E+03 0.  0.
    9000005    1    3    3    0    0  0.86253389221E+01  0.55550795781E+02  0.25276247590E+03  0.25894044992E+03  0.10000000000E+01 0.  0.
    9000005    1    3    3    0    0 -0.86253389221E+01 -0.55550795781E+02  0.92438852332E+02  0.10819532709E+03  0.10000000000E+01 0.  0.
<mgrwt>
<rscale>  0 0.12499889E+03</rscale>
<asrwt>0</asrwt>
<pdfrwt beam="1">  1        4 0.54795169E-01 0.12499889E+03</pdfrwt>
<pdfrwt beam="2">  1       -4 0.16872651E-02 0.12499889E+03</pdfrwt>
<totfact> 0.67881321E+03</totfact>
</mgrwt>
</event>
<event>
 5    1  0.3316206E-002  0.1250010E+03  0.7818608E-02  0.1235068E+00
          4   -1    0    0  501    0  0.00000000000E+00  0.00000000000E+00  0.24403124139E+03  0.24403454607E+03  0.12700000000E+01 0. -1.
         -4   -1    0    0    0  501 -0.00000000000E+00 -0.00000000000E+00 -0.15978825818E+02  0.16029216279E+02  0.12700000000E+01 0. -1.
         25    2    1    2    0    0  0.00000000000E+00  0.00000000000E+00  0.22805241558E+03  0.26006376235E+03  0.12500102495E+03 0.  0.
    9000005    1    3    3    0    0 -0.59203051071E+02 -0.15272797095E+02  0.14091648754E+03  0.15361222623E+03  0.10000000000E+01 0.  0.
    9000005    1    3    3    0    0  0.59203051071E+02  0.15272797095E+02  0.87135928039E+02  0.10645153612E+03  0.10000000000E+01 0.  0.
<mgrwt>
<rscale>  0 0.12500102E+03</rscale>
<asrwt>0</asrwt>
<pdfrwt beam="1">  1        4 0.37547402E-01 0.12500102E+03</pdfrwt>
<pdfrwt beam="2">  1       -4 0.24624111E-02 0.12500102E+03</pdfrwt>
<totfact> 0.80895264E+03</totfact>
</mgrwt>
</event>
<event>
 5    1  0.3316206E-002  0.1250050E+03  0.7818608E-02  0.1235061E+00
         -4   -1    0    0    0  501 -0.00000000000E+00  0.00000000000E+00  0.11180380788E+02  0.11252280416E+02  0.12700000000E+01 0. -1.
          4   -1    0    0  501    0  0.00000000000E+00 -0.00000000000E+00 -0.34821928210E+03  0.34822159802E+03  0.12700000000E+01 0. -1.
         25    2    1    2    0    0  0.00000000000E+00  0.00000000000E+00 -0.33703890131E+03  0.35947387843E+03  0.12500499301E+03 0.  0.
    9000005    1    3    3    0    0  0.17575147853E+01 -0.30656964413E+02 -0.11996427733E+02  0.32982610625E+02  0.10000000000E+01 0.  0.
    9000005    1    3    3    0    0 -0.17575147853E+01  0.30656964413E+02 -0.32504247358E+03  0.32649126781E+03  0.10000000000E+01 0.  0.
<mgrwt>
<rscale>  0 0.12500499E+03</rscale>
<asrwt>0</asrwt>
<pdfrwt beam="2">  1        4 0.53577898E-01 0.12500499E+03</pdfrwt>
<pdfrwt beam="1">  1       -4 0.17257677E-02 0.12500499E+03</pdfrwt>
<totfact> 0.68687153E+03</totfact>
</mgrwt>
</event>
<event>
 5    1  0.3316206E-002  0.1249960E+03  0.7818608E-02  0.1235076E+00
          4   -1    0    0  501    0  0.00000000000E+00  0.00000000000E+00  0.88738221246E+02  0.88747308747E+02  0.12700000000E+01 0.  1.
         -4   -1    0    0    0  501 -0.00000000000E+00 -0.00000000000E+00 -0.43996584426E+02  0.44014910441E+02  0.12700000000E+01 0.  1.
         25    2    1    2    0    0  0.00000000000E+00  0.00000000000E+00  0.44741636820E+02  0.13276221919E+03  0.12499597105E+03 0.  0.
    9000005    1    3    3    0    0 -0.21797217193E+02  0.43871604781E+02  0.63577731713E+02  0.80268078046E+02  0.10000000000E+01 0.  0.
    9000005    1    3    3    0    0  0.21797217193E+02 -0.43871604781E+02 -0.18836094894E+02  0.52494141142E+02  0.10000000000E+01 0.  0.
<mgrwt>
<rscale>  0 0.12499597E+03</rscale>
<asrwt>0</asrwt>
<pdfrwt beam="1">  1        4 0.13654143E-01 0.12499597E+03</pdfrwt>
<pdfrwt beam="2">  1       -4 0.67708140E-02 0.12499597E+03</pdfrwt>
<totfact> 0.10286391E+04</totfact>
</mgrwt>
</event>
<event>
 5    1  0.3316206E-002  0.1250312E+03  0.7818608E-02  0.1235020E+00
          4   -1    0    0  501    0  0.00000000000E+00  0.00000000000E+00  0.10529246444E+03  0.10530012330E+03  0.12700000000E+01 0. -1.
         -4   -1    0    0    0  501 -0.00000000000E+00 -0.00000000000E+00 -0.37097713569E+02  0.37119445740E+02  0.12700000000E+01 0. -1.
         25    2    1    2    0    0  0.00000000000E+00  0.00000000000E+00  0.68194750871E+02  0.14241956904E+03  0.12503123450E+03 0.  0.
    9000005    1    3    3    0    0  0.17065578737E+02  0.15862296588E+01 -0.34374513826E+02  0.38423395256E+02  0.10000000000E+01 0.  0.
    9000005    1    3    3    0    0 -0.17065578737E+02 -0.15862296588E+01  0.10256926470E+03  0.10399617379E+03  0.10000000000E+01 0.  0.
<mgrwt>
<rscale>  0 0.12503123E+03</rscale>
<asrwt>0</asrwt>
<pdfrwt beam="1">  1        4 0.16201101E-01 0.12503123E+03</pdfrwt>
<pdfrwt beam="2">  1       -4 0.57096015E-02 0.12503123E+03</pdfrwt>
<totfact> 0.10076592E+04</totfact>
</mgrwt>
</event>
<event>
 5    1  0.3316206E-002  0.1250006E+03  0.7818608E-02  0.1235068E+00
         -4   -1    0    0    0  501 -0.00000000000E+00  0.00000000000E+00  0.76138991054E+01  0.77190905933E+01  0.12700000000E+01 0.  1.
          4   -1    0    0  501    0  0.00000000000E+00 -0.00000000000E+00 -0.50942095610E+03  0.50942253917E+03  0.12700000000E+01 0.  1.
         25    2    1    2    0    0  0.00000000000E+00  0.00000000000E+00 -0.50180705699E+03  0.51714162976E+03  0.12500057113E+03 0.  0.
    9000005    1    3    3    0    0 -0.46979476542E+02  0.40808746469E+02 -0.22718783379E+03  0.23555835121E+03  0.10000000000E+01 0.  0.
    9000005    1    3    3    0    0  0.46979476542E+02 -0.40808746469E+02 -0.27461922320E+03  0.28158327855E+03  0.10000000000E+01 0.  0.
<mgrwt>
<rscale>  0 0.12500057E+03</rscale>
<asrwt>0</asrwt>
<pdfrwt beam="2">  1        4 0.78380642E-01 0.12500057E+03</pdfrwt>
<pdfrwt beam="1">  1       -4 0.11795829E-02 0.12500057E+03</pdfrwt>
<totfact> 0.54557817E+03</totfact>
</mgrwt>
</event>
<event>
 5    1  0.3316206E-002  0.1249988E+03  0.7818608E-02  0.1235071E+00
          4   -1    0    0  501    0  0.00000000000E+00  0.00000000000E+00  0.12167817107E+04  0.12167823735E+04  0.12700000000E+01 0.  1.
         -4   -1    0    0    0  501 -0.00000000000E+00 -0.00000000000E+00 -0.30839548147E+01  0.33352177289E+01  0.12700000000E+01 0.  1.
         25    2    1    2    0    0  0.00000000000E+00  0.00000000000E+00  0.12136977559E+04  0.12201175912E+04  0.12499877487E+03 0.  0.
    9000005    1    3    3    0    0 -0.26530451638E+02 -0.36048882107E+02  0.10325225904E+04  0.10334927607E+04  0.10000000000E+01 0.  0.
    9000005    1    3    3    0    0  0.26530451638E+02  0.36048882107E+02  0.18117516548E+03  0.18662483048E+03  0.10000000000E+01 0.  0.
<mgrwt>
<rscale>  0 0.12499877E+03</rscale>
<asrwt>0</asrwt>
<pdfrwt beam="1">  1        4 0.18721655E+00 0.12499877E+03</pdfrwt>
<pdfrwt beam="2">  1       -4 0.49383352E-03 0.12499877E+03</pdfrwt>
<totfact> 0.24192817E+03</totfact>
</mgrwt>
</event>
<event>
 5    1  0.3316206E-002  0.1249999E+03  0.7818608E-02  0.1235070E+00
          4   -1    0    0  501    0  0.00000000000E+00  0.00000000000E+00  0.91255232202E+01  0.92134724205E+01  0.12700000000E+01 0.  1.
         -4   -1    0    0    0  501 -0.00000000000E+00 -0.00000000000E+00 -0.42591489815E+03  0.42591679159E+03  0.12700000000E+01 0.  1.
         25    2    1    2    0    0  0.00000000000E+00  0.00000000000E+00 -0.41678937493E+03  0.43513026402E+03  0.12499985445E+03 0.  0.
    9000005    1    3    3    0    0 -0.15462398449E+01 -0.54932516618E+02 -0.10482150317E+03  0.11835759277E+03  0.10000000000E+01 0.  0.
    9000005    1    3    3    0    0  0.15462398449E+01  0.54932516618E+02 -0.31196787176E+03  0.31677267125E+03  0.10000000000E+01 0.  0.
<mgrwt>
<rscale>  0 0.12499985E+03</rscale>
<asrwt>0</asrwt>
<pdfrwt beam="1">  1        4 0.14108379E-02 0.12499985E+03</pdfrwt>
<pdfrwt beam="2">  1       -4 0.65532265E-01 0.12499985E+03</pdfrwt>
<totfact> 0.61273905E+03</totfact>
</mgrwt>
</event>
<event>
 5    1  0.3316206E-002  0.1250005E+03  0.7818608E-02  0.1235068E+00
          4   -1    0    0  501    0  0.00000000000E+00  0.00000000000E+00  0.86309350367E+02  0.86318693577E+02  0.12700000000E+01 0. -1.
         -4   -1    0    0    0  501 -0.00000000000E+00 -0.00000000000E+00 -0.45238373582E+02  0.45256196750E+02  0.12700000000E+01 0. -1.
         25    2    1    2    0    0  0.00000000000E+00  0.00000000000E+00  0.41070976786E+02  0.13157489033E+03  0.12500050652E+03 0.  0.
    9000005    1    3    3    0    0  0.10185373877E+02 -0.35257520650E+02 -0.32705910863E+02  0.49168193060E+02  0.10000000000E+01 0.  0.
    9000005    1    3    3    0    0 -0.10185373877E+02  0.35257520650E+02  0.73776887648E+02  0.82406697267E+02  0.10000000000E+01 0.  0.
<mgrwt>
<rscale>  0 0.12500051E+03</rscale>
<asrwt>0</asrwt>
<pdfrwt beam="1">  1        4 0.13280451E-01 0.12500051E+03</pdfrwt>
<pdfrwt beam="2">  1       -4 0.69618397E-02 0.12500051E+03</pdfrwt>
<totfact> 0.10310663E+04</totfact>
</mgrwt>
</event>
<event>
 5    1  0.3316206E-002  0.1250014E+03  0.7818608E-02  0.1235067E+00
          4   -1    0    0  501    0  0.00000000000E+00  0.00000000000E+00  0.91203375644E+02  0.91212217542E+02  0.12700000000E+01 0.  1.
         -4   -1    0    0    0  501 -0.00000000000E+00 -0.00000000000E+00 -0.42810752104E+02  0.42829585519E+02  0.12700000000E+01 0.  1.
         25    2    1    2    0    0  0.00000000000E+00  0.00000000000E+00  0.48392623540E+02  0.13404180306E+03  0.12500143581E+03 0.  0.
    9000005    1    3    3    0    0  0.59934538453E+02 -0.16450908664E+02  0.17200821988E+02  0.64495345355E+02  0.10000000000E+01 0.  0.
    9000005    1    3    3    0    0 -0.59934538453E+02  0.16450908664E+02  0.31191801552E+02  0.69546457706E+02  0.10000000000E+01 0.  0.
<mgrwt>
<rscale>  0 0.12500144E+03</rscale>
<asrwt>0</asrwt>
<pdfrwt beam="1">  1        4 0.14033417E-01 0.12500144E+03</pdfrwt>
<pdfrwt beam="2">  1       -4 0.65883984E-02 0.12500144E+03</pdfrwt>
<totfact> 0.10257975E+04</totfact>
</mgrwt>
</event>
<event>
 5    1  0.3316206E-002  0.1250003E+03  0.7818608E-02  0.1235069E+00
         -4   -1    0    0    0  501 -0.00000000000E+00  0.00000000000E+00  0.35452268426E+03  0.35452495900E+03  0.12700000000E+01 0.  1.
          4   -1    0    0  501    0  0.00000000000E+00 -0.00000000000E+00 -0.10979476422E+02  0.11052683045E+02  0.12700000000E+01 0.  1.
         25    2    1    2    0    0  0.00000000000E+00  0.00000000000E+00  0.34354320784E+03  0.36557764205E+03  0.12500030685E+03 0.  0.
    9000005    1    3    3    0    0 -0.52174641872E+02  0.32333409234E+02  0.20608152295E+03  0.21503078084E+03  0.10000000000E+01 0.  0.
    9000005    1    3    3    0    0  0.52174641872E+02 -0.32333409234E+02  0.13746168489E+03  0.15054686121E+03  0.10000000000E+01 0.  0.
<mgrwt>
<rscale>  0 0.12500031E+03</rscale>
<asrwt>0</asrwt>
<pdfrwt beam="2">  1        4 0.16949562E-02 0.12500031E+03</pdfrwt>
<pdfrwt beam="1">  1       -4 0.54547766E-01 0.12500031E+03</pdfrwt>
<totfact> 0.68043681E+03</totfact>
</mgrwt>
</event>
<event>
 5    1  0.3316206E-002  0.1250001E+03  0.7818608E-02  0.1235069E+00
          4   -1    0    0  501    0  0.00000000000E+00  0.00000000000E+00  0.19885658940E+02  0.19926172023E+02  0.12700000000E+01 0. -1.
         -4   -1    0    0    0  501 -0.00000000000E+00 -0.00000000000E+00 -0.19619322688E+03  0.19619733733E+03  0.12700000000E+01 0. -1.
         25    2    1    2    0    0  0.00000000000E+00  0.00000000000E+00 -0.17630756794E+03  0.21612350935E+03  0.12500005112E+03 0.  0.
    9000005    1    3    3    0    0  0.17099495371E+02  0.59840839882E+02 -0.97924373344E+02  0.11603233064E+03  0.10000000000E+01 0.  0.
    9000005    1    3    3    0    0 -0.17099495371E+02 -0.59840839882E+02 -0.78383194601E+02  0.10009117871E+03  0.10000000000E+01 0.  0.
<mgrwt>
<rscale>  0 0.12500005E+03</rscale>
<asrwt>0</asrwt>
<pdfrwt beam="1">  1        4 0.30627649E-02 0.12500005E+03</pdfrwt>
<pdfrwt beam="2">  1       -4 0.30187005E-01 0.12500005E+03</pdfrwt>
<totfact> 0.87485395E+03</totfact>
</mgrwt>
</event>
<event>
 5    1  0.3316206E-002  0.1250004E+03  0.7818608E-02  0.1235069E+00
         -4   -1    0    0    0  501 -0.00000000000E+00  0.00000000000E+00  0.27836346606E+03  0.27836636316E+03  0.12700000000E+01 0. -1.
          4   -1    0    0  501    0  0.00000000000E+00 -0.00000000000E+00 -0.14001300726E+02  0.14058780958E+02  0.12700000000E+01 0. -1.
         25    2    1    2    0    0  0.00000000000E+00  0.00000000000E+00  0.26436216533E+03  0.29242514411E+03  0.12500044180E+03 0.  0.
    9000005    1    3    3    0    0 -0.25261072640E+02 -0.30942289451E+02  0.19750665135E+02  0.44571693267E+02  0.10000000000E+01 0.  0.
    9000005    1    3    3    0    0  0.25261072640E+02  0.30942289451E+02  0.24461150020E+03  0.24785345085E+03  0.10000000000E+01 0.  0.
<mgrwt>
<rscale>  0 0.12500044E+03</rscale>
<asrwt>0</asrwt>
<pdfrwt beam="2">  1        4 0.21586907E-02 0.12500044E+03</pdfrwt>
<pdfrwt beam="1">  1       -4 0.42829792E-01 0.12500044E+03</pdfrwt>
<totfact> 0.76558194E+03</totfact>
</mgrwt>
</event>
<event>
 5    1  0.3316206E-002  0.1249978E+03  0.7818608E-02  0.1235073E+00
          4   -1    0    0  501    0  0.00000000000E+00  0.00000000000E+00  0.54549446076E+03  0.54549593915E+03  0.12700000000E+01 0. -1.
         -4   -1    0    0    0  501 -0.00000000000E+00 -0.00000000000E+00 -0.71028697860E+01  0.72155151719E+01  0.12700000000E+01 0. -1.
         25    2    1    2    0    0  0.00000000000E+00  0.00000000000E+00  0.53839159098E+03  0.55271145432E+03  0.12499778597E+03 0.  0.
    9000005    1    3    3    0    0  0.26558886696E+02  0.30783583694E+02  0.59354594033E+02  0.71951173169E+02  0.10000000000E+01 0.  0.
    9000005    1    3    3    0    0 -0.26558886696E+02 -0.30783583694E+02  0.47903699695E+03  0.48076028115E+03  0.10000000000E+01 0.  0.
<mgrwt>
<rscale>  0 0.12499779E+03</rscale>
<asrwt>0</asrwt>
<pdfrwt beam="1">  1        4 0.83930998E-01 0.12499779E+03</pdfrwt>
<pdfrwt beam="2">  1       -4 0.11015280E-02 0.12499779E+03</pdfrwt>
<totfact> 0.51997990E+03</totfact>
</mgrwt>
</event>
<event>
 5    1  0.3316206E-002  0.1250001E+03  0.7818608E-02  0.1235069E+00
         -4   -1    0    0    0  501 -0.00000000000E+00  0.00000000000E+00  0.26340951008E+02  0.26371549063E+02  0.12700000000E+01 0. -1.
          4   -1    0    0  501    0  0.00000000000E+00 -0.00000000000E+00 -0.14817644280E+03  0.14818188520E+03  0.12700000000E+01 0. -1.
         25    2    1    2    0    0  0.00000000000E+00  0.00000000000E+00 -0.12183549179E+03  0.17455343426E+03  0.12500005741E+03 0.  0.
    9000005    1    3    3    0    0 -0.27797841240E+01  0.60020832257E+02 -0.36932267098E+02  0.70535238410E+02  0.10000000000E+01 0.  0.
    9000005    1    3    3    0    0  0.27797841240E+01 -0.60020832257E+02 -0.84903224692E+02  0.10401819585E+03  0.10000000000E+01 0.  0.
<mgrwt>
<rscale>  0 0.12500006E+03</rscale>
<asrwt>0</asrwt>
<pdfrwt beam="2">  1        4 0.22799148E-01 0.12500006E+03</pdfrwt>
<pdfrwt beam="1">  1       -4 0.40552264E-02 0.12500006E+03</pdfrwt>
<totfact> 0.94606570E+03</totfact>
</mgrwt>
</event>
<event>
 5    1  0.3316206E-002  0.1249903E+03  0.7818608E-02  0.1235084E+00
         -4   -1    0    0    0  501 -0.00000000000E+00  0.00000000000E+00  0.37229055369E+02  0.37250710915E+02  0.12700000000E+01 0.  1.
          4   -1    0    0  501    0  0.00000000000E+00 -0.00000000000E+00 -0.10485253179E+03  0.10486022278E+03  0.12700000000E+01 0.  1.
         25    2    1    2    0    0  0.00000000000E+00  0.00000000000E+00 -0.67623476419E+02  0.14211093370E+03  0.12499033128E+03 0.  0.
    9000005    1    3    3    0    0  0.40618104120E+02  0.46630725992E+02 -0.23617516239E+02  0.66204547141E+02  0.10000000000E+01 0.  0.
    9000005    1    3    3    0    0 -0.40618104120E+02 -0.46630725992E+02 -0.44005960181E+02  0.75906386558E+02  0.10000000000E+01 0.  0.
<mgrwt>
<rscale>  0 0.12499033E+03</rscale>
<asrwt>0</asrwt>
<pdfrwt beam="2">  1        4 0.16133416E-01 0.12499033E+03</pdfrwt>
<pdfrwt beam="1">  1       -4 0.57298045E-02 0.12499033E+03</pdfrwt>
<totfact> 0.10092219E+04</totfact>
</mgrwt>
</event>
<event>
 5    1  0.3316206E-002  0.1249977E+03  0.7818608E-02  0.1235073E+00
          4   -1    0    0  501    0  0.00000000000E+00  0.00000000000E+00  0.29961591210E+02  0.29988495258E+02  0.12700000000E+01 0. -1.
         -4   -1    0    0    0  501 -0.00000000000E+00 -0.00000000000E+00 -0.13028198416E+03  0.13028817405E+03  0.12700000000E+01 0. -1.
         25    2    1    2    0    0  0.00000000000E+00  0.00000000000E+00 -0.10032039295E+03  0.16027666931E+03  0.12499771791E+03 0.  0.
    9000005    1    3    3    0    0 -0.31040207826E+02  0.42193274051E+02 -0.64635599368E+01  0.52787730431E+02  0.10000000000E+01 0.  0.
    9000005    1    3    3    0    0  0.31040207826E+02 -0.42193274051E+02 -0.93856833014E+02  0.10748893888E+03  0.10000000000E+01 0.  0.
<mgrwt>
<rscale>  0 0.12499772E+03</rscale>
<asrwt>0</asrwt>
<pdfrwt beam="1">  1        4 0.46120213E-02 0.12499772E+03</pdfrwt>
<pdfrwt beam="2">  1       -4 0.20045928E-01 0.12499772E+03</pdfrwt>
<totfact> 0.97294462E+03</totfact>
</mgrwt>
</event>
<event>
 5    1  0.3316206E-002  0.1249864E+03  0.7818608E-02  0.1235091E+00
          4   -1    0    0  501    0  0.00000000000E+00  0.00000000000E+00  0.91290262666E+02  0.91299096149E+02  0.12700000000E+01 0. -1.
         -4   -1    0    0    0  501 -0.00000000000E+00 -0.00000000000E+00 -0.42759691632E+02  0.42778547526E+02  0.12700000000E+01 0. -1.
         25    2    1    2    0    0  0.00000000000E+00  0.00000000000E+00  0.48530571034E+02  0.13407764367E+03  0.12498639209E+03 0.  0.
    9000005    1    3    3    0    0 -0.25699873028E+02 -0.24643307561E+02  0.79348299313E+02  0.86976598491E+02  0.10000000000E+01 0.  0.
    9000005    1    3    3    0    0  0.25699873028E+02  0.24643307561E+02 -0.30817728278E+02  0.47101045184E+02  0.10000000000E+01 0.  0.
<mgrwt>
<rscale>  0 0.12498639E+03</rscale>
<asrwt>0</asrwt>
<pdfrwt beam="1">  1        4 0.14046786E-01 0.12498639E+03</pdfrwt>
<pdfrwt beam="2">  1       -4 0.65805441E-02 0.12498639E+03</pdfrwt>
<totfact> 0.10260697E+04</totfact>
</mgrwt>
</event>
<event>
 5    1  0.3316206E-002  0.1250124E+03  0.7818608E-02  0.1235050E+00
         -4   -1    0    0    0  501 -0.00000000000E+00  0.00000000000E+00  0.10867918834E+03  0.10868660855E+03  0.12700000000E+01 0.  1.
          4   -1    0    0  501    0  0.00000000000E+00 -0.00000000000E+00 -0.35930184469E+02  0.35952622380E+02  0.12700000000E+01 0.  1.
         25    2    1    2    0    0  0.00000000000E+00  0.00000000000E+00  0.72749003874E+02  0.14463923093E+03  0.12501235763E+03 0.  0.
    9000005    1    3    3    0    0 -0.27610035534E+02 -0.28335622692E+02  0.92352245490E+02  0.10047466757E+03  0.10000000000E+01 0.  0.
    9000005    1    3    3    0    0  0.27610035534E+02  0.28335622692E+02 -0.19603241616E+02  0.44164563367E+02  0.10000000000E+01 0.  0.
<mgrwt>
<rscale>  0 0.12501236E+03</rscale>
<asrwt>0</asrwt>
<pdfrwt beam="2">  1        4 0.55300174E-02 0.12501236E+03</pdfrwt>
<pdfrwt beam="1">  1       -4 0.16722172E-01 0.12501236E+03</pdfrwt>
<totfact> 0.10035531E+04</totfact>
</mgrwt>
</event>
<event>
 5    1  0.3316206E-002  0.1250008E+03  0.7818608E-02  0.1235068E+00
          4   -1    0    0  501    0  0.00000000000E+00  0.00000000000E+00  0.86341783298E+02  0.86351122998E+02  0.12700000000E+01 0. -1.
         -4   -1    0    0    0  501 -0.00000000000E+00 -0.00000000000E+00 -0.45221588606E+02  0.45239418388E+02  0.12700000000E+01 0. -1.
         25    2    1    2    0    0  0.00000000000E+00  0.00000000000E+00  0.41120194692E+02  0.13159054139E+03  0.12500080068E+03 0.  0.
    9000005    1    3    3    0    0  0.21083916811E+02  0.57676930378E+02  0.32752557595E+02  0.69605243157E+02  0.10000000000E+01 0.  0.
    9000005    1    3    3    0    0 -0.21083916811E+02 -0.57676930378E+02  0.83676370965E+01  0.61985298229E+02  0.10000000000E+01 0.  0.
<mgrwt>
<rscale>  0 0.12500080E+03</rscale>
<asrwt>0</asrwt>
<pdfrwt beam="1">  1        4 0.13285441E-01 0.12500080E+03</pdfrwt>
<pdfrwt beam="2">  1       -4 0.69592575E-02 0.12500080E+03</pdfrwt>
<totfact> 0.10310259E+04</totfact>
</mgrwt>
</event>
<event>
 5    1  0.3316206E-002  0.1250032E+03  0.7818608E-02  0.1235064E+00
         -4   -1    0    0    0  501 -0.00000000000E+00  0.00000000000E+00  0.24475871912E+03  0.24476201397E+03  0.12700000000E+01 0. -1.
          4   -1    0    0  501    0  0.00000000000E+00 -0.00000000000E+00 -0.15931732485E+02  0.15982271427E+02  0.12700000000E+01 0. -1.
         25    2    1    2    0    0  0.00000000000E+00  0.00000000000E+00  0.22882698663E+03  0.26074428540E+03  0.12500317019E+03 0.  0.
    9000005    1    3    3    0    0  0.98607706684E+01 -0.25018185671E+01 -0.14203162953E+02  0.17499249475E+02  0.10000000000E+01 0.  0.
    9000005    1    3    3    0    0 -0.98607706684E+01  0.25018185671E+01  0.24303014958E+03  0.24324503592E+03  0.10000000000E+01 0.  0.
<mgrwt>
<rscale>  0 0.12500317E+03</rscale>
<asrwt>0</asrwt>
<pdfrwt beam="2">  1        4 0.24551771E-02 0.12500317E+03</pdfrwt>
<pdfrwt beam="1">  1       -4 0.37659324E-01 0.12500317E+03</pdfrwt>
<totfact> 0.80796025E+03</totfact>
</mgrwt>
</event>
<event>
 5    1  0.3316206E-002  0.1249930E+03  0.7818608E-02  0.1235080E+00
         -4   -1    0    0    0  501 -0.00000000000E+00  0.00000000000E+00  0.83678485552E+02  0.83688122481E+02  0.12700000000E+01 0.  1.
          4   -1    0    0  501    0  0.00000000000E+00 -0.00000000000E+00 -0.46655475822E+02  0.46672757838E+02  0.12700000000E+01 0.  1.
         25    2    1    2    0    0  0.00000000000E+00  0.00000000000E+00  0.37023009730E+02  0.13036088032E+03  0.12499302328E+03 0.  0.
    9000005    1    3    3    0    0  0.60347378382E+02  0.14711541965E+02  0.25629437928E+02  0.67201961527E+02  0.10000000000E+01 0.  0.
    9000005    1    3    3    0    0 -0.60347378382E+02 -0.14711541965E+02  0.11393571802E+02  0.63158918792E+02  0.10000000000E+01 0.  0.
<mgrwt>
<rscale>  0 0.12499302E+03</rscale>
<asrwt>0</asrwt>
<pdfrwt beam="2">  1        4 0.71798363E-02 0.12499302E+03</pdfrwt>
<pdfrwt beam="1">  1       -4 0.12875684E-01 0.12499302E+03</pdfrwt>
<totfact> 0.10338422E+04</totfact>
</mgrwt>
</event>
<event>
 5    1  0.3316206E-002  0.1250021E+03  0.7818608E-02  0.1235066E+00
          4   -1    0    0  501    0  0.00000000000E+00  0.00000000000E+00  0.42109973131E+01  0.43983404110E+01  0.12700000000E+01 0. -1.
         -4   -1    0    0    0  501 -0.00000000000E+00 -0.00000000000E+00 -0.90728754479E+03  0.90728843364E+03  0.12700000000E+01 0. -1.
         25    2    1    2    0    0  0.00000000000E+00  0.00000000000E+00 -0.90307654747E+03  0.91168677406E+03  0.12500209355E+03 0.  0.
    9000005    1    3    3    0    0  0.21964399121E+02  0.58505796712E+02 -0.45251051216E+03  0.45680644336E+03  0.10000000000E+01 0.  0.
    9000005    1    3    3    0    0 -0.21964399121E+02 -0.58505796712E+02 -0.45056603531E+03  0.45488033070E+03  0.10000000000E+01 0.  0.
<mgrwt>
<rscale>  0 0.12500209E+03</rscale>
<asrwt>0</asrwt>
<pdfrwt beam="1">  1        4 0.66232584E-03 0.12500209E+03</pdfrwt>
<pdfrwt beam="2">  1       -4 0.13959703E+00 0.12500209E+03</pdfrwt>
<totfact> 0.33714852E+03</totfact>
</mgrwt>
</event>
<event>
 5    1  0.3316206E-002  0.1250026E+03  0.7818608E-02  0.1235065E+00
          4   -1    0    0  501    0  0.00000000000E+00  0.00000000000E+00  0.50934433989E+02  0.50950264629E+02  0.12700000000E+01 0. -1.
         -4   -1    0    0    0  501 -0.00000000000E+00 -0.00000000000E+00 -0.76661973832E+02  0.76672492667E+02  0.12700000000E+01 0. -1.
         25    2    1    2    0    0  0.00000000000E+00  0.00000000000E+00 -0.25727539843E+02  0.12762275730E+03  0.12500264747E+03 0.  0.
    9000005    1    3    3    0    0  0.10131396384E+02 -0.14477052207E+02 -0.74063388494E+02  0.76148642460E+02  0.10000000000E+01 0.  0.
    9000005    1    3    3    0    0 -0.10131396384E+02  0.14477052207E+02  0.48335848651E+02  0.51474114836E+02  0.10000000000E+01 0.  0.
<mgrwt>
<rscale>  0 0.12500265E+03</rscale>
<asrwt>0</asrwt>
<pdfrwt beam="1">  1        4 0.78380936E-02 0.12500265E+03</pdfrwt>
<pdfrwt beam="2">  1       -4 0.11796177E-01 0.12500265E+03</pdfrwt>
<totfact> 0.10395022E+04</totfact>
</mgrwt>
</event>
<event>
 5    1  0.3316206E-002  0.1250017E+03  0.7818608E-02  0.1235067E+00
          4   -1    0    0  501    0  0.00000000000E+00  0.00000000000E+00  0.16261961924E+03  0.16262457828E+03  0.12700000000E+01 0. -1.
         -4   -1    0    0    0  501 -0.00000000000E+00 -0.00000000000E+00 -0.23999330270E+02  0.24032909799E+02  0.12700000000E+01 0. -1.
         25    2    1    2    0    0  0.00000000000E+00  0.00000000000E+00  0.13862028897E+03  0.18665748808E+03  0.12500173336E+03 0.  0.
    9000005    1    3    3    0    0 -0.30375456507E+02  0.50490520342E+02  0.38223596438E+02  0.70242468116E+02  0.10000000000E+01 0.  0.
    9000005    1    3    3    0    0  0.30375456507E+02 -0.50490520342E+02  0.10039669253E+03  0.11641501997E+03  0.10000000000E+01 0.  0.
<mgrwt>
<rscale>  0 0.12500173E+03</rscale>
<asrwt>0</asrwt>
<pdfrwt beam="1">  1        4 0.25021367E-01 0.12500173E+03</pdfrwt>
<pdfrwt beam="2">  1       -4 0.36951692E-02 0.12500173E+03</pdfrwt>
<totfact> 0.92428585E+03</totfact>
</mgrwt>
</event>
<event>
 5    1  0.3316206E-002  0.1250015E+03  0.7818608E-02  0.1235067E+00
         -4   -1    0    0    0  501 -0.00000000000E+00  0.00000000000E+00  0.21018351386E+03  0.21018735071E+03  0.12700000000E+01 0. -1.
          4   -1    0    0  501    0  0.00000000000E+00 -0.00000000000E+00 -0.18559680107E+02  0.18603081080E+02  0.12700000000E+01 0. -1.
         25    2    1    2    0    0  0.00000000000E+00  0.00000000000E+00  0.19162383375E+03  0.22879043179E+03  0.12500147206E+03 0.  0.
    9000005    1    3    3    0    0 -0.27018785168E+02  0.44446662269E+02  0.32413115931E+02  0.61295437213E+02  0.10000000000E+01 0.  0.
    9000005    1    3    3    0    0  0.27018785168E+02 -0.44446662269E+02  0.15921071782E+03  0.16749499457E+03  0.10000000000E+01 0.  0.
<mgrwt>
<rscale>  0 0.12500147E+03</rscale>
<asrwt>0</asrwt>
<pdfrwt beam="2">  1        4 0.28589691E-02 0.12500147E+03</pdfrwt>
<pdfrwt beam="1">  1       -4 0.32339559E-01 0.12500147E+03</pdfrwt>
<totfact> 0.85492865E+03</totfact>
</mgrwt>
</event>
<event>
 5    1  0.3316206E-002  0.1249989E+03  0.7818608E-02  0.1235071E+00
          4   -1    0    0  501    0  0.00000000000E+00  0.00000000000E+00  0.42243378379E+03  0.42243569284E+03  0.12700000000E+01 0.  1.
         -4   -1    0    0    0  501 -0.00000000000E+00 -0.00000000000E+00 -0.92013082865E+01  0.92885399382E+01  0.12700000000E+01 0.  1.
         25    2    1    2    0    0  0.00000000000E+00  0.00000000000E+00  0.41323247550E+03  0.43172423278E+03  0.12499893743E+03 0.  0.
    9000005    1    3    3    0    0 -0.57140050297E+02  0.10198574312E+02  0.12664047765E+03  0.13931190489E+03  0.10000000000E+01 0.  0.
    9000005    1    3    3    0    0  0.57140050297E+02 -0.10198574312E+02  0.28659199785E+03  0.29241232789E+03  0.10000000000E+01 0.  0.
<mgrwt>
<rscale>  0 0.12499894E+03</rscale>
<asrwt>0</asrwt>
<pdfrwt beam="1">  1        4 0.64996657E-01 0.12499894E+03</pdfrwt>
<pdfrwt beam="2">  1       -4 0.14224432E-02 0.12499894E+03</pdfrwt>
<totfact> 0.61581459E+03</totfact>
</mgrwt>
</event>
<event>
 5    1  0.3316206E-002  0.1249994E+03  0.7818608E-02  0.1235070E+00
          4   -1    0    0  501    0  0.00000000000E+00  0.00000000000E+00  0.33135017446E+02  0.33159346814E+02  0.12700000000E+01 0. -1.
         -4   -1    0    0    0  501 -0.00000000000E+00 -0.00000000000E+00 -0.11781667946E+03  0.11782352422E+03  0.12700000000E+01 0. -1.
         25    2    1    2    0    0  0.00000000000E+00  0.00000000000E+00 -0.84681662015E+02  0.15098287103E+03  0.12499937385E+03 0.  0.
    9000005    1    3    3    0    0  0.37034811937E+01 -0.61822457464E+02 -0.32272763011E+02  0.69844564944E+02  0.10000000000E+01 0.  0.
    9000005    1    3    3    0    0 -0.37034811937E+01  0.61822457464E+02 -0.52408899004E+02  0.81138306087E+02  0.10000000000E+01 0.  0.
<mgrwt>
<rscale>  0 0.12499937E+03</rscale>
<asrwt>0</asrwt>
<pdfrwt beam="1">  1        4 0.51000931E-02 0.12499937E+03</pdfrwt>
<pdfrwt beam="2">  1       -4 0.18128041E-01 0.12499937E+03</pdfrwt>
<totfact> 0.99109534E+03</totfact>
</mgrwt>
</event>
<event>
 5    1  0.3316206E-002  0.1250002E+03  0.7818608E-02  0.1235069E+00
          4   -1    0    0  501    0  0.00000000000E+00  0.00000000000E+00  0.18343363667E+03  0.18343803303E+03  0.12700000000E+01 0.  1.
         -4   -1    0    0    0  501 -0.00000000000E+00 -0.00000000000E+00 -0.21271646399E+02  0.21309524643E+02  0.12700000000E+01 0.  1.
         25    2    1    2    0    0  0.00000000000E+00  0.00000000000E+00  0.16216199027E+03  0.20474755767E+03  0.12500020514E+03 0.  0.
    9000005    1    3    3    0    0 -0.16800604331E+02  0.60051655840E+02  0.74367055095E+02  0.97056275214E+02  0.10000000000E+01 0.  0.
    9000005    1    3    3    0    0  0.16800604331E+02 -0.60051655840E+02  0.87794935171E+02  0.10769128245E+03  0.10000000000E+01 0.  0.
<mgrwt>
<rscale>  0 0.12500021E+03</rscale>
<asrwt>0</asrwt>
<pdfrwt beam="1">  1        4 0.28223810E-01 0.12500021E+03</pdfrwt>
<pdfrwt beam="2">  1       -4 0.32758130E-02 0.12500021E+03</pdfrwt>
<totfact> 0.89340513E+03</totfact>
</mgrwt>
</event>
<event>
 5    1  0.3316206E-002  0.1249977E+03  0.7818608E-02  0.1235073E+00
          4   -1    0    0  501    0  0.00000000000E+00  0.00000000000E+00  0.16447068800E+04  0.16447073703E+04  0.12700000000E+01 0.  1.
         -4   -1    0    0    0  501 -0.00000000000E+00 -0.00000000000E+00 -0.22046473828E+01  0.25442818403E+01  0.12700000000E+01 0.  1.
         25    2    1    2    0    0  0.00000000000E+00  0.00000000000E+00  0.16425022326E+04  0.16472516521E+04  0.12499768569E+03 0.  0.
    9000005    1    3    3    0    0 -0.16402171914E+01  0.60706787327E+02  0.62707808608E+03  0.63001264303E+03  0.10000000000E+01 0.  0.
    9000005    1    3    3    0    0  0.16402171914E+01 -0.60706787327E+02  0.10154241465E+04  0.10172390091E+04  0.10000000000E+01 0.  0.
<mgrwt>
<rscale>  0 0.12499769E+03</rscale>
<asrwt>0</asrwt>
<pdfrwt beam="1">  1        4 0.25305777E+00 0.12499769E+03</pdfrwt>
<pdfrwt beam="2">  1       -4 0.36534028E-03 0.12499769E+03</pdfrwt>
<totfact> 0.15208025E+03</totfact>
</mgrwt>
</event>
<event>
 5    1  0.3316206E-002  0.1249993E+03  0.7818608E-02  0.1235070E+00
         -4   -1    0    0    0  501 -0.00000000000E+00  0.00000000000E+00  0.30562597901E+02  0.30588973348E+02  0.12700000000E+01 0.  1.
          4   -1    0    0  501    0  0.00000000000E+00 -0.00000000000E+00 -0.12772532985E+03  0.12773164363E+03  0.12700000000E+01 0.  1.
         25    2    1    2    0    0  0.00000000000E+00  0.00000000000E+00 -0.97162731945E+02  0.15832061698E+03  0.12499928512E+03 0.  0.
    9000005    1    3    3    0    0 -0.32472060049E+02  0.29391975851E+02  0.78754036636E+01  0.44512300671E+02  0.10000000000E+01 0.  0.
    9000005    1    3    3    0    0  0.32472060049E+02 -0.29391975851E+02 -0.10503813561E+03  0.11380831631E+03  0.10000000000E+01 0.  0.
<mgrwt>
<rscale>  0 0.12499929E+03</rscale>
<asrwt>0</asrwt>
<pdfrwt beam="2">  1        4 0.19652565E-01 0.12499929E+03</pdfrwt>
<pdfrwt beam="1">  1       -4 0.47044528E-02 0.12499929E+03</pdfrwt>
<totfact> 0.97669107E+03</totfact>
</mgrwt>
</event>
<event>
 5    1  0.3316206E-002  0.1250008E+03  0.7818608E-02  0.1235068E+00
          4   -1    0    0  501    0  0.00000000000E+00  0.00000000000E+00  0.11545214627E+04  0.11545221612E+04  0.12700000000E+01 0. -1.
         -4   -1    0    0    0  501 -0.00000000000E+00 -0.00000000000E+00 -0.32635819818E+01  0.35019804899E+01  0.12700000000E+01 0. -1.
         25    2    1    2    0    0  0.00000000000E+00  0.00000000000E+00  0.11512578807E+04  0.11580241417E+04  0.12500081941E+03 0.  0.
    9000005    1    3    3    0    0  0.23557357470E+02  0.39856277973E+02  0.96448301918E+03  0.96559410017E+03  0.10000000000E+01 0.  0.
    9000005    1    3    3    0    0 -0.23557357470E+02 -0.39856277973E+02  0.18677486156E+03  0.19243004156E+03  0.10000000000E+01 0.  0.
<mgrwt>
<rscale>  0 0.12500082E+03</rscale>
<asrwt>0</asrwt>
<pdfrwt beam="1">  1        4 0.17763730E+00 0.12500082E+03</pdfrwt>
<pdfrwt beam="2">  1       -4 0.52048097E-03 0.12500082E+03</pdfrwt>
<totfact> 0.25838138E+03</totfact>
</mgrwt>
</event>
<event>
 5    1  0.3316206E-002  0.1250005E+03  0.7818608E-02  0.1235069E+00
          4   -1    0    0  501    0  0.00000000000E+00  0.00000000000E+00  0.47288681819E+02  0.47305732508E+02  0.12700000000E+01 0. -1.
         -4   -1    0    0    0  501 -0.00000000000E+00 -0.00000000000E+00 -0.82568152284E+02  0.82577918789E+02  0.12700000000E+01 0. -1.
         25    2    1    2    0    0  0.00000000000E+00  0.00000000000E+00 -0.35279470465E+02  0.12988365130E+03  0.12500048735E+03 0.  0.
    9000005    1    3    3    0    0  0.11657866697E+01 -0.62999019659E+01 -0.82231093144E+02  0.82486365558E+02  0.10000000000E+01 0.  0.
    9000005    1    3    3    0    0 -0.11657866697E+01  0.62999019659E+01  0.46951622679E+02  0.47397285740E+02  0.10000000000E+01 0.  0.
<mgrwt>
<rscale>  0 0.12500049E+03</rscale>
<asrwt>0</asrwt>
<pdfrwt beam="1">  1        4 0.72772447E-02 0.12500049E+03</pdfrwt>
<pdfrwt beam="2">  1       -4 0.12704856E-01 0.12500049E+03</pdfrwt>
<totfact> 0.10346883E+04</totfact>
</mgrwt>
</event>
<event>
 5    1  0.3316206E-002  0.1250023E+03  0.7818608E-02  0.1235066E+00
          4   -1    0    0  501    0  0.00000000000E+00  0.00000000000E+00  0.15543815083E+02  0.15595611157E+02  0.12700000000E+01 0.  1.
         -4   -1    0    0    0  501 -0.00000000000E+00 -0.00000000000E+00 -0.25084342447E+03  0.25084663941E+03  0.12700000000E+01 0.  1.
         25    2    1    2    0    0  0.00000000000E+00  0.00000000000E+00 -0.23529960939E+03  0.26644225056E+03  0.12500226680E+03 0.  0.
    9000005    1    3    3    0    0 -0.12485313941E+02 -0.11292073845E+02 -0.24592990436E+03  0.24650742759E+03  0.10000000000E+01 0.  0.
    9000005    1    3    3    0    0  0.12485313941E+02  0.11292073845E+02  0.10630294972E+02  0.19934822977E+02  0.10000000000E+01 0.  0.
<mgrwt>
<rscale>  0 0.12500227E+03</rscale>
<asrwt>0</asrwt>
<pdfrwt beam="1">  1        4 0.23955880E-02 0.12500227E+03</pdfrwt>
<pdfrwt beam="2">  1       -4 0.38595525E-01 0.12500227E+03</pdfrwt>
<totfact> 0.80006364E+03</totfact>
</mgrwt>
</event>
<event>
 5    1  0.3316206E-002  0.1249980E+03  0.7818608E-02  0.1235072E+00
         -4   -1    0    0    0  501 -0.00000000000E+00  0.00000000000E+00  0.10927345794E+02  0.11000899332E+02  0.12700000000E+01 0.  1.
          4   -1    0    0  501    0  0.00000000000E+00 -0.00000000000E+00 -0.35618972139E+03  0.35619198548E+03  0.12700000000E+01 0.  1.
         25    2    1    2    0    0  0.00000000000E+00  0.00000000000E+00 -0.34526237559E+03  0.36719288481E+03  0.12499802662E+03 0.  0.
    9000005    1    3    3    0    0 -0.15404456158E+02  0.26281266695E+02 -0.12347401606E+02  0.32885567884E+02  0.10000000000E+01 0.  0.
    9000005    1    3    3    0    0  0.15404456158E+02 -0.26281266695E+02 -0.33291497399E+03  0.33430731693E+03  0.10000000000E+01 0.  0.
<mgrwt>
<rscale>  0 0.12499803E+03</rscale>
<asrwt>0</asrwt>
<pdfrwt beam="2">  1        4 0.54804242E-01 0.12499803E+03</pdfrwt>
<pdfrwt beam="1">  1       -4 0.16869625E-02 0.12499803E+03</pdfrwt>
<totfact> 0.67876605E+03</totfact>
</mgrwt>
</event>
<event>
 5    1  0.3316206E-002  0.1250037E+03  0.7818608E-02  0.1235064E+00
         -4   -1    0    0    0  501 -0.00000000000E+00  0.00000000000E+00  0.26848448639E+03  0.26848749008E+03  0.12700000000E+01 0. -1.
          4   -1    0    0  501    0  0.00000000000E+00 -0.00000000000E+00 -0.14519306574E+02  0.14574744025E+02  0.12700000000E+01 0. -1.
         25    2    1    2    0    0  0.00000000000E+00  0.00000000000E+00  0.25396517981E+03  0.28306223411E+03  0.12500366323E+03 0.  0.
    9000005    1    3    3    0    0 -0.51101613536E+02 -0.16856321134E+02  0.19894622645E+03  0.20609733498E+03  0.10000000000E+01 0.  0.
    9000005    1    3    3    0    0  0.51101613536E+02  0.16856321134E+02  0.55018953364E+02  0.76964899126E+02  0.10000000000E+01 0.  0.
<mgrwt>
<rscale>  0 0.12500366E+03</rscale>
<asrwt>0</asrwt>
<pdfrwt beam="2">  1        4 0.22382351E-02 0.12500366E+03</pdfrwt>
<pdfrwt beam="1">  1       -4 0.41309798E-01 0.12500366E+03</pdfrwt>
<totfact> 0.77767490E+03</totfact>
</mgrwt>
</event>
<event>
 5    1  0.3316206E-002  0.1249992E+03  0.7818608E-02  0.1235071E+00
          4   -1    0    0  501    0  0.00000000000E+00  0.00000000000E+00  0.32215322441E+02  0.32240345842E+02  0.12700000000E+01 0. -1.
         -4   -1    0    0    0  501 -0.00000000000E+00 -0.00000000000E+00 -0.12117743625E+03  0.12118409119E+03  0.12700000000E+01 0. -1.
         25    2    1    2    0    0  0.00000000000E+00  0.00000000000E+00 -0.88962113811E+02  0.15342443703E+03  0.12499920073E+03 0.  0.
    9000005    1    3    3    0    0 -0.39134373312E+02  0.25827569382E+02 -0.95186893015E+02  0.10611365189E+03  0.10000000000E+01 0.  0.
    9000005    1    3    3    0    0  0.39134373312E+02 -0.25827569382E+02  0.62247792038E+01  0.47310785143E+02  0.10000000000E+01 0.  0.
<mgrwt>
<rscale>  0 0.12499920E+03</rscale>
<asrwt>0</asrwt>
<pdfrwt beam="1">  1        4 0.49586403E-02 0.12499920E+03</pdfrwt>
<pdfrwt beam="2">  1       -4 0.18645119E-01 0.12499920E+03</pdfrwt>
<totfact> 0.98627189E+03</totfact>
</mgrwt>
</event>
<event>
 5    1  0.3316206E-002  0.1249476E+03  0.7818608E-02  0.1235151E+00
         -4   -1    0    0    0  501 -0.00000000000E+00  0.00000000000E+00  0.15002428165E+02  0.15056086837E+02  0.12700000000E+01 0. -1.
          4   -1    0    0  501    0  0.00000000000E+00 -0.00000000000E+00 -0.25963649535E+03  0.25963960141E+03  0.12700000000E+01 0. -1.
         25    2    1    2    0    0  0.00000000000E+00  0.00000000000E+00 -0.24463406719E+03  0.27469568824E+03  0.12494756625E+03 0.  0.
    9000005    1    3    3    0    0  0.46842287493E+02  0.14599597465E+02 -0.37322650608E+02  0.61654913771E+02  0.10000000000E+01 0.  0.
    9000005    1    3    3    0    0 -0.46842287493E+02 -0.14599597465E+02 -0.20731141658E+03  0.21304077447E+03  0.10000000000E+01 0.  0.
<mgrwt>
<rscale>  0 0.12494757E+03</rscale>
<asrwt>0</asrwt>
<pdfrwt beam="2">  1        4 0.39948439E-01 0.12494757E+03</pdfrwt>
<pdfrwt beam="1">  1       -4 0.23124326E-02 0.12494757E+03</pdfrwt>
<totfact> 0.78978765E+03</totfact>
</mgrwt>
</event>
<event>
 5    1  0.3316206E-002  0.1249996E+03  0.7818608E-02  0.1235070E+00
         -4   -1    0    0    0  501 -0.00000000000E+00  0.00000000000E+00  0.61022720607E+01  0.62330268973E+01  0.12700000000E+01 0. -1.
          4   -1    0    0  501    0  0.00000000000E+00 -0.00000000000E+00 -0.63320964096E+03  0.63321091455E+03  0.12700000000E+01 0. -1.
         25    2    1    2    0    0  0.00000000000E+00  0.00000000000E+00 -0.62710736890E+03  0.63944394145E+03  0.12499960850E+03 0.  0.
    9000005    1    3    3    0    0  0.44875410389E+01  0.47204566720E+02 -0.10532957427E+03  0.11551505685E+03  0.10000000000E+01 0.  0.
    9000005    1    3    3    0    0 -0.44875410389E+01 -0.47204566720E+02 -0.52177779463E+03  0.52392888460E+03  0.10000000000E+01 0.  0.
<mgrwt>
<rscale>  0 0.12499961E+03</rscale>
<asrwt>0</asrwt>
<pdfrwt beam="2">  1        4 0.97426973E-01 0.12499961E+03</pdfrwt>
<pdfrwt beam="1">  1       -4 0.94896762E-03 0.12499961E+03</pdfrwt>
<totfact> 0.46469207E+03</totfact>
</mgrwt>
</event>
<event>
 5    1  0.3316206E-002  0.1250005E+03  0.7818608E-02  0.1235068E+00
          4   -1    0    0  501    0  0.00000000000E+00  0.00000000000E+00  0.32443344556E+03  0.32443593127E+03  0.12700000000E+01 0. -1.
         -4   -1    0    0    0  501 -0.00000000000E+00 -0.00000000000E+00 -0.12004288009E+02  0.12071281233E+02  0.12700000000E+01 0. -1.
         25    2    1    2    0    0  0.00000000000E+00  0.00000000000E+00  0.31242915755E+03  0.33650721250E+03  0.12500050231E+03 0.  0.
    9000005    1    3    3    0    0 -0.22482053571E+02 -0.36123583504E+02  0.32998637906E+02  0.53854118892E+02  0.10000000000E+01 0.  0.
    9000005    1    3    3    0    0  0.22482053571E+02  0.36123583504E+02  0.27943051964E+03  0.28265309361E+03  0.10000000000E+01 0.  0.
<mgrwt>
<rscale>  0 0.12500050E+03</rscale>
<asrwt>0</asrwt>
<pdfrwt beam="1">  1        4 0.49918172E-01 0.12500050E+03</pdfrwt>
<pdfrwt beam="2">  1       -4 0.18521584E-02 0.12500050E+03</pdfrwt>
<totfact> 0.71234100E+03</totfact>
</mgrwt>
</event>
<event>
 5    1  0.3316206E-002  0.1249995E+03  0.7818608E-02  0.1235070E+00
          4   -1    0    0  501    0  0.00000000000E+00  0.00000000000E+00  0.21746152172E+03  0.21746523017E+03  0.12700000000E+01 0.  1.
         -4   -1    0    0    0  501 -0.00000000000E+00 -0.00000000000E+00 -0.17936478751E+02  0.17981383984E+02  0.12700000000E+01 0.  1.
         25    2    1    2    0    0  0.00000000000E+00  0.00000000000E+00  0.19952504297E+03  0.23544661415E+03  0.12499946136E+03 0.  0.
    9000005    1    3    3    0    0 -0.56516955288E+02 -0.21127522880E+02  0.69118685500E+02  0.91754733629E+02  0.10000000000E+01 0.  0.
    9000005    1    3    3    0    0  0.56516955288E+02  0.21127522880E+02  0.13040635747E+03  0.14369188052E+03  0.10000000000E+01 0.  0.
<mgrwt>
<rscale>  0 0.12499946E+03</rscale>
<asrwt>0</asrwt>
<pdfrwt beam="1">  1        4 0.33459359E-01 0.12499946E+03</pdfrwt>
<pdfrwt beam="2">  1       -4 0.27631978E-02 0.12499946E+03</pdfrwt>
<totfact> 0.84481235E+03</totfact>
</mgrwt>
</event>
<event>
 5    1  0.3316206E-002  0.1250034E+03  0.7818608E-02  0.1235064E+00
         -4   -1    0    0    0  501 -0.00000000000E+00  0.00000000000E+00  0.57630957752E+01  0.59013704268E+01  0.12700000000E+01 0.  1.
          4   -1    0    0  501    0  0.00000000000E+00 -0.00000000000E+00 -0.66966658097E+03  0.66966778522E+03  0.12700000000E+01 0.  1.
         25    2    1    2    0    0  0.00000000000E+00  0.00000000000E+00 -0.66390348519E+03  0.67556915565E+03  0.12500338561E+03 0.  0.
    9000005    1    3    3    0    0 -0.27690987846E+02  0.55443764198E+02 -0.37540929272E+03  0.38049170668E+03  0.10000000000E+01 0.  0.
    9000005    1    3    3    0    0  0.27690987846E+02 -0.55443764198E+02 -0.28849419247E+03  0.29507744896E+03  0.10000000000E+01 0.  0.
<mgrwt>
<rscale>  0 0.12500339E+03</rscale>
<asrwt>0</asrwt>
<pdfrwt beam="2">  1        4 0.10303630E+00 0.12500339E+03</pdfrwt>
<pdfrwt beam="1">  1       -4 0.89735980E-03 0.12500339E+03</pdfrwt>
<totfact> 0.44404856E+03</totfact>
</mgrwt>
</event>
<event>
 5    1  0.3316206E-002  0.1249984E+03  0.7818608E-02  0.1235072E+00
         -4   -1    0    0    0  501 -0.00000000000E+00  0.00000000000E+00  0.93574457437E+01  0.94432351896E+01  0.12700000000E+01 0.  1.
          4   -1    0    0  501    0  0.00000000000E+00 -0.00000000000E+00 -0.41544623772E+03  0.41544817888E+03  0.12700000000E+01 0.  1.
         25    2    1    2    0    0  0.00000000000E+00  0.00000000000E+00 -0.40608879198E+03  0.42489141407E+03  0.12499842712E+03 0.  0.
    9000005    1    3    3    0    0  0.36152654952E+02  0.34896424007E+02 -0.32933534798E+03  0.33314793456E+03  0.10000000000E+01 0.  0.
    9000005    1    3    3    0    0 -0.36152654952E+02 -0.34896424007E+02 -0.76753443997E+02  0.91743479517E+02  0.10000000000E+01 0.  0.
<mgrwt>
<rscale>  0 0.12499843E+03</rscale>
<asrwt>0</asrwt>
<pdfrwt beam="2">  1        4 0.63921540E-01 0.12499843E+03</pdfrwt>
<pdfrwt beam="1">  1       -4 0.14463559E-02 0.12499843E+03</pdfrwt>
<totfact> 0.62203963E+03</totfact>
</mgrwt>
</event>
<event>
 5    1  0.3316206E-002  0.1249900E+03  0.7818608E-02  0.1235085E+00
         -4   -1    0    0    0  501 -0.00000000000E+00  0.00000000000E+00  0.12439810934E+02  0.12504471043E+02  0.12700000000E+01 0.  1.
          4   -1    0    0  501    0  0.00000000000E+00 -0.00000000000E+00 -0.31308188975E+03  0.31308446558E+03  0.12700000000E+01 0.  1.
         25    2    1    2    0    0  0.00000000000E+00  0.00000000000E+00 -0.30064207881E+03  0.32558893662E+03  0.12498998399E+03 0.  0.
    9000005    1    3    3    0    0 -0.42800037851E+02 -0.23719046658E+00 -0.26891572279E+03  0.27230234200E+03  0.10000000000E+01 0.  0.
    9000005    1    3    3    0    0  0.42800037851E+02  0.23719046658E+00 -0.31726356027E+02  0.53286594619E+02  0.10000000000E+01 0.  0.
<mgrwt>
<rscale>  0 0.12498998E+03</rscale>
<asrwt>0</asrwt>
<pdfrwt beam="2">  1        4 0.48171611E-01 0.12498998E+03</pdfrwt>
<pdfrwt beam="1">  1       -4 0.19189893E-02 0.12498998E+03</pdfrwt>
<totfact> 0.72512385E+03</totfact>
</mgrwt>
</event>
<event>
 5    1  0.3316206E-002  0.1250015E+03  0.7818608E-02  0.1235067E+00
         -4   -1    0    0    0  501 -0.00000000000E+00  0.00000000000E+00  0.24622884671E+02  0.24655614969E+02  0.12700000000E+01 0.  1.
          4   -1    0    0  501    0  0.00000000000E+00 -0.00000000000E+00 -0.15850622132E+03  0.15851130905E+03  0.12700000000E+01 0.  1.
         25    2    1    2    0    0  0.00000000000E+00  0.00000000000E+00 -0.13388333665E+03  0.18316692402E+03  0.12500149688E+03 0.  0.
    9000005    1    3    3    0    0 -0.17767752293E+02  0.34357339534E+02  0.49817643717E+01  0.39012020938E+02  0.10000000000E+01 0.  0.
    9000005    1    3    3    0    0  0.17767752293E+02 -0.34357339534E+02 -0.13886510102E+03  0.14415490308E+03  0.10000000000E+01 0.  0.
<mgrwt>
<rscale>  0 0.12500150E+03</rscale>
<asrwt>0</asrwt>
<pdfrwt beam="2">  1        4 0.24388481E-01 0.12500150E+03</pdfrwt>
<pdfrwt beam="1">  1       -4 0.37910453E-02 0.12500150E+03</pdfrwt>
<totfact> 0.93046911E+03</totfact>
</mgrwt>
</event>
<event>
 5    1  0.3316206E-002  0.1249976E+03  0.7818608E-02  0.1235073E+00
         -4   -1    0    0    0  501 -0.00000000000E+00  0.00000000000E+00  0.45307094243E+03  0.45307272239E+03  0.12700000000E+01 0.  1.
          4   -1    0    0  501    0  0.00000000000E+00 -0.00000000000E+00 -0.85728103069E+01  0.86663704374E+01  0.12700000000E+01 0.  1.
         25    2    1    2    0    0  0.00000000000E+00  0.00000000000E+00  0.44449813212E+03  0.46173909283E+03  0.12499760152E+03 0.  0.
    9000005    1    3    3    0    0  0.73878649338E+01 -0.29146458509E+02  0.19887413721E+02  0.36063912938E+02  0.10000000000E+01 0.  0.
    9000005    1    3    3    0    0 -0.73878649338E+01  0.29146458509E+02  0.42461071840E+03  0.42567517989E+03  0.10000000000E+01 0.  0.
<mgrwt>
<rscale>  0 0.12499760E+03</rscale>
<asrwt>0</asrwt>
<pdfrwt beam="2">  1        4 0.13262275E-02 0.12499760E+03</pdfrwt>
<pdfrwt beam="1">  1       -4 0.69710570E-01 0.12499760E+03</pdfrwt>
<totfact> 0.58963264E+03</totfact>
</mgrwt>
</event>
<event>
 5    1  0.3316206E-002  0.1249998E+03  0.7818608E-02  0.1235070E+00
         -4   -1    0    0    0  501 -0.00000000000E+00  0.00000000000E+00  0.78384748469E+02  0.78395036148E+02  0.12700000000E+01 0. -1.
          4   -1    0    0  501    0  0.00000000000E+00 -0.00000000000E+00 -0.49812539079E+02  0.49828726147E+02  0.12700000000E+01 0. -1.
         25    2    1    2    0    0  0.00000000000E+00  0.00000000000E+00  0.28572209391E+02  0.12822376229E+03  0.12499984827E+03 0.  0.
    9000005    1    3    3    0    0  0.50727394277E+02 -0.36376421339E+02  0.17316612011E+02  0.64787171655E+02  0.10000000000E+01 0.  0.
    9000005    1    3    3    0    0 -0.50727394277E+02  0.36376421339E+02  0.11255597380E+02  0.63436590640E+02  0.10000000000E+01 0.  0.
<mgrwt>
<rscale>  0 0.12499985E+03</rscale>
<asrwt>0</asrwt>
<pdfrwt beam="2">  1        4 0.76655041E-02 0.12499985E+03</pdfrwt>
<pdfrwt beam="1">  1       -4 0.12061229E-01 0.12499985E+03</pdfrwt>
<totfact> 0.10382694E+04</totfact>
</mgrwt>
</event>
<event>
 5    1  0.3316206E-002  0.1250003E+03  0.7818608E-02  0.1235069E+00
          4   -1    0    0  501    0  0.00000000000E+00  0.00000000000E+00  0.74195465182E+02  0.74206333648E+02  0.12700000000E+01 0. -1.
         -4   -1    0    0    0  501 -0.00000000000E+00 -0.00000000000E+00 -0.52625955794E+02  0.52641277751E+02  0.12700000000E+01 0. -1.
         25    2    1    2    0    0  0.00000000000E+00  0.00000000000E+00  0.21569509387E+02  0.12684761140E+03  0.12500029113E+03 0.  0.
    9000005    1    3    3    0    0  0.21988711681E+02 -0.29200217045E+02  0.62220234410E+02  0.72170033164E+02  0.10000000000E+01 0.  0.
    9000005    1    3    3    0    0 -0.21988711681E+02  0.29200217045E+02 -0.40650725023E+02  0.54677578236E+02  0.10000000000E+01 0.  0.
<mgrwt>
<rscale>  0 0.12500029E+03</rscale>
<asrwt>0</asrwt>
<pdfrwt beam="1">  1        4 0.11416702E-01 0.12500029E+03</pdfrwt>
<pdfrwt beam="2">  1       -4 0.80983156E-02 0.12500029E+03</pdfrwt>
<totfact> 0.10412390E+04</totfact>
</mgrwt>
</event>
<event>
 5    1  0.3316206E-002  0.1250024E+03  0.7818608E-02  0.1235066E+00
         -4   -1    0    0    0  501 -0.00000000000E+00  0.00000000000E+00  0.13289988435E+03  0.13290595232E+03  0.12700000000E+01 0. -1.
          4   -1    0    0  501    0  0.00000000000E+00 -0.00000000000E+00 -0.29373078385E+02  0.29400520978E+02  0.12700000000E+01 0. -1.
         25    2    1    2    0    0  0.00000000000E+00  0.00000000000E+00  0.10352680597E+03  0.16230647329E+03  0.12500236685E+03 0.  0.
    9000005    1    3    3    0    0 -0.57481783432E+02  0.20974387301E+02  0.35271967698E+02  0.70634213059E+02  0.10000000000E+01 0.  0.
    9000005    1    3    3    0    0  0.57481783432E+02 -0.20974387301E+02  0.68254838271E+02  0.91672260235E+02  0.10000000000E+01 0.  0.
<mgrwt>
<rscale>  0 0.12500237E+03</rscale>
<asrwt>0</asrwt>
<pdfrwt beam="2">  1        4 0.45215129E-02 0.12500237E+03</pdfrwt>
<pdfrwt beam="1">  1       -4 0.20448714E-01 0.12500237E+03</pdfrwt>
<totfact> 0.96894795E+03</totfact>
</mgrwt>
</event>
<event>
 5    1  0.3316206E-002  0.1250004E+03  0.7818608E-02  0.1235069E+00
          4   -1    0    0  501    0  0.00000000000E+00  0.00000000000E+00  0.38343643363E+02  0.38364669767E+02  0.12700000000E+01 0.  1.
         -4   -1    0    0    0  501 -0.00000000000E+00 -0.00000000000E+00 -0.10182244751E+03  0.10183036736E+03  0.12700000000E+01 0.  1.
         25    2    1    2    0    0  0.00000000000E+00  0.00000000000E+00 -0.63478804145E+02  0.14019503713E+03  0.12500035944E+03 0.  0.
    9000005    1    3    3    0    0  0.40337170699E+02  0.19236349288E+02 -0.80731654350E+02  0.92280683179E+02  0.10000000000E+01 0.  0.
    9000005    1    3    3    0    0 -0.40337170699E+02 -0.19236349288E+02  0.17252850205E+02  0.47914353947E+02  0.10000000000E+01 0.  0.
<mgrwt>
<rscale>  0 0.12500036E+03</rscale>
<asrwt>0</asrwt>
<pdfrwt beam="1">  1        4 0.59012487E-02 0.12500036E+03</pdfrwt>
<pdfrwt beam="2">  1       -4 0.15667218E-01 0.12500036E+03</pdfrwt>
<totfact> 0.10129463E+04</totfact>
</mgrwt>
</event>
<event>
 5    1  0.3316206E-002  0.1250029E+03  0.7818608E-02  0.1235065E+00
          4   -1    0    0  501    0  0.00000000000E+00  0.00000000000E+00  0.17643170242E+02  0.17688820090E+02  0.12700000000E+01 0.  1.
         -4   -1    0    0    0  501 -0.00000000000E+00 -0.00000000000E+00 -0.22107955463E+03  0.22108320239E+03  0.12700000000E+01 0.  1.
         25    2    1    2    0    0  0.00000000000E+00  0.00000000000E+00 -0.20343638439E+03  0.23877202248E+03  0.12500286486E+03 0.  0.
    9000005    1    3    3    0    0  0.34149252971E+02  0.52732370292E+01 -0.20118182463E+03  0.20413011798E+03  0.10000000000E+01 0.  0.
    9000005    1    3    3    0    0 -0.34149252971E+02 -0.52732370292E+01 -0.22545597659E+01  0.34641904494E+02  0.10000000000E+01 0.  0.
<mgrwt>
<rscale>  0 0.12500286E+03</rscale>
<asrwt>0</asrwt>
<pdfrwt beam="1">  1        4 0.27181262E-02 0.12500286E+03</pdfrwt>
<pdfrwt beam="2">  1       -4 0.34016029E-01 0.12500286E+03</pdfrwt>
<totfact> 0.83975230E+03</totfact>
</mgrwt>
</event>
<event>
 5    1  0.3316206E-002  0.1250002E+03  0.7818608E-02  0.1235069E+00
          4   -1    0    0  501    0  0.00000000000E+00  0.00000000000E+00  0.37139905423E+03  0.37140122561E+03  0.12700000000E+01 0.  1.
         -4   -1    0    0    0  501 -0.00000000000E+00 -0.00000000000E+00 -0.10477147338E+02  0.10553838939E+02  0.12700000000E+01 0.  1.
         25    2    1    2    0    0  0.00000000000E+00  0.00000000000E+00  0.36092190689E+03  0.38195506455E+03  0.12500019383E+03 0.  0.
    9000005    1    3    3    0    0  0.38419478737E+02 -0.44633469903E+02  0.11657995636E+03  0.13061427642E+03  0.10000000000E+01 0.  0.
    9000005    1    3    3    0    0 -0.38419478737E+02  0.44633469903E+02  0.24434195053E+03  0.25134078812E+03  0.10000000000E+01 0.  0.
<mgrwt>
<rscale>  0 0.12500019E+03</rscale>
<asrwt>0</asrwt>
<pdfrwt beam="1">  1        4 0.57144366E-01 0.12500019E+03</pdfrwt>
<pdfrwt beam="2">  1       -4 0.16179357E-02 0.12500019E+03</pdfrwt>
<totfact> 0.66346210E+03</totfact>
</mgrwt>
</event>
<event>
 5    1  0.3316206E-002  0.1250049E+03  0.7818608E-02  0.1235062E+00
          4   -1    0    0  501    0  0.00000000000E+00  0.00000000000E+00  0.42166782219E+02  0.42185903127E+02  0.12700000000E+01 0.  1.
         -4   -1    0    0    0  501 -0.00000000000E+00 -0.00000000000E+00 -0.92600890911E+02  0.92609599381E+02  0.12700000000E+01 0.  1.
         25    2    1    2    0    0  0.00000000000E+00  0.00000000000E+00 -0.50434108692E+02  0.13479550251E+03  0.12500491261E+03 0.  0.
    9000005    1    3    3    0    0 -0.23309266757E+02  0.56407266987E+02 -0.10731563611E+02  0.61977964981E+02  0.10000000000E+01 0.  0.
    9000005    1    3    3    0    0  0.23309266757E+02 -0.56407266987E+02 -0.39702545082E+02  0.72817537528E+02  0.10000000000E+01 0.  0.
<mgrwt>
<rscale>  0 0.12500491E+03</rscale>
<asrwt>0</asrwt>
<pdfrwt beam="1">  1        4 0.64893380E-02 0.12500491E+03</pdfrwt>
<pdfrwt beam="2">  1       -4 0.14248432E-01 0.12500491E+03</pdfrwt>
<totfact> 0.10241248E+04</totfact>
</mgrwt>
</event>
<event>
 5    1  0.3316206E-002  0.1249980E+03  0.7818608E-02  0.1235072E+00
         -4   -1    0    0    0  501 -0.00000000000E+00  0.00000000000E+00  0.12222249171E+03  0.12222908975E+03  0.12700000000E+01 0.  1.
          4   -1    0    0  501    0  0.00000000000E+00 -0.00000000000E+00 -0.31939030545E+02  0.31964270243E+02  0.12700000000E+01 0.  1.
         25    2    1    2    0    0  0.00000000000E+00  0.00000000000E+00  0.90283461168E+02  0.15419335999E+03  0.12499795560E+03 0.  0.
    9000005    1    3    3    0    0 -0.54144564716E+02  0.28588719842E+02  0.29725920745E+02  0.68070398520E+02  0.10000000000E+01 0.  0.
    9000005    1    3    3    0    0  0.54144564716E+02 -0.28588719842E+02  0.60557540423E+02  0.86122961471E+02  0.10000000000E+01 0.  0.
<mgrwt>
<rscale>  0 0.12499796E+03</rscale>
<asrwt>0</asrwt>
<pdfrwt beam="2">  1        4 0.49161459E-02 0.12499796E+03</pdfrwt>
<pdfrwt beam="1">  1       -4 0.18805910E-01 0.12499796E+03</pdfrwt>
<totfact> 0.98478613E+03</totfact>
</mgrwt>
</event>
<event>
 5    1  0.3316206E-002  0.1249970E+03  0.7818608E-02  0.1235074E+00
          4   -1    0    0  501    0  0.00000000000E+00  0.00000000000E+00  0.19823659275E+03  0.19824066082E+03  0.12700000000E+01 0. -1.
         -4   -1    0    0    0  501 -0.00000000000E+00 -0.00000000000E+00 -0.19679315453E+02  0.19720252451E+02  0.12700000000E+01 0. -1.
         25    2    1    2    0    0  0.00000000000E+00  0.00000000000E+00  0.17855727729E+03  0.21796091328E+03  0.12499703373E+03 0.  0.
    9000005    1    3    3    0    0 -0.23210430008E+02  0.48522028337E+02  0.33808512860E+02  0.63538388686E+02  0.10000000000E+01 0.  0.
    9000005    1    3    3    0    0  0.23210430008E+02 -0.48522028337E+02  0.14474876443E+03  0.15442252459E+03  0.10000000000E+01 0.  0.
<mgrwt>
<rscale>  0 0.12499703E+03</rscale>
<asrwt>0</asrwt>
<pdfrwt beam="1">  1        4 0.30501399E-01 0.12499703E+03</pdfrwt>
<pdfrwt beam="2">  1       -4 0.30310489E-02 0.12499703E+03</pdfrwt>
<totfact> 0.87197818E+03</totfact>
</mgrwt>
</event>
<event>
 5    1  0.3316206E-002  0.1249994E+03  0.7818608E-02  0.1235070E+00
         -4   -1    0    0    0  501 -0.00000000000E+00  0.00000000000E+00  0.43831041915E+03  0.43831225905E+03  0.12700000000E+01 0. -1.
          4   -1    0    0  501    0  0.00000000000E+00 -0.00000000000E+00 -0.88648702356E+01  0.89553796286E+01  0.12700000000E+01 0. -1.
         25    2    1    2    0    0  0.00000000000E+00  0.00000000000E+00  0.42944554891E+03  0.44726763868E+03  0.12499944451E+03 0.  0.
    9000005    1    3    3    0    0  0.56817733525E+02 -0.23281705446E+02  0.25628528701E+03  0.26354020754E+03  0.10000000000E+01 0.  0.
    9000005    1    3    3    0    0 -0.56817733525E+02  0.23281705446E+02  0.17316026190E+03  0.18372743114E+03  0.10000000000E+01 0.  0.
<mgrwt>
<rscale>  0 0.12499944E+03</rscale>
<asrwt>0</asrwt>
<pdfrwt beam="2">  1        4 0.13709298E-02 0.12499944E+03</pdfrwt>
<pdfrwt beam="1">  1       -4 0.67439483E-01 0.12499944E+03</pdfrwt>
<totfact> 0.60201963E+03</totfact>
</mgrwt>
</event>
<event>
 5    1  0.3316206E-002  0.1250280E+03  0.7818608E-02  0.1235026E+00
         -4   -1    0    0    0  501 -0.00000000000E+00  0.00000000000E+00  0.32904544926E+02  0.32929044578E+02  0.12700000000E+01 0. -1.
          4   -1    0    0  501    0  0.00000000000E+00 -0.00000000000E+00 -0.11869564467E+03  0.11870243874E+03  0.12700000000E+01 0. -1.
         25    2    1    2    0    0  0.00000000000E+00  0.00000000000E+00 -0.85791099743E+02  0.15163148332E+03  0.12502797263E+03 0.  0.
    9000005    1    3    3    0    0  0.50843805255E+02  0.31849525217E+02 -0.64162951149E+02  0.87848557698E+02  0.10000000000E+01 0.  0.
    9000005    1    3    3    0    0 -0.50843805255E+02 -0.31849525217E+02 -0.21628148594E+02  0.63782925623E+02  0.10000000000E+01 0.  0.
<mgrwt>
<rscale>  0 0.12502797E+03</rscale>
<asrwt>0</asrwt>
<pdfrwt beam="2">  1        4 0.18263275E-01 0.12502797E+03</pdfrwt>
<pdfrwt beam="1">  1       -4 0.50646449E-02 0.12502797E+03</pdfrwt>
<totfact> 0.98917201E+03</totfact>
</mgrwt>
</event>
<event>
 5    1  0.3316206E-002  0.1249994E+03  0.7818608E-02  0.1235070E+00
          4   -1    0    0  501    0  0.00000000000E+00  0.00000000000E+00  0.15810438817E+04  0.15810443918E+04  0.12700000000E+01 0. -1.
         -4   -1    0    0    0  501 -0.00000000000E+00 -0.00000000000E+00 -0.23069043449E+01  0.26333833098E+01  0.12700000000E+01 0. -1.
         25    2    1    2    0    0  0.00000000000E+00  0.00000000000E+00  0.15787369774E+04  0.15836777751E+04  0.12499940651E+03 0.  0.
    9000005    1    3    3    0    0 -0.52611791023E+02  0.25823954201E+02  0.10641344071E+04  0.10657475843E+04  0.10000000000E+01 0.  0.
    9000005    1    3    3    0    0  0.52611791023E+02 -0.25823954201E+02  0.51460257031E+03  0.51793019080E+03  0.10000000000E+01 0.  0.
<mgrwt>
<rscale>  0 0.12499941E+03</rscale>
<asrwt>0</asrwt>
<pdfrwt beam="1">  1        4 0.24326232E+00 0.12499941E+03</pdfrwt>
<pdfrwt beam="2">  1       -4 0.38006192E-03 0.12499941E+03</pdfrwt>
<totfact> 0.16343156E+03</totfact>
</mgrwt>
</event>
<event>
 5    1  0.3316206E-002  0.1250002E+03  0.7818608E-02  0.1235069E+00
         -4   -1    0    0    0  501 -0.00000000000E+00  0.00000000000E+00  0.59515034108E+02  0.59528582924E+02  0.12700000000E+01 0. -1.
          4   -1    0    0  501    0  0.00000000000E+00 -0.00000000000E+00 -0.65607718482E+02  0.65620009329E+02  0.12700000000E+01 0. -1.
         25    2    1    2    0    0  0.00000000000E+00  0.00000000000E+00 -0.60926843737E+01  0.12514859225E+03  0.12500019736E+03 0.  0.
    9000005    1    3    3    0    0 -0.22118043052E+02 -0.55262275769E+02 -0.22098788671E+02  0.63501837866E+02  0.10000000000E+01 0.  0.
    9000005    1    3    3    0    0  0.22118043052E+02  0.55262275769E+02  0.16006104298E+02  0.61646754387E+02  0.10000000000E+01 0.  0.
<mgrwt>
<rscale>  0 0.12500020E+03</rscale>
<asrwt>0</asrwt>
<pdfrwt beam="2">  1        4 0.10095483E-01 0.12500020E+03</pdfrwt>
<pdfrwt beam="1">  1       -4 0.91581467E-02 0.12500020E+03</pdfrwt>
<totfact> 0.10449589E+04</totfact>
</mgrwt>
</event>
<event>
 5    1  0.3316206E-002  0.1250048E+03  0.7818608E-02  0.1235062E+00
         -4   -1    0    0    0  501 -0.00000000000E+00  0.00000000000E+00  0.66564169480E+02  0.66576283755E+02  0.12700000000E+01 0. -1.
          4   -1    0    0  501    0  0.00000000000E+00 -0.00000000000E+00 -0.58664113281E+02  0.58677858576E+02  0.12700000000E+01 0. -1.
         25    2    1    2    0    0  0.00000000000E+00  0.00000000000E+00  0.79000561995E+01  0.12525414233E+03  0.12500475704E+03 0.  0.
    9000005    1    3    3    0    0  0.46148007844E+02 -0.35422409500E+02  0.26824536045E+02  0.64069817049E+02  0.10000000000E+01 0.  0.
    9000005    1    3    3    0    0 -0.46148007844E+02  0.35422409500E+02 -0.18924479845E+02  0.61184325281E+02  0.10000000000E+01 0.  0.
<mgrwt>
<rscale>  0 0.12500476E+03</rscale>
<asrwt>0</asrwt>
<pdfrwt beam="2">  1        4 0.90272374E-02 0.12500476E+03</pdfrwt>
<pdfrwt beam="1">  1       -4 0.10242631E-01 0.12500476E+03</pdfrwt>
<totfact> 0.10446222E+04</totfact>
</mgrwt>
</event>
<event>
 5    1  0.3316206E-002  0.1249989E+03  0.7818608E-02  0.1235071E+00
         -4   -1    0    0    0  501 -0.00000000000E+00  0.00000000000E+00  0.21321727426E+03  0.21322105651E+03  0.12700000000E+01 0. -1.
          4   -1    0    0  501    0  0.00000000000E+00 -0.00000000000E+00 -0.18294225802E+02  0.18338255034E+02  0.12700000000E+01 0. -1.
         25    2    1    2    0    0  0.00000000000E+00  0.00000000000E+00  0.19492304845E+03  0.23155931155E+03  0.12499887978E+03 0.  0.
    9000005    1    3    3    0    0 -0.65184366130E+01 -0.58907285083E+02  0.13416805140E+03  0.14667864285E+03  0.10000000000E+01 0.  0.
    9000005    1    3    3    0    0  0.65184366130E+01  0.58907285083E+02  0.60754997054E+02  0.84880668699E+02  0.10000000000E+01 0.  0.
<mgrwt>
<rscale>  0 0.12499888E+03</rscale>
<asrwt>0</asrwt>
<pdfrwt beam="2">  1        4 0.28181740E-02 0.12499888E+03</pdfrwt>
<pdfrwt beam="1">  1       -4 0.32806336E-01 0.12499888E+03</pdfrwt>
<totfact> 0.85072861E+03</totfact>
</mgrwt>
</event>
<event>
 5    1  0.3316206E-002  0.1250064E+03  0.7818608E-02  0.1235059E+00
         -4   -1    0    0    0  501 -0.00000000000E+00  0.00000000000E+00  0.20775012024E+02  0.20813794094E+02  0.12700000000E+01 0.  1.
          4   -1    0    0  501    0  0.00000000000E+00 -0.00000000000E+00 -0.18782919509E+03  0.18783348857E+03  0.12700000000E+01 0.  1.
         25    2    1    2    0    0  0.00000000000E+00  0.00000000000E+00 -0.16705418307E+03  0.20864728267E+03  0.12500635377E+03 0.  0.
    9000005    1    3    3    0    0  0.17033721019E+02 -0.19487169972E+02  0.11417035005E+02  0.28306291413E+02  0.10000000000E+01 0.  0.
    9000005    1    3    3    0    0 -0.17033721019E+02  0.19487169972E+02 -0.17847121808E+03  0.18034099125E+03  0.10000000000E+01 0.  0.
<mgrwt>
<rscale>  0 0.12500635E+03</rscale>
<asrwt>0</asrwt>
<pdfrwt beam="2">  1        4 0.28900112E-01 0.12500635E+03</pdfrwt>
<pdfrwt beam="1">  1       -4 0.31994693E-02 0.12500635E+03</pdfrwt>
<totfact> 0.88684676E+03</totfact>
</mgrwt>
</event>
<event>
 5    1  0.3316206E-002  0.1250011E+03  0.7818608E-02  0.1235068E+00
          4   -1    0    0  501    0  0.00000000000E+00  0.00000000000E+00  0.78544839022E+02  0.78555105735E+02  0.12700000000E+01 0.  1.
         -4   -1    0    0    0  501 -0.00000000000E+00 -0.00000000000E+00 -0.49711991301E+02  0.49728211099E+02  0.12700000000E+01 0.  1.
         25    2    1    2    0    0  0.00000000000E+00  0.00000000000E+00  0.28832847721E+02  0.12828331683E+03  0.12500110508E+03 0.  0.
    9000005    1    3    3    0    0  0.56447306030E+02  0.26806896486E+02  0.15074358425E+02  0.64289535223E+02  0.10000000000E+01 0.  0.
    9000005    1    3    3    0    0 -0.56447306030E+02 -0.26806896486E+02  0.13758489296E+02  0.63993781611E+02  0.10000000000E+01 0.  0.
<mgrwt>
<rscale>  0 0.12500111E+03</rscale>
<asrwt>0</asrwt>
<pdfrwt beam="1">  1        4 0.12085859E-01 0.12500111E+03</pdfrwt>
<pdfrwt beam="2">  1       -4 0.76500361E-02 0.12500111E+03</pdfrwt>
<totfact> 0.10381115E+04</totfact>
</mgrwt>
</event>
<event>
 5    1  0.3316206E-002  0.1249993E+03  0.7818608E-02  0.1235070E+00
          4   -1    0    0  501    0  0.00000000000E+00  0.00000000000E+00  0.17417256306E+02  0.17463496707E+02  0.12700000000E+01 0.  1.
         -4   -1    0    0    0  501 -0.00000000000E+00 -0.00000000000E+00 -0.22392687454E+03  0.22393047591E+03  0.12700000000E+01 0.  1.
         25    2    1    2    0    0  0.00000000000E+00  0.00000000000E+00 -0.20650961823E+03  0.24139397262E+03  0.12499931037E+03 0.  0.
    9000005    1    3    3    0    0  0.36169707857E+02  0.50916722360E+02 -0.99182612598E+02  0.11721327154E+03  0.10000000000E+01 0.  0.
    9000005    1    3    3    0    0 -0.36169707857E+02 -0.50916722360E+02 -0.10732700564E+03  0.12418070108E+03  0.10000000000E+01 0.  0.
<mgrwt>
<rscale>  0 0.12499931E+03</rscale>
<asrwt>0</asrwt>
<pdfrwt beam="1">  1        4 0.26834120E-02 0.12499931E+03</pdfrwt>
<pdfrwt beam="2">  1       -4 0.34454120E-01 0.12499931E+03</pdfrwt>
<totfact> 0.83591483E+03</totfact>
</mgrwt>
</event>
<event>
 5    1  0.3316206E-002  0.1249965E+03  0.7818608E-02  0.1235075E+00
          4   -1    0    0  501    0  0.00000000000E+00  0.00000000000E+00  0.40557703215E+02  0.40577582359E+02  0.12700000000E+01 0. -1.
         -4   -1    0    0    0  501 -0.00000000000E+00 -0.00000000000E+00 -0.96260316929E+02  0.96268694368E+02  0.12700000000E+01 0. -1.
         25    2    1    2    0    0  0.00000000000E+00  0.00000000000E+00 -0.55702613714E+02  0.13684627673E+03  0.12499648907E+03 0.  0.
    9000005    1    3    3    0    0  0.60533626057E+02  0.79269316673E+01 -0.42452621000E+02  0.74366532520E+02  0.10000000000E+01 0.  0.
    9000005    1    3    3    0    0 -0.60533626057E+02 -0.79269316673E+01 -0.13249992713E+02  0.62479744207E+02  0.10000000000E+01 0.  0.
<mgrwt>
<rscale>  0 0.12499649E+03</rscale>
<asrwt>0</asrwt>
<pdfrwt beam="1">  1        4 0.62418203E-02 0.12499649E+03</pdfrwt>
<pdfrwt beam="2">  1       -4 0.14811453E-01 0.12499649E+03</pdfrwt>
<totfact> 0.10200108E+04</totfact>
</mgrwt>
</event>
<event>
 5    1  0.3316206E-002  0.1249964E+03  0.7818608E-02  0.1235075E+00
          4   -1    0    0  501    0  0.00000000000E+00  0.00000000000E+00  0.10607132601E+03  0.10607892864E+03  0.12700000000E+01 0. -1.
         -4   -1    0    0    0  501 -0.00000000000E+00 -0.00000000000E+00 -0.36804611908E+02  0.36826517045E+02  0.12700000000E+01 0. -1.
         25    2    1    2    0    0  0.00000000000E+00  0.00000000000E+00  0.69266714106E+02  0.14290544569E+03  0.12499635485E+03 0.  0.
    9000005    1    3    3    0    0 -0.78105149250E+00 -0.62477978453E+02  0.33540137895E+02  0.70922836118E+02  0.10000000000E+01 0.  0.
    9000005    1    3    3    0    0  0.78105149250E+00  0.62477978453E+02  0.35726576211E+02  0.71982609572E+02  0.10000000000E+01 0.  0.
<mgrwt>
<rscale>  0 0.12499635E+03</rscale>
<asrwt>0</asrwt>
<pdfrwt beam="1">  1        4 0.16320935E-01 0.12499635E+03</pdfrwt>
<pdfrwt beam="2">  1       -4 0.56645178E-02 0.12499635E+03</pdfrwt>
<totfact> 0.10074547E+04</totfact>
</mgrwt>
</event>
<event>
 5    1  0.3316206E-002  0.1250060E+03  0.7818608E-02  0.1235060E+00
          4   -1    0    0  501    0  0.00000000000E+00  0.00000000000E+00  0.59346274716E+02  0.59359862050E+02  0.12700000000E+01 0.  1.
         -4   -1    0    0    0  501 -0.00000000000E+00 -0.00000000000E+00 -0.65800350861E+02  0.65812605733E+02  0.12700000000E+01 0.  1.
         25    2    1    2    0    0  0.00000000000E+00  0.00000000000E+00 -0.64540761448E+01  0.12517246778E+03  0.12500596623E+03 0.  0.
    9000005    1    3    3    0    0  0.22688164439E+02 -0.56119574773E+02  0.12332752479E+02  0.61783948255E+02  0.10000000000E+01 0.  0.
    9000005    1    3    3    0    0 -0.22688164439E+02  0.56119574773E+02 -0.18786828624E+02  0.63388519528E+02  0.10000000000E+01 0.  0.
<mgrwt>
<rscale>  0 0.12500597E+03</rscale>
<asrwt>0</asrwt>
<pdfrwt beam="1">  1        4 0.91321839E-02 0.12500597E+03</pdfrwt>
<pdfrwt beam="2">  1       -4 0.10125119E-01 0.12500597E+03</pdfrwt>
<totfact> 0.10447709E+04</totfact>
</mgrwt>
</event>
<event>
 5    1  0.3316206E-002  0.1250028E+03  0.7818608E-02  0.1235065E+00
         -4   -1    0    0    0  501 -0.00000000000E+00  0.00000000000E+00  0.63038189816E+02  0.63050981557E+02  0.12700000000E+01 0. -1.
          4   -1    0    0  501    0  0.00000000000E+00 -0.00000000000E+00 -0.61943625681E+02  0.61956643409E+02  0.12700000000E+01 0. -1.
         25    2    1    2    0    0  0.00000000000E+00  0.00000000000E+00  0.10945641352E+01  0.12500762497E+03  0.12500283288E+03 0.  0.
    9000005    1    3    3    0    0 -0.38977305240E+02 -0.40624152302E+02 -0.26580773612E+02  0.62266279798E+02  0.10000000000E+01 0.  0.
    9000005    1    3    3    0    0  0.38977305240E+02  0.40624152302E+02  0.27675337747E+02  0.62741345168E+02  0.10000000000E+01 0.  0.
<mgrwt>
<rscale>  0 0.12500283E+03</rscale>
<asrwt>0</asrwt>
<pdfrwt beam="2">  1        4 0.95317740E-02 0.12500283E+03</pdfrwt>
<pdfrwt beam="1">  1       -4 0.97001683E-02 0.12500283E+03</pdfrwt>
<totfact> 0.10452028E+04</totfact>
</mgrwt>
</event>
<event>
 5    1  0.3316206E-002  0.1250008E+03  0.7818608E-02  0.1235068E+00
          4   -1    0    0  501    0  0.00000000000E+00  0.00000000000E+00  0.53147055107E+02  0.53162226878E+02  0.12700000000E+01 0.  1.
         -4   -1    0    0    0  501 -0.00000000000E+00 -0.00000000000E+00 -0.73468746794E+02  0.73479722750E+02  0.12700000000E+01 0.  1.
         25    2    1    2    0    0  0.00000000000E+00  0.00000000000E+00 -0.20321691686E+02  0.12664194963E+03  0.12500084901E+03 0.  0.
    9000005    1    3    3    0    0  0.57650327832E+02 -0.23033573083E+02 -0.29116797852E+01  0.62157732160E+02  0.10000000000E+01 0.  0.
    9000005    1    3    3    0    0 -0.57650327832E+02  0.23033573083E+02 -0.17410011901E+02  0.64484217468E+02  0.10000000000E+01 0.  0.
<mgrwt>
<rscale>  0 0.12500085E+03</rscale>
<asrwt>0</asrwt>
<pdfrwt beam="1">  1        4 0.81784814E-02 0.12500085E+03</pdfrwt>
<pdfrwt beam="2">  1       -4 0.11304896E-01 0.12500085E+03</pdfrwt>
<totfact> 0.10416735E+04</totfact>
</mgrwt>
</event>
<event>
 5    1  0.3316206E-002  0.1250089E+03  0.7818608E-02  0.1235055E+00
         -4   -1    0    0    0  501 -0.00000000000E+00  0.00000000000E+00  0.10700877891E+03  0.10701631495E+03  0.12700000000E+01 0.  1.
          4   -1    0    0  501    0  0.00000000000E+00 -0.00000000000E+00 -0.36489324834E+02  0.36511419129E+02  0.12700000000E+01 0.  1.
         25    2    1    2    0    0  0.00000000000E+00  0.00000000000E+00  0.70519454081E+02  0.14352773408E+03  0.12500886787E+03 0.  0.
    9000005    1    3    3    0    0  0.46128389241E+02  0.20274589784E+02  0.77708591316E+02  0.92620259388E+02  0.10000000000E+01 0.  0.
    9000005    1    3    3    0    0 -0.46128389241E+02 -0.20274589784E+02 -0.71891372345E+01  0.50907474688E+02  0.10000000000E+01 0.  0.
<mgrwt>
<rscale>  0 0.12500887E+03</rscale>
<asrwt>0</asrwt>
<pdfrwt beam="2">  1        4 0.56160216E-02 0.12500887E+03</pdfrwt>
<pdfrwt beam="1">  1       -4 0.16465168E-01 0.12500887E+03</pdfrwt>
<totfact> 0.10058979E+04</totfact>
</mgrwt>
</event>
<event>
 5    1  0.3316206E-002  0.1249989E+03  0.7818608E-02  0.1235071E+00
          4   -1    0    0  501    0  0.00000000000E+00  0.00000000000E+00  0.14374803706E+01  0.19181370691E+01  0.12700000000E+01 0.  1.
         -4   -1    0    0    0  501 -0.00000000000E+00 -0.00000000000E+00 -0.23276622142E+04  0.23276625607E+04  0.12700000000E+01 0.  1.
         25    2    1    2    0    0  0.00000000000E+00  0.00000000000E+00 -0.23262247338E+04  0.23295806977E+04  0.12499885987E+03 0.  0.
    9000005    1    3    3    0    0 -0.56219658474E+02  0.24255235717E+02 -0.13960444432E+04  0.13973868662E+04  0.10000000000E+01 0.  0.
    9000005    1    3    3    0    0  0.56219658474E+02 -0.24255235717E+02 -0.93018029065E+03  0.93219383155E+03  0.10000000000E+01 0.  0.
<mgrwt>
<rscale>  0 0.12499886E+03</rscale>
<asrwt>0</asrwt>
<pdfrwt beam="1">  1        4 0.25815293E-03 0.12499886E+03</pdfrwt>
<pdfrwt beam="2">  1       -4 0.35813630E+00 0.12499886E+03</pdfrwt>
<totfact> 0.61501224E+02</totfact>
</mgrwt>
</event>
<event>
 5    1  0.3316206E-002  0.1250012E+03  0.7818608E-02  0.1235067E+00
         -4   -1    0    0    0  501 -0.00000000000E+00  0.00000000000E+00  0.60247279101E+02  0.60260663281E+02  0.12700000000E+01 0.  1.
          4   -1    0    0  501    0  0.00000000000E+00 -0.00000000000E+00 -0.64811404582E+02  0.64823846413E+02  0.12700000000E+01 0.  1.
         25    2    1    2    0    0  0.00000000000E+00  0.00000000000E+00 -0.45641254804E+01  0.12508450969E+03  0.12500121329E+03 0.  0.
    9000005    1    3    3    0    0  0.35691842413E+02  0.44510438956E+01 -0.53419995326E+02  0.64408192858E+02  0.10000000000E+01 0.  0.
    9000005    1    3    3    0    0 -0.35691842413E+02 -0.44510438956E+01  0.48855869845E+02  0.60676316837E+02  0.10000000000E+01 0.  0.
<mgrwt>
<rscale>  0 0.12500121E+03</rscale>
<asrwt>0</asrwt>
<pdfrwt beam="2">  1        4 0.99729719E-02 0.12500121E+03</pdfrwt>
<pdfrwt beam="1">  1       -4 0.92707988E-02 0.12500121E+03</pdfrwt>
<totfact> 0.10450741E+04</totfact>
</mgrwt>
</event>
<event>
 5    1  0.3316206E-002  0.1249970E+03  0.7818608E-02  0.1235074E+00
          4   -1    0    0  501    0  0.00000000000E+00  0.00000000000E+00  0.40613926174E+01  0.42553272486E+01  0.12700000000E+01 0.  1.
         -4   -1    0    0    0  501 -0.00000000000E+00 -0.00000000000E+00 -0.93913353248E+03  0.93913439119E+03  0.12700000000E+01 0.  1.
         25    2    1    2    0    0  0.00000000000E+00  0.00000000000E+00 -0.93507213986E+03  0.94338971844E+03  0.12499701645E+03 0.  0.
    9000005    1    3    3    0    0 -0.19247435396E+02 -0.29021923157E+02 -0.85914758597E+03  0.85985365631E+03  0.10000000000E+01 0.  0.
    9000005    1    3    3    0    0  0.19247435396E+02  0.29021923157E+02 -0.75924553889E+02  0.83536062131E+02  0.10000000000E+01 0.  0.
<mgrwt>
<rscale>  0 0.12499702E+03</rscale>
<asrwt>0</asrwt>
<pdfrwt beam="1">  1        4 0.63981449E-03 0.12499702E+03</pdfrwt>
<pdfrwt beam="2">  1       -4 0.14449690E+00 0.12499702E+03</pdfrwt>
<totfact> 0.32553989E+03</totfact>
</mgrwt>
</event>
<event>
 5    1  0.3316206E-002  0.1249991E+03  0.7818608E-02  0.1235071E+00
          4   -1    0    0  501    0  0.00000000000E+00  0.00000000000E+00  0.46997026151E+03  0.46997197747E+03  0.12700000000E+01 0.  1.
         -4   -1    0    0    0  501 -0.00000000000E+00 -0.00000000000E+00 -0.82613207710E+01  0.83583683145E+01  0.12700000000E+01 0.  1.
         25    2    1    2    0    0  0.00000000000E+00  0.00000000000E+00  0.46170894074E+03  0.47833034578E+03  0.12499909494E+03 0.  0.
    9000005    1    3    3    0    0  0.50237445700E+01 -0.14129011047E+02 -0.12931509453E+01  0.15084402607E+02  0.10000000000E+01 0.  0.
    9000005    1    3    3    0    0 -0.50237445700E+01  0.14129011047E+02  0.46300209169E+03  0.46324594317E+03  0.10000000000E+01 0.  0.
<mgrwt>
<rscale>  0 0.12499909E+03</rscale>
<asrwt>0</asrwt>
<pdfrwt beam="1">  1        4 0.72310716E-01 0.12499909E+03</pdfrwt>
<pdfrwt beam="2">  1       -4 0.12785696E-02 0.12499909E+03</pdfrwt>
<totfact> 0.57586901E+03</totfact>
</mgrwt>
</event>
<event>
 5    1  0.3316206E-002  0.1249997E+03  0.7818608E-02  0.1235070E+00
          4   -1    0    0  501    0  0.00000000000E+00  0.00000000000E+00  0.75020374722E+02  0.75031123698E+02  0.12700000000E+01 0.  1.
         -4   -1    0    0    0  501 -0.00000000000E+00 -0.00000000000E+00 -0.52046699531E+02  0.52062191964E+02  0.12700000000E+01 0.  1.
         25    2    1    2    0    0  0.00000000000E+00  0.00000000000E+00  0.22973675191E+02  0.12709331566E+03  0.12499968454E+03 0.  0.
    9000005    1    3    3    0    0 -0.85747387997E+01  0.37985009850E+02 -0.38207580766E+02  0.54563782372E+02  0.10000000000E+01 0.  0.
    9000005    1    3    3    0    0  0.85747387997E+01 -0.37985009850E+02  0.61181255957E+02  0.72529533290E+02  0.10000000000E+01 0.  0.
<mgrwt>
<rscale>  0 0.12499968E+03</rscale>
<asrwt>0</asrwt>
<pdfrwt beam="1">  1        4 0.11543615E-01 0.12499968E+03</pdfrwt>
<pdfrwt beam="2">  1       -4 0.80092031E-02 0.12499968E+03</pdfrwt>
<totfact> 0.10407193E+04</totfact>
</mgrwt>
</event>
<event>
 5    1  0.3316206E-002  0.1249965E+03  0.7818608E-02  0.1235075E+00
         -4   -1    0    0    0  501 -0.00000000000E+00  0.00000000000E+00  0.45881539300E+02  0.45899112721E+02  0.12700000000E+01 0.  1.
          4   -1    0    0  501    0  0.00000000000E+00 -0.00000000000E+00 -0.85094383575E+02  0.85103860171E+02  0.12700000000E+01 0.  1.
         25    2    1    2    0    0  0.00000000000E+00  0.00000000000E+00 -0.39212844275E+02  0.13100297289E+03  0.12499652695E+03 0.  0.
    9000005    1    3    3    0    0 -0.51055066345E+02  0.35755919411E+02 -0.24284938412E+02  0.66901896880E+02  0.10000000000E+01 0.  0.
    9000005    1    3    3    0    0  0.51055066345E+02 -0.35755919411E+02 -0.14927905862E+02  0.64101076012E+02  0.10000000000E+01 0.  0.
<mgrwt>
<rscale>  0 0.12499653E+03</rscale>
<asrwt>0</asrwt>
<pdfrwt beam="2">  1        4 0.13093524E-01 0.12499653E+03</pdfrwt>
<pdfrwt beam="1">  1       -4 0.70607791E-02 0.12499653E+03</pdfrwt>
<totfact> 0.10323834E+04</totfact>
</mgrwt>
</event>
<event>
 5    1  0.3316206E-002  0.1250002E+03  0.7818608E-02  0.1235069E+00
          4   -1    0    0  501    0  0.00000000000E+00  0.00000000000E+00  0.38456685531E+03  0.38456895234E+03  0.12700000000E+01 0.  1.
         -4   -1    0    0    0  501 -0.00000000000E+00 -0.00000000000E+00 -0.10115732217E+02  0.10195142877E+02  0.12700000000E+01 0.  1.
         25    2    1    2    0    0  0.00000000000E+00  0.00000000000E+00  0.37445112309E+03  0.39476409522E+03  0.12500018914E+03 0.  0.
    9000005    1    3    3    0    0 -0.44908557662E+02  0.34317587499E+02  0.10302857502E+03  0.11751749926E+03  0.10000000000E+01 0.  0.
    9000005    1    3    3    0    0  0.44908557662E+02 -0.34317587499E+02  0.27142254808E+03  0.27724659596E+03  0.10000000000E+01 0.  0.
<mgrwt>
<rscale>  0 0.12500019E+03</rscale>
<asrwt>0</asrwt>
<pdfrwt beam="1">  1        4 0.59170396E-01 0.12500019E+03</pdfrwt>
<pdfrwt beam="2">  1       -4 0.15625365E-02 0.12500019E+03</pdfrwt>
<totfact> 0.65064962E+03</totfact>
</mgrwt>
</event>
<event>
 5    1  0.3316206E-002  0.1249936E+03  0.7818608E-02  0.1235079E+00
         -4   -1    0    0    0  501 -0.00000000000E+00  0.00000000000E+00  0.37461113716E+03  0.37461328992E+03  0.12700000000E+01 0. -1.
          4   -1    0    0  501    0  0.00000000000E+00 -0.00000000000E+00 -0.10385555288E+02  0.10462918266E+02  0.12700000000E+01 0. -1.
         25    2    1    2    0    0  0.00000000000E+00  0.00000000000E+00  0.36422558187E+03  0.38507620818E+03  0.12499364632E+03 0.  0.
    9000005    1    3    3    0    0 -0.14709806657E+02 -0.15410759003E+02  0.36309261395E+03  0.36371845734E+03  0.10000000000E+01 0.  0.
    9000005    1    3    3    0    0  0.14709806657E+02  0.15410759003E+02  0.11329679235E+01  0.21357750847E+02  0.10000000000E+01 0.  0.
<mgrwt>
<rscale>  0 0.12499365E+03</rscale>
<asrwt>0</asrwt>
<pdfrwt beam="2">  1        4 0.16038946E-02 0.12499365E+03</pdfrwt>
<pdfrwt beam="1">  1       -4 0.57638588E-01 0.12499365E+03</pdfrwt>
<totfact> 0.66039884E+03</totfact>
</mgrwt>
</event>
<event>
 5    1  0.3316206E-002  0.1249986E+03  0.7818608E-02  0.1235071E+00
          4   -1    0    0  501    0  0.00000000000E+00  0.00000000000E+00  0.75354755098E+02  0.75365456383E+02  0.12700000000E+01 0. -1.
         -4   -1    0    0    0  501 -0.00000000000E+00 -0.00000000000E+00 -0.51814816090E+02  0.51830377834E+02  0.12700000000E+01 0. -1.
         25    2    1    2    0    0  0.00000000000E+00  0.00000000000E+00  0.23539939008E+02  0.12719583422E+03  0.12499860605E+03 0.  0.
    9000005    1    3    3    0    0  0.79473699378E+01 -0.58607835756E+02  0.32301955143E+02  0.67397740370E+02  0.10000000000E+01 0.  0.
    9000005    1    3    3    0    0 -0.79473699378E+01  0.58607835756E+02 -0.87620161352E+01  0.59798093847E+02  0.10000000000E+01 0.  0.
<mgrwt>
<rscale>  0 0.12499861E+03</rscale>
<asrwt>0</asrwt>
<pdfrwt beam="1">  1        4 0.11595059E-01 0.12499861E+03</pdfrwt>
<pdfrwt beam="2">  1       -4 0.79735305E-02 0.12499861E+03</pdfrwt>
<totfact> 0.10405221E+04</totfact>
</mgrwt>
</event>
<event>
 5    1  0.3316206E-002  0.1249982E+03  0.7818608E-02  0.1235072E+00
          4   -1    0    0  501    0  0.00000000000E+00  0.00000000000E+00  0.42519469238E+02  0.42538431615E+02  0.12700000000E+01 0. -1.
         -4   -1    0    0    0  501 -0.00000000000E+00 -0.00000000000E+00 -0.91823151021E+02  0.91831933245E+02  0.12700000000E+01 0. -1.
         25    2    1    2    0    0  0.00000000000E+00  0.00000000000E+00 -0.49303681784E+02  0.13437036486E+03  0.12499816765E+03 0.  0.
    9000005    1    3    3    0    0 -0.32073983837E+02  0.15919437434E+02 -0.79706772302E+02  0.87386145802E+02  0.10000000000E+01 0.  0.
    9000005    1    3    3    0    0  0.32073983837E+02 -0.15919437434E+02  0.30403090518E+02  0.46984219057E+02  0.10000000000E+01 0.  0.
<mgrwt>
<rscale>  0 0.12499817E+03</rscale>
<asrwt>0</asrwt>
<pdfrwt beam="1">  1        4 0.65435910E-02 0.12499817E+03</pdfrwt>
<pdfrwt beam="2">  1       -4 0.14128773E-01 0.12499817E+03</pdfrwt>
<totfact> 0.10251783E+04</totfact>
</mgrwt>
</event>
<event>
 5    1  0.3316206E-002  0.1250008E+03  0.7818608E-02  0.1235068E+00
         -4   -1    0    0    0  501 -0.00000000000E+00  0.00000000000E+00  0.43045804275E+02  0.43064534894E+02  0.12700000000E+01 0. -1.
          4   -1    0    0  501    0  0.00000000000E+00 -0.00000000000E+00 -0.90704578987E+02  0.90713469503E+02  0.12700000000E+01 0. -1.
         25    2    1    2    0    0  0.00000000000E+00  0.00000000000E+00 -0.47658774713E+02  0.13377800440E+03  0.12500078261E+03 0.  0.
    9000005    1    3    3    0    0 -0.19740150021E+02 -0.46209352362E+02 -0.63590822517E+02  0.81054120666E+02  0.10000000000E+01 0.  0.
    9000005    1    3    3    0    0  0.19740150021E+02  0.46209352362E+02  0.15932047804E+02  0.52723883732E+02  0.10000000000E+01 0.  0.
<mgrwt>
<rscale>  0 0.12500078E+03</rscale>
<asrwt>0</asrwt>
<pdfrwt beam="2">  1        4 0.13956675E-01 0.12500078E+03</pdfrwt>
<pdfrwt beam="1">  1       -4 0.66245562E-02 0.12500078E+03</pdfrwt>
<totfact> 0.10263711E+04</totfact>
</mgrwt>
</event>
<event>
 5    1  0.3316206E-002  0.1250006E+03  0.7818608E-02  0.1235068E+00
          4   -1    0    0  501    0  0.00000000000E+00  0.00000000000E+00  0.17110114487E+02  0.17157182688E+02  0.12700000000E+01 0.  1.
         -4   -1    0    0    0  501 -0.00000000000E+00 -0.00000000000E+00 -0.22794052647E+03  0.22794406442E+03  0.12700000000E+01 0.  1.
         25    2    1    2    0    0  0.00000000000E+00  0.00000000000E+00 -0.21083041198E+03  0.24510124711E+03  0.12500063488E+03 0.  0.
    9000005    1    3    3    0    0  0.60963378531E+01 -0.56744619881E+02 -0.15533566722E+03  0.16549104728E+03  0.10000000000E+01 0.  0.
    9000005    1    3    3    0    0 -0.60963378531E+01  0.56744619881E+02 -0.55494744762E+02  0.79610199829E+02  0.10000000000E+01 0.  0.
<mgrwt>
<rscale>  0 0.12500063E+03</rscale>
<asrwt>0</asrwt>
<pdfrwt beam="1">  1        4 0.26362182E-02 0.12500063E+03</pdfrwt>
<pdfrwt beam="2">  1       -4 0.35071664E-01 0.12500063E+03</pdfrwt>
<totfact> 0.83042271E+03</totfact>
</mgrwt>
</event>
<event>
 5    1  0.3316206E-002  0.1249998E+03  0.7818608E-02  0.1235070E+00
         -4   -1    0    0    0  501 -0.00000000000E+00  0.00000000000E+00  0.63903475416E+02  0.63916093985E+02  0.12700000000E+01 0.  1.
          4   -1    0    0  501    0  0.00000000000E+00 -0.00000000000E+00 -0.61101921144E+02  0.61115118158E+02  0.12700000000E+01 0.  1.
         25    2    1    2    0    0  0.00000000000E+00  0.00000000000E+00  0.28015542717E+01  0.12503121214E+03  0.12499982121E+03 0.  0.
    9000005    1    3    3    0    0 -0.37799836219E+02 -0.40710459110E+02  0.30027358503E+02  0.63157037278E+02  0.10000000000E+01 0.  0.
    9000005    1    3    3    0    0  0.37799836219E+02  0.40710459110E+02 -0.27225804231E+02  0.61874174865E+02  0.10000000000E+01 0.  0.
<mgrwt>
<rscale>  0 0.12499982E+03</rscale>
<asrwt>0</asrwt>
<pdfrwt beam="2">  1        4 0.94022814E-02 0.12499982E+03</pdfrwt>
<pdfrwt beam="1">  1       -4 0.98332897E-02 0.12499982E+03</pdfrwt>
<totfact> 0.10452227E+04</totfact>
</mgrwt>
</event>
<event>
 5    1  0.3316206E-002  0.1249961E+03  0.7818608E-02  0.1235075E+00
          4   -1    0    0  501    0  0.00000000000E+00  0.00000000000E+00  0.86995671666E+02  0.87004941174E+02  0.12700000000E+01 0.  1.
         -4   -1    0    0    0  501 -0.00000000000E+00 -0.00000000000E+00 -0.44878229200E+02  0.44896195341E+02  0.12700000000E+01 0.  1.
         25    2    1    2    0    0  0.00000000000E+00  0.00000000000E+00  0.42117442467E+02  0.13190113652E+03  0.12499612336E+03 0.  0.
    9000005    1    3    3    0    0  0.62371116907E+02  0.30253579364E+01  0.18539653536E+02  0.65146203021E+02  0.10000000000E+01 0.  0.
    9000005    1    3    3    0    0 -0.62371116907E+02 -0.30253579364E+01  0.23577788931E+02  0.66754933494E+02  0.10000000000E+01 0.  0.
<mgrwt>
<rscale>  0 0.12499612E+03</rscale>
<asrwt>0</asrwt>
<pdfrwt beam="1">  1        4 0.13386045E-01 0.12499612E+03</pdfrwt>
<pdfrwt beam="2">  1       -4 0.69064379E-02 0.12499612E+03</pdfrwt>
<totfact> 0.10304710E+04</totfact>
</mgrwt>
</event>
<event>
 5    1  0.3316206E-002  0.1249913E+03  0.7818608E-02  0.1235083E+00
         -4   -1    0    0    0  501 -0.00000000000E+00  0.00000000000E+00  0.20200377582E+03  0.20200776803E+03  0.12700000000E+01 0.  1.
          4   -1    0    0  501    0  0.00000000000E+00 -0.00000000000E+00 -0.19309790214E+02  0.19351508936E+02  0.12700000000E+01 0.  1.
         25    2    1    2    0    0  0.00000000000E+00  0.00000000000E+00  0.18269398561E+03  0.22135927697E+03  0.12499134820E+03 0.  0.
    9000005    1    3    3    0    0  0.52612123968E+02 -0.27762689094E+02  0.12522384173E+03  0.13863914683E+03  0.10000000000E+01 0.  0.
    9000005    1    3    3    0    0 -0.52612123968E+02  0.27762689094E+02  0.57470143872E+02  0.82720130142E+02  0.10000000000E+01 0.  0.
<mgrwt>
<rscale>  0 0.12499135E+03</rscale>
<asrwt>0</asrwt>
<pdfrwt beam="2">  1        4 0.29742532E-02 0.12499135E+03</pdfrwt>
<pdfrwt beam="1">  1       -4 0.31081021E-01 0.12499135E+03</pdfrwt>
<totfact> 0.86670463E+03</totfact>
</mgrwt>
</event>
<event>
 5    1  0.3316206E-002  0.1249966E+03  0.7818608E-02  0.1235075E+00
         -4   -1    0    0    0  501 -0.00000000000E+00  0.00000000000E+00  0.63313051399E+01  0.64574240046E+01  0.12700000000E+01 0. -1.
          4   -1    0    0  501    0  0.00000000000E+00 -0.00000000000E+00 -0.61072937634E+03  0.61073069681E+03  0.12700000000E+01 0. -1.
         25    2    1    2    0    0  0.00000000000E+00  0.00000000000E+00 -0.60439807120E+03  0.61718812081E+03  0.12499659196E+03 0.  0.
    9000005    1    3    3    0    0  0.94081139453E+01 -0.33358995831E+02 -0.45455935643E+02  0.57171472747E+02  0.10000000000E+01 0.  0.
    9000005    1    3    3    0    0 -0.94081139453E+01  0.33358995831E+02 -0.55894213556E+03  0.56001664807E+03  0.10000000000E+01 0.  0.
<mgrwt>
<rscale>  0 0.12499659E+03</rscale>
<asrwt>0</asrwt>
<pdfrwt beam="2">  1        4 0.93968123E-01 0.12499659E+03</pdfrwt>
<pdfrwt beam="1">  1       -4 0.98385045E-03 0.12499659E+03</pdfrwt>
<totfact> 0.47803903E+03</totfact>
</mgrwt>
</event>
<event>
 5    1  0.3316206E-002  0.1250012E+03  0.7818608E-02  0.1235067E+00
         -4   -1    0    0    0  501 -0.00000000000E+00  0.00000000000E+00  0.59784750666E+02  0.59798238370E+02  0.12700000000E+01 0. -1.
          4   -1    0    0  501    0  0.00000000000E+00 -0.00000000000E+00 -0.65312820323E+02  0.65325166656E+02  0.12700000000E+01 0. -1.
         25    2    1    2    0    0  0.00000000000E+00  0.00000000000E+00 -0.55280696573E+01  0.12512340503E+03  0.12500122772E+03 0.  0.
    9000005    1    3    3    0    0 -0.41410177727E+02 -0.29937767664E+02 -0.38774939396E+02  0.64152698129E+02  0.10000000000E+01 0.  0.
    9000005    1    3    3    0    0  0.41410177727E+02  0.29937767664E+02  0.33246869738E+02  0.60970706897E+02  0.10000000000E+01 0.  0.
<mgrwt>
<rscale>  0 0.12500123E+03</rscale>
<asrwt>0</asrwt>
<pdfrwt beam="2">  1        4 0.10050113E-01 0.12500123E+03</pdfrwt>
<pdfrwt beam="1">  1       -4 0.91996412E-02 0.12500123E+03</pdfrwt>
<totfact> 0.10449893E+04</totfact>
</mgrwt>
</event>
<event>
 5    1  0.3316206E-002  0.1250015E+03  0.7818608E-02  0.1235067E+00
          4   -1    0    0  501    0  0.00000000000E+00  0.00000000000E+00  0.17224090325E+02  0.17270847909E+02  0.12700000000E+01 0. -1.
         -4   -1    0    0    0  501 -0.00000000000E+00 -0.00000000000E+00 -0.22643936471E+03  0.22644292612E+03  0.12700000000E+01 0. -1.
         25    2    1    2    0    0  0.00000000000E+00  0.00000000000E+00 -0.20921527438E+03  0.24371377403E+03  0.12500149045E+03 0.  0.
    9000005    1    3    3    0    0  0.57562853095E+02 -0.17986760849E+02 -0.13654548109E+03  0.14927382232E+03  0.10000000000E+01 0.  0.
    9000005    1    3    3    0    0 -0.57562853095E+02  0.17986760849E+02 -0.72669793290E+02  0.94439951711E+02  0.10000000000E+01 0.  0.
<mgrwt>
<rscale>  0 0.12500149E+03</rscale>
<asrwt>0</asrwt>
<pdfrwt beam="1">  1        4 0.26537309E-02 0.12500149E+03</pdfrwt>
<pdfrwt beam="2">  1       -4 0.34840694E-01 0.12500149E+03</pdfrwt>
<totfact> 0.83244593E+03</totfact>
</mgrwt>
</event>
<event>
 5    1  0.3316206E-002  0.1250002E+03  0.7818608E-02  0.1235069E+00
          4   -1    0    0  501    0  0.00000000000E+00  0.00000000000E+00  0.59967804886E+03  0.59967939366E+03  0.12700000000E+01 0.  1.
         -4   -1    0    0    0  501 -0.00000000000E+00 -0.00000000000E+00 -0.64506707545E+01  0.65745002231E+01  0.12700000000E+01 0.  1.
         25    2    1    2    0    0  0.00000000000E+00  0.00000000000E+00  0.59322737811E+03  0.60625389389E+03  0.12500024687E+03 0.  0.
    9000005    1    3    3    0    0 -0.58362363199E+02  0.20977478389E+02  0.33388173954E+03  0.33959422262E+03  0.10000000000E+01 0.  0.
    9000005    1    3    3    0    0  0.58362363199E+02 -0.20977478389E+02  0.25934563857E+03  0.26665967127E+03  0.10000000000E+01 0.  0.
<mgrwt>
<rscale>  0 0.12500025E+03</rscale>
<asrwt>0</asrwt>
<pdfrwt beam="1">  1        4 0.92267799E-01 0.12500025E+03</pdfrwt>
<pdfrwt beam="2">  1       -4 0.10020396E-02 0.12500025E+03</pdfrwt>
<totfact> 0.48474945E+03</totfact>
</mgrwt>
</event>
<event>
 5    1  0.3316206E-002  0.1249997E+03  0.7818608E-02  0.1235070E+00
         -4   -1    0    0    0  501 -0.00000000000E+00  0.00000000000E+00  0.30603838703E+03  0.30604102215E+03  0.12700000000E+01 0. -1.
          4   -1    0    0  501    0  0.00000000000E+00 -0.00000000000E+00 -0.12729582150E+02  0.12792777716E+02  0.12700000000E+01 0. -1.
         25    2    1    2    0    0  0.00000000000E+00  0.00000000000E+00  0.29330880488E+03  0.31883379987E+03  0.12499974766E+03 0.  0.
    9000005    1    3    3    0    0  0.13935756633E+02  0.27860186710E+02  0.84737136612E+01  0.32298593463E+02  0.10000000000E+01 0.  0.
    9000005    1    3    3    0    0 -0.13935756633E+02 -0.27860186710E+02  0.28483509122E+03  0.28653520640E+03  0.10000000000E+01 0.  0.
<mgrwt>
<rscale>  0 0.12499975E+03</rscale>
<asrwt>0</asrwt>
<pdfrwt beam="2">  1        4 0.19634609E-02 0.12499975E+03</pdfrwt>
<pdfrwt beam="1">  1       -4 0.47087898E-01 0.12499975E+03</pdfrwt>
<totfact> 0.73295449E+03</totfact>
</mgrwt>
</event>
<event>
 5    1  0.3316206E-002  0.1249999E+03  0.7818608E-02  0.1235069E+00
         -4   -1    0    0    0  501 -0.00000000000E+00  0.00000000000E+00  0.10191525229E+03  0.10192316493E+03  0.12700000000E+01 0. -1.
          4   -1    0    0  501    0  0.00000000000E+00 -0.00000000000E+00 -0.38308440714E+02  0.38329486430E+02  0.12700000000E+01 0. -1.
         25    2    1    2    0    0  0.00000000000E+00  0.00000000000E+00  0.63606811580E+02  0.14025265136E+03  0.12499991894E+03 0.  0.
    9000005    1    3    3    0    0  0.52080078377E+02  0.18971576455E+02 -0.57989792653E+00  0.55439981589E+02  0.10000000000E+01 0.  0.
    9000005    1    3    3    0    0 -0.52080078377E+02 -0.18971576455E+02  0.64186709507E+02  0.84812669774E+02  0.10000000000E+01 0.  0.
<mgrwt>
<rscale>  0 0.12499992E+03</rscale>
<asrwt>0</asrwt>
<pdfrwt beam="2">  1        4 0.58958338E-02 0.12499992E+03</pdfrwt>
<pdfrwt beam="1">  1       -4 0.15681497E-01 0.12499992E+03</pdfrwt>
<totfact> 0.10128371E+04</totfact>
</mgrwt>
</event>
<event>
 5    1  0.3316206E-002  0.1249997E+03  0.7818608E-02  0.1235070E+00
         -4   -1    0    0    0  501 -0.00000000000E+00  0.00000000000E+00  0.16003617479E+04  0.16003622518E+04  0.12700000000E+01 0.  1.
          4   -1    0    0  501    0  0.00000000000E+00 -0.00000000000E+00 -0.22751060158E+01  0.26055723715E+01  0.12700000000E+01 0.  1.
         25    2    1    2    0    0  0.00000000000E+00  0.00000000000E+00  0.15980866419E+04  0.16029678242E+04  0.12499972166E+03 0.  0.
    9000005    1    3    3    0    0 -0.36108933435E+01  0.16921453055E+02  0.15690954003E+04  0.15691911131E+04  0.10000000000E+01 0.  0.
    9000005    1    3    3    0    0  0.36108933435E+01 -0.16921453055E+02  0.28991241527E+02  0.33776711053E+02  0.10000000000E+01 0.  0.
<mgrwt>
<rscale>  0 0.12499972E+03</rscale>
<asrwt>0</asrwt>
<pdfrwt beam="2">  1        4 0.37547513E-03 0.12499972E+03</pdfrwt>
<pdfrwt beam="1">  1       -4 0.24623524E+00 0.12499972E+03</pdfrwt>
<totfact> 0.15992656E+03</totfact>
</mgrwt>
</event>
<event>
 5    1  0.3316206E-002  0.1250008E+03  0.7818608E-02  0.1235068E+00
         -4   -1    0    0    0  501 -0.00000000000E+00  0.00000000000E+00  0.12424888505E+04  0.12424894995E+04  0.12700000000E+01 0.  1.
          4   -1    0    0  501    0  0.00000000000E+00 -0.00000000000E+00 -0.30149985097E+01  0.32715617086E+01  0.12700000000E+01 0.  1.
         25    2    1    2    0    0  0.00000000000E+00  0.00000000000E+00  0.12394738520E+04  0.12457610613E+04  0.12500076802E+03 0.  0.
    9000005    1    3    3    0    0 -0.61345502575E+02  0.94833663138E+01  0.54780659117E+03  0.55131321973E+03  0.10000000000E+01 0.  0.
    9000005    1    3    3    0    0  0.61345502575E+02 -0.94833663138E+01  0.69166726080E+03  0.69444784152E+03  0.10000000000E+01 0.  0.
<mgrwt>
<rscale>  0 0.12500077E+03</rscale>
<asrwt>0</asrwt>
<pdfrwt beam="2">  1        4 0.48363158E-03 0.12500077E+03</pdfrwt>
<pdfrwt beam="1">  1       -4 0.19117188E+00 0.12500077E+03</pdfrwt>
<totfact> 0.23544982E+03</totfact>
</mgrwt>
</event>
<event>
 5    1  0.3316206E-002  0.1249957E+03  0.7818608E-02  0.1235076E+00
          4   -1    0    0  501    0  0.00000000000E+00  0.00000000000E+00  0.18596237590E+02  0.18639553441E+02  0.12700000000E+01 0. -1.
         -4   -1    0    0    0  501 -0.00000000000E+00 -0.00000000000E+00 -0.20975192383E+03  0.20975576858E+03  0.12700000000E+01 0. -1.
         25    2    1    2    0    0  0.00000000000E+00  0.00000000000E+00 -0.19115568624E+03  0.22839532202E+03  0.12499570687E+03 0.  0.
    9000005    1    3    3    0    0 -0.15215397534E+02 -0.16899654946E+02 -0.20193232549E+03  0.20321114816E+03  0.10000000000E+01 0.  0.
    9000005    1    3    3    0    0  0.15215397534E+02  0.16899654946E+02  0.10776639247E+02  0.25184173857E+02  0.10000000000E+01 0.  0.
<mgrwt>
<rscale>  0 0.12499571E+03</rscale>
<asrwt>0</asrwt>
<pdfrwt beam="1">  1        4 0.28645875E-02 0.12499571E+03</pdfrwt>
<pdfrwt beam="2">  1       -4 0.32273153E-01 0.12499571E+03</pdfrwt>
<totfact> 0.85564805E+03</totfact>
</mgrwt>
</event>
<event>
 5    1  0.3316206E-002  0.1249994E+03  0.7818608E-02  0.1235070E+00
          4   -1    0    0  501    0  0.00000000000E+00  0.00000000000E+00  0.39139274240E+03  0.39139480285E+03  0.12700000000E+01 0. -1.
         -4   -1    0    0    0  501 -0.00000000000E+00 -0.00000000000E+00 -0.99377865508E+01  0.10018607764E+02  0.12700000000E+01 0. -1.
         25    2    1    2    0    0  0.00000000000E+00  0.00000000000E+00  0.38145495585E+03  0.40141341062E+03  0.12499937154E+03 0.  0.
    9000005    1    3    3    0    0  0.35250387254E+02 -0.13671735534E+02  0.35051153971E+03  0.35254623190E+03  0.10000000000E+01 0.  0.
    9000005    1    3    3    0    0 -0.35250387254E+02  0.13671735534E+02  0.30943416135E+02  0.48867178721E+02  0.10000000000E+01 0.  0.
<mgrwt>
<rscale>  0 0.12499937E+03</rscale>
<asrwt>0</asrwt>
<pdfrwt beam="1">  1        4 0.60220643E-01 0.12499937E+03</pdfrwt>
<pdfrwt beam="2">  1       -4 0.15352658E-02 0.12499937E+03</pdfrwt>
<totfact> 0.64416447E+03</totfact>
</mgrwt>
</event>
<event>
 5    1  0.3316206E-002  0.1249995E+03  0.7818608E-02  0.1235070E+00
         -4   -1    0    0    0  501 -0.00000000000E+00  0.00000000000E+00  0.19590142803E+02  0.19631265753E+02  0.12700000000E+01 0. -1.
          4   -1    0    0  501    0  0.00000000000E+00 -0.00000000000E+00 -0.19914505388E+03  0.19914910340E+03  0.12700000000E+01 0. -1.
         25    2    1    2    0    0  0.00000000000E+00  0.00000000000E+00 -0.17955491108E+03  0.21878036915E+03  0.12499953534E+03 0.  0.
    9000005    1    3    3    0    0  0.18695584608E+02  0.36730893041E+02 -0.75615933538E+01  0.41914926715E+02  0.10000000000E+01 0.  0.
    9000005    1    3    3    0    0 -0.18695584608E+02 -0.36730893041E+02 -0.17199331772E+03  0.17686544244E+03  0.10000000000E+01 0.  0.
<mgrwt>
<rscale>  0 0.12499954E+03</rscale>
<asrwt>0</asrwt>
<pdfrwt beam="2">  1        4 0.30641174E-01 0.12499954E+03</pdfrwt>
<pdfrwt beam="1">  1       -4 0.30173431E-02 0.12499954E+03</pdfrwt>
<totfact> 0.87062613E+03</totfact>
</mgrwt>
</event>
<event>
 5    1  0.3316206E-002  0.1250005E+03  0.7818608E-02  0.1235069E+00
          4   -1    0    0  501    0  0.00000000000E+00  0.00000000000E+00  0.51393240209E+01  0.52939164511E+01  0.12700000000E+01 0. -1.
         -4   -1    0    0    0  501 -0.00000000000E+00 -0.00000000000E+00 -0.74865911371E+03  0.74866019090E+03  0.12700000000E+01 0. -1.
         25    2    1    2    0    0  0.00000000000E+00  0.00000000000E+00 -0.74351978969E+03  0.75395410735E+03  0.12500047334E+03 0.  0.
    9000005    1    3    3    0    0  0.41038850618E+02 -0.38163180095E+02 -0.20497044408E+03  0.21249587884E+03  0.10000000000E+01 0.  0.
    9000005    1    3    3    0    0 -0.41038850618E+02  0.38163180095E+02 -0.53854934560E+03  0.54145822851E+03  0.10000000000E+01 0.  0.
<mgrwt>
<rscale>  0 0.12500047E+03</rscale>
<asrwt>0</asrwt>
<pdfrwt beam="1">  1        4 0.80264041E-03 0.12500047E+03</pdfrwt>
<pdfrwt beam="2">  1       -4 0.11519021E+00 0.12500047E+03</pdfrwt>
<totfact> 0.40385329E+03</totfact>
</mgrwt>
</event>
<event>
 5    1  0.3316206E-002  0.1250042E+03  0.7818608E-02  0.1235063E+00
          4   -1    0    0  501    0  0.00000000000E+00  0.00000000000E+00  0.65568389260E+01  0.66787002255E+01  0.12700000000E+01 0. -1.
         -4   -1    0    0    0  501 -0.00000000000E+00 -0.00000000000E+00 -0.59018443683E+03  0.59018580327E+03  0.12700000000E+01 0. -1.
         25    2    1    2    0    0  0.00000000000E+00  0.00000000000E+00 -0.58362759790E+03  0.59686450349E+03  0.12500424990E+03 0.  0.
    9000005    1    3    3    0    0  0.54744706375E+02 -0.25960997995E+02 -0.36494072695E+03  0.36993741427E+03  0.10000000000E+01 0.  0.
    9000005    1    3    3    0    0 -0.54744706375E+02  0.25960997995E+02 -0.21868687096E+03  0.22692708922E+03  0.10000000000E+01 0.  0.
<mgrwt>
<rscale>  0 0.12500425E+03</rscale>
<asrwt>0</asrwt>
<pdfrwt beam="1">  1        4 0.10182240E-02 0.12500425E+03</pdfrwt>
<pdfrwt beam="2">  1       -4 0.90807043E-01 0.12500425E+03</pdfrwt>
<totfact> 0.49061576E+03</totfact>
</mgrwt>
</event>
<event>
 5    1  0.3316206E-002  0.1250007E+03  0.7818608E-02  0.1235068E+00
          4   -1    0    0  501    0  0.00000000000E+00  0.00000000000E+00  0.11727998415E+04  0.11728005291E+04  0.12700000000E+01 0.  1.
         -4   -1    0    0    0  501 -0.00000000000E+00 -0.00000000000E+00 -0.32089694046E+01  0.34511425123E+01  0.12700000000E+01 0.  1.
         25    2    1    2    0    0  0.00000000000E+00  0.00000000000E+00  0.11695908721E+04  0.11762516716E+04  0.12500074779E+03 0.  0.
    9000005    1    3    3    0    0  0.19839085784E+02  0.34920234416E+02  0.13426730378E+03  0.14014892422E+03  0.10000000000E+01 0.  0.
    9000005    1    3    3    0    0 -0.19839085784E+02 -0.34920234416E+02  0.10353235683E+04  0.10361027474E+04  0.10000000000E+01 0.  0.
<mgrwt>
<rscale>  0 0.12500075E+03</rscale>
<asrwt>0</asrwt>
<pdfrwt beam="1">  1        4 0.18044953E+00 0.12500075E+03</pdfrwt>
<pdfrwt beam="2">  1       -4 0.51236889E-03 0.12500075E+03</pdfrwt>
<totfact> 0.25342528E+03</totfact>
</mgrwt>
</event>
<event>
 5    1  0.3316206E-002  0.1249986E+03  0.7818608E-02  0.1235071E+00
          4   -1    0    0  501    0  0.00000000000E+00  0.00000000000E+00  0.86225830353E+02  0.86235182611E+02  0.12700000000E+01 0.  1.
         -4   -1    0    0    0  501 -0.00000000000E+00 -0.00000000000E+00 -0.45280825996E+02  0.45298632462E+02  0.12700000000E+01 0.  1.
         25    2    1    2    0    0  0.00000000000E+00  0.00000000000E+00  0.40945004356E+02  0.13153381507E+03  0.12499860450E+03 0.  0.
    9000005    1    3    3    0    0  0.59641649949E+02 -0.16888535008E+02  0.28812379097E+02  0.68363017872E+02  0.10000000000E+01 0.  0.
    9000005    1    3    3    0    0 -0.59641649949E+02  0.16888535008E+02  0.12132625259E+02  0.63170797201E+02  0.10000000000E+01 0.  0.
<mgrwt>
<rscale>  0 0.12499860E+03</rscale>
<asrwt>0</asrwt>
<pdfrwt beam="1">  1        4 0.13267601E-01 0.12499860E+03</pdfrwt>
<pdfrwt beam="2">  1       -4 0.69683702E-02 0.12499860E+03</pdfrwt>
<totfact> 0.10311983E+04</totfact>
</mgrwt>
</event>
<event>
 5    1  0.3316206E-002  0.1249994E+03  0.7818608E-02  0.1235070E+00
         -4   -1    0    0    0  501 -0.00000000000E+00  0.00000000000E+00  0.36136635359E+03  0.36136858525E+03  0.12700000000E+01 0.  1.
          4   -1    0    0  501    0  0.00000000000E+00 -0.00000000000E+00 -0.10769985852E+02  0.10844606736E+02  0.12700000000E+01 0.  1.
         25    2    1    2    0    0  0.00000000000E+00  0.00000000000E+00  0.35059636773E+03  0.37221319198E+03  0.12499938887E+03 0.  0.
    9000005    1    3    3    0    0  0.73348561256E+01  0.20473253686E+02  0.34974932218E+03  0.35042622989E+03  0.10000000000E+01 0.  0.
    9000005    1    3    3    0    0 -0.73348561256E+01 -0.20473253686E+02  0.84704555047E+00  0.21786962088E+02  0.10000000000E+01 0.  0.
<mgrwt>
<rscale>  0 0.12499939E+03</rscale>
<asrwt>0</asrwt>
<pdfrwt beam="2">  1        4 0.16628327E-02 0.12499939E+03</pdfrwt>
<pdfrwt beam="1">  1       -4 0.55600733E-01 0.12499939E+03</pdfrwt>
<totfact> 0.67348939E+03</totfact>
</mgrwt>
</event>
<event>
 5    1  0.3316206E-002  0.1249801E+03  0.7818608E-02  0.1235100E+00
          4   -1    0    0  501    0  0.00000000000E+00  0.00000000000E+00  0.64417934426E+02  0.64430452239E+02  0.12700000000E+01 0. -1.
         -4   -1    0    0    0  501 -0.00000000000E+00 -0.00000000000E+00 -0.60594805085E+02  0.60608112521E+02  0.12700000000E+01 0. -1.
         25    2    1    2    0    0  0.00000000000E+00  0.00000000000E+00  0.38231293411E+01  0.12503856476E+03  0.12498010385E+03 0.  0.
    9000005    1    3    3    0    0 -0.31966012278E+02 -0.47138343613E+02 -0.23793978452E+02  0.61733319935E+02  0.10000000000E+01 0.  0.
    9000005    1    3    3    0    0  0.31966012278E+02  0.47138343613E+02  0.27617107793E+02  0.63305244826E+02  0.10000000000E+01 0.  0.
<mgrwt>
<rscale>  0 0.12498010E+03</rscale>
<asrwt>0</asrwt>
<pdfrwt beam="1">  1        4 0.99124380E-02 0.12498010E+03</pdfrwt>
<pdfrwt beam="2">  1       -4 0.93242643E-02 0.12498010E+03</pdfrwt>
<totfact> 0.10456726E+04</totfact>
</mgrwt>
</event>
<event>
 5    1  0.3316206E-002  0.1250108E+03  0.7818608E-02  0.1235052E+00
          4   -1    0    0  501    0  0.00000000000E+00  0.00000000000E+00  0.19333517772E+01  0.23131686265E+01  0.12700000000E+01 0.  1.
         -4   -1    0    0    0  501 -0.00000000000E+00 -0.00000000000E+00 -0.18396785795E+04  0.18396790178E+04  0.12700000000E+01 0.  1.
         25    2    1    2    0    0  0.00000000000E+00  0.00000000000E+00 -0.18377452277E+04  0.18419921865E+04  0.12501077184E+03 0.  0.
    9000005    1    3    3    0    0 -0.44018341365E+02  0.34043996578E+01 -0.26708729625E+03  0.27071355365E+03  0.10000000000E+01 0.  0.
    9000005    1    3    3    0    0  0.44018341365E+02 -0.34043996578E+01 -0.15706579315E+04  0.15712786328E+04  0.10000000000E+01 0.  0.
<mgrwt>
<rscale>  0 0.12501077E+03</rscale>
<asrwt>0</asrwt>
<pdfrwt beam="1">  1        4 0.32669061E-03 0.12501077E+03</pdfrwt>
<pdfrwt beam="2">  1       -4 0.28305545E+00 0.12501077E+03</pdfrwt>
<totfact> 0.12064846E+03</totfact>
</mgrwt>
</event>
<event>
 5    1  0.3316206E-002  0.1250025E+03  0.7818608E-02  0.1235065E+00
         -4   -1    0    0    0  501 -0.00000000000E+00  0.00000000000E+00  0.45495809510E+03  0.45495986767E+03  0.12700000000E+01 0.  1.
          4   -1    0    0  501    0  0.00000000000E+00 -0.00000000000E+00 -0.85375410582E+01  0.86314834947E+01  0.12700000000E+01 0.  1.
         25    2    1    2    0    0  0.00000000000E+00  0.00000000000E+00  0.44642055404E+03  0.46359135117E+03  0.12500251922E+03 0.  0.
    9000005    1    3    3    0    0 -0.40791267496E+02  0.47340472506E+02  0.22543427002E+03  0.23393729489E+03  0.10000000000E+01 0.  0.
    9000005    1    3    3    0    0  0.40791267496E+02 -0.47340472506E+02  0.22098628402E+03  0.22965405628E+03  0.10000000000E+01 0.  0.
<mgrwt>
<rscale>  0 0.12500252E+03</rscale>
<asrwt>0</asrwt>
<pdfrwt beam="2">  1        4 0.13208305E-02 0.12500252E+03</pdfrwt>
<pdfrwt beam="1">  1       -4 0.70000917E-01 0.12500252E+03</pdfrwt>
<totfact> 0.58800935E+03</totfact>
</mgrwt>
</event>
<event>
 5    1  0.3316206E-002  0.1249980E+03  0.7818608E-02  0.1235072E+00
          4   -1    0    0  501    0  0.00000000000E+00  0.00000000000E+00  0.13844875352E+02  0.13903002320E+02  0.12700000000E+01 0.  1.
         -4   -1    0    0    0  501 -0.00000000000E+00 -0.00000000000E+00 -0.28148471644E+03  0.28148758141E+03  0.12700000000E+01 0.  1.
         25    2    1    2    0    0  0.00000000000E+00  0.00000000000E+00 -0.26763984109E+03  0.29539058373E+03  0.12499804967E+03 0.  0.
    9000005    1    3    3    0    0  0.58351298660E+02 -0.13920453175E+01 -0.18657277196E+03  0.19549222767E+03  0.10000000000E+01 0.  0.
    9000005    1    3    3    0    0 -0.58351298660E+02  0.13920453175E+01 -0.81067069129E+02  0.99898356056E+02  0.10000000000E+01 0.  0.
<mgrwt>
<rscale>  0 0.12499805E+03</rscale>
<asrwt>0</asrwt>
<pdfrwt beam="1">  1        4 0.21346727E-02 0.12499805E+03</pdfrwt>
<pdfrwt beam="2">  1       -4 0.43310028E-01 0.12499805E+03</pdfrwt>
<totfact> 0.76183998E+03</totfact>
</mgrwt>
</event>
<event>
 5    1  0.3316206E-002  0.1249987E+03  0.7818608E-02  0.1235071E+00
          4   -1    0    0  501    0  0.00000000000E+00  0.00000000000E+00  0.97741725396E+02  0.97749975874E+02  0.12700000000E+01 0. -1.
         -4   -1    0    0    0  501 -0.00000000000E+00 -0.00000000000E+00 -0.39944182980E+02  0.39964367304E+02  0.12700000000E+01 0. -1.
         25    2    1    2    0    0  0.00000000000E+00  0.00000000000E+00  0.57797542416E+02  0.13771434318E+03  0.12499873762E+03 0.  0.
    9000005    1    3    3    0    0 -0.24050718180E+02  0.38676871239E+02  0.76039684872E+02  0.88641813437E+02  0.10000000000E+01 0.  0.
    9000005    1    3    3    0    0  0.24050718180E+02 -0.38676871239E+02 -0.18242142457E+02  0.49072529741E+02  0.10000000000E+01 0.  0.
<mgrwt>
<rscale>  0 0.12499874E+03</rscale>
<asrwt>0</asrwt>
<pdfrwt beam="1">  1        4 0.15039376E-01 0.12499874E+03</pdfrwt>
<pdfrwt beam="2">  1       -4 0.61474463E-02 0.12499874E+03</pdfrwt>
<totfact> 0.10181461E+04</totfact>
</mgrwt>
</event>
<event>
 5    1  0.3316206E-002  0.1250169E+03  0.7818608E-02  0.1235043E+00
          4   -1    0    0  501    0  0.00000000000E+00  0.00000000000E+00  0.39918584789E+03  0.39918786813E+03  0.12700000000E+01 0. -1.
         -4   -1    0    0    0  501 -0.00000000000E+00 -0.00000000000E+00 -0.97449444710E+01  0.98273517665E+01  0.12700000000E+01 0. -1.
         25    2    1    2    0    0  0.00000000000E+00  0.00000000000E+00  0.38944090342E+03  0.40901521989E+03  0.12501693023E+03 0.  0.
    9000005    1    3    3    0    0 -0.58851878309E+02 -0.76632010194E+01  0.25883533527E+03  0.26555413575E+03  0.10000000000E+01 0.  0.
    9000005    1    3    3    0    0  0.58851878309E+02  0.76632010194E+01  0.13060556816E+03  0.14346108414E+03  0.10000000000E+01 0.  0.
<mgrwt>
<rscale>  0 0.12501693E+03</rscale>
<asrwt>0</asrwt>
<pdfrwt beam="1">  1        4 0.61419702E-01 0.12501693E+03</pdfrwt>
<pdfrwt beam="2">  1       -4 0.15057166E-02 0.12501693E+03</pdfrwt>
<totfact> 0.63661533E+03</totfact>
</mgrwt>
</event>
<event>
 5    1  0.3316206E-002  0.1250027E+03  0.7818608E-02  0.1235065E+00
          4   -1    0    0  501    0  0.00000000000E+00  0.00000000000E+00  0.10607857226E+03  0.10608617437E+03  0.12700000000E+01 0. -1.
         -4   -1    0    0    0  501 -0.00000000000E+00 -0.00000000000E+00 -0.36805812670E+02  0.36827717093E+02  0.12700000000E+01 0. -1.
         25    2    1    2    0    0  0.00000000000E+00  0.00000000000E+00  0.69272759589E+02  0.14291389146E+03  0.12500266058E+03 0.  0.
    9000005    1    3    3    0    0  0.21853393036E+02  0.33388058525E+02  0.89622211846E+02  0.98109500535E+02  0.10000000000E+01 0.  0.
    9000005    1    3    3    0    0 -0.21853393036E+02 -0.33388058525E+02 -0.20349452256E+02  0.44804390927E+02  0.10000000000E+01 0.  0.
<mgrwt>
<rscale>  0 0.12500266E+03</rscale>
<asrwt>0</asrwt>
<pdfrwt beam="1">  1        4 0.16322050E-01 0.12500266E+03</pdfrwt>
<pdfrwt beam="2">  1       -4 0.56647024E-02 0.12500266E+03</pdfrwt>
<totfact> 0.10072943E+04</totfact>
</mgrwt>
</event>
<event>
 5    1  0.3316206E-002  0.1249995E+03  0.7818608E-02  0.1235070E+00
          4   -1    0    0  501    0  0.00000000000E+00  0.00000000000E+00  0.32708689714E+02  0.32733335956E+02  0.12700000000E+01 0. -1.
         -4   -1    0    0    0  501 -0.00000000000E+00 -0.00000000000E+00 -0.11935143915E+03  0.11935819589E+03  0.12700000000E+01 0. -1.
         25    2    1    2    0    0  0.00000000000E+00  0.00000000000E+00 -0.86642749436E+02  0.15209153185E+03  0.12499947212E+03 0.  0.
    9000005    1    3    3    0    0  0.12851649048E+02 -0.46111319570E+02  0.55575323181E+01  0.48200672622E+02  0.10000000000E+01 0.  0.
    9000005    1    3    3    0    0 -0.12851649048E+02  0.46111319570E+02 -0.92200281754E+02  0.10389085923E+03  0.10000000000E+01 0.  0.
<mgrwt>
<rscale>  0 0.12499947E+03</rscale>
<asrwt>0</asrwt>
<pdfrwt beam="1">  1        4 0.50345218E-02 0.12499947E+03</pdfrwt>
<pdfrwt beam="2">  1       -4 0.18364175E-01 0.12499947E+03</pdfrwt>
<totfact> 0.98889580E+03</totfact>
</mgrwt>
</event>
<event>
 5    1  0.3316206E-002  0.1249989E+03  0.7818608E-02  0.1235071E+00
         -4   -1    0    0    0  501 -0.00000000000E+00  0.00000000000E+00  0.47108894004E+01  0.48790756238E+01  0.12700000000E+01 0. -1.
          4   -1    0    0  501    0  0.00000000000E+00 -0.00000000000E+00 -0.81447017786E+03  0.81447116802E+03  0.12700000000E+01 0. -1.
         25    2    1    2    0    0  0.00000000000E+00  0.00000000000E+00 -0.80975928846E+03  0.81935024364E+03  0.12499886600E+03 0.  0.
    9000005    1    3    3    0    0 -0.58405983483E+02  0.17338142136E+02 -0.49601556854E+03  0.49974424890E+03  0.10000000000E+01 0.  0.
    9000005    1    3    3    0    0  0.58405983483E+02 -0.17338142136E+02 -0.31374371993E+03  0.31960599474E+03  0.10000000000E+01 0.  0.
<mgrwt>
<rscale>  0 0.12499887E+03</rscale>
<asrwt>0</asrwt>
<pdfrwt beam="2">  1        4 0.12531601E+00 0.12499887E+03</pdfrwt>
<pdfrwt beam="1">  1       -4 0.73776643E-03 0.12499887E+03</pdfrwt>
<totfact> 0.37416301E+03</totfact>
</mgrwt>
</event>
<event>
 5    1  0.3316206E-002  0.1249999E+03  0.7818608E-02  0.1235069E+00
         -4   -1    0    0    0  501 -0.00000000000E+00  0.00000000000E+00  0.13292605628E+02  0.13353136874E+02  0.12700000000E+01 0.  1.
          4   -1    0    0  501    0  0.00000000000E+00 -0.00000000000E+00 -0.29313649316E+03  0.29313924425E+03  0.12700000000E+01 0.  1.
         25    2    1    2    0    0  0.00000000000E+00  0.00000000000E+00 -0.27984388753E+03  0.30649238113E+03  0.12499991320E+03 0.  0.
    9000005    1    3    3    0    0 -0.54397035324E+01  0.61475582199E+02 -0.11584705760E+03  0.13126453571E+03  0.10000000000E+01 0.  0.
    9000005    1    3    3    0    0  0.54397035324E+01 -0.61475582199E+02 -0.16399682993E+03  0.17522784542E+03  0.10000000000E+01 0.  0.
<mgrwt>
<rscale>  0 0.12499991E+03</rscale>
<asrwt>0</asrwt>
<pdfrwt beam="2">  1        4 0.45102785E-01 0.12499991E+03</pdfrwt>
<pdfrwt beam="1">  1       -4 0.20498844E-02 0.12499991E+03</pdfrwt>
<totfact> 0.74791743E+03</totfact>
</mgrwt>
</event>
<event>
 5    1  0.3316206E-002  0.1249986E+03  0.7818608E-02  0.1235072E+00
         -4   -1    0    0    0  501 -0.00000000000E+00  0.00000000000E+00  0.17920008717E+03  0.17920458739E+03  0.12700000000E+01 0. -1.
          4   -1    0    0  501    0  0.00000000000E+00 -0.00000000000E+00 -0.21774480943E+02  0.21811485973E+02  0.12700000000E+01 0. -1.
         25    2    1    2    0    0  0.00000000000E+00  0.00000000000E+00  0.15742560622E+03  0.20101607336E+03  0.12499856101E+03 0.  0.
    9000005    1    3    3    0    0  0.54533031977E+02 -0.29624412900E+02  0.66927965058E+02  0.91278748475E+02  0.10000000000E+01 0.  0.
    9000005    1    3    3    0    0 -0.54533031977E+02  0.29624412900E+02  0.90497641164E+02  0.10973732488E+03  0.10000000000E+01 0.  0.
<mgrwt>
<rscale>  0 0.12499856E+03</rscale>
<asrwt>0</asrwt>
<pdfrwt beam="2">  1        4 0.33531128E-02 0.12499856E+03</pdfrwt>
<pdfrwt beam="1">  1       -4 0.27572437E-01 0.12499856E+03</pdfrwt>
<totfact> 0.89967316E+03</totfact>
</mgrwt>
</event>
<event>
 5    1  0.3316206E-002  0.1249984E+03  0.7818608E-02  0.1235072E+00
         -4   -1    0    0    0  501 -0.00000000000E+00  0.00000000000E+00  0.51886010150E+03  0.51886165577E+03  0.12700000000E+01 0. -1.
          4   -1    0    0  501    0  0.00000000000E+00 -0.00000000000E+00 -0.74731925168E+01  0.75803368258E+01  0.12700000000E+01 0. -1.
         25    2    1    2    0    0  0.00000000000E+00  0.00000000000E+00  0.51138690898E+03  0.52644199259E+03  0.12499840355E+03 0.  0.
    9000005    1    3    3    0    0 -0.25607138607E+02 -0.44046720168E+02  0.40808732016E+03  0.41125673244E+03  0.10000000000E+01 0.  0.
    9000005    1    3    3    0    0  0.25607138607E+02  0.44046720168E+02  0.10329958882E+03  0.11518526015E+03  0.10000000000E+01 0.  0.
<mgrwt>
<rscale>  0 0.12499840E+03</rscale>
<asrwt>0</asrwt>
<pdfrwt beam="2">  1        4 0.11580831E-02 0.12499840E+03</pdfrwt>
<pdfrwt beam="1">  1       -4 0.79833013E-01 0.12499840E+03</pdfrwt>
<totfact> 0.53871492E+03</totfact>
</mgrwt>
</event>
<event>
 5    1  0.3316206E-002  0.1250224E+03  0.7818608E-02  0.1235034E+00
         -4   -1    0    0    0  501 -0.00000000000E+00  0.00000000000E+00  0.84736458421E+02  0.84745975041E+02  0.12700000000E+01 0.  1.
          4   -1    0    0  501    0  0.00000000000E+00 -0.00000000000E+00 -0.46094466129E+02  0.46111958402E+02  0.12700000000E+01 0.  1.
         25    2    1    2    0    0  0.00000000000E+00  0.00000000000E+00  0.38641992292E+02  0.13085793344E+03  0.12502237870E+03 0.  0.
    9000005    1    3    3    0    0  0.36062267182E+02  0.27558927444E+01  0.72676501440E+02  0.81184702504E+02  0.10000000000E+01 0.  0.
    9000005    1    3    3    0    0 -0.36062267182E+02 -0.27558927444E+01 -0.34034509148E+02  0.49673230940E+02  0.10000000000E+01 0.  0.
<mgrwt>
<rscale>  0 0.12502238E+03</rscale>
<asrwt>0</asrwt>
<pdfrwt beam="2">  1        4 0.70935341E-02 0.12502238E+03</pdfrwt>
<pdfrwt beam="1">  1       -4 0.13038456E-01 0.12502238E+03</pdfrwt>
<totfact> 0.10320924E+04</totfact>
</mgrwt>
</event>
<event>
 5    1  0.3316206E-002  0.1250005E+03  0.7818608E-02  0.1235068E+00
          4   -1    0    0  501    0  0.00000000000E+00  0.00000000000E+00  0.59230706534E+02  0.59244320373E+02  0.12700000000E+01 0.  1.
         -4   -1    0    0    0  501 -0.00000000000E+00 -0.00000000000E+00 -0.65923000065E+02  0.65935232142E+02  0.12700000000E+01 0.  1.
         25    2    1    2    0    0  0.00000000000E+00  0.00000000000E+00 -0.66922935316E+01  0.12517955252E+03  0.12500053430E+03 0.  0.
    9000005    1    3    3    0    0  0.53206548837E+02 -0.25979900294E+01 -0.36067043576E+02  0.64339086282E+02  0.10000000000E+01 0.  0.
    9000005    1    3    3    0    0 -0.53206548837E+02  0.25979900294E+01  0.29374750044E+02  0.60840466233E+02  0.10000000000E+01 0.  0.
<mgrwt>
<rscale>  0 0.12500053E+03</rscale>
<asrwt>0</asrwt>
<pdfrwt beam="1">  1        4 0.91144045E-02 0.12500053E+03</pdfrwt>
<pdfrwt beam="2">  1       -4 0.10143988E-01 0.12500053E+03</pdfrwt>
<totfact> 0.10448838E+04</totfact>
</mgrwt>
</event>
<event>
 5    1  0.3316206E-002  0.1250094E+03  0.7818608E-02  0.1235055E+00
          4   -1    0    0  501    0  0.00000000000E+00  0.00000000000E+00  0.86929143924E+02  0.86938420525E+02  0.12700000000E+01 0. -1.
         -4   -1    0    0    0  501 -0.00000000000E+00 -0.00000000000E+00 -0.44922119179E+02  0.44940067774E+02  0.12700000000E+01 0. -1.
         25    2    1    2    0    0  0.00000000000E+00  0.00000000000E+00  0.42007024746E+02  0.13187848830E+03  0.12500938184E+03 0.  0.
    9000005    1    3    3    0    0  0.40797003039E+02  0.41828252208E+02  0.44399560266E+02  0.73391546458E+02  0.10000000000E+01 0.  0.
    9000005    1    3    3    0    0 -0.40797003039E+02 -0.41828252208E+02 -0.23925355200E+01  0.58486941841E+02  0.10000000000E+01 0.  0.
<mgrwt>
<rscale>  0 0.12500938E+03</rscale>
<asrwt>0</asrwt>
<pdfrwt beam="1">  1        4 0.13375809E-01 0.12500938E+03</pdfrwt>
<pdfrwt beam="2">  1       -4 0.69131895E-02 0.12500938E+03</pdfrwt>
<totfact> 0.10302112E+04</totfact>
</mgrwt>
</event>
<event>
 5    1  0.3316206E-002  0.1250085E+03  0.7818608E-02  0.1235056E+00
          4   -1    0    0  501    0  0.00000000000E+00  0.00000000000E+00  0.24926158029E+02  0.24958490621E+02  0.12700000000E+01 0.  1.
         -4   -1    0    0    0  501 -0.00000000000E+00 -0.00000000000E+00 -0.15659780815E+03  0.15660295788E+03  0.12700000000E+01 0.  1.
         25    2    1    2    0    0  0.00000000000E+00  0.00000000000E+00 -0.13167165012E+03  0.18156144851E+03  0.12500854426E+03 0.  0.
    9000005    1    3    3    0    0 -0.27246853969E+02  0.56228478499E+02 -0.63913838191E+02  0.89386864571E+02  0.10000000000E+01 0.  0.
    9000005    1    3    3    0    0  0.27246853969E+02 -0.56228478499E+02 -0.67757811933E+02  0.92174583935E+02  0.10000000000E+01 0.  0.
<mgrwt>
<rscale>  0 0.12500854E+03</rscale>
<asrwt>0</asrwt>
<pdfrwt beam="1">  1        4 0.38376769E-02 0.12500854E+03</pdfrwt>
<pdfrwt beam="2">  1       -4 0.24094853E-01 0.12500854E+03</pdfrwt>
<totfact> 0.93318814E+03</totfact>
</mgrwt>
</event>
<event>
 5    1  0.3316206E-002  0.1249999E+03  0.7818608E-02  0.1235069E+00
          4   -1    0    0  501    0  0.00000000000E+00  0.00000000000E+00  0.31839617968E+03  0.31839871252E+03  0.12700000000E+01 0. -1.
         -4   -1    0    0    0  501 -0.00000000000E+00 -0.00000000000E+00 -0.12233049961E+02  0.12298797151E+02  0.12700000000E+01 0. -1.
         25    2    1    2    0    0  0.00000000000E+00  0.00000000000E+00  0.30616312972E+03  0.33069750967E+03  0.12499992362E+03 0.  0.
    9000005    1    3    3    0    0 -0.23859360405E+02  0.57329919209E+02  0.13451408344E+03  0.14815879103E+03  0.10000000000E+01 0.  0.
    9000005    1    3    3    0    0  0.23859360405E+02 -0.57329919209E+02  0.17164904628E+03  0.18253871864E+03  0.10000000000E+01 0.  0.
<mgrwt>
<rscale>  0 0.12499992E+03</rscale>
<asrwt>0</asrwt>
<pdfrwt beam="1">  1        4 0.48989280E-01 0.12499992E+03</pdfrwt>
<pdfrwt beam="2">  1       -4 0.18872600E-02 0.12499992E+03</pdfrwt>
<totfact> 0.71901726E+03</totfact>
</mgrwt>
</event>
<event>
 5    1  0.3316206E-002  0.1249927E+03  0.7818608E-02  0.1235081E+00
          4   -1    0    0  501    0  0.00000000000E+00  0.00000000000E+00  0.77596627102E+02  0.77607019255E+02  0.12700000000E+01 0.  1.
         -4   -1    0    0    0  501 -0.00000000000E+00 -0.00000000000E+00 -0.50312797274E+02  0.50328823447E+02  0.12700000000E+01 0.  1.
         25    2    1    2    0    0  0.00000000000E+00  0.00000000000E+00  0.27283829828E+02  0.12793584270E+03  0.12499268970E+03 0.  0.
    9000005    1    3    3    0    0  0.35014302429E+02 -0.51723300387E+02  0.11729240155E+02  0.63560020863E+02  0.10000000000E+01 0.  0.
    9000005    1    3    3    0    0 -0.35014302429E+02  0.51723300387E+02  0.15554589673E+02  0.64375821839E+02  0.10000000000E+01 0.  0.
<mgrwt>
<rscale>  0 0.12499269E+03</rscale>
<asrwt>0</asrwt>
<pdfrwt beam="1">  1        4 0.11939975E-01 0.12499269E+03</pdfrwt>
<pdfrwt beam="2">  1       -4 0.77424625E-02 0.12499269E+03</pdfrwt>
<totfact> 0.10390588E+04</totfact>
</mgrwt>
</event>
<event>
 5    1  0.3316206E-002  0.1249989E+03  0.7818608E-02  0.1235071E+00
         -4   -1    0    0    0  501 -0.00000000000E+00  0.00000000000E+00  0.17572527737E+04  0.17572532326E+04  0.12700000000E+01 0.  1.
          4   -1    0    0  501    0  0.00000000000E+00 -0.00000000000E+00 -0.20409994591E+01  0.24038674656E+01  0.12700000000E+01 0.  1.
         25    2    1    2    0    0  0.00000000000E+00  0.00000000000E+00  0.17552117742E+04  0.17596571001E+04  0.12499894988E+03 0.  0.
    9000005    1    3    3    0    0 -0.30300913035E+02 -0.53504329567E+02  0.10345706735E+04  0.10363968048E+04  0.10000000000E+01 0.  0.
    9000005    1    3    3    0    0  0.30300913035E+02  0.53504329567E+02  0.72064110074E+03  0.72326029526E+03  0.10000000000E+01 0.  0.
<mgrwt>
<rscale>  0 0.12499895E+03</rscale>
<asrwt>0</asrwt>
<pdfrwt beam="2">  1        4 0.34194807E-03 0.12499895E+03</pdfrwt>
<pdfrwt beam="1">  1       -4 0.27037459E+00 0.12499895E+03</pdfrwt>
<totfact> 0.13335698E+03</totfact>
</mgrwt>
</event>
<event>
 5    1  0.3316206E-002  0.1249996E+03  0.7818608E-02  0.1235070E+00
         -4   -1    0    0    0  501 -0.00000000000E+00  0.00000000000E+00  0.16819772396E+02  0.16867650798E+02  0.12700000000E+01 0.  1.
          4   -1    0    0  501    0  0.00000000000E+00 -0.00000000000E+00 -0.23186038831E+03  0.23186386646E+03  0.12700000000E+01 0.  1.
         25    2    1    2    0    0  0.00000000000E+00  0.00000000000E+00 -0.21504061592E+03  0.24873151726E+03  0.12499960473E+03 0.  0.
    9000005    1    3    3    0    0 -0.38210332566E+02 -0.31211144594E+02 -0.31200475694E+02  0.58383514327E+02  0.10000000000E+01 0.  0.
    9000005    1    3    3    0    0  0.38210332566E+02  0.31211144594E+02 -0.18384014023E+03  0.19034800293E+03  0.10000000000E+01 0.  0.
<mgrwt>
<rscale>  0 0.12499960E+03</rscale>
<asrwt>0</asrwt>
<pdfrwt beam="2">  1        4 0.35674777E-01 0.12499960E+03</pdfrwt>
<pdfrwt beam="1">  1       -4 0.25916080E-02 0.12499960E+03</pdfrwt>
<totfact> 0.82514637E+03</totfact>
</mgrwt>
</event>
<event>
 5    1  0.3316206E-002  0.1249948E+03  0.7818608E-02  0.1235077E+00
         -4   -1    0    0    0  501 -0.00000000000E+00  0.00000000000E+00  0.71207932721E+02  0.71219257104E+02  0.12700000000E+01 0. -1.
          4   -1    0    0  501    0  0.00000000000E+00 -0.00000000000E+00 -0.54829372961E+02  0.54844079346E+02  0.12700000000E+01 0. -1.
         25    2    1    2    0    0  0.00000000000E+00  0.00000000000E+00  0.16378559760E+02  0.12606333645E+03  0.12499483020E+03 0.  0.
    9000005    1    3    3    0    0  0.33306117186E+02 -0.48000248537E+02  0.30550997230E+02  0.65936975464E+02  0.10000000000E+01 0.  0.
    9000005    1    3    3    0    0 -0.33306117186E+02  0.48000248537E+02 -0.14172437469E+02  0.60126360986E+02  0.10000000000E+01 0.  0.
<mgrwt>
<rscale>  0 0.12499483E+03</rscale>
<asrwt>0</asrwt>
<pdfrwt beam="2">  1        4 0.84372905E-02 0.12499483E+03</pdfrwt>
<pdfrwt beam="1">  1       -4 0.10957069E-01 0.12499483E+03</pdfrwt>
<totfact> 0.10430786E+04</totfact>
</mgrwt>
</event>
<event>
 5    1  0.3316206E-002  0.1249969E+03  0.7818608E-02  0.1235074E+00
          4   -1    0    0  501    0  0.00000000000E+00  0.00000000000E+00  0.23206951577E+02  0.23241675961E+02  0.12700000000E+01 0.  1.
         -4   -1    0    0    0  501 -0.00000000000E+00 -0.00000000000E+00 -0.16815103346E+03  0.16815582937E+03  0.12700000000E+01 0.  1.
         25    2    1    2    0    0  0.00000000000E+00  0.00000000000E+00 -0.14494408188E+03  0.19139750533E+03  0.12499687267E+03 0.  0.
    9000005    1    3    3    0    0 -0.48739901823E+02  0.18547070784E+01 -0.12655733892E+02  0.50400253655E+02  0.10000000000E+01 0.  0.
    9000005    1    3    3    0    0  0.48739901823E+02 -0.18547070784E+01 -0.13228834799E+03  0.14099725168E+03  0.10000000000E+01 0.  0.
<mgrwt>
<rscale>  0 0.12499687E+03</rscale>
<asrwt>0</asrwt>
<pdfrwt beam="1">  1        4 0.35733404E-02 0.12499687E+03</pdfrwt>
<pdfrwt beam="2">  1       -4 0.25872429E-01 0.12499687E+03</pdfrwt>
<totfact> 0.91611137E+03</totfact>
</mgrwt>
</event>
<event>
 5    1  0.3316206E-002  0.1249927E+03  0.7818608E-02  0.1235081E+00
          4   -1    0    0  501    0  0.00000000000E+00  0.00000000000E+00  0.48631545512E+02  0.48648125543E+02  0.12700000000E+01 0.  1.
         -4   -1    0    0    0  501 -0.00000000000E+00 -0.00000000000E+00 -0.80278698515E+02  0.80288743515E+02  0.12700000000E+01 0.  1.
         25    2    1    2    0    0  0.00000000000E+00  0.00000000000E+00 -0.31647153003E+02  0.12893686906E+03  0.12499269542E+03 0.  0.
    9000005    1    3    3    0    0  0.38665789164E+01 -0.34941866521E+02 -0.69115251466E+02  0.77548710200E+02  0.10000000000E+01 0.  0.
    9000005    1    3    3    0    0 -0.38665789164E+01  0.34941866521E+02  0.37468098463E+02  0.51388158859E+02  0.10000000000E+01 0.  0.
<mgrwt>
<rscale>  0 0.12499270E+03</rscale>
<asrwt>0</asrwt>
<pdfrwt beam="1">  1        4 0.74838243E-02 0.12499270E+03</pdfrwt>
<pdfrwt beam="2">  1       -4 0.12352617E-01 0.12499270E+03</pdfrwt>
<totfact> 0.10369013E+04</totfact>
</mgrwt>
</event>
<event>
 5    1  0.3316206E-002  0.1250007E+03  0.7818608E-02  0.1235068E+00
         -4   -1    0    0    0  501 -0.00000000000E+00  0.00000000000E+00  0.39608734372E+02  0.39629089550E+02  0.12700000000E+01 0.  1.
          4   -1    0    0  501    0  0.00000000000E+00 -0.00000000000E+00 -0.98572170618E+02  0.98580351594E+02  0.12700000000E+01 0.  1.
         25    2    1    2    0    0  0.00000000000E+00  0.00000000000E+00 -0.58963436246E+02  0.13820944114E+03  0.12500065123E+03 0.  0.
    9000005    1    3    3    0    0  0.40628953960E+02 -0.18746826813E+01 -0.81940643762E+02  0.91484946494E+02  0.10000000000E+01 0.  0.
    9000005    1    3    3    0    0 -0.40628953960E+02  0.18746826813E+01  0.22977207516E+02  0.46724494649E+02  0.10000000000E+01 0.  0.
<mgrwt>
<rscale>  0 0.12500065E+03</rscale>
<asrwt>0</asrwt>
<pdfrwt beam="2">  1        4 0.15167144E-01 0.12500065E+03</pdfrwt>
<pdfrwt beam="1">  1       -4 0.60958465E-02 0.12500065E+03</pdfrwt>
<totfact> 0.10170682E+04</totfact>
</mgrwt>
</event>
<event>
 5    1  0.3316206E-002  0.1250005E+03  0.7818608E-02  0.1235068E+00
         -4   -1    0    0    0  501 -0.00000000000E+00  0.00000000000E+00  0.16813932706E+03  0.16814412331E+03  0.12700000000E+01 0. -1.
          4   -1    0    0  501    0  0.00000000000E+00 -0.00000000000E+00 -0.23209923392E+02  0.23244643337E+02  0.12700000000E+01 0. -1.
         25    2    1    2    0    0  0.00000000000E+00  0.00000000000E+00  0.14492940366E+03  0.19138876664E+03  0.12500051180E+03 0.  0.
    9000005    1    3    3    0    0  0.35653732177E+02 -0.13080679697E+01  0.15102066102E+03  0.15518099018E+03  0.10000000000E+01 0.  0.
    9000005    1    3    3    0    0 -0.35653732177E+02  0.13080679697E+01 -0.60912573564E+01  0.36207776459E+02  0.10000000000E+01 0.  0.
<mgrwt>
<rscale>  0 0.12500051E+03</rscale>
<asrwt>0</asrwt>
<pdfrwt beam="2">  1        4 0.35737972E-02 0.12500051E+03</pdfrwt>
<pdfrwt beam="1">  1       -4 0.25870628E-01 0.12500051E+03</pdfrwt>
<totfact> 0.91605184E+03</totfact>
</mgrwt>
</event>
<event>
 5    1  0.3316206E-002  0.1249978E+03  0.7818608E-02  0.1235073E+00
         -4   -1    0    0    0  501 -0.00000000000E+00  0.00000000000E+00  0.16025576409E+03  0.16026079628E+03  0.12700000000E+01 0. -1.
          4   -1    0    0  501    0  0.00000000000E+00 -0.00000000000E+00 -0.24352269901E+02  0.24385363425E+02  0.12700000000E+01 0. -1.
         25    2    1    2    0    0  0.00000000000E+00  0.00000000000E+00  0.13590349419E+03  0.18464615970E+03  0.12499777822E+03 0.  0.
    9000005    1    3    3    0    0  0.27541360702E+02  0.20232866417E+02 -0.93327700012E+01  0.35440034265E+02  0.10000000000E+01 0.  0.
    9000005    1    3    3    0    0 -0.27541360702E+02 -0.20232866417E+02  0.14523626419E+03  0.14920612544E+03  0.10000000000E+01 0.  0.
<mgrwt>
<rscale>  0 0.12499778E+03</rscale>
<asrwt>0</asrwt>
<pdfrwt beam="2">  1        4 0.37494358E-02 0.12499778E+03</pdfrwt>
<pdfrwt beam="1">  1       -4 0.24657665E-01 0.12499778E+03</pdfrwt>
<totfact> 0.92791922E+03</totfact>
</mgrwt>
</event>
<event>
 5    1  0.3316206E-002  0.1250007E+03  0.7818608E-02  0.1235068E+00
          4   -1    0    0  501    0  0.00000000000E+00  0.00000000000E+00  0.34514948764E+02  0.34538306099E+02  0.12700000000E+01 0. -1.
         -4   -1    0    0    0  501 -0.00000000000E+00 -0.00000000000E+00 -0.11311166505E+03  0.11311879451E+03  0.12700000000E+01 0. -1.
         25    2    1    2    0    0  0.00000000000E+00  0.00000000000E+00 -0.78596716289E+02  0.14765710061E+03  0.12500070219E+03 0.  0.
    9000005    1    3    3    0    0  0.10710350210E+02  0.52945069348E+01  0.33159092800E+02  0.35260017593E+02  0.10000000000E+01 0.  0.
    9000005    1    3    3    0    0 -0.10710350210E+02 -0.52945069348E+01 -0.11175580909E+03  0.11239708302E+03  0.10000000000E+01 0.  0.
<mgrwt>
<rscale>  0 0.12500070E+03</rscale>
<asrwt>0</asrwt>
<pdfrwt beam="1">  1        4 0.53123373E-02 0.12500070E+03</pdfrwt>
<pdfrwt beam="2">  1       -4 0.17404140E-01 0.12500070E+03</pdfrwt>
<totfact> 0.99771209E+03</totfact>
</mgrwt>
</event>
<event>
 5    1  0.3316206E-002  0.1249981E+03  0.7818608E-02  0.1235072E+00
          4   -1    0    0  501    0  0.00000000000E+00  0.00000000000E+00  0.97574447186E+01  0.98397473258E+01  0.12700000000E+01 0. -1.
         -4   -1    0    0    0  501 -0.00000000000E+00 -0.00000000000E+00 -0.39855831667E+03  0.39856034008E+03  0.12700000000E+01 0. -1.
         25    2    1    2    0    0  0.00000000000E+00  0.00000000000E+00 -0.38880087195E+03  0.40840008741E+03  0.12499805345E+03 0.  0.
    9000005    1    3    3    0    0 -0.58924493252E+01  0.60229992028E+02 -0.14349465973E+03  0.15573724754E+03  0.10000000000E+01 0.  0.
    9000005    1    3    3    0    0  0.58924493252E+01 -0.60229992028E+02 -0.24530621222E+03  0.25266283987E+03  0.10000000000E+01 0.  0.
<mgrwt>
<rscale>  0 0.12499805E+03</rscale>
<asrwt>0</asrwt>
<pdfrwt beam="1">  1        4 0.15076323E-02 0.12499805E+03</pdfrwt>
<pdfrwt beam="2">  1       -4 0.61323138E-01 0.12499805E+03</pdfrwt>
<totfact> 0.63746669E+03</totfact>
</mgrwt>
</event>
<event>
 5    1  0.3316206E-002  0.1249984E+03  0.7818608E-02  0.1235072E+00
         -4   -1    0    0    0  501 -0.00000000000E+00  0.00000000000E+00  0.31151539853E+03  0.31151798732E+03  0.12700000000E+01 0. -1.
          4   -1    0    0  501    0  0.00000000000E+00 -0.00000000000E+00 -0.12504379850E+02  0.12568707787E+02  0.12700000000E+01 0. -1.
         25    2    1    2    0    0  0.00000000000E+00  0.00000000000E+00  0.29901101868E+03  0.32408669510E+03  0.12499838659E+03 0.  0.
    9000005    1    3    3    0    0  0.16209681090E+02  0.25257681923E+02  0.29162018129E+03  0.29316212988E+03  0.10000000000E+01 0.  0.
    9000005    1    3    3    0    0 -0.16209681090E+02 -0.25257681923E+02  0.73908373896E+01  0.30924565227E+02  0.10000000000E+01 0.  0.
<mgrwt>
<rscale>  0 0.12499839E+03</rscale>
<asrwt>0</asrwt>
<pdfrwt beam="2">  1        4 0.19288982E-02 0.12499839E+03</pdfrwt>
<pdfrwt beam="1">  1       -4 0.47930593E-01 0.12499839E+03</pdfrwt>
<totfact> 0.72675286E+03</totfact>
</mgrwt>
</event>
<event>
 5    1  0.3316206E-002  0.1250139E+03  0.7818608E-02  0.1235048E+00
         -4   -1    0    0    0  501 -0.00000000000E+00  0.00000000000E+00  0.95522094575E+02  0.95530536752E+02  0.12700000000E+01 0.  1.
          4   -1    0    0  501    0  0.00000000000E+00 -0.00000000000E+00 -0.40882646791E+02  0.40902368008E+02  0.12700000000E+01 0.  1.
         25    2    1    2    0    0  0.00000000000E+00  0.00000000000E+00  0.54639447784E+02  0.13643290476E+03  0.12501387222E+03 0.  0.
    9000005    1    3    3    0    0 -0.83537851779E+01  0.47766950133E+01  0.94714094291E+02  0.95206944071E+02  0.10000000000E+01 0.  0.
    9000005    1    3    3    0    0  0.83537851779E+01 -0.47766950133E+01 -0.40074646506E+02  0.41225960688E+02  0.10000000000E+01 0.  0.
<mgrwt>
<rscale>  0 0.12501387E+03</rscale>
<asrwt>0</asrwt>
<pdfrwt beam="2">  1        4 0.62918044E-02 0.12501387E+03</pdfrwt>
<pdfrwt beam="1">  1       -4 0.14697873E-01 0.12501387E+03</pdfrwt>
<totfact> 0.10204764E+04</totfact>
</mgrwt>
</event>
<event>
 5    1  0.3316206E-002  0.1249996E+03  0.7818608E-02  0.1235070E+00
         -4   -1    0    0    0  501 -0.00000000000E+00  0.00000000000E+00  0.15690871639E+03  0.15691385592E+03  0.12700000000E+01 0.  1.
          4   -1    0    0  501    0  0.00000000000E+00 -0.00000000000E+00 -0.24873124054E+02  0.24905525495E+02  0.12700000000E+01 0.  1.
         25    2    1    2    0    0  0.00000000000E+00  0.00000000000E+00  0.13203559234E+03  0.18181938141E+03  0.12499955926E+03 0.  0.
    9000005    1    3    3    0    0  0.36887224510E+02  0.24262278181E+02  0.13034648241E+03  0.13762460155E+03  0.10000000000E+01 0.  0.
    9000005    1    3    3    0    0 -0.36887224510E+02 -0.24262278181E+02  0.16891099209E+01  0.44194779861E+02  0.10000000000E+01 0.  0.
<mgrwt>
<rscale>  0 0.12499956E+03</rscale>
<asrwt>0</asrwt>
<pdfrwt beam="2">  1        4 0.38295224E-02 0.12499956E+03</pdfrwt>
<pdfrwt beam="1">  1       -4 0.24142689E-01 0.12499956E+03</pdfrwt>
<totfact> 0.93291452E+03</totfact>
</mgrwt>
</event>
<event>
 5    1  0.3316206E-002  0.1250008E+03  0.7818608E-02  0.1235068E+00
          4   -1    0    0  501    0  0.00000000000E+00  0.00000000000E+00  0.28156478133E+03  0.28156764549E+03  0.12700000000E+01 0. -1.
         -4   -1    0    0    0  501 -0.00000000000E+00 -0.00000000000E+00 -0.13841528122E+02  0.13899669088E+02  0.12700000000E+01 0. -1.
         25    2    1    2    0    0  0.00000000000E+00  0.00000000000E+00  0.26772325321E+03  0.29546731457E+03  0.12500077469E+03 0.  0.
    9000005    1    3    3    0    0  0.13043234604E+02 -0.17991331792E+02  0.27192180721E+03  0.27283013621E+03  0.10000000000E+01 0.  0.
    9000005    1    3    3    0    0 -0.13043234604E+02  0.17991331792E+02 -0.41985540024E+01  0.22637178364E+02  0.10000000000E+01 0.  0.
<mgrwt>
<rscale>  0 0.12500077E+03</rscale>
<asrwt>0</asrwt>
<pdfrwt beam="1">  1        4 0.43322354E-01 0.12500077E+03</pdfrwt>
<pdfrwt beam="2">  1       -4 0.21341585E-02 0.12500077E+03</pdfrwt>
<totfact> 0.76169637E+03</totfact>
</mgrwt>
</event>
<event>
 5    1  0.3316206E-002  0.1250009E+03  0.7818608E-02  0.1235068E+00
         -4   -1    0    0    0  501 -0.00000000000E+00  0.00000000000E+00  0.27247021995E+02  0.27276603667E+02  0.12700000000E+01 0. -1.
          4   -1    0    0  501    0  0.00000000000E+00 -0.00000000000E+00 -0.14325608649E+03  0.14326171581E+03  0.12700000000E+01 0. -1.
         25    2    1    2    0    0  0.00000000000E+00  0.00000000000E+00 -0.11600906450E+03  0.17053831948E+03  0.12500086146E+03 0.  0.
    9000005    1    3    3    0    0 -0.35828556953E+02 -0.49979021767E+02 -0.42829786060E+02  0.74946505483E+02  0.10000000000E+01 0.  0.
    9000005    1    3    3    0    0  0.35828556953E+02  0.49979021767E+02 -0.73179278438E+02  0.95591813995E+02  0.10000000000E+01 0.  0.
<mgrwt>
<rscale>  0 0.12500086E+03</rscale>
<asrwt>0</asrwt>
<pdfrwt beam="2">  1        4 0.22042106E-01 0.12500086E+03</pdfrwt>
<pdfrwt beam="1">  1       -4 0.41945581E-02 0.12500086E+03</pdfrwt>
<totfact> 0.95346553E+03</totfact>
</mgrwt>
</event>
<event>
 5    1  0.3316206E-002  0.1249966E+03  0.7818608E-02  0.1235075E+00
          4   -1    0    0  501    0  0.00000000000E+00  0.00000000000E+00  0.10837328244E+03  0.10838072359E+03  0.12700000000E+01 0. -1.
         -4   -1    0    0    0  501 -0.00000000000E+00 -0.00000000000E+00 -0.36022576319E+02  0.36044956716E+02  0.12700000000E+01 0. -1.
         25    2    1    2    0    0  0.00000000000E+00  0.00000000000E+00  0.72350706119E+02  0.14442568031E+03  0.12499660978E+03 0.  0.
    9000005    1    3    3    0    0 -0.41579490371E+02  0.24912075698E+02  0.81746643580E+02  0.95041986888E+02  0.10000000000E+01 0.  0.
    9000005    1    3    3    0    0  0.41579490371E+02 -0.24912075698E+02 -0.93959374615E+01  0.49383693420E+02  0.10000000000E+01 0.  0.
<mgrwt>
<rscale>  0 0.12499661E+03</rscale>
<asrwt>0</asrwt>
<pdfrwt beam="1">  1        4 0.16675107E-01 0.12499661E+03</pdfrwt>
<pdfrwt beam="2">  1       -4 0.55442287E-02 0.12499661E+03</pdfrwt>
<totfact> 0.10043437E+04</totfact>
</mgrwt>
</event>
<event>
 5    1  0.3316206E-002  0.1249950E+03  0.7818608E-02  0.1235077E+00
          4   -1    0    0  501    0  0.00000000000E+00  0.00000000000E+00  0.10331804938E+02  0.10409567391E+02  0.12700000000E+01 0.  1.
         -4   -1    0    0    0  501 -0.00000000000E+00 -0.00000000000E+00 -0.37655344355E+03  0.37655558520E+03  0.12700000000E+01 0.  1.
         25    2    1    2    0    0  0.00000000000E+00  0.00000000000E+00 -0.36622163861E+03  0.38696515260E+03  0.12499496284E+03 0.  0.
    9000005    1    3    3    0    0 -0.44845311398E+02 -0.36539391573E+02 -0.25628722086E+03  0.26273631014E+03  0.10000000000E+01 0.  0.
    9000005    1    3    3    0    0  0.44845311398E+02  0.36539391573E+02 -0.10993441775E+03  0.12422884245E+03  0.10000000000E+01 0.  0.
<mgrwt>
<rscale>  0 0.12499496E+03</rscale>
<asrwt>0</asrwt>
<pdfrwt beam="1">  1        4 0.15956552E-02 0.12499496E+03</pdfrwt>
<pdfrwt beam="2">  1       -4 0.57937435E-01 0.12499496E+03</pdfrwt>
<totfact> 0.65847930E+03</totfact>
</mgrwt>
</event>
<event>
 5    1  0.3316206E-002  0.1249989E+03  0.7818608E-02  0.1235071E+00
          4   -1    0    0  501    0  0.00000000000E+00  0.00000000000E+00  0.96534299492E+02  0.96542653156E+02  0.12700000000E+01 0. -1.
         -4   -1    0    0    0  501 -0.00000000000E+00 -0.00000000000E+00 -0.40444090986E+02  0.40464025945E+02  0.12700000000E+01 0. -1.
         25    2    1    2    0    0  0.00000000000E+00  0.00000000000E+00  0.56090208506E+02  0.13700667910E+03  0.12499887451E+03 0.  0.
    9000005    1    3    3    0    0  0.37159381605E+02 -0.17409911837E+02 -0.23612569456E+02  0.47354810819E+02  0.10000000000E+01 0.  0.
    9000005    1    3    3    0    0 -0.37159381605E+02  0.17409911837E+02  0.79702777963E+02  0.89651868282E+02  0.10000000000E+01 0.  0.
<mgrwt>
<rscale>  0 0.12499887E+03</rscale>
<asrwt>0</asrwt>
<pdfrwt beam="1">  1        4 0.14853607E-01 0.12499887E+03</pdfrwt>
<pdfrwt beam="2">  1       -4 0.62243440E-02 0.12499887E+03</pdfrwt>
<totfact> 0.10196205E+04</totfact>
</mgrwt>
</event>
<event>
 5    1  0.3316206E-002  0.1249983E+03  0.7818608E-02  0.1235072E+00
          4   -1    0    0  501    0  0.00000000000E+00  0.00000000000E+00  0.41215008558E+01  0.43127333913E+01  0.12700000000E+01 0. -1.
         -4   -1    0    0    0  501 -0.00000000000E+00 -0.00000000000E+00 -0.92606774307E+03  0.92606861390E+03  0.12700000000E+01 0. -1.
         25    2    1    2    0    0  0.00000000000E+00  0.00000000000E+00 -0.92194624221E+03  0.93038134729E+03  0.12499831142E+03 0.  0.
    9000005    1    3    3    0    0  0.74039442534E+01  0.57545930522E+01 -0.92083765496E+03  0.92088594328E+03  0.10000000000E+01 0.  0.
    9000005    1    3    3    0    0 -0.74039442534E+01 -0.57545930522E+01 -0.11085872515E+01  0.94954040145E+01  0.10000000000E+01 0.  0.
<mgrwt>
<rscale>  0 0.12499831E+03</rscale>
<asrwt>0</asrwt>
<pdfrwt beam="1">  1        4 0.64885497E-03 0.12499831E+03</pdfrwt>
<pdfrwt beam="2">  1       -4 0.14248658E+00 0.12499831E+03</pdfrwt>
<totfact> 0.33024165E+03</totfact>
</mgrwt>
</event>
<event>
 5    1  0.3316206E-002  0.1250284E+03  0.7818608E-02  0.1235025E+00
          4   -1    0    0  501    0  0.00000000000E+00  0.00000000000E+00  0.63754158165E+02  0.63766806282E+02  0.12700000000E+01 0. -1.
         -4   -1    0    0    0  501 -0.00000000000E+00 -0.00000000000E+00 -0.61273057504E+02  0.61286217666E+02  0.12700000000E+01 0. -1.
         25    2    1    2    0    0  0.00000000000E+00  0.00000000000E+00  0.24811006617E+01  0.12505302395E+03  0.12502840852E+03 0.  0.
    9000005    1    3    3    0    0  0.29287887982E+02 -0.53911064968E+02  0.13194573791E+02  0.62763684452E+02  0.10000000000E+01 0.  0.
    9000005    1    3    3    0    0 -0.29287887982E+02  0.53911064968E+02 -0.10713473129E+02  0.62289339497E+02  0.10000000000E+01 0.  0.
<mgrwt>
<rscale>  0 0.12502841E+03</rscale>
<asrwt>0</asrwt>
<pdfrwt beam="1">  1        4 0.98103173E-02 0.12502841E+03</pdfrwt>
<pdfrwt beam="2">  1       -4 0.94286095E-02 0.12502841E+03</pdfrwt>
<totfact> 0.10445003E+04</totfact>
</mgrwt>
</event>
<event>
 5    1  0.3316206E-002  0.1249959E+03  0.7818608E-02  0.1235076E+00
         -4   -1    0    0    0  501 -0.00000000000E+00  0.00000000000E+00  0.23147149403E+02  0.23181963365E+02  0.12700000000E+01 0.  1.
          4   -1    0    0  501    0  0.00000000000E+00 -0.00000000000E+00 -0.16858206747E+03  0.16858685112E+03  0.12700000000E+01 0.  1.
         25    2    1    2    0    0  0.00000000000E+00  0.00000000000E+00 -0.14543491806E+03  0.19176881449E+03  0.12499585120E+03 0.  0.
    9000005    1    3    3    0    0 -0.15980284225E+02  0.96949491636E+01  0.18765586893E+02  0.26504882090E+02  0.10000000000E+01 0.  0.
    9000005    1    3    3    0    0  0.15980284225E+02 -0.96949491636E+01 -0.16420050496E+03  0.16526393240E+03  0.10000000000E+01 0.  0.
<mgrwt>
<rscale>  0 0.12499585E+03</rscale>
<asrwt>0</asrwt>
<pdfrwt beam="2">  1        4 0.25938748E-01 0.12499585E+03</pdfrwt>
<pdfrwt beam="1">  1       -4 0.35641460E-02 0.12499585E+03</pdfrwt>
<totfact> 0.91548961E+03</totfact>
</mgrwt>
</event>
<event>
 5    1  0.3316206E-002  0.1250191E+03  0.7818608E-02  0.1235039E+00
          4   -1    0    0  501    0  0.00000000000E+00  0.00000000000E+00  0.73817866320E+02  0.73828790373E+02  0.12700000000E+01 0. -1.
         -4   -1    0    0    0  501 -0.00000000000E+00 -0.00000000000E+00 -0.52911102727E+02  0.52926342135E+02  0.12700000000E+01 0. -1.
         25    2    1    2    0    0  0.00000000000E+00  0.00000000000E+00  0.20906763593E+02  0.12675513251E+03  0.12501908196E+03 0.  0.
    9000005    1    3    3    0    0 -0.15756990367E+02  0.30610487685E+02  0.63342475933E+02  0.72100998323E+02  0.10000000000E+01 0.  0.
    9000005    1    3    3    0    0  0.15756990367E+02 -0.30610487685E+02 -0.42435712341E+02  0.54654134186E+02  0.10000000000E+01 0.  0.
<mgrwt>
<rscale>  0 0.12501908E+03</rscale>
<asrwt>0</asrwt>
<pdfrwt beam="1">  1        4 0.11358607E-01 0.12501908E+03</pdfrwt>
<pdfrwt beam="2">  1       -4 0.81421823E-02 0.12501908E+03</pdfrwt>
<totfact> 0.10409986E+04</totfact>
</mgrwt>
</event>
<event>
 5    1  0.3316206E-002  0.1249975E+03  0.7818608E-02  0.1235073E+00
         -4   -1    0    0    0  501 -0.00000000000E+00  0.00000000000E+00  0.63981391610E+02  0.63993994815E+02  0.12700000000E+01 0. -1.
          4   -1    0    0  501    0  0.00000000000E+00 -0.00000000000E+00 -0.61025255664E+02  0.61038469254E+02  0.12700000000E+01 0. -1.
         25    2    1    2    0    0  0.00000000000E+00  0.00000000000E+00  0.29561359460E+01  0.12503246407E+03  0.12499751330E+03 0.  0.
    9000005    1    3    3    0    0  0.13078252046E+01 -0.59017940496E+02 -0.19028075781E+02  0.62031406361E+02  0.10000000000E+01 0.  0.
    9000005    1    3    3    0    0 -0.13078252046E+01  0.59017940496E+02  0.21984211727E+02  0.63001057709E+02  0.10000000000E+01 0.  0.
<mgrwt>
<rscale>  0 0.12499751E+03</rscale>
<asrwt>0</asrwt>
<pdfrwt beam="2">  1        4 0.93904869E-02 0.12499751E+03</pdfrwt>
<pdfrwt beam="1">  1       -4 0.98452768E-02 0.12499751E+03</pdfrwt>
<totfact> 0.10452745E+04</totfact>
</mgrwt>
</event>
<event>
 5    1  0.3316206E-002  0.1250000E+03  0.7818608E-02  0.1235069E+00
          4   -1    0    0  501    0  0.00000000000E+00  0.00000000000E+00  0.27957826794E+01  0.30707166575E+01  0.12700000000E+01 0. -1.
         -4   -1    0    0    0  501 -0.00000000000E+00 -0.00000000000E+00 -0.13314380905E+04  0.13314386962E+04  0.12700000000E+01 0. -1.
         25    2    1    2    0    0  0.00000000000E+00  0.00000000000E+00 -0.13286423078E+04  0.13345094129E+04  0.12499996348E+03 0.  0.
    9000005    1    3    3    0    0  0.27398992963E+02  0.55520852963E+02 -0.57374559875E+03  0.57707736225E+03  0.10000000000E+01 0.  0.
    9000005    1    3    3    0    0 -0.27398992963E+02 -0.55520852963E+02 -0.75489670909E+03  0.75743205063E+03  0.10000000000E+01 0.  0.
<mgrwt>
<rscale>  0 0.12499996E+03</rscale>
<asrwt>0</asrwt>
<pdfrwt beam="1">  1        4 0.45131683E-03 0.12499996E+03</pdfrwt>
<pdfrwt beam="2">  1       -4 0.20485734E+00 0.12499996E+03</pdfrwt>
<totfact> 0.21428480E+03</totfact>
</mgrwt>
</event>
<event>
 5    1  0.3316206E-002  0.1249970E+03  0.7818608E-02  0.1235074E+00
         -4   -1    0    0    0  501 -0.00000000000E+00  0.00000000000E+00  0.47491233822E+02  0.47508211816E+02  0.12700000000E+01 0.  1.
          4   -1    0    0  501    0  0.00000000000E+00 -0.00000000000E+00 -0.82211501879E+02  0.82221310748E+02  0.12700000000E+01 0.  1.
         25    2    1    2    0    0  0.00000000000E+00  0.00000000000E+00 -0.34720268057E+02  0.12972952256E+03  0.12499700801E+03 0.  0.
    9000005    1    3    3    0    0  0.15009124997E+02  0.56971539353E+02 -0.38982365589E+02  0.70651645107E+02  0.10000000000E+01 0.  0.
    9000005    1    3    3    0    0 -0.15009124997E+02 -0.56971539353E+02  0.42620975325E+01  0.59077877457E+02  0.10000000000E+01 0.  0.
<mgrwt>
<rscale>  0 0.12499701E+03</rscale>
<asrwt>0</asrwt>
<pdfrwt beam="2">  1        4 0.12649984E-01 0.12499701E+03</pdfrwt>
<pdfrwt beam="1">  1       -4 0.73084042E-02 0.12499701E+03</pdfrwt>
<totfact> 0.10350996E+04</totfact>
</mgrwt>
</event>
<event>
 5    1  0.3316206E-002  0.1249971E+03  0.7818608E-02  0.1235074E+00
         -4   -1    0    0    0  501 -0.00000000000E+00  0.00000000000E+00  0.82375706901E+02  0.82385496220E+02  0.12700000000E+01 0.  1.
          4   -1    0    0  501    0  0.00000000000E+00 -0.00000000000E+00 -0.47396588149E+02  0.47413600033E+02  0.12700000000E+01 0.  1.
         25    2    1    2    0    0  0.00000000000E+00  0.00000000000E+00  0.34979118753E+02  0.12979909625E+03  0.12499706652E+03 0.  0.
    9000005    1    3    3    0    0 -0.54924061636E+02  0.23100857284E+02 -0.20692281547E+01  0.59628716731E+02  0.10000000000E+01 0.  0.
    9000005    1    3    3    0    0  0.54924061636E+02 -0.23100857284E+02  0.37048346907E+02  0.70170379523E+02  0.10000000000E+01 0.  0.
<mgrwt>
<rscale>  0 0.12499707E+03</rscale>
<asrwt>0</asrwt>
<pdfrwt beam="2">  1        4 0.72938445E-02 0.12499707E+03</pdfrwt>
<pdfrwt beam="1">  1       -4 0.12675247E-01 0.12499707E+03</pdfrwt>
<totfact> 0.10349492E+04</totfact>
</mgrwt>
</event>
<event>
 5    1  0.3316206E-002  0.1249990E+03  0.7818608E-02  0.1235071E+00
         -4   -1    0    0    0  501 -0.00000000000E+00  0.00000000000E+00  0.10991885376E+03  0.10992619029E+03  0.12700000000E+01 0. -1.
          4   -1    0    0  501    0  0.00000000000E+00 -0.00000000000E+00 -0.35517163651E+02  0.35539862322E+02  0.12700000000E+01 0. -1.
         25    2    1    2    0    0  0.00000000000E+00  0.00000000000E+00  0.74401690109E+02  0.14546605261E+03  0.12499904388E+03 0.  0.
    9000005    1    3    3    0    0  0.61499315674E+02 -0.36434895418E+01  0.49392314017E+02  0.78968611032E+02  0.10000000000E+01 0.  0.
    9000005    1    3    3    0    0 -0.61499315674E+02  0.36434895418E+01  0.25009376092E+02  0.66497441582E+02  0.10000000000E+01 0.  0.
<mgrwt>
<rscale>  0 0.12499904E+03</rscale>
<asrwt>0</asrwt>
<pdfrwt beam="2">  1        4 0.54664894E-02 0.12499904E+03</pdfrwt>
<pdfrwt beam="1">  1       -4 0.16912903E-01 0.12499904E+03</pdfrwt>
<totfact> 0.10021744E+04</totfact>
</mgrwt>
</event>
<event>
 5    1  0.3316206E-002  0.1249887E+03  0.7818608E-02  0.1235087E+00
         -4   -1    0    0    0  501 -0.00000000000E+00  0.00000000000E+00  0.76533966826E+02  0.76544503252E+02  0.12700000000E+01 0. -1.
          4   -1    0    0  501    0  0.00000000000E+00 -0.00000000000E+00 -0.51008288366E+02  0.51024096093E+02  0.12700000000E+01 0. -1.
         25    2    1    2    0    0  0.00000000000E+00  0.00000000000E+00  0.25525678459E+02  0.12756859934E+03  0.12498874861E+03 0.  0.
    9000005    1    3    3    0    0  0.56649241364E+02 -0.12533886932E+02 -0.10917606786E+02  0.59045990607E+02  0.10000000000E+01 0.  0.
    9000005    1    3    3    0    0 -0.56649241364E+02  0.12533886932E+02  0.36443285245E+02  0.68522608738E+02  0.10000000000E+01 0.  0.
<mgrwt>
<rscale>  0 0.12498875E+03</rscale>
<asrwt>0</asrwt>
<pdfrwt beam="2">  1        4 0.78494555E-02 0.12498875E+03</pdfrwt>
<pdfrwt beam="1">  1       -4 0.11776483E-01 0.12498875E+03</pdfrwt>
<totfact> 0.10399456E+04</totfact>
</mgrwt>
</event>
<event>
 5    1  0.3316206E-002  0.1250012E+03  0.7818608E-02  0.1235067E+00
         -4   -1    0    0    0  501 -0.00000000000E+00  0.00000000000E+00  0.12727305172E+02  0.12790511989E+02  0.12700000000E+01 0. -1.
          4   -1    0    0  501    0  0.00000000000E+00 -0.00000000000E+00 -0.30609993525E+03  0.30610256984E+03  0.12700000000E+01 0. -1.
         25    2    1    2    0    0  0.00000000000E+00  0.00000000000E+00 -0.29337263008E+03  0.31889308183E+03  0.12500119022E+03 0.  0.
    9000005    1    3    3    0    0  0.25168152839E+02  0.57047841326E+02 -0.15733774578E+03  0.16924555641E+03  0.10000000000E+01 0.  0.
    9000005    1    3    3    0    0 -0.25168152839E+02 -0.57047841326E+02 -0.13603488431E+03  0.14964752542E+03  0.10000000000E+01 0.  0.
<mgrwt>
<rscale>  0 0.12500119E+03</rscale>
<asrwt>0</asrwt>
<pdfrwt beam="2">  1        4 0.47097357E-01 0.12500119E+03</pdfrwt>
<pdfrwt beam="1">  1       -4 0.19631119E-02 0.12500119E+03</pdfrwt>
<totfact> 0.73286040E+03</totfact>
</mgrwt>
</event>
<event>
 5    1  0.3316206E-002  0.1249997E+03  0.7818608E-02  0.1235070E+00
         -4   -1    0    0    0  501 -0.00000000000E+00  0.00000000000E+00  0.37154562774E+03  0.37154779827E+03  0.12700000000E+01 0. -1.
          4   -1    0    0  501    0  0.00000000000E+00 -0.00000000000E+00 -0.10472897085E+02  0.10549619583E+02  0.12700000000E+01 0. -1.
         25    2    1    2    0    0  0.00000000000E+00  0.00000000000E+00  0.36107273066E+03  0.38209741785E+03  0.12499967960E+03 0.  0.
    9000005    1    3    3    0    0 -0.40547947770E+02 -0.36415616512E+02  0.27400593878E+03  0.27937517370E+03  0.10000000000E+01 0.  0.
    9000005    1    3    3    0    0  0.40547947770E+02  0.36415616512E+02  0.87066791882E+02  0.10272224415E+03  0.10000000000E+01 0.  0.
<mgrwt>
<rscale>  0 0.12499968E+03</rscale>
<asrwt>0</asrwt>
<pdfrwt beam="2">  1        4 0.16172837E-02 0.12499968E+03</pdfrwt>
<pdfrwt beam="1">  1       -4 0.57166931E-01 0.12499968E+03</pdfrwt>
<totfact> 0.66332497E+03</totfact>
</mgrwt>
</event>
<event>
 5    1  0.3316206E-002  0.1249940E+03  0.7818608E-02  0.1235079E+00
          4   -1    0    0  501    0  0.00000000000E+00  0.00000000000E+00  0.14206863919E+02  0.14263515780E+02  0.12700000000E+01 0.  1.
         -4   -1    0    0    0  501 -0.00000000000E+00 -0.00000000000E+00 -0.27432340831E+03  0.27432634807E+03  0.12700000000E+01 0.  1.
         25    2    1    2    0    0  0.00000000000E+00  0.00000000000E+00 -0.26011654439E+03  0.28858986385E+03  0.12499397126E+03 0.  0.
    9000005    1    3    3    0    0 -0.31946833158E+01 -0.57904000494E+02 -0.18379968479E+03  0.19273402243E+03  0.10000000000E+01 0.  0.
    9000005    1    3    3    0    0  0.31946833158E+01  0.57904000494E+02 -0.76316859604E+02  0.95855841421E+02  0.10000000000E+01 0.  0.
<mgrwt>
<rscale>  0 0.12499397E+03</rscale>
<asrwt>0</asrwt>
<pdfrwt beam="1">  1        4 0.21902556E-02 0.12499397E+03</pdfrwt>
<pdfrwt beam="2">  1       -4 0.42208181E-01 0.12499397E+03</pdfrwt>
<totfact> 0.77063088E+03</totfact>
</mgrwt>
</event>
<event>
 5    1  0.3316206E-002  0.1250285E+03  0.7818608E-02  0.1235025E+00
          4   -1    0    0  501    0  0.00000000000E+00  0.00000000000E+00  0.15278632255E+02  0.15331324260E+02  0.12700000000E+01 0. -1.
         -4   -1    0    0    0  501 -0.00000000000E+00 -0.00000000000E+00 -0.25528963041E+03  0.25529278935E+03  0.12700000000E+01 0. -1.
         25    2    1    2    0    0  0.00000000000E+00  0.00000000000E+00 -0.24001099816E+03  0.27062411361E+03  0.12502852328E+03 0.  0.
    9000005    1    3    3    0    0 -0.60035540783E+02  0.82916545298E+00 -0.15762541551E+03  0.16867639220E+03  0.10000000000E+01 0.  0.
    9000005    1    3    3    0    0  0.60035540783E+02 -0.82916545298E+00 -0.82385582650E+02  0.10194772141E+03  0.10000000000E+01 0.  0.
<mgrwt>
<rscale>  0 0.12502852E+03</rscale>
<asrwt>0</asrwt>
<pdfrwt beam="1">  1        4 0.23548552E-02 0.12502852E+03</pdfrwt>
<pdfrwt beam="2">  1       -4 0.39279621E-01 0.12502852E+03</pdfrwt>
<totfact> 0.79387479E+03</totfact>
</mgrwt>
</event>
<event>
 5    1  0.3316206E-002  0.1250044E+03  0.7818608E-02  0.1235062E+00
          4   -1    0    0  501    0  0.00000000000E+00  0.00000000000E+00  0.62097403630E+01  0.63382785815E+01  0.12700000000E+01 0.  1.
         -4   -1    0    0    0  501 -0.00000000000E+00 -0.00000000000E+00 -0.62252282261E+03  0.62252411807E+03  0.12700000000E+01 0.  1.
         25    2    1    2    0    0  0.00000000000E+00  0.00000000000E+00 -0.61631308225E+03  0.62886239665E+03  0.12500439418E+03 0.  0.
    9000005    1    3    3    0    0 -0.48797235356E+02 -0.30872328805E+02 -0.42839541194E+03  0.43227063263E+03  0.10000000000E+01 0.  0.
    9000005    1    3    3    0    0  0.48797235356E+02  0.30872328805E+02 -0.18791767031E+03  0.19659176401E+03  0.10000000000E+01 0.  0.
<mgrwt>
<rscale>  0 0.12500439E+03</rscale>
<asrwt>0</asrwt>
<pdfrwt beam="1">  1        4 0.96533237E-03 0.12500439E+03</pdfrwt>
<pdfrwt beam="2">  1       -4 0.95782681E-01 0.12500439E+03</pdfrwt>
<totfact> 0.47090468E+03</totfact>
</mgrwt>
</event>
<event>
 5    1  0.3316206E-002  0.1249873E+03  0.7818608E-02  0.1235089E+00
          4   -1    0    0  501    0  0.00000000000E+00  0.00000000000E+00  0.10078633482E+03  0.10079433608E+03  0.12700000000E+01 0. -1.
         -4   -1    0    0    0  501 -0.00000000000E+00 -0.00000000000E+00 -0.38729921461E+02  0.38750738269E+02  0.12700000000E+01 0. -1.
         25    2    1    2    0    0  0.00000000000E+00  0.00000000000E+00  0.62056413358E+02  0.13954507435E+03  0.12498731670E+03 0.  0.
    9000005    1    3    3    0    0 -0.52623634957E+02  0.77986297543E+01 -0.55674799253E+01  0.53498246839E+02  0.10000000000E+01 0.  0.
    9000005    1    3    3    0    0  0.52623634957E+02 -0.77986297543E+01  0.67623893283E+02  0.86046827512E+02  0.10000000000E+01 0.  0.
<mgrwt>
<rscale>  0 0.12498732E+03</rscale>
<asrwt>0</asrwt>
<pdfrwt beam="1">  1        4 0.15507806E-01 0.12498732E+03</pdfrwt>
<pdfrwt beam="2">  1       -4 0.59606664E-02 0.12498732E+03</pdfrwt>
<totfact> 0.10145922E+04</totfact>
</mgrwt>
</event>
<event>
 5    1  0.3316206E-002  0.1249953E+03  0.7818608E-02  0.1235077E+00
         -4   -1    0    0    0  501 -0.00000000000E+00  0.00000000000E+00  0.33613448352E+03  0.33613688270E+03  0.12700000000E+01 0.  1.
          4   -1    0    0  501    0  0.00000000000E+00 -0.00000000000E+00 -0.11583070892E+02  0.11652486056E+02  0.12700000000E+01 0.  1.
         25    2    1    2    0    0  0.00000000000E+00  0.00000000000E+00  0.32455141263E+03  0.34778936876E+03  0.12499530224E+03 0.  0.
    9000005    1    3    3    0    0  0.43547448272E+02  0.24441189410E+02  0.57751332859E+02  0.76354229993E+02  0.10000000000E+01 0.  0.
    9000005    1    3    3    0    0 -0.43547448272E+02 -0.24441189410E+02  0.26680007977E+03  0.27143513876E+03  0.10000000000E+01 0.  0.
<mgrwt>
<rscale>  0 0.12499530E+03</rscale>
<asrwt>0</asrwt>
<pdfrwt beam="2">  1        4 0.17875353E-02 0.12499530E+03</pdfrwt>
<pdfrwt beam="1">  1       -4 0.51718516E-01 0.12499530E+03</pdfrwt>
<totfact> 0.69975716E+03</totfact>
</mgrwt>
</event>
<event>
 5    1  0.3316206E-002  0.1249981E+03  0.7818608E-02  0.1235072E+00
         -4   -1    0    0    0  501 -0.00000000000E+00  0.00000000000E+00  0.12606218173E+03  0.12606857881E+03  0.12700000000E+01 0. -1.
          4   -1    0    0  501    0  0.00000000000E+00 -0.00000000000E+00 -0.30965545726E+02  0.30991578245E+02  0.12700000000E+01 0. -1.
         25    2    1    2    0    0  0.00000000000E+00  0.00000000000E+00  0.95096636005E+02  0.15706015705E+03  0.12499809100E+03 0.  0.
    9000005    1    3    3    0    0 -0.88169078942E+01 -0.61106953390E+02  0.59687248514E+02  0.85879946743E+02  0.10000000000E+01 0.  0.
    9000005    1    3    3    0    0  0.88169078942E+01  0.61106953390E+02  0.35409387491E+02  0.71180210311E+02  0.10000000000E+01 0.  0.
<mgrwt>
<rscale>  0 0.12499809E+03</rscale>
<asrwt>0</asrwt>
<pdfrwt beam="2">  1        4 0.47664247E-02 0.12499809E+03</pdfrwt>
<pdfrwt beam="1">  1       -4 0.19396676E-01 0.12499809E+03</pdfrwt>
<totfact> 0.97916779E+03</totfact>
</mgrwt>
</event>
<event>
 5    1  0.3316206E-002  0.1250078E+03  0.7818608E-02  0.1235057E+00
          4   -1    0    0  501    0  0.00000000000E+00  0.00000000000E+00  0.13166265807E+03  0.13166878305E+03  0.12700000000E+01 0. -1.
         -4   -1    0    0    0  501 -0.00000000000E+00 -0.00000000000E+00 -0.29651907071E+02  0.29679091848E+02  0.12700000000E+01 0. -1.
         25    2    1    2    0    0  0.00000000000E+00  0.00000000000E+00  0.10201075100E+03  0.16134787490E+03  0.12500777342E+03 0.  0.
    9000005    1    3    3    0    0  0.21518225569E+02  0.40586841483E+02 -0.36846422585E+01  0.46096662805E+02  0.10000000000E+01 0.  0.
    9000005    1    3    3    0    0 -0.21518225569E+02 -0.40586841483E+02  0.10569539326E+03  0.11525121209E+03  0.10000000000E+01 0.  0.
<mgrwt>
<rscale>  0 0.12500777E+03</rscale>
<asrwt>0</asrwt>
<pdfrwt beam="1">  1        4 0.20258356E-01 0.12500777E+03</pdfrwt>
<pdfrwt beam="2">  1       -4 0.45643942E-02 0.12500777E+03</pdfrwt>
<totfact> 0.97066595E+03</totfact>
</mgrwt>
</event>
<event>
 5    1  0.3316206E-002  0.1249960E+03  0.7818608E-02  0.1235075E+00
         -4   -1    0    0    0  501 -0.00000000000E+00  0.00000000000E+00  0.26220051176E+03  0.26220358744E+03  0.12700000000E+01 0.  1.
          4   -1    0    0  501    0  0.00000000000E+00 -0.00000000000E+00 -0.14866764752E+02  0.14920911306E+02  0.12700000000E+01 0.  1.
         25    2    1    2    0    0  0.00000000000E+00  0.00000000000E+00  0.24733374700E+03  0.27712449874E+03  0.12499602152E+03 0.  0.
    9000005    1    3    3    0    0  0.12688512260E+02 -0.19942834891E+02 -0.45839849835E+01  0.24098297143E+02  0.10000000000E+01 0.  0.
    9000005    1    3    3    0    0 -0.12688512260E+02  0.19942834891E+02  0.25191773199E+03  0.25302620160E+03  0.10000000000E+01 0.  0.
<mgrwt>
<rscale>  0 0.12499602E+03</rscale>
<asrwt>0</asrwt>
<pdfrwt beam="2">  1        4 0.22915964E-02 0.12499602E+03</pdfrwt>
<pdfrwt beam="1">  1       -4 0.40342940E-01 0.12499602E+03</pdfrwt>
<totfact> 0.78567876E+03</totfact>
</mgrwt>
</event>
<event>
 5    1  0.3316206E-002  0.1250157E+03  0.7818608E-02  0.1235045E+00
          4   -1    0    0  501    0  0.00000000000E+00  0.00000000000E+00  0.31482299630E+01  0.33947388559E+01  0.12700000000E+01 0. -1.
         -4   -1    0    0    0  501 -0.00000000000E+00 -0.00000000000E+00 -0.11940832347E+04  0.11940839101E+04  0.12700000000E+01 0. -1.
         25    2    1    2    0    0  0.00000000000E+00  0.00000000000E+00 -0.11909350048E+04  0.11974786490E+04  0.12501571553E+03 0.  0.
    9000005    1    3    3    0    0 -0.21985066218E+02  0.39732512240E+02 -0.10068152590E+04  0.10078392637E+04  0.10000000000E+01 0.  0.
    9000005    1    3    3    0    0  0.21985066218E+02 -0.39732512240E+02 -0.18411974572E+03  0.18963938523E+03  0.10000000000E+01 0.  0.
<mgrwt>
<rscale>  0 0.12501572E+03</rscale>
<asrwt>0</asrwt>
<pdfrwt beam="1">  1        4 0.50335820E-03 0.12501572E+03</pdfrwt>
<pdfrwt beam="2">  1       -4 0.18372378E+00 0.12501572E+03</pdfrwt>
<totfact> 0.24770404E+03</totfact>
</mgrwt>
</event>
<event>
 5    1  0.3316206E-002  0.1249973E+03  0.7818608E-02  0.1235073E+00
         -4   -1    0    0    0  501 -0.00000000000E+00  0.00000000000E+00  0.29665996890E+02  0.29693168768E+02  0.12700000000E+01 0. -1.
          4   -1    0    0  501    0  0.00000000000E+00 -0.00000000000E+00 -0.13157821330E+03  0.13158434221E+03  0.12700000000E+01 0. -1.
         25    2    1    2    0    0  0.00000000000E+00  0.00000000000E+00 -0.10191221641E+03  0.16127751098E+03  0.12499734275E+03 0.  0.
    9000005    1    3    3    0    0 -0.26571567649E+02  0.17614202278E+02 -0.12030346857E+03  0.12445976410E+03  0.10000000000E+01 0.  0.
    9000005    1    3    3    0    0  0.26571567649E+02 -0.17614202278E+02  0.18391252162E+02  0.36817746880E+02  0.10000000000E+01 0.  0.
<mgrwt>
<rscale>  0 0.12499734E+03</rscale>
<asrwt>0</asrwt>
<pdfrwt beam="2">  1        4 0.20245363E-01 0.12499734E+03</pdfrwt>
<pdfrwt beam="1">  1       -4 0.45665612E-02 0.12499734E+03</pdfrwt>
<totfact> 0.97102854E+03</totfact>
</mgrwt>
</event>
<event>
 5    1  0.3316206E-002  0.1249998E+03  0.7818608E-02  0.1235070E+00
         -4   -1    0    0    0  501 -0.00000000000E+00  0.00000000000E+00  0.20318583639E+03  0.20318980538E+03  0.12700000000E+01 0.  1.
          4   -1    0    0  501    0  0.00000000000E+00 -0.00000000000E+00 -0.19199822218E+02  0.19241779367E+02  0.12700000000E+01 0.  1.
         25    2    1    2    0    0  0.00000000000E+00  0.00000000000E+00  0.18398601417E+03  0.22243158474E+03  0.12499982593E+03 0.  0.
    9000005    1    3    3    0    0  0.50071807007E+02  0.17411010424E+02  0.15087415320E+03  0.15991979003E+03  0.10000000000E+01 0.  0.
    9000005    1    3    3    0    0 -0.50071807007E+02 -0.17411010424E+02  0.33111860973E+02  0.62511794711E+02  0.10000000000E+01 0.  0.
<mgrwt>
<rscale>  0 0.12499983E+03</rscale>
<asrwt>0</asrwt>
<pdfrwt beam="2">  1        4 0.29573518E-02 0.12499983E+03</pdfrwt>
<pdfrwt beam="1">  1       -4 0.31262890E-01 0.12499983E+03</pdfrwt>
<totfact> 0.86485377E+03</totfact>
</mgrwt>
</event>
<event>
 5    1  0.3316206E-002  0.1250066E+03  0.7818608E-02  0.1235059E+00
          4   -1    0    0  501    0  0.00000000000E+00  0.00000000000E+00  0.81143111302E+02  0.81153049307E+02  0.12700000000E+01 0. -1.
         -4   -1    0    0    0  501 -0.00000000000E+00 -0.00000000000E+00 -0.48124093815E+02  0.48140848617E+02  0.12700000000E+01 0. -1.
         25    2    1    2    0    0  0.00000000000E+00  0.00000000000E+00  0.33019017486E+02  0.12929389792E+03  0.12500662592E+03 0.  0.
    9000005    1    3    3    0    0  0.39447658105E+02  0.29732989803E+02 -0.23085210920E+02  0.54535267266E+02  0.10000000000E+01 0.  0.
    9000005    1    3    3    0    0 -0.39447658105E+02 -0.29732989803E+02  0.56104228407E+02  0.74758630657E+02  0.10000000000E+01 0.  0.
<mgrwt>
<rscale>  0 0.12500663E+03</rscale>
<asrwt>0</asrwt>
<pdfrwt beam="1">  1        4 0.12485609E-01 0.12500663E+03</pdfrwt>
<pdfrwt beam="2">  1       -4 0.74057601E-02 0.12500663E+03</pdfrwt>
<totfact> 0.10358086E+04</totfact>
</mgrwt>
</event>
<event>
 5    1  0.3316206E-002  0.1249922E+03  0.7818608E-02  0.1235081E+00
          4   -1    0    0  501    0  0.00000000000E+00  0.00000000000E+00  0.16306455191E+02  0.16355836295E+02  0.12700000000E+01 0.  1.
         -4   -1    0    0    0  501 -0.00000000000E+00 -0.00000000000E+00 -0.23910936636E+03  0.23911273906E+03  0.12700000000E+01 0.  1.
         25    2    1    2    0    0  0.00000000000E+00  0.00000000000E+00 -0.22280291117E+03  0.25546857535E+03  0.12499222283E+03 0.  0.
    9000005    1    3    3    0    0 -0.48852654085E+02 -0.23464385702E+02 -0.47823949667E+02  0.72286163056E+02  0.10000000000E+01 0.  0.
    9000005    1    3    3    0    0  0.48852654085E+02  0.23464385702E+02 -0.17497896150E+03  0.18318241230E+03  0.10000000000E+01 0.  0.
<mgrwt>
<rscale>  0 0.12499222E+03</rscale>
<asrwt>0</asrwt>
<pdfrwt beam="1">  1        4 0.25127436E-02 0.12499222E+03</pdfrwt>
<pdfrwt beam="2">  1       -4 0.36790112E-01 0.12499222E+03</pdfrwt>
<totfact> 0.81560342E+03</totfact>
</mgrwt>
</event>
<event>
 5    1  0.3316206E-002  0.1249965E+03  0.7818608E-02  0.1235075E+00
         -4   -1    0    0    0  501 -0.00000000000E+00  0.00000000000E+00  0.18423370658E+03  0.18423808385E+03  0.12700000000E+01 0.  1.
          4   -1    0    0  501    0  0.00000000000E+00 -0.00000000000E+00 -0.21177841434E+02  0.21215887155E+02  0.12700000000E+01 0.  1.
         25    2    1    2    0    0  0.00000000000E+00  0.00000000000E+00  0.16305586515E+03  0.20545397101E+03  0.12499647612E+03 0.  0.
    9000005    1    3    3    0    0 -0.53957624722E+02  0.12434075142E+02  0.33918028893E+02  0.64942006238E+02  0.10000000000E+01 0.  0.
    9000005    1    3    3    0    0  0.53957624722E+02 -0.12434075142E+02  0.12913783626E+03  0.14051196477E+03  0.10000000000E+01 0.  0.
<mgrwt>
<rscale>  0 0.12499648E+03</rscale>
<asrwt>0</asrwt>
<pdfrwt beam="2">  1        4 0.32613928E-02 0.12499648E+03</pdfrwt>
<pdfrwt beam="1">  1       -4 0.28346910E-01 0.12499648E+03</pdfrwt>
<totfact> 0.89230763E+03</totfact>
</mgrwt>
</event>
<event>
 5    1  0.3316206E-002  0.1250039E+03  0.7818608E-02  0.1235063E+00
          4   -1    0    0  501    0  0.00000000000E+00  0.00000000000E+00  0.45942034458E+03  0.45942209994E+03  0.12700000000E+01 0. -1.
         -4   -1    0    0    0  501 -0.00000000000E+00 -0.00000000000E+00 -0.84538887990E+01  0.85487505418E+01  0.12700000000E+01 0. -1.
         25    2    1    2    0    0  0.00000000000E+00  0.00000000000E+00  0.45096645578E+03  0.46797085048E+03  0.12500389059E+03 0.  0.
    9000005    1    3    3    0    0  0.59420304852E+02 -0.12608417817E+02  0.17049509161E+03  0.18099536207E+03  0.10000000000E+01 0.  0.
    9000005    1    3    3    0    0 -0.59420304852E+02  0.12608417817E+02  0.28047136417E+03  0.28697548841E+03  0.10000000000E+01 0.  0.
<mgrwt>
<rscale>  0 0.12500389E+03</rscale>
<asrwt>0</asrwt>
<pdfrwt beam="1">  1        4 0.70687494E-01 0.12500389E+03</pdfrwt>
<pdfrwt beam="2">  1       -4 0.13080302E-02 0.12500389E+03</pdfrwt>
<totfact> 0.58432980E+03</totfact>
</mgrwt>
</event>
<event>
 5    1  0.3316206E-002  0.1250153E+03  0.7818608E-02  0.1235045E+00
         -4   -1    0    0    0  501 -0.00000000000E+00  0.00000000000E+00  0.37159841297E+03  0.37160058319E+03  0.12700000000E+01 0. -1.
          4   -1    0    0  501    0  0.00000000000E+00 -0.00000000000E+00 -0.10474033148E+02  0.10550747385E+02  0.12700000000E+01 0. -1.
         25    2    1    2    0    0  0.00000000000E+00  0.00000000000E+00  0.36112437982E+03  0.38215133057E+03  0.12501528608E+03 0.  0.
    9000005    1    3    3    0    0 -0.54968441116E+02  0.28807328644E+02  0.15793050133E+03  0.16968923052E+03  0.10000000000E+01 0.  0.
    9000005    1    3    3    0    0  0.54968441116E+02 -0.28807328644E+02  0.20319387849E+03  0.21246210005E+03  0.10000000000E+01 0.  0.
<mgrwt>
<rscale>  0 0.12501529E+03</rscale>
<asrwt>0</asrwt>
<pdfrwt beam="2">  1        4 0.16174580E-02 0.12501529E+03</pdfrwt>
<pdfrwt beam="1">  1       -4 0.57175044E-01 0.12501529E+03</pdfrwt>
<totfact> 0.66304161E+03</totfact>
</mgrwt>
</event>
<event>
 5    1  0.3316206E-002  0.1249995E+03  0.7818608E-02  0.1235070E+00
          4   -1    0    0  501    0  0.00000000000E+00  0.00000000000E+00  0.55594115107E+03  0.55594260167E+03  0.12700000000E+01 0. -1.
         -4   -1    0    0    0  501 -0.00000000000E+00 -0.00000000000E+00 -0.69674587146E+01  0.70822581808E+01  0.12700000000E+01 0. -1.
         25    2    1    2    0    0  0.00000000000E+00  0.00000000000E+00  0.54897369235E+03  0.56302485985E+03  0.12499951165E+03 0.  0.
    9000005    1    3    3    0    0  0.26979643092E+02 -0.33339797805E+02  0.69766554496E+02  0.81901253868E+02  0.10000000000E+01 0.  0.
    9000005    1    3    3    0    0 -0.26979643092E+02  0.33339797805E+02  0.47920713786E+03  0.48112360598E+03  0.10000000000E+01 0.  0.
<mgrwt>
<rscale>  0 0.12499951E+03</rscale>
<asrwt>0</asrwt>
<pdfrwt beam="1">  1        4 0.85538340E-01 0.12499951E+03</pdfrwt>
<pdfrwt beam="2">  1       -4 0.10808592E-02 0.12499951E+03</pdfrwt>
<totfact> 0.51288538E+03</totfact>
</mgrwt>
</event>
<event>
 5    1  0.3316206E-002  0.1250022E+03  0.7818608E-02  0.1235066E+00
          4   -1    0    0  501    0  0.00000000000E+00  0.00000000000E+00  0.14878987569E+02  0.14933089803E+02  0.12700000000E+01 0.  1.
         -4   -1    0    0    0  501 -0.00000000000E+00 -0.00000000000E+00 -0.26201184844E+03  0.26201492634E+03  0.12700000000E+01 0.  1.
         25    2    1    2    0    0  0.00000000000E+00  0.00000000000E+00 -0.24713286087E+03  0.27694801614E+03  0.12500221086E+03 0.  0.
    9000005    1    3    3    0    0 -0.18212503790E+02  0.25543684533E+02 -0.38201088347E+01  0.31619113607E+02  0.10000000000E+01 0.  0.
    9000005    1    3    3    0    0  0.18212503790E+02 -0.25543684533E+02 -0.24331275204E+03  0.24532890253E+03  0.10000000000E+01 0.  0.
<mgrwt>
<rscale>  0 0.12500221E+03</rscale>
<asrwt>0</asrwt>
<pdfrwt beam="1">  1        4 0.22934737E-02 0.12500221E+03</pdfrwt>
<pdfrwt beam="2">  1       -4 0.40313910E-01 0.12500221E+03</pdfrwt>
<totfact> 0.78580663E+03</totfact>
</mgrwt>
</event>
<event>
 5    1  0.3316206E-002  0.1249984E+03  0.7818608E-02  0.1235072E+00
         -4   -1    0    0    0  501 -0.00000000000E+00  0.00000000000E+00  0.10533198536E+04  0.10533206193E+04  0.12700000000E+01 0. -1.
          4   -1    0    0  501    0  0.00000000000E+00 -0.00000000000E+00 -0.35988975646E+01  0.38164071691E+01  0.12700000000E+01 0. -1.
         25    2    1    2    0    0  0.00000000000E+00  0.00000000000E+00  0.10497209561E+04  0.10571370264E+04  0.12499842814E+03 0.  0.
    9000005    1    3    3    0    0 -0.38617597591E+01 -0.56241963109E+02  0.75290407291E+03  0.75501232745E+03  0.10000000000E+01 0.  0.
    9000005    1    3    3    0    0  0.38617597591E+01  0.56241963109E+02  0.29681688316E+03  0.30212469898E+03  0.10000000000E+01 0.  0.
<mgrwt>
<rscale>  0 0.12499843E+03</rscale>
<asrwt>0</asrwt>
<pdfrwt beam="2">  1        4 0.57046674E-03 0.12499843E+03</pdfrwt>
<pdfrwt beam="1">  1       -4 0.16206606E+00 0.12499843E+03</pdfrwt>
<totfact> 0.28773939E+03</totfact>
</mgrwt>
</event>
<event>
 5    1  0.3316206E-002  0.1250012E+03  0.7818608E-02  0.1235067E+00
          4   -1    0    0  501    0  0.00000000000E+00  0.00000000000E+00  0.59457813117E+03  0.59457948751E+03  0.12700000000E+01 0.  1.
         -4   -1    0    0    0  501 -0.00000000000E+00 -0.00000000000E+00 -0.65071622426E+01  0.66299366854E+01  0.12700000000E+01 0.  1.
         25    2    1    2    0    0  0.00000000000E+00  0.00000000000E+00  0.58807096893E+03  0.60120942420E+03  0.12500122897E+03 0.  0.
    9000005    1    3    3    0    0 -0.16455844125E+02  0.46693226359E+02  0.47745042480E+03  0.48001141688E+03  0.10000000000E+01 0.  0.
    9000005    1    3    3    0    0  0.16455844125E+02 -0.46693226359E+02  0.11062054413E+03  0.12119800731E+03  0.10000000000E+01 0.  0.
<mgrwt>
<rscale>  0 0.12500123E+03</rscale>
<asrwt>0</asrwt>
<pdfrwt beam="1">  1        4 0.91483127E-01 0.12500123E+03</pdfrwt>
<pdfrwt beam="2">  1       -4 0.10106502E-02 0.12500123E+03</pdfrwt>
<totfact> 0.48790034E+03</totfact>
</mgrwt>
</event>
<event>
 5    1  0.3316206E-002  0.1250004E+03  0.7818608E-02  0.1235069E+00
         -4   -1    0    0    0  501 -0.00000000000E+00  0.00000000000E+00  0.90836601765E+03  0.90836690546E+03  0.12700000000E+01 0. -1.
          4   -1    0    0  501    0  0.00000000000E+00 -0.00000000000E+00 -0.42056555489E+01  0.43932264449E+01  0.12700000000E+01 0. -1.
         25    2    1    2    0    0  0.00000000000E+00  0.00000000000E+00  0.90416036211E+03  0.91276013190E+03  0.12500039195E+03 0.  0.
    9000005    1    3    3    0    0  0.42131272789E+02  0.46071289004E+02  0.47229868127E+03  0.47640807314E+03  0.10000000000E+01 0.  0.
    9000005    1    3    3    0    0 -0.42131272789E+02 -0.46071289004E+02  0.43186168083E+03  0.43635205877E+03  0.10000000000E+01 0.  0.
<mgrwt>
<rscale>  0 0.12500039E+03</rscale>
<asrwt>0</asrwt>
<pdfrwt beam="2">  1        4 0.66152032E-03 0.12500039E+03</pdfrwt>
<pdfrwt beam="1">  1       -4 0.13976321E+00 0.12500039E+03</pdfrwt>
<totfact> 0.33675700E+03</totfact>
</mgrwt>
</event>
<event>
 5    1  0.3316206E-002  0.1249968E+03  0.7818608E-02  0.1235074E+00
          4   -1    0    0  501    0  0.00000000000E+00  0.00000000000E+00  0.22135819915E+03  0.22136184231E+03  0.12700000000E+01 0.  1.
         -4   -1    0    0    0  501 -0.00000000000E+00 -0.00000000000E+00 -0.17619176682E+02  0.17664888535E+02  0.12700000000E+01 0.  1.
         25    2    1    2    0    0  0.00000000000E+00  0.00000000000E+00  0.20373902246E+03  0.23902673084E+03  0.12499675509E+03 0.  0.
    9000005    1    3    3    0    0 -0.55035806626E+02  0.16578292148E+02  0.54979367208E+02  0.79545651045E+02  0.10000000000E+01 0.  0.
    9000005    1    3    3    0    0  0.55035806626E+02 -0.16578292148E+02  0.14875965525E+03  0.15948107980E+03  0.10000000000E+01 0.  0.
<mgrwt>
<rscale>  0 0.12499676E+03</rscale>
<asrwt>0</asrwt>
<pdfrwt beam="1">  1        4 0.34058904E-01 0.12499676E+03</pdfrwt>
<pdfrwt beam="2">  1       -4 0.27144391E-02 0.12499676E+03</pdfrwt>
<totfact> 0.83948605E+03</totfact>
</mgrwt>
</event>
<event>
 5    1  0.3316206E-002  0.1249945E+03  0.7818608E-02  0.1235078E+00
         -4   -1    0    0    0  501 -0.00000000000E+00  0.00000000000E+00  0.22555675623E+03  0.22556033158E+03  0.12700000000E+01 0.  1.
          4   -1    0    0  501    0  0.00000000000E+00 -0.00000000000E+00 -0.17289733873E+02  0.17336314412E+02  0.12700000000E+01 0.  1.
         25    2    1    2    0    0  0.00000000000E+00  0.00000000000E+00  0.20826702236E+03  0.24289664599E+03  0.12499451201E+03 0.  0.
    9000005    1    3    3    0    0  0.13423238823E+02  0.98037904550E+01 -0.12924375931E+02  0.21079305989E+02  0.10000000000E+01 0.  0.
    9000005    1    3    3    0    0 -0.13423238823E+02 -0.98037904550E+01  0.22119139829E+03  0.22181734000E+03  0.10000000000E+01 0.  0.
<mgrwt>
<rscale>  0 0.12499451E+03</rscale>
<asrwt>0</asrwt>
<pdfrwt beam="2">  1        4 0.26638174E-02 0.12499451E+03</pdfrwt>
<pdfrwt beam="1">  1       -4 0.34704895E-01 0.12499451E+03</pdfrwt>
<totfact> 0.83378045E+03</totfact>
</mgrwt>
</event>
<event>
 5    1  0.3316206E-002  0.1249957E+03  0.7818608E-02  0.1235076E+00
         -4   -1    0    0    0  501 -0.00000000000E+00  0.00000000000E+00  0.11473808004E+03  0.11474510844E+03  0.12700000000E+01 0. -1.
          4   -1    0    0  501    0  0.00000000000E+00 -0.00000000000E+00 -0.34022665770E+02  0.34046360835E+02  0.12700000000E+01 0. -1.
         25    2    1    2    0    0  0.00000000000E+00  0.00000000000E+00  0.80715414269E+02  0.14879146928E+03  0.12499569284E+03 0.  0.
    9000005    1    3    3    0    0 -0.51570185347E+02 -0.94880304041E+01  0.80821173640E+02  0.96346088900E+02  0.10000000000E+01 0.  0.
    9000005    1    3    3    0    0  0.51570185347E+02  0.94880304041E+01 -0.10575937142E+00  0.52445380376E+02  0.10000000000E+01 0.  0.
<mgrwt>
<rscale>  0 0.12499569E+03</rscale>
<asrwt>0</asrwt>
<pdfrwt beam="2">  1        4 0.52366196E-02 0.12499569E+03</pdfrwt>
<pdfrwt beam="1">  1       -4 0.17654376E-01 0.12499569E+03</pdfrwt>
<totfact> 0.99554799E+03</totfact>
</mgrwt>
</event>
<event>
 5    1  0.3316206E-002  0.1250014E+03  0.7818608E-02  0.1235067E+00
         -4   -1    0    0    0  501 -0.00000000000E+00  0.00000000000E+00  0.16378333132E+02  0.16427498172E+02  0.12700000000E+01 0.  1.
          4   -1    0    0  501    0  0.00000000000E+00 -0.00000000000E+00 -0.23809821689E+03  0.23810160391E+03  0.12700000000E+01 0.  1.
         25    2    1    2    0    0  0.00000000000E+00  0.00000000000E+00 -0.22171988376E+03  0.25452910208E+03  0.12500142781E+03 0.  0.
    9000005    1    3    3    0    0 -0.52048377949E+02 -0.34583301519E+02 -0.11197679409E+03  0.12823743918E+03  0.10000000000E+01 0.  0.
    9000005    1    3    3    0    0  0.52048377949E+02  0.34583301519E+02 -0.10974308966E+03  0.12629166291E+03  0.10000000000E+01 0.  0.
<mgrwt>
<rscale>  0 0.12500143E+03</rscale>
<asrwt>0</asrwt>
<pdfrwt beam="2">  1        4 0.36634535E-01 0.12500143E+03</pdfrwt>
<pdfrwt beam="1">  1       -4 0.25237862E-02 0.12500143E+03</pdfrwt>
<totfact> 0.81677411E+03</totfact>
</mgrwt>
</event>
<event>
 5    1  0.3316206E-002  0.1249994E+03  0.7818608E-02  0.1235070E+00
         -4   -1    0    0    0  501 -0.00000000000E+00  0.00000000000E+00  0.16359676471E+02  0.16408897410E+02  0.12700000000E+01 0.  1.
          4   -1    0    0  501    0  0.00000000000E+00 -0.00000000000E+00 -0.23836128224E+03  0.23836466552E+03  0.12700000000E+01 0.  1.
         25    2    1    2    0    0  0.00000000000E+00  0.00000000000E+00 -0.22200160577E+03  0.25477356293E+03  0.12499942163E+03 0.  0.
    9000005    1    3    3    0    0 -0.25316309072E+02  0.56025433041E+02 -0.88172148987E+02  0.10749461619E+03  0.10000000000E+01 0.  0.
    9000005    1    3    3    0    0  0.25316309072E+02 -0.56025433041E+02 -0.13382945678E+03  0.14727894674E+03  0.10000000000E+01 0.  0.
<mgrwt>
<rscale>  0 0.12499942E+03</rscale>
<asrwt>0</asrwt>
<pdfrwt beam="2">  1        4 0.36675011E-01 0.12499942E+03</pdfrwt>
<pdfrwt beam="1">  1       -4 0.25209200E-02 0.12499942E+03</pdfrwt>
<totfact> 0.81646210E+03</totfact>
</mgrwt>
</event>
<event>
 5    1  0.3316206E-002  0.1250071E+03  0.7818608E-02  0.1235058E+00
          4   -1    0    0  501    0  0.00000000000E+00  0.00000000000E+00  0.33408884799E+02  0.33433014874E+02  0.12700000000E+01 0. -1.
         -4   -1    0    0    0  501 -0.00000000000E+00 -0.00000000000E+00 -0.11686600240E+03  0.11687290283E+03  0.12700000000E+01 0. -1.
         25    2    1    2    0    0  0.00000000000E+00  0.00000000000E+00 -0.83457117600E+02  0.15030591771E+03  0.12500711348E+03 0.  0.
    9000005    1    3    3    0    0  0.15057847573E+02 -0.67134457201E+01 -0.11421002513E+03  0.11539817575E+03  0.10000000000E+01 0.  0.
    9000005    1    3    3    0    0 -0.15057847573E+02  0.67134457201E+01  0.30752907529E+02  0.34907741956E+02  0.10000000000E+01 0.  0.
<mgrwt>
<rscale>  0 0.12500711E+03</rscale>
<asrwt>0</asrwt>
<pdfrwt beam="1">  1        4 0.51422154E-02 0.12500711E+03</pdfrwt>
<pdfrwt beam="2">  1       -4 0.17981772E-01 0.12500711E+03</pdfrwt>
<totfact> 0.99226867E+03</totfact>
</mgrwt>
</event>
<event>
 5    1  0.3316206E-002  0.1250007E+03  0.7818608E-02  0.1235068E+00
         -4   -1    0    0    0  501 -0.00000000000E+00  0.00000000000E+00  0.76975808445E+03  0.76975913211E+03  0.12700000000E+01 0. -1.
          4   -1    0    0  501    0  0.00000000000E+00 -0.00000000000E+00 -0.49941743909E+01  0.51531231158E+01  0.12700000000E+01 0. -1.
         25    2    1    2    0    0  0.00000000000E+00  0.00000000000E+00  0.76476391006E+03  0.77491225523E+03  0.12500066072E+03 0.  0.
    9000005    1    3    3    0    0 -0.82255440126E+01  0.32999691275E+02  0.70739448740E+03  0.70821225632E+03  0.10000000000E+01 0.  0.
    9000005    1    3    3    0    0  0.82255440126E+01 -0.32999691275E+02  0.57369422660E+02  0.66699998912E+02  0.10000000000E+01 0.  0.
<mgrwt>
<rscale>  0 0.12500066E+03</rscale>
<asrwt>0</asrwt>
<pdfrwt beam="2">  1        4 0.78064225E-03 0.12500066E+03</pdfrwt>
<pdfrwt beam="1">  1       -4 0.11843658E+00 0.12500066E+03</pdfrwt>
<totfact> 0.39408965E+03</totfact>
</mgrwt>
</event>
<event>
 5    1  0.3316206E-002  0.1250018E+03  0.7818608E-02  0.1235066E+00
         -4   -1    0    0    0  501 -0.00000000000E+00  0.00000000000E+00  0.76817422156E+01  0.77860171761E+01  0.12700000000E+01 0. -1.
          4   -1    0    0  501    0  0.00000000000E+00 -0.00000000000E+00 -0.50499222429E+03  0.50499382124E+03  0.12700000000E+01 0. -1.
         25    2    1    2    0    0  0.00000000000E+00  0.00000000000E+00 -0.49731048207E+03  0.51277983841E+03  0.12500178842E+03 0.  0.
    9000005    1    3    3    0    0 -0.45105366397E+02  0.29463995017E+02 -0.11875527567E+03  0.13040872892E+03  0.10000000000E+01 0.  0.
    9000005    1    3    3    0    0  0.45105366397E+02 -0.29463995017E+02 -0.37855520640E+03  0.38237110949E+03  0.10000000000E+01 0.  0.
<mgrwt>
<rscale>  0 0.12500179E+03</rscale>
<asrwt>0</asrwt>
<pdfrwt beam="2">  1        4 0.77699229E-01 0.12500179E+03</pdfrwt>
<pdfrwt beam="1">  1       -4 0.11899509E-02 0.12500179E+03</pdfrwt>
<totfact> 0.54884119E+03</totfact>
</mgrwt>
</event>
<event>
 5    1  0.3316206E-002  0.1249949E+03  0.7818608E-02  0.1235077E+00
          4   -1    0    0  501    0  0.00000000000E+00  0.00000000000E+00  0.95211864789E+03  0.95211949489E+03  0.12700000000E+01 0. -1.
         -4   -1    0    0    0  501 -0.00000000000E+00 -0.00000000000E+00 -0.40031984519E+01  0.41998211682E+01  0.12700000000E+01 0. -1.
         25    2    1    2    0    0  0.00000000000E+00  0.00000000000E+00  0.94811544943E+03  0.95631931606E+03  0.12499491515E+03 0.  0.
    9000005    1    3    3    0    0  0.52725383859E+02 -0.32573698278E+02  0.41288893068E+03  0.41751560570E+03  0.10000000000E+01 0.  0.
    9000005    1    3    3    0    0 -0.52725383859E+02  0.32573698278E+02  0.53522651875E+03  0.53880371036E+03  0.10000000000E+01 0.  0.
<mgrwt>
<rscale>  0 0.12499492E+03</rscale>
<asrwt>0</asrwt>
<pdfrwt beam="1">  1        4 0.14649476E+00 0.12499492E+03</pdfrwt>
<pdfrwt beam="2">  1       -4 0.63106762E-03 0.12499492E+03</pdfrwt>
<totfact> 0.32096276E+03</totfact>
</mgrwt>
</event>
<event>
 5    1  0.3316206E-002  0.1250016E+03  0.7818608E-02  0.1235067E+00
         -4   -1    0    0    0  501 -0.00000000000E+00  0.00000000000E+00  0.38622921472E+03  0.38623130272E+03  0.12700000000E+01 0.  1.
          4   -1    0    0  501    0  0.00000000000E+00 -0.00000000000E+00 -0.10072079170E+02  0.10151831303E+02  0.12700000000E+01 0.  1.
         25    2    1    2    0    0  0.00000000000E+00  0.00000000000E+00  0.37615713555E+03  0.39638313402E+03  0.12500159325E+03 0.  0.
    9000005    1    3    3    0    0  0.31284359636E+02 -0.37766216702E+02  0.65250930547E+02  0.81631380113E+02  0.10000000000E+01 0.  0.
    9000005    1    3    3    0    0 -0.31284359636E+02  0.37766216702E+02  0.31090620500E+03  0.31475175391E+03  0.10000000000E+01 0.  0.
<mgrwt>
<rscale>  0 0.12500159E+03</rscale>
<asrwt>0</asrwt>
<pdfrwt beam="2">  1        4 0.15558461E-02 0.12500159E+03</pdfrwt>
<pdfrwt beam="1">  1       -4 0.59426171E-01 0.12500159E+03</pdfrwt>
<totfact> 0.64903805E+03</totfact>
</mgrwt>
</event>
<event>
 5    1  0.3316206E-002  0.1249958E+03  0.7818608E-02  0.1235076E+00
         -4   -1    0    0    0  501 -0.00000000000E+00  0.00000000000E+00  0.11677887925E+02  0.11746742799E+02  0.12700000000E+01 0. -1.
          4   -1    0    0  501    0  0.00000000000E+00 -0.00000000000E+00 -0.33342374177E+03  0.33342616046E+03  0.12700000000E+01 0. -1.
         25    2    1    2    0    0  0.00000000000E+00  0.00000000000E+00 -0.32174585385E+03  0.34517290326E+03  0.12499575462E+03 0.  0.
    9000005    1    3    3    0    0  0.41547516343E+02 -0.32843258288E+02 -0.69280560572E+02  0.87210502822E+02  0.10000000000E+01 0.  0.
    9000005    1    3    3    0    0 -0.41547516343E+02  0.32843258288E+02 -0.25246529327E+03  0.25796240043E+03  0.10000000000E+01 0.  0.
<mgrwt>
<rscale>  0 0.12499575E+03</rscale>
<asrwt>0</asrwt>
<pdfrwt beam="2">  1        4 0.51301435E-01 0.12499575E+03</pdfrwt>
<pdfrwt beam="1">  1       -4 0.18020810E-02 0.12499575E+03</pdfrwt>
<totfact> 0.70265487E+03</totfact>
</mgrwt>
</event>
<event>
 5    1  0.3316206E-002  0.1249971E+03  0.7818608E-02  0.1235074E+00
          4   -1    0    0  501    0  0.00000000000E+00  0.00000000000E+00  0.39578360778E+02  0.39598731569E+02  0.12700000000E+01 0.  1.
         -4   -1    0    0    0  501 -0.00000000000E+00 -0.00000000000E+00 -0.98642101013E+02  0.98650276189E+02  0.12700000000E+01 0.  1.
         25    2    1    2    0    0  0.00000000000E+00  0.00000000000E+00 -0.59063740235E+02  0.13824900776E+03  0.12499705091E+03 0.  0.
    9000005    1    3    3    0    0  0.30306994119E+02 -0.40211975979E+02  0.11399002994E+02  0.51637720456E+02  0.10000000000E+01 0.  0.
    9000005    1    3    3    0    0 -0.30306994119E+02  0.40211975979E+02 -0.70462743229E+02  0.86611287301E+02  0.10000000000E+01 0.  0.
<mgrwt>
<rscale>  0 0.12499705E+03</rscale>
<asrwt>0</asrwt>
<pdfrwt beam="1">  1        4 0.60911745E-02 0.12499705E+03</pdfrwt>
<pdfrwt beam="2">  1       -4 0.15177904E-01 0.12499705E+03</pdfrwt>
<totfact> 0.10170681E+04</totfact>
</mgrwt>
</event>
<event>
 5    1  0.3316206E-002  0.1249998E+03  0.7818608E-02  0.1235070E+00
          4   -1    0    0  501    0  0.00000000000E+00  0.00000000000E+00  0.12855447435E+02  0.12918027278E+02  0.12700000000E+01 0. -1.
         -4   -1    0    0    0  501 -0.00000000000E+00 -0.00000000000E+00 -0.30305675650E+03  0.30305941754E+03  0.12700000000E+01 0. -1.
         25    2    1    2    0    0  0.00000000000E+00  0.00000000000E+00 -0.29020130907E+03  0.31597744482E+03  0.12499978341E+03 0.  0.
    9000005    1    3    3    0    0  0.47353475103E+02  0.37874529444E+02 -0.10689747497E+03  0.12290200055E+03  0.10000000000E+01 0.  0.
    9000005    1    3    3    0    0 -0.47353475103E+02 -0.37874529444E+02 -0.18330383410E+03  0.19307544427E+03  0.10000000000E+01 0.  0.
<mgrwt>
<rscale>  0 0.12499978E+03</rscale>
<asrwt>0</asrwt>
<pdfrwt beam="1">  1        4 0.19827799E-02 0.12499978E+03</pdfrwt>
<pdfrwt beam="2">  1       -4 0.46629129E-01 0.12499978E+03</pdfrwt>
<totfact> 0.73637479E+03</totfact>
</mgrwt>
</event>
<event>
 5    1  0.3316206E-002  0.1249969E+03  0.7818608E-02  0.1235074E+00
         -4   -1    0    0    0  501 -0.00000000000E+00  0.00000000000E+00  0.19116464590E+03  0.19116886447E+03  0.12700000000E+01 0. -1.
          4   -1    0    0  501    0  0.00000000000E+00 -0.00000000000E+00 -0.20408759450E+02  0.20448236166E+02  0.12700000000E+01 0. -1.
         25    2    1    2    0    0  0.00000000000E+00  0.00000000000E+00  0.17075588645E+03  0.21161710064E+03  0.12499689806E+03 0.  0.
    9000005    1    3    3    0    0 -0.35807143170E+02  0.17682689018E+02  0.40052172981E+01  0.40148110274E+02  0.10000000000E+01 0.  0.
    9000005    1    3    3    0    0  0.35807143170E+02 -0.17682689018E+02  0.16675066915E+03  0.17146899036E+03  0.10000000000E+01 0.  0.
<mgrwt>
<rscale>  0 0.12499690E+03</rscale>
<asrwt>0</asrwt>
<pdfrwt beam="2">  1        4 0.31431704E-02 0.12499690E+03</pdfrwt>
<pdfrwt beam="1">  1       -4 0.29413306E-01 0.12499690E+03</pdfrwt>
<totfact> 0.88218583E+03</totfact>
</mgrwt>
</event>
<event>
 5    1  0.3316206E-002  0.1250210E+03  0.7818608E-02  0.1235037E+00
          4   -1    0    0  501    0  0.00000000000E+00  0.00000000000E+00  0.10565787048E+02  0.10641839876E+02  0.12700000000E+01 0.  1.
         -4   -1    0    0    0  501 -0.00000000000E+00 -0.00000000000E+00 -0.36842805658E+03  0.36843024547E+03  0.12700000000E+01 0.  1.
         25    2    1    2    0    0  0.00000000000E+00  0.00000000000E+00 -0.35786226953E+03  0.37907208534E+03  0.12502096597E+03 0.  0.
    9000005    1    3    3    0    0  0.31793277349E+02 -0.50453920536E+02 -0.23566808117E+03  0.24309844727E+03  0.10000000000E+01 0.  0.
    9000005    1    3    3    0    0 -0.31793277349E+02  0.50453920536E+02 -0.12219418836E+03  0.13597363807E+03  0.10000000000E+01 0.  0.
<mgrwt>
<rscale>  0 0.12502097E+03</rscale>
<asrwt>0</asrwt>
<pdfrwt beam="1">  1        4 0.16315246E-02 0.12502097E+03</pdfrwt>
<pdfrwt beam="2">  1       -4 0.56687248E-01 0.12502097E+03</pdfrwt>
<totfact> 0.66609526E+03</totfact>
</mgrwt>
</event>
<event>
 5    1  0.3316206E-002  0.1250003E+03  0.7818608E-02  0.1235069E+00
         -4   -1    0    0    0  501 -0.00000000000E+00  0.00000000000E+00  0.71340165933E+02  0.71351469329E+02  0.12700000000E+01 0.  1.
          4   -1    0    0  501    0  0.00000000000E+00 -0.00000000000E+00 -0.54732529525E+02  0.54747261924E+02  0.12700000000E+01 0.  1.
         25    2    1    2    0    0  0.00000000000E+00  0.00000000000E+00  0.16607636408E+02  0.12609873125E+03  0.12500030575E+03 0.  0.
    9000005    1    3    3    0    0  0.74295655187E+01 -0.43331211343E+02  0.53106663159E+02  0.68950054330E+02  0.10000000000E+01 0.  0.
    9000005    1    3    3    0    0 -0.74295655187E+01  0.43331211343E+02 -0.36499026751E+02  0.57148676923E+02  0.10000000000E+01 0.  0.
<mgrwt>
<rscale>  0 0.12500031E+03</rscale>
<asrwt>0</asrwt>
<pdfrwt beam="2">  1        4 0.84223919E-02 0.12500031E+03</pdfrwt>
<pdfrwt beam="1">  1       -4 0.10977413E-01 0.12500031E+03</pdfrwt>
<totfact> 0.10428722E+04</totfact>
</mgrwt>
</event>
<event>
 5    1  0.3316206E-002  0.1250011E+03  0.7818608E-02  0.1235068E+00
          4   -1    0    0  501    0  0.00000000000E+00  0.00000000000E+00  0.17607221092E+03  0.17607679109E+03  0.12700000000E+01 0.  1.
         -4   -1    0    0    0  501 -0.00000000000E+00 -0.00000000000E+00 -0.22162842624E+02  0.22199200282E+02  0.12700000000E+01 0.  1.
         25    2    1    2    0    0  0.00000000000E+00  0.00000000000E+00  0.15390936830E+03  0.19827599137E+03  0.12500110041E+03 0.  0.
    9000005    1    3    3    0    0  0.23802155477E+02  0.53831348061E+02  0.43646040847E+02  0.73282559460E+02  0.10000000000E+01 0.  0.
    9000005    1    3    3    0    0 -0.23802155477E+02 -0.53831348061E+02  0.11026332745E+03  0.12499343191E+03  0.10000000000E+01 0.  0.
<mgrwt>
<rscale>  0 0.12500110E+03</rscale>
<asrwt>0</asrwt>
<pdfrwt beam="1">  1        4 0.27091182E-01 0.12500110E+03</pdfrwt>
<pdfrwt beam="2">  1       -4 0.34128170E-02 0.12500110E+03</pdfrwt>
<totfact> 0.90424697E+03</totfact>
</mgrwt>
</event>
<event>
 5    1  0.3316206E-002  0.1249994E+03  0.7818608E-02  0.1235070E+00
          4   -1    0    0  501    0  0.00000000000E+00  0.00000000000E+00  0.19403915751E+03  0.19404331358E+03  0.12700000000E+01 0.  1.
         -4   -1    0    0    0  501 -0.00000000000E+00 -0.00000000000E+00 -0.20106651312E+02  0.20146720006E+02  0.12700000000E+01 0.  1.
         25    2    1    2    0    0  0.00000000000E+00  0.00000000000E+00  0.17393250619E+03  0.21419003359E+03  0.12499941511E+03 0.  0.
    9000005    1    3    3    0    0  0.42245962431E+02 -0.12750188411E+02  0.16278721356E+03  0.16866524700E+03  0.10000000000E+01 0.  0.
    9000005    1    3    3    0    0 -0.42245962431E+02  0.12750188411E+02  0.11145292636E+02  0.45524786592E+02  0.10000000000E+01 0.  0.
<mgrwt>
<rscale>  0 0.12499942E+03</rscale>
<asrwt>0</asrwt>
<pdfrwt beam="1">  1        4 0.29855581E-01 0.12499942E+03</pdfrwt>
<pdfrwt beam="2">  1       -4 0.30967328E-02 0.12499942E+03</pdfrwt>
<totfact> 0.87797279E+03</totfact>
</mgrwt>
</event>
<event>
 5    1  0.3316206E-002  0.1250115E+03  0.7818608E-02  0.1235051E+00
         -4   -1    0    0    0  501 -0.00000000000E+00  0.00000000000E+00  0.19115259108E+02  0.19157401462E+02  0.12700000000E+01 0.  1.
          4   -1    0    0  501    0  0.00000000000E+00 -0.00000000000E+00 -0.20412079230E+03  0.20412474311E+03  0.12700000000E+01 0.  1.
         25    2    1    2    0    0  0.00000000000E+00  0.00000000000E+00 -0.18500553319E+03  0.22328214457E+03  0.12501147456E+03 0.  0.
    9000005    1    3    3    0    0  0.23089541484E+02  0.39304356771E+02 -0.16137980454E+02  0.48367280265E+02  0.10000000000E+01 0.  0.
    9000005    1    3    3    0    0 -0.23089541484E+02 -0.39304356771E+02 -0.16886755274E+03  0.17491486431E+03  0.10000000000E+01 0.  0.
<mgrwt>
<rscale>  0 0.12501147E+03</rscale>
<asrwt>0</asrwt>
<pdfrwt beam="2">  1        4 0.31406743E-01 0.12501147E+03</pdfrwt>
<pdfrwt beam="1">  1       -4 0.29443549E-02 0.12501147E+03</pdfrwt>
<totfact> 0.86329522E+03</totfact>
</mgrwt>
</event>
<event>
 5    1  0.3316206E-002  0.1249988E+03  0.7818608E-02  0.1235071E+00
         -4   -1    0    0    0  501 -0.00000000000E+00  0.00000000000E+00  0.35245506872E+02  0.35268380381E+02  0.12700000000E+01 0. -1.
          4   -1    0    0  501    0  0.00000000000E+00 -0.00000000000E+00 -0.11076521311E+03  0.11077249359E+03  0.12700000000E+01 0. -1.
         25    2    1    2    0    0  0.00000000000E+00  0.00000000000E+00 -0.75519706237E+02  0.14604087397E+03  0.12499884335E+03 0.  0.
    9000005    1    3    3    0    0 -0.39003048784E+02 -0.20208728424E+02  0.14169406783E+02  0.46167116085E+02  0.10000000000E+01 0.  0.
    9000005    1    3    3    0    0  0.39003048784E+02  0.20208728424E+02 -0.89689113020E+02  0.99873757882E+02  0.10000000000E+01 0.  0.
<mgrwt>
<rscale>  0 0.12499884E+03</rscale>
<asrwt>0</asrwt>
<pdfrwt beam="2">  1        4 0.17043121E-01 0.12499884E+03</pdfrwt>
<pdfrwt beam="1">  1       -4 0.54247053E-02 0.12499884E+03</pdfrwt>
<totfact> 0.10010144E+04</totfact>
</mgrwt>
</event>
<event>
 5    1  0.3316206E-002  0.1250016E+03  0.7818608E-02  0.1235067E+00
          4   -1    0    0  501    0  0.00000000000E+00  0.00000000000E+00  0.31214482543E+02  0.31240307624E+02  0.12700000000E+01 0.  1.
         -4   -1    0    0    0  501 -0.00000000000E+00 -0.00000000000E+00 -0.12506462395E+03  0.12507107205E+03  0.12700000000E+01 0.  1.
         25    2    1    2    0    0  0.00000000000E+00  0.00000000000E+00 -0.93850141408E+02  0.15631137968E+03  0.12500159348E+03 0.  0.
    9000005    1    3    3    0    0 -0.10466154602E+02  0.34914702447E+02 -0.11040159038E+03  0.11626731267E+03  0.10000000000E+01 0.  0.
    9000005    1    3    3    0    0  0.10466154602E+02 -0.34914702447E+02  0.16551448967E+02  0.40044067002E+02  0.10000000000E+01 0.  0.
<mgrwt>
<rscale>  0 0.12500159E+03</rscale>
<asrwt>0</asrwt>
<pdfrwt beam="1">  1        4 0.48047107E-02 0.12500159E+03</pdfrwt>
<pdfrwt beam="2">  1       -4 0.19243194E-01 0.12500159E+03</pdfrwt>
<totfact> 0.98055159E+03</totfact>
</mgrwt>
</event>
<event>
 5    1  0.3316206E-002  0.1250243E+03  0.7818608E-02  0.1235031E+00
         -4   -1    0    0    0  501 -0.00000000000E+00  0.00000000000E+00  0.13794340246E+03  0.13794924858E+03  0.12700000000E+01 0. -1.
          4   -1    0    0  501    0  0.00000000000E+00 -0.00000000000E+00 -0.28308098233E+02  0.28336572226E+02  0.12700000000E+01 0. -1.
         25    2    1    2    0    0  0.00000000000E+00  0.00000000000E+00  0.10963530423E+03  0.16628582081E+03  0.12502429471E+03 0.  0.
    9000005    1    3    3    0    0 -0.62060369599E+01  0.50755709532E+02  0.70085242236E+01  0.51621471857E+02  0.10000000000E+01 0.  0.
    9000005    1    3    3    0    0  0.62060369599E+01 -0.50755709532E+02  0.10262678001E+03  0.11466434895E+03  0.10000000000E+01 0.  0.
<mgrwt>
<rscale>  0 0.12502429E+03</rscale>
<asrwt>0</asrwt>
<pdfrwt beam="2">  1        4 0.43577320E-02 0.12502429E+03</pdfrwt>
<pdfrwt beam="1">  1       -4 0.21224702E-01 0.12502429E+03</pdfrwt>
<totfact> 0.96091984E+03</totfact>
</mgrwt>
</event>
<event>
 5    1  0.3316206E-002  0.1249991E+03  0.7818608E-02  0.1235071E+00
          4   -1    0    0  501    0  0.00000000000E+00  0.00000000000E+00  0.11528155951E+02  0.11597899794E+02  0.12700000000E+01 0.  1.
         -4   -1    0    0    0  501 -0.00000000000E+00 -0.00000000000E+00 -0.33774684230E+03  0.33774923003E+03  0.12700000000E+01 0.  1.
         25    2    1    2    0    0  0.00000000000E+00  0.00000000000E+00 -0.32621868635E+03  0.34934712982E+03  0.12499914316E+03 0.  0.
    9000005    1    3    3    0    0 -0.13292801694E+02 -0.19489323812E+02 -0.32483761223E+03  0.32569465246E+03  0.10000000000E+01 0.  0.
    9000005    1    3    3    0    0  0.13292801694E+02  0.19489323812E+02 -0.13810741155E+01  0.23652477360E+02  0.10000000000E+01 0.  0.
<mgrwt>
<rscale>  0 0.12499914E+03</rscale>
<asrwt>0</asrwt>
<pdfrwt beam="1">  1        4 0.17791113E-02 0.12499914E+03</pdfrwt>
<pdfrwt beam="2">  1       -4 0.51966594E-01 0.12499914E+03</pdfrwt>
<totfact> 0.69797766E+03</totfact>
</mgrwt>
</event>
<event>
 5    1  0.3316206E-002  0.1249990E+03  0.7818608E-02  0.1235071E+00
          4   -1    0    0  501    0  0.00000000000E+00  0.00000000000E+00  0.93861805798E+02  0.93870397292E+02  0.12700000000E+01 0.  1.
         -4   -1    0    0    0  501 -0.00000000000E+00 -0.00000000000E+00 -0.41596204296E+02  0.41615587366E+02  0.12700000000E+01 0.  1.
         25    2    1    2    0    0  0.00000000000E+00  0.00000000000E+00  0.52265601502E+02  0.13548598466E+03  0.12499903575E+03 0.  0.
    9000005    1    3    3    0    0 -0.59623309194E+02  0.12621204685E+02  0.11154785061E+02  0.61965014619E+02  0.10000000000E+01 0.  0.
    9000005    1    3    3    0    0  0.59623309194E+02 -0.12621204685E+02  0.41110816441E+02  0.73520970039E+02  0.10000000000E+01 0.  0.
<mgrwt>
<rscale>  0 0.12499904E+03</rscale>
<asrwt>0</asrwt>
<pdfrwt beam="1">  1        4 0.14442430E-01 0.12499904E+03</pdfrwt>
<pdfrwt beam="2">  1       -4 0.64015680E-02 0.12499904E+03</pdfrwt>
<totfact> 0.10228060E+04</totfact>
</mgrwt>
</event>
<event>
 5    1  0.3316206E-002  0.1249842E+03  0.7818608E-02  0.1235094E+00
          4   -1    0    0  501    0  0.00000000000E+00  0.00000000000E+00  0.81693976817E+01  0.82675243260E+01  0.12700000000E+01 0. -1.
         -4   -1    0    0    0  501 -0.00000000000E+00 -0.00000000000E+00 -0.47508255560E+03  0.47508425309E+03  0.12700000000E+01 0. -1.
         25    2    1    2    0    0  0.00000000000E+00  0.00000000000E+00 -0.46691315792E+03  0.48335177742E+03  0.12498417378E+03 0.  0.
    9000005    1    3    3    0    0 -0.47508585789E+02 -0.38734705857E+02 -0.18659708474E+03  0.19641006898E+03  0.10000000000E+01 0.  0.
    9000005    1    3    3    0    0  0.47508585789E+02  0.38734705857E+02 -0.28031607318E+03  0.28694170844E+03  0.10000000000E+01 0.  0.
<mgrwt>
<rscale>  0 0.12498417E+03</rscale>
<asrwt>0</asrwt>
<pdfrwt beam="1">  1        4 0.12645096E-02 0.12498417E+03</pdfrwt>
<pdfrwt beam="2">  1       -4 0.73097281E-01 0.12498417E+03</pdfrwt>
<totfact> 0.57199526E+03</totfact>
</mgrwt>
</event>
<event>
 5    1  0.3316206E-002  0.1249973E+03  0.7818608E-02  0.1235073E+00
         -4   -1    0    0    0  501 -0.00000000000E+00  0.00000000000E+00  0.19611604978E+02  0.19652683018E+02  0.12700000000E+01 0. -1.
          4   -1    0    0  501    0  0.00000000000E+00 -0.00000000000E+00 -0.19892050902E+03  0.19892456311E+03  0.12700000000E+01 0. -1.
         25    2    1    2    0    0  0.00000000000E+00  0.00000000000E+00 -0.17930890405E+03  0.21857724613E+03  0.12499731780E+03 0.  0.
    9000005    1    3    3    0    0  0.55104577692E+02  0.23709121383E+02 -0.12026568630E+03  0.13440041748E+03  0.10000000000E+01 0.  0.
    9000005    1    3    3    0    0 -0.55104577692E+02 -0.23709121383E+02 -0.59043217748E+02  0.84176828649E+02  0.10000000000E+01 0.  0.
<mgrwt>
<rscale>  0 0.12499732E+03</rscale>
<asrwt>0</asrwt>
<pdfrwt beam="2">  1        4 0.30606626E-01 0.12499732E+03</pdfrwt>
<pdfrwt beam="1">  1       -4 0.30206418E-02 0.12499732E+03</pdfrwt>
<totfact> 0.87099203E+03</totfact>
</mgrwt>
</event>
<event>
 5    1  0.3316206E-002  0.1250017E+03  0.7818608E-02  0.1235067E+00
         -4   -1    0    0    0  501 -0.00000000000E+00  0.00000000000E+00  0.48770901757E+03  0.48771067111E+03  0.12700000000E+01 0.  1.
          4   -1    0    0  501    0  0.00000000000E+00 -0.00000000000E+00 -0.79575856009E+01  0.80582919155E+01  0.12700000000E+01 0.  1.
         25    2    1    2    0    0  0.00000000000E+00  0.00000000000E+00  0.47975143197E+03  0.49576896303E+03  0.12500171290E+03 0.  0.
    9000005    1    3    3    0    0 -0.12128886771E+02 -0.60766643955E+02  0.27201386822E+03  0.27898429958E+03  0.10000000000E+01 0.  0.
    9000005    1    3    3    0    0  0.12128886771E+02  0.60766643955E+02  0.20773756375E+03  0.21678466344E+03  0.10000000000E+01 0.  0.
<mgrwt>
<rscale>  0 0.12500171E+03</rscale>
<asrwt>0</asrwt>
<pdfrwt beam="2">  1        4 0.12321171E-02 0.12500171E+03</pdfrwt>
<pdfrwt beam="1">  1       -4 0.75040072E-01 0.12500171E+03</pdfrwt>
<totfact> 0.56192005E+03</totfact>
</mgrwt>
</event>
<event>
 5    1  0.3316206E-002  0.1249977E+03  0.7818608E-02  0.1235073E+00
          4   -1    0    0  501    0  0.00000000000E+00  0.00000000000E+00  0.73778680998E+02  0.73789610853E+02  0.12700000000E+01 0.  1.
         -4   -1    0    0    0  501 -0.00000000000E+00 -0.00000000000E+00 -0.52921128909E+02  0.52936365430E+02  0.12700000000E+01 0.  1.
         25    2    1    2    0    0  0.00000000000E+00  0.00000000000E+00  0.20857552089E+02  0.12672597628E+03  0.12499774232E+03 0.  0.
    9000005    1    3    3    0    0  0.29563420183E+02 -0.86235801774E+01  0.65556562592E+02  0.72436350314E+02  0.10000000000E+01 0.  0.
    9000005    1    3    3    0    0 -0.29563420183E+02  0.86235801774E+01 -0.44699010502E+02  0.54289625969E+02  0.10000000000E+01 0.  0.
<mgrwt>
<rscale>  0 0.12499774E+03</rscale>
<asrwt>0</asrwt>
<pdfrwt beam="1">  1        4 0.11352579E-01 0.12499774E+03</pdfrwt>
<pdfrwt beam="2">  1       -4 0.81437250E-02 0.12499774E+03</pdfrwt>
<totfact> 0.10415635E+04</totfact>
</mgrwt>
</event>
<event>
 5    1  0.3316206E-002  0.1249986E+03  0.7818608E-02  0.1235072E+00
          4   -1    0    0  501    0  0.00000000000E+00  0.00000000000E+00  0.93423056131E+03  0.93423142453E+03  0.12700000000E+01 0.  1.
         -4   -1    0    0    0  501 -0.00000000000E+00 -0.00000000000E+00 -0.40838280033E+01  0.42767453935E+01  0.12700000000E+01 0.  1.
         25    2    1    2    0    0  0.00000000000E+00  0.00000000000E+00  0.93014673331E+03  0.93850816993E+03  0.12499855815E+03 0.  0.
    9000005    1    3    3    0    0  0.56638632173E+02 -0.19284905700E+02  0.60049463037E+03  0.60346884207E+03  0.10000000000E+01 0.  0.
    9000005    1    3    3    0    0 -0.56638632173E+02  0.19284905700E+02  0.32965210293E+03  0.33503932786E+03  0.10000000000E+01 0.  0.
<mgrwt>
<rscale>  0 0.12499856E+03</rscale>
<asrwt>0</asrwt>
<pdfrwt beam="1">  1        4 0.14374254E+00 0.12499856E+03</pdfrwt>
<pdfrwt beam="2">  1       -4 0.64318808E-03 0.12499856E+03</pdfrwt>
<totfact> 0.32728587E+03</totfact>
</mgrwt>
</event>
<event>
 5    1  0.3316206E-002  0.1249981E+03  0.7818608E-02  0.1235072E+00
          4   -1    0    0  501    0  0.00000000000E+00  0.00000000000E+00  0.17111714789E+02  0.17158778600E+02  0.12700000000E+01 0. -1.
         -4   -1    0    0    0  501 -0.00000000000E+00 -0.00000000000E+00 -0.22790998817E+03  0.22791352660E+03  0.12700000000E+01 0. -1.
         25    2    1    2    0    0  0.00000000000E+00  0.00000000000E+00 -0.21079827338E+03  0.24507230520E+03  0.12499809085E+03 0.  0.
    9000005    1    3    3    0    0 -0.29241598165E+02 -0.44499595875E+02 -0.41270588959E+02  0.67376157573E+02  0.10000000000E+01 0.  0.
    9000005    1    3    3    0    0  0.29241598165E+02  0.44499595875E+02 -0.16952768442E+03  0.17769614763E+03  0.10000000000E+01 0.  0.
<mgrwt>
<rscale>  0 0.12499809E+03</rscale>
<asrwt>0</asrwt>
<pdfrwt beam="1">  1        4 0.26364641E-02 0.12499809E+03</pdfrwt>
<pdfrwt beam="2">  1       -4 0.35066965E-01 0.12499809E+03</pdfrwt>
<totfact> 0.83051224E+03</totfact>
</mgrwt>
</event>
<event>
 5    1  0.3316206E-002  0.1249994E+03  0.7818608E-02  0.1235070E+00
          4   -1    0    0  501    0  0.00000000000E+00  0.00000000000E+00  0.21178461290E+02  0.21216505900E+02  0.12700000000E+01 0. -1.
         -4   -1    0    0    0  501 -0.00000000000E+00 -0.00000000000E+00 -0.18423695628E+03  0.18424133347E+03  0.12700000000E+01 0. -1.
         25    2    1    2    0    0  0.00000000000E+00  0.00000000000E+00 -0.16305849499E+03  0.20545783937E+03  0.12499940388E+03 0.  0.
    9000005    1    3    3    0    0 -0.30042478099E+01 -0.62278060310E+02 -0.88430793254E+02  0.10820622670E+03  0.10000000000E+01 0.  0.
    9000005    1    3    3    0    0  0.30042478099E+01  0.62278060310E+02 -0.74627701733E+02  0.97251612670E+02  0.10000000000E+01 0.  0.
<mgrwt>
<rscale>  0 0.12499940E+03</rscale>
<asrwt>0</asrwt>
<pdfrwt beam="1">  1        4 0.32614882E-02 0.12499940E+03</pdfrwt>
<pdfrwt beam="2">  1       -4 0.28347409E-01 0.12499940E+03</pdfrwt>
<totfact> 0.89224280E+03</totfact>
</mgrwt>
</event>
<event>
 5    1  0.3316206E-002  0.1250010E+03  0.7818608E-02  0.1235068E+00
         -4   -1    0    0    0  501 -0.00000000000E+00  0.00000000000E+00  0.12082307104E+03  0.12082974549E+03  0.12700000000E+01 0.  1.
          4   -1    0    0  501    0  0.00000000000E+00 -0.00000000000E+00 -0.32310804417E+02  0.32335753928E+02  0.12700000000E+01 0.  1.
         25    2    1    2    0    0  0.00000000000E+00  0.00000000000E+00  0.88512266622E+02  0.15316549942E+03  0.12500099547E+03 0.  0.
    9000005    1    3    3    0    0  0.18787826353E+02 -0.59063064470E+02  0.34462490586E+02  0.70923136289E+02  0.10000000000E+01 0.  0.
    9000005    1    3    3    0    0 -0.18787826353E+02  0.59063064470E+02  0.54049776036E+02  0.82242363130E+02  0.10000000000E+01 0.  0.
<mgrwt>
<rscale>  0 0.12500100E+03</rscale>
<asrwt>0</asrwt>
<pdfrwt beam="2">  1        4 0.49733255E-02 0.12500100E+03</pdfrwt>
<pdfrwt beam="1">  1       -4 0.18590598E-01 0.12500100E+03</pdfrwt>
<totfact> 0.98674194E+03</totfact>
</mgrwt>
</event>
<event>
 5    1  0.3316206E-002  0.1249967E+03  0.7818608E-02  0.1235074E+00
         -4   -1    0    0    0  501 -0.00000000000E+00  0.00000000000E+00  0.79554472961E+01  0.80561803406E+01  0.12700000000E+01 0. -1.
          4   -1    0    0  501    0  0.00000000000E+00 -0.00000000000E+00 -0.48779962807E+03  0.48780128130E+03  0.12700000000E+01 0. -1.
         25    2    1    2    0    0  0.00000000000E+00  0.00000000000E+00 -0.47984418077E+03  0.49585746164E+03  0.12499673776E+03 0.  0.
    9000005    1    3    3    0    0 -0.33505398945E+02  0.42880423356E+02 -0.36178624802E+03  0.36585739260E+03  0.10000000000E+01 0.  0.
    9000005    1    3    3    0    0  0.33505398945E+02 -0.42880423356E+02 -0.11805793275E+03  0.13000006904E+03  0.10000000000E+01 0.  0.
<mgrwt>
<rscale>  0 0.12499674E+03</rscale>
<asrwt>0</asrwt>
<pdfrwt beam="2">  1        4 0.75053949E-01 0.12499674E+03</pdfrwt>
<pdfrwt beam="1">  1       -4 0.12317912E-02 0.12499674E+03</pdfrwt>
<totfact> 0.56191256E+03</totfact>
</mgrwt>
</event>
<event>
 5    1  0.3316206E-002  0.1249994E+03  0.7818608E-02  0.1235070E+00
          4   -1    0    0  501    0  0.00000000000E+00  0.00000000000E+00  0.29417340599E+02  0.29444741940E+02  0.12700000000E+01 0. -1.
         -4   -1    0    0    0  501 -0.00000000000E+00 -0.00000000000E+00 -0.13269380485E+03  0.13269988224E+03  0.12700000000E+01 0. -1.
         25    2    1    2    0    0  0.00000000000E+00  0.00000000000E+00 -0.10327646425E+03  0.16214462418E+03  0.12499940432E+03 0.  0.
    9000005    1    3    3    0    0 -0.33947878036E+02 -0.50993749692E+02 -0.35625130245E+02  0.70872920328E+02  0.10000000000E+01 0.  0.
    9000005    1    3    3    0    0  0.33947878036E+02  0.50993749692E+02 -0.67651334007E+02  0.91271703850E+02  0.10000000000E+01 0.  0.
<mgrwt>
<rscale>  0 0.12499940E+03</rscale>
<asrwt>0</asrwt>
<pdfrwt beam="1">  1        4 0.45283201E-02 0.12499940E+03</pdfrwt>
<pdfrwt beam="2">  1       -4 0.20417006E-01 0.12499940E+03</pdfrwt>
<totfact> 0.96932202E+03</totfact>
</mgrwt>
</event>
<event>
 5    1  0.3316206E-002  0.1250053E+03  0.7818608E-02  0.1235061E+00
         -4   -1    0    0    0  501 -0.00000000000E+00  0.00000000000E+00  0.64117433146E+03  0.64117558922E+03  0.12700000000E+01 0. -1.
          4   -1    0    0  501    0  0.00000000000E+00 -0.00000000000E+00 -0.60253963417E+01  0.61577837794E+01  0.12700000000E+01 0. -1.
         25    2    1    2    0    0  0.00000000000E+00  0.00000000000E+00  0.63514893511E+03  0.64733337300E+03  0.12500530400E+03 0.  0.
    9000005    1    3    3    0    0  0.34317169979E+02 -0.51742519410E+02  0.35441977911E+03  0.35981847687E+03  0.10000000000E+01 0.  0.
    9000005    1    3    3    0    0 -0.34317169979E+02  0.51742519410E+02  0.28072915600E+03  0.28751489614E+03  0.10000000000E+01 0.  0.
<mgrwt>
<rscale>  0 0.12500530E+03</rscale>
<asrwt>0</asrwt>
<pdfrwt beam="2">  1        4 0.93726400E-03 0.12500530E+03</pdfrwt>
<pdfrwt beam="1">  1       -4 0.98652533E-01 0.12500530E+03</pdfrwt>
<totfact> 0.46004392E+03</totfact>
</mgrwt>
</event>
<event>
 5    1  0.3316206E-002  0.1250010E+03  0.7818608E-02  0.1235068E+00
         -4   -1    0    0    0  501 -0.00000000000E+00  0.00000000000E+00  0.85550120584E+02  0.85559546702E+02  0.12700000000E+01 0.  1.
          4   -1    0    0  501    0  0.00000000000E+00 -0.00000000000E+00 -0.45640291365E+02  0.45657957640E+02  0.12700000000E+01 0.  1.
         25    2    1    2    0    0  0.00000000000E+00  0.00000000000E+00  0.39909829219E+02  0.13121750434E+03  0.12500095591E+03 0.  0.
    9000005    1    3    3    0    0  0.25760103780E+02 -0.56861950765E+02  0.23005529162E+02  0.66536597175E+02  0.10000000000E+01 0.  0.
    9000005    1    3    3    0    0 -0.25760103780E+02  0.56861950765E+02  0.16904300056E+02  0.64680907167E+02  0.10000000000E+01 0.  0.
<mgrwt>
<rscale>  0 0.12500096E+03</rscale>
<asrwt>0</asrwt>
<pdfrwt beam="2">  1        4 0.70236674E-02 0.12500096E+03</pdfrwt>
<pdfrwt beam="1">  1       -4 0.13163641E-01 0.12500096E+03</pdfrwt>
<totfact> 0.10318206E+04</totfact>
</mgrwt>
</event>
<event>
 5    1  0.3316206E-002  0.1249994E+03  0.7818608E-02  0.1235070E+00
         -4   -1    0    0    0  501 -0.00000000000E+00  0.00000000000E+00  0.45724776921E+02  0.45742410567E+02  0.12700000000E+01 0.  1.
          4   -1    0    0  501    0  0.00000000000E+00 -0.00000000000E+00 -0.85389971014E+02  0.85399414809E+02  0.12700000000E+01 0.  1.
         25    2    1    2    0    0  0.00000000000E+00  0.00000000000E+00 -0.39665194093E+02  0.13114182538E+03  0.12499940296E+03 0.  0.
    9000005    1    3    3    0    0 -0.12053993418E+02  0.55533386165E+02 -0.47109358407E+02  0.73821049747E+02  0.10000000000E+01 0.  0.
    9000005    1    3    3    0    0  0.12053993418E+02 -0.55533386165E+02  0.74441643140E+01  0.57320775628E+02  0.10000000000E+01 0.  0.
<mgrwt>
<rscale>  0 0.12499940E+03</rscale>
<asrwt>0</asrwt>
<pdfrwt beam="2">  1        4 0.13139002E-01 0.12499940E+03</pdfrwt>
<pdfrwt beam="1">  1       -4 0.70366639E-02 0.12499940E+03</pdfrwt>
<totfact> 0.10320189E+04</totfact>
</mgrwt>
</event>
<event>
 5    1  0.3316206E-002  0.1250030E+03  0.7818608E-02  0.1235065E+00
         -4   -1    0    0    0  501 -0.00000000000E+00  0.00000000000E+00  0.18772736054E+02  0.18815645590E+02  0.12700000000E+01 0. -1.
          4   -1    0    0  501    0  0.00000000000E+00 -0.00000000000E+00 -0.20780849910E+03  0.20781237980E+03  0.12700000000E+01 0. -1.
         25    2    1    2    0    0  0.00000000000E+00  0.00000000000E+00 -0.18903576305E+03  0.22662802539E+03  0.12500296869E+03 0.  0.
    9000005    1    3    3    0    0  0.64599456679E+00  0.57015551659E+02 -0.48145059175E+02  0.74633351545E+02  0.10000000000E+01 0.  0.
    9000005    1    3    3    0    0 -0.64599456679E+00 -0.57015551659E+02 -0.14089070387E+03  0.15199467385E+03  0.10000000000E+01 0.  0.
<mgrwt>
<rscale>  0 0.12500297E+03</rscale>
<asrwt>0</asrwt>
<pdfrwt beam="2">  1        4 0.31974136E-01 0.12500297E+03</pdfrwt>
<pdfrwt beam="1">  1       -4 0.28917126E-02 0.12500297E+03</pdfrwt>
<totfact> 0.85824385E+03</totfact>
</mgrwt>
</event>
<event>
 5    1  0.3316206E-002  0.1249999E+03  0.7818608E-02  0.1235070E+00
         -4   -1    0    0    0  501 -0.00000000000E+00  0.00000000000E+00  0.29697097755E+02  0.29724241202E+02  0.12700000000E+01 0.  1.
          4   -1    0    0  501    0  0.00000000000E+00 -0.00000000000E+00 -0.13144581068E+03  0.13145194577E+03  0.12700000000E+01 0.  1.
         25    2    1    2    0    0  0.00000000000E+00  0.00000000000E+00 -0.10174871293E+03  0.16117618697E+03  0.12499985065E+03 0.  0.
    9000005    1    3    3    0    0  0.56989057606E+02  0.82467666950E+01 -0.82180205392E+02  0.10035112359E+03  0.10000000000E+01 0.  0.
    9000005    1    3    3    0    0 -0.56989057606E+02 -0.82467666950E+01 -0.19568507535E+02  0.60825063377E+02  0.10000000000E+01 0.  0.
<mgrwt>
<rscale>  0 0.12499985E+03</rscale>
<asrwt>0</asrwt>
<pdfrwt beam="2">  1        4 0.20224992E-01 0.12499985E+03</pdfrwt>
<pdfrwt beam="1">  1       -4 0.45713442E-02 0.12499985E+03</pdfrwt>
<totfact> 0.97116830E+03</totfact>
</mgrwt>
</event>
<event>
 5    1  0.3316206E-002  0.1249958E+03  0.7818608E-02  0.1235076E+00
         -4   -1    0    0    0  501 -0.00000000000E+00  0.00000000000E+00  0.13303296323E+02  0.13363779145E+02  0.12700000000E+01 0.  1.
          4   -1    0    0  501    0  0.00000000000E+00 -0.00000000000E+00 -0.29288268176E+03  0.29288543524E+03  0.12700000000E+01 0.  1.
         25    2    1    2    0    0  0.00000000000E+00  0.00000000000E+00 -0.27957938544E+03  0.30624921438E+03  0.12499579413E+03 0.  0.
    9000005    1    3    3    0    0  0.28145741533E+02 -0.13667127004E+02 -0.72585984350E+01  0.32135033502E+02  0.10000000000E+01 0.  0.
    9000005    1    3    3    0    0 -0.28145741533E+02  0.13667127004E+02 -0.27232078700E+03  0.27411418088E+03  0.10000000000E+01 0.  0.
<mgrwt>
<rscale>  0 0.12499579E+03</rscale>
<asrwt>0</asrwt>
<pdfrwt beam="2">  1        4 0.45063734E-01 0.12499579E+03</pdfrwt>
<pdfrwt beam="1">  1       -4 0.20515255E-02 0.12499579E+03</pdfrwt>
<totfact> 0.74828562E+03</totfact>
</mgrwt>
</event>
<event>
 5    1  0.3316206E-002  0.1250002E+03  0.7818608E-02  0.1235069E+00
         -4   -1    0    0    0  501 -0.00000000000E+00  0.00000000000E+00  0.11573985524E+03  0.11574682281E+03  0.12700000000E+01 0. -1.
          4   -1    0    0  501    0  0.00000000000E+00 -0.00000000000E+00 -0.33730414379E+02  0.33754314601E+02  0.12700000000E+01 0. -1.
         25    2    1    2    0    0  0.00000000000E+00  0.00000000000E+00  0.82009440856E+02  0.14950113741E+03  0.12500016679E+03 0.  0.
    9000005    1    3    3    0    0  0.55697726567E+02  0.16909868717E+02  0.13808235107E+02  0.59831829000E+02  0.10000000000E+01 0.  0.
    9000005    1    3    3    0    0 -0.55697726567E+02 -0.16909868717E+02  0.68201205749E+02  0.89669308408E+02  0.10000000000E+01 0.  0.
<mgrwt>
<rscale>  0 0.12500017E+03</rscale>
<asrwt>0</asrwt>
<pdfrwt beam="2">  1        4 0.51916691E-02 0.12500017E+03</pdfrwt>
<pdfrwt beam="1">  1       -4 0.17808506E-01 0.12500017E+03</pdfrwt>
<totfact> 0.99402859E+03</totfact>
</mgrwt>
</event>
<event>
 5    1  0.3316206E-002  0.1249989E+03  0.7818608E-02  0.1235071E+00
          4   -1    0    0  501    0  0.00000000000E+00  0.00000000000E+00  0.58473222498E+03  0.58473360416E+03  0.12700000000E+01 0.  1.
         -4   -1    0    0    0  501 -0.00000000000E+00 -0.00000000000E+00 -0.66185349547E+01  0.67392807440E+01  0.12700000000E+01 0.  1.
         25    2    1    2    0    0  0.00000000000E+00  0.00000000000E+00  0.57811369002E+03  0.59147288490E+03  0.12499893991E+03 0.  0.
    9000005    1    3    3    0    0 -0.35011433147E+02  0.19703905814E+02  0.51554957471E+03  0.51711353525E+03  0.10000000000E+01 0.  0.
    9000005    1    3    3    0    0  0.35011433147E+02 -0.19703905814E+02  0.62564115319E+02  0.74359349654E+02  0.10000000000E+01 0.  0.
<mgrwt>
<rscale>  0 0.12499894E+03</rscale>
<asrwt>0</asrwt>
<pdfrwt beam="1">  1        4 0.89968223E-01 0.12499894E+03</pdfrwt>
<pdfrwt beam="2">  1       -4 0.10276301E-02 0.12499894E+03</pdfrwt>
<totfact> 0.49411467E+03</totfact>
</mgrwt>
</event>
<event>
 5    1  0.3316206E-002  0.1249977E+03  0.7818608E-02  0.1235073E+00
          4   -1    0    0  501    0  0.00000000000E+00  0.00000000000E+00  0.15853184509E+01  0.20312888989E+01  0.12700000000E+01 0. -1.
         -4   -1    0    0    0  501 -0.00000000000E+00 -0.00000000000E+00 -0.21596477414E+04  0.21596481148E+04  0.12700000000E+01 0. -1.
         25    2    1    2    0    0  0.00000000000E+00  0.00000000000E+00 -0.21580624230E+04  0.21616794037E+04  0.12499769240E+03 0.  0.
    9000005    1    3    3    0    0  0.28972181066E+02 -0.55363023642E+02 -0.10930179367E+04  0.10948030241E+04  0.10000000000E+01 0.  0.
    9000005    1    3    3    0    0 -0.28972181066E+02  0.55363023642E+02 -0.10650444863E+04  0.10668763797E+04  0.10000000000E+01 0.  0.
<mgrwt>
<rscale>  0 0.12499769E+03</rscale>
<asrwt>0</asrwt>
<pdfrwt beam="1">  1        4 0.27823102E-03 0.12499769E+03</pdfrwt>
<pdfrwt beam="2">  1       -4 0.33228577E+00 0.12499769E+03</pdfrwt>
<totfact> 0.78963524E+02</totfact>
</mgrwt>
</event>
<event>
 5    1  0.3316206E-002  0.1249611E+03  0.7818608E-02  0.1235130E+00
          4   -1    0    0  501    0  0.00000000000E+00  0.00000000000E+00  0.28216384405E+03  0.28216670213E+03  0.12700000000E+01 0. -1.
         -4   -1    0    0    0  501 -0.00000000000E+00 -0.00000000000E+00 -0.13803204499E+02  0.13861506211E+02  0.12700000000E+01 0. -1.
         25    2    1    2    0    0  0.00000000000E+00  0.00000000000E+00  0.26836063955E+03  0.29602820834E+03  0.12496106302E+03 0.  0.
    9000005    1    3    3    0    0 -0.28820682636E+02 -0.43782402745E+02  0.53660425948E+02  0.75019809722E+02  0.10000000000E+01 0.  0.
    9000005    1    3    3    0    0  0.28820682636E+02  0.43782402745E+02  0.21470021360E+03  0.22100839862E+03  0.10000000000E+01 0.  0.
<mgrwt>
<rscale>  0 0.12496106E+03</rscale>
<asrwt>0</asrwt>
<pdfrwt beam="1">  1        4 0.43414525E-01 0.12496106E+03</pdfrwt>
<pdfrwt beam="2">  1       -4 0.21282746E-02 0.12496106E+03</pdfrwt>
<totfact> 0.76165601E+03</totfact>
</mgrwt>
</event>
<event>
 5    1  0.3316206E-002  0.1250009E+03  0.7818608E-02  0.1235068E+00
         -4   -1    0    0    0  501 -0.00000000000E+00  0.00000000000E+00  0.10902534683E+02  0.10976254484E+02  0.12700000000E+01 0. -1.
          4   -1    0    0  501    0  0.00000000000E+00 -0.00000000000E+00 -0.35701113519E+03  0.35701339408E+03  0.12700000000E+01 0. -1.
         25    2    1    2    0    0  0.00000000000E+00  0.00000000000E+00 -0.34610860051E+03  0.36798964856E+03  0.12500087241E+03 0.  0.
    9000005    1    3    3    0    0  0.45545363975E+02  0.11354614288E+02 -0.51603057358E+02  0.69765198874E+02  0.10000000000E+01 0.  0.
    9000005    1    3    3    0    0 -0.45545363975E+02 -0.11354614288E+02 -0.29450554315E+03  0.29822444969E+03  0.10000000000E+01 0.  0.
<mgrwt>
<rscale>  0 0.12500087E+03</rscale>
<asrwt>0</asrwt>
<pdfrwt beam="2">  1        4 0.54930626E-01 0.12500087E+03</pdfrwt>
<pdfrwt beam="1">  1       -4 0.16831578E-02 0.12500087E+03</pdfrwt>
<totfact> 0.67788479E+03</totfact>
</mgrwt>
</event>
<event>
 5    1  0.3316206E-002  0.1250003E+03  0.7818608E-02  0.1235069E+00
          4   -1    0    0  501    0  0.00000000000E+00  0.00000000000E+00  0.10843207699E+02  0.10917328116E+02  0.12700000000E+01 0.  1.
         -4   -1    0    0    0  501 -0.00000000000E+00 -0.00000000000E+00 -0.35894803464E+03  0.35895028133E+03  0.12700000000E+01 0.  1.
         25    2    1    2    0    0  0.00000000000E+00  0.00000000000E+00 -0.34810482694E+03  0.36986760945E+03  0.12500031193E+03 0.  0.
    9000005    1    3    3    0    0 -0.47215308059E+02  0.20336952818E+02 -0.68921022210E+02  0.85988279826E+02  0.10000000000E+01 0.  0.
    9000005    1    3    3    0    0  0.47215308059E+02 -0.20336952818E+02 -0.27918380473E+03  0.28387932962E+03  0.10000000000E+01 0.  0.
<mgrwt>
<rscale>  0 0.12500031E+03</rscale>
<asrwt>0</asrwt>
<pdfrwt beam="1">  1        4 0.16740605E-02 0.12500031E+03</pdfrwt>
<pdfrwt beam="2">  1       -4 0.55228640E-01 0.12500031E+03</pdfrwt>
<totfact> 0.67592328E+03</totfact>
</mgrwt>
</event>
<event>
 5    1  0.3316206E-002  0.1250015E+03  0.7818608E-02  0.1235067E+00
         -4   -1    0    0    0  501 -0.00000000000E+00  0.00000000000E+00  0.21241758393E+02  0.21279689839E+02  0.12700000000E+01 0.  1.
          4   -1    0    0  501    0  0.00000000000E+00 -0.00000000000E+00 -0.18369495272E+03  0.18369934283E+03  0.12700000000E+01 0.  1.
         25    2    1    2    0    0  0.00000000000E+00  0.00000000000E+00 -0.16245319433E+03  0.20497903266E+03  0.12500145393E+03 0.  0.
    9000005    1    3    3    0    0  0.51790877837E+02  0.14588586045E+02 -0.29106869073E+02  0.61182772879E+02  0.10000000000E+01 0.  0.
    9000005    1    3    3    0    0 -0.51790877837E+02 -0.14588586045E+02 -0.13334632525E+03  0.14379625979E+03  0.10000000000E+01 0.  0.
<mgrwt>
<rscale>  0 0.12500145E+03</rscale>
<asrwt>0</asrwt>
<pdfrwt beam="2">  1        4 0.28264016E-01 0.12500145E+03</pdfrwt>
<pdfrwt beam="1">  1       -4 0.32712185E-02 0.12500145E+03</pdfrwt>
<totfact> 0.89299589E+03</totfact>
</mgrwt>
</event>
<event>
 5    1  0.3316206E-002  0.1249993E+03  0.7818608E-02  0.1235070E+00
         -4   -1    0    0    0  501 -0.00000000000E+00  0.00000000000E+00  0.43492575824E+01  0.45308874978E+01  0.12700000000E+01 0.  1.
          4   -1    0    0  501    0  0.00000000000E+00 -0.00000000000E+00 -0.87957930148E+03  0.87958021834E+03  0.12700000000E+01 0.  1.
         25    2    1    2    0    0  0.00000000000E+00  0.00000000000E+00 -0.87523004390E+03  0.88411110584E+03  0.12499927088E+03 0.  0.
    9000005    1    3    3    0    0 -0.22228578683E+02  0.27947307534E+02 -0.80034276011E+03  0.80113962289E+03  0.10000000000E+01 0.  0.
    9000005    1    3    3    0    0  0.22228578683E+02 -0.27947307534E+02 -0.74887283788E+02  0.82971482943E+02  0.10000000000E+01 0.  0.
<mgrwt>
<rscale>  0 0.12499927E+03</rscale>
<asrwt>0</asrwt>
<pdfrwt beam="2">  1        4 0.13533380E+00 0.12499927E+03</pdfrwt>
<pdfrwt beam="1">  1       -4 0.68315931E-03 0.12499927E+03</pdfrwt>
<totfact> 0.34771220E+03</totfact>
</mgrwt>
</event>
<event>
 5    1  0.3316206E-002  0.1249966E+03  0.7818608E-02  0.1235075E+00
         -4   -1    0    0    0  501 -0.00000000000E+00  0.00000000000E+00  0.37734658802E+02  0.37756024352E+02  0.12700000000E+01 0.  1.
          4   -1    0    0  501    0  0.00000000000E+00 -0.00000000000E+00 -0.10345869965E+03  0.10346649425E+03  0.12700000000E+01 0.  1.
         25    2    1    2    0    0  0.00000000000E+00  0.00000000000E+00 -0.65724040847E+02  0.14122251860E+03  0.12499660082E+03 0.  0.
    9000005    1    3    3    0    0 -0.27615089354E+02 -0.44956299307E+02 -0.70695935996E+02  0.88218917324E+02  0.10000000000E+01 0.  0.
    9000005    1    3    3    0    0  0.27615089354E+02  0.44956299307E+02  0.49718951498E+01  0.53003601281E+02  0.10000000000E+01 0.  0.
<mgrwt>
<rscale>  0 0.12499660E+03</rscale>
<asrwt>0</asrwt>
<pdfrwt beam="2">  1        4 0.15918966E-01 0.12499660E+03</pdfrwt>
<pdfrwt beam="1">  1       -4 0.58075753E-02 0.12499660E+03</pdfrwt>
<totfact> 0.10109085E+04</totfact>
</mgrwt>
</event>
<event>
 5    1  0.3316206E-002  0.1250098E+03  0.7818608E-02  0.1235054E+00
          4   -1    0    0  501    0  0.00000000000E+00  0.00000000000E+00  0.14504123228E+03  0.14504679232E+03  0.12700000000E+01 0.  1.
         -4   -1    0    0    0  501 -0.00000000000E+00 -0.00000000000E+00 -0.26915188904E+02  0.26945134881E+02  0.12700000000E+01 0.  1.
         25    2    1    2    0    0  0.00000000000E+00  0.00000000000E+00  0.11812604338E+03  0.17199192720E+03  0.12500984320E+03 0.  0.
    9000005    1    3    3    0    0 -0.51326410025E+02 -0.35549783820E+02  0.62875261683E+02  0.88614254087E+02  0.10000000000E+01 0.  0.
    9000005    1    3    3    0    0  0.51326410025E+02  0.35549783820E+02  0.55250781696E+02  0.83377673113E+02  0.10000000000E+01 0.  0.
<mgrwt>
<rscale>  0 0.12500984E+03</rscale>
<asrwt>0</asrwt>
<pdfrwt beam="1">  1        4 0.22316767E-01 0.12500984E+03</pdfrwt>
<pdfrwt beam="2">  1       -4 0.41435296E-02 0.12500984E+03</pdfrwt>
<totfact> 0.95057669E+03</totfact>
</mgrwt>
</event>
<event>
 5    1  0.3316206E-002  0.1249977E+03  0.7818608E-02  0.1235073E+00
         -4   -1    0    0    0  501 -0.00000000000E+00  0.00000000000E+00  0.14576236965E+03  0.14576790218E+03  0.12700000000E+01 0.  1.
          4   -1    0    0  501    0  0.00000000000E+00 -0.00000000000E+00 -0.26776659466E+02  0.26806760195E+02  0.12700000000E+01 0.  1.
         25    2    1    2    0    0  0.00000000000E+00  0.00000000000E+00  0.11898571019E+03  0.17257466238E+03  0.12499765944E+03 0.  0.
    9000005    1    3    3    0    0 -0.51162902572E+02 -0.31354932357E+02  0.83577877746E+02  0.10289332355E+03  0.10000000000E+01 0.  0.
    9000005    1    3    3    0    0  0.51162902572E+02  0.31354932357E+02  0.35407832442E+02  0.69681338828E+02  0.10000000000E+01 0.  0.
<mgrwt>
<rscale>  0 0.12499766E+03</rscale>
<asrwt>0</asrwt>
<pdfrwt beam="2">  1        4 0.41222270E-02 0.12499766E+03</pdfrwt>
<pdfrwt beam="1">  1       -4 0.22427721E-01 0.12499766E+03</pdfrwt>
<totfact> 0.94975909E+03</totfact>
</mgrwt>
</event>
<event>
 5    1  0.3316206E-002  0.1250013E+03  0.7818608E-02  0.1235067E+00
         -4   -1    0    0    0  501 -0.00000000000E+00  0.00000000000E+00  0.36268779580E+01  0.38428041483E+01  0.12700000000E+01 0. -1.
          4   -1    0    0  501    0  0.00000000000E+00 -0.00000000000E+00 -0.10456998923E+04  0.10457006635E+04  0.12700000000E+01 0. -1.
         25    2    1    2    0    0  0.00000000000E+00  0.00000000000E+00 -0.10420730143E+04  0.10495434676E+04  0.12500129309E+03 0.  0.
    9000005    1    3    3    0    0 -0.27311925726E+00  0.11883533289E+01  0.35681647129E+01  0.39010994836E+01  0.10000000000E+01 0.  0.
    9000005    1    3    3    0    0  0.27311925726E+00 -0.11883533289E+01 -0.10456411790E+04  0.10456423681E+04  0.10000000000E+01 0.  0.
<mgrwt>
<rscale>  0 0.12500129E+03</rscale>
<asrwt>0</asrwt>
<pdfrwt beam="2">  1        4 0.16089334E+00 0.12500129E+03</pdfrwt>
<pdfrwt beam="1">  1       -4 0.57465109E-03 0.12500129E+03</pdfrwt>
<totfact> 0.29008254E+03</totfact>
</mgrwt>
</event>
<event>
 4    1  0.3316206E-002  0.1248361E+03  0.7818608E-02  0.1235326E+00
         -4   -1    0    0    0  501 -0.00000000000E+00  0.00000000000E+00  0.44507631246E+01  0.46284114328E+01  0.12700000000E+01 0.  1.
          4   -1    0    0  501    0  0.00000000000E+00 -0.00000000000E+00 -0.85805227752E+03  0.85805321738E+03  0.12700000000E+01 0.  1.
    9000005    1    1    2    0    0  0.53850424902E+02  0.31427298493E+02 -0.40791534746E+03  0.41265418215E+03  0.10000000000E+01 0.  0.
    9000005    1    1    2    0    0 -0.53850424902E+02 -0.31427298493E+02 -0.44568616694E+03  0.45002744667E+03  0.10000000000E+01 0.  0.
<mgrwt>
<rscale>  0 0.12483608E+03</rscale>
<asrwt>0</asrwt>
<pdfrwt beam="2">  1        4 0.13202165E+00 0.12483608E+03</pdfrwt>
<pdfrwt beam="1">  1       -4 0.69847102E-03 0.12483608E+03</pdfrwt>
<totfact> 0.35741724E+03</totfact>
</mgrwt>
</event>
<event>
 5    1  0.3316206E-002  0.1250019E+03  0.7818608E-02  0.1235066E+00
          4   -1    0    0  501    0  0.00000000000E+00  0.00000000000E+00  0.33422435956E+03  0.33422677245E+03  0.12700000000E+01 0. -1.
         -4   -1    0    0    0  501 -0.00000000000E+00 -0.00000000000E+00 -0.11650900571E+02  0.11719913998E+02  0.12700000000E+01 0. -1.
         25    2    1    2    0    0  0.00000000000E+00  0.00000000000E+00  0.32257345899E+03  0.34594668645E+03  0.12500189367E+03 0.  0.
    9000005    1    3    3    0    0 -0.43893077557E+02 -0.43950937962E+02  0.18027634254E+03  0.19067995932E+03  0.10000000000E+01 0.  0.
    9000005    1    3    3    0    0  0.43893077557E+02  0.43950937962E+02  0.14229711645E+03  0.15526672713E+03  0.10000000000E+01 0.  0.
<mgrwt>
<rscale>  0 0.12500189E+03</rscale>
<asrwt>0</asrwt>
<pdfrwt beam="1">  1        4 0.51424624E-01 0.12500189E+03</pdfrwt>
<pdfrwt beam="2">  1       -4 0.17979407E-02 0.12500189E+03</pdfrwt>
<totfact> 0.70169842E+03</totfact>
</mgrwt>
</event>
<event>
 5    1  0.3316206E-002  0.1249959E+03  0.7818608E-02  0.1235076E+00
         -4   -1    0    0    0  501 -0.00000000000E+00  0.00000000000E+00  0.99077060947E+02  0.99085200237E+02  0.12700000000E+01 0. -1.
          4   -1    0    0  501    0  0.00000000000E+00 -0.00000000000E+00 -0.39403794338E+02  0.39424255329E+02  0.12700000000E+01 0. -1.
         25    2    1    2    0    0  0.00000000000E+00  0.00000000000E+00  0.59673266609E+02  0.13850945557E+03  0.12499588207E+03 0.  0.
    9000005    1    3    3    0    0 -0.71427361947E+01 -0.92752213547E+01  0.97856527050E+02  0.98559364334E+02  0.10000000000E+01 0.  0.
    9000005    1    3    3    0    0  0.71427361947E+01  0.92752213547E+01 -0.38183260441E+02  0.39950091232E+02  0.10000000000E+01 0.  0.
<mgrwt>
<rscale>  0 0.12499588E+03</rscale>
<asrwt>0</asrwt>
<pdfrwt beam="2">  1        4 0.60643223E-02 0.12499588E+03</pdfrwt>
<pdfrwt beam="1">  1       -4 0.15244825E-01 0.12499588E+03</pdfrwt>
<totfact> 0.10165515E+04</totfact>
</mgrwt>
</event>
<event>
 5    1  0.3316206E-002  0.1249968E+03  0.7818608E-02  0.1235074E+00
          4   -1    0    0  501    0  0.00000000000E+00  0.00000000000E+00  0.10794857846E+02  0.10869307978E+02  0.12700000000E+01 0.  1.
         -4   -1    0    0    0  501 -0.00000000000E+00 -0.00000000000E+00 -0.36052459130E+03  0.36052682817E+03  0.12700000000E+01 0.  1.
         25    2    1    2    0    0  0.00000000000E+00  0.00000000000E+00 -0.34972973345E+03  0.37139613615E+03  0.12499681390E+03 0.  0.
    9000005    1    3    3    0    0  0.18738445303E+02 -0.27211599154E+02 -0.17264192769E+02  0.37291457639E+02  0.10000000000E+01 0.  0.
    9000005    1    3    3    0    0 -0.18738445303E+02  0.27211599154E+02 -0.33246554068E+03  0.33410467851E+03  0.10000000000E+01 0.  0.
<mgrwt>
<rscale>  0 0.12499681E+03</rscale>
<asrwt>0</asrwt>
<pdfrwt beam="1">  1        4 0.16666466E-02 0.12499681E+03</pdfrwt>
<pdfrwt beam="2">  1       -4 0.55471212E-01 0.12499681E+03</pdfrwt>
<totfact> 0.67437881E+03</totfact>
</mgrwt>
</event>
<event>
 5    1  0.3316206E-002  0.1250225E+03  0.7818608E-02  0.1235034E+00
         -4   -1    0    0    0  501 -0.00000000000E+00  0.00000000000E+00  0.18617839179E+03  0.18618272334E+03  0.12700000000E+01 0.  1.
          4   -1    0    0  501    0  0.00000000000E+00 -0.00000000000E+00 -0.20964975528E+02  0.21003406840E+02  0.12700000000E+01 0.  1.
         25    2    1    2    0    0  0.00000000000E+00  0.00000000000E+00  0.16521341626E+03  0.20718613018E+03  0.12502247648E+03 0.  0.
    9000005    1    3    3    0    0  0.20606443712E+02  0.21679857108E+02  0.17355635463E+03  0.17611771620E+03  0.10000000000E+01 0.  0.
    9000005    1    3    3    0    0 -0.20606443712E+02 -0.21679857108E+02 -0.83429383666E+01  0.31068413980E+02  0.10000000000E+01 0.  0.
<mgrwt>
<rscale>  0 0.12502248E+03</rscale>
<asrwt>0</asrwt>
<pdfrwt beam="2">  1        4 0.32286703E-02 0.12502248E+03</pdfrwt>
<pdfrwt beam="1">  1       -4 0.28646119E-01 0.12502248E+03</pdfrwt>
<totfact> 0.88892807E+03</totfact>
</mgrwt>
</event>
<event>
 5    1  0.3316206E-002  0.1250009E+03  0.7818608E-02  0.1235068E+00
          4   -1    0    0  501    0  0.00000000000E+00  0.00000000000E+00  0.34501681718E+02  0.34525048029E+02  0.12700000000E+01 0.  1.
         -4   -1    0    0    0  501 -0.00000000000E+00 -0.00000000000E+00 -0.11315546561E+03  0.11316259230E+03  0.12700000000E+01 0.  1.
         25    2    1    2    0    0  0.00000000000E+00  0.00000000000E+00 -0.78653783890E+02  0.14768764033E+03  0.12500088554E+03 0.  0.
    9000005    1    3    3    0    0 -0.28486614895E+02  0.39726706519E+02  0.66695618429E+01  0.49347558138E+02  0.10000000000E+01 0.  0.
    9000005    1    3    3    0    0  0.28486614895E+02 -0.39726706519E+02 -0.85323345733E+02  0.98340082195E+02  0.10000000000E+01 0.  0.
<mgrwt>
<rscale>  0 0.12500089E+03</rscale>
<asrwt>0</asrwt>
<pdfrwt beam="1">  1        4 0.53102967E-02 0.12500089E+03</pdfrwt>
<pdfrwt beam="2">  1       -4 0.17410879E-01 0.12500089E+03</pdfrwt>
<totfact> 0.99764656E+03</totfact>
</mgrwt>
</event>
<event>
 5    1  0.3316206E-002  0.1249997E+03  0.7818608E-02  0.1235070E+00
         -4   -1    0    0    0  501 -0.00000000000E+00  0.00000000000E+00  0.10282497788E+03  0.10283282052E+03  0.12700000000E+01 0. -1.
          4   -1    0    0  501    0  0.00000000000E+00 -0.00000000000E+00 -0.37969207252E+02  0.37990440894E+02  0.12700000000E+01 0. -1.
         25    2    1    2    0    0  0.00000000000E+00  0.00000000000E+00  0.64855770625E+02  0.14082326141E+03  0.12499967988E+03 0.  0.
    9000005    1    3    3    0    0 -0.35058154131E+02  0.28288741644E+01 -0.25765133350E+02  0.43610993989E+02  0.10000000000E+01 0.  0.
    9000005    1    3    3    0    0  0.35058154131E+02 -0.28288741644E+01  0.90620903975E+02  0.97212267422E+02  0.10000000000E+01 0.  0.
<mgrwt>
<rscale>  0 0.12499968E+03</rscale>
<asrwt>0</asrwt>
<pdfrwt beam="2">  1        4 0.58436532E-02 0.12499968E+03</pdfrwt>
<pdfrwt beam="1">  1       -4 0.15821464E-01 0.12499968E+03</pdfrwt>
<totfact> 0.10116625E+04</totfact>
</mgrwt>
</event>
<event>
 5    1  0.3316206E-002  0.1249905E+03  0.7818608E-02  0.1235084E+00
         -4   -1    0    0    0  501 -0.00000000000E+00  0.00000000000E+00  0.45870182538E+02  0.45887760307E+02  0.12700000000E+01 0. -1.
          4   -1    0    0  501    0  0.00000000000E+00 -0.00000000000E+00 -0.85107185220E+02  0.85116660391E+02  0.12700000000E+01 0. -1.
         25    2    1    2    0    0  0.00000000000E+00  0.00000000000E+00 -0.39237002683E+02  0.13100442070E+03  0.12499046309E+03 0.  0.
    9000005    1    3    3    0    0  0.78085430160E+01 -0.61197173325E+02 -0.30025320689E+02  0.68619146377E+02  0.10000000000E+01 0.  0.
    9000005    1    3    3    0    0 -0.78085430160E+01  0.61197173325E+02 -0.92116819930E+01  0.62385274321E+02  0.10000000000E+01 0.  0.
<mgrwt>
<rscale>  0 0.12499046E+03</rscale>
<asrwt>0</asrwt>
<pdfrwt beam="2">  1        4 0.13095494E-01 0.12499046E+03</pdfrwt>
<pdfrwt beam="1">  1       -4 0.70590322E-02 0.12499046E+03</pdfrwt>
<totfact> 0.10325216E+04</totfact>
</mgrwt>
</event>
<event>
 5    1  0.3316206E-002  0.1249992E+03  0.7818608E-02  0.1235071E+00
         -4   -1    0    0    0  501 -0.00000000000E+00  0.00000000000E+00  0.10922647646E+02  0.10996232610E+02  0.12700000000E+01 0. -1.
          4   -1    0    0  501    0  0.00000000000E+00 -0.00000000000E+00 -0.35634870628E+03  0.35635096936E+03  0.12700000000E+01 0. -1.
         25    2    1    2    0    0  0.00000000000E+00  0.00000000000E+00 -0.34542605863E+03  0.36734720197E+03  0.12499921926E+03 0.  0.
    9000005    1    3    3    0    0 -0.59578769607E+02 -0.16953948218E+02 -0.19697101549E+03  0.20648401171E+03  0.10000000000E+01 0.  0.
    9000005    1    3    3    0    0  0.59578769607E+02  0.16953948218E+02 -0.14845504315E+03  0.16086319027E+03  0.10000000000E+01 0.  0.
<mgrwt>
<rscale>  0 0.12499922E+03</rscale>
<asrwt>0</asrwt>
<pdfrwt beam="2">  1        4 0.54828703E-01 0.12499922E+03</pdfrwt>
<pdfrwt beam="1">  1       -4 0.16862421E-02 0.12499922E+03</pdfrwt>
<totfact> 0.67858561E+03</totfact>
</mgrwt>
</event>
<event>
 5    1  0.3316206E-002  0.1250022E+03  0.7818608E-02  0.1235066E+00
         -4   -1    0    0    0  501 -0.00000000000E+00  0.00000000000E+00  0.17207249053E+02  0.17254052277E+02  0.12700000000E+01 0. -1.
          4   -1    0    0  501    0  0.00000000000E+00 -0.00000000000E+00 -0.22666280087E+03  0.22666635877E+03  0.12700000000E+01 0. -1.
         25    2    1    2    0    0  0.00000000000E+00  0.00000000000E+00 -0.20945555181E+03  0.24392041104E+03  0.12500215493E+03 0.  0.
    9000005    1    3    3    0    0  0.39351947741E+02 -0.43078418691E+02 -0.61048547014E+02  0.84452655615E+02  0.10000000000E+01 0.  0.
    9000005    1    3    3    0    0 -0.39351947741E+02  0.43078418691E+02 -0.14840700480E+03  0.15946775543E+03  0.10000000000E+01 0.  0.
<mgrwt>
<rscale>  0 0.12500215E+03</rscale>
<asrwt>0</asrwt>
<pdfrwt beam="2">  1        4 0.34875072E-01 0.12500215E+03</pdfrwt>
<pdfrwt beam="1">  1       -4 0.26511432E-02 0.12500215E+03</pdfrwt>
<totfact> 0.83212939E+03</totfact>
</mgrwt>
</event>
<event>
 5    1  0.3316206E-002  0.1249981E+03  0.7818608E-02  0.1235072E+00
          4   -1    0    0  501    0  0.00000000000E+00  0.00000000000E+00  0.62449145466E+02  0.62462057839E+02  0.12700000000E+01 0.  1.
         -4   -1    0    0    0  501 -0.00000000000E+00 -0.00000000000E+00 -0.62523183863E+02  0.62536080948E+02  0.12700000000E+01 0.  1.
         25    2    1    2    0    0  0.00000000000E+00  0.00000000000E+00 -0.74038396524E-01  0.12499813879E+03  0.12499811686E+03 0.  0.
    9000005    1    3    3    0    0  0.24287932080E+02  0.35040909652E+02  0.45650660136E+02  0.62472007850E+02  0.10000000000E+01 0.  0.
    9000005    1    3    3    0    0 -0.24287932080E+02 -0.35040909652E+02 -0.45724698533E+02  0.62526130936E+02  0.10000000000E+01 0.  0.
<mgrwt>
<rscale>  0 0.12499812E+03</rscale>
<asrwt>0</asrwt>
<pdfrwt beam="1">  1        4 0.96095462E-02 0.12499812E+03</pdfrwt>
<pdfrwt beam="2">  1       -4 0.96209367E-02 0.12499812E+03</pdfrwt>
<totfact> 0.10453348E+04</totfact>
</mgrwt>
</event>
<event>
 5    1  0.3316206E-002  0.1250000E+03  0.7818608E-02  0.1235069E+00
         -4   -1    0    0    0  501 -0.00000000000E+00  0.00000000000E+00  0.18056543622E+02  0.18101151002E+02  0.12700000000E+01 0. -1.
          4   -1    0    0  501    0  0.00000000000E+00 -0.00000000000E+00 -0.21602105708E+03  0.21602479025E+03  0.12700000000E+01 0. -1.
         25    2    1    2    0    0  0.00000000000E+00  0.00000000000E+00 -0.19796451346E+03  0.23412594125E+03  0.12500003111E+03 0.  0.
    9000005    1    3    3    0    0  0.15999783537E+02  0.10782720384E+02 -0.21031187777E+03  0.21119741017E+03  0.10000000000E+01 0.  0.
    9000005    1    3    3    0    0 -0.15999783537E+02 -0.10782720384E+02  0.12347364310E+02  0.22928531081E+02  0.10000000000E+01 0.  0.
<mgrwt>
<rscale>  0 0.12500003E+03</rscale>
<asrwt>0</asrwt>
<pdfrwt beam="2">  1        4 0.33237725E-01 0.12500003E+03</pdfrwt>
<pdfrwt beam="1">  1       -4 0.27816485E-02 0.12500003E+03</pdfrwt>
<totfact> 0.84679997E+03</totfact>
</mgrwt>
</event>
<event>
 5    1  0.3316206E-002  0.1250006E+03  0.7818608E-02  0.1235068E+00
         -4   -1    0    0    0  501 -0.00000000000E+00  0.00000000000E+00  0.19331087891E+03  0.19331505064E+03  0.12700000000E+01 0. -1.
          4   -1    0    0  501    0  0.00000000000E+00 -0.00000000000E+00 -0.20182920006E+02  0.20222837584E+02  0.12700000000E+01 0. -1.
         25    2    1    2    0    0  0.00000000000E+00  0.00000000000E+00  0.17312795890E+03  0.21353788822E+03  0.12500055821E+03 0.  0.
    9000005    1    3    3    0    0  0.33043580407E+02  0.14023947818E+02  0.17395019063E+03  0.17761818077E+03  0.10000000000E+01 0.  0.
    9000005    1    3    3    0    0 -0.33043580407E+02 -0.14023947818E+02 -0.82223173302E+00  0.35919707454E+02  0.10000000000E+01 0.  0.
<mgrwt>
<rscale>  0 0.12500056E+03</rscale>
<asrwt>0</asrwt>
<pdfrwt beam="2">  1        4 0.31084561E-02 0.12500056E+03</pdfrwt>
<pdfrwt beam="1">  1       -4 0.29743526E-01 0.12500056E+03</pdfrwt>
<totfact> 0.87900240E+03</totfact>
</mgrwt>
</event>
<event>
 5    1  0.3316206E-002  0.1250030E+03  0.7818608E-02  0.1235065E+00
          4   -1    0    0  501    0  0.00000000000E+00  0.00000000000E+00  0.33748599774E+02  0.33772487126E+02  0.12700000000E+01 0. -1.
         -4   -1    0    0    0  501 -0.00000000000E+00 -0.00000000000E+00 -0.11568280844E+03  0.11568977944E+03  0.12700000000E+01 0. -1.
         25    2    1    2    0    0  0.00000000000E+00  0.00000000000E+00 -0.81934208662E+02  0.14946226657E+03  0.12500301828E+03 0.  0.
    9000005    1    3    3    0    0  0.49076242934E+00  0.60268389866E+02 -0.60719871025E+02  0.85559467051E+02  0.10000000000E+01 0.  0.
    9000005    1    3    3    0    0 -0.49076242934E+00 -0.60268389866E+02 -0.21214337637E+02  0.63902799518E+02  0.10000000000E+01 0.  0.
<mgrwt>
<rscale>  0 0.12500302E+03</rscale>
<asrwt>0</asrwt>
<pdfrwt beam="1">  1        4 0.51944661E-02 0.12500302E+03</pdfrwt>
<pdfrwt beam="2">  1       -4 0.17799729E-01 0.12500302E+03</pdfrwt>
<totfact> 0.99404242E+03</totfact>
</mgrwt>
</event>
<event>
 5    1  0.3316206E-002  0.1250018E+03  0.7818608E-02  0.1235067E+00
          4   -1    0    0  501    0  0.00000000000E+00  0.00000000000E+00  0.31759841244E+03  0.31760095164E+03  0.12700000000E+01 0. -1.
         -4   -1    0    0    0  501 -0.00000000000E+00 -0.00000000000E+00 -0.12264303592E+02  0.12329884128E+02  0.12700000000E+01 0. -1.
         25    2    1    2    0    0  0.00000000000E+00  0.00000000000E+00  0.30533410885E+03  0.32993083577E+03  0.12500175345E+03 0.  0.
    9000005    1    3    3    0    0  0.31813665310E+02  0.24932903785E+02  0.27846478009E+03  0.28138477703E+03  0.10000000000E+01 0.  0.
    9000005    1    3    3    0    0 -0.31813665310E+02 -0.24932903785E+02  0.26869328756E+02  0.48546058743E+02  0.10000000000E+01 0.  0.
<mgrwt>
<rscale>  0 0.12500175E+03</rscale>
<asrwt>0</asrwt>
<pdfrwt beam="1">  1        4 0.48866533E-01 0.12500175E+03</pdfrwt>
<pdfrwt beam="2">  1       -4 0.18920560E-02 0.12500175E+03</pdfrwt>
<totfact> 0.71987549E+03</totfact>
</mgrwt>
</event>
<event>
 5    1  0.3316206E-002  0.1249980E+03  0.7818608E-02  0.1235072E+00
         -4   -1    0    0    0  501 -0.00000000000E+00  0.00000000000E+00  0.88813351959E+03  0.88813442761E+03  0.12700000000E+01 0.  1.
          4   -1    0    0  501    0  0.00000000000E+00 -0.00000000000E+00 -0.43055164235E+01  0.44889165367E+01  0.12700000000E+01 0.  1.
         25    2    1    2    0    0  0.00000000000E+00  0.00000000000E+00  0.88382800316E+03  0.89262334415E+03  0.12499798137E+03 0.  0.
    9000005    1    3    3    0    0 -0.16520368245E+02  0.99207736161E+01  0.17406894381E+02  0.25987387096E+02  0.10000000000E+01 0.  0.
    9000005    1    3    3    0    0  0.16520368245E+02 -0.99207736161E+01  0.86642110878E+03  0.86663595705E+03  0.10000000000E+01 0.  0.
<mgrwt>
<rscale>  0 0.12499798E+03</rscale>
<asrwt>0</asrwt>
<pdfrwt beam="2">  1        4 0.67656497E-03 0.12499798E+03</pdfrwt>
<pdfrwt beam="1">  1       -4 0.13665005E+00 0.12499798E+03</pdfrwt>
<totfact> 0.34445179E+03</totfact>
</mgrwt>
</event>
<event>
 5    1  0.3316206E-002  0.1250035E+03  0.7818608E-02  0.1235064E+00
         -4   -1    0    0    0  501 -0.00000000000E+00  0.00000000000E+00  0.35010306065E+02  0.35033333139E+02  0.12700000000E+01 0.  1.
          4   -1    0    0  501    0  0.00000000000E+00 -0.00000000000E+00 -0.11151729850E+03  0.11152452988E+03  0.12700000000E+01 0.  1.
         25    2    1    2    0    0  0.00000000000E+00  0.00000000000E+00 -0.76506992431E+02  0.14655786301E+03  0.12500354923E+03 0.  0.
    9000005    1    3    3    0    0  0.36655223818E+02 -0.35483022845E+02  0.40649034647E+01  0.51187633112E+02  0.10000000000E+01 0.  0.
    9000005    1    3    3    0    0 -0.36655223818E+02  0.35483022845E+02 -0.80571895896E+02  0.95370229903E+02  0.10000000000E+01 0.  0.
<mgrwt>
<rscale>  0 0.12500355E+03</rscale>
<asrwt>0</asrwt>
<pdfrwt beam="2">  1        4 0.17158835E-01 0.12500355E+03</pdfrwt>
<pdfrwt beam="1">  1       -4 0.53885286E-02 0.12500355E+03</pdfrwt>
<totfact> 0.99986327E+03</totfact>
</mgrwt>
</event>
<event>
 5    1  0.3316206E-002  0.1249967E+03  0.7818608E-02  0.1235074E+00
          4   -1    0    0  501    0  0.00000000000E+00  0.00000000000E+00  0.21893348617E+02  0.21930153070E+02  0.12700000000E+01 0.  1.
         -4   -1    0    0    0  501 -0.00000000000E+00 -0.00000000000E+00 -0.17822349591E+03  0.17822802079E+03  0.12700000000E+01 0.  1.
         25    2    1    2    0    0  0.00000000000E+00  0.00000000000E+00 -0.15633014729E+03  0.20015817386E+03  0.12499671840E+03 0.  0.
    9000005    1    3    3    0    0 -0.41690651130E+02  0.45077721638E+02 -0.96766003197E+02  0.11460702751E+03  0.10000000000E+01 0.  0.
    9000005    1    3    3    0    0  0.41690651130E+02 -0.45077721638E+02 -0.59564144096E+02  0.85551146350E+02  0.10000000000E+01 0.  0.
<mgrwt>
<rscale>  0 0.12499672E+03</rscale>
<asrwt>0</asrwt>
<pdfrwt beam="1">  1        4 0.33713868E-02 0.12499672E+03</pdfrwt>
<pdfrwt beam="2">  1       -4 0.27422178E-01 0.12499672E+03</pdfrwt>
<totfact> 0.90115453E+03</totfact>
</mgrwt>
</event>
<event>
 5    1  0.3316206E-002  0.1250010E+03  0.7818608E-02  0.1235068E+00
         -4   -1    0    0    0  501 -0.00000000000E+00  0.00000000000E+00  0.12797341854E+02  0.12860204451E+02  0.12700000000E+01 0. -1.
          4   -1    0    0  501    0  0.00000000000E+00 -0.00000000000E+00 -0.30443200320E+03  0.30443465222E+03  0.12700000000E+01 0. -1.
         25    2    1    2    0    0  0.00000000000E+00  0.00000000000E+00 -0.29163466134E+03  0.31729485667E+03  0.12500100148E+03 0.  0.
    9000005    1    3    3    0    0 -0.26544524496E+02 -0.30571764565E+02 -0.24984204665E+02  0.47586290590E+02  0.10000000000E+01 0.  0.
    9000005    1    3    3    0    0  0.26544524496E+02  0.30571764565E+02 -0.26665045668E+03  0.26970856608E+03  0.10000000000E+01 0.  0.
<mgrwt>
<rscale>  0 0.12500100E+03</rscale>
<asrwt>0</asrwt>
<pdfrwt beam="2">  1        4 0.46840727E-01 0.12500100E+03</pdfrwt>
<pdfrwt beam="1">  1       -4 0.19738614E-02 0.12500100E+03</pdfrwt>
<totfact> 0.73477396E+03</totfact>
</mgrwt>
</event>
<event>
 5    1  0.3316206E-002  0.1250033E+03  0.7818608E-02  0.1235064E+00
         -4   -1    0    0    0  501 -0.00000000000E+00  0.00000000000E+00  0.23421725307E+01  0.26643333431E+01  0.12700000000E+01 0.  1.
          4   -1    0    0  501    0  0.00000000000E+00 -0.00000000000E+00 -0.15602303179E+04  0.15602308347E+04  0.12700000000E+01 0.  1.
         25    2    1    2    0    0  0.00000000000E+00  0.00000000000E+00 -0.15578881453E+04  0.15628951681E+04  0.12500333218E+03 0.  0.
    9000005    1    3    3    0    0 -0.35027980417E+02  0.11873850238E+01 -0.14258478108E+04  0.14262788468E+04  0.10000000000E+01 0.  0.
    9000005    1    3    3    0    0  0.35027980417E+02 -0.11873850238E+01 -0.13204033454E+03  0.13661632128E+03  0.10000000000E+01 0.  0.
<mgrwt>
<rscale>  0 0.12500333E+03</rscale>
<asrwt>0</asrwt>
<pdfrwt beam="2">  1        4 0.24005948E+00 0.12500333E+03</pdfrwt>
<pdfrwt beam="1">  1       -4 0.38515684E-03 0.12500333E+03</pdfrwt>
<totfact> 0.16725562E+03</totfact>
</mgrwt>
</event>
<event>
 5    1  0.3316206E-002  0.1249982E+03  0.7818608E-02  0.1235072E+00
          4   -1    0    0  501    0  0.00000000000E+00  0.00000000000E+00  0.13807189930E+02  0.13865474885E+02  0.12700000000E+01 0.  1.
         -4   -1    0    0    0  501 -0.00000000000E+00 -0.00000000000E+00 -0.28225066882E+03  0.28225352602E+03  0.12700000000E+01 0.  1.
         25    2    1    2    0    0  0.00000000000E+00  0.00000000000E+00 -0.26844347889E+03  0.29611900090E+03  0.12499824534E+03 0.  0.
    9000005    1    3    3    0    0 -0.57169759403E+02 -0.20551093857E+02 -0.99533170676E+02  0.11661295346E+03  0.10000000000E+01 0.  0.
    9000005    1    3    3    0    0  0.57169759403E+02  0.20551093857E+02 -0.16891030822E+03  0.17950604745E+03  0.10000000000E+01 0.  0.
<mgrwt>
<rscale>  0 0.12499825E+03</rscale>
<asrwt>0</asrwt>
<pdfrwt beam="1">  1        4 0.21288865E-02 0.12499825E+03</pdfrwt>
<pdfrwt beam="2">  1       -4 0.43427879E-01 0.12499825E+03</pdfrwt>
<totfact> 0.76091224E+03</totfact>
</mgrwt>
</event>
<event>
 5    1  0.3316206E-002  0.1249994E+03  0.7818608E-02  0.1235070E+00
          4   -1    0    0  501    0  0.00000000000E+00  0.00000000000E+00  0.24833600582E+03  0.24833925321E+03  0.12700000000E+01 0. -1.
         -4   -1    0    0    0  501 -0.00000000000E+00 -0.00000000000E+00 -0.15700548396E+02  0.15751829098E+02  0.12700000000E+01 0. -1.
         25    2    1    2    0    0  0.00000000000E+00  0.00000000000E+00  0.23263545743E+03  0.26409108231E+03  0.12499937482E+03 0.  0.
    9000005    1    3    3    0    0  0.24457059493E+02  0.53527739240E+02  0.71907754248E+02  0.92925194367E+02  0.10000000000E+01 0.  0.
    9000005    1    3    3    0    0 -0.24457059493E+02 -0.53527739240E+02  0.16072770318E+03  0.17116588795E+03  0.10000000000E+01 0.  0.
<mgrwt>
<rscale>  0 0.12499937E+03</rscale>
<asrwt>0</asrwt>
<pdfrwt beam="1">  1        4 0.38209732E-01 0.12499937E+03</pdfrwt>
<pdfrwt beam="2">  1       -4 0.24196636E-02 0.12499937E+03</pdfrwt>
<totfact> 0.80336460E+03</totfact>
</mgrwt>
</event>
<event>
 5    1  0.3316206E-002  0.1249996E+03  0.7818608E-02  0.1235070E+00
         -4   -1    0    0    0  501 -0.00000000000E+00  0.00000000000E+00  0.22216592718E+02  0.22252862557E+02  0.12700000000E+01 0. -1.
          4   -1    0    0  501    0  0.00000000000E+00 -0.00000000000E+00 -0.17564258778E+03  0.17564717914E+03  0.12700000000E+01 0. -1.
         25    2    1    2    0    0  0.00000000000E+00  0.00000000000E+00 -0.15342599506E+03  0.19790004170E+03  0.12499956218E+03 0.  0.
    9000005    1    3    3    0    0  0.20778308439E+02 -0.56939060146E+02 -0.52628071797E+02  0.80277696859E+02  0.10000000000E+01 0.  0.
    9000005    1    3    3    0    0 -0.20778308439E+02  0.56939060146E+02 -0.10079792326E+03  0.11762234484E+03  0.10000000000E+01 0.  0.
<mgrwt>
<rscale>  0 0.12499956E+03</rscale>
<asrwt>0</asrwt>
<pdfrwt beam="2">  1        4 0.27025079E-01 0.12499956E+03</pdfrwt>
<pdfrwt beam="1">  1       -4 0.34210806E-02 0.12499956E+03</pdfrwt>
<totfact> 0.90491500E+03</totfact>
</mgrwt>
</event>
<event>
 5    1  0.3316206E-002  0.1250005E+03  0.7818608E-02  0.1235068E+00
          4   -1    0    0  501    0  0.00000000000E+00  0.00000000000E+00  0.22080253564E+02  0.22116746990E+02  0.12700000000E+01 0.  1.
         -4   -1    0    0    0  501 -0.00000000000E+00 -0.00000000000E+00 -0.17672814292E+03  0.17673270609E+03  0.12700000000E+01 0.  1.
         25    2    1    2    0    0  0.00000000000E+00  0.00000000000E+00 -0.15464788936E+03  0.19884945308E+03  0.12500054122E+03 0.  0.
    9000005    1    3    3    0    0 -0.68311153449E+01  0.57686689721E+02 -0.11397654290E+03  0.12792994426E+03  0.10000000000E+01 0.  0.
    9000005    1    3    3    0    0  0.68311153449E+01 -0.57686689721E+02 -0.40671346462E+02  0.70919508817E+02  0.10000000000E+01 0.  0.
<mgrwt>
<rscale>  0 0.12500054E+03</rscale>
<asrwt>0</asrwt>
<pdfrwt beam="1">  1        4 0.34001204E-02 0.12500054E+03</pdfrwt>
<pdfrwt beam="2">  1       -4 0.27192102E-01 0.12500054E+03</pdfrwt>
<totfact> 0.90328825E+03</totfact>
</mgrwt>
</event>
<event>
 5    1  0.3316206E-002  0.1249998E+03  0.7818608E-02  0.1235070E+00
         -4   -1    0    0    0  501 -0.00000000000E+00  0.00000000000E+00  0.39836995113E+02  0.39857233717E+02  0.12700000000E+01 0.  1.
          4   -1    0    0  501    0  0.00000000000E+00 -0.00000000000E+00 -0.98006216189E+02  0.98014444404E+02  0.12700000000E+01 0.  1.
         25    2    1    2    0    0  0.00000000000E+00  0.00000000000E+00 -0.58169221077E+02  0.13787167812E+03  0.12499976539E+03 0.  0.
    9000005    1    3    3    0    0  0.60442618976E+02  0.45640069535E+01 -0.12317388026E+02  0.61861606800E+02  0.10000000000E+01 0.  0.
    9000005    1    3    3    0    0 -0.60442618976E+02 -0.45640069535E+01 -0.45851833050E+02  0.76010071321E+02  0.10000000000E+01 0.  0.
<mgrwt>
<rscale>  0 0.12499977E+03</rscale>
<asrwt>0</asrwt>
<pdfrwt beam="2">  1        4 0.15080069E-01 0.12499977E+03</pdfrwt>
<pdfrwt beam="1">  1       -4 0.61309583E-02 0.12499977E+03</pdfrwt>
<totfact> 0.10177942E+04</totfact>
</mgrwt>
</event>
<event>
 5    1  0.3316206E-002  0.1250008E+03  0.7818608E-02  0.1235068E+00
          4   -1    0    0  501    0  0.00000000000E+00  0.00000000000E+00  0.80011473052E+01  0.81013121282E+01  0.12700000000E+01 0.  1.
         -4   -1    0    0    0  501 -0.00000000000E+00 -0.00000000000E+00 -0.48507963130E+03  0.48508129381E+03  0.12700000000E+01 0.  1.
         25    2    1    2    0    0  0.00000000000E+00  0.00000000000E+00 -0.47707848400E+03  0.49318260594E+03  0.12500081163E+03 0.  0.
    9000005    1    3    3    0    0  0.48440214363E+02 -0.34362770263E+02 -0.16182650826E+03  0.17238350595E+03  0.10000000000E+01 0.  0.
    9000005    1    3    3    0    0 -0.48440214363E+02  0.34362770263E+02 -0.31525197574E+03  0.32079909999E+03  0.10000000000E+01 0.  0.
<mgrwt>
<rscale>  0 0.12500081E+03</rscale>
<asrwt>0</asrwt>
<pdfrwt beam="1">  1        4 0.12387790E-02 0.12500081E+03</pdfrwt>
<pdfrwt beam="2">  1       -4 0.74635446E-01 0.12500081E+03</pdfrwt>
<totfact> 0.56396222E+03</totfact>
</mgrwt>
</event>
<event>
 5    1  0.3316206E-002  0.1250010E+03  0.7818608E-02  0.1235068E+00
          4   -1    0    0  501    0  0.00000000000E+00  0.00000000000E+00  0.36427184859E+01  0.38577581531E+01  0.12700000000E+01 0.  1.
         -4   -1    0    0    0  501 -0.00000000000E+00 -0.00000000000E+00 -0.10414015554E+04  0.10414023297E+04  0.12700000000E+01 0.  1.
         25    2    1    2    0    0  0.00000000000E+00  0.00000000000E+00 -0.10377588369E+04  0.10452600879E+04  0.12500099140E+03 0.  0.
    9000005    1    3    3    0    0 -0.25834911525E+02 -0.53397905554E+02 -0.68328031973E+03  0.68585113130E+03  0.10000000000E+01 0.  0.
    9000005    1    3    3    0    0  0.25834911525E+02  0.53397905554E+02 -0.35447851713E+03  0.35940895660E+03  0.10000000000E+01 0.  0.
<mgrwt>
<rscale>  0 0.12500099E+03</rscale>
<asrwt>0</asrwt>
<pdfrwt beam="1">  1        4 0.57702014E-03 0.12500099E+03</pdfrwt>
<pdfrwt beam="2">  1       -4 0.16023199E+00 0.12500099E+03</pdfrwt>
<totfact> 0.29142644E+03</totfact>
</mgrwt>
</event>
<event>
 5    1  0.3316206E-002  0.1249995E+03  0.7818608E-02  0.1235070E+00
         -4   -1    0    0    0  501 -0.00000000000E+00  0.00000000000E+00  0.50487919547E+03  0.50488079278E+03  0.12700000000E+01 0.  1.
          4   -1    0    0  501    0  0.00000000000E+00 -0.00000000000E+00 -0.76831967363E+01  0.77874522206E+01  0.12700000000E+01 0.  1.
         25    2    1    2    0    0  0.00000000000E+00  0.00000000000E+00  0.49719599873E+03  0.51266824500E+03  0.12499947310E+03 0.  0.
    9000005    1    3    3    0    0 -0.23072225951E+02  0.58071603410E+02  0.25171702049E+03  0.25935901206E+03  0.10000000000E+01 0.  0.
    9000005    1    3    3    0    0  0.23072225951E+02 -0.58071603410E+02  0.24547897824E+03  0.25330923294E+03  0.10000000000E+01 0.  0.
<mgrwt>
<rscale>  0 0.12499947E+03</rscale>
<asrwt>0</asrwt>
<pdfrwt beam="2">  1        4 0.11901725E-02 0.12499947E+03</pdfrwt>
<pdfrwt beam="1">  1       -4 0.77681885E-01 0.12499947E+03</pdfrwt>
<totfact> 0.54895316E+03</totfact>
</mgrwt>
</event>
<event>
 5    1  0.3316206E-002  0.1250097E+03  0.7818608E-02  0.1235054E+00
          4   -1    0    0  501    0  0.00000000000E+00  0.00000000000E+00  0.50447567852E+03  0.50447727711E+03  0.12700000000E+01 0.  1.
         -4   -1    0    0    0  501 -0.00000000000E+00 -0.00000000000E+00 -0.76906996704E+01  0.77948548043E+01  0.12700000000E+01 0.  1.
         25    2    1    2    0    0  0.00000000000E+00  0.00000000000E+00  0.49678497885E+03  0.51227213191E+03  0.12500968732E+03 0.  0.
    9000005    1    3    3    0    0 -0.60254454413E+02 -0.14922340263E+01  0.18068108804E+03  0.19047173443E+03  0.10000000000E+01 0.  0.
    9000005    1    3    3    0    0  0.60254454413E+02  0.14922340263E+01  0.31610389081E+03  0.32180039749E+03  0.10000000000E+01 0.  0.
<mgrwt>
<rscale>  0 0.12500969E+03</rscale>
<asrwt>0</asrwt>
<pdfrwt beam="1">  1        4 0.77619758E-01 0.12500969E+03</pdfrwt>
<pdfrwt beam="2">  1       -4 0.11913198E-02 0.12500969E+03</pdfrwt>
<totfact> 0.54912930E+03</totfact>
</mgrwt>
</event>
<event>
 5    1  0.3316206E-002  0.1249987E+03  0.7818608E-02  0.1235071E+00
         -4   -1    0    0    0  501 -0.00000000000E+00  0.00000000000E+00  0.37383296895E+02  0.37404863143E+02  0.12700000000E+01 0.  1.
          4   -1    0    0  501    0  0.00000000000E+00 -0.00000000000E+00 -0.10443418645E+03  0.10444190825E+03  0.12700000000E+01 0.  1.
         25    2    1    2    0    0  0.00000000000E+00  0.00000000000E+00 -0.67050889555E+02  0.14184677140E+03  0.12499873905E+03 0.  0.
    9000005    1    3    3    0    0 -0.38966626872E+02 -0.18818345155E+02  0.17636186651E+02  0.46739311118E+02  0.10000000000E+01 0.  0.
    9000005    1    3    3    0    0  0.38966626872E+02  0.18818345155E+02 -0.84687076206E+02  0.95107460278E+02  0.10000000000E+01 0.  0.
<mgrwt>
<rscale>  0 0.12499874E+03</rscale>
<asrwt>0</asrwt>
<pdfrwt beam="2">  1        4 0.16069051E-01 0.12499874E+03</pdfrwt>
<pdfrwt beam="1">  1       -4 0.57535294E-02 0.12499874E+03</pdfrwt>
<totfact> 0.10095740E+04</totfact>
</mgrwt>
</event>
<event>
 5    1  0.3316206E-002  0.1250008E+03  0.7818608E-02  0.1235068E+00
         -4   -1    0    0    0  501 -0.00000000000E+00  0.00000000000E+00  0.11771579582E+04  0.11771586433E+04  0.12700000000E+01 0. -1.
          4   -1    0    0  501    0  0.00000000000E+00 -0.00000000000E+00 -0.31961954443E+01  0.34392681370E+01  0.12700000000E+01 0. -1.
         25    2    1    2    0    0  0.00000000000E+00  0.00000000000E+00  0.11739617628E+04  0.11805979114E+04  0.12500083214E+03 0.  0.
    9000005    1    3    3    0    0  0.42511696744E+02 -0.90469735460E+01  0.10110698540E+04  0.10120041214E+04  0.10000000000E+01 0.  0.
    9000005    1    3    3    0    0 -0.42511696744E+02  0.90469735460E+01  0.16289190876E+03  0.16859379001E+03  0.10000000000E+01 0.  0.
<mgrwt>
<rscale>  0 0.12500083E+03</rscale>
<asrwt>0</asrwt>
<pdfrwt beam="2">  1        4 0.51047426E-03 0.12500083E+03</pdfrwt>
<pdfrwt beam="1">  1       -4 0.18111952E+00 0.12500083E+03</pdfrwt>
<totfact> 0.25225942E+03</totfact>
</mgrwt>
</event>
<event>
 5    1  0.3316206E-002  0.1249451E+03  0.7818608E-02  0.1235155E+00
         -4   -1    0    0    0  501 -0.00000000000E+00  0.00000000000E+00  0.52306073652E+03  0.52306227831E+03  0.12700000000E+01 0. -1.
          4   -1    0    0  501    0  0.00000000000E+00 -0.00000000000E+00 -0.74058961120E+01  0.75140000813E+01  0.12700000000E+01 0. -1.
         25    2    1    2    0    0  0.00000000000E+00  0.00000000000E+00  0.51565484041E+03  0.53057627839E+03  0.12494507895E+03 0.  0.
    9000005    1    3    3    0    0  0.32141577642E+02 -0.32098119593E+02  0.43990410448E+03  0.44224426670E+03  0.10000000000E+01 0.  0.
    9000005    1    3    3    0    0 -0.32141577642E+02  0.32098119593E+02  0.75750735929E+02  0.88332011686E+02  0.10000000000E+01 0.  0.
<mgrwt>
<rscale>  0 0.12494508E+03</rscale>
<asrwt>0</asrwt>
<pdfrwt beam="2">  1        4 0.11478030E-02 0.12494508E+03</pdfrwt>
<pdfrwt beam="1">  1       -4 0.80479314E-01 0.12494508E+03</pdfrwt>
<totfact> 0.53632368E+03</totfact>
</mgrwt>
</event>
<event>
 5    1  0.3316206E-002  0.1250064E+03  0.7818608E-02  0.1235059E+00
          4   -1    0    0  501    0  0.00000000000E+00  0.00000000000E+00  0.57527467813E+03  0.57527607999E+03  0.12700000000E+01 0. -1.
         -4   -1    0    0    0  501 -0.00000000000E+00 -0.00000000000E+00 -0.67301323402E+01  0.68489109584E+01  0.12700000000E+01 0. -1.
         25    2    1    2    0    0  0.00000000000E+00  0.00000000000E+00  0.56854454579E+03  0.58212499094E+03  0.12500641795E+03 0.  0.
    9000005    1    3    3    0    0 -0.15457940015E+02 -0.53651958986E+02  0.15353662400E+03  0.16337679003E+03  0.10000000000E+01 0.  0.
    9000005    1    3    3    0    0  0.15457940015E+02  0.53651958986E+02  0.41500792180E+03  0.41874820091E+03  0.10000000000E+01 0.  0.
<mgrwt>
<rscale>  0 0.12500642E+03</rscale>
<asrwt>0</asrwt>
<pdfrwt beam="1">  1        4 0.88513071E-01 0.12500642E+03</pdfrwt>
<pdfrwt beam="2">  1       -4 0.10446493E-02 0.12500642E+03</pdfrwt>
<totfact> 0.50008674E+03</totfact>
</mgrwt>
</event>
<event>
 5    1  0.3316206E-002  0.1249999E+03  0.7818608E-02  0.1235069E+00
          4   -1    0    0  501    0  0.00000000000E+00  0.00000000000E+00  0.18832602899E+02  0.18875376339E+02  0.12700000000E+01 0. -1.
         -4   -1    0    0    0  501 -0.00000000000E+00 -0.00000000000E+00 -0.20713917060E+03  0.20714306384E+03  0.12700000000E+01 0. -1.
         25    2    1    2    0    0  0.00000000000E+00  0.00000000000E+00 -0.18830656770E+03  0.22601844018E+03  0.12499988745E+03 0.  0.
    9000005    1    3    3    0    0  0.22981251959E+02 -0.52608238808E+02 -0.13879217022E+03  0.15019997086E+03  0.10000000000E+01 0.  0.
    9000005    1    3    3    0    0 -0.22981251959E+02  0.52608238808E+02 -0.49514397487E+02  0.75818469324E+02  0.10000000000E+01 0.  0.
<mgrwt>
<rscale>  0 0.12499989E+03</rscale>
<asrwt>0</asrwt>
<pdfrwt beam="1">  1        4 0.29009134E-02 0.12499989E+03</pdfrwt>
<pdfrwt beam="2">  1       -4 0.31871153E-01 0.12499989E+03</pdfrwt>
<totfact> 0.85924959E+03</totfact>
</mgrwt>
</event>
<event>
 5    1  0.3316206E-002  0.1249970E+03  0.7818608E-02  0.1235074E+00
         -4   -1    0    0    0  501 -0.00000000000E+00  0.00000000000E+00  0.67842418459E+03  0.67842537330E+03  0.12700000000E+01 0.  1.
          4   -1    0    0  501    0  0.00000000000E+00 -0.00000000000E+00 -0.56863055125E+01  0.58264028681E+01  0.12700000000E+01 0.  1.
         25    2    1    2    0    0  0.00000000000E+00  0.00000000000E+00  0.67273787908E+03  0.68425177617E+03  0.12499695694E+03 0.  0.
    9000005    1    3    3    0    0  0.62205616303E+00  0.42693633679E+02  0.86593811749E+02  0.96553723614E+02  0.10000000000E+01 0.  0.
    9000005    1    3    3    0    0 -0.62205616303E+00 -0.42693633679E+02  0.58614406733E+03  0.58769805256E+03  0.10000000000E+01 0.  0.
<mgrwt>
<rscale>  0 0.12499696E+03</rscale>
<asrwt>0</asrwt>
<pdfrwt beam="2">  1        4 0.88568495E-03 0.12499696E+03</pdfrwt>
<pdfrwt beam="1">  1       -4 0.10438375E+00 0.12499696E+03</pdfrwt>
<totfact> 0.43934111E+03</totfact>
</mgrwt>
</event>
<event>
 5    1  0.3316206E-002  0.1250019E+03  0.7818608E-02  0.1235066E+00
          4   -1    0    0  501    0  0.00000000000E+00  0.00000000000E+00  0.31509099154E+02  0.31534682962E+02  0.12700000000E+01 0. -1.
         -4   -1    0    0    0  501 -0.00000000000E+00 -0.00000000000E+00 -0.12389682894E+03  0.12390333782E+03  0.12700000000E+01 0. -1.
         25    2    1    2    0    0  0.00000000000E+00  0.00000000000E+00 -0.92387729789E+02  0.15543802078E+03  0.12500194274E+03 0.  0.
    9000005    1    3    3    0    0  0.12157863799E+02 -0.20081785048E+02 -0.11821171135E+03  0.12052427325E+03  0.10000000000E+01 0.  0.
    9000005    1    3    3    0    0 -0.12157863799E+02  0.20081785048E+02  0.25823981560E+02  0.34913747528E+02  0.10000000000E+01 0.  0.
<mgrwt>
<rscale>  0 0.12500194E+03</rscale>
<asrwt>0</asrwt>
<pdfrwt beam="1">  1        4 0.48500225E-02 0.12500194E+03</pdfrwt>
<pdfrwt beam="2">  1       -4 0.19063519E-01 0.12500194E+03</pdfrwt>
<totfact> 0.98225287E+03</totfact>
</mgrwt>
</event>
<event>
 5    1  0.3316206E-002  0.1249982E+03  0.7818608E-02  0.1235072E+00
         -4   -1    0    0    0  501 -0.00000000000E+00  0.00000000000E+00  0.36576818737E+02  0.36598860214E+02  0.12700000000E+01 0.  1.
          4   -1    0    0  501    0  0.00000000000E+00 -0.00000000000E+00 -0.10673477569E+03  0.10674233107E+03  0.12700000000E+01 0.  1.
         25    2    1    2    0    0  0.00000000000E+00  0.00000000000E+00 -0.70157956958E+02  0.14334119129E+03  0.12499823277E+03 0.  0.
    9000005    1    3    3    0    0  0.11404638557E+01  0.36544355172E+02 -0.93194769704E+02  0.10011521190E+03  0.10000000000E+01 0.  0.
    9000005    1    3    3    0    0 -0.11404638557E+01 -0.36544355172E+02  0.23036812746E+02  0.43225979390E+02  0.10000000000E+01 0.  0.
<mgrwt>
<rscale>  0 0.12499823E+03</rscale>
<asrwt>0</asrwt>
<pdfrwt beam="2">  1        4 0.16423011E-01 0.12499823E+03</pdfrwt>
<pdfrwt beam="1">  1       -4 0.56294796E-02 0.12499823E+03</pdfrwt>
<totfact> 0.10065202E+04</totfact>
</mgrwt>
</event>
<event>
 5    1  0.3316206E-002  0.1249907E+03  0.7818608E-02  0.1235084E+00
         -4   -1    0    0    0  501 -0.00000000000E+00  0.00000000000E+00  0.23323799428E+03  0.23324145188E+03  0.12700000000E+01 0.  1.
          4   -1    0    0  501    0  0.00000000000E+00 -0.00000000000E+00 -0.16717755708E+02  0.16765925441E+02  0.12700000000E+01 0.  1.
         25    2    1    2    0    0  0.00000000000E+00  0.00000000000E+00  0.21652023857E+03  0.25000737732E+03  0.12499069967E+03 0.  0.
    9000005    1    3    3    0    0  0.41571323268E+02  0.11863272915E+02  0.19850821557E+03  0.20316353957E+03  0.10000000000E+01 0.  0.
    9000005    1    3    3    0    0 -0.41571323268E+02 -0.11863272915E+02  0.18012023001E+02  0.46843837749E+02  0.10000000000E+01 0.  0.
<mgrwt>
<rscale>  0 0.12499070E+03</rscale>
<asrwt>0</asrwt>
<pdfrwt beam="2">  1        4 0.25759339E-02 0.12499070E+03</pdfrwt>
<pdfrwt beam="1">  1       -4 0.35886738E-01 0.12499070E+03</pdfrwt>
<totfact> 0.82346221E+03</totfact>
</mgrwt>
</event>
<event>
 5    1  0.3316206E-002  0.1249954E+03  0.7818608E-02  0.1235076E+00
          4   -1    0    0  501    0  0.00000000000E+00  0.00000000000E+00  0.47419346265E+01  0.49090573435E+01  0.12700000000E+01 0.  1.
         -4   -1    0    0    0  501 -0.00000000000E+00 -0.00000000000E+00 -0.80927487436E+03  0.80927587087E+03  0.12700000000E+01 0.  1.
         25    2    1    2    0    0  0.00000000000E+00  0.00000000000E+00 -0.80453293974E+03  0.81418492821E+03  0.12499538476E+03 0.  0.
    9000005    1    3    3    0    0 -0.44614431261E+01  0.50546090580E+02 -0.16470316490E+03  0.17234542139E+03  0.10000000000E+01 0.  0.
    9000005    1    3    3    0    0  0.44614431261E+01 -0.50546090580E+02 -0.63982977484E+03  0.64183950682E+03  0.10000000000E+01 0.  0.
<mgrwt>
<rscale>  0 0.12499538E+03</rscale>
<asrwt>0</asrwt>
<pdfrwt beam="1">  1        4 0.74246129E-03 0.12499538E+03</pdfrwt>
<pdfrwt beam="2">  1       -4 0.12451665E+00 0.12499538E+03</pdfrwt>
<totfact> 0.37643092E+03</totfact>
</mgrwt>
</event>
<event>
 5    1  0.3316206E-002  0.1249992E+03  0.7818608E-02  0.1235071E+00
          4   -1    0    0  501    0  0.00000000000E+00  0.00000000000E+00  0.26921302631E+02  0.26951241814E+02  0.12700000000E+01 0.  1.
         -4   -1    0    0    0  501 -0.00000000000E+00 -0.00000000000E+00 -0.14498355034E+03  0.14498911259E+03  0.12700000000E+01 0.  1.
         25    2    1    2    0    0  0.00000000000E+00  0.00000000000E+00 -0.11806224771E+03  0.17194035440E+03  0.12499916455E+03 0.  0.
    9000005    1    3    3    0    0 -0.44000823169E+02 -0.13265370862E+02 -0.78330639995E+00  0.45974515469E+02  0.10000000000E+01 0.  0.
    9000005    1    3    3    0    0  0.44000823169E+02  0.13265370862E+02 -0.11727894131E+03  0.12596583894E+03  0.10000000000E+01 0.  0.
<mgrwt>
<rscale>  0 0.12499916E+03</rscale>
<asrwt>0</asrwt>
<pdfrwt beam="1">  1        4 0.41444698E-02 0.12499916E+03</pdfrwt>
<pdfrwt beam="2">  1       -4 0.22307892E-01 0.12499916E+03</pdfrwt>
<totfact> 0.95089996E+03</totfact>
</mgrwt>
</event>
<event>
 5    1  0.3316206E-002  0.1249998E+03  0.7818608E-02  0.1235070E+00
          4   -1    0    0  501    0  0.00000000000E+00  0.00000000000E+00  0.13753471027E+02  0.13811982670E+02  0.12700000000E+01 0.  1.
         -4   -1    0    0    0  501 -0.00000000000E+00 -0.00000000000E+00 -0.28335568748E+03  0.28335853353E+03  0.12700000000E+01 0.  1.
         25    2    1    2    0    0  0.00000000000E+00  0.00000000000E+00 -0.26960221645E+03  0.29717051620E+03  0.12499984234E+03 0.  0.
    9000005    1    3    3    0    0 -0.68263255748E+01 -0.62043527010E+02 -0.14202853171E+03  0.15514219859E+03  0.10000000000E+01 0.  0.
    9000005    1    3    3    0    0  0.68263255748E+01  0.62043527010E+02 -0.12757368475E+03  0.14202831762E+03  0.10000000000E+01 0.  0.
<mgrwt>
<rscale>  0 0.12499984E+03</rscale>
<asrwt>0</asrwt>
<pdfrwt beam="1">  1        4 0.21206387E-02 0.12499984E+03</pdfrwt>
<pdfrwt beam="2">  1       -4 0.43597898E-01 0.12499984E+03</pdfrwt>
<totfact> 0.75955408E+03</totfact>
</mgrwt>
</event>
<event>
 5    1  0.3316206E-002  0.1250006E+03  0.7818608E-02  0.1235068E+00
         -4   -1    0    0    0  501 -0.00000000000E+00  0.00000000000E+00  0.11049330094E+03  0.11050059933E+03  0.12700000000E+01 0.  1.
          4   -1    0    0  501    0  0.00000000000E+00 -0.00000000000E+00 -0.35333288951E+02  0.35356105670E+02  0.12700000000E+01 0.  1.
         25    2    1    2    0    0  0.00000000000E+00  0.00000000000E+00  0.75160011991E+02  0.14585670500E+03  0.12500060397E+03 0.  0.
    9000005    1    3    3    0    0  0.48975239629E+02  0.34973759619E+02  0.57228485651E+02  0.83053221060E+02  0.10000000000E+01 0.  0.
    9000005    1    3    3    0    0 -0.48975239629E+02 -0.34973759619E+02  0.17931526341E+02  0.62803483944E+02  0.10000000000E+01 0.  0.
<mgrwt>
<rscale>  0 0.12500060E+03</rscale>
<asrwt>0</asrwt>
<pdfrwt beam="2">  1        4 0.54382072E-02 0.12500060E+03</pdfrwt>
<pdfrwt beam="1">  1       -4 0.17001286E-01 0.12500060E+03</pdfrwt>
<totfact> 0.10013475E+04</totfact>
</mgrwt>
</event>
<event>
 5    1  0.3316206E-002  0.1250001E+03  0.7818608E-02  0.1235069E+00
         -4   -1    0    0    0  501 -0.00000000000E+00  0.00000000000E+00  0.24365753457E+03  0.24366084431E+03  0.12700000000E+01 0. -1.
          4   -1    0    0  501    0  0.00000000000E+00 -0.00000000000E+00 -0.16003182857E+02  0.16053496864E+02  0.12700000000E+01 0. -1.
         25    2    1    2    0    0  0.00000000000E+00  0.00000000000E+00  0.22765435171E+03  0.25971434118E+03  0.12500014064E+03 0.  0.
    9000005    1    3    3    0    0 -0.51937996502E+01  0.39464785559E+02  0.21392061044E+03  0.21759474356E+03  0.10000000000E+01 0.  0.
    9000005    1    3    3    0    0  0.51937996502E+01 -0.39464785559E+02  0.13733741268E+02  0.42119597615E+02  0.10000000000E+01 0.  0.
<mgrwt>
<rscale>  0 0.12500014E+03</rscale>
<asrwt>0</asrwt>
<pdfrwt beam="2">  1        4 0.24661532E-02 0.12500014E+03</pdfrwt>
<pdfrwt beam="1">  1       -4 0.37489898E-01 0.12500014E+03</pdfrwt>
<totfact> 0.80945913E+03</totfact>
</mgrwt>
</event>
<event>
 5    1  0.3316206E-002  0.1250016E+03  0.7818608E-02  0.1235067E+00
         -4   -1    0    0    0  501 -0.00000000000E+00  0.00000000000E+00  0.47698573202E+02  0.47715477421E+02  0.12700000000E+01 0.  1.
          4   -1    0    0  501    0  0.00000000000E+00 -0.00000000000E+00 -0.81860203030E+02  0.81870053988E+02  0.12700000000E+01 0.  1.
         25    2    1    2    0    0  0.00000000000E+00  0.00000000000E+00 -0.34161629828E+02  0.12958553141E+03  0.12500157198E+03 0.  0.
    9000005    1    3    3    0    0  0.23958749355E+01  0.58547843552E+02 -0.39597305291E+02  0.70728613642E+02  0.10000000000E+01 0.  0.
    9000005    1    3    3    0    0 -0.23958749355E+01 -0.58547843552E+02  0.54356754634E+01  0.58856917767E+02  0.10000000000E+01 0.  0.
<mgrwt>
<rscale>  0 0.12500157E+03</rscale>
<asrwt>0</asrwt>
<pdfrwt beam="2">  1        4 0.12595935E-01 0.12500157E+03</pdfrwt>
<pdfrwt beam="1">  1       -4 0.73403001E-02 0.12500157E+03</pdfrwt>
<totfact> 0.10353014E+04</totfact>
</mgrwt>
</event>
<event>
 5    1  0.3316206E-002  0.1249969E+03  0.7818608E-02  0.1235074E+00
          4   -1    0    0  501    0  0.00000000000E+00  0.00000000000E+00  0.89319194710E+01  0.90217562279E+01  0.12700000000E+01 0.  1.
         -4   -1    0    0    0  501 -0.00000000000E+00 -0.00000000000E+00 -0.43503502792E+03  0.43503688168E+03  0.12700000000E+01 0.  1.
         25    2    1    2    0    0  0.00000000000E+00  0.00000000000E+00 -0.42610310845E+03  0.44405863790E+03  0.12499685943E+03 0.  0.
    9000005    1    3    3    0    0  0.39908129053E+02 -0.35831087269E+02 -0.99118612849E+02  0.11270326079E+03  0.10000000000E+01 0.  0.
    9000005    1    3    3    0    0 -0.39908129053E+02  0.35831087269E+02 -0.32698449560E+03  0.33135537711E+03  0.10000000000E+01 0.  0.
<mgrwt>
<rscale>  0 0.12499686E+03</rscale>
<asrwt>0</asrwt>
<pdfrwt beam="1">  1        4 0.13811949E-02 0.12499686E+03</pdfrwt>
<pdfrwt beam="2">  1       -4 0.66935503E-01 0.12499686E+03</pdfrwt>
<totfact> 0.60486165E+03</totfact>
</mgrwt>
</event>
<event>
 5    1  0.3316206E-002  0.1250479E+03  0.7818608E-02  0.1234994E+00
          4   -1    0    0  501    0  0.00000000000E+00  0.00000000000E+00  0.18710309756E+01  0.22613396277E+01  0.12700000000E+01 0. -1.
         -4   -1    0    0    0  501 -0.00000000000E+00 -0.00000000000E+00 -0.18916211118E+04  0.18916215382E+04  0.12700000000E+01 0. -1.
         25    2    1    2    0    0  0.00000000000E+00  0.00000000000E+00 -0.18897500809E+04  0.18938828778E+04  0.12504793752E+03 0.  0.
    9000005    1    3    3    0    0  0.21692624887E+01  0.49913040403E+02 -0.15140282691E+04  0.15148526717E+04  0.10000000000E+01 0.  0.
    9000005    1    3    3    0    0 -0.21692624887E+01 -0.49913040403E+02 -0.37572181174E+03  0.37903020608E+03  0.10000000000E+01 0.  0.
<mgrwt>
<rscale>  0 0.12504794E+03</rscale>
<asrwt>0</asrwt>
<pdfrwt beam="1">  1        4 0.31790897E-03 0.12504794E+03</pdfrwt>
<pdfrwt beam="2">  1       -4 0.29104730E+00 0.12504794E+03</pdfrwt>
<totfact> 0.11298810E+03</totfact>
</mgrwt>
</event>
<event>
 5    1  0.3316206E-002  0.1249994E+03  0.7818608E-02  0.1235070E+00
         -4   -1    0    0    0  501 -0.00000000000E+00  0.00000000000E+00  0.68231276720E+03  0.68231394914E+03  0.12700000000E+01 0.  1.
          4   -1    0    0  501    0  0.00000000000E+00 -0.00000000000E+00 -0.56533215711E+01  0.57942164946E+01  0.12700000000E+01 0.  1.
         25    2    1    2    0    0  0.00000000000E+00  0.00000000000E+00  0.67665944563E+03  0.68810816563E+03  0.12499936899E+03 0.  0.
    9000005    1    3    3    0    0 -0.49543769336E+02 -0.89476277954E+01  0.13453225718E+03  0.14364739241E+03  0.10000000000E+01 0.  0.
    9000005    1    3    3    0    0  0.49543769336E+02  0.89476277954E+01  0.54212718845E+03  0.54446077323E+03  0.10000000000E+01 0.  0.
<mgrwt>
<rscale>  0 0.12499937E+03</rscale>
<asrwt>0</asrwt>
<pdfrwt beam="2">  1        4 0.88067127E-03 0.12499937E+03</pdfrwt>
<pdfrwt beam="1">  1       -4 0.10498206E+00 0.12499937E+03</pdfrwt>
<totfact> 0.43722548E+03</totfact>
</mgrwt>
</event>
<event>
 5    1  0.3316206E-002  0.1249990E+03  0.7818608E-02  0.1235071E+00
         -4   -1    0    0    0  501 -0.00000000000E+00  0.00000000000E+00  0.10269517882E+02  0.10347748428E+02  0.12700000000E+01 0. -1.
          4   -1    0    0  501    0  0.00000000000E+00 -0.00000000000E+00 -0.37884470703E+03  0.37884683573E+03  0.12700000000E+01 0. -1.
         25    2    1    2    0    0  0.00000000000E+00  0.00000000000E+00 -0.36857518914E+03  0.38919458416E+03  0.12499901713E+03 0.  0.
    9000005    1    3    3    0    0  0.49422716124E+01  0.22789403704E+02 -0.37695378259E+01  0.23643019800E+02  0.10000000000E+01 0.  0.
    9000005    1    3    3    0    0 -0.49422716124E+01 -0.22789403704E+02 -0.36480565132E+03  0.36555156436E+03  0.10000000000E+01 0.  0.
<mgrwt>
<rscale>  0 0.12499902E+03</rscale>
<asrwt>0</asrwt>
<pdfrwt beam="2">  1        4 0.58289972E-01 0.12499902E+03</pdfrwt>
<pdfrwt beam="1">  1       -4 0.15861076E-02 0.12499902E+03</pdfrwt>
<totfact> 0.65618885E+03</totfact>
</mgrwt>
</event>
<event>
 5    1  0.3316206E-002  0.1250316E+03  0.7818608E-02  0.1235020E+00
          4   -1    0    0  501    0  0.00000000000E+00  0.00000000000E+00  0.76817643823E+03  0.76817748805E+03  0.12700000000E+01 0. -1.
         -4   -1    0    0    0  501 -0.00000000000E+00 -0.00000000000E+00 -0.50073445773E+01  0.51658880859E+01  0.12700000000E+01 0. -1.
         25    2    1    2    0    0  0.00000000000E+00  0.00000000000E+00  0.76316909365E+03  0.77334337614E+03  0.12503164364E+03 0.  0.
    9000005    1    3    3    0    0  0.57142950751E+01 -0.61559065438E+02  0.43862797290E+03  0.44296463778E+03  0.10000000000E+01 0.  0.
    9000005    1    3    3    0    0 -0.57142950751E+01  0.61559065438E+02  0.32454112075E+03  0.33037873836E+03  0.10000000000E+01 0.  0.
<mgrwt>
<rscale>  0 0.12503164E+03</rscale>
<asrwt>0</asrwt>
<pdfrwt beam="1">  1        4 0.11819330E+00 0.12503164E+03</pdfrwt>
<pdfrwt beam="2">  1       -4 0.78263692E-03 0.12503164E+03</pdfrwt>
<totfact> 0.39454405E+03</totfact>
</mgrwt>
</event>
<event>
 5    1  0.3316206E-002  0.1249974E+03  0.7818608E-02  0.1235073E+00
         -4   -1    0    0    0  501 -0.00000000000E+00  0.00000000000E+00  0.53797136470E+02  0.53812124956E+02  0.12700000000E+01 0.  1.
          4   -1    0    0  501    0  0.00000000000E+00 -0.00000000000E+00 -0.72577088662E+02  0.72588199445E+02  0.12700000000E+01 0.  1.
         25    2    1    2    0    0  0.00000000000E+00  0.00000000000E+00 -0.18779952192E+02  0.12640032440E+03  0.12499742159E+03 0.  0.
    9000005    1    3    3    0    0 -0.43686990617E+02  0.34872124974E+02  0.18860476401E+02  0.59002845858E+02  0.10000000000E+01 0.  0.
    9000005    1    3    3    0    0  0.43686990617E+02 -0.34872124974E+02 -0.37640428593E+02  0.67397478543E+02  0.10000000000E+01 0.  0.
<mgrwt>
<rscale>  0 0.12499742E+03</rscale>
<asrwt>0</asrwt>
<pdfrwt beam="2">  1        4 0.11167714E-01 0.12499742E+03</pdfrwt>
<pdfrwt beam="1">  1       -4 0.82784902E-02 0.12499742E+03</pdfrwt>
<totfact> 0.10422809E+04</totfact>
</mgrwt>
</event>
<event>
 5    1  0.3316206E-002  0.1249992E+03  0.7818608E-02  0.1235071E+00
         -4   -1    0    0    0  501 -0.00000000000E+00  0.00000000000E+00  0.15079959703E+02  0.15133343472E+02  0.12700000000E+01 0.  1.
          4   -1    0    0  501    0  0.00000000000E+00 -0.00000000000E+00 -0.25851972600E+03  0.25852284547E+03  0.12700000000E+01 0.  1.
         25    2    1    2    0    0  0.00000000000E+00  0.00000000000E+00 -0.24343976630E+03  0.27365618895E+03  0.12499915973E+03 0.  0.
    9000005    1    3    3    0    0 -0.11671522145E+02  0.51377679921E+01  0.12211858949E+02  0.17684755812E+02  0.10000000000E+01 0.  0.
    9000005    1    3    3    0    0  0.11671522145E+02 -0.51377679921E+01 -0.25565162525E+03  0.25597143313E+03  0.10000000000E+01 0.  0.
<mgrwt>
<rscale>  0 0.12499916E+03</rscale>
<asrwt>0</asrwt>
<pdfrwt beam="2">  1        4 0.39776609E-01 0.12499916E+03</pdfrwt>
<pdfrwt beam="1">  1       -4 0.23243404E-02 0.12499916E+03</pdfrwt>
<totfact> 0.79028316E+03</totfact>
</mgrwt>
</event>
<event>
 5    1  0.3316206E-002  0.1250159E+03  0.7818608E-02  0.1235044E+00
         -4   -1    0    0    0  501 -0.00000000000E+00  0.00000000000E+00  0.15957336151E+03  0.15957841522E+03  0.12700000000E+01 0. -1.
          4   -1    0    0  501    0  0.00000000000E+00 -0.00000000000E+00 -0.24463660045E+02  0.24496603087E+02  0.12700000000E+01 0. -1.
         25    2    1    2    0    0  0.00000000000E+00  0.00000000000E+00  0.13510970147E+03  0.18407501831E+03  0.12501592272E+03 0.  0.
    9000005    1    3    3    0    0 -0.54203015934E+01  0.48771002197E+02  0.12454796337E+03  0.13387003214E+03  0.10000000000E+01 0.  0.
    9000005    1    3    3    0    0  0.54203015934E+01 -0.48771002197E+02  0.10561738096E+02  0.50204986170E+02  0.10000000000E+01 0.  0.
<mgrwt>
<rscale>  0 0.12501592E+03</rscale>
<asrwt>0</asrwt>
<pdfrwt beam="2">  1        4 0.37665627E-02 0.12501592E+03</pdfrwt>
<pdfrwt beam="1">  1       -4 0.24552672E-01 0.12501592E+03</pdfrwt>
<totfact> 0.92855444E+03</totfact>
</mgrwt>
</event>
<event>
 5    1  0.3316206E-002  0.1250017E+03  0.7818608E-02  0.1235067E+00
          4   -1    0    0  501    0  0.00000000000E+00  0.00000000000E+00  0.43352719341E+03  0.43352905361E+03  0.12700000000E+01 0. -1.
         -4   -1    0    0    0  501 -0.00000000000E+00 -0.00000000000E+00 -0.89640007073E+01  0.90535191323E+01  0.12700000000E+01 0. -1.
         25    2    1    2    0    0  0.00000000000E+00  0.00000000000E+00  0.42456319270E+03  0.44258257274E+03  0.12500171639E+03 0.  0.
    9000005    1    3    3    0    0  0.60178907426E+01  0.41806957702E+02  0.49208813452E+02  0.64857875717E+02  0.10000000000E+01 0.  0.
    9000005    1    3    3    0    0 -0.60178907426E+01 -0.41806957702E+02  0.37535437925E+03  0.37772469703E+03  0.10000000000E+01 0.  0.
<mgrwt>
<rscale>  0 0.12500172E+03</rscale>
<asrwt>0</asrwt>
<pdfrwt beam="1">  1        4 0.66703510E-01 0.12500172E+03</pdfrwt>
<pdfrwt beam="2">  1       -4 0.13861064E-02 0.12500172E+03</pdfrwt>
<totfact> 0.60609496E+03</totfact>
</mgrwt>
</event>
<event>
 5    1  0.3316206E-002  0.1249974E+03  0.7818608E-02  0.1235073E+00
          4   -1    0    0  501    0  0.00000000000E+00  0.00000000000E+00  0.60891819984E+02  0.60905062524E+02  0.12700000000E+01 0. -1.
         -4   -1    0    0    0  501 -0.00000000000E+00 -0.00000000000E+00 -0.64121469159E+02  0.64134044836E+02  0.12700000000E+01 0. -1.
         25    2    1    2    0    0  0.00000000000E+00  0.00000000000E+00 -0.32296491743E+01  0.12503910736E+03  0.12499739092E+03 0.  0.
    9000005    1    3    3    0    0 -0.44503701831E+02  0.33832145903E+02  0.26321066460E+02  0.61797994407E+02  0.10000000000E+01 0.  0.
    9000005    1    3    3    0    0  0.44503701831E+02 -0.33832145903E+02 -0.29550715634E+02  0.63241112953E+02  0.10000000000E+01 0.  0.
<mgrwt>
<rscale>  0 0.12499739E+03</rscale>
<asrwt>0</asrwt>
<pdfrwt beam="1">  1        4 0.93699583E-02 0.12499739E+03</pdfrwt>
<pdfrwt beam="2">  1       -4 0.98668275E-02 0.12499739E+03</pdfrwt>
<totfact> 0.10452630E+04</totfact>
</mgrwt>
</event>
<event>
 5    1  0.3316206E-002  0.1249982E+03  0.7818608E-02  0.1235072E+00
         -4   -1    0    0    0  501 -0.00000000000E+00  0.00000000000E+00  0.17366405964E+03  0.17366870332E+03  0.12700000000E+01 0.  1.
          4   -1    0    0  501    0  0.00000000000E+00 -0.00000000000E+00 -0.22469610934E+02  0.22505473013E+02  0.12700000000E+01 0.  1.
         25    2    1    2    0    0  0.00000000000E+00  0.00000000000E+00  0.15119444871E+03  0.19617417633E+03  0.12499818454E+03 0.  0.
    9000005    1    3    3    0    0  0.17106614983E+02 -0.59657411025E+02  0.87075824199E+02  0.10693382125E+03  0.10000000000E+01 0.  0.
    9000005    1    3    3    0    0 -0.17106614983E+02  0.59657411025E+02  0.64118624509E+02  0.89240355082E+02  0.10000000000E+01 0.  0.
<mgrwt>
<rscale>  0 0.12499818E+03</rscale>
<asrwt>0</asrwt>
<pdfrwt beam="2">  1        4 0.34599791E-02 0.12499818E+03</pdfrwt>
<pdfrwt beam="1">  1       -4 0.26720663E-01 0.12499818E+03</pdfrwt>
<totfact> 0.90787677E+03</totfact>
</mgrwt>
</event>
<event>
 5    1  0.3316206E-002  0.1250028E+03  0.7818608E-02  0.1235065E+00
         -4   -1    0    0    0  501 -0.00000000000E+00  0.00000000000E+00  0.11921784837E+03  0.11922461268E+03  0.12700000000E+01 0. -1.
          4   -1    0    0  501    0  0.00000000000E+00 -0.00000000000E+00 -0.32747115290E+02  0.32771732634E+02  0.12700000000E+01 0. -1.
         25    2    1    2    0    0  0.00000000000E+00  0.00000000000E+00  0.86470733078E+02  0.15199634532E+03  0.12500280521E+03 0.  0.
    9000005    1    3    3    0    0 -0.34035833861E+02 -0.50955364983E+02  0.28316472436E+02  0.67510812603E+02  0.10000000000E+01 0.  0.
    9000005    1    3    3    0    0  0.34035833861E+02  0.50955364983E+02  0.58154260642E+02  0.84485532714E+02  0.10000000000E+01 0.  0.
<mgrwt>
<rscale>  0 0.12500281E+03</rscale>
<asrwt>0</asrwt>
<pdfrwt beam="2">  1        4 0.50404316E-02 0.12500281E+03</pdfrwt>
<pdfrwt beam="1">  1       -4 0.18343622E-01 0.12500281E+03</pdfrwt>
<totfact> 0.98900992E+03</totfact>
</mgrwt>
</event>
<event>
 5    1  0.3316206E-002  0.1249967E+03  0.7818608E-02  0.1235074E+00
          4   -1    0    0  501    0  0.00000000000E+00  0.00000000000E+00  0.13689559222E+02  0.13748342871E+02  0.12700000000E+01 0. -1.
         -4   -1    0    0    0  501 -0.00000000000E+00 -0.00000000000E+00 -0.28465860058E+03  0.28466143360E+03  0.12700000000E+01 0. -1.
         25    2    1    2    0    0  0.00000000000E+00  0.00000000000E+00 -0.27096904135E+03  0.29840977647E+03  0.12499669325E+03 0.  0.
    9000005    1    3    3    0    0  0.47842036217E+02 -0.33176088270E+02 -0.18968979215E+03  0.19842562966E+03  0.10000000000E+01 0.  0.
    9000005    1    3    3    0    0 -0.47842036217E+02  0.33176088270E+02 -0.81279249204E+02  0.99984146811E+02  0.10000000000E+01 0.  0.
<mgrwt>
<rscale>  0 0.12499669E+03</rscale>
<asrwt>0</asrwt>
<pdfrwt beam="1">  1        4 0.21108260E-02 0.12499669E+03</pdfrwt>
<pdfrwt beam="2">  1       -4 0.43798366E-01 0.12499669E+03</pdfrwt>
<totfact> 0.75804314E+03</totfact>
</mgrwt>
</event>
<event>
 5    1  0.3316206E-002  0.1249950E+03  0.7818608E-02  0.1235077E+00
         -4   -1    0    0    0  501 -0.00000000000E+00  0.00000000000E+00  0.24814190765E+03  0.24814515758E+03  0.12700000000E+01 0. -1.
          4   -1    0    0  501    0  0.00000000000E+00 -0.00000000000E+00 -0.15711761704E+02  0.15763005927E+02  0.12700000000E+01 0. -1.
         25    2    1    2    0    0  0.00000000000E+00  0.00000000000E+00  0.23243014594E+03  0.26390816351E+03  0.12499498399E+03 0.  0.
    9000005    1    3    3    0    0  0.42869323692E+02  0.43278909325E+02  0.14562986935E+03  0.15786038690E+03  0.10000000000E+01 0.  0.
    9000005    1    3    3    0    0 -0.42869323692E+02 -0.43278909325E+02  0.86800276596E+02  0.10604777661E+03  0.10000000000E+01 0.  0.
<mgrwt>
<rscale>  0 0.12499498E+03</rscale>
<asrwt>0</asrwt>
<pdfrwt beam="2">  1        4 0.24213861E-02 0.12499498E+03</pdfrwt>
<pdfrwt beam="1">  1       -4 0.38179869E-01 0.12499498E+03</pdfrwt>
<totfact> 0.80369686E+03</totfact>
</mgrwt>
</event>
<event>
 5    1  0.3316206E-002  0.1249966E+03  0.7818608E-02  0.1235075E+00
          4   -1    0    0  501    0  0.00000000000E+00  0.00000000000E+00  0.19942018454E+02  0.19982417272E+02  0.12700000000E+01 0. -1.
         -4   -1    0    0    0  501 -0.00000000000E+00 -0.00000000000E+00 -0.19562904334E+03  0.19563316564E+03  0.12700000000E+01 0. -1.
         25    2    1    2    0    0  0.00000000000E+00  0.00000000000E+00 -0.17568702488E+03  0.21561558291E+03  0.12499659548E+03 0.  0.
    9000005    1    3    3    0    0 -0.74369499256E+01 -0.60476037136E+00 -0.19486633707E+03  0.19501170038E+03  0.10000000000E+01 0.  0.
    9000005    1    3    3    0    0  0.74369499256E+01  0.60476037136E+00  0.19179312191E+02  0.20603882532E+02  0.10000000000E+01 0.  0.
<mgrwt>
<rscale>  0 0.12499660E+03</rscale>
<asrwt>0</asrwt>
<pdfrwt beam="1">  1        4 0.30714277E-02 0.12499660E+03</pdfrwt>
<pdfrwt beam="2">  1       -4 0.30100199E-01 0.12499660E+03</pdfrwt>
<totfact> 0.87573579E+03</totfact>
</mgrwt>
</event>
<event>
 5    1  0.3316206E-002  0.1250032E+03  0.7818608E-02  0.1235064E+00
          4   -1    0    0  501    0  0.00000000000E+00  0.00000000000E+00  0.26088917803E+02  0.26119811105E+02  0.12700000000E+01 0. -1.
         -4   -1    0    0    0  501 -0.00000000000E+00 -0.00000000000E+00 -0.14961373094E+03  0.14961912106E+03  0.12700000000E+01 0. -1.
         25    2    1    2    0    0  0.00000000000E+00  0.00000000000E+00 -0.12352481314E+03  0.17573893216E+03  0.12500317123E+03 0.  0.
    9000005    1    3    3    0    0 -0.18271690932E+02  0.25882688022E+02  0.13968247662E+02  0.34639286533E+02  0.10000000000E+01 0.  0.
    9000005    1    3    3    0    0  0.18271690932E+02 -0.25882688022E+02 -0.13749306080E+03  0.14109964563E+03  0.10000000000E+01 0.  0.
<mgrwt>
<rscale>  0 0.12500317E+03</rscale>
<asrwt>0</asrwt>
<pdfrwt beam="1">  1        4 0.40164708E-02 0.12500317E+03</pdfrwt>
<pdfrwt beam="2">  1       -4 0.23020288E-01 0.12500317E+03</pdfrwt>
<totfact> 0.94382967E+03</totfact>
</mgrwt>
</event>
<event>
 5    1  0.3316206E-002  0.1250043E+03  0.7818608E-02  0.1235063E+00
         -4   -1    0    0    0  501 -0.00000000000E+00  0.00000000000E+00  0.40938504443E+03  0.40938701433E+03  0.12700000000E+01 0. -1.
          4   -1    0    0  501    0  0.00000000000E+00 -0.00000000000E+00 -0.94981446459E+01  0.95826745596E+01  0.12700000000E+01 0. -1.
         25    2    1    2    0    0  0.00000000000E+00  0.00000000000E+00  0.39988689979E+03  0.41896968889E+03  0.12500427029E+03 0.  0.
    9000005    1    3    3    0    0 -0.15873965436E+02 -0.58427385785E+02  0.14804439592E+03  0.15994963379E+03  0.10000000000E+01 0.  0.
    9000005    1    3    3    0    0  0.15873965436E+02  0.58427385785E+02  0.25184250387E+03  0.25902005510E+03  0.10000000000E+01 0.  0.
<mgrwt>
<rscale>  0 0.12500427E+03</rscale>
<asrwt>0</asrwt>
<pdfrwt beam="2">  1        4 0.14679070E-02 0.12500427E+03</pdfrwt>
<pdfrwt beam="1">  1       -4 0.62988961E-01 0.12500427E+03</pdfrwt>
<totfact> 0.62742801E+03</totfact>
</mgrwt>
</event>
<event>
 5    1  0.3316206E-002  0.1249980E+03  0.7818608E-02  0.1235072E+00
          4   -1    0    0  501    0  0.00000000000E+00  0.00000000000E+00  0.99873340542E+02  0.99881414943E+02  0.12700000000E+01 0.  1.
         -4   -1    0    0    0  501 -0.00000000000E+00 -0.00000000000E+00 -0.39090799257E+02  0.39111423990E+02  0.12700000000E+01 0.  1.
         25    2    1    2    0    0  0.00000000000E+00  0.00000000000E+00  0.60782541285E+02  0.13899283893E+03  0.12499796778E+03 0.  0.
    9000005    1    3    3    0    0 -0.49652786245E+02  0.12699773072E+02 -0.93671912935E+01  0.52109765790E+02  0.10000000000E+01 0.  0.
    9000005    1    3    3    0    0  0.49652786245E+02 -0.12699773072E+02  0.70149732579E+02  0.86883073143E+02  0.10000000000E+01 0.  0.
<mgrwt>
<rscale>  0 0.12499797E+03</rscale>
<asrwt>0</asrwt>
<pdfrwt beam="1">  1        4 0.15367337E-01 0.12499797E+03</pdfrwt>
<pdfrwt beam="2">  1       -4 0.60161768E-02 0.12499797E+03</pdfrwt>
<totfact> 0.10154967E+04</totfact>
</mgrwt>
</event>
<event>
 5    1  0.3316206E-002  0.1249994E+03  0.7818608E-02  0.1235070E+00
         -4   -1    0    0    0  501 -0.00000000000E+00  0.00000000000E+00  0.25049255142E+03  0.25049577086E+03  0.12700000000E+01 0.  1.
          4   -1    0    0  501    0  0.00000000000E+00 -0.00000000000E+00 -0.15564952243E+02  0.15616678210E+02  0.12700000000E+01 0.  1.
         25    2    1    2    0    0  0.00000000000E+00  0.00000000000E+00  0.23492759918E+03  0.26611244907E+03  0.12499943477E+03 0.  0.
    9000005    1    3    3    0    0 -0.33359511367E+02  0.46998168148E+02  0.66037096055E+02  0.87656048641E+02  0.10000000000E+01 0.  0.
    9000005    1    3    3    0    0  0.33359511367E+02 -0.46998168148E+02  0.16889050313E+03  0.17845640043E+03  0.10000000000E+01 0.  0.
<mgrwt>
<rscale>  0 0.12499943E+03</rscale>
<asrwt>0</asrwt>
<pdfrwt beam="2">  1        4 0.23988348E-02 0.12499943E+03</pdfrwt>
<pdfrwt beam="1">  1       -4 0.38541539E-01 0.12499943E+03</pdfrwt>
<totfact> 0.80056853E+03</totfact>
</mgrwt>
</event>
<event>
 5    1  0.3316206E-002  0.1249991E+03  0.7818608E-02  0.1235071E+00
         -4   -1    0    0    0  501 -0.00000000000E+00  0.00000000000E+00  0.27365591276E+02  0.27395044915E+02  0.12700000000E+01 0. -1.
          4   -1    0    0  501    0  0.00000000000E+00 -0.00000000000E+00 -0.14263198049E+03  0.14263763443E+03  0.12700000000E+01 0. -1.
         25    2    1    2    0    0  0.00000000000E+00  0.00000000000E+00 -0.11526638921E+03  0.17003267935E+03  0.12499908626E+03 0.  0.
    9000005    1    3    3    0    0 -0.36975985845E+02 -0.25945191144E+02 -0.11637450117E+03  0.12483749836E+03  0.10000000000E+01 0.  0.
    9000005    1    3    3    0    0  0.36975985845E+02  0.25945191144E+02  0.11081119650E+01  0.45195180991E+02  0.10000000000E+01 0.  0.
<mgrwt>
<rscale>  0 0.12499909E+03</rscale>
<asrwt>0</asrwt>
<pdfrwt beam="2">  1        4 0.21946082E-01 0.12499909E+03</pdfrwt>
<pdfrwt beam="1">  1       -4 0.42127916E-02 0.12499909E+03</pdfrwt>
<totfact> 0.95444503E+03</totfact>
</mgrwt>
</event>
<event>
 5    1  0.3316206E-002  0.1250004E+03  0.7818608E-02  0.1235069E+00
         -4   -1    0    0    0  501 -0.00000000000E+00  0.00000000000E+00  0.27553542072E+02  0.27582795013E+02  0.12700000000E+01 0. -1.
          4   -1    0    0  501    0  0.00000000000E+00 -0.00000000000E+00 -0.14166296786E+03  0.14166866048E+03  0.12700000000E+01 0. -1.
         25    2    1    2    0    0  0.00000000000E+00  0.00000000000E+00 -0.11410942579E+03  0.16925145550E+03  0.12500037653E+03 0.  0.
    9000005    1    3    3    0    0  0.10215699772E+02  0.57598860820E+02 -0.27288580498E+02  0.64557384668E+02  0.10000000000E+01 0.  0.
    9000005    1    3    3    0    0 -0.10215699772E+02 -0.57598860820E+02 -0.86820845291E+02  0.10469407083E+03  0.10000000000E+01 0.  0.
<mgrwt>
<rscale>  0 0.12500038E+03</rscale>
<asrwt>0</asrwt>
<pdfrwt beam="2">  1        4 0.21796990E-01 0.12500038E+03</pdfrwt>
<pdfrwt beam="1">  1       -4 0.42416947E-02 0.12500038E+03</pdfrwt>
<totfact> 0.95587429E+03</totfact>
</mgrwt>
</event>
<event>
 5    1  0.3316206E-002  0.1250601E+03  0.7818608E-02  0.1234975E+00
         -4   -1    0    0    0  501 -0.00000000000E+00  0.00000000000E+00  0.15007390540E+03  0.15007927898E+03  0.12700000000E+01 0.  1.
          4   -1    0    0  501    0  0.00000000000E+00 -0.00000000000E+00 -0.26032557858E+02  0.26063517963E+02  0.12700000000E+01 0.  1.
         25    2    1    2    0    0  0.00000000000E+00  0.00000000000E+00  0.12404134754E+03  0.17614279695E+03  0.12506010162E+03 0.  0.
    9000005    1    3    3    0    0  0.32512203814E+02 -0.16217062626E+02 -0.96447514048E+01  0.37603959190E+02  0.10000000000E+01 0.  0.
    9000005    1    3    3    0    0 -0.32512203814E+02  0.16217062626E+02  0.13368609894E+03  0.13853883776E+03  0.10000000000E+01 0.  0.
<mgrwt>
<rscale>  0 0.12506010E+03</rscale>
<asrwt>0</asrwt>
<pdfrwt beam="2">  1        4 0.40078037E-02 0.12506010E+03</pdfrwt>
<pdfrwt beam="1">  1       -4 0.23091089E-01 0.12506010E+03</pdfrwt>
<totfact> 0.94188918E+03</totfact>
</mgrwt>
</event>
<event>
 5    1  0.3316206E-002  0.1249879E+03  0.7818608E-02  0.1235088E+00
          4   -1    0    0  501    0  0.00000000000E+00  0.00000000000E+00  0.27665529339E+02  0.27694663992E+02  0.12700000000E+01 0. -1.
         -4   -1    0    0    0  501 -0.00000000000E+00 -0.00000000000E+00 -0.14106186356E+03  0.14106758044E+03  0.12700000000E+01 0. -1.
         25    2    1    2    0    0  0.00000000000E+00  0.00000000000E+00 -0.11339633422E+03  0.16876224443E+03  0.12498786554E+03 0.  0.
    9000005    1    3    3    0    0 -0.44862927824E+02  0.35246439081E+02 -0.22287245259E+02  0.61259407947E+02  0.10000000000E+01 0.  0.
    9000005    1    3    3    0    0  0.44862927824E+02 -0.35246439081E+02 -0.91109088964E+02  0.10750283649E+03  0.10000000000E+01 0.  0.
<mgrwt>
<rscale>  0 0.12498787E+03</rscale>
<asrwt>0</asrwt>
<pdfrwt beam="1">  1        4 0.42589162E-02 0.12498787E+03</pdfrwt>
<pdfrwt beam="2">  1       -4 0.21704506E-01 0.12498787E+03</pdfrwt>
<totfact> 0.95705665E+03</totfact>
</mgrwt>
</event>
<event>
 5    1  0.3316206E-002  0.1249987E+03  0.7818608E-02  0.1235071E+00
          4   -1    0    0  501    0  0.00000000000E+00  0.00000000000E+00  0.52442137928E+03  0.52442291706E+03  0.12700000000E+01 0. -1.
         -4   -1    0    0    0  501 -0.00000000000E+00 -0.00000000000E+00 -0.73928306477E+01  0.75011229150E+01  0.12700000000E+01 0. -1.
         25    2    1    2    0    0  0.00000000000E+00  0.00000000000E+00  0.51702854863E+03  0.53192403998E+03  0.12499865684E+03 0.  0.
    9000005    1    3    3    0    0 -0.11154747244E+01  0.35219710689E+02  0.38895171560E+02  0.52492920242E+02  0.10000000000E+01 0.  0.
    9000005    1    3    3    0    0  0.11154747244E+01 -0.35219710689E+02  0.47813337707E+03  0.47943111974E+03  0.10000000000E+01 0.  0.
<mgrwt>
<rscale>  0 0.12499866E+03</rscale>
<asrwt>0</asrwt>
<pdfrwt beam="1">  1        4 0.80688644E-01 0.12499866E+03</pdfrwt>
<pdfrwt beam="2">  1       -4 0.11458073E-02 0.12499866E+03</pdfrwt>
<totfact> 0.53471409E+03</totfact>
</mgrwt>
</event>
<event>
 5    1  0.3316206E-002  0.1250447E+03  0.7818608E-02  0.1234999E+00
         -4   -1    0    0    0  501 -0.00000000000E+00  0.00000000000E+00  0.56447826772E+01  0.57858855392E+01  0.12700000000E+01 0.  1.
          4   -1    0    0  501    0  0.00000000000E+00 -0.00000000000E+00 -0.68381589917E+03  0.68381707851E+03  0.12700000000E+01 0.  1.
         25    2    1    2    0    0  0.00000000000E+00  0.00000000000E+00 -0.67817111650E+03  0.68960296405E+03  0.12504473110E+03 0.  0.
    9000005    1    3    3    0    0 -0.25651704717E+02  0.16481224890E+01 -0.65335073604E+03  0.65385694961E+03  0.10000000000E+01 0.  0.
    9000005    1    3    3    0    0  0.25651704717E+02 -0.16481224890E+01 -0.24820380453E+02  0.35746014441E+02  0.10000000000E+01 0.  0.
<mgrwt>
<rscale>  0 0.12504473E+03</rscale>
<asrwt>0</asrwt>
<pdfrwt beam="2">  1        4 0.10521333E+00 0.12504473E+03</pdfrwt>
<pdfrwt beam="1">  1       -4 0.87937343E-03 0.12504473E+03</pdfrwt>
<totfact> 0.43598580E+03</totfact>
</mgrwt>
</event>
<event>
 5    1  0.3316206E-002  0.1249492E+03  0.7818608E-02  0.1235149E+00
          4   -1    0    0  501    0  0.00000000000E+00  0.00000000000E+00  0.62810216090E+03  0.62810344484E+03  0.12700000000E+01 0.  1.
         -4   -1    0    0    0  501 -0.00000000000E+00 -0.00000000000E+00 -0.61478849491E+01  0.62776898098E+01  0.12700000000E+01 0.  1.
         25    2    1    2    0    0  0.00000000000E+00  0.00000000000E+00  0.62195427595E+03  0.63438113465E+03  0.12494920021E+03 0.  0.
    9000005    1    3    3    0    0 -0.12341963977E+02 -0.56391117856E+02  0.18978470896E+03  0.19837217043E+03  0.10000000000E+01 0.  0.
    9000005    1    3    3    0    0  0.12341963977E+02  0.56391117856E+02  0.43216956699E+03  0.43600896422E+03  0.10000000000E+01 0.  0.
<mgrwt>
<rscale>  0 0.12494920E+03</rscale>
<asrwt>0</asrwt>
<pdfrwt beam="1">  1        4 0.96641210E-01 0.12494920E+03</pdfrwt>
<pdfrwt beam="2">  1       -4 0.95591197E-03 0.12494920E+03</pdfrwt>
<totfact> 0.46818968E+03</totfact>
</mgrwt>
</event>
<event>
 5    1  0.3316206E-002  0.1249803E+03  0.7818608E-02  0.1235100E+00
         -4   -1    0    0    0  501 -0.00000000000E+00  0.00000000000E+00  0.38128218725E+02  0.38149363862E+02  0.12700000000E+01 0. -1.
          4   -1    0    0  501    0  0.00000000000E+00 -0.00000000000E+00 -0.10236465574E+03  0.10237253365E+03  0.12700000000E+01 0. -1.
         25    2    1    2    0    0  0.00000000000E+00  0.00000000000E+00 -0.64236437019E+02  0.14052189751E+03  0.12498033381E+03 0.  0.
    9000005    1    3    3    0    0  0.50521088912E+02  0.93059747825E+01 -0.72108489381E+02  0.88541605092E+02  0.10000000000E+01 0.  0.
    9000005    1    3    3    0    0 -0.50521088912E+02 -0.93059747825E+01  0.78720523622E+01  0.51980292418E+02  0.10000000000E+01 0.  0.
<mgrwt>
<rscale>  0 0.12498033E+03</rscale>
<asrwt>0</asrwt>
<pdfrwt beam="2">  1        4 0.15750641E-01 0.12498033E+03</pdfrwt>
<pdfrwt beam="1">  1       -4 0.58681124E-02 0.12498033E+03</pdfrwt>
<totfact> 0.10127267E+04</totfact>
</mgrwt>
</event>
<event>
 5    1  0.3316206E-002  0.1249970E+03  0.7818608E-02  0.1235074E+00
          4   -1    0    0  501    0  0.00000000000E+00  0.00000000000E+00  0.15739901672E+02  0.15791054577E+02  0.12700000000E+01 0.  1.
         -4   -1    0    0    0  501 -0.00000000000E+00 -0.00000000000E+00 -0.24770761901E+03  0.24771087464E+03  0.12700000000E+01 0.  1.
         25    2    1    2    0    0  0.00000000000E+00  0.00000000000E+00 -0.23196771734E+03  0.26350192922E+03  0.12499697922E+03 0.  0.
    9000005    1    3    3    0    0 -0.24389045621E+02 -0.17482924694E+02 -0.43214660615E+00  0.30027736392E+02  0.10000000000E+01 0.  0.
    9000005    1    3    3    0    0  0.24389045621E+02  0.17482924694E+02 -0.23153557073E+03  0.23347419282E+03  0.10000000000E+01 0.  0.
<mgrwt>
<rscale>  0 0.12499698E+03</rscale>
<asrwt>0</asrwt>
<pdfrwt beam="1">  1        4 0.24257088E-02 0.12499698E+03</pdfrwt>
<pdfrwt beam="2">  1       -4 0.38113047E-01 0.12499698E+03</pdfrwt>
<totfact> 0.80422521E+03</totfact>
</mgrwt>
</event>
<event>
 5    1  0.3316206E-002  0.1250015E+03  0.7818608E-02  0.1235067E+00
         -4   -1    0    0    0  501 -0.00000000000E+00  0.00000000000E+00  0.52085410868E+02  0.52100891789E+02  0.12700000000E+01 0.  1.
          4   -1    0    0  501    0  0.00000000000E+00 -0.00000000000E+00 -0.74966820486E+02  0.74977577140E+02  0.12700000000E+01 0.  1.
         25    2    1    2    0    0  0.00000000000E+00  0.00000000000E+00 -0.22881409618E+02  0.12707846893E+03  0.12500151343E+03 0.  0.
    9000005    1    3    3    0    0  0.29319254138E+02 -0.17984665136E+02  0.41601664994E+02  0.53988567063E+02  0.10000000000E+01 0.  0.
    9000005    1    3    3    0    0 -0.29319254138E+02  0.17984665136E+02 -0.64483074613E+02  0.73089901866E+02  0.10000000000E+01 0.  0.
<mgrwt>
<rscale>  0 0.12500151E+03</rscale>
<asrwt>0</asrwt>
<pdfrwt beam="2">  1        4 0.11535375E-01 0.12500151E+03</pdfrwt>
<pdfrwt beam="1">  1       -4 0.80151584E-02 0.12500151E+03</pdfrwt>
<totfact> 0.10407086E+04</totfact>
</mgrwt>
</event>
<event>
 5    1  0.3316206E-002  0.1250063E+03  0.7818608E-02  0.1235060E+00
          4   -1    0    0  501    0  0.00000000000E+00  0.00000000000E+00  0.13495897917E+02  0.13555521405E+02  0.12700000000E+01 0. -1.
         -4   -1    0    0    0  501 -0.00000000000E+00 -0.00000000000E+00 -0.28876971955E+03  0.28877251225E+03  0.12700000000E+01 0. -1.
         25    2    1    2    0    0  0.00000000000E+00  0.00000000000E+00 -0.27527382163E+03  0.30232803365E+03  0.12500625206E+03 0.  0.
    9000005    1    3    3    0    0 -0.17537153902E+02 -0.36328974062E+02 -0.25307566449E+03  0.25627258551E+03  0.10000000000E+01 0.  0.
    9000005    1    3    3    0    0  0.17537153902E+02  0.36328974062E+02 -0.22198157139E+02  0.46055448144E+02  0.10000000000E+01 0.  0.
<mgrwt>
<rscale>  0 0.12500625E+03</rscale>
<asrwt>0</asrwt>
<pdfrwt beam="1">  1        4 0.20810935E-02 0.12500625E+03</pdfrwt>
<pdfrwt beam="2">  1       -4 0.44430907E-01 0.12500625E+03</pdfrwt>
<totfact> 0.75297292E+03</totfact>
</mgrwt>
</event>
<event>
 5    1  0.3316206E-002  0.1249992E+03  0.7818608E-02  0.1235071E+00
          4   -1    0    0  501    0  0.00000000000E+00  0.00000000000E+00  0.57162463348E+02  0.57176569642E+02  0.12700000000E+01 0.  1.
         -4   -1    0    0    0  501 -0.00000000000E+00 -0.00000000000E+00 -0.68306618008E+02  0.68318423311E+02  0.12700000000E+01 0.  1.
         25    2    1    2    0    0  0.00000000000E+00  0.00000000000E+00 -0.11144154660E+02  0.12549499295E+03  0.12499920429E+03 0.  0.
    9000005    1    3    3    0    0  0.32920890532E+02  0.52963943238E+02 -0.15267094308E+01  0.62388261383E+02  0.10000000000E+01 0.  0.
    9000005    1    3    3    0    0 -0.32920890532E+02 -0.52963943238E+02 -0.96174452289E+01  0.63106731570E+02  0.10000000000E+01 0.  0.
<mgrwt>
<rscale>  0 0.12499920E+03</rscale>
<asrwt>0</asrwt>
<pdfrwt beam="1">  1        4 0.87962184E-02 0.12499920E+03</pdfrwt>
<pdfrwt beam="2">  1       -4 0.10510704E-01 0.12499920E+03</pdfrwt>
<totfact> 0.10442252E+04</totfact>
</mgrwt>
</event>
<event>
 5    1  0.3316206E-002  0.1250020E+03  0.7818608E-02  0.1235066E+00
          4   -1    0    0  501    0  0.00000000000E+00  0.00000000000E+00  0.19810201090E+03  0.19810608174E+03  0.12700000000E+01 0.  1.
         -4   -1    0    0    0  501 -0.00000000000E+00 -0.00000000000E+00 -0.19694273044E+02  0.19735179014E+02  0.12700000000E+01 0.  1.
         25    2    1    2    0    0  0.00000000000E+00  0.00000000000E+00  0.17840773785E+03  0.21784126075E+03  0.12500197582E+03 0.  0.
    9000005    1    3    3    0    0  0.61405101677E+02  0.98435170312E+01  0.99931353313E+02  0.11770623057E+03  0.10000000000E+01 0.  0.
    9000005    1    3    3    0    0 -0.61405101677E+02 -0.98435170312E+01  0.78476384539E+02  0.10013503018E+03  0.10000000000E+01 0.  0.
<mgrwt>
<rscale>  0 0.12500198E+03</rscale>
<asrwt>0</asrwt>
<pdfrwt beam="1">  1        4 0.30480692E-01 0.12500198E+03</pdfrwt>
<pdfrwt beam="2">  1       -4 0.30333479E-02 0.12500198E+03</pdfrwt>
<totfact> 0.87207249E+03</totfact>
</mgrwt>
</event>
<event>
 5    1  0.3316206E-002  0.1250022E+03  0.7818608E-02  0.1235066E+00
         -4   -1    0    0    0  501 -0.00000000000E+00  0.00000000000E+00  0.11840375486E+04  0.11840382297E+04  0.12700000000E+01 0. -1.
          4   -1    0    0  501    0  0.00000000000E+00 -0.00000000000E+00 -0.31762806615E+01  0.34207687500E+01  0.12700000000E+01 0. -1.
         25    2    1    2    0    0  0.00000000000E+00  0.00000000000E+00  0.11808612680E+04  0.11874589985E+04  0.12500215553E+03 0.  0.
    9000005    1    3    3    0    0  0.61065104982E+02 -0.10612770266E+02  0.51454937228E+03  0.51826984714E+03  0.10000000000E+01 0.  0.
    9000005    1    3    3    0    0 -0.61065104982E+02  0.10612770266E+02  0.66631189568E+03  0.66918915133E+03  0.10000000000E+01 0.  0.
<mgrwt>
<rscale>  0 0.12500216E+03</rscale>
<asrwt>0</asrwt>
<pdfrwt beam="2">  1        4 0.50751834E-03 0.12500216E+03</pdfrwt>
<pdfrwt beam="1">  1       -4 0.18217826E+00 0.12500216E+03</pdfrwt>
<totfact> 0.25042248E+03</totfact>
</mgrwt>
</event>
<event>
 5    1  0.3316206E-002  0.1249976E+03  0.7818608E-02  0.1235073E+00
          4   -1    0    0  501    0  0.00000000000E+00  0.00000000000E+00  0.19922772551E+01  0.23626401887E+01  0.12700000000E+01 0. -1.
         -4   -1    0    0    0  501 -0.00000000000E+00 -0.00000000000E+00 -0.17935103479E+04  0.17935107976E+04  0.12700000000E+01 0. -1.
         25    2    1    2    0    0  0.00000000000E+00  0.00000000000E+00 -0.17915180706E+04  0.17958734377E+04  0.12499762767E+03 0.  0.
    9000005    1    3    3    0    0  0.45150670314E+02 -0.41661409871E+02 -0.10601029265E+04  0.10618820419E+04  0.10000000000E+01 0.  0.
    9000005    1    3    3    0    0 -0.45150670314E+02  0.41661409871E+02 -0.73141514411E+03  0.73399139582E+03  0.10000000000E+01 0.  0.
<mgrwt>
<rscale>  0 0.12499763E+03</rscale>
<asrwt>0</asrwt>
<pdfrwt beam="1">  1        4 0.33502967E-03 0.12499763E+03</pdfrwt>
<pdfrwt beam="2">  1       -4 0.27595201E+00 0.12499763E+03</pdfrwt>
<totfact> 0.12767953E+03</totfact>
</mgrwt>
</event>
<event>
 5    1  0.3316206E-002  0.1250007E+03  0.7818608E-02  0.1235068E+00
          4   -1    0    0  501    0  0.00000000000E+00  0.00000000000E+00  0.22580839436E+03  0.22581196573E+03  0.12700000000E+01 0.  1.
         -4   -1    0    0    0  501 -0.00000000000E+00 -0.00000000000E+00 -0.17272131826E+02  0.17318759707E+02  0.12700000000E+01 0.  1.
         25    2    1    2    0    0  0.00000000000E+00  0.00000000000E+00  0.20853626254E+03  0.24313072543E+03  0.12500070742E+03 0.  0.
    9000005    1    3    3    0    0  0.26496918011E+02  0.41213119849E+02  0.17971658764E+03  0.18627844691E+03  0.10000000000E+01 0.  0.
    9000005    1    3    3    0    0 -0.26496918011E+02 -0.41213119849E+02  0.28819674902E+02  0.56852278523E+02  0.10000000000E+01 0.  0.
<mgrwt>
<rscale>  0 0.12500071E+03</rscale>
<asrwt>0</asrwt>
<pdfrwt beam="1">  1        4 0.34743614E-01 0.12500071E+03</pdfrwt>
<pdfrwt beam="2">  1       -4 0.26611125E-02 0.12500071E+03</pdfrwt>
<totfact> 0.83331985E+03</totfact>
</mgrwt>
</event>
<event>
 5    1  0.3316206E-002  0.1250028E+03  0.7818608E-02  0.1235065E+00
          4   -1    0    0  501    0  0.00000000000E+00  0.00000000000E+00  0.29358532083E+03  0.29358806772E+03  0.12700000000E+01 0.  1.
         -4   -1    0    0    0  501 -0.00000000000E+00 -0.00000000000E+00 -0.13272803333E+02  0.13333424479E+02  0.12700000000E+01 0.  1.
         25    2    1    2    0    0  0.00000000000E+00  0.00000000000E+00  0.28031251750E+03  0.30692149220E+03  0.12500277960E+03 0.  0.
    9000005    1    3    3    0    0 -0.49575517512E+02 -0.31905837305E+00  0.46738290674E+02  0.68141775365E+02  0.10000000000E+01 0.  0.
    9000005    1    3    3    0    0  0.49575517512E+02  0.31905837305E+00  0.23357422682E+03  0.23877971683E+03  0.10000000000E+01 0.  0.
<mgrwt>
<rscale>  0 0.12500278E+03</rscale>
<asrwt>0</asrwt>
<pdfrwt beam="1">  1        4 0.45171845E-01 0.12500278E+03</pdfrwt>
<pdfrwt beam="2">  1       -4 0.20468443E-02 0.12500278E+03</pdfrwt>
<totfact> 0.74734132E+03</totfact>
</mgrwt>
</event>
<event>
 5    1  0.3316206E-002  0.1249977E+03  0.7818608E-02  0.1235073E+00
         -4   -1    0    0    0  501 -0.00000000000E+00  0.00000000000E+00  0.72858327536E+02  0.72869395437E+02  0.12700000000E+01 0.  1.
          4   -1    0    0  501    0  0.00000000000E+00 -0.00000000000E+00 -0.53589698182E+02  0.53604744671E+02  0.12700000000E+01 0.  1.
         25    2    1    2    0    0  0.00000000000E+00  0.00000000000E+00  0.19268629353E+02  0.12647414011E+03  0.12499771213E+03 0.  0.
    9000005    1    3    3    0    0  0.40626517328E+02 -0.23030423387E+02  0.51648173525E+02  0.69637979150E+02  0.10000000000E+01 0.  0.
    9000005    1    3    3    0    0 -0.40626517328E+02  0.23030423387E+02 -0.32379544172E+02  0.56836160958E+02  0.10000000000E+01 0.  0.
<mgrwt>
<rscale>  0 0.12499771E+03</rscale>
<asrwt>0</asrwt>
<pdfrwt beam="2">  1        4 0.82465777E-02 0.12499771E+03</pdfrwt>
<pdfrwt beam="1">  1       -4 0.11210982E-01 0.12499771E+03</pdfrwt>
<totfact> 0.10421130E+04</totfact>
</mgrwt>
</event>
<event>
 5    1  0.3316206E-002  0.1249988E+03  0.7818608E-02  0.1235071E+00
         -4   -1    0    0    0  501 -0.00000000000E+00  0.00000000000E+00  0.54495719469E+02  0.54510515871E+02  0.12700000000E+01 0. -1.
          4   -1    0    0  501    0  0.00000000000E+00 -0.00000000000E+00 -0.71648369749E+02  0.71659624530E+02  0.12700000000E+01 0. -1.
         25    2    1    2    0    0  0.00000000000E+00  0.00000000000E+00 -0.17152650280E+02  0.12617014040E+03  0.12499876366E+03 0.  0.
    9000005    1    3    3    0    0 -0.29528686744E+02 -0.40223416228E+02  0.29396776317E+02  0.57922681324E+02  0.10000000000E+01 0.  0.
    9000005    1    3    3    0    0  0.29528686744E+02  0.40223416228E+02 -0.46549426597E+02  0.68247459076E+02  0.10000000000E+01 0.  0.
<mgrwt>
<rscale>  0 0.12499876E+03</rscale>
<asrwt>0</asrwt>
<pdfrwt beam="2">  1        4 0.11024830E-01 0.12499876E+03</pdfrwt>
<pdfrwt beam="1">  1       -4 0.83859608E-02 0.12499876E+03</pdfrwt>
<totfact> 0.10427523E+04</totfact>
</mgrwt>
</event>
<event>
 5    1  0.3316206E-002  0.1250071E+03  0.7818608E-02  0.1235058E+00
          4   -1    0    0  501    0  0.00000000000E+00  0.00000000000E+00  0.28890008986E+02  0.28917910007E+02  0.12700000000E+01 0.  1.
         -4   -1    0    0    0  501 -0.00000000000E+00 -0.00000000000E+00 -0.13513028616E+03  0.13513625398E+03  0.12700000000E+01 0.  1.
         25    2    1    2    0    0  0.00000000000E+00  0.00000000000E+00 -0.10624027718E+03  0.16405416398E+03  0.12500708870E+03 0.  0.
    9000005    1    3    3    0    0  0.22097148219E+02 -0.29581249107E+02  0.13051370307E+02  0.39174896618E+02  0.10000000000E+01 0.  0.
    9000005    1    3    3    0    0 -0.22097148219E+02  0.29581249107E+02 -0.11929164749E+03  0.12487926737E+03  0.10000000000E+01 0.  0.
<mgrwt>
<rscale>  0 0.12500709E+03</rscale>
<asrwt>0</asrwt>
<pdfrwt beam="1">  1        4 0.44472221E-02 0.12500709E+03</pdfrwt>
<pdfrwt beam="2">  1       -4 0.20791880E-01 0.12500709E+03</pdfrwt>
<totfact> 0.96551441E+03</totfact>
</mgrwt>
</event>
<event>
 5    1  0.3316206E-002  0.1249995E+03  0.7818608E-02  0.1235070E+00
          4   -1    0    0  501    0  0.00000000000E+00  0.00000000000E+00  0.22534835399E+03  0.22535193264E+03  0.12700000000E+01 0. -1.
         -4   -1    0    0    0  501 -0.00000000000E+00 -0.00000000000E+00 -0.17307148727E+02  0.17353682522E+02  0.12700000000E+01 0. -1.
         25    2    1    2    0    0  0.00000000000E+00  0.00000000000E+00  0.20804120526E+03  0.24270561516E+03  0.12499949018E+03 0.  0.
    9000005    1    3    3    0    0  0.57324681587E+02 -0.17435923998E+02  0.69554893459E+02  0.91809660542E+02  0.10000000000E+01 0.  0.
    9000005    1    3    3    0    0 -0.57324681587E+02  0.17435923998E+02  0.13848631180E+03  0.15089595462E+03  0.10000000000E+01 0.  0.
<mgrwt>
<rscale>  0 0.12499949E+03</rscale>
<asrwt>0</asrwt>
<pdfrwt beam="1">  1        4 0.34672833E-01 0.12499949E+03</pdfrwt>
<pdfrwt beam="2">  1       -4 0.26664930E-02 0.12499949E+03</pdfrwt>
<totfact> 0.83397003E+03</totfact>
</mgrwt>
</event>
<event>
 5    1  0.3316206E-002  0.1250030E+03  0.7818608E-02  0.1235065E+00
          4   -1    0    0  501    0  0.00000000000E+00  0.00000000000E+00  0.87473526094E+01  0.88390654298E+01  0.12700000000E+01 0. -1.
         -4   -1    0    0    0  501 -0.00000000000E+00 -0.00000000000E+00 -0.44416322159E+03  0.44416503724E+03  0.12700000000E+01 0. -1.
         25    2    1    2    0    0  0.00000000000E+00  0.00000000000E+00 -0.43541586898E+03  0.45300410267E+03  0.12500295229E+03 0.  0.
    9000005    1    3    3    0    0  0.57889650198E+02 -0.17112754304E+02 -0.15911905603E+03  0.17018793128E+03  0.10000000000E+01 0.  0.
    9000005    1    3    3    0    0 -0.57889650198E+02  0.17112754304E+02 -0.27629681294E+03  0.28281617139E+03  0.10000000000E+01 0.  0.
<mgrwt>
<rscale>  0 0.12500295E+03</rscale>
<asrwt>0</asrwt>
<pdfrwt beam="1">  1        4 0.13529414E-02 0.12500295E+03</pdfrwt>
<pdfrwt beam="2">  1       -4 0.68339980E-01 0.12500295E+03</pdfrwt>
<totfact> 0.59700556E+03</totfact>
</mgrwt>
</event>
<event>
 5    1  0.3316206E-002  0.1250006E+03  0.7818608E-02  0.1235068E+00
         -4   -1    0    0    0  501 -0.00000000000E+00  0.00000000000E+00  0.86543225889E+02  0.86552543852E+02  0.12700000000E+01 0. -1.
          4   -1    0    0  501    0  0.00000000000E+00 -0.00000000000E+00 -0.45116127714E+02  0.45133999157E+02  0.12700000000E+01 0. -1.
         25    2    1    2    0    0  0.00000000000E+00  0.00000000000E+00  0.41427098175E+02  0.13168654301E+03  0.12500056458E+03 0.  0.
    9000005    1    3    3    0    0 -0.59323474200E+02 -0.46545709715E+01  0.40822352357E+02  0.72169273754E+02  0.10000000000E+01 0.  0.
    9000005    1    3    3    0    0  0.59323474200E+02  0.46545709715E+01  0.60474581811E+00  0.59517269256E+02  0.10000000000E+01 0.  0.
<mgrwt>
<rscale>  0 0.12500056E+03</rscale>
<asrwt>0</asrwt>
<pdfrwt beam="2">  1        4 0.69430343E-02 0.12500056E+03</pdfrwt>
<pdfrwt beam="1">  1       -4 0.13316434E-01 0.12500056E+03</pdfrwt>
<totfact> 0.10308262E+04</totfact>
</mgrwt>
</event>
<event>
 5    1  0.3316206E-002  0.1249976E+03  0.7818608E-02  0.1235073E+00
         -4   -1    0    0    0  501 -0.00000000000E+00  0.00000000000E+00  0.65112519204E+02  0.65124903509E+02  0.12700000000E+01 0.  1.
          4   -1    0    0  501    0  0.00000000000E+00 -0.00000000000E+00 -0.59965189392E+02  0.59978636521E+02  0.12700000000E+01 0.  1.
         25    2    1    2    0    0  0.00000000000E+00  0.00000000000E+00  0.51473298111E+01  0.12510354003E+03  0.12499760287E+03 0.  0.
    9000005    1    3    3    0    0 -0.21862523916E+02 -0.55599281254E+01  0.60900130150E+02  0.64951586625E+02  0.10000000000E+01 0.  0.
    9000005    1    3    3    0    0  0.21862523916E+02  0.55599281254E+01 -0.55752800339E+02  0.60151953405E+02  0.10000000000E+01 0.  0.
<mgrwt>
<rscale>  0 0.12499760E+03</rscale>
<asrwt>0</asrwt>
<pdfrwt beam="2">  1        4 0.92274008E-02 0.12499760E+03</pdfrwt>
<pdfrwt beam="1">  1       -4 0.10019298E-01 0.12499760E+03</pdfrwt>
<totfact> 0.10451180E+04</totfact>
</mgrwt>
</event>
<event>
 5    1  0.3316206E-002  0.1249954E+03  0.7818608E-02  0.1235076E+00
          4   -1    0    0  501    0  0.00000000000E+00  0.00000000000E+00  0.15665113634E+03  0.15665628432E+03  0.12700000000E+01 0. -1.
         -4   -1    0    0    0  501 -0.00000000000E+00 -0.00000000000E+00 -0.24912430438E+02  0.24944780824E+02  0.12700000000E+01 0. -1.
         25    2    1    2    0    0  0.00000000000E+00  0.00000000000E+00  0.13173870590E+03  0.18160106514E+03  0.12499544083E+03 0.  0.
    9000005    1    3    3    0    0 -0.44080319348E+02 -0.43821777862E+02  0.75233525898E+02  0.97593576570E+02  0.10000000000E+01 0.  0.
    9000005    1    3    3    0    0  0.44080319348E+02  0.43821777862E+02  0.56505180001E+02  0.84007488570E+02  0.10000000000E+01 0.  0.
<mgrwt>
<rscale>  0 0.12499544E+03</rscale>
<asrwt>0</asrwt>
<pdfrwt beam="1">  1        4 0.24103060E-01 0.12499544E+03</pdfrwt>
<pdfrwt beam="2">  1       -4 0.38355660E-02 0.12499544E+03</pdfrwt>
<totfact> 0.93339137E+03</totfact>
</mgrwt>
</event>
<event>
 5    1  0.3316206E-002  0.1250005E+03  0.7818608E-02  0.1235069E+00
          4   -1    0    0  501    0  0.00000000000E+00  0.00000000000E+00  0.61657412146E+02  0.61670490290E+02  0.12700000000E+01 0.  1.
         -4   -1    0    0    0  501 -0.00000000000E+00 -0.00000000000E+00 -0.63328427063E+02  0.63341160191E+02  0.12700000000E+01 0.  1.
         25    2    1    2    0    0  0.00000000000E+00  0.00000000000E+00 -0.16710149168E+01  0.12501165048E+03  0.12500048186E+03 0.  0.
    9000005    1    3    3    0    0 -0.25214973572E+02 -0.27961657693E+02  0.49045104764E+02  0.61839077407E+02  0.10000000000E+01 0.  0.
    9000005    1    3    3    0    0  0.25214973572E+02  0.27961657693E+02 -0.50716119681E+02  0.63172573074E+02  0.10000000000E+01 0.  0.
<mgrwt>
<rscale>  0 0.12500048E+03</rscale>
<asrwt>0</asrwt>
<pdfrwt beam="1">  1        4 0.94877413E-02 0.12500048E+03</pdfrwt>
<pdfrwt beam="2">  1       -4 0.97448203E-02 0.12500048E+03</pdfrwt>
<totfact> 0.10452496E+04</totfact>
</mgrwt>
</event>
<event>
 5    1  0.3316206E-002  0.1250541E+03  0.7818608E-02  0.1234985E+00
          4   -1    0    0  501    0  0.00000000000E+00  0.00000000000E+00  0.42072322823E+02  0.42091486642E+02  0.12700000000E+01 0.  1.
         -4   -1    0    0    0  501 -0.00000000000E+00 -0.00000000000E+00 -0.92881857829E+02  0.92890539958E+02  0.12700000000E+01 0.  1.
         25    2    1    2    0    0  0.00000000000E+00  0.00000000000E+00 -0.50809535006E+02  0.13498202660E+03  0.12505414290E+03 0.  0.
    9000005    1    3    3    0    0 -0.95869168049E+01  0.61500238286E+02 -0.19069723107E+02  0.65106394636E+02  0.10000000000E+01 0.  0.
    9000005    1    3    3    0    0  0.95869168049E+01 -0.61500238286E+02 -0.31739811898E+02  0.69875631964E+02  0.10000000000E+01 0.  0.
<mgrwt>
<rscale>  0 0.12505414E+03</rscale>
<asrwt>0</asrwt>
<pdfrwt beam="1">  1        4 0.64748071E-02 0.12505414E+03</pdfrwt>
<pdfrwt beam="2">  1       -4 0.14291659E-01 0.12505414E+03</pdfrwt>
<totfact> 0.10225958E+04</totfact>
</mgrwt>
</event>
<event>
 5    1  0.3316206E-002  0.1250008E+03  0.7818608E-02  0.1235068E+00
          4   -1    0    0  501    0  0.00000000000E+00  0.00000000000E+00  0.21196724610E+03  0.21197105066E+03  0.12700000000E+01 0. -1.
         -4   -1    0    0    0  501 -0.00000000000E+00 -0.00000000000E+00 -0.18402933786E+02  0.18446703551E+02  0.12700000000E+01 0. -1.
         25    2    1    2    0    0  0.00000000000E+00  0.00000000000E+00  0.19356431231E+03  0.23041775422E+03  0.12500079382E+03 0.  0.
    9000005    1    3    3    0    0  0.27329351027E+02  0.24791113518E+01  0.20027592374E+03  0.20214966003E+03  0.10000000000E+01 0.  0.
    9000005    1    3    3    0    0 -0.27329351027E+02 -0.24791113518E+01 -0.67116114282E+01  0.28268094181E+02  0.10000000000E+01 0.  0.
<mgrwt>
<rscale>  0 0.12500079E+03</rscale>
<asrwt>0</asrwt>
<pdfrwt beam="1">  1        4 0.32614003E-01 0.12500079E+03</pdfrwt>
<pdfrwt beam="2">  1       -4 0.28348803E-02 0.12500079E+03</pdfrwt>
<totfact> 0.85243983E+03</totfact>
</mgrwt>
</event>
<event>
 4    1  0.3316206E-002  0.1255071E+03  0.7818608E-02  0.1234279E+00
          4   -1    0    0  501    0  0.00000000000E+00  0.00000000000E+00  0.12975291005E+03  0.12975912518E+03  0.12700000000E+01 0.  1.
         -4   -1    0    0    0  501 -0.00000000000E+00 -0.00000000000E+00 -0.30329840821E+02  0.30356418501E+02  0.12700000000E+01 0.  1.
    9000005    1    1    2    0    0 -0.23394108018E+02 -0.38871339933E+02 -0.55851353623E+01  0.45721538635E+02  0.10000000000E+01 0.  0.
    9000005    1    1    2    0    0  0.23394108018E+02  0.38871339933E+02  0.10500820459E+03  0.11439400505E+03  0.10000000000E+01 0.  0.
<mgrwt>
<rscale>  0 0.12550713E+03</rscale>
<asrwt>0</asrwt>
<pdfrwt beam="1">  1        4 0.19964509E-01 0.12550713E+03</pdfrwt>
<pdfrwt beam="2">  1       -4 0.46686518E-02 0.12550713E+03</pdfrwt>
<totfact> 0.96219426E+03</totfact>
</mgrwt>
</event>
<event>
 5    1  0.3316206E-002  0.1250002E+03  0.7818608E-02  0.1235069E+00
          4   -1    0    0  501    0  0.00000000000E+00  0.00000000000E+00  0.11110436058E+02  0.11182785404E+02  0.12700000000E+01 0.  1.
         -4   -1    0    0    0  501 -0.00000000000E+00 -0.00000000000E+00 -0.35037064153E+03  0.35037294322E+03  0.12700000000E+01 0.  1.
         25    2    1    2    0    0  0.00000000000E+00  0.00000000000E+00 -0.33926020547E+03  0.36155572863E+03  0.12500023156E+03 0.  0.
    9000005    1    3    3    0    0  0.30653355403E+02  0.36519561507E+02 -0.52782742537E+02  0.71135957714E+02  0.10000000000E+01 0.  0.
    9000005    1    3    3    0    0 -0.30653355403E+02 -0.36519561507E+02 -0.28647746293E+03  0.29041977091E+03  0.10000000000E+01 0.  0.
<mgrwt>
<rscale>  0 0.12500023E+03</rscale>
<asrwt>0</asrwt>
<pdfrwt beam="1">  1        4 0.17150405E-02 0.12500023E+03</pdfrwt>
<pdfrwt beam="2">  1       -4 0.53908910E-01 0.12500023E+03</pdfrwt>
<totfact> 0.68471370E+03</totfact>
</mgrwt>
</event>
<event>
 5    1  0.3316206E-002  0.1250010E+03  0.7818608E-02  0.1235068E+00
          4   -1    0    0  501    0  0.00000000000E+00  0.00000000000E+00  0.12411208977E+03  0.12411858736E+03  0.12700000000E+01 0. -1.
         -4   -1    0    0    0  501 -0.00000000000E+00 -0.00000000000E+00 -0.31453941428E+02  0.31479570063E+02  0.12700000000E+01 0. -1.
         25    2    1    2    0    0  0.00000000000E+00  0.00000000000E+00  0.92658148344E+02  0.15559815742E+03  0.12500101655E+03 0.  0.
    9000005    1    3    3    0    0  0.29121083247E+02  0.12653888312E+02 -0.20671231194E+02  0.37900635588E+02  0.10000000000E+01 0.  0.
    9000005    1    3    3    0    0 -0.29121083247E+02 -0.12653888312E+02  0.11332937954E+03  0.11769752183E+03  0.10000000000E+01 0.  0.
<mgrwt>
<rscale>  0 0.12500102E+03</rscale>
<asrwt>0</asrwt>
<pdfrwt beam="1">  1        4 0.19096639E-01 0.12500102E+03</pdfrwt>
<pdfrwt beam="2">  1       -4 0.48415392E-02 0.12500102E+03</pdfrwt>
<totfact> 0.98195956E+03</totfact>
</mgrwt>
</event>
<event>
 5    1  0.3316206E-002  0.1250209E+03  0.7818608E-02  0.1235037E+00
          4   -1    0    0  501    0  0.00000000000E+00  0.00000000000E+00  0.20592373483E+03  0.20592765105E+03  0.12700000000E+01 0.  1.
         -4   -1    0    0    0  501 -0.00000000000E+00 -0.00000000000E+00 -0.18950397066E+02  0.18992905227E+02  0.12700000000E+01 0.  1.
         25    2    1    2    0    0  0.00000000000E+00  0.00000000000E+00  0.18697333777E+03  0.22492055628E+03  0.12502090865E+03 0.  0.
    9000005    1    3    3    0    0 -0.55359584783E+02  0.26323029770E+02  0.11544492839E+03  0.13071387461E+03  0.10000000000E+01 0.  0.
    9000005    1    3    3    0    0  0.55359584783E+02 -0.26323029770E+02  0.71528409374E+02  0.94206681669E+02  0.10000000000E+01 0.  0.
<mgrwt>
<rscale>  0 0.12502091E+03</rscale>
<asrwt>0</asrwt>
<pdfrwt beam="1">  1        4 0.31684147E-01 0.12502091E+03</pdfrwt>
<pdfrwt beam="2">  1       -4 0.29190167E-02 0.12502091E+03</pdfrwt>
<totfact> 0.86055493E+03</totfact>
</mgrwt>
</event>
<event>
 5    1  0.3316206E-002  0.1250052E+03  0.7818608E-02  0.1235061E+00
         -4   -1    0    0    0  501 -0.00000000000E+00  0.00000000000E+00  0.13459516395E+03  0.13460115549E+03  0.12700000000E+01 0.  1.
          4   -1    0    0  501    0  0.00000000000E+00 -0.00000000000E+00 -0.29004086939E+02  0.29031878326E+02  0.12700000000E+01 0.  1.
         25    2    1    2    0    0  0.00000000000E+00  0.00000000000E+00  0.10559107701E+03  0.16363303381E+03  0.12500517674E+03 0.  0.
    9000005    1    3    3    0    0 -0.28613854590E+02  0.38070325957E+02  0.10576551909E+03  0.11599761818E+03  0.10000000000E+01 0.  0.
    9000005    1    3    3    0    0  0.28613854590E+02 -0.38070325957E+02 -0.17444208396E+00  0.47635415638E+02  0.10000000000E+01 0.  0.
<mgrwt>
<rscale>  0 0.12500518E+03</rscale>
<asrwt>0</asrwt>
<pdfrwt beam="2">  1        4 0.44647658E-02 0.12500518E+03</pdfrwt>
<pdfrwt beam="1">  1       -4 0.20709547E-01 0.12500518E+03</pdfrwt>
<totfact> 0.96635661E+03</totfact>
</mgrwt>
</event>
<event>
 5    1  0.3316206E-002  0.1249974E+03  0.7818608E-02  0.1235073E+00
          4   -1    0    0  501    0  0.00000000000E+00  0.00000000000E+00  0.11638805766E+03  0.11639498643E+03  0.12700000000E+01 0.  1.
         -4   -1    0    0    0  501 -0.00000000000E+00 -0.00000000000E+00 -0.33540949851E+02  0.33564984983E+02  0.12700000000E+01 0.  1.
         25    2    1    2    0    0  0.00000000000E+00  0.00000000000E+00  0.82847107811E+02  0.14995997141E+03  0.12499739899E+03 0.  0.
    9000005    1    3    3    0    0 -0.52284058044E+02  0.31872418038E+02  0.56389296156E+02  0.83247981826E+02  0.10000000000E+01 0.  0.
    9000005    1    3    3    0    0  0.52284058044E+02 -0.31872418038E+02  0.26457811655E+02  0.66711989588E+02  0.10000000000E+01 0.  0.
<mgrwt>
<rscale>  0 0.12499740E+03</rscale>
<asrwt>0</asrwt>
<pdfrwt beam="1">  1        4 0.17908237E-01 0.12499740E+03</pdfrwt>
<pdfrwt beam="2">  1       -4 0.51625280E-02 0.12499740E+03</pdfrwt>
<totfact> 0.99317491E+03</totfact>
</mgrwt>
</event>
<event>
 5    1  0.3316206E-002  0.1250022E+03  0.7818608E-02  0.1235066E+00
          4   -1    0    0  501    0  0.00000000000E+00  0.00000000000E+00  0.41114280967E+02  0.41133891129E+02  0.12700000000E+01 0. -1.
         -4   -1    0    0    0  501 -0.00000000000E+00 -0.00000000000E+00 -0.94966456491E+02  0.94974948058E+02  0.12700000000E+01 0. -1.
         25    2    1    2    0    0  0.00000000000E+00  0.00000000000E+00 -0.53852175525E+02  0.13610883919E+03  0.12500223716E+03 0.  0.
    9000005    1    3    3    0    0  0.91568982906E+01  0.29626203664E+02  0.32151783898E+02  0.44679950063E+02  0.10000000000E+01 0.  0.
    9000005    1    3    3    0    0 -0.91568982906E+01 -0.29626203664E+02 -0.86003959423E+02  0.91428889123E+02  0.10000000000E+01 0.  0.
<mgrwt>
<rscale>  0 0.12500224E+03</rscale>
<asrwt>0</asrwt>
<pdfrwt beam="1">  1        4 0.63274357E-02 0.12500224E+03</pdfrwt>
<pdfrwt beam="2">  1       -4 0.14612386E-01 0.12500224E+03</pdfrwt>
<totfact> 0.10214237E+04</totfact>
</mgrwt>
</event>
<event>
 4    1  0.3316206E-002  0.1249056E+03  0.7818608E-02  0.1235217E+00
         -4   -1    0    0    0  501 -0.00000000000E+00  0.00000000000E+00  0.36846277186E+03  0.36846496054E+03  0.12700000000E+01 0.  1.
          4   -1    0    0  501    0  0.00000000000E+00 -0.00000000000E+00 -0.10545153848E+02  0.10621354418E+02  0.12700000000E+01 0.  1.
    9000005    1    1    2    0    0  0.24695492864E+02  0.23125644645E+02  0.33825028643E+03  0.33993958151E+03  0.10000000000E+01 0.  0.
    9000005    1    1    2    0    0 -0.24695492864E+02 -0.23125644645E+02  0.19667331579E+02  0.39146733445E+02  0.10000000000E+01 0.  0.
<mgrwt>
<rscale>  0 0.12490562E+03</rscale>
<asrwt>0</asrwt>
<pdfrwt beam="2">  1        4 0.16283613E-02 0.12490562E+03</pdfrwt>
<pdfrwt beam="1">  1       -4 0.56692611E-01 0.12490562E+03</pdfrwt>
<totfact> 0.66778110E+03</totfact>
</mgrwt>
</event>
<event>
 5    1  0.3316206E-002  0.1250039E+03  0.7818608E-02  0.1235063E+00
          4   -1    0    0  501    0  0.00000000000E+00  0.00000000000E+00  0.98737200141E+01  0.99550613718E+01  0.12700000000E+01 0. -1.
         -4   -1    0    0    0  501 -0.00000000000E+00 -0.00000000000E+00 -0.39394049004E+03  0.39394253717E+03  0.12700000000E+01 0. -1.
         25    2    1    2    0    0  0.00000000000E+00  0.00000000000E+00 -0.38406677003E+03  0.40389759855E+03  0.12500394502E+03 0.  0.
    9000005    1    3    3    0    0  0.25747930912E+02 -0.35335955166E+02 -0.47755281546E+02  0.64754556513E+02  0.10000000000E+01 0.  0.
    9000005    1    3    3    0    0 -0.25747930912E+02  0.35335955166E+02 -0.33631148848E+03  0.33914304203E+03  0.10000000000E+01 0.  0.
<mgrwt>
<rscale>  0 0.12500395E+03</rscale>
<asrwt>0</asrwt>
<pdfrwt beam="1">  1        4 0.15254487E-02 0.12500395E+03</pdfrwt>
<pdfrwt beam="2">  1       -4 0.60612632E-01 0.12500395E+03</pdfrwt>
<totfact> 0.64169888E+03</totfact>
</mgrwt>
</event>
<event>
 5    1  0.3316206E-002  0.1250001E+03  0.7818608E-02  0.1235069E+00
         -4   -1    0    0    0  501 -0.00000000000E+00  0.00000000000E+00  0.71265086012E+01  0.72387861443E+01  0.12700000000E+01 0.  1.
          4   -1    0    0  501    0  0.00000000000E+00 -0.00000000000E+00 -0.54373339524E+03  0.54373487841E+03  0.12700000000E+01 0.  1.
         25    2    1    2    0    0  0.00000000000E+00  0.00000000000E+00 -0.53660688664E+03  0.55097366455E+03  0.12500011298E+03 0.  0.
    9000005    1    3    3    0    0 -0.34229795831E+02 -0.51633661494E+02 -0.30452866532E+03  0.31076747243E+03  0.10000000000E+01 0.  0.
    9000005    1    3    3    0    0  0.34229795831E+02  0.51633661494E+02 -0.23207822132E+03  0.24020619212E+03  0.10000000000E+01 0.  0.
<mgrwt>
<rscale>  0 0.12500011E+03</rscale>
<asrwt>0</asrwt>
<pdfrwt beam="2">  1        4 0.83660010E-01 0.12500011E+03</pdfrwt>
<pdfrwt beam="1">  1       -4 0.11051372E-02 0.12500011E+03</pdfrwt>
<totfact> 0.52116016E+03</totfact>
</mgrwt>
</event>
<event>
 4    1  0.3316206E-002  0.1249115E+03  0.7818608E-02  0.1235208E+00
         -4   -1    0    0    0  501 -0.00000000000E+00  0.00000000000E+00  0.39268481469E+02  0.39289012929E+02  0.12700000000E+01 0. -1.
          4   -1    0    0  501    0  0.00000000000E+00 -0.00000000000E+00 -0.99284145111E+02  0.99292267425E+02  0.12700000000E+01 0. -1.
    9000005    1    1    2    0    0 -0.48022699852E+02  0.30630809172E+02 -0.16076573104E+01  0.56991321564E+02  0.10000000000E+01 0.  0.
    9000005    1    1    2    0    0  0.48022699852E+02 -0.30630809172E+02 -0.58408006331E+02  0.81589958789E+02  0.10000000000E+01 0.  0.
<mgrwt>
<rscale>  0 0.12491153E+03</rscale>
<asrwt>0</asrwt>
<pdfrwt beam="2">  1        4 0.15276688E-01 0.12491153E+03</pdfrwt>
<pdfrwt beam="1">  1       -4 0.60435090E-02 0.12491153E+03</pdfrwt>
<totfact> 0.10183360E+04</totfact>
</mgrwt>
</event>
<event>
 5    1  0.3316206E-002  0.1249980E+03  0.7818608E-02  0.1235072E+00
          4   -1    0    0  501    0  0.00000000000E+00  0.00000000000E+00  0.26105167289E+03  0.26105476211E+03  0.12700000000E+01 0.  1.
         -4   -1    0    0    0  501 -0.00000000000E+00 -0.00000000000E+00 -0.14932903688E+02  0.14986811287E+02  0.12700000000E+01 0.  1.
         25    2    1    2    0    0  0.00000000000E+00  0.00000000000E+00  0.24611876920E+03  0.27604157339E+03  0.12499800674E+03 0.  0.
    9000005    1    3    3    0    0 -0.12525101548E+02 -0.49929324555E+02  0.44816137278E+02  0.68259078369E+02  0.10000000000E+01 0.  0.
    9000005    1    3    3    0    0  0.12525101548E+02  0.49929324555E+02  0.20130263192E+03  0.20778249503E+03  0.10000000000E+01 0.  0.
<mgrwt>
<rscale>  0 0.12499801E+03</rscale>
<asrwt>0</asrwt>
<pdfrwt beam="1">  1        4 0.40166178E-01 0.12499801E+03</pdfrwt>
<pdfrwt beam="2">  1       -4 0.23017543E-02 0.12499801E+03</pdfrwt>
<totfact> 0.78709397E+03</totfact>
</mgrwt>
</event>
<event>
 5    1  0.3316206E-002  0.1250059E+03  0.7818608E-02  0.1235060E+00
         -4   -1    0    0    0  501 -0.00000000000E+00  0.00000000000E+00  0.11990303984E+02  0.12057374906E+02  0.12700000000E+01 0.  1.
          4   -1    0    0  501    0  0.00000000000E+00 -0.00000000000E+00 -0.32483758028E+03  0.32484006290E+03  0.12700000000E+01 0.  1.
         25    2    1    2    0    0  0.00000000000E+00  0.00000000000E+00 -0.31284727630E+03  0.33689743780E+03  0.12500586111E+03 0.  0.
    9000005    1    3    3    0    0  0.22212663837E+02  0.16834301415E+02 -0.30717374707E+03  0.30843720111E+03  0.10000000000E+01 0.  0.
    9000005    1    3    3    0    0 -0.22212663837E+02 -0.16834301415E+02 -0.56735292294E+01  0.28460236696E+02  0.10000000000E+01 0.  0.
<mgrwt>
<rscale>  0 0.12500586E+03</rscale>
<asrwt>0</asrwt>
<pdfrwt beam="2">  1        4 0.49980356E-01 0.12500586E+03</pdfrwt>
<pdfrwt beam="1">  1       -4 0.18500127E-02 0.12500586E+03</pdfrwt>
<totfact> 0.71181228E+03</totfact>
</mgrwt>
</event>
<event>
 5    1  0.3316206E-002  0.1249984E+03  0.7818608E-02  0.1235072E+00
         -4   -1    0    0    0  501 -0.00000000000E+00  0.00000000000E+00  0.53724934707E+02  0.53739943331E+02  0.12700000000E+01 0. -1.
          4   -1    0    0  501    0  0.00000000000E+00 -0.00000000000E+00 -0.72675704897E+02  0.72686800606E+02  0.12700000000E+01 0. -1.
         25    2    1    2    0    0  0.00000000000E+00  0.00000000000E+00 -0.18950770190E+02  0.12642674394E+03  0.12499835956E+03 0.  0.
    9000005    1    3    3    0    0 -0.14283008800E+02 -0.21929021751E+01 -0.70967617720E+02  0.72430766427E+02  0.10000000000E+01 0.  0.
    9000005    1    3    3    0    0  0.14283008800E+02  0.21929021751E+01  0.52016847530E+02  0.53995977510E+02  0.10000000000E+01 0.  0.
<mgrwt>
<rscale>  0 0.12499836E+03</rscale>
<asrwt>0</asrwt>
<pdfrwt beam="2">  1        4 0.11182886E-01 0.12499836E+03</pdfrwt>
<pdfrwt beam="1">  1       -4 0.82673826E-02 0.12499836E+03</pdfrwt>
<totfact> 0.10422012E+04</totfact>
</mgrwt>
</event>
<event>
 5    1  0.3316206E-002  0.1250057E+03  0.7818608E-02  0.1235060E+00
          4   -1    0    0  501    0  0.00000000000E+00  0.00000000000E+00  0.20894192325E+02  0.20932753592E+02  0.12700000000E+01 0. -1.
         -4   -1    0    0    0  501 -0.00000000000E+00 -0.00000000000E+00 -0.18675773508E+03  0.18676205319E+03  0.12700000000E+01 0. -1.
         25    2    1    2    0    0  0.00000000000E+00  0.00000000000E+00 -0.16586354276E+03  0.20769480679E+03  0.12500567167E+03 0.  0.
    9000005    1    3    3    0    0  0.48945742707E+02 -0.22475462975E+02 -0.30265842141E+02  0.61788780256E+02  0.10000000000E+01 0.  0.
    9000005    1    3    3    0    0 -0.48945742707E+02  0.22475462975E+02 -0.13559770062E+03  0.14590602653E+03  0.10000000000E+01 0.  0.
<mgrwt>
<rscale>  0 0.12500567E+03</rscale>
<asrwt>0</asrwt>
<pdfrwt beam="1">  1        4 0.32177897E-02 0.12500567E+03</pdfrwt>
<pdfrwt beam="2">  1       -4 0.28735257E-01 0.12500567E+03</pdfrwt>
<totfact> 0.88842471E+03</totfact>
</mgrwt>
</event>
<event>
 5    1  0.3316206E-002  0.1249997E+03  0.7818608E-02  0.1235070E+00
          4   -1    0    0  501    0  0.00000000000E+00  0.00000000000E+00  0.26874327953E+02  0.26904319410E+02  0.12700000000E+01 0. -1.
         -4   -1    0    0    0  501 -0.00000000000E+00 -0.00000000000E+00 -0.14523788739E+03  0.14524343990E+03  0.12700000000E+01 0. -1.
         25    2    1    2    0    0  0.00000000000E+00  0.00000000000E+00 -0.11836355944E+03  0.17214775931E+03  0.12499967533E+03 0.  0.
    9000005    1    3    3    0    0 -0.55100389759E+00 -0.17119566658E+02 -0.14194876452E+03  0.14298193913E+03  0.10000000000E+01 0.  0.
    9000005    1    3    3    0    0  0.55100389759E+00  0.17119566658E+02  0.23585205085E+02  0.29165820180E+02  0.10000000000E+01 0.  0.
<mgrwt>
<rscale>  0 0.12499968E+03</rscale>
<asrwt>0</asrwt>
<pdfrwt beam="1">  1        4 0.41372462E-02 0.12499968E+03</pdfrwt>
<pdfrwt beam="2">  1       -4 0.22347024E-01 0.12499968E+03</pdfrwt>
<totfact> 0.95050525E+03</totfact>
</mgrwt>
</event>
<event>
 4    1  0.3316206E-002  0.1245303E+03  0.7818608E-02  0.1235805E+00
         -4   -1    0    0    0  501 -0.00000000000E+00  0.00000000000E+00  0.27054475490E+03  0.27054773572E+03  0.12700000000E+01 0. -1.
          4   -1    0    0  501    0  0.00000000000E+00 -0.00000000000E+00 -0.14298960990E+02  0.14355249402E+02  0.12700000000E+01 0. -1.
    9000005    1    1    2    0    0 -0.12248445494E+01 -0.28529766983E+02  0.15565446814E+01  0.28615916543E+02  0.10000000000E+01 0.  0.
    9000005    1    1    2    0    0  0.12248445494E+01  0.28529766983E+02  0.25468924923E+03  0.25628706858E+03  0.10000000000E+01 0.  0.
<mgrwt>
<rscale>  0 0.12453033E+03</rscale>
<asrwt>0</asrwt>
<pdfrwt beam="2">  1        4 0.22043993E-02 0.12453033E+03</pdfrwt>
<pdfrwt beam="1">  1       -4 0.41626829E-01 0.12453033E+03</pdfrwt>
<totfact> 0.78347225E+03</totfact>
</mgrwt>
</event>
<event>
 5    1  0.3316206E-002  0.1250000E+03  0.7818608E-02  0.1235069E+00
          4   -1    0    0  501    0  0.00000000000E+00  0.00000000000E+00  0.61998235667E+03  0.61998365743E+03  0.12700000000E+01 0.  1.
         -4   -1    0    0    0  501 -0.00000000000E+00 -0.00000000000E+00 -0.62352687044E+01  0.63632912723E+01  0.12700000000E+01 0.  1.
         25    2    1    2    0    0  0.00000000000E+00  0.00000000000E+00  0.61374708797E+03  0.62634694871E+03  0.12500004866E+03 0.  0.
    9000005    1    3    3    0    0 -0.56899997546E+00 -0.50259128643E+02  0.12080244258E+03  0.13084545810E+03  0.10000000000E+01 0.  0.
    9000005    1    3    3    0    0  0.56899997546E+00  0.50259128643E+02  0.49294464539E+03  0.49550149060E+03  0.10000000000E+01 0.  0.
<mgrwt>
<rscale>  0 0.12500005E+03</rscale>
<asrwt>0</asrwt>
<pdfrwt beam="1">  1        4 0.95391891E-01 0.12500005E+03</pdfrwt>
<pdfrwt beam="2">  1       -4 0.96921963E-03 0.12500005E+03</pdfrwt>
<totfact> 0.47245590E+03</totfact>
</mgrwt>
</event>
<event>
 5    1  0.3316206E-002  0.1250078E+03  0.7818608E-02  0.1235057E+00
         -4   -1    0    0    0  501 -0.00000000000E+00  0.00000000000E+00  0.14607522123E+02  0.14662626046E+02  0.12700000000E+01 0.  1.
          4   -1    0    0  501    0  0.00000000000E+00 -0.00000000000E+00 -0.26688705447E+03  0.26689007614E+03  0.12700000000E+01 0.  1.
         25    2    1    2    0    0  0.00000000000E+00  0.00000000000E+00 -0.25227953235E+03  0.28155270219E+03  0.12500784643E+03 0.  0.
    9000005    1    3    3    0    0  0.29512472534E+01 -0.46640851947E+02 -0.32686107480E+02  0.57039114237E+02  0.10000000000E+01 0.  0.
    9000005    1    3    3    0    0 -0.29512472534E+01  0.46640851947E+02 -0.21959342487E+03  0.22451358795E+03  0.10000000000E+01 0.  0.
<mgrwt>
<rscale>  0 0.12500785E+03</rscale>
<asrwt>0</asrwt>
<pdfrwt beam="2">  1        4 0.41064015E-01 0.12500785E+03</pdfrwt>
<pdfrwt beam="1">  1       -4 0.22517825E-02 0.12500785E+03</pdfrwt>
<totfact> 0.77959083E+03</totfact>
</mgrwt>
</event>
<event>
 5    1  0.3316206E-002  0.1250017E+03  0.7818608E-02  0.1235067E+00
          4   -1    0    0  501    0  0.00000000000E+00  0.00000000000E+00  0.19183270429E+03  0.19183690817E+03  0.12700000000E+01 0. -1.
         -4   -1    0    0    0  501 -0.00000000000E+00 -0.00000000000E+00 -0.20339100494E+02  0.20378712150E+02  0.12700000000E+01 0. -1.
         25    2    1    2    0    0  0.00000000000E+00  0.00000000000E+00  0.17149360380E+03  0.21221562032E+03  0.12500165344E+03 0.  0.
    9000005    1    3    3    0    0  0.53786698199E+02  0.26775063630E+02  0.11492755762E+03  0.12968907601E+03  0.10000000000E+01 0.  0.
    9000005    1    3    3    0    0 -0.53786698199E+02 -0.26775063630E+02  0.56566046178E+02  0.82526544310E+02  0.10000000000E+01 0.  0.
<mgrwt>
<rscale>  0 0.12500165E+03</rscale>
<asrwt>0</asrwt>
<pdfrwt beam="1">  1        4 0.29516095E-01 0.12500165E+03</pdfrwt>
<pdfrwt beam="2">  1       -4 0.31324627E-02 0.12500165E+03</pdfrwt>
<totfact> 0.88112057E+03</totfact>
</mgrwt>
</event>
<event>
 5    1  0.3316206E-002  0.1249971E+03  0.7818608E-02  0.1235074E+00
         -4   -1    0    0    0  501 -0.00000000000E+00  0.00000000000E+00  0.44627182002E+01  0.46399088067E+01  0.12700000000E+01 0.  1.
          4   -1    0    0  501    0  0.00000000000E+00 -0.00000000000E+00 -0.85805102189E+03  0.85805196176E+03  0.12700000000E+01 0.  1.
         25    2    1    2    0    0  0.00000000000E+00  0.00000000000E+00 -0.85358830369E+03  0.86269187056E+03  0.12499708529E+03 0.  0.
    9000005    1    3    3    0    0  0.18965457443E+02  0.57111599124E+02 -0.31055752330E+03  0.31633589522E+03  0.10000000000E+01 0.  0.
    9000005    1    3    3    0    0 -0.18965457443E+02 -0.57111599124E+02 -0.54303078040E+03  0.54635597534E+03  0.10000000000E+01 0.  0.
<mgrwt>
<rscale>  0 0.12499709E+03</rscale>
<asrwt>0</asrwt>
<pdfrwt beam="2">  1        4 0.13202142E+00 0.12499709E+03</pdfrwt>
<pdfrwt beam="1">  1       -4 0.70027506E-03 0.12499709E+03</pdfrwt>
<totfact> 0.35615816E+03</totfact>
</mgrwt>
</event>
<event>
 5    1  0.3316206E-002  0.1250028E+03  0.7818608E-02  0.1235065E+00
         -4   -1    0    0    0  501 -0.00000000000E+00  0.00000000000E+00  0.88530111478E+03  0.88530202571E+03  0.12700000000E+01 0. -1.
          4   -1    0    0  501    0  0.00000000000E+00 -0.00000000000E+00 -0.43202270093E+01  0.45030280270E+01  0.12700000000E+01 0. -1.
         25    2    1    2    0    0  0.00000000000E+00  0.00000000000E+00  0.88098088777E+03  0.88980505374E+03  0.12500283614E+03 0.  0.
    9000005    1    3    3    0    0  0.48448519719E+02  0.35647387401E+02  0.56117245436E+03  0.56438773802E+03  0.10000000000E+01 0.  0.
    9000005    1    3    3    0    0 -0.48448519719E+02 -0.35647387401E+02  0.31980843341E+03  0.32541731572E+03  0.10000000000E+01 0.  0.
<mgrwt>
<rscale>  0 0.12500284E+03</rscale>
<asrwt>0</asrwt>
<pdfrwt beam="2">  1        4 0.67878198E-03 0.12500284E+03</pdfrwt>
<pdfrwt beam="1">  1       -4 0.13621431E+00 0.12500284E+03</pdfrwt>
<totfact> 0.34549285E+03</totfact>
</mgrwt>
</event>
<event>
 5    1  0.3316206E-002  0.1250008E+03  0.7818608E-02  0.1235068E+00
         -4   -1    0    0    0  501 -0.00000000000E+00  0.00000000000E+00  0.28415367392E+03  0.28415651198E+03  0.12700000000E+01 0. -1.
          4   -1    0    0  501    0  0.00000000000E+00 -0.00000000000E+00 -0.13714889286E+02  0.13773564830E+02  0.12700000000E+01 0. -1.
         25    2    1    2    0    0  0.00000000000E+00  0.00000000000E+00  0.27043878463E+03  0.29793007681E+03  0.12500077774E+03 0.  0.
    9000005    1    3    3    0    0 -0.19902324935E+02 -0.53873527388E+02  0.19393295281E+03  0.20226084564E+03  0.10000000000E+01 0.  0.
    9000005    1    3    3    0    0  0.19902324935E+02  0.53873527388E+02  0.76505831817E+02  0.95669231172E+02  0.10000000000E+01 0.  0.
<mgrwt>
<rscale>  0 0.12500078E+03</rscale>
<asrwt>0</asrwt>
<pdfrwt beam="2">  1        4 0.21147149E-02 0.12500078E+03</pdfrwt>
<pdfrwt beam="1">  1       -4 0.43720678E-01 0.12500078E+03</pdfrwt>
<totfact> 0.75857913E+03</totfact>
</mgrwt>
</event>
<event>
 5    1  0.3316206E-002  0.1250007E+03  0.7818608E-02  0.1235068E+00
         -4   -1    0    0    0  501 -0.00000000000E+00  0.00000000000E+00  0.11542225043E+04  0.11542232030E+04  0.12700000000E+01 0. -1.
          4   -1    0    0  501    0  0.00000000000E+00 -0.00000000000E+00 -0.32644796720E+01  0.35028170847E+01  0.12700000000E+01 0. -1.
         25    2    1    2    0    0  0.00000000000E+00  0.00000000000E+00  0.11509580246E+04  0.11577260201E+04  0.12500065246E+03 0.  0.
    9000005    1    3    3    0    0  0.15081939659E+02 -0.57257276578E+02  0.76058221714E+03  0.76288411286E+03  0.10000000000E+01 0.  0.
    9000005    1    3    3    0    0 -0.15081939659E+02  0.57257276578E+02  0.39037580750E+03  0.39484190724E+03  0.10000000000E+01 0.  0.
<mgrwt>
<rscale>  0 0.12500065E+03</rscale>
<asrwt>0</asrwt>
<pdfrwt beam="2">  1        4 0.52061562E-03 0.12500065E+03</pdfrwt>
<pdfrwt beam="1">  1       -4 0.17759088E+00 0.12500065E+03</pdfrwt>
<totfact> 0.25846502E+03</totfact>
</mgrwt>
</event>
<event>
 5    1  0.3316206E-002  0.1250007E+03  0.7818608E-02  0.1235068E+00
          4   -1    0    0  501    0  0.00000000000E+00  0.00000000000E+00  0.23999881697E+04  0.23999885057E+04  0.12700000000E+01 0. -1.
         -4   -1    0    0    0  501 -0.00000000000E+00 -0.00000000000E+00 -0.13795059442E+01  0.18750831048E+01  0.12700000000E+01 0. -1.
         25    2    1    2    0    0  0.00000000000E+00  0.00000000000E+00  0.23986086638E+04  0.24018635888E+04  0.12500070996E+03 0.  0.
    9000005    1    3    3    0    0 -0.58691577427E+02 -0.19237460505E+02  0.13821109347E+04  0.13834906639E+04  0.10000000000E+01 0.  0.
    9000005    1    3    3    0    0  0.58691577427E+02  0.19237460505E+02  0.10164977290E+04  0.10183729249E+04  0.10000000000E+01 0.  0.
<mgrwt>
<rscale>  0 0.12500071E+03</rscale>
<asrwt>0</asrwt>
<pdfrwt beam="1">  1        4 0.36926894E+00 0.12500071E+03</pdfrwt>
<pdfrwt beam="2">  1       -4 0.25037760E-03 0.12500071E+03</pdfrwt>
<totfact> 0.54866593E+02</totfact>
</mgrwt>
</event>
<event>
 4    1  0.3316206E-002  0.1251790E+03  0.7818608E-02  0.1234790E+00
          4   -1    0    0  501    0  0.00000000000E+00  0.00000000000E+00  0.25806652045E+03  0.25806964540E+03  0.12700000000E+01 0.  1.
         -4   -1    0    0    0  501 -0.00000000000E+00 -0.00000000000E+00 -0.15150209430E+02  0.15203346532E+02  0.12700000000E+01 0.  1.
    9000005    1    1    2    0    0 -0.38001226323E+02  0.37868514781E+02  0.19180311000E+03  0.19916714242E+03  0.10000000000E+01 0.  0.
    9000005    1    1    2    0    0  0.38001226323E+02 -0.37868514781E+02  0.51113201025E+02  0.74105849518E+02  0.10000000000E+01 0.  0.
<mgrwt>
<rscale>  0 0.12517905E+03</rscale>
<asrwt>0</asrwt>
<pdfrwt beam="1">  1        4 0.39706869E-01 0.12517905E+03</pdfrwt>
<pdfrwt beam="2">  1       -4 0.23351294E-02 0.12517905E+03</pdfrwt>
<totfact> 0.78764547E+03</totfact>
</mgrwt>
</event>
<event>
 5    1  0.3316206E-002  0.1250054E+03  0.7818608E-02  0.1235061E+00
          4   -1    0    0  501    0  0.00000000000E+00  0.00000000000E+00  0.36556631757E+02  0.36578685397E+02  0.12700000000E+01 0. -1.
         -4   -1    0    0    0  501 -0.00000000000E+00 -0.00000000000E+00 -0.10680588204E+03  0.10681343239E+03  0.12700000000E+01 0. -1.
         25    2    1    2    0    0  0.00000000000E+00  0.00000000000E+00 -0.70249250282E+02  0.14339211778E+03  0.12500536899E+03 0.  0.
    9000005    1    3    3    0    0 -0.41459646107E+02 -0.31880727195E+02  0.41168828022E+01  0.52471246848E+02  0.10000000000E+01 0.  0.
    9000005    1    3    3    0    0  0.41459646107E+02  0.31880727195E+02 -0.74366133084E+02  0.90920870936E+02  0.10000000000E+01 0.  0.
<mgrwt>
<rscale>  0 0.12500537E+03</rscale>
<asrwt>0</asrwt>
<pdfrwt beam="1">  1        4 0.56263744E-02 0.12500537E+03</pdfrwt>
<pdfrwt beam="2">  1       -4 0.16433951E-01 0.12500537E+03</pdfrwt>
<totfact> 0.10062543E+04</totfact>
</mgrwt>
</event>
<event>
 5    1  0.3316206E-002  0.1250081E+03  0.7818608E-02  0.1235057E+00
          4   -1    0    0  501    0  0.00000000000E+00  0.00000000000E+00  0.22502645629E+03  0.22503004007E+03  0.12700000000E+01 0.  1.
         -4   -1    0    0    0  501 -0.00000000000E+00 -0.00000000000E+00 -0.17334370077E+02  0.17380830991E+02  0.12700000000E+01 0.  1.
         25    2    1    2    0    0  0.00000000000E+00  0.00000000000E+00  0.20769208622E+03  0.24241087106E+03  0.12500811066E+03 0.  0.
    9000005    1    3    3    0    0 -0.42683818961E+02 -0.41559751066E+02  0.67225375195E+02  0.89829685405E+02  0.10000000000E+01 0.  0.
    9000005    1    3    3    0    0  0.42683818961E+02  0.41559751066E+02  0.14046671102E+03  0.15258118565E+03  0.10000000000E+01 0.  0.
<mgrwt>
<rscale>  0 0.12500811E+03</rscale>
<asrwt>0</asrwt>
<pdfrwt beam="1">  1        4 0.34623302E-01 0.12500811E+03</pdfrwt>
<pdfrwt beam="2">  1       -4 0.26706759E-02 0.12500811E+03</pdfrwt>
<totfact> 0.83424535E+03</totfact>
</mgrwt>
</event>
<event>
 5    1  0.3316206E-002  0.1249917E+03  0.7818608E-02  0.1235082E+00
          4   -1    0    0  501    0  0.00000000000E+00  0.00000000000E+00  0.91757786967E+02  0.91766575446E+02  0.12700000000E+01 0. -1.
         -4   -1    0    0    0  501 -0.00000000000E+00 -0.00000000000E+00 -0.42545343368E+02  0.42564294219E+02  0.12700000000E+01 0. -1.
         25    2    1    2    0    0  0.00000000000E+00  0.00000000000E+00  0.49212443599E+02  0.13433086966E+03  0.12499167148E+03 0.  0.
    9000005    1    3    3    0    0 -0.41385043487E+02 -0.57065224915E+01 -0.25335745898E+02  0.48869072465E+02  0.10000000000E+01 0.  0.
    9000005    1    3    3    0    0  0.41385043487E+02  0.57065224915E+01  0.74548189497E+02  0.85461797200E+02  0.10000000000E+01 0.  0.
<mgrwt>
<rscale>  0 0.12499167E+03</rscale>
<asrwt>0</asrwt>
<pdfrwt beam="1">  1        4 0.14118716E-01 0.12499167E+03</pdfrwt>
<pdfrwt beam="2">  1       -4 0.65475713E-02 0.12499167E+03</pdfrwt>
<totfact> 0.10254120E+04</totfact>
</mgrwt>
</event>
<event>
 5    1  0.3316206E-002  0.1250018E+03  0.7818608E-02  0.1235066E+00
         -4   -1    0    0    0  501 -0.00000000000E+00  0.00000000000E+00  0.36627744693E+03  0.36627964867E+03  0.12700000000E+01 0.  1.
          4   -1    0    0  501    0  0.00000000000E+00 -0.00000000000E+00 -0.10624983874E+02  0.10700615978E+02  0.12700000000E+01 0.  1.
         25    2    1    2    0    0  0.00000000000E+00  0.00000000000E+00  0.35565246306E+03  0.37698026465E+03  0.12500178181E+03 0.  0.
    9000005    1    3    3    0    0  0.48225485728E+02 -0.37872351287E+02  0.21418492625E+03  0.22279182008E+03  0.10000000000E+01 0.  0.
    9000005    1    3    3    0    0 -0.48225485728E+02  0.37872351287E+02  0.14146753681E+03  0.15418844456E+03  0.10000000000E+01 0.  0.
<mgrwt>
<rscale>  0 0.12500178E+03</rscale>
<asrwt>0</asrwt>
<pdfrwt beam="2">  1        4 0.16406003E-02 0.12500178E+03</pdfrwt>
<pdfrwt beam="1">  1       -4 0.56356356E-01 0.12500178E+03</pdfrwt>
<totfact> 0.66852309E+03</totfact>
</mgrwt>
</event>
<event>
 5    1  0.3316206E-002  0.1249999E+03  0.7818608E-02  0.1235069E+00
          4   -1    0    0  501    0  0.00000000000E+00  0.00000000000E+00  0.35821049316E+01  0.38005757118E+01  0.12700000000E+01 0. -1.
         -4   -1    0    0    0  501 -0.00000000000E+00 -0.00000000000E+00 -0.10579997326E+04  0.10580004949E+04  0.12700000000E+01 0. -1.
         25    2    1    2    0    0  0.00000000000E+00  0.00000000000E+00 -0.10544176277E+04  0.10618010706E+04  0.12499991955E+03 0.  0.
    9000005    1    3    3    0    0  0.29506908806E+02 -0.55564581612E+01 -0.61662761804E+02  0.68591749415E+02  0.10000000000E+01 0.  0.
    9000005    1    3    3    0    0 -0.29506908806E+02  0.55564581612E+01 -0.99275486589E+03  0.99320932116E+03  0.10000000000E+01 0.  0.
<mgrwt>
<rscale>  0 0.12499992E+03</rscale>
<asrwt>0</asrwt>
<pdfrwt beam="1">  1        4 0.56795799E-03 0.12499992E+03</pdfrwt>
<pdfrwt beam="2">  1       -4 0.16278581E+00 0.12499992E+03</pdfrwt>
<totfact> 0.28629235E+03</totfact>
</mgrwt>
</event>
<event>
 5    1  0.3316206E-002  0.1249990E+03  0.7818608E-02  0.1235071E+00
          4   -1    0    0  501    0  0.00000000000E+00  0.00000000000E+00  0.91964965791E+01  0.92837734424E+01  0.12700000000E+01 0.  1.
         -4   -1    0    0    0  501 -0.00000000000E+00 -0.00000000000E+00 -0.42265285195E+03  0.42265476002E+03  0.12700000000E+01 0.  1.
         25    2    1    2    0    0  0.00000000000E+00  0.00000000000E+00 -0.41345635537E+03  0.43193853346E+03  0.12499895554E+03 0.  0.
    9000005    1    3    3    0    0 -0.56065286991E+02  0.26658864112E+02 -0.18200881924E+03  0.19230762263E+03  0.10000000000E+01 0.  0.
    9000005    1    3    3    0    0  0.56065286991E+02 -0.26658864112E+02 -0.23144753613E+03  0.23963091083E+03  0.10000000000E+01 0.  0.
<mgrwt>
<rscale>  0 0.12499896E+03</rscale>
<asrwt>0</asrwt>
<pdfrwt beam="1">  1        4 0.14217063E-02 0.12499896E+03</pdfrwt>
<pdfrwt beam="2">  1       -4 0.65030361E-01 0.12499896E+03</pdfrwt>
<totfact> 0.61562092E+03</totfact>
</mgrwt>
</event>
<event>
 5    1  0.3316206E-002  0.1250015E+03  0.7818608E-02  0.1235067E+00
         -4   -1    0    0    0  501 -0.00000000000E+00  0.00000000000E+00  0.76576365462E+02  0.76586896055E+02  0.12700000000E+01 0.  1.
          4   -1    0    0  501    0  0.00000000000E+00 -0.00000000000E+00 -0.50990474119E+02  0.51006287366E+02  0.12700000000E+01 0.  1.
         25    2    1    2    0    0  0.00000000000E+00  0.00000000000E+00  0.25585891343E+02  0.12759318342E+03  0.12500153047E+03 0.  0.
    9000005    1    3    3    0    0 -0.58443647057E+02  0.21973177079E+02  0.10118457253E+02  0.63260284298E+02  0.10000000000E+01 0.  0.
    9000005    1    3    3    0    0  0.58443647057E+02 -0.21973177079E+02  0.15467434090E+02  0.64332899123E+02  0.10000000000E+01 0.  0.
<mgrwt>
<rscale>  0 0.12500153E+03</rscale>
<asrwt>0</asrwt>
<pdfrwt beam="2">  1        4 0.78467148E-02 0.12500153E+03</pdfrwt>
<pdfrwt beam="1">  1       -4 0.11783006E-01 0.12500153E+03</pdfrwt>
<totfact> 0.10395924E+04</totfact>
</mgrwt>
</event>
<event>
 4    1  0.3316206E-002  0.1247556E+03  0.7818608E-02  0.1235452E+00
          4   -1    0    0  501    0  0.00000000000E+00  0.00000000000E+00  0.40072614606E+03  0.40072815853E+03  0.12700000000E+01 0. -1.
         -4   -1    0    0    0  501 -0.00000000000E+00 -0.00000000000E+00 -0.96662678951E+01  0.97493402351E+01  0.12700000000E+01 0. -1.
    9000005    1    1    2    0    0 -0.82845102768E+01 -0.58401044814E+02  0.12885279044E+03  0.14171576041E+03  0.10000000000E+01 0.  0.
    9000005    1    1    2    0    0  0.82845102768E+01  0.58401044814E+02  0.26220708773E+03  0.26876173835E+03  0.10000000000E+01 0.  0.
<mgrwt>
<rscale>  0 0.12475556E+03</rscale>
<asrwt>0</asrwt>
<pdfrwt beam="1">  1        4 0.61656731E-01 0.12475556E+03</pdfrwt>
<pdfrwt beam="2">  1       -4 0.14936629E-02 0.12475556E+03</pdfrwt>
<totfact> 0.63890350E+03</totfact>
</mgrwt>
</event>
<event>
 5    1  0.3316206E-002  0.1249993E+03  0.7818608E-02  0.1235070E+00
         -4   -1    0    0    0  501 -0.00000000000E+00  0.00000000000E+00  0.43054938048E+03  0.43055125355E+03  0.12700000000E+01 0. -1.
          4   -1    0    0  501    0  0.00000000000E+00 -0.00000000000E+00 -0.90262637668E+01  0.91151707383E+01  0.12700000000E+01 0. -1.
         25    2    1    2    0    0  0.00000000000E+00  0.00000000000E+00  0.42152311672E+03  0.43966642429E+03  0.12499930688E+03 0.  0.
    9000005    1    3    3    0    0  0.37804317459E+02  0.43605596923E+02  0.12644836245E+03  0.13899929089E+03  0.10000000000E+01 0.  0.
    9000005    1    3    3    0    0 -0.37804317459E+02 -0.43605596923E+02  0.29507475426E+03  0.30066713340E+03  0.10000000000E+01 0.  0.
<mgrwt>
<rscale>  0 0.12499931E+03</rscale>
<asrwt>0</asrwt>
<pdfrwt beam="2">  1        4 0.13956391E-02 0.12499931E+03</pdfrwt>
<pdfrwt beam="1">  1       -4 0.66245346E-01 0.12499931E+03</pdfrwt>
<totfact> 0.60870387E+03</totfact>
</mgrwt>
</event>
<event>
 5    1  0.3316206E-002  0.1250024E+03  0.7818608E-02  0.1235065E+00
          4   -1    0    0  501    0  0.00000000000E+00  0.00000000000E+00  0.35410492983E+02  0.35433259987E+02  0.12700000000E+01 0. -1.
         -4   -1    0    0    0  501 -0.00000000000E+00 -0.00000000000E+00 -0.11025578818E+03  0.11026310230E+03  0.12700000000E+01 0. -1.
         25    2    1    2    0    0  0.00000000000E+00  0.00000000000E+00 -0.74845295200E+02  0.14569636228E+03  0.12500244705E+03 0.  0.
    9000005    1    3    3    0    0 -0.46683904865E+02 -0.37384468295E+02 -0.58545051286E+02  0.83698915603E+02  0.10000000000E+01 0.  0.
    9000005    1    3    3    0    0  0.46683904865E+02  0.37384468295E+02 -0.16300243914E+02  0.61997446679E+02  0.10000000000E+01 0.  0.
<mgrwt>
<rscale>  0 0.12500245E+03</rscale>
<asrwt>0</asrwt>
<pdfrwt beam="1">  1        4 0.54500821E-02 0.12500245E+03</pdfrwt>
<pdfrwt beam="2">  1       -4 0.16964743E-01 0.12500245E+03</pdfrwt>
<totfact> 0.10016307E+04</totfact>
</mgrwt>
</event>
<event>
 5    1  0.3316206E-002  0.1250017E+03  0.7818608E-02  0.1235067E+00
          4   -1    0    0  501    0  0.00000000000E+00  0.00000000000E+00  0.14799106131E+03  0.14799651052E+03  0.12700000000E+01 0. -1.
         -4   -1    0    0    0  501 -0.00000000000E+00 -0.00000000000E+00 -0.26374676444E+02  0.26405235419E+02  0.12700000000E+01 0. -1.
         25    2    1    2    0    0  0.00000000000E+00  0.00000000000E+00  0.12161638486E+03  0.17440174594E+03  0.12500169567E+03 0.  0.
    9000005    1    3    3    0    0  0.32528625764E+02 -0.45589935790E+02  0.99493160635E+02  0.11417724271E+03  0.10000000000E+01 0.  0.
    9000005    1    3    3    0    0 -0.32528625764E+02  0.45589935790E+02  0.22123224229E+02  0.60224503233E+02  0.10000000000E+01 0.  0.
<mgrwt>
<rscale>  0 0.12500170E+03</rscale>
<asrwt>0</asrwt>
<pdfrwt beam="1">  1        4 0.22770625E-01 0.12500170E+03</pdfrwt>
<pdfrwt beam="2">  1       -4 0.40604124E-02 0.12500170E+03</pdfrwt>
<totfact> 0.94630924E+03</totfact>
</mgrwt>
</event>
<event>
 5    1  0.3316206E-002  0.1250397E+03  0.7818608E-02  0.1235007E+00
         -4   -1    0    0    0  501 -0.00000000000E+00  0.00000000000E+00  0.34857449989E+03  0.34857681345E+03  0.12700000000E+01 0. -1.
          4   -1    0    0  501    0  0.00000000000E+00 -0.00000000000E+00 -0.11175152635E+02  0.11247085685E+02  0.12700000000E+01 0. -1.
         25    2    1    2    0    0  0.00000000000E+00  0.00000000000E+00  0.33739934726E+03  0.35982389913E+03  0.12503966914E+03 0.  0.
    9000005    1    3    3    0    0  0.39618935889E+01  0.51260421053E+02  0.66373947252E+02  0.83963255303E+02  0.10000000000E+01 0.  0.
    9000005    1    3    3    0    0 -0.39618935889E+01 -0.51260421053E+02  0.27102540000E+03  0.27586064383E+03  0.10000000000E+01 0.  0.
<mgrwt>
<rscale>  0 0.12503967E+03</rscale>
<asrwt>0</asrwt>
<pdfrwt beam="2">  1        4 0.17249656E-02 0.12503967E+03</pdfrwt>
<pdfrwt beam="1">  1       -4 0.53632556E-01 0.12503967E+03</pdfrwt>
<totfact> 0.68596949E+03</totfact>
</mgrwt>
</event>
<event>
 5    1  0.3316206E-002  0.1250022E+03  0.7818608E-02  0.1235066E+00
         -4   -1    0    0    0  501 -0.00000000000E+00  0.00000000000E+00  0.13306835137E+02  0.13367301948E+02  0.12700000000E+01 0. -1.
          4   -1    0    0  501    0  0.00000000000E+00 -0.00000000000E+00 -0.29283501184E+03  0.29283776577E+03  0.12700000000E+01 0. -1.
         25    2    1    2    0    0  0.00000000000E+00  0.00000000000E+00 -0.27952817670E+03  0.30620506771E+03  0.12500216767E+03 0.  0.
    9000005    1    3    3    0    0  0.83094200421E+01  0.58509473847E+02 -0.18954462764E+03  0.19854614290E+03  0.10000000000E+01 0.  0.
    9000005    1    3    3    0    0 -0.83094200421E+01 -0.58509473847E+02 -0.89983549056E+02  0.10765892481E+03  0.10000000000E+01 0.  0.
<mgrwt>
<rscale>  0 0.12500217E+03</rscale>
<asrwt>0</asrwt>
<pdfrwt beam="2">  1        4 0.45056399E-01 0.12500217E+03</pdfrwt>
<pdfrwt beam="1">  1       -4 0.20520688E-02 0.12500217E+03</pdfrwt>
<totfact> 0.74823424E+03</totfact>
</mgrwt>
</event>
<event>
 5    1  0.3316206E-002  0.1250062E+03  0.7818608E-02  0.1235060E+00
          4   -1    0    0  501    0  0.00000000000E+00  0.00000000000E+00  0.40702983681E+03  0.40703181811E+03  0.12700000000E+01 0.  1.
         -4   -1    0    0    0  501 -0.00000000000E+00 -0.00000000000E+00 -0.95538864571E+01  0.96379274969E+01  0.12700000000E+01 0.  1.
         25    2    1    2    0    0  0.00000000000E+00  0.00000000000E+00  0.39747595035E+03  0.41666974561E+03  0.12500618303E+03 0.  0.
    9000005    1    3    3    0    0 -0.47097798038E+02  0.64860856374E+01  0.33394259849E+03  0.33731132648E+03  0.10000000000E+01 0.  0.
    9000005    1    3    3    0    0  0.47097798038E+02 -0.64860856374E+01  0.63533351862E+02  0.79358419123E+02  0.10000000000E+01 0.  0.
<mgrwt>
<rscale>  0 0.12500618E+03</rscale>
<asrwt>0</asrwt>
<pdfrwt beam="1">  1        4 0.62626595E-01 0.12500618E+03</pdfrwt>
<pdfrwt beam="2">  1       -4 0.14764457E-02 0.12500618E+03</pdfrwt>
<totfact> 0.62954578E+03</totfact>
</mgrwt>
</event>
<event>
 5    1  0.3316206E-002  0.1250024E+03  0.7818608E-02  0.1235066E+00
         -4   -1    0    0    0  501 -0.00000000000E+00  0.00000000000E+00  0.70032258729E+02  0.70043773190E+02  0.12700000000E+01 0. -1.
          4   -1    0    0  501    0  0.00000000000E+00 -0.00000000000E+00 -0.55756656748E+02  0.55771118617E+02  0.12700000000E+01 0. -1.
         25    2    1    2    0    0  0.00000000000E+00  0.00000000000E+00  0.14275601981E+02  0.12581489181E+03  0.12500237673E+03 0.  0.
    9000005    1    3    3    0    0 -0.42189618708E+02 -0.20180460675E+02 -0.34582608852E+02  0.58173634533E+02  0.10000000000E+01 0.  0.
    9000005    1    3    3    0    0  0.42189618708E+02  0.20180460675E+02  0.48858210833E+02  0.67641257274E+02  0.10000000000E+01 0.  0.
<mgrwt>
<rscale>  0 0.12500238E+03</rscale>
<asrwt>0</asrwt>
<pdfrwt beam="2">  1        4 0.85799454E-02 0.12500238E+03</pdfrwt>
<pdfrwt beam="1">  1       -4 0.10776192E-01 0.12500238E+03</pdfrwt>
<totfact> 0.10434459E+04</totfact>
</mgrwt>
</event>
<event>
 5    1  0.3316206E-002  0.1250080E+03  0.7818608E-02  0.1235057E+00
         -4   -1    0    0    0  501 -0.00000000000E+00  0.00000000000E+00  0.67519865905E+01  0.68703873922E+01  0.12700000000E+01 0.  1.
          4   -1    0    0  501    0  0.00000000000E+00 -0.00000000000E+00 -0.57345972486E+03  0.57346113115E+03  0.12700000000E+01 0.  1.
         25    2    1    2    0    0  0.00000000000E+00  0.00000000000E+00 -0.56670773827E+03  0.58033151854E+03  0.12500804292E+03 0.  0.
    9000005    1    3    3    0    0  0.58250911587E+02  0.10267006765E+02 -0.18967805873E+03  0.19868906888E+03  0.10000000000E+01 0.  0.
    9000005    1    3    3    0    0 -0.58250911587E+02 -0.10267006765E+02 -0.37702967953E+03  0.38164244965E+03  0.10000000000E+01 0.  0.
<mgrwt>
<rscale>  0 0.12500804E+03</rscale>
<asrwt>0</asrwt>
<pdfrwt beam="2">  1        4 0.88233751E-01 0.12500804E+03</pdfrwt>
<pdfrwt beam="1">  1       -4 0.10479835E-02 0.12500804E+03</pdfrwt>
<totfact> 0.50124324E+03</totfact>
</mgrwt>
</event>
<event>
 5    1  0.3316206E-002  0.1250013E+03  0.7818608E-02  0.1235067E+00
         -4   -1    0    0    0  501 -0.00000000000E+00  0.00000000000E+00  0.21532145538E+02  0.21569566326E+02  0.12700000000E+01 0. -1.
          4   -1    0    0  501    0  0.00000000000E+00 -0.00000000000E+00 -0.18122149615E+03  0.18122594618E+03  0.12700000000E+01 0. -1.
         25    2    1    2    0    0  0.00000000000E+00  0.00000000000E+00 -0.15968935061E+03  0.20279551250E+03  0.12500132476E+03 0.  0.
    9000005    1    3    3    0    0  0.52297647226E+02  0.33486006822E+02 -0.68491000692E+02  0.92457415787E+02  0.10000000000E+01 0.  0.
    9000005    1    3    3    0    0 -0.52297647226E+02 -0.33486006822E+02 -0.91198349921E+02  0.11033809671E+03  0.10000000000E+01 0.  0.
<mgrwt>
<rscale>  0 0.12500132E+03</rscale>
<asrwt>0</asrwt>
<pdfrwt beam="2">  1        4 0.27883450E-01 0.12500132E+03</pdfrwt>
<pdfrwt beam="1">  1       -4 0.33158587E-02 0.12500132E+03</pdfrwt>
<totfact> 0.89663496E+03</totfact>
</mgrwt>
</event>
<event>
 5    1  0.3316206E-002  0.1250004E+03  0.7818608E-02  0.1235069E+00
         -4   -1    0    0    0  501 -0.00000000000E+00  0.00000000000E+00  0.78729453490E+02  0.78739696131E+02  0.12700000000E+01 0.  1.
          4   -1    0    0  501    0  0.00000000000E+00 -0.00000000000E+00 -0.49594820972E+02  0.49611079078E+02  0.12700000000E+01 0.  1.
         25    2    1    2    0    0  0.00000000000E+00  0.00000000000E+00  0.29134632518E+02  0.12835077521E+03  0.12500037874E+03 0.  0.
    9000005    1    3    3    0    0 -0.47608185258E+02  0.35101079138E+02  0.35273345060E+02  0.68875495874E+02  0.10000000000E+01 0.  0.
    9000005    1    3    3    0    0  0.47608185258E+02 -0.35101079138E+02 -0.61387125420E+01  0.59475279334E+02  0.10000000000E+01 0.  0.
<mgrwt>
<rscale>  0 0.12500038E+03</rscale>
<asrwt>0</asrwt>
<pdfrwt beam="2">  1        4 0.76320110E-02 0.12500038E+03</pdfrwt>
<pdfrwt beam="1">  1       -4 0.12114262E-01 0.12500038E+03</pdfrwt>
<totfact> 0.10379830E+04</totfact>
</mgrwt>
</event>
<event>
 5    1  0.3316206E-002  0.1249898E+03  0.7818608E-02  0.1235085E+00
          4   -1    0    0  501    0  0.00000000000E+00  0.00000000000E+00  0.50098269244E+02  0.50114364021E+02  0.12700000000E+01 0. -1.
         -4   -1    0    0    0  501 -0.00000000000E+00 -0.00000000000E+00 -0.77925243890E+02  0.77935592224E+02  0.12700000000E+01 0. -1.
         25    2    1    2    0    0  0.00000000000E+00  0.00000000000E+00 -0.27826974646E+02  0.12804995625E+03  0.12498980269E+03 0.  0.
    9000005    1    3    3    0    0  0.28388650351E+02  0.37462534712E+02  0.28268055555E+02  0.54858362541E+02  0.10000000000E+01 0.  0.
    9000005    1    3    3    0    0 -0.28388650351E+02 -0.37462534712E+02 -0.56095030202E+02  0.73191593705E+02  0.10000000000E+01 0.  0.
<mgrwt>
<rscale>  0 0.12498980E+03</rscale>
<asrwt>0</asrwt>
<pdfrwt beam="1">  1        4 0.77094601E-02 0.12498980E+03</pdfrwt>
<pdfrwt beam="2">  1       -4 0.11990533E-01 0.12498980E+03</pdfrwt>
<totfact> 0.10388800E+04</totfact>
</mgrwt>
</event>
<event>
 5    1  0.3316206E-002  0.1249844E+03  0.7818608E-02  0.1235094E+00
          4   -1    0    0  501    0  0.00000000000E+00  0.00000000000E+00  0.49478336253E+01  0.51082245040E+01  0.12700000000E+01 0.  1.
         -4   -1    0    0    0  501 -0.00000000000E+00 -0.00000000000E+00 -0.77653974594E+03  0.77654078446E+03  0.12700000000E+01 0.  1.
         25    2    1    2    0    0  0.00000000000E+00  0.00000000000E+00 -0.77159191232E+03  0.78164900896E+03  0.12498437526E+03 0.  0.
    9000005    1    3    3    0    0  0.16734206093E+02  0.37947116751E+02 -0.93510069418E+02  0.10229931772E+03  0.10000000000E+01 0.  0.
    9000005    1    3    3    0    0 -0.16734206093E+02 -0.37947116751E+02 -0.67808184290E+03  0.67934969124E+03  0.10000000000E+01 0.  0.
<mgrwt>
<rscale>  0 0.12498438E+03</rscale>
<asrwt>0</asrwt>
<pdfrwt beam="1">  1        4 0.77362344E-03 0.12498438E+03</pdfrwt>
<pdfrwt beam="2">  1       -4 0.11947998E+00 0.12498438E+03</pdfrwt>
<totfact> 0.39110585E+03</totfact>
</mgrwt>
</event>
<event>
 5    1  0.3316206E-002  0.1249946E+03  0.7818608E-02  0.1235078E+00
          4   -1    0    0  501    0  0.00000000000E+00  0.00000000000E+00  0.17138974418E+02  0.17185963578E+02  0.12700000000E+01 0.  1.
         -4   -1    0    0    0  501 -0.00000000000E+00 -0.00000000000E+00 -0.22753581078E+03  0.22753935503E+03  0.12700000000E+01 0.  1.
         25    2    1    2    0    0  0.00000000000E+00  0.00000000000E+00 -0.21039683636E+03  0.24472531861E+03  0.12499461115E+03 0.  0.
    9000005    1    3    3    0    0 -0.28326467092E+02  0.49213032916E+02 -0.54120383605E+02  0.78449520510E+02  0.10000000000E+01 0.  0.
    9000005    1    3    3    0    0  0.28326467092E+02 -0.49213032916E+02 -0.15627645275E+03  0.16627579810E+03  0.10000000000E+01 0.  0.
<mgrwt>
<rscale>  0 0.12499461E+03</rscale>
<asrwt>0</asrwt>
<pdfrwt beam="1">  1        4 0.26406526E-02 0.12499461E+03</pdfrwt>
<pdfrwt beam="2">  1       -4 0.35009394E-01 0.12499461E+03</pdfrwt>
<totfact> 0.83108591E+03</totfact>
</mgrwt>
</event>
<event>
 5    1  0.3316206E-002  0.1249924E+03  0.7818608E-02  0.1235081E+00
         -4   -1    0    0    0  501 -0.00000000000E+00  0.00000000000E+00  0.11083068295E+02  0.11155595136E+02  0.12700000000E+01 0.  1.
          4   -1    0    0  501    0  0.00000000000E+00 -0.00000000000E+00 -0.35118599690E+03  0.35118829326E+03  0.12700000000E+01 0.  1.
         25    2    1    2    0    0  0.00000000000E+00  0.00000000000E+00 -0.34010292861E+03  0.36234388839E+03  0.12499236540E+03 0.  0.
    9000005    1    3    3    0    0  0.55617136698E+02  0.27973509442E+02 -0.18565990491E+03  0.19582232614E+03  0.10000000000E+01 0.  0.
    9000005    1    3    3    0    0 -0.55617136698E+02 -0.27973509442E+02 -0.15444302370E+03  0.16652156225E+03  0.10000000000E+01 0.  0.
<mgrwt>
<rscale>  0 0.12499237E+03</rscale>
<asrwt>0</asrwt>
<pdfrwt beam="2">  1        4 0.54034362E-01 0.12499237E+03</pdfrwt>
<pdfrwt beam="1">  1       -4 0.17108433E-02 0.12499237E+03</pdfrwt>
<totfact> 0.68399141E+03</totfact>
</mgrwt>
</event>
<event>
 5    1  0.3316206E-002  0.1249990E+03  0.7818608E-02  0.1235071E+00
          4   -1    0    0  501    0  0.00000000000E+00  0.00000000000E+00  0.19371124735E+02  0.19412711648E+02  0.12700000000E+01 0. -1.
         -4   -1    0    0    0  501 -0.00000000000E+00 -0.00000000000E+00 -0.20139016911E+03  0.20139417348E+03  0.12700000000E+01 0. -1.
         25    2    1    2    0    0  0.00000000000E+00  0.00000000000E+00 -0.18201904437E+03  0.22080688513E+03  0.12499899203E+03 0.  0.
    9000005    1    3    3    0    0  0.98084191182E+01 -0.59828819734E+02 -0.64249159173E+02  0.88343914396E+02  0.10000000000E+01 0.  0.
    9000005    1    3    3    0    0 -0.98084191182E+01  0.59828819734E+02 -0.11776988520E+03  0.13246297074E+03  0.10000000000E+01 0.  0.
<mgrwt>
<rscale>  0 0.12499899E+03</rscale>
<asrwt>0</asrwt>
<pdfrwt beam="1">  1        4 0.29836802E-02 0.12499899E+03</pdfrwt>
<pdfrwt beam="2">  1       -4 0.30986608E-01 0.12499899E+03</pdfrwt>
<totfact> 0.86742785E+03</totfact>
</mgrwt>
</event>
<event>
 5    1  0.3316206E-002  0.1250023E+03  0.7818608E-02  0.1235066E+00
         -4   -1    0    0    0  501 -0.00000000000E+00  0.00000000000E+00  0.32872569624E+02  0.32897093089E+02  0.12700000000E+01 0. -1.
          4   -1    0    0  501    0  0.00000000000E+00 -0.00000000000E+00 -0.11876221368E+03  0.11876900395E+03  0.12700000000E+01 0. -1.
         25    2    1    2    0    0  0.00000000000E+00  0.00000000000E+00 -0.85889644060E+02  0.15166609704E+03  0.12500229611E+03 0.  0.
    9000005    1    3    3    0    0  0.27851812796E+02  0.52953539867E+02 -0.21051694076E+02  0.63434806564E+02  0.10000000000E+01 0.  0.
    9000005    1    3    3    0    0 -0.27851812796E+02 -0.52953539867E+02 -0.64837949985E+02  0.88231290474E+02  0.10000000000E+01 0.  0.
<mgrwt>
<rscale>  0 0.12500230E+03</rscale>
<asrwt>0</asrwt>
<pdfrwt beam="2">  1        4 0.18273518E-01 0.12500230E+03</pdfrwt>
<pdfrwt beam="1">  1       -4 0.50597272E-02 0.12500230E+03</pdfrwt>
<totfact> 0.98967505E+03</totfact>
</mgrwt>
</event>
<event>
 5    1  0.3316206E-002  0.1249954E+03  0.7818608E-02  0.1235076E+00
         -4   -1    0    0    0  501 -0.00000000000E+00  0.00000000000E+00  0.11971792697E+03  0.11972466303E+03  0.12700000000E+01 0. -1.
          4   -1    0    0  501    0  0.00000000000E+00 -0.00000000000E+00 -0.32606386516E+02  0.32631110027E+02  0.12700000000E+01 0. -1.
         25    2    1    2    0    0  0.00000000000E+00  0.00000000000E+00  0.87111540453E+02  0.15235577306E+03  0.12499544433E+03 0.  0.
    9000005    1    3    3    0    0  0.64920705767E+01 -0.24462030946E+02 -0.26085748493E+02  0.36359375858E+02  0.10000000000E+01 0.  0.
    9000005    1    3    3    0    0 -0.64920705767E+01  0.24462030946E+02  0.11319728895E+03  0.11599639720E+03  0.10000000000E+01 0.  0.
<mgrwt>
<rscale>  0 0.12499544E+03</rscale>
<asrwt>0</asrwt>
<pdfrwt beam="2">  1        4 0.50187871E-02 0.12499544E+03</pdfrwt>
<pdfrwt beam="1">  1       -4 0.18420562E-01 0.12499544E+03</pdfrwt>
<totfact> 0.98846298E+03</totfact>
</mgrwt>
</event>
<event>
 5    1  0.3316206E-002  0.1250013E+03  0.7818608E-02  0.1235067E+00
         -4   -1    0    0    0  501 -0.00000000000E+00  0.00000000000E+00  0.20056903369E+02  0.20097071248E+02  0.12700000000E+01 0. -1.
          4   -1    0    0  501    0  0.00000000000E+00 -0.00000000000E+00 -0.19452529985E+03  0.19452944554E+03  0.12700000000E+01 0. -1.
         25    2    1    2    0    0  0.00000000000E+00  0.00000000000E+00 -0.17446839648E+03  0.21462651678E+03  0.12500128134E+03 0.  0.
    9000005    1    3    3    0    0 -0.46908522541E+02  0.36678633028E+02 -0.54674690208E+02  0.80845861719E+02  0.10000000000E+01 0.  0.
    9000005    1    3    3    0    0  0.46908522541E+02 -0.36678633028E+02 -0.11979370627E+03  0.13378065507E+03  0.10000000000E+01 0.  0.
<mgrwt>
<rscale>  0 0.12500128E+03</rscale>
<asrwt>0</asrwt>
<pdfrwt beam="2">  1        4 0.29930377E-01 0.12500128E+03</pdfrwt>
<pdfrwt beam="1">  1       -4 0.30890863E-02 0.12500128E+03</pdfrwt>
<totfact> 0.87723329E+03</totfact>
</mgrwt>
</event>
<event>
 5    1  0.3316206E-002  0.1249983E+03  0.7818608E-02  0.1235072E+00
          4   -1    0    0  501    0  0.00000000000E+00  0.00000000000E+00  0.71587305622E+01  0.72705105228E+01  0.12700000000E+01 0.  1.
         -4   -1    0    0    0  501 -0.00000000000E+00 -0.00000000000E+00 -0.54130763677E+03  0.54130912659E+03  0.12700000000E+01 0.  1.
         25    2    1    2    0    0  0.00000000000E+00  0.00000000000E+00 -0.53414890621E+03  0.54857963711E+03  0.12499825698E+03 0.  0.
    9000005    1    3    3    0    0  0.47143018527E+02 -0.38508140397E+02 -0.20503992883E+03  0.21388715129E+03  0.10000000000E+01 0.  0.
    9000005    1    3    3    0    0 -0.47143018527E+02  0.38508140397E+02 -0.32910897738E+03  0.33469248582E+03  0.10000000000E+01 0.  0.
<mgrwt>
<rscale>  0 0.12499826E+03</rscale>
<asrwt>0</asrwt>
<pdfrwt beam="1">  1        4 0.11100566E-02 0.12499826E+03</pdfrwt>
<pdfrwt beam="2">  1       -4 0.83286779E-01 0.12499826E+03</pdfrwt>
<totfact> 0.52285087E+03</totfact>
</mgrwt>
</event>
<event>
 4    1  0.3316206E-002  0.1256037E+03  0.7818608E-02  0.1234129E+00
          4   -1    0    0  501    0  0.00000000000E+00  0.00000000000E+00  0.26947325927E+03  0.26947625194E+03  0.12700000000E+01 0. -1.
         -4   -1    0    0    0  501 -0.00000000000E+00 -0.00000000000E+00 -0.14605590307E+02  0.14660701491E+02  0.12700000000E+01 0. -1.
    9000005    1    1    2    0    0 -0.46874774232E+02  0.20332154995E+02  0.21000861863E+03  0.21613713444E+03  0.10000000000E+01 0.  0.
    9000005    1    1    2    0    0  0.46874774232E+02 -0.20332154995E+02  0.44859050329E+02  0.67999818988E+02  0.10000000000E+01 0.  0.
<mgrwt>
<rscale>  0 0.12560366E+03</rscale>
<asrwt>0</asrwt>
<pdfrwt beam="1">  1        4 0.41461895E-01 0.12560366E+03</pdfrwt>
<pdfrwt beam="2">  1       -4 0.22514833E-02 0.12560366E+03</pdfrwt>
<totfact> 0.76600474E+03</totfact>
</mgrwt>
</event>
<event>
 5    1  0.3316206E-002  0.1249985E+03  0.7818608E-02  0.1235072E+00
         -4   -1    0    0    0  501 -0.00000000000E+00  0.00000000000E+00  0.51405687611E+01  0.52951248510E+01  0.12700000000E+01 0. -1.
          4   -1    0    0  501    0  0.00000000000E+00 -0.00000000000E+00 -0.74845982965E+03  0.74846090713E+03  0.12700000000E+01 0. -1.
         25    2    1    2    0    0  0.00000000000E+00  0.00000000000E+00 -0.74331926089E+03  0.75375603198E+03  0.12499852854E+03 0.  0.
    9000005    1    3    3    0    0  0.61462637848E+02  0.11234151634E+02 -0.36479476925E+03  0.37010820808E+03  0.10000000000E+01 0.  0.
    9000005    1    3    3    0    0 -0.61462637848E+02 -0.11234151634E+02 -0.37852449164E+03  0.38364782390E+03  0.10000000000E+01 0.  0.
<mgrwt>
<rscale>  0 0.12499853E+03</rscale>
<asrwt>0</asrwt>
<pdfrwt beam="2">  1        4 0.11515955E+00 0.12499853E+03</pdfrwt>
<pdfrwt beam="1">  1       -4 0.80282914E-03 0.12499853E+03</pdfrwt>
<totfact> 0.40396451E+03</totfact>
</mgrwt>
</event>
<event>
 5    1  0.3316206E-002  0.1250028E+03  0.7818608E-02  0.1235065E+00
         -4   -1    0    0    0  501 -0.00000000000E+00  0.00000000000E+00  0.28565617113E+02  0.28593834668E+02  0.12700000000E+01 0. -1.
          4   -1    0    0  501    0  0.00000000000E+00 -0.00000000000E+00 -0.13665395118E+03  0.13665985246E+03  0.12700000000E+01 0. -1.
         25    2    1    2    0    0  0.00000000000E+00  0.00000000000E+00 -0.10808833407E+03  0.16525368713E+03  0.12500277256E+03 0.  0.
    9000005    1    3    3    0    0  0.34908242772E+02 -0.51772282362E+02 -0.50681851893E+02  0.80427636704E+02  0.10000000000E+01 0.  0.
    9000005    1    3    3    0    0 -0.34908242772E+02  0.51772282362E+02 -0.57406482179E+02  0.84826050424E+02  0.10000000000E+01 0.  0.
<mgrwt>
<rscale>  0 0.12500277E+03</rscale>
<asrwt>0</asrwt>
<pdfrwt beam="2">  1        4 0.21026309E-01 0.12500277E+03</pdfrwt>
<pdfrwt beam="1">  1       -4 0.43973349E-02 0.12500277E+03</pdfrwt>
<totfact> 0.96333370E+03</totfact>
</mgrwt>
</event>
<event>
 5    1  0.3316206E-002  0.1250187E+03  0.7818608E-02  0.1235040E+00
         -4   -1    0    0    0  501 -0.00000000000E+00  0.00000000000E+00  0.71516103220E+03  0.71516215985E+03  0.12700000000E+01 0.  1.
          4   -1    0    0  501    0  0.00000000000E+00 -0.00000000000E+00 -0.53887431516E+01  0.55363754167E+01  0.12700000000E+01 0.  1.
         25    2    1    2    0    0  0.00000000000E+00  0.00000000000E+00  0.70977228905E+03  0.72069853527E+03  0.12501870432E+03 0.  0.
    9000005    1    3    3    0    0  0.34536851637E+02 -0.49763718187E+02  0.26610238075E+03  0.27291152195E+03  0.10000000000E+01 0.  0.
    9000005    1    3    3    0    0 -0.34536851637E+02  0.49763718187E+02  0.44366990830E+03  0.44778701332E+03  0.10000000000E+01 0.  0.
<mgrwt>
<rscale>  0 0.12501870E+03</rscale>
<asrwt>0</asrwt>
<pdfrwt beam="2">  1        4 0.84048088E-03 0.12501870E+03</pdfrwt>
<pdfrwt beam="1">  1       -4 0.11003616E+00 0.12501870E+03</pdfrwt>
<totfact> 0.41999147E+03</totfact>
</mgrwt>
</event>
<event>
 5    1  0.3316206E-002  0.1249968E+03  0.7818608E-02  0.1235074E+00
          4   -1    0    0  501    0  0.00000000000E+00  0.00000000000E+00  0.38880912415E+02  0.38901648426E+02  0.12700000000E+01 0. -1.
         -4   -1    0    0    0  501 -0.00000000000E+00 -0.00000000000E+00 -0.10041037878E+03  0.10041841000E+03  0.12700000000E+01 0. -1.
         25    2    1    2    0    0  0.00000000000E+00  0.00000000000E+00 -0.61529466363E+02  0.13932005842E+03  0.12499681375E+03 0.  0.
    9000005    1    3    3    0    0  0.62998153329E+01  0.25318016041E+02  0.32525479046E+02  0.41708469124E+02  0.10000000000E+01 0.  0.
    9000005    1    3    3    0    0 -0.62998153329E+01 -0.25318016041E+02 -0.94054945410E+02  0.97611589299E+02  0.10000000000E+01 0.  0.
<mgrwt>
<rscale>  0 0.12499681E+03</rscale>
<asrwt>0</asrwt>
<pdfrwt beam="1">  1        4 0.59838918E-02 0.12499681E+03</pdfrwt>
<pdfrwt beam="2">  1       -4 0.15449963E-01 0.12499681E+03</pdfrwt>
<totfact> 0.10148426E+04</totfact>
</mgrwt>
</event>
<event>
 5    1  0.3316206E-002  0.1250033E+03  0.7818608E-02  0.1235064E+00
         -4   -1    0    0    0  501 -0.00000000000E+00  0.00000000000E+00  0.94942689247E+01  0.95788330403E+01  0.12700000000E+01 0. -1.
          4   -1    0    0  501    0  0.00000000000E+00 -0.00000000000E+00 -0.40954434325E+03  0.40954631238E+03  0.12700000000E+01 0. -1.
         25    2    1    2    0    0  0.00000000000E+00  0.00000000000E+00 -0.40005007432E+03  0.41912514542E+03  0.12500330220E+03 0.  0.
    9000005    1    3    3    0    0  0.11700910402E+02 -0.61231501215E+02 -0.18531482537E+03  0.19552184673E+03  0.10000000000E+01 0.  0.
    9000005    1    3    3    0    0 -0.11700910402E+02  0.61231501215E+02 -0.21473524895E+03  0.22360329869E+03  0.10000000000E+01 0.  0.
<mgrwt>
<rscale>  0 0.12500330E+03</rscale>
<asrwt>0</asrwt>
<pdfrwt beam="2">  1        4 0.63013465E-01 0.12500330E+03</pdfrwt>
<pdfrwt beam="1">  1       -4 0.14673135E-02 0.12500330E+03</pdfrwt>
<totfact> 0.62729691E+03</totfact>
</mgrwt>
</event>
<event>
 5    1  0.3316206E-002  0.1249900E+03  0.7818608E-02  0.1235085E+00
         -4   -1    0    0    0  501 -0.00000000000E+00  0.00000000000E+00  0.67370679430E+02  0.67382648707E+02  0.12700000000E+01 0.  1.
          4   -1    0    0  501    0  0.00000000000E+00 -0.00000000000E+00 -0.57948091645E+02  0.57962006740E+02  0.12700000000E+01 0.  1.
         25    2    1    2    0    0  0.00000000000E+00  0.00000000000E+00  0.94225877848E+01  0.12534465545E+03  0.12498998955E+03 0.  0.
    9000005    1    3    3    0    0  0.23628237488E+02 -0.19780997837E+02 -0.49803262631E+02  0.58574281480E+02  0.10000000000E+01 0.  0.
    9000005    1    3    3    0    0 -0.23628237488E+02  0.19780997837E+02  0.59225850416E+02  0.66770373967E+02  0.10000000000E+01 0.  0.
<mgrwt>
<rscale>  0 0.12498999E+03</rscale>
<asrwt>0</asrwt>
<pdfrwt beam="2">  1        4 0.89170821E-02 0.12498999E+03</pdfrwt>
<pdfrwt beam="1">  1       -4 0.10366711E-01 0.12498999E+03</pdfrwt>
<totfact> 0.10447744E+04</totfact>
</mgrwt>
</event>
<event>
 5    1  0.3316206E-002  0.1250003E+03  0.7818608E-02  0.1235069E+00
          4   -1    0    0  501    0  0.00000000000E+00  0.00000000000E+00  0.61973110199E+02  0.61986121735E+02  0.12700000000E+01 0. -1.
         -4   -1    0    0    0  501 -0.00000000000E+00 -0.00000000000E+00 -0.63005618947E+02  0.63018417299E+02  0.12700000000E+01 0. -1.
         25    2    1    2    0    0  0.00000000000E+00  0.00000000000E+00 -0.10325087476E+01  0.12500453903E+03  0.12500027482E+03 0.  0.
    9000005    1    3    3    0    0 -0.49153491556E+02  0.21550349977E+01  0.38015012894E+02  0.62184010110E+02  0.10000000000E+01 0.  0.
    9000005    1    3    3    0    0  0.49153491556E+02 -0.21550349977E+01 -0.39047521641E+02  0.62820528924E+02  0.10000000000E+01 0.  0.
<mgrwt>
<rscale>  0 0.12500027E+03</rscale>
<asrwt>0</asrwt>
<pdfrwt beam="1">  1        4 0.95363100E-02 0.12500027E+03</pdfrwt>
<pdfrwt beam="2">  1       -4 0.96951576E-02 0.12500027E+03</pdfrwt>
<totfact> 0.10452699E+04</totfact>
</mgrwt>
</event>
<event>
 5    1  0.3316206E-002  0.1250517E+03  0.7818608E-02  0.1234988E+00
          4   -1    0    0  501    0  0.00000000000E+00  0.00000000000E+00  0.68891503562E+02  0.68903208656E+02  0.12700000000E+01 0.  1.
         -4   -1    0    0    0  501 -0.00000000000E+00 -0.00000000000E+00 -0.56724770662E+02  0.56738985774E+02  0.12700000000E+01 0.  1.
         25    2    1    2    0    0  0.00000000000E+00  0.00000000000E+00  0.12166732901E+02  0.12564219443E+03  0.12505171583E+03 0.  0.
    9000005    1    3    3    0    0 -0.43896895041E+00  0.55139334002E+02  0.35683367445E+02  0.65687453598E+02  0.10000000000E+01 0.  0.
    9000005    1    3    3    0    0  0.43896895041E+00 -0.55139334002E+02 -0.23516634545E+02  0.59954740832E+02  0.10000000000E+01 0.  0.
<mgrwt>
<rscale>  0 0.12505172E+03</rscale>
<asrwt>0</asrwt>
<pdfrwt beam="1">  1        4 0.10600687E-01 0.12505172E+03</pdfrwt>
<pdfrwt beam="2">  1       -4 0.87288817E-02 0.12505172E+03</pdfrwt>
<totfact> 0.10426648E+04</totfact>
</mgrwt>
</event>
<event>
 5    1  0.3316206E-002  0.1250123E+03  0.7818608E-02  0.1235050E+00
          4   -1    0    0  501    0  0.00000000000E+00  0.00000000000E+00  0.54536779337E+03  0.54536927209E+03  0.12700000000E+01 0.  1.
         -4   -1    0    0    0  501 -0.00000000000E+00 -0.00000000000E+00 -0.71062259741E+01  0.72188189889E+01  0.12700000000E+01 0.  1.
         25    2    1    2    0    0  0.00000000000E+00  0.00000000000E+00  0.53826156739E+03  0.55258809108E+03  0.12501233328E+03 0.  0.
    9000005    1    3    3    0    0 -0.57236890525E+02 -0.23371519359E+00  0.38007024503E+03  0.38435726534E+03  0.10000000000E+01 0.  0.
    9000005    1    3    3    0    0  0.57236890525E+02  0.23371519359E+00  0.15819132236E+03  0.16823082575E+03  0.10000000000E+01 0.  0.
<mgrwt>
<rscale>  0 0.12501233E+03</rscale>
<asrwt>0</asrwt>
<pdfrwt beam="1">  1        4 0.83911523E-01 0.12501233E+03</pdfrwt>
<pdfrwt beam="2">  1       -4 0.11020401E-02 0.12501233E+03</pdfrwt>
<totfact> 0.51989929E+03</totfact>
</mgrwt>
</event>
<event>
 4    1  0.3316206E-002  0.1249384E+03  0.7818608E-02  0.1235166E+00
         -4   -1    0    0    0  501 -0.00000000000E+00  0.00000000000E+00  0.17147356912E+03  0.17147827211E+03  0.12700000000E+01 0.  1.
          4   -1    0    0  501    0  0.00000000000E+00 -0.00000000000E+00 -0.22735291961E+02  0.22770735618E+02  0.12700000000E+01 0.  1.
    9000005    1    1    2    0    0 -0.12772304819E+01 -0.61811196552E+02  0.60537455673E+02  0.86533455243E+02  0.10000000000E+01 0.  0.
    9000005    1    1    2    0    0  0.12772304819E+01  0.61811196552E+02  0.88200821486E+02  0.10771555249E+03  0.10000000000E+01 0.  0.
<mgrwt>
<rscale>  0 0.12493839E+03</rscale>
<asrwt>0</asrwt>
<pdfrwt beam="2">  1        4 0.35008254E-02 0.12493839E+03</pdfrwt>
<pdfrwt beam="1">  1       -4 0.26383637E-01 0.12493839E+03</pdfrwt>
<totfact> 0.91239011E+03</totfact>
</mgrwt>
</event>
<event>
 5    1  0.3316206E-002  0.1250011E+03  0.7818608E-02  0.1235068E+00
         -4   -1    0    0    0  501 -0.00000000000E+00  0.00000000000E+00  0.24749476755E+03  0.24749802599E+03  0.12700000000E+01 0.  1.
          4   -1    0    0  501    0  0.00000000000E+00 -0.00000000000E+00 -0.15754521769E+02  0.15805627357E+02  0.12700000000E+01 0.  1.
         25    2    1    2    0    0  0.00000000000E+00  0.00000000000E+00  0.23174024579E+03  0.26330365334E+03  0.12500108938E+03 0.  0.
    9000005    1    3    3    0    0 -0.45013010108E+02  0.19784759946E+02  0.34624070353E+02  0.60145108304E+02  0.10000000000E+01 0.  0.
    9000005    1    3    3    0    0  0.45013010108E+02 -0.19784759946E+02  0.19711617543E+03  0.20315854504E+03  0.10000000000E+01 0.  0.
<mgrwt>
<rscale>  0 0.12500109E+03</rscale>
<asrwt>0</asrwt>
<pdfrwt beam="2">  1        4 0.24279546E-02 0.12500109E+03</pdfrwt>
<pdfrwt beam="1">  1       -4 0.38080297E-01 0.12500109E+03</pdfrwt>
<totfact> 0.80442715E+03</totfact>
</mgrwt>
</event>
<event>
 5    1  0.3316206E-002  0.1250001E+03  0.7818608E-02  0.1235069E+00
         -4   -1    0    0    0  501 -0.00000000000E+00  0.00000000000E+00  0.11260228511E+04  0.11260235673E+04  0.12700000000E+01 0.  1.
          4   -1    0    0  501    0  0.00000000000E+00 -0.00000000000E+00 -0.33520975257E+01  0.35846140408E+01  0.12700000000E+01 0.  1.
         25    2    1    2    0    0  0.00000000000E+00  0.00000000000E+00  0.11226707536E+04  0.11296081813E+04  0.12500008962E+03 0.  0.
    9000005    1    3    3    0    0 -0.24891451092E+01 -0.17838543643E+02  0.20568186602E+02  0.27357993033E+02  0.10000000000E+01 0.  0.
    9000005    1    3    3    0    0  0.24891451092E+01  0.17838543643E+02  0.11021025670E+04  0.11022501883E+04  0.10000000000E+01 0.  0.
<mgrwt>
<rscale>  0 0.12500009E+03</rscale>
<asrwt>0</asrwt>
<pdfrwt beam="2">  1        4 0.53364885E-03 0.12500009E+03</pdfrwt>
<pdfrwt beam="1">  1       -4 0.17325204E+00 0.12500009E+03</pdfrwt>
<totfact> 0.26632569E+03</totfact>
</mgrwt>
</event>
<event>
 5    1  0.3316206E-002  0.1249948E+03  0.7818608E-02  0.1235077E+00
         -4   -1    0    0    0  501 -0.00000000000E+00  0.00000000000E+00  0.31435760413E+02  0.31461403858E+02  0.12700000000E+01 0. -1.
          4   -1    0    0  501    0  0.00000000000E+00 -0.00000000000E+00 -0.12417144201E+03  0.12417793649E+03  0.12700000000E+01 0. -1.
         25    2    1    2    0    0  0.00000000000E+00  0.00000000000E+00 -0.92735681594E+02  0.15563934035E+03  0.12499479038E+03 0.  0.
    9000005    1    3    3    0    0  0.29681608912E+02 -0.12384134325E+02  0.20345203901E+02  0.38069568061E+02  0.10000000000E+01 0.  0.
    9000005    1    3    3    0    0 -0.29681608912E+02  0.12384134325E+02 -0.11308088549E+03  0.11756977228E+03  0.10000000000E+01 0.  0.
<mgrwt>
<rscale>  0 0.12499479E+03</rscale>
<asrwt>0</asrwt>
<pdfrwt beam="2">  1        4 0.19105771E-01 0.12499479E+03</pdfrwt>
<pdfrwt beam="1">  1       -4 0.48387430E-02 0.12499479E+03</pdfrwt>
<totfact> 0.98201639E+03</totfact>
</mgrwt>
</event>
<event>
 5    1  0.3316206E-002  0.1249989E+03  0.7818608E-02  0.1235071E+00
          4   -1    0    0  501    0  0.00000000000E+00  0.00000000000E+00  0.15981765990E+03  0.15982270588E+03  0.12700000000E+01 0.  1.
         -4   -1    0    0    0  501 -0.00000000000E+00 -0.00000000000E+00 -0.24419540214E+02  0.24452542695E+02  0.12700000000E+01 0.  1.
         25    2    1    2    0    0  0.00000000000E+00  0.00000000000E+00  0.13539811968E+03  0.18427524858E+03  0.12499886569E+03 0.  0.
    9000005    1    3    3    0    0  0.16028434788E+02 -0.23333574433E+02  0.14983035772E+03  0.15248443367E+03  0.10000000000E+01 0.  0.
    9000005    1    3    3    0    0 -0.16028434788E+02  0.23333574433E+02 -0.14432238036E+02  0.31790814905E+02  0.10000000000E+01 0.  0.
<mgrwt>
<rscale>  0 0.12499887E+03</rscale>
<asrwt>0</asrwt>
<pdfrwt beam="1">  1        4 0.24590259E-01 0.12499887E+03</pdfrwt>
<pdfrwt beam="2">  1       -4 0.37597791E-02 0.12499887E+03</pdfrwt>
<totfact> 0.92855416E+03</totfact>
</mgrwt>
</event>
<event>
 5    1  0.3316206E-002  0.1249946E+03  0.7818608E-02  0.1235078E+00
          4   -1    0    0  501    0  0.00000000000E+00  0.00000000000E+00  0.36288756475E+02  0.36310972812E+02  0.12700000000E+01 0. -1.
         -4   -1    0    0    0  501 -0.00000000000E+00 -0.00000000000E+00 -0.10757533460E+03  0.10758283094E+03  0.12700000000E+01 0. -1.
         25    2    1    2    0    0  0.00000000000E+00  0.00000000000E+00 -0.71286578122E+02  0.14389380375E+03  0.12499460204E+03 0.  0.
    9000005    1    3    3    0    0  0.28841391189E+02  0.46841382791E+02 -0.69773444650E+02  0.88855357552E+02  0.10000000000E+01 0.  0.
    9000005    1    3    3    0    0 -0.28841391189E+02 -0.46841382791E+02 -0.15131334724E+01  0.55038446202E+02  0.10000000000E+01 0.  0.
<mgrwt>
<rscale>  0 0.12499460E+03</rscale>
<asrwt>0</asrwt>
<pdfrwt beam="1">  1        4 0.55851713E-02 0.12499460E+03</pdfrwt>
<pdfrwt beam="2">  1       -4 0.16552337E-01 0.12499460E+03</pdfrwt>
<totfact> 0.10054735E+04</totfact>
</mgrwt>
</event>
<event>
 5    1  0.3316206E-002  0.1250045E+03  0.7818608E-02  0.1235062E+00
         -4   -1    0    0    0  501 -0.00000000000E+00  0.00000000000E+00  0.52901296046E+02  0.52916538278E+02  0.12700000000E+01 0. -1.
          4   -1    0    0  501    0  0.00000000000E+00 -0.00000000000E+00 -0.73814312793E+02  0.73825237372E+02  0.12700000000E+01 0. -1.
         25    2    1    2    0    0  0.00000000000E+00  0.00000000000E+00 -0.20913016747E+02  0.12674177565E+03  0.12500449362E+03 0.  0.
    9000005    1    3    3    0    0  0.62200901601E+02  0.98628082660E+00 -0.44065076035E+01  0.62372607923E+02  0.10000000000E+01 0.  0.
    9000005    1    3    3    0    0 -0.62200901601E+02 -0.98628082660E+00 -0.16506509143E+02  0.64369167728E+02  0.10000000000E+01 0.  0.
<mgrwt>
<rscale>  0 0.12500449E+03</rscale>
<asrwt>0</asrwt>
<pdfrwt beam="2">  1        4 0.11358061E-01 0.12500449E+03</pdfrwt>
<pdfrwt beam="1">  1       -4 0.81406738E-02 0.12500449E+03</pdfrwt>
<totfact> 0.10413704E+04</totfact>
</mgrwt>
</event>
<event>
 5    1  0.3316206E-002  0.1249953E+03  0.7818608E-02  0.1235077E+00
          4   -1    0    0  501    0  0.00000000000E+00  0.00000000000E+00  0.10436689005E+03  0.10437461683E+03  0.12700000000E+01 0.  1.
         -4   -1    0    0    0  501 -0.00000000000E+00 -0.00000000000E+00 -0.37405358035E+02  0.37426911571E+02  0.12700000000E+01 0.  1.
         25    2    1    2    0    0  0.00000000000E+00  0.00000000000E+00  0.66961532017E+02  0.14180152840E+03  0.12499530666E+03 0.  0.
    9000005    1    3    3    0    0 -0.48832473303E+02 -0.21202862786E+02  0.70603359612E+02  0.88430799090E+02  0.10000000000E+01 0.  0.
    9000005    1    3    3    0    0  0.48832473303E+02  0.21202862786E+02 -0.36418275951E+01  0.53370729314E+02  0.10000000000E+01 0.  0.
<mgrwt>
<rscale>  0 0.12499531E+03</rscale>
<asrwt>0</asrwt>
<pdfrwt beam="1">  1        4 0.16058697E-01 0.12499531E+03</pdfrwt>
<pdfrwt beam="2">  1       -4 0.57569228E-02 0.12499531E+03</pdfrwt>
<totfact> 0.10097451E+04</totfact>
</mgrwt>
</event>
<event>
 5    1  0.3316206E-002  0.1249835E+03  0.7818608E-02  0.1235095E+00
         -4   -1    0    0    0  501 -0.00000000000E+00  0.00000000000E+00  0.85797930962E+02  0.85807329858E+02  0.12700000000E+01 0.  1.
          4   -1    0    0  501    0  0.00000000000E+00 -0.00000000000E+00 -0.45495689138E+02  0.45513411541E+02  0.12700000000E+01 0.  1.
         25    2    1    2    0    0  0.00000000000E+00  0.00000000000E+00  0.40302241824E+02  0.13132074140E+03  0.12498346461E+03 0.  0.
    9000005    1    3    3    0    0 -0.31678524865E+02 -0.25151687321E+01  0.76678280078E+02  0.83008515510E+02  0.10000000000E+01 0.  0.
    9000005    1    3    3    0    0  0.31678524865E+02  0.25151687321E+01 -0.36376038254E+02  0.48312225890E+02  0.10000000000E+01 0.  0.
<mgrwt>
<rscale>  0 0.12498346E+03</rscale>
<asrwt>0</asrwt>
<pdfrwt beam="2">  1        4 0.70014230E-02 0.12498346E+03</pdfrwt>
<pdfrwt beam="1">  1       -4 0.13201768E-01 0.12498346E+03</pdfrwt>
<totfact> 0.10320067E+04</totfact>
</mgrwt>
</event>
<event>
 5    1  0.3316206E-002  0.1250003E+03  0.7818608E-02  0.1235069E+00
          4   -1    0    0  501    0  0.00000000000E+00  0.00000000000E+00  0.75802213581E+02  0.75812851706E+02  0.12700000000E+01 0.  1.
         -4   -1    0    0    0  501 -0.00000000000E+00 -0.00000000000E+00 -0.51510273413E+02  0.51525927135E+02  0.12700000000E+01 0.  1.
         25    2    1    2    0    0  0.00000000000E+00  0.00000000000E+00  0.24291940168E+02  0.12733877884E+03  0.12500026496E+03 0.  0.
    9000005    1    3    3    0    0  0.62105198989E+02 -0.44480844014E+01  0.17577257187E+02  0.64705495644E+02  0.10000000000E+01 0.  0.
    9000005    1    3    3    0    0 -0.62105198989E+02  0.44480844014E+01  0.67146829807E+01  0.62633283196E+02  0.10000000000E+01 0.  0.
<mgrwt>
<rscale>  0 0.12500026E+03</rscale>
<asrwt>0</asrwt>
<pdfrwt beam="1">  1        4 0.11663901E-01 0.12500026E+03</pdfrwt>
<pdfrwt beam="2">  1       -4 0.79266799E-02 0.12500026E+03</pdfrwt>
<totfact> 0.10401731E+04</totfact>
</mgrwt>
</event>
<event>
 5    1  0.3316206E-002  0.1250069E+03  0.7818608E-02  0.1235059E+00
          4   -1    0    0  501    0  0.00000000000E+00  0.00000000000E+00  0.11677801667E+02  0.11746657047E+02  0.12700000000E+01 0.  1.
         -4   -1    0    0    0  501 -0.00000000000E+00 -0.00000000000E+00 -0.33348563325E+03  0.33348805149E+03  0.12700000000E+01 0.  1.
         25    2    1    2    0    0  0.00000000000E+00  0.00000000000E+00 -0.32180783158E+03  0.34523470853E+03  0.12500689384E+03 0.  0.
    9000005    1    3    3    0    0 -0.87312519955E+01 -0.32694708405E+02 -0.30600629481E+03  0.30787340123E+03  0.10000000000E+01 0.  0.
    9000005    1    3    3    0    0  0.87312519955E+01  0.32694708405E+02 -0.15801536768E+02  0.37361307303E+02  0.10000000000E+01 0.  0.
<mgrwt>
<rscale>  0 0.12500689E+03</rscale>
<asrwt>0</asrwt>
<pdfrwt beam="1">  1        4 0.18020677E-02 0.12500689E+03</pdfrwt>
<pdfrwt beam="2">  1       -4 0.51310957E-01 0.12500689E+03</pdfrwt>
<totfact> 0.70241281E+03</totfact>
</mgrwt>
</event>
<event>
 5    1  0.3316206E-002  0.1250007E+03  0.7818608E-02  0.1235068E+00
         -4   -1    0    0    0  501 -0.00000000000E+00  0.00000000000E+00  0.33623664018E+02  0.33647640065E+02  0.12700000000E+01 0. -1.
          4   -1    0    0  501    0  0.00000000000E+00 -0.00000000000E+00 -0.11610803439E+03  0.11611497987E+03  0.12700000000E+01 0. -1.
         25    2    1    2    0    0  0.00000000000E+00  0.00000000000E+00 -0.82484370369E+02  0.14976261993E+03  0.12500068389E+03 0.  0.
    9000005    1    3    3    0    0  0.40211061482E+02  0.47636168212E+02 -0.35998040181E+02  0.71993005802E+02  0.10000000000E+01 0.  0.
    9000005    1    3    3    0    0 -0.40211061482E+02 -0.47636168212E+02 -0.46486330188E+02  0.77769614129E+02  0.10000000000E+01 0.  0.
<mgrwt>
<rscale>  0 0.12500068E+03</rscale>
<asrwt>0</asrwt>
<pdfrwt beam="2">  1        4 0.17865153E-01 0.12500068E+03</pdfrwt>
<pdfrwt beam="1">  1       -4 0.51752500E-02 0.12500068E+03</pdfrwt>
<totfact> 0.99349508E+03</totfact>
</mgrwt>
</event>
<event>
 5    1  0.3316206E-002  0.1249933E+03  0.7818608E-02  0.1235080E+00
         -4   -1    0    0    0  501 -0.00000000000E+00  0.00000000000E+00  0.31768288006E+02  0.31793663250E+02  0.12700000000E+01 0. -1.
          4   -1    0    0  501    0  0.00000000000E+00 -0.00000000000E+00 -0.12286969377E+03  0.12287625705E+03  0.12700000000E+01 0. -1.
         25    2    1    2    0    0  0.00000000000E+00  0.00000000000E+00 -0.91101405760E+02  0.15466992030E+03  0.12499327227E+03 0.  0.
    9000005    1    3    3    0    0 -0.25770896348E+02 -0.38873654271E+02  0.59108873714E+01  0.47023809761E+02  0.10000000000E+01 0.  0.
    9000005    1    3    3    0    0  0.25770896348E+02  0.38873654271E+02 -0.97012293132E+02  0.10764611054E+03  0.10000000000E+01 0.  0.
<mgrwt>
<rscale>  0 0.12499327E+03</rscale>
<asrwt>0</asrwt>
<pdfrwt beam="2">  1        4 0.18905486E-01 0.12499327E+03</pdfrwt>
<pdfrwt beam="1">  1       -4 0.48898858E-02 0.12499327E+03</pdfrwt>
<totfact> 0.98395224E+03</totfact>
</mgrwt>
</event>
<event>
 5    1  0.3316206E-002  0.1250014E+03  0.7818608E-02  0.1235067E+00
         -4   -1    0    0    0  501 -0.00000000000E+00  0.00000000000E+00  0.13769591914E+02  0.13828035344E+02  0.12700000000E+01 0.  1.
          4   -1    0    0  501    0  0.00000000000E+00 -0.00000000000E+00 -0.28303248454E+03  0.28303533385E+03  0.12700000000E+01 0.  1.
         25    2    1    2    0    0  0.00000000000E+00  0.00000000000E+00 -0.26926289263E+03  0.29686336919E+03  0.12500141848E+03 0.  0.
    9000005    1    3    3    0    0 -0.76005083848E+01  0.92856562191E+01  0.11019530298E+02  0.16322413642E+02  0.10000000000E+01 0.  0.
    9000005    1    3    3    0    0  0.76005083848E+01 -0.92856562191E+01 -0.28028242293E+03  0.28054095555E+03  0.10000000000E+01 0.  0.
<mgrwt>
<rscale>  0 0.12500142E+03</rscale>
<asrwt>0</asrwt>
<pdfrwt beam="2">  1        4 0.43548170E-01 0.12500142E+03</pdfrwt>
<pdfrwt beam="1">  1       -4 0.21231138E-02 0.12500142E+03</pdfrwt>
<totfact> 0.75991592E+03</totfact>
</mgrwt>
</event>
<event>
 5    1  0.3316206E-002  0.1250006E+03  0.7818608E-02  0.1235068E+00
         -4   -1    0    0    0  501 -0.00000000000E+00  0.00000000000E+00  0.23527492840E+02  0.23561744828E+02  0.12700000000E+01 0. -1.
          4   -1    0    0  501    0  0.00000000000E+00 -0.00000000000E+00 -0.16587318754E+03  0.16587804932E+03  0.12700000000E+01 0. -1.
         25    2    1    2    0    0  0.00000000000E+00  0.00000000000E+00 -0.14234569470E+03  0.18943979415E+03  0.12500055522E+03 0.  0.
    9000005    1    3    3    0    0  0.13951718659E+02  0.36085627139E+02 -0.14554821900E+03  0.15060580000E+03  0.10000000000E+01 0.  0.
    9000005    1    3    3    0    0 -0.13951718659E+02 -0.36085627139E+02  0.32025242956E+01  0.38833994147E+02  0.10000000000E+01 0.  0.
<mgrwt>
<rscale>  0 0.12500056E+03</rscale>
<asrwt>0</asrwt>
<pdfrwt beam="2">  1        4 0.25521960E-01 0.12500056E+03</pdfrwt>
<pdfrwt beam="1">  1       -4 0.36226231E-02 0.12500056E+03</pdfrwt>
<totfact> 0.91943737E+03</totfact>
</mgrwt>
</event>
<event>
 5    1  0.3316206E-002  0.1249918E+03  0.7818608E-02  0.1235082E+00
          4   -1    0    0  501    0  0.00000000000E+00  0.00000000000E+00  0.76076071964E+01  0.77128844964E+01  0.12700000000E+01 0.  1.
         -4   -1    0    0    0  501 -0.00000000000E+00 -0.00000000000E+00 -0.50976502489E+03  0.50976660689E+03  0.12700000000E+01 0.  1.
         25    2    1    2    0    0  0.00000000000E+00  0.00000000000E+00 -0.50215741770E+03  0.51747949139E+03  0.12499180718E+03 0.  0.
    9000005    1    3    3    0    0 -0.46888296447E+02  0.36892567063E+02 -0.32799607699E+03  0.33337966400E+03  0.10000000000E+01 0.  0.
    9000005    1    3    3    0    0  0.46888296447E+02 -0.36892567063E+02 -0.17416134071E+03  0.18409982739E+03  0.10000000000E+01 0.  0.
<mgrwt>
<rscale>  0 0.12499181E+03</rscale>
<asrwt>0</asrwt>
<pdfrwt beam="1">  1        4 0.11786215E-02 0.12499181E+03</pdfrwt>
<pdfrwt beam="2">  1       -4 0.78433582E-01 0.12499181E+03</pdfrwt>
<totfact> 0.54543059E+03</totfact>
</mgrwt>
</event>
<event>
 5    1  0.3316206E-002  0.1250022E+03  0.7818608E-02  0.1235066E+00
          4   -1    0    0  501    0  0.00000000000E+00  0.00000000000E+00  0.16879763142E+03  0.16880240897E+03  0.12700000000E+01 0.  1.
         -4   -1    0    0    0  501 -0.00000000000E+00 -0.00000000000E+00 -0.23119895867E+02  0.23154750806E+02  0.12700000000E+01 0.  1.
         25    2    1    2    0    0  0.00000000000E+00  0.00000000000E+00  0.14567773555E+03  0.19195715977E+03  0.12500219419E+03 0.  0.
    9000005    1    3    3    0    0  0.17638361092E+02  0.53546449522E+02  0.11424548430E+03  0.12740237329E+03  0.10000000000E+01 0.  0.
    9000005    1    3    3    0    0 -0.17638361092E+02 -0.53546449522E+02  0.31432251258E+02  0.64554786481E+02  0.10000000000E+01 0.  0.
<mgrwt>
<rscale>  0 0.12500219E+03</rscale>
<asrwt>0</asrwt>
<pdfrwt beam="1">  1        4 0.25971914E-01 0.12500219E+03</pdfrwt>
<pdfrwt beam="2">  1       -4 0.35599559E-02 0.12500219E+03</pdfrwt>
<totfact> 0.91503390E+03</totfact>
</mgrwt>
</event>
<event>
 5    1  0.3316206E-002  0.1249975E+03  0.7818608E-02  0.1235073E+00
          4   -1    0    0  501    0  0.00000000000E+00  0.00000000000E+00  0.13465235502E+03  0.13465834402E+03  0.12700000000E+01 0.  1.
         -4   -1    0    0    0  501 -0.00000000000E+00 -0.00000000000E+00 -0.28988184912E+02  0.29015991530E+02  0.12700000000E+01 0.  1.
         25    2    1    2    0    0  0.00000000000E+00  0.00000000000E+00  0.10566417011E+03  0.16367433555E+03  0.12499748506E+03 0.  0.
    9000005    1    3    3    0    0 -0.12863982154E+01  0.49505250457E+02  0.10273920664E+03  0.11405599162E+03  0.10000000000E+01 0.  0.
    9000005    1    3    3    0    0  0.12863982154E+01 -0.49505250457E+02  0.29249634748E+01  0.49618343931E+02  0.10000000000E+01 0.  0.
<mgrwt>
<rscale>  0 0.12499749E+03</rscale>
<asrwt>0</asrwt>
<pdfrwt beam="1">  1        4 0.20718347E-01 0.12499749E+03</pdfrwt>
<pdfrwt beam="2">  1       -4 0.44623204E-02 0.12499749E+03</pdfrwt>
<totfact> 0.96644503E+03</totfact>
</mgrwt>
</event>
<event>
 5    1  0.3316206E-002  0.1249991E+03  0.7818608E-02  0.1235071E+00
          4   -1    0    0  501    0  0.00000000000E+00  0.00000000000E+00  0.89216576562E+03  0.89216666954E+03  0.12700000000E+01 0.  1.
         -4   -1    0    0    0  501 -0.00000000000E+00 -0.00000000000E+00 -0.42853059476E+01  0.44695354417E+01  0.12700000000E+01 0.  1.
         25    2    1    2    0    0  0.00000000000E+00  0.00000000000E+00  0.88788045967E+03  0.89663620498E+03  0.12499909369E+03 0.  0.
    9000005    1    3    3    0    0  0.35496755512E+02  0.41393166917E+02  0.66290082648E+03  0.66514052625E+03  0.10000000000E+01 0.  0.
    9000005    1    3    3    0    0 -0.35496755512E+02 -0.41393166917E+02  0.22497963320E+03  0.23149567873E+03  0.10000000000E+01 0.  0.
<mgrwt>
<rscale>  0 0.12499909E+03</rscale>
<asrwt>0</asrwt>
<pdfrwt beam="1">  1        4 0.13727034E+00 0.12499909E+03</pdfrwt>
<pdfrwt beam="2">  1       -4 0.67351970E-03 0.12499909E+03</pdfrwt>
<totfact> 0.34289767E+03</totfact>
</mgrwt>
</event>
<event>
 5    1  0.3316206E-002  0.1250222E+03  0.7818608E-02  0.1235035E+00
          4   -1    0    0  501    0  0.00000000000E+00  0.00000000000E+00  0.18000440947E+01  0.22029658969E+01  0.12700000000E+01 0.  1.
         -4   -1    0    0    0  501 -0.00000000000E+00 -0.00000000000E+00 -0.19519471245E+04  0.19519475377E+04  0.12700000000E+01 0.  1.
         25    2    1    2    0    0  0.00000000000E+00  0.00000000000E+00 -0.19501470804E+04  0.19541505036E+04  0.12502221925E+03 0.  0.
    9000005    1    3    3    0    0  0.26319675083E+02  0.55844026940E+02 -0.11277070157E+04  0.11293960306E+04  0.10000000000E+01 0.  0.
    9000005    1    3    3    0    0 -0.26319675083E+02 -0.55844026940E+02 -0.82244006475E+03  0.82475447301E+03  0.10000000000E+01 0.  0.
<mgrwt>
<rscale>  0 0.12502222E+03</rscale>
<asrwt>0</asrwt>
<pdfrwt beam="1">  1        4 0.30795719E-03 0.12502222E+03</pdfrwt>
<pdfrwt beam="2">  1       -4 0.30032906E+00 0.12502222E+03</pdfrwt>
<totfact> 0.10466644E+03</totfact>
</mgrwt>
</event>
<event>
 5    1  0.3316206E-002  0.1249979E+03  0.7818608E-02  0.1235073E+00
         -4   -1    0    0    0  501 -0.00000000000E+00  0.00000000000E+00  0.75640956354E+02  0.75651617155E+02  0.12700000000E+01 0. -1.
          4   -1    0    0  501    0  0.00000000000E+00 -0.00000000000E+00 -0.51618120416E+02  0.51633741442E+02  0.12700000000E+01 0. -1.
         25    2    1    2    0    0  0.00000000000E+00  0.00000000000E+00  0.24022835938E+02  0.12728535860E+03  0.12499786345E+03 0.  0.
    9000005    1    3    3    0    0 -0.59296311589E+02  0.76642256333E+01  0.30518827082E+02  0.67135621909E+02  0.10000000000E+01 0.  0.
    9000005    1    3    3    0    0  0.59296311589E+02 -0.76642256333E+01 -0.64959911442E+01  0.60149736687E+02  0.10000000000E+01 0.  0.
<mgrwt>
<rscale>  0 0.12499786E+03</rscale>
<asrwt>0</asrwt>
<pdfrwt beam="2">  1        4 0.79432710E-02 0.12499786E+03</pdfrwt>
<pdfrwt beam="1">  1       -4 0.11639092E-01 0.12499786E+03</pdfrwt>
<totfact> 0.10403454E+04</totfact>
</mgrwt>
</event>
<event>
 4    1  0.3316206E-002  0.1249356E+03  0.7818608E-02  0.1235170E+00
         -4   -1    0    0    0  501 -0.00000000000E+00  0.00000000000E+00  0.25697685660E+03  0.25697999480E+03  0.12700000000E+01 0. -1.
          4   -1    0    0  501    0  0.00000000000E+00 -0.00000000000E+00 -0.15155336401E+02  0.15208455589E+02  0.12700000000E+01 0. -1.
    9000005    1    1    2    0    0  0.12449212317E+02 -0.48116680975E+02  0.20332601277E+03  0.20931475185E+03  0.10000000000E+01 0.  0.
    9000005    1    1    2    0    0 -0.12449212317E+02  0.48116680975E+02  0.38495507431E+02  0.62873698537E+02  0.10000000000E+01 0.  0.
<mgrwt>
<rscale>  0 0.12493560E+03</rscale>
<asrwt>0</asrwt>
<pdfrwt beam="2">  1        4 0.23359179E-02 0.12493560E+03</pdfrwt>
<pdfrwt beam="1">  1       -4 0.39539225E-01 0.12493560E+03</pdfrwt>
<totfact> 0.79338969E+03</totfact>
</mgrwt>
</event>
<event>
 5    1  0.3316206E-002  0.1249969E+03  0.7818608E-02  0.1235074E+00
          4   -1    0    0  501    0  0.00000000000E+00  0.00000000000E+00  0.31907578560E+02  0.31932843117E+02  0.12700000000E+01 0. -1.
         -4   -1    0    0    0  501 -0.00000000000E+00 -0.00000000000E+00 -0.12234083062E+03  0.12234742227E+03  0.12700000000E+01 0. -1.
         25    2    1    2    0    0  0.00000000000E+00  0.00000000000E+00 -0.90433252056E+02  0.15428026539E+03  0.12499690880E+03 0.  0.
    9000005    1    3    3    0    0  0.57326039247E+02 -0.21528855381E+02 -0.60597585452E+02  0.86155868937E+02  0.10000000000E+01 0.  0.
    9000005    1    3    3    0    0 -0.57326039247E+02  0.21528855381E+02 -0.29835666604E+02  0.68124396448E+02  0.10000000000E+01 0.  0.
<mgrwt>
<rscale>  0 0.12499691E+03</rscale>
<asrwt>0</asrwt>
<pdfrwt beam="1">  1        4 0.49113088E-02 0.12499691E+03</pdfrwt>
<pdfrwt beam="2">  1       -4 0.18824116E-01 0.12499691E+03</pdfrwt>
<totfact> 0.98463823E+03</totfact>
</mgrwt>
</event>
<event>
 5    1  0.3316206E-002  0.1250002E+03  0.7818608E-02  0.1235069E+00
          4   -1    0    0  501    0  0.00000000000E+00  0.00000000000E+00  0.10806368030E+02  0.10880739405E+02  0.12700000000E+01 0.  1.
         -4   -1    0    0    0  501 -0.00000000000E+00 -0.00000000000E+00 -0.36016280742E+03  0.36016504654E+03  0.12700000000E+01 0.  1.
         25    2    1    2    0    0  0.00000000000E+00  0.00000000000E+00 -0.34935643939E+03  0.37104578595E+03  0.12500021409E+03 0.  0.
    9000005    1    3    3    0    0 -0.27888058044E+02  0.25955344915E+02 -0.32171969055E+03  0.32396910809E+03  0.10000000000E+01 0.  0.
    9000005    1    3    3    0    0  0.27888058044E+02 -0.25955344915E+02 -0.27636748844E+02  0.47076677854E+02  0.10000000000E+01 0.  0.
<mgrwt>
<rscale>  0 0.12500021E+03</rscale>
<asrwt>0</asrwt>
<pdfrwt beam="1">  1        4 0.16684116E-02 0.12500021E+03</pdfrwt>
<pdfrwt beam="2">  1       -4 0.55415547E-01 0.12500021E+03</pdfrwt>
<totfact> 0.67469355E+03</totfact>
</mgrwt>
</event>
<event>
 5    1  0.3316206E-002  0.1249998E+03  0.7818608E-02  0.1235070E+00
         -4   -1    0    0    0  501 -0.00000000000E+00  0.00000000000E+00  0.35142148016E+01  0.37366570183E+01  0.12700000000E+01 0. -1.
          4   -1    0    0  501    0  0.00000000000E+00 -0.00000000000E+00 -0.10772300459E+04  0.10772307945E+04  0.12700000000E+01 0. -1.
         25    2    1    2    0    0  0.00000000000E+00  0.00000000000E+00 -0.10737158311E+04  0.10809674515E+04  0.12499978144E+03 0.  0.
    9000005    1    3    3    0    0 -0.56715443817E+02 -0.24167651035E+02 -0.44844782168E+03  0.45266672695E+03  0.10000000000E+01 0.  0.
    9000005    1    3    3    0    0  0.56715443817E+02  0.24167651035E+02 -0.62526800939E+03  0.62830072456E+03  0.10000000000E+01 0.  0.
<mgrwt>
<rscale>  0 0.12499978E+03</rscale>
<asrwt>0</asrwt>
<pdfrwt beam="2">  1        4 0.16574461E+00 0.12499978E+03</pdfrwt>
<pdfrwt beam="1">  1       -4 0.55781782E-03 0.12499978E+03</pdfrwt>
<totfact> 0.28047383E+03</totfact>
</mgrwt>
</event>
<event>
 5    1  0.3316206E-002  0.1249973E+03  0.7818608E-02  0.1235073E+00
          4   -1    0    0  501    0  0.00000000000E+00  0.00000000000E+00  0.12439433859E+03  0.12440082143E+03  0.12700000000E+01 0. -1.
         -4   -1    0    0    0  501 -0.00000000000E+00 -0.00000000000E+00 -0.31380664187E+02  0.31406352619E+02  0.12700000000E+01 0. -1.
         25    2    1    2    0    0  0.00000000000E+00  0.00000000000E+00  0.93013674403E+02  0.15580717405E+03  0.12499732741E+03 0.  0.
    9000005    1    3    3    0    0  0.46793170429E+02  0.83942308167E+01 -0.40491027993E+01  0.47722731934E+02  0.10000000000E+01 0.  0.
    9000005    1    3    3    0    0 -0.46793170429E+02 -0.83942308167E+01  0.97062777202E+02  0.10808444212E+03  0.10000000000E+01 0.  0.
<mgrwt>
<rscale>  0 0.12499733E+03</rscale>
<asrwt>0</asrwt>
<pdfrwt beam="1">  1        4 0.19140065E-01 0.12499733E+03</pdfrwt>
<pdfrwt beam="2">  1       -4 0.48302693E-02 0.12499733E+03</pdfrwt>
<totfact> 0.98163173E+03</totfact>
</mgrwt>
</event>
<event>
 5    1  0.3316206E-002  0.1249996E+03  0.7818608E-02  0.1235070E+00
         -4   -1    0    0    0  501 -0.00000000000E+00  0.00000000000E+00  0.38019864512E+03  0.38020076624E+03  0.12700000000E+01 0.  1.
          4   -1    0    0  501    0  0.00000000000E+00 -0.00000000000E+00 -0.10232762064E+02  0.10311271476E+02  0.12700000000E+01 0.  1.
         25    2    1    2    0    0  0.00000000000E+00  0.00000000000E+00  0.36996588305E+03  0.39051203771E+03  0.12499958791E+03 0.  0.
    9000005    1    3    3    0    0 -0.11267883779E+02  0.49142454396E+02  0.30033307249E+03  0.30453719060E+03  0.10000000000E+01 0.  0.
    9000005    1    3    3    0    0  0.11267883779E+02 -0.49142454396E+02  0.69632810561E+02  0.85974847110E+02  0.10000000000E+01 0.  0.
<mgrwt>
<rscale>  0 0.12499959E+03</rscale>
<asrwt>0</asrwt>
<pdfrwt beam="2">  1        4 0.15804735E-02 0.12499959E+03</pdfrwt>
<pdfrwt beam="1">  1       -4 0.58498301E-01 0.12499959E+03</pdfrwt>
<totfact> 0.65486752E+03</totfact>
</mgrwt>
</event>
<event>
 5    1  0.3316206E-002  0.1250006E+03  0.7818608E-02  0.1235068E+00
         -4   -1    0    0    0  501 -0.00000000000E+00  0.00000000000E+00  0.17715915090E+01  0.21797789968E+01  0.12700000000E+01 0. -1.
          4   -1    0    0  501    0  0.00000000000E+00 -0.00000000000E+00 -0.19767729472E+04  0.19767733552E+04  0.12700000000E+01 0. -1.
         25    2    1    2    0    0  0.00000000000E+00  0.00000000000E+00 -0.19750013557E+04  0.19789531342E+04  0.12500060888E+03 0.  0.
    9000005    1    3    3    0    0 -0.11842857635E+02  0.44837255247E+02 -0.32433920173E+03  0.32763936045E+03  0.10000000000E+01 0.  0.
    9000005    1    3    3    0    0  0.11842857635E+02 -0.44837255247E+02 -0.16506621540E+04  0.16513137738E+04  0.10000000000E+01 0.  0.
<mgrwt>
<rscale>  0 0.12500061E+03</rscale>
<asrwt>0</asrwt>
<pdfrwt beam="2">  1        4 0.30414876E+00 0.12500061E+03</pdfrwt>
<pdfrwt beam="1">  1       -4 0.30398454E-03 0.12500061E+03</pdfrwt>
<totfact> 0.10138486E+03</totfact>
</mgrwt>
</event>
<event>
 5    1  0.3316206E-002  0.1249965E+03  0.7818608E-02  0.1235075E+00
          4   -1    0    0  501    0  0.00000000000E+00  0.00000000000E+00  0.15921803205E+02  0.15972373565E+02  0.12700000000E+01 0. -1.
         -4   -1    0    0    0  501 -0.00000000000E+00 -0.00000000000E+00 -0.24488489508E+03  0.24488818823E+03  0.12700000000E+01 0. -1.
         25    2    1    2    0    0  0.00000000000E+00  0.00000000000E+00 -0.22896309187E+03  0.26086056180E+03  0.12499654100E+03 0.  0.
    9000005    1    3    3    0    0 -0.53769953128E+02  0.31157397398E+02 -0.12817330961E+03  0.14244784509E+03  0.10000000000E+01 0.  0.
    9000005    1    3    3    0    0  0.53769953128E+02 -0.31157397398E+02 -0.10078978226E+03  0.11841271671E+03  0.10000000000E+01 0.  0.
<mgrwt>
<rscale>  0 0.12499654E+03</rscale>
<asrwt>0</asrwt>
<pdfrwt beam="1">  1        4 0.24536517E-02 0.12499654E+03</pdfrwt>
<pdfrwt beam="2">  1       -4 0.37678740E-01 0.12499654E+03</pdfrwt>
<totfact> 0.80791666E+03</totfact>
</mgrwt>
</event>
<event>
 5    1  0.3316206E-002  0.1249897E+03  0.7818608E-02  0.1235085E+00
         -4   -1    0    0    0  501 -0.00000000000E+00  0.00000000000E+00  0.14486132516E+03  0.14486689210E+03  0.12700000000E+01 0. -1.
          4   -1    0    0  501    0  0.00000000000E+00 -0.00000000000E+00 -0.26939969157E+02  0.26969887619E+02  0.12700000000E+01 0. -1.
         25    2    1    2    0    0  0.00000000000E+00  0.00000000000E+00  0.11792135600E+03  0.17183677972E+03  0.12498973023E+03 0.  0.
    9000005    1    3    3    0    0  0.13821980069E+02 -0.59767112544E+02  0.75311828746E+02  0.97139211567E+02  0.10000000000E+01 0.  0.
    9000005    1    3    3    0    0 -0.13821980069E+02  0.59767112544E+02  0.42609527255E+02  0.74697568151E+02  0.10000000000E+01 0.  0.
<mgrwt>
<rscale>  0 0.12498973E+03</rscale>
<asrwt>0</asrwt>
<pdfrwt beam="2">  1        4 0.41473403E-02 0.12498973E+03</pdfrwt>
<pdfrwt beam="1">  1       -4 0.22289087E-01 0.12498973E+03</pdfrwt>
<totfact> 0.95129312E+03</totfact>
</mgrwt>
</event>
<event>
 5    1  0.3316206E-002  0.1249990E+03  0.7818608E-02  0.1235071E+00
          4   -1    0    0  501    0  0.00000000000E+00  0.00000000000E+00  0.75882407197E+01  0.76937830240E+01  0.12700000000E+01 0.  1.
         -4   -1    0    0    0  501 -0.00000000000E+00 -0.00000000000E+00 -0.51110719850E+03  0.51110877635E+03  0.12700000000E+01 0.  1.
         25    2    1    2    0    0  0.00000000000E+00  0.00000000000E+00 -0.50351895778E+03  0.51880255937E+03  0.12499901906E+03 0.  0.
    9000005    1    3    3    0    0  0.53287749945E+02  0.94024692238E+01 -0.38150332951E+03  0.38532295694E+03  0.10000000000E+01 0.  0.
    9000005    1    3    3    0    0 -0.53287749945E+02 -0.94024692238E+01 -0.12201562828E+03  0.13347960243E+03  0.10000000000E+01 0.  0.
<mgrwt>
<rscale>  0 0.12499902E+03</rscale>
<asrwt>0</asrwt>
<pdfrwt beam="1">  1        4 0.11756621E-02 0.12499902E+03</pdfrwt>
<pdfrwt beam="2">  1       -4 0.78640090E-01 0.12499902E+03</pdfrwt>
<totfact> 0.54435656E+03</totfact>
</mgrwt>
</event>
<event>
 5    1  0.3316206E-002  0.1249979E+03  0.7818608E-02  0.1235073E+00
         -4   -1    0    0    0  501 -0.00000000000E+00  0.00000000000E+00  0.55606674906E+02  0.55621175771E+02  0.12700000000E+01 0.  1.
          4   -1    0    0  501    0  0.00000000000E+00 -0.00000000000E+00 -0.70216095960E+02  0.70227580280E+02  0.12700000000E+01 0.  1.
         25    2    1    2    0    0  0.00000000000E+00  0.00000000000E+00 -0.14609421054E+02  0.12584875605E+03  0.12499789685E+03 0.  0.
    9000005    1    3    3    0    0 -0.31738879884E+02 -0.52425464275E+02  0.49986501970E+01  0.61496116175E+02  0.10000000000E+01 0.  0.
    9000005    1    3    3    0    0  0.31738879884E+02  0.52425464275E+02 -0.19608071251E+02  0.64352639876E+02  0.10000000000E+01 0.  0.
<mgrwt>
<rscale>  0 0.12499790E+03</rscale>
<asrwt>0</asrwt>
<pdfrwt beam="2">  1        4 0.10804475E-01 0.12499790E+03</pdfrwt>
<pdfrwt beam="1">  1       -4 0.85568720E-02 0.12499790E+03</pdfrwt>
<totfact> 0.10434770E+04</totfact>
</mgrwt>
</event>
<event>
 5    1  0.3316206E-002  0.1249952E+03  0.7818608E-02  0.1235077E+00
         -4   -1    0    0    0  501 -0.00000000000E+00  0.00000000000E+00  0.33431440458E+02  0.33455554264E+02  0.12700000000E+01 0.  1.
          4   -1    0    0  501    0  0.00000000000E+00 -0.00000000000E+00 -0.11676494273E+03  0.11677184914E+03  0.12700000000E+01 0.  1.
         25    2    1    2    0    0  0.00000000000E+00  0.00000000000E+00 -0.83333502276E+02  0.15022740340E+03  0.12499520044E+03 0.  0.
    9000005    1    3    3    0    0 -0.30248155998E+02 -0.54075758619E+02 -0.31916709748E+02  0.69705200470E+02  0.10000000000E+01 0.  0.
    9000005    1    3    3    0    0  0.30248155998E+02  0.54075758619E+02 -0.51416792529E+02  0.80522202935E+02  0.10000000000E+01 0.  0.
<mgrwt>
<rscale>  0 0.12499520E+03</rscale>
<asrwt>0</asrwt>
<pdfrwt beam="2">  1        4 0.17966223E-01 0.12499520E+03</pdfrwt>
<pdfrwt beam="1">  1       -4 0.51456848E-02 0.12499520E+03</pdfrwt>
<totfact> 0.99269110E+03</totfact>
</mgrwt>
</event>
<event>
 5    1  0.3316206E-002  0.1249981E+03  0.7818608E-02  0.1235072E+00
         -4   -1    0    0    0  501 -0.00000000000E+00  0.00000000000E+00  0.18985125099E+02  0.19027555676E+02  0.12700000000E+01 0. -1.
          4   -1    0    0  501    0  0.00000000000E+00 -0.00000000000E+00 -0.20547279242E+03  0.20547671723E+03  0.12700000000E+01 0. -1.
         25    2    1    2    0    0  0.00000000000E+00  0.00000000000E+00 -0.18648766732E+03  0.22450427291E+03  0.12499807395E+03 0.  0.
    9000005    1    3    3    0    0  0.60779233150E+02 -0.96217418986E+01 -0.73697553685E+02  0.96015740994E+02  0.10000000000E+01 0.  0.
    9000005    1    3    3    0    0 -0.60779233150E+02  0.96217418986E+01 -0.11279011363E+03  0.12848853191E+03  0.10000000000E+01 0.  0.
<mgrwt>
<rscale>  0 0.12499807E+03</rscale>
<asrwt>0</asrwt>
<pdfrwt beam="2">  1        4 0.31614763E-01 0.12499807E+03</pdfrwt>
<pdfrwt beam="1">  1       -4 0.29243544E-02 0.12499807E+03</pdfrwt>
<totfact> 0.86164293E+03</totfact>
</mgrwt>
</event>
<event>
 5    1  0.3316206E-002  0.1249981E+03  0.7818608E-02  0.1235072E+00
         -4   -1    0    0    0  501 -0.00000000000E+00  0.00000000000E+00  0.68407223763E+03  0.68407341652E+03  0.12700000000E+01 0.  1.
          4   -1    0    0  501    0  0.00000000000E+00 -0.00000000000E+00 -0.56383012367E+01  0.57795623394E+01  0.12700000000E+01 0.  1.
         25    2    1    2    0    0  0.00000000000E+00  0.00000000000E+00  0.67843393639E+03  0.68985297886E+03  0.12499810558E+03 0.  0.
    9000005    1    3    3    0    0  0.21911126389E+02 -0.46158053821E+02  0.14065374811E+03  0.14965005931E+03  0.10000000000E+01 0.  0.
    9000005    1    3    3    0    0 -0.21911126389E+02  0.46158053821E+02  0.53778018828E+03  0.54020291955E+03  0.10000000000E+01 0.  0.
<mgrwt>
<rscale>  0 0.12499811E+03</rscale>
<asrwt>0</asrwt>
<pdfrwt beam="2">  1        4 0.87838836E-03 0.12499811E+03</pdfrwt>
<pdfrwt beam="1">  1       -4 0.10525278E+00 0.12499811E+03</pdfrwt>
<totfact> 0.43629606E+03</totfact>
</mgrwt>
</event>
<event>
 5    1  0.3316206E-002  0.1249979E+03  0.7818608E-02  0.1235073E+00
         -4   -1    0    0    0  501 -0.00000000000E+00  0.00000000000E+00  0.14797893743E+02  0.14852291380E+02  0.12700000000E+01 0. -1.
          4   -1    0    0  501    0  0.00000000000E+00 -0.00000000000E+00 -0.26342441796E+03  0.26342747935E+03  0.12700000000E+01 0. -1.
         25    2    1    2    0    0  0.00000000000E+00  0.00000000000E+00 -0.24862652422E+03  0.27827977073E+03  0.12499792900E+03 0.  0.
    9000005    1    3    3    0    0 -0.63599416418E+01  0.10262229465E+02  0.12187690502E+02  0.17184353670E+02  0.10000000000E+01 0.  0.
    9000005    1    3    3    0    0  0.63599416418E+01 -0.10262229465E+02 -0.26081421472E+03  0.26109541706E+03  0.10000000000E+01 0.  0.
<mgrwt>
<rscale>  0 0.12499793E+03</rscale>
<asrwt>0</asrwt>
<pdfrwt beam="2">  1        4 0.40531250E-01 0.12499793E+03</pdfrwt>
<pdfrwt beam="1">  1       -4 0.22810192E-02 0.12499793E+03</pdfrwt>
<totfact> 0.78410361E+03</totfact>
</mgrwt>
</event>
<event>
 5    1  0.3316206E-002  0.1250001E+03  0.7818608E-02  0.1235069E+00
          4   -1    0    0  501    0  0.00000000000E+00  0.00000000000E+00  0.19509153165E+03  0.19509566531E+03  0.12700000000E+01 0. -1.
         -4   -1    0    0    0  501 -0.00000000000E+00 -0.00000000000E+00 -0.19998209617E+02  0.20038495151E+02  0.12700000000E+01 0. -1.
         25    2    1    2    0    0  0.00000000000E+00  0.00000000000E+00  0.17509332203E+03  0.21513416046E+03  0.12500014230E+03 0.  0.
    9000005    1    3    3    0    0  0.31235354319E+02  0.52096098666E+02  0.62275142266E+02  0.86999104592E+02  0.10000000000E+01 0.  0.
    9000005    1    3    3    0    0 -0.31235354319E+02 -0.52096098666E+02  0.11281817977E+03  0.12813505587E+03  0.10000000000E+01 0.  0.
<mgrwt>
<rscale>  0 0.12500014E+03</rscale>
<asrwt>0</asrwt>
<pdfrwt beam="1">  1        4 0.30017497E-01 0.12500014E+03</pdfrwt>
<pdfrwt beam="2">  1       -4 0.30800647E-02 0.12500014E+03</pdfrwt>
<totfact> 0.87643932E+03</totfact>
</mgrwt>
</event>
<event>
 5    1  0.3316206E-002  0.1250028E+03  0.7818608E-02  0.1235065E+00
          4   -1    0    0  501    0  0.00000000000E+00  0.00000000000E+00  0.48642357854E+02  0.48658934201E+02  0.12700000000E+01 0.  1.
         -4   -1    0    0    0  501 -0.00000000000E+00 -0.00000000000E+00 -0.80273864803E+02  0.80283910408E+02  0.12700000000E+01 0.  1.
         25    2    1    2    0    0  0.00000000000E+00  0.00000000000E+00 -0.31631506949E+02  0.12894284461E+03  0.12500281974E+03 0.  0.
    9000005    1    3    3    0    0 -0.50590591583E+02  0.19049323952E+02 -0.48159137672E+02  0.72405712766E+02  0.10000000000E+01 0.  0.
    9000005    1    3    3    0    0  0.50590591583E+02 -0.19049323952E+02  0.16527630723E+02  0.56537131843E+02  0.10000000000E+01 0.  0.
<mgrwt>
<rscale>  0 0.12500282E+03</rscale>
<asrwt>0</asrwt>
<pdfrwt beam="1">  1        4 0.74854875E-02 0.12500282E+03</pdfrwt>
<pdfrwt beam="2">  1       -4 0.12351873E-01 0.12500282E+03</pdfrwt>
<totfact> 0.10366515E+04</totfact>
</mgrwt>
</event>
<event>
 5    1  0.3316206E-002  0.1249990E+03  0.7818608E-02  0.1235071E+00
          4   -1    0    0  501    0  0.00000000000E+00  0.00000000000E+00  0.19406098577E+03  0.19406514137E+03  0.12700000000E+01 0. -1.
         -4   -1    0    0    0  501 -0.00000000000E+00 -0.00000000000E+00 -0.20104259191E+02  0.20144332642E+02  0.12700000000E+01 0. -1.
         25    2    1    2    0    0  0.00000000000E+00  0.00000000000E+00  0.17395672657E+03  0.21420947402E+03  0.12499902415E+03 0.  0.
    9000005    1    3    3    0    0 -0.39060565854E+02  0.40152845807E+02  0.39511642457E+02  0.68557630654E+02  0.10000000000E+01 0.  0.
    9000005    1    3    3    0    0  0.39060565854E+02 -0.40152845807E+02  0.13444508412E+03  0.14565184336E+03  0.10000000000E+01 0.  0.
<mgrwt>
<rscale>  0 0.12499902E+03</rscale>
<asrwt>0</asrwt>
<pdfrwt beam="1">  1        4 0.29858937E-01 0.12499902E+03</pdfrwt>
<pdfrwt beam="2">  1       -4 0.30963654E-02 0.12499902E+03</pdfrwt>
<totfact> 0.87794916E+03</totfact>
</mgrwt>
</event>
<event>
 5    1  0.3316206E-002  0.1250030E+03  0.7818608E-02  0.1235065E+00
          4   -1    0    0  501    0  0.00000000000E+00  0.00000000000E+00  0.21419926229E+03  0.21420302721E+03  0.12700000000E+01 0.  1.
         -4   -1    0    0    0  501 -0.00000000000E+00 -0.00000000000E+00 -0.18211352670E+02  0.18255581779E+02  0.12700000000E+01 0.  1.
         25    2    1    2    0    0  0.00000000000E+00  0.00000000000E+00  0.19598790962E+03  0.23245860899E+03  0.12500297667E+03 0.  0.
    9000005    1    3    3    0    0 -0.31943170918E+02 -0.38765667239E+02  0.28854600165E+02  0.57937302970E+02  0.10000000000E+01 0.  0.
    9000005    1    3    3    0    0  0.31943170918E+02  0.38765667239E+02  0.16713330945E+03  0.17452130602E+03  0.10000000000E+01 0.  0.
<mgrwt>
<rscale>  0 0.12500298E+03</rscale>
<asrwt>0</asrwt>
<pdfrwt beam="1">  1        4 0.32957424E-01 0.12500298E+03</pdfrwt>
<pdfrwt beam="2">  1       -4 0.28054385E-02 0.12500298E+03</pdfrwt>
<totfact> 0.84927860E+03</totfact>
</mgrwt>
</event>
<event>
 5    1  0.3316206E-002  0.1249951E+03  0.7818608E-02  0.1235077E+00
          4   -1    0    0  501    0  0.00000000000E+00  0.00000000000E+00  0.20756917649E+02  0.20795733464E+02  0.12700000000E+01 0.  1.
         -4   -1    0    0    0  501 -0.00000000000E+00 -0.00000000000E+00 -0.18795869349E+03  0.18796298401E+03  0.12700000000E+01 0.  1.
         25    2    1    2    0    0  0.00000000000E+00  0.00000000000E+00 -0.16720177584E+03  0.20875871747E+03  0.12499507301E+03 0.  0.
    9000005    1    3    3    0    0 -0.50134876654E+02  0.22041417395E+02 -0.33340846598E+02  0.64124425844E+02  0.10000000000E+01 0.  0.
    9000005    1    3    3    0    0  0.50134876654E+02 -0.22041417395E+02 -0.13386092924E+03  0.14463429163E+03  0.10000000000E+01 0.  0.
<mgrwt>
<rscale>  0 0.12499507E+03</rscale>
<asrwt>0</asrwt>
<pdfrwt beam="1">  1        4 0.31966880E-02 0.12499507E+03</pdfrwt>
<pdfrwt beam="2">  1       -4 0.28920037E-01 0.12499507E+03</pdfrwt>
<totfact> 0.88688771E+03</totfact>
</mgrwt>
</event>
<event>
 5    1  0.3316206E-002  0.1250038E+03  0.7818608E-02  0.1235063E+00
          4   -1    0    0  501    0  0.00000000000E+00  0.00000000000E+00  0.98854282397E+01  0.99666740431E+01  0.12700000000E+01 0.  1.
         -4   -1    0    0    0  501 -0.00000000000E+00 -0.00000000000E+00 -0.39347680209E+03  0.39347885163E+03  0.12700000000E+01 0.  1.
         25    2    1    2    0    0  0.00000000000E+00  0.00000000000E+00 -0.38359137385E+03  0.40344552568E+03  0.12500380033E+03 0.  0.
    9000005    1    3    3    0    0 -0.19116655198E+02  0.59211914403E+02 -0.21061217701E+03  0.21961326558E+03  0.10000000000E+01 0.  0.
    9000005    1    3    3    0    0  0.19116655198E+02 -0.59211914403E+02 -0.17297919684E+03  0.18383226010E+03  0.10000000000E+01 0.  0.
<mgrwt>
<rscale>  0 0.12500380E+03</rscale>
<asrwt>0</asrwt>
<pdfrwt beam="1">  1        4 0.15272428E-02 0.12500380E+03</pdfrwt>
<pdfrwt beam="2">  1       -4 0.60541288E-01 0.12500380E+03</pdfrwt>
<totfact> 0.64213674E+03</totfact>
</mgrwt>
</event>
<event>
 5    1  0.3316206E-002  0.1250049E+03  0.7818608E-02  0.1235062E+00
          4   -1    0    0  501    0  0.00000000000E+00  0.00000000000E+00  0.16559725604E+04  0.16559730474E+04  0.12700000000E+01 0.  1.
         -4   -1    0    0    0  501 -0.00000000000E+00 -0.00000000000E+00 -0.21876211329E+01  0.25295426901E+01  0.12700000000E+01 0.  1.
         25    2    1    2    0    0  0.00000000000E+00  0.00000000000E+00  0.16537849393E+04  0.16585025901E+04  0.12500486379E+03 0.  0.
    9000005    1    3    3    0    0  0.61825225924E+02  0.34344126574E+01  0.71478382950E+03  0.71746155065E+03  0.10000000000E+01 0.  0.
    9000005    1    3    3    0    0 -0.61825225924E+02 -0.34344126574E+01  0.93900110981E+03  0.94104103947E+03  0.10000000000E+01 0.  0.
<mgrwt>
<rscale>  0 0.12500486E+03</rscale>
<asrwt>0</asrwt>
<pdfrwt beam="1">  1        4 0.25479097E+00 0.12500486E+03</pdfrwt>
<pdfrwt beam="2">  1       -4 0.36289676E-03 0.12500486E+03</pdfrwt>
<totfact> 0.15010582E+03</totfact>
</mgrwt>
</event>
<event>
 5    1  0.3316206E-002  0.1250013E+03  0.7818608E-02  0.1235067E+00
          4   -1    0    0  501    0  0.00000000000E+00  0.00000000000E+00  0.60340439750E+00  0.14060572061E+01  0.12700000000E+01 0. -1.
         -4   -1    0    0    0  501 -0.00000000000E+00 -0.00000000000E+00 -0.38871365603E+04  0.38871367677E+04  0.12700000000E+01 0. -1.
         25    2    1    2    0    0  0.00000000000E+00  0.00000000000E+00 -0.38865331559E+04  0.38885428249E+04  0.12500131885E+03 0.  0.
    9000005    1    3    3    0    0 -0.32811193829E+02 -0.53177608020E+02 -0.19137550295E+04  0.19147751161E+04  0.10000000000E+01 0.  0.
    9000005    1    3    3    0    0  0.32811193829E+02  0.53177608020E+02 -0.19727781263E+04  0.19737677088E+04  0.10000000000E+01 0.  0.
<mgrwt>
<rscale>  0 0.12500132E+03</rscale>
<asrwt>0</asrwt>
<pdfrwt beam="1">  1        4 0.15459304E-03 0.12500132E+03</pdfrwt>
<pdfrwt beam="2">  1       -4 0.59807072E+00 0.12500132E+03</pdfrwt>
<totfact> 0.20979610E+01</totfact>
</mgrwt>
</event>
<event>
 5    1  0.3316206E-002  0.1249973E+03  0.7818608E-02  0.1235074E+00
          4   -1    0    0  501    0  0.00000000000E+00  0.00000000000E+00  0.98261233955E+02  0.98269440817E+02  0.12700000000E+01 0. -1.
         -4   -1    0    0    0  501 -0.00000000000E+00 -0.00000000000E+00 -0.39731969461E+02  0.39752261537E+02  0.12700000000E+01 0. -1.
         25    2    1    2    0    0  0.00000000000E+00  0.00000000000E+00  0.58529264494E+02  0.13802170235E+03  0.12499726204E+03 0.  0.
    9000005    1    3    3    0    0  0.37243977735E+02 -0.16240620827E+02  0.81690279291E+02  0.91242388028E+02  0.10000000000E+01 0.  0.
    9000005    1    3    3    0    0 -0.37243977735E+02  0.16240620827E+02 -0.23161014797E+02  0.46779314326E+02  0.10000000000E+01 0.  0.
<mgrwt>
<rscale>  0 0.12499726E+03</rscale>
<asrwt>0</asrwt>
<pdfrwt beam="1">  1        4 0.15119305E-01 0.12499726E+03</pdfrwt>
<pdfrwt beam="2">  1       -4 0.61148030E-02 0.12499726E+03</pdfrwt>
<totfact> 0.10175380E+04</totfact>
</mgrwt>
</event>
<event>
 5    1  0.3316206E-002  0.1249967E+03  0.7818608E-02  0.1235074E+00
         -4   -1    0    0    0  501 -0.00000000000E+00  0.00000000000E+00  0.41137289072E+01  0.43053066699E+01  0.12700000000E+01 0. -1.
          4   -1    0    0  501    0  0.00000000000E+00 -0.00000000000E+00 -0.92771582119E+03  0.92771669047E+03  0.12700000000E+01 0. -1.
         25    2    1    2    0    0  0.00000000000E+00  0.00000000000E+00 -0.92360209228E+03  0.93202199714E+03  0.12499671313E+03 0.  0.
    9000005    1    3    3    0    0  0.52157198011E+02  0.32720273872E+02 -0.38216959459E+03  0.38709893910E+03  0.10000000000E+01 0.  0.
    9000005    1    3    3    0    0 -0.52157198011E+02 -0.32720273872E+02 -0.54143249769E+03  0.54492305804E+03  0.10000000000E+01 0.  0.
<mgrwt>
<rscale>  0 0.12499671E+03</rscale>
<asrwt>0</asrwt>
<pdfrwt beam="2">  1        4 0.14274015E+00 0.12499671E+03</pdfrwt>
<pdfrwt beam="1">  1       -4 0.64768573E-03 0.12499671E+03</pdfrwt>
<totfact> 0.32965386E+03</totfact>
</mgrwt>
</event>
<event>
 5    1  0.3316206E-002  0.1249992E+03  0.7818608E-02  0.1235071E+00
          4   -1    0    0  501    0  0.00000000000E+00  0.00000000000E+00  0.17020935589E+02  0.17068249714E+02  0.12700000000E+01 0. -1.
         -4   -1    0    0    0  501 -0.00000000000E+00 -0.00000000000E+00 -0.22912628213E+03  0.22912980178E+03  0.12700000000E+01 0. -1.
         25    2    1    2    0    0  0.00000000000E+00  0.00000000000E+00 -0.21210534654E+03  0.24619805149E+03  0.12499921011E+03 0.  0.
    9000005    1    3    3    0    0  0.43548386708E+02  0.44812963836E+02 -0.10749589073E+03  0.12434239115E+03  0.10000000000E+01 0.  0.
    9000005    1    3    3    0    0 -0.43548386708E+02 -0.44812963836E+02 -0.10460945581E+03  0.12185566034E+03  0.10000000000E+01 0.  0.
<mgrwt>
<rscale>  0 0.12499921E+03</rscale>
<asrwt>0</asrwt>
<pdfrwt beam="1">  1        4 0.26225159E-02 0.12499921E+03</pdfrwt>
<pdfrwt beam="2">  1       -4 0.35254105E-01 0.12499921E+03</pdfrwt>
<totfact> 0.82884311E+03</totfact>
</mgrwt>
</event>
<event>
 5    1  0.3316206E-002  0.1249969E+03  0.7818608E-02  0.1235074E+00
         -4   -1    0    0    0  501 -0.00000000000E+00  0.00000000000E+00  0.10803218664E+04  0.10803226129E+04  0.12700000000E+01 0.  1.
          4   -1    0    0  501    0  0.00000000000E+00 -0.00000000000E+00 -0.35033508213E+01  0.37264415972E+01  0.12700000000E+01 0.  1.
         25    2    1    2    0    0  0.00000000000E+00  0.00000000000E+00  0.10768185156E+04  0.10840490545E+04  0.12499694813E+03 0.  0.
    9000005    1    3    3    0    0 -0.36373274326E+02  0.50712646720E+02  0.56620443052E+03  0.56963430792E+03  0.10000000000E+01 0.  0.
    9000005    1    3    3    0    0  0.36373274326E+02 -0.50712646720E+02  0.51061408508E+03  0.51441474659E+03  0.10000000000E+01 0.  0.
<mgrwt>
<rscale>  0 0.12499695E+03</rscale>
<asrwt>0</asrwt>
<pdfrwt beam="2">  1        4 0.55619530E-03 0.12499695E+03</pdfrwt>
<pdfrwt beam="1">  1       -4 0.16622058E+00 0.12499695E+03</pdfrwt>
<totfact> 0.27956838E+03</totfact>
</mgrwt>
</event>
<event>
 5    1  0.3316206E-002  0.1250028E+03  0.7818608E-02  0.1235065E+00
          4   -1    0    0  501    0  0.00000000000E+00  0.00000000000E+00  0.22828075898E+02  0.22863375717E+02  0.12700000000E+01 0. -1.
         -4   -1    0    0    0  501 -0.00000000000E+00 -0.00000000000E+00 -0.17095397935E+03  0.17095869664E+03  0.12700000000E+01 0. -1.
         25    2    1    2    0    0  0.00000000000E+00  0.00000000000E+00 -0.14812590345E+03  0.19382207235E+03  0.12500284980E+03 0.  0.
    9000005    1    3    3    0    0 -0.48390784606E+02 -0.24507687327E+02 -0.25942851043E+02  0.60135898540E+02  0.10000000000E+01 0.  0.
    9000005    1    3    3    0    0  0.48390784606E+02  0.24507687327E+02 -0.12218305241E+03  0.13368617381E+03  0.10000000000E+01 0.  0.
<mgrwt>
<rscale>  0 0.12500285E+03</rscale>
<asrwt>0</asrwt>
<pdfrwt beam="1">  1        4 0.35150900E-02 0.12500285E+03</pdfrwt>
<pdfrwt beam="2">  1       -4 0.26303690E-01 0.12500285E+03</pdfrwt>
<totfact> 0.91180689E+03</totfact>
</mgrwt>
</event>
<event>
 5    1  0.3316206E-002  0.1249948E+03  0.7818608E-02  0.1235077E+00
          4   -1    0    0  501    0  0.00000000000E+00  0.00000000000E+00  0.17738359999E+02  0.17783765502E+02  0.12700000000E+01 0.  1.
         -4   -1    0    0    0  501 -0.00000000000E+00 -0.00000000000E+00 -0.21986787838E+03  0.21987154623E+03  0.12700000000E+01 0.  1.
         25    2    1    2    0    0  0.00000000000E+00  0.00000000000E+00 -0.20212951838E+03  0.23765531173E+03  0.12499481987E+03 0.  0.
    9000005    1    3    3    0    0  0.53218896591E+02 -0.11930292155E+02 -0.43071548085E+02  0.69503532858E+02  0.10000000000E+01 0.  0.
    9000005    1    3    3    0    0 -0.53218896591E+02  0.11930292155E+02 -0.15905797029E+03  0.16815177888E+03  0.10000000000E+01 0.  0.
<mgrwt>
<rscale>  0 0.12499482E+03</rscale>
<asrwt>0</asrwt>
<pdfrwt beam="1">  1        4 0.27327535E-02 0.12499482E+03</pdfrwt>
<pdfrwt beam="2">  1       -4 0.33829600E-01 0.12499482E+03</pdfrwt>
<totfact> 0.84157532E+03</totfact>
</mgrwt>
</event>
<event>
 5    1  0.3316206E-002  0.1250046E+03  0.7818608E-02  0.1235062E+00
          4   -1    0    0  501    0  0.00000000000E+00  0.00000000000E+00  0.24380377483E+03  0.24380708259E+03  0.12700000000E+01 0.  1.
         -4   -1    0    0    0  501 -0.00000000000E+00 -0.00000000000E+00 -0.15994697265E+02  0.16045037881E+02  0.12700000000E+01 0.  1.
         25    2    1    2    0    0  0.00000000000E+00  0.00000000000E+00  0.22780907756E+03  0.25985212047E+03  0.12500459469E+03 0.  0.
    9000005    1    3    3    0    0  0.48136887394E+02 -0.33105740683E+02  0.16003137383E+03  0.17036487491E+03  0.10000000000E+01 0.  0.
    9000005    1    3    3    0    0 -0.48136887394E+02  0.33105740683E+02  0.67777703734E+02  0.89487245559E+02  0.10000000000E+01 0.  0.
<mgrwt>
<rscale>  0 0.12500459E+03</rscale>
<asrwt>0</asrwt>
<pdfrwt beam="1">  1        4 0.37512399E-01 0.12500459E+03</pdfrwt>
<pdfrwt beam="2">  1       -4 0.24648495E-02 0.12500459E+03</pdfrwt>
<totfact> 0.80918541E+03</totfact>
</mgrwt>
</event>
<event>
 5    1  0.3316206E-002  0.1250023E+03  0.7818608E-02  0.1235066E+00
          4   -1    0    0  501    0  0.00000000000E+00  0.00000000000E+00  0.48055640690E+03  0.48055808506E+03  0.12700000000E+01 0.  1.
         -4   -1    0    0    0  501 -0.00000000000E+00 -0.00000000000E+00 -0.80775887198E+01  0.81768172003E+01  0.12700000000E+01 0.  1.
         25    2    1    2    0    0  0.00000000000E+00  0.00000000000E+00  0.47247881818E+03  0.48873490226E+03  0.12500228420E+03 0.  0.
    9000005    1    3    3    0    0 -0.30968449733E+02  0.19749626820E+02  0.43391876904E+03  0.43547168767E+03  0.10000000000E+01 0.  0.
    9000005    1    3    3    0    0  0.30968449733E+02 -0.19749626820E+02  0.38560049147E+02  0.53263214591E+02  0.10000000000E+01 0.  0.
<mgrwt>
<rscale>  0 0.12500228E+03</rscale>
<asrwt>0</asrwt>
<pdfrwt beam="1">  1        4 0.73939530E-01 0.12500228E+03</pdfrwt>
<pdfrwt beam="2">  1       -4 0.12504678E-02 0.12500228E+03</pdfrwt>
<totfact> 0.56746257E+03</totfact>
</mgrwt>
</event>
<event>
 5    1  0.3316206E-002  0.1249989E+03  0.7818608E-02  0.1235071E+00
          4   -1    0    0  501    0  0.00000000000E+00  0.00000000000E+00  0.11967104579E+04  0.11967111318E+04  0.12700000000E+01 0.  1.
         -4   -1    0    0    0  501 -0.00000000000E+00 -0.00000000000E+00 -0.31398637209E+01  0.33869815745E+01  0.12700000000E+01 0.  1.
         25    2    1    2    0    0  0.00000000000E+00  0.00000000000E+00  0.11935705942E+04  0.12000981134E+04  0.12499887363E+03 0.  0.
    9000005    1    3    3    0    0 -0.50408407103E+02  0.19887212961E+02  0.29797279077E+03  0.30286183778E+03  0.10000000000E+01 0.  0.
    9000005    1    3    3    0    0  0.50408407103E+02 -0.19887212961E+02  0.89559780341E+03  0.89723627558E+03  0.10000000000E+01 0.  0.
<mgrwt>
<rscale>  0 0.12499887E+03</rscale>
<asrwt>0</asrwt>
<pdfrwt beam="1">  1        4 0.18412883E+00 0.12499887E+03</pdfrwt>
<pdfrwt beam="2">  1       -4 0.50211557E-03 0.12499887E+03</pdfrwt>
<totfact> 0.24710706E+03</totfact>
</mgrwt>
</event>
<event>
 5    1  0.3316206E-002  0.1250058E+03  0.7818608E-02  0.1235060E+00
          4   -1    0    0  501    0  0.00000000000E+00  0.00000000000E+00  0.24106997602E+02  0.24140427366E+02  0.12700000000E+01 0.  1.
         -4   -1    0    0    0  501 -0.00000000000E+00 -0.00000000000E+00 -0.16190494882E+03  0.16190992975E+03  0.12700000000E+01 0.  1.
         25    2    1    2    0    0  0.00000000000E+00  0.00000000000E+00 -0.13779795122E+03  0.18605035712E+03  0.12500583996E+03 0.  0.
    9000005    1    3    3    0    0  0.28601896809E+02  0.51429954080E+02 -0.37590642328E+02  0.69836702874E+02  0.10000000000E+01 0.  0.
    9000005    1    3    3    0    0 -0.28601896809E+02 -0.51429954080E+02 -0.10020730889E+03  0.11621365425E+03  0.10000000000E+01 0.  0.
<mgrwt>
<rscale>  0 0.12500584E+03</rscale>
<asrwt>0</asrwt>
<pdfrwt beam="1">  1        4 0.37117236E-02 0.12500584E+03</pdfrwt>
<pdfrwt beam="2">  1       -4 0.24911408E-01 0.12500584E+03</pdfrwt>
<totfact> 0.92527008E+03</totfact>
</mgrwt>
</event>
<event>
 5    1  0.3316206E-002  0.1250044E+03  0.7818608E-02  0.1235062E+00
          4   -1    0    0  501    0  0.00000000000E+00  0.00000000000E+00  0.74226925682E+02  0.74237789543E+02  0.12700000000E+01 0. -1.
         -4   -1    0    0    0  501 -0.00000000000E+00 -0.00000000000E+00 -0.52607070084E+02  0.52622397540E+02  0.12700000000E+01 0. -1.
         25    2    1    2    0    0  0.00000000000E+00  0.00000000000E+00  0.21619855598E+02  0.12686018708E+03  0.12500435557E+03 0.  0.
    9000005    1    3    3    0    0  0.20927613028E+02 -0.54696784710E+02  0.32947046009E+02  0.67202760995E+02  0.10000000000E+01 0.  0.
    9000005    1    3    3    0    0 -0.20927613028E+02  0.54696784710E+02 -0.11327190411E+02  0.59657426087E+02  0.10000000000E+01 0.  0.
<mgrwt>
<rscale>  0 0.12500436E+03</rscale>
<asrwt>0</asrwt>
<pdfrwt beam="1">  1        4 0.11421542E-01 0.12500436E+03</pdfrwt>
<pdfrwt beam="2">  1       -4 0.80954101E-02 0.12500436E+03</pdfrwt>
<totfact> 0.10411161E+04</totfact>
</mgrwt>
</event>
<event>
 5    1  0.3316206E-002  0.1250155E+03  0.7818608E-02  0.1235045E+00
          4   -1    0    0  501    0  0.00000000000E+00  0.00000000000E+00  0.47096533792E+02  0.47113654021E+02  0.12700000000E+01 0. -1.
         -4   -1    0    0    0  501 -0.00000000000E+00 -0.00000000000E+00 -0.82924866518E+02  0.82934591016E+02  0.12700000000E+01 0. -1.
         25    2    1    2    0    0  0.00000000000E+00  0.00000000000E+00 -0.35828332726E+02  0.13004824504E+03  0.12501550548E+03 0.  0.
    9000005    1    3    3    0    0 -0.57310574378E+02 -0.15423876626E+02  0.24658778005E+01  0.59409413892E+02  0.10000000000E+01 0.  0.
    9000005    1    3    3    0    0  0.57310574378E+02  0.15423876626E+02 -0.38294210526E+02  0.70638831145E+02  0.10000000000E+01 0.  0.
<mgrwt>
<rscale>  0 0.12501551E+03</rscale>
<asrwt>0</asrwt>
<pdfrwt beam="1">  1        4 0.72476856E-02 0.12501551E+03</pdfrwt>
<pdfrwt beam="2">  1       -4 0.12759737E-01 0.12501551E+03</pdfrwt>
<totfact> 0.10339856E+04</totfact>
</mgrwt>
</event>
<event>
 5    1  0.3316206E-002  0.1249679E+03  0.7818608E-02  0.1235120E+00
          4   -1    0    0  501    0  0.00000000000E+00  0.00000000000E+00  0.70790486093E+02  0.70801877244E+02  0.12700000000E+01 0. -1.
         -4   -1    0    0    0  501 -0.00000000000E+00 -0.00000000000E+00 -0.55128921403E+02  0.55143547901E+02  0.12700000000E+01 0. -1.
         25    2    1    2    0    0  0.00000000000E+00  0.00000000000E+00  0.15661564690E+02  0.12594542514E+03  0.12496785789E+03 0.  0.
    9000005    1    3    3    0    0  0.54397251118E+02  0.22450570383E+02  0.28974705767E+02  0.65602001601E+02  0.10000000000E+01 0.  0.
    9000005    1    3    3    0    0 -0.54397251118E+02 -0.22450570383E+02 -0.13313141077E+02  0.60343423544E+02  0.10000000000E+01 0.  0.
<mgrwt>
<rscale>  0 0.12496786E+03</rscale>
<asrwt>0</asrwt>
<pdfrwt beam="1">  1        4 0.10892845E-01 0.12496786E+03</pdfrwt>
<pdfrwt beam="2">  1       -4 0.84833739E-02 0.12496786E+03</pdfrwt>
<totfact> 0.10439723E+04</totfact>
</mgrwt>
</event>
<event>
 5    1  0.3316206E-002  0.1249976E+03  0.7818608E-02  0.1235073E+00
         -4   -1    0    0    0  501 -0.00000000000E+00  0.00000000000E+00  0.41508500996E+02  0.41527925002E+02  0.12700000000E+01 0. -1.
          4   -1    0    0  501    0  0.00000000000E+00 -0.00000000000E+00 -0.94057917491E+02  0.94066491073E+02  0.12700000000E+01 0. -1.
         25    2    1    2    0    0  0.00000000000E+00  0.00000000000E+00 -0.52549416495E+02  0.13559441607E+03  0.12499761796E+03 0.  0.
    9000005    1    3    3    0    0  0.38014671897E+02  0.29438316254E+02 -0.69575772890E+02  0.84578471945E+02  0.10000000000E+01 0.  0.
    9000005    1    3    3    0    0 -0.38014671897E+02 -0.29438316254E+02  0.17026356395E+02  0.51015944129E+02  0.10000000000E+01 0.  0.
<mgrwt>
<rscale>  0 0.12499762E+03</rscale>
<asrwt>0</asrwt>
<pdfrwt beam="2">  1        4 0.14472602E-01 0.12499762E+03</pdfrwt>
<pdfrwt beam="1">  1       -4 0.63880769E-02 0.12499762E+03</pdfrwt>
<totfact> 0.10226107E+04</totfact>
</mgrwt>
</event>
<event>
 5    1  0.3316206E-002  0.1249935E+03  0.7818608E-02  0.1235079E+00
          4   -1    0    0  501    0  0.00000000000E+00  0.00000000000E+00  0.14942231196E+02  0.14996105265E+02  0.12700000000E+01 0. -1.
         -4   -1    0    0    0  501 -0.00000000000E+00 -0.00000000000E+00 -0.26087064623E+03  0.26087373759E+03  0.12700000000E+01 0. -1.
         25    2    1    2    0    0  0.00000000000E+00  0.00000000000E+00 -0.24592841503E+03  0.27586984286E+03  0.12499353934E+03 0.  0.
    9000005    1    3    3    0    0 -0.17107135727E+02 -0.54161739943E+02 -0.18046250206E+03  0.18919266057E+03  0.10000000000E+01 0.  0.
    9000005    1    3    3    0    0  0.17107135727E+02  0.54161739943E+02 -0.65465912977E+02  0.86677182282E+02  0.10000000000E+01 0.  0.
<mgrwt>
<rscale>  0 0.12499354E+03</rscale>
<asrwt>0</asrwt>
<pdfrwt beam="1">  1        4 0.23031870E-02 0.12499354E+03</pdfrwt>
<pdfrwt beam="2">  1       -4 0.40138324E-01 0.12499354E+03</pdfrwt>
<totfact> 0.78740252E+03</totfact>
</mgrwt>
</event>
<event>
 5    1  0.3316206E-002  0.1249994E+03  0.7818608E-02  0.1235070E+00
          4   -1    0    0  501    0  0.00000000000E+00  0.00000000000E+00  0.30173478493E+02  0.30200193781E+02  0.12700000000E+01 0.  1.
         -4   -1    0    0    0  501 -0.00000000000E+00 -0.00000000000E+00 -0.12937135690E+03  0.12937759035E+03  0.12700000000E+01 0.  1.
         25    2    1    2    0    0  0.00000000000E+00  0.00000000000E+00 -0.99197878405E+02  0.15957778413E+03  0.12499940043E+03 0.  0.
    9000005    1    3    3    0    0  0.59142946304E+02  0.55014089215E+01 -0.74388516163E+02  0.95198765405E+02  0.10000000000E+01 0.  0.
    9000005    1    3    3    0    0 -0.59142946304E+02 -0.55014089215E+01 -0.24809362241E+02  0.64379018729E+02  0.10000000000E+01 0.  0.
<mgrwt>
<rscale>  0 0.12499940E+03</rscale>
<asrwt>0</asrwt>
<pdfrwt beam="1">  1        4 0.46446082E-02 0.12499940E+03</pdfrwt>
<pdfrwt beam="2">  1       -4 0.19905820E-01 0.12499940E+03</pdfrwt>
<totfact> 0.97425560E+03</totfact>
</mgrwt>
</event>
<event>
 5    1  0.3316206E-002  0.1250004E+03  0.7818608E-02  0.1235069E+00
         -4   -1    0    0    0  501 -0.00000000000E+00  0.00000000000E+00  0.20016041447E+02  0.20056291163E+02  0.12700000000E+01 0.  1.
          4   -1    0    0  501    0  0.00000000000E+00 -0.00000000000E+00 -0.19491885995E+03  0.19492299726E+03  0.12700000000E+01 0.  1.
         25    2    1    2    0    0  0.00000000000E+00  0.00000000000E+00 -0.17490281850E+03  0.21497928843E+03  0.12500039414E+03 0.  0.
    9000005    1    3    3    0    0  0.33031155820E+02 -0.87518651393E+01  0.25339797639E+01  0.34279344388E+02  0.10000000000E+01 0.  0.
    9000005    1    3    3    0    0 -0.33031155820E+02  0.87518651393E+01 -0.17743679826E+03  0.18069994404E+03  0.10000000000E+01 0.  0.
<mgrwt>
<rscale>  0 0.12500039E+03</rscale>
<asrwt>0</asrwt>
<pdfrwt beam="2">  1        4 0.29990930E-01 0.12500039E+03</pdfrwt>
<pdfrwt beam="1">  1       -4 0.30828055E-02 0.12500039E+03</pdfrwt>
<totfact> 0.87668328E+03</totfact>
</mgrwt>
</event>
<event>
 5    1  0.3316206E-002  0.1250424E+03  0.7818608E-02  0.1235003E+00
          4   -1    0    0  501    0  0.00000000000E+00  0.00000000000E+00  0.31158724548E+03  0.31158983367E+03  0.12700000000E+01 0.  1.
         -4   -1    0    0    0  501 -0.00000000000E+00 -0.00000000000E+00 -0.12510340527E+02  0.12574637971E+02  0.12700000000E+01 0.  1.
         25    2    1    2    0    0  0.00000000000E+00  0.00000000000E+00  0.29907690496E+03  0.32416447165E+03  0.12504243119E+03 0.  0.
    9000005    1    3    3    0    0  0.27671290235E+02  0.45153548814E+02  0.63425902232E+02  0.82634062878E+02  0.10000000000E+01 0.  0.
    9000005    1    3    3    0    0 -0.27671290235E+02 -0.45153548814E+02  0.23565100273E+03  0.24153040877E+03  0.10000000000E+01 0.  0.
<mgrwt>
<rscale>  0 0.12504243E+03</rscale>
<asrwt>0</asrwt>
<pdfrwt beam="1">  1        4 0.47941643E-01 0.12504243E+03</pdfrwt>
<pdfrwt beam="2">  1       -4 0.19298129E-02 0.12504243E+03</pdfrwt>
<totfact> 0.72595251E+03</totfact>
</mgrwt>
</event>
<event>
 4    1  0.3316206E-002  0.1249089E+03  0.7818608E-02  0.1235212E+00
         -4   -1    0    0    0  501 -0.00000000000E+00  0.00000000000E+00  0.28434554604E+04  0.28434557440E+04  0.12700000000E+01 0.  1.
          4   -1    0    0  501    0  0.00000000000E+00 -0.00000000000E+00 -0.10774769352E+01  0.16654898817E+01  0.12700000000E+01 0.  1.
    9000005    1    1    2    0    0  0.10969811386E+02 -0.42159033323E+02  0.40207721857E+03  0.40443146582E+03  0.10000000000E+01 0.  0.
    9000005    1    1    2    0    0 -0.10969811386E+02  0.42159033323E+02  0.24403007649E+04  0.24406897681E+04  0.10000000000E+01 0.  0.
<mgrwt>
<rscale>  0 0.12490891E+03</rscale>
<asrwt>0</asrwt>
<pdfrwt beam="2">  1        4 0.21102220E-03 0.12490891E+03</pdfrwt>
<pdfrwt beam="1">  1       -4 0.43749384E+00 0.12490891E+03</pdfrwt>
<totfact> 0.24944710E+02</totfact>
</mgrwt>
</event>
<event>
 5    1  0.3316206E-002  0.1249995E+03  0.7818608E-02  0.1235070E+00
         -4   -1    0    0    0  501 -0.00000000000E+00  0.00000000000E+00  0.21893846128E+03  0.21894214470E+03  0.12700000000E+01 0.  1.
          4   -1    0    0  501    0  0.00000000000E+00 -0.00000000000E+00 -0.17815185188E+02  0.17860395384E+02  0.12700000000E+01 0.  1.
         25    2    1    2    0    0  0.00000000000E+00  0.00000000000E+00  0.20112327609E+03  0.23680254009E+03  0.12499948322E+03 0.  0.
    9000005    1    3    3    0    0  0.27247255899E+02  0.51640314774E+02  0.14275607080E+03  0.15423822747E+03  0.10000000000E+01 0.  0.
    9000005    1    3    3    0    0 -0.27247255899E+02 -0.51640314774E+02  0.58367205295E+02  0.82564312617E+02  0.10000000000E+01 0.  0.
<mgrwt>
<rscale>  0 0.12499948E+03</rscale>
<asrwt>0</asrwt>
<pdfrwt beam="2">  1        4 0.27445587E-02 0.12499948E+03</pdfrwt>
<pdfrwt beam="1">  1       -4 0.33686602E-01 0.12499948E+03</pdfrwt>
<totfact> 0.84276858E+03</totfact>
</mgrwt>
</event>
<event>
 5    1  0.3316206E-002  0.1249990E+03  0.7818608E-02  0.1235071E+00
         -4   -1    0    0    0  501 -0.00000000000E+00  0.00000000000E+00  0.33827925652E+02  0.33851757028E+02  0.12700000000E+01 0.  1.
          4   -1    0    0  501    0  0.00000000000E+00 -0.00000000000E+00 -0.11540428033E+03  0.11541126816E+03  0.12700000000E+01 0.  1.
         25    2    1    2    0    0  0.00000000000E+00  0.00000000000E+00 -0.81576354682E+02  0.14926302519E+03  0.12499899618E+03 0.  0.
    9000005    1    3    3    0    0  0.34093381326E+02  0.48928050420E+02 -0.63092052397E+02  0.86821194669E+02  0.10000000000E+01 0.  0.
    9000005    1    3    3    0    0 -0.34093381326E+02 -0.48928050420E+02 -0.18484302285E+02  0.62441830523E+02  0.10000000000E+01 0.  0.
<mgrwt>
<rscale>  0 0.12499900E+03</rscale>
<asrwt>0</asrwt>
<pdfrwt beam="2">  1        4 0.17756875E-01 0.12499900E+03</pdfrwt>
<pdfrwt beam="1">  1       -4 0.52066670E-02 0.12499900E+03</pdfrwt>
<totfact> 0.99453053E+03</totfact>
</mgrwt>
</event>
<event>
 5    1  0.3316206E-002  0.1250016E+03  0.7818608E-02  0.1235067E+00
          4   -1    0    0  501    0  0.00000000000E+00  0.00000000000E+00  0.15227860270E+02  0.15280727352E+02  0.12700000000E+01 0. -1.
         -4   -1    0    0    0  501 -0.00000000000E+00 -0.00000000000E+00 -0.25602771502E+03  0.25603086485E+03  0.12700000000E+01 0. -1.
         25    2    1    2    0    0  0.00000000000E+00  0.00000000000E+00 -0.24079985475E+03  0.27131159221E+03  0.12500164006E+03 0.  0.
    9000005    1    3    3    0    0  0.48771600335E+02  0.38964770022E+02 -0.11409802543E+03  0.13006260688E+03  0.10000000000E+01 0.  0.
    9000005    1    3    3    0    0 -0.48771600335E+02 -0.38964770022E+02 -0.12670182932E+03  0.14124898533E+03  0.10000000000E+01 0.  0.
<mgrwt>
<rscale>  0 0.12500164E+03</rscale>
<asrwt>0</asrwt>
<pdfrwt beam="1">  1        4 0.23470569E-02 0.12500164E+03</pdfrwt>
<pdfrwt beam="2">  1       -4 0.39393185E-01 0.12500164E+03</pdfrwt>
<totfact> 0.79341494E+03</totfact>
</mgrwt>
</event>
<event>
 5    1  0.3316206E-002  0.1250036E+03  0.7818608E-02  0.1235064E+00
          4   -1    0    0  501    0  0.00000000000E+00  0.00000000000E+00  0.79521764091E+02  0.79531904693E+02  0.12700000000E+01 0. -1.
         -4   -1    0    0    0  501 -0.00000000000E+00 -0.00000000000E+00 -0.49103122615E+02  0.49119543469E+02  0.12700000000E+01 0. -1.
         25    2    1    2    0    0  0.00000000000E+00  0.00000000000E+00  0.30418641476E+02  0.12865144816E+03  0.12500360541E+03 0.  0.
    9000005    1    3    3    0    0  0.62121387320E+02 -0.58830510118E+01  0.18744420412E+02  0.65161571101E+02  0.10000000000E+01 0.  0.
    9000005    1    3    3    0    0 -0.62121387320E+02  0.58830510118E+01  0.11674221064E+02  0.63489877061E+02  0.10000000000E+01 0.  0.
<mgrwt>
<rscale>  0 0.12500361E+03</rscale>
<asrwt>0</asrwt>
<pdfrwt beam="1">  1        4 0.12236161E-01 0.12500361E+03</pdfrwt>
<pdfrwt beam="2">  1       -4 0.75563699E-02 0.12500361E+03</pdfrwt>
<totfact> 0.10372598E+04</totfact>
</mgrwt>
</event>
<event>
 5    1  0.3316206E-002  0.1249792E+03  0.7818608E-02  0.1235102E+00
         -4   -1    0    0    0  501 -0.00000000000E+00  0.00000000000E+00  0.26380503790E+03  0.26380809487E+03  0.12700000000E+01 0. -1.
          4   -1    0    0  501    0  0.00000000000E+00 -0.00000000000E+00 -0.14772014735E+02  0.14826507321E+02  0.12700000000E+01 0. -1.
         25    2    1    2    0    0  0.00000000000E+00  0.00000000000E+00  0.24903302316E+03  0.27863460219E+03  0.12497917792E+03 0.  0.
    9000005    1    3    3    0    0  0.24116403116E+02 -0.49856194804E+02  0.60027716986E+02  0.81679666173E+02  0.10000000000E+01 0.  0.
    9000005    1    3    3    0    0 -0.24116403116E+02  0.49856194804E+02  0.18900530617E+03  0.19695493602E+03  0.10000000000E+01 0.  0.
<mgrwt>
<rscale>  0 0.12497918E+03</rscale>
<asrwt>0</asrwt>
<pdfrwt beam="2">  1        4 0.22770445E-02 0.12497918E+03</pdfrwt>
<pdfrwt beam="1">  1       -4 0.40589817E-01 0.12497918E+03</pdfrwt>
<totfact> 0.78395777E+03</totfact>
</mgrwt>
</event>
<event>
 5    1  0.3316206E-002  0.1250009E+03  0.7818608E-02  0.1235068E+00
          4   -1    0    0  501    0  0.00000000000E+00  0.00000000000E+00  0.32831711456E+02  0.32856265417E+02  0.12700000000E+01 0. -1.
         -4   -1    0    0    0  501 -0.00000000000E+00 -0.00000000000E+00 -0.11890721029E+03  0.11891399228E+03  0.12700000000E+01 0. -1.
         25    2    1    2    0    0  0.00000000000E+00  0.00000000000E+00 -0.86075498837E+02  0.15177025770E+03  0.12500087848E+03 0.  0.
    9000005    1    3    3    0    0 -0.47894226608E+02 -0.30395326164E+02 -0.11200705798E+02  0.57828959920E+02  0.10000000000E+01 0.  0.
    9000005    1    3    3    0    0  0.47894226608E+02  0.30395326164E+02 -0.74874793039E+02  0.93941297775E+02  0.10000000000E+01 0.  0.
<mgrwt>
<rscale>  0 0.12500088E+03</rscale>
<asrwt>0</asrwt>
<pdfrwt beam="1">  1        4 0.50534430E-02 0.12500088E+03</pdfrwt>
<pdfrwt beam="2">  1       -4 0.18295827E-01 0.12500088E+03</pdfrwt>
<totfact> 0.98950032E+03</totfact>
</mgrwt>
</event>
<event>
 5    1  0.3316206E-002  0.1250018E+03  0.7818608E-02  0.1235067E+00
         -4   -1    0    0    0  501 -0.00000000000E+00  0.00000000000E+00  0.77170451156E+03  0.77170555659E+03  0.12700000000E+01 0. -1.
          4   -1    0    0  501    0  0.00000000000E+00 -0.00000000000E+00 -0.49812683799E+01  0.51406161764E+01  0.12700000000E+01 0. -1.
         25    2    1    2    0    0  0.00000000000E+00  0.00000000000E+00  0.76672324318E+03  0.77684617276E+03  0.12500177799E+03 0.  0.
    9000005    1    3    3    0    0 -0.95644047652E+01  0.12544159904E+02  0.75915857295E+03  0.75932310163E+03  0.10000000000E+01 0.  0.
    9000005    1    3    3    0    0  0.95644047652E+01 -0.12544159904E+02  0.75646702343E+01  0.17523071134E+02  0.10000000000E+01 0.  0.
<mgrwt>
<rscale>  0 0.12500178E+03</rscale>
<asrwt>0</asrwt>
<pdfrwt beam="2">  1        4 0.77868654E-03 0.12500178E+03</pdfrwt>
<pdfrwt beam="1">  1       -4 0.11873616E+00 0.12500178E+03</pdfrwt>
<totfact> 0.39317949E+03</totfact>
</mgrwt>
</event>
<event>
 5    1  0.3316206E-002  0.1250023E+03  0.7818608E-02  0.1235066E+00
         -4   -1    0    0    0  501 -0.00000000000E+00  0.00000000000E+00  0.10848678345E+02  0.10922761640E+02  0.12700000000E+01 0. -1.
          4   -1    0    0  501    0  0.00000000000E+00 -0.00000000000E+00 -0.35877957993E+03  0.35878182769E+03  0.12700000000E+01 0. -1.
         25    2    1    2    0    0  0.00000000000E+00  0.00000000000E+00 -0.34793090159E+03  0.36970458932E+03  0.12500228433E+03 0.  0.
    9000005    1    3    3    0    0  0.59283835482E+02 -0.19048141294E+02 -0.18961213532E+03  0.19957747041E+03  0.10000000000E+01 0.  0.
    9000005    1    3    3    0    0 -0.59283835482E+02  0.19048141294E+02 -0.15831876627E+03  0.17012711892E+03  0.10000000000E+01 0.  0.
<mgrwt>
<rscale>  0 0.12500228E+03</rscale>
<asrwt>0</asrwt>
<pdfrwt beam="2">  1        4 0.55202721E-01 0.12500228E+03</pdfrwt>
<pdfrwt beam="1">  1       -4 0.16748993E-02 0.12500228E+03</pdfrwt>
<totfact> 0.67606443E+03</totfact>
</mgrwt>
</event>
<event>
 5    1  0.3316206E-002  0.1249987E+03  0.7818608E-02  0.1235071E+00
          4   -1    0    0  501    0  0.00000000000E+00  0.00000000000E+00  0.95489455254E+02  0.95497900316E+02  0.12700000000E+01 0. -1.
         -4   -1    0    0    0  501 -0.00000000000E+00 -0.00000000000E+00 -0.40886688242E+02  0.40906407510E+02  0.12700000000E+01 0. -1.
         25    2    1    2    0    0  0.00000000000E+00  0.00000000000E+00  0.54602767012E+02  0.13640430783E+03  0.12499869211E+03 0.  0.
    9000005    1    3    3    0    0  0.56989331304E+02  0.81238338840E+01  0.53838807307E+02  0.78825108510E+02  0.10000000000E+01 0.  0.
    9000005    1    3    3    0    0 -0.56989331304E+02 -0.81238338840E+01  0.76395970551E+00  0.57579199316E+02  0.10000000000E+01 0.  0.
<mgrwt>
<rscale>  0 0.12499869E+03</rscale>
<asrwt>0</asrwt>
<pdfrwt beam="1">  1        4 0.14692852E-01 0.12499869E+03</pdfrwt>
<pdfrwt beam="2">  1       -4 0.62924262E-02 0.12499869E+03</pdfrwt>
<totfact> 0.10208857E+04</totfact>
</mgrwt>
</event>
<event>
 5    1  0.3316206E-002  0.1250001E+03  0.7818608E-02  0.1235069E+00
          4   -1    0    0  501    0  0.00000000000E+00  0.00000000000E+00  0.46808140731E+02  0.46825366402E+02  0.12700000000E+01 0.  1.
         -4   -1    0    0    0  501 -0.00000000000E+00 -0.00000000000E+00 -0.83415053507E+02  0.83424720866E+02  0.12700000000E+01 0.  1.
         25    2    1    2    0    0  0.00000000000E+00  0.00000000000E+00 -0.36606912776E+02  0.13025008727E+03  0.12500007668E+03 0.  0.
    9000005    1    3    3    0    0  0.13849325607E+02  0.50711697598E+02  0.16905889034E+02  0.55229423110E+02  0.10000000000E+01 0.  0.
    9000005    1    3    3    0    0 -0.13849325607E+02 -0.50711697598E+02 -0.53512801810E+02  0.75020664157E+02  0.10000000000E+01 0.  0.
<mgrwt>
<rscale>  0 0.12500008E+03</rscale>
<asrwt>0</asrwt>
<pdfrwt beam="1">  1        4 0.72033211E-02 0.12500008E+03</pdfrwt>
<pdfrwt beam="2">  1       -4 0.12835154E-01 0.12500008E+03</pdfrwt>
<totfact> 0.10339143E+04</totfact>
</mgrwt>
</event>
<event>
 5    1  0.3316206E-002  0.1249909E+03  0.7818608E-02  0.1235083E+00
         -4   -1    0    0    0  501 -0.00000000000E+00  0.00000000000E+00  0.37732627659E+02  0.37753994359E+02  0.12700000000E+01 0. -1.
          4   -1    0    0  501    0  0.00000000000E+00 -0.00000000000E+00 -0.10345483589E+03  0.10346263079E+03  0.12700000000E+01 0. -1.
         25    2    1    2    0    0  0.00000000000E+00  0.00000000000E+00 -0.65722208232E+02  0.14121662515E+03  0.12499090592E+03 0.  0.
    9000005    1    3    3    0    0 -0.14365793600E+02 -0.51067273321E+02 -0.70169634519E+02  0.87971700215E+02  0.10000000000E+01 0.  0.
    9000005    1    3    3    0    0  0.14365793600E+02  0.51067273321E+02  0.44474262873E+01  0.53244924930E+02  0.10000000000E+01 0.  0.
<mgrwt>
<rscale>  0 0.12499091E+03</rscale>
<asrwt>0</asrwt>
<pdfrwt beam="2">  1        4 0.15918372E-01 0.12499091E+03</pdfrwt>
<pdfrwt beam="1">  1       -4 0.58072629E-02 0.12499091E+03</pdfrwt>
<totfact> 0.10110504E+04</totfact>
</mgrwt>
</event>
<event>
 5    1  0.3316206E-002  0.1250027E+03  0.7818608E-02  0.1235065E+00
          4   -1    0    0  501    0  0.00000000000E+00  0.00000000000E+00  0.18182229521E+03  0.18182673053E+03  0.12700000000E+01 0. -1.
         -4   -1    0    0    0  501 -0.00000000000E+00 -0.00000000000E+00 -0.21461361825E+02  0.21498905818E+02  0.12700000000E+01 0. -1.
         25    2    1    2    0    0  0.00000000000E+00  0.00000000000E+00  0.16036093339E+03  0.20332563635E+03  0.12500274173E+03 0.  0.
    9000005    1    3    3    0    0 -0.28948536723E+02 -0.34852415890E+02  0.15019313657E+03  0.15688112361E+03  0.10000000000E+01 0.  0.
    9000005    1    3    3    0    0  0.28948536723E+02  0.34852415890E+02  0.10167796818E+02  0.46444512743E+02  0.10000000000E+01 0.  0.
<mgrwt>
<rscale>  0 0.12500274E+03</rscale>
<asrwt>0</asrwt>
<pdfrwt beam="1">  1        4 0.27975889E-01 0.12500274E+03</pdfrwt>
<pdfrwt beam="2">  1       -4 0.33049773E-02 0.12500274E+03</pdfrwt>
<totfact> 0.89572133E+03</totfact>
</mgrwt>
</event>
<event>
 5    1  0.3316206E-002  0.1249995E+03  0.7818608E-02  0.1235070E+00
          4   -1    0    0  501    0  0.00000000000E+00  0.00000000000E+00  0.33058518634E+02  0.33082904260E+02  0.12700000000E+01 0.  1.
         -4   -1    0    0    0  501 -0.00000000000E+00 -0.00000000000E+00 -0.11808942566E+03  0.11809625460E+03  0.12700000000E+01 0.  1.
         25    2    1    2    0    0  0.00000000000E+00  0.00000000000E+00 -0.85030907022E+02  0.15117915886E+03  0.12499953170E+03 0.  0.
    9000005    1    3    3    0    0 -0.47514660407E+02  0.36454717702E+02 -0.64104217591E+02  0.87732206796E+02  0.10000000000E+01 0.  0.
    9000005    1    3    3    0    0  0.47514660407E+02 -0.36454717702E+02 -0.20926689431E+02  0.63446952069E+02  0.10000000000E+01 0.  0.
<mgrwt>
<rscale>  0 0.12499953E+03</rscale>
<asrwt>0</asrwt>
<pdfrwt beam="1">  1        4 0.50883271E-02 0.12499953E+03</pdfrwt>
<pdfrwt beam="2">  1       -4 0.18170005E-01 0.12499953E+03</pdfrwt>
<totfact> 0.99070212E+03</totfact>
</mgrwt>
</event>
<event>
 5    1  0.3316206E-002  0.1250012E+03  0.7818608E-02  0.1235067E+00
         -4   -1    0    0    0  501 -0.00000000000E+00  0.00000000000E+00  0.28909848383E+03  0.28910127335E+03  0.12700000000E+01 0. -1.
          4   -1    0    0  501    0  0.00000000000E+00 -0.00000000000E+00 -0.13479383799E+02  0.13539080013E+02  0.12700000000E+01 0. -1.
         25    2    1    2    0    0  0.00000000000E+00  0.00000000000E+00  0.27561910003E+03  0.30264035337E+03  0.12500118072E+03 0.  0.
    9000005    1    3    3    0    0  0.14174101058E+02 -0.59542782439E+02  0.10727337325E+03  0.12351042341E+03  0.10000000000E+01 0.  0.
    9000005    1    3    3    0    0 -0.14174101058E+02  0.59542782439E+02  0.16834572678E+03  0.17912992996E+03  0.10000000000E+01 0.  0.
<mgrwt>
<rscale>  0 0.12500118E+03</rscale>
<asrwt>0</asrwt>
<pdfrwt beam="2">  1        4 0.20785580E-02 0.12500118E+03</pdfrwt>
<pdfrwt beam="1">  1       -4 0.44481495E-01 0.12500118E+03</pdfrwt>
<totfact> 0.75266854E+03</totfact>
</mgrwt>
</event>
<event>
 5    1  0.3316206E-002  0.1250011E+03  0.7818608E-02  0.1235068E+00
          4   -1    0    0  501    0  0.00000000000E+00  0.00000000000E+00  0.16734710819E+02  0.16782831888E+02  0.12700000000E+01 0.  1.
         -4   -1    0    0    0  501 -0.00000000000E+00 -0.00000000000E+00 -0.23304116580E+03  0.23304462632E+03  0.12700000000E+01 0.  1.
         25    2    1    2    0    0  0.00000000000E+00  0.00000000000E+00 -0.21630645498E+03  0.24982745821E+03  0.12500110563E+03 0.  0.
    9000005    1    3    3    0    0  0.45481845002E+02 -0.40361451123E+02 -0.79351567042E+02  0.99976578025E+02  0.10000000000E+01 0.  0.
    9000005    1    3    3    0    0 -0.45481845002E+02  0.40361451123E+02 -0.13695488794E+03  0.14985088019E+03  0.10000000000E+01 0.  0.
<mgrwt>
<rscale>  0 0.12500111E+03</rscale>
<asrwt>0</asrwt>
<pdfrwt beam="1">  1        4 0.25785389E-02 0.12500111E+03</pdfrwt>
<pdfrwt beam="2">  1       -4 0.35856452E-01 0.12500111E+03</pdfrwt>
<totfact> 0.82353145E+03</totfact>
</mgrwt>
</event>
<event>
 5    1  0.3316206E-002  0.1250018E+03  0.7818608E-02  0.1235066E+00
         -4   -1    0    0    0  501 -0.00000000000E+00  0.00000000000E+00  0.37900840115E+03  0.37901052893E+03  0.12700000000E+01 0.  1.
          4   -1    0    0  501    0  0.00000000000E+00 -0.00000000000E+00 -0.10265511944E+02  0.10343772787E+02  0.12700000000E+01 0.  1.
         25    2    1    2    0    0  0.00000000000E+00  0.00000000000E+00  0.36874288920E+03  0.38935430172E+03  0.12500181570E+03 0.  0.
    9000005    1    3    3    0    0  0.16319682836E+02  0.46324318472E+02  0.64014404998E+02  0.80691502508E+02  0.10000000000E+01 0.  0.
    9000005    1    3    3    0    0 -0.16319682836E+02 -0.46324318472E+02  0.30472848421E+03  0.30866279921E+03  0.10000000000E+01 0.  0.
<mgrwt>
<rscale>  0 0.12500182E+03</rscale>
<asrwt>0</asrwt>
<pdfrwt beam="2">  1        4 0.15854933E-02 0.12500182E+03</pdfrwt>
<pdfrwt beam="1">  1       -4 0.58315168E-01 0.12500182E+03</pdfrwt>
<totfact> 0.65598883E+03</totfact>
</mgrwt>
</event>
<event>
 5    1  0.3316206E-002  0.1249985E+03  0.7818608E-02  0.1235072E+00
          4   -1    0    0  501    0  0.00000000000E+00  0.00000000000E+00  0.17892781517E+03  0.17893232224E+03  0.12700000000E+01 0. -1.
         -4   -1    0    0    0  501 -0.00000000000E+00 -0.00000000000E+00 -0.21807636630E+02  0.21844585493E+02  0.12700000000E+01 0. -1.
         25    2    1    2    0    0  0.00000000000E+00  0.00000000000E+00  0.15712017854E+03  0.20077690773E+03  0.12499846468E+03 0.  0.
    9000005    1    3    3    0    0 -0.44191227073E+02 -0.12458561659E+02  0.10468725778E+02  0.47102808072E+02  0.10000000000E+01 0.  0.
    9000005    1    3    3    0    0  0.44191227073E+02  0.12458561659E+02  0.14665145276E+03  0.15367409966E+03  0.10000000000E+01 0.  0.
<mgrwt>
<rscale>  0 0.12499846E+03</rscale>
<asrwt>0</asrwt>
<pdfrwt beam="1">  1        4 0.27530545E-01 0.12499846E+03</pdfrwt>
<pdfrwt beam="2">  1       -4 0.33582099E-02 0.12499846E+03</pdfrwt>
<totfact> 0.90007731E+03</totfact>
</mgrwt>
</event>
<event>
 5    1  0.3316206E-002  0.1249992E+03  0.7818608E-02  0.1235071E+00
          4   -1    0    0  501    0  0.00000000000E+00  0.00000000000E+00  0.15138689040E+03  0.15139221739E+03  0.12700000000E+01 0. -1.
         -4   -1    0    0    0  501 -0.00000000000E+00 -0.00000000000E+00 -0.25781330408E+02  0.25812591842E+02  0.12700000000E+01 0. -1.
         25    2    1    2    0    0  0.00000000000E+00  0.00000000000E+00  0.12560556000E+03  0.17720480923E+03  0.12499915085E+03 0.  0.
    9000005    1    3    3    0    0  0.48523641771E+02  0.38887904440E+02  0.71585794286E+02  0.94827943488E+02  0.10000000000E+01 0.  0.
    9000005    1    3    3    0    0 -0.48523641771E+02 -0.38887904440E+02  0.54019765709E+02  0.82376865744E+02  0.10000000000E+01 0.  0.
<mgrwt>
<rscale>  0 0.12499915E+03</rscale>
<asrwt>0</asrwt>
<pdfrwt beam="1">  1        4 0.23293105E-01 0.12499915E+03</pdfrwt>
<pdfrwt beam="2">  1       -4 0.39691730E-02 0.12499915E+03</pdfrwt>
<totfact> 0.94124372E+03</totfact>
</mgrwt>
</event>
<event>
 5    1  0.3316206E-002  0.1249824E+03  0.7818608E-02  0.1235097E+00
          4   -1    0    0  501    0  0.00000000000E+00  0.00000000000E+00  0.31794720709E+02  0.31820074874E+02  0.12700000000E+01 0.  1.
         -4   -1    0    0    0  501 -0.00000000000E+00 -0.00000000000E+00 -0.12274624202E+03  0.12275281190E+03  0.12700000000E+01 0.  1.
         25    2    1    2    0    0  0.00000000000E+00  0.00000000000E+00 -0.90951521306E+02  0.15457288677E+03  0.12498239115E+03 0.  0.
    9000005    1    3    3    0    0  0.41345497702E+02  0.13368737106E+02 -0.10100569886E+03  0.10996055890E+03  0.10000000000E+01 0.  0.
    9000005    1    3    3    0    0 -0.41345497702E+02 -0.13368737106E+02  0.10054177550E+02  0.44612327873E+02  0.10000000000E+01 0.  0.
<mgrwt>
<rscale>  0 0.12498239E+03</rscale>
<asrwt>0</asrwt>
<pdfrwt beam="1">  1        4 0.48939513E-02 0.12498239E+03</pdfrwt>
<pdfrwt beam="2">  1       -4 0.18886493E-01 0.12498239E+03</pdfrwt>
<totfact> 0.98438392E+03</totfact>
</mgrwt>
</event>
<event>
 5    1  0.3316206E-002  0.1250054E+03  0.7818608E-02  0.1235061E+00
         -4   -1    0    0    0  501 -0.00000000000E+00  0.00000000000E+00  0.11960043881E+04  0.11960050624E+04  0.12700000000E+01 0.  1.
          4   -1    0    0  501    0  0.00000000000E+00 -0.00000000000E+00 -0.31422191203E+01  0.33891652365E+01  0.12700000000E+01 0.  1.
         25    2    1    2    0    0  0.00000000000E+00  0.00000000000E+00  0.11928621690E+04  0.11993942277E+04  0.12500543617E+03 0.  0.
    9000005    1    3    3    0    0 -0.42289091921E+02  0.45607917728E+02  0.53795802262E+03  0.54154250393E+03  0.10000000000E+01 0.  0.
    9000005    1    3    3    0    0  0.42289091921E+02 -0.45607917728E+02  0.65490414640E+03  0.65785172374E+03  0.10000000000E+01 0.  0.
<mgrwt>
<rscale>  0 0.12500544E+03</rscale>
<asrwt>0</asrwt>
<pdfrwt beam="2">  1        4 0.50246709E-03 0.12500544E+03</pdfrwt>
<pdfrwt beam="1">  1       -4 0.18401934E+00 0.12500544E+03</pdfrwt>
<totfact> 0.24725741E+03</totfact>
</mgrwt>
</event>
<event>
 5    1  0.3316206E-002  0.1249991E+03  0.7818608E-02  0.1235071E+00
         -4   -1    0    0    0  501 -0.00000000000E+00  0.00000000000E+00  0.37274602253E+03  0.37274818606E+03  0.12700000000E+01 0.  1.
          4   -1    0    0  501    0  0.00000000000E+00 -0.00000000000E+00 -0.10438820617E+02  0.10515791738E+02  0.12700000000E+01 0.  1.
         25    2    1    2    0    0  0.00000000000E+00  0.00000000000E+00  0.36230720191E+03  0.38326397780E+03  0.12499907248E+03 0.  0.
    9000005    1    3    3    0    0 -0.52014846727E+02 -0.32622770044E+02  0.14547525158E+03  0.15790452250E+03  0.10000000000E+01 0.  0.
    9000005    1    3    3    0    0  0.52014846727E+02  0.32622770044E+02  0.21683195033E+03  0.22535945529E+03  0.10000000000E+01 0.  0.
<mgrwt>
<rscale>  0 0.12499907E+03</rscale>
<asrwt>0</asrwt>
<pdfrwt beam="2">  1        4 0.16120596E-02 0.12499907E+03</pdfrwt>
<pdfrwt beam="1">  1       -4 0.57351631E-01 0.12499907E+03</pdfrwt>
<totfact> 0.66215080E+03</totfact>
</mgrwt>
</event>
<event>
 5    1  0.3316206E-002  0.1249788E+03  0.7818608E-02  0.1235102E+00
          4   -1    0    0  501    0  0.00000000000E+00  0.00000000000E+00  0.26386944258E+03  0.26387249881E+03  0.12700000000E+01 0. -1.
         -4   -1    0    0    0  501 -0.00000000000E+00 -0.00000000000E+00 -0.14768300558E+02  0.14822806798E+02  0.12700000000E+01 0. -1.
         25    2    1    2    0    0  0.00000000000E+00  0.00000000000E+00  0.24910114202E+03  0.27869530560E+03  0.12497877584E+03 0.  0.
    9000005    1    3    3    0    0 -0.37092171437E+02  0.24467868085E+02  0.22250104304E+03  0.22689693675E+03  0.10000000000E+01 0.  0.
    9000005    1    3    3    0    0  0.37092171437E+02 -0.24467868085E+02  0.26600098977E+02  0.51798368856E+02  0.10000000000E+01 0.  0.
<mgrwt>
<rscale>  0 0.12497878E+03</rscale>
<asrwt>0</asrwt>
<pdfrwt beam="1">  1        4 0.40599728E-01 0.12497878E+03</pdfrwt>
<pdfrwt beam="2">  1       -4 0.22764741E-02 0.12497878E+03</pdfrwt>
<totfact> 0.78388394E+03</totfact>
</mgrwt>
</event>
<event>
 5    1  0.3316206E-002  0.1250018E+03  0.7818608E-02  0.1235066E+00
         -4   -1    0    0    0  501 -0.00000000000E+00  0.00000000000E+00  0.64992416759E+01  0.66221629670E+01  0.12700000000E+01 0.  1.
          4   -1    0    0  501    0  0.00000000000E+00 -0.00000000000E+00 -0.59529515746E+03  0.59529651216E+03  0.12700000000E+01 0.  1.
         25    2    1    2    0    0  0.00000000000E+00  0.00000000000E+00 -0.58879591578E+03  0.60191867513E+03  0.12500184410E+03 0.  0.
    9000005    1    3    3    0    0  0.45204007003E+02 -0.33852988189E+00 -0.86622830852E+02  0.97714030090E+02  0.10000000000E+01 0.  0.
    9000005    1    3    3    0    0 -0.45204007003E+02  0.33852988189E+00 -0.50217308493E+03  0.50420464504E+03  0.10000000000E+01 0.  0.
<mgrwt>
<rscale>  0 0.12500184E+03</rscale>
<asrwt>0</asrwt>
<pdfrwt beam="2">  1        4 0.91593387E-01 0.12500184E+03</pdfrwt>
<pdfrwt beam="1">  1       -4 0.10094435E-02 0.12500184E+03</pdfrwt>
<totfact> 0.48744768E+03</totfact>
</mgrwt>
</event>
<event>
 5    1  0.3316206E-002  0.1250001E+03  0.7818608E-02  0.1235069E+00
         -4   -1    0    0    0  501 -0.00000000000E+00  0.00000000000E+00  0.35865543473E+03  0.35865768326E+03  0.12700000000E+01 0. -1.
          4   -1    0    0  501    0  0.00000000000E+00 -0.00000000000E+00 -0.10852085639E+02  0.10926145831E+02  0.12700000000E+01 0. -1.
         25    2    1    2    0    0  0.00000000000E+00  0.00000000000E+00  0.34780334910E+03  0.36958382909E+03  0.12500014834E+03 0.  0.
    9000005    1    3    3    0    0  0.34137973880E+01 -0.36734976171E+02  0.32303459217E+03  0.32513606417E+03  0.10000000000E+01 0.  0.
    9000005    1    3    3    0    0 -0.34137973880E+01  0.36734976171E+02  0.24768756922E+02  0.44447764919E+02  0.10000000000E+01 0.  0.
<mgrwt>
<rscale>  0 0.12500015E+03</rscale>
<asrwt>0</asrwt>
<pdfrwt beam="2">  1        4 0.16754214E-02 0.12500015E+03</pdfrwt>
<pdfrwt beam="1">  1       -4 0.55183634E-01 0.12500015E+03</pdfrwt>
<totfact> 0.67622272E+03</totfact>
</mgrwt>
</event>
<event>
 5    1  0.3316206E-002  0.1249949E+03  0.7818608E-02  0.1235077E+00
          4   -1    0    0  501    0  0.00000000000E+00  0.00000000000E+00  0.42899542054E+03  0.42899730039E+03  0.12700000000E+01 0. -1.
         -4   -1    0    0    0  501 -0.00000000000E+00 -0.00000000000E+00 -0.90586398869E+01  0.91472321825E+01  0.12700000000E+01 0. -1.
         25    2    1    2    0    0  0.00000000000E+00  0.00000000000E+00  0.41993678066E+03  0.43814453258E+03  0.12499492662E+03 0.  0.
    9000005    1    3    3    0    0 -0.35730735716E+02 -0.50467211906E+02  0.17836078717E+03  0.18877816440E+03  0.10000000000E+01 0.  0.
    9000005    1    3    3    0    0  0.35730735716E+02  0.50467211906E+02  0.24157599348E+03  0.24936636818E+03  0.10000000000E+01 0.  0.
<mgrwt>
<rscale>  0 0.12499493E+03</rscale>
<asrwt>0</asrwt>
<pdfrwt beam="1">  1        4 0.66006262E-01 0.12499493E+03</pdfrwt>
<pdfrwt beam="2">  1       -4 0.14005962E-02 0.12499493E+03</pdfrwt>
<totfact> 0.61011431E+03</totfact>
</mgrwt>
</event>
<event>
 5    1  0.3316206E-002  0.1249850E+03  0.7818608E-02  0.1235093E+00
          4   -1    0    0  501    0  0.00000000000E+00  0.00000000000E+00  0.15168445727E+03  0.15168977380E+03  0.12700000000E+01 0. -1.
         -4   -1    0    0    0  501 -0.00000000000E+00 -0.00000000000E+00 -0.25724852729E+02  0.25756182713E+02  0.12700000000E+01 0. -1.
         25    2    1    2    0    0  0.00000000000E+00  0.00000000000E+00  0.12595960454E+03  0.17744595652E+03  0.12498498113E+03 0.  0.
    9000005    1    3    3    0    0 -0.16605415439E+02 -0.20396907394E+02 -0.17489900389E+02  0.31601744711E+02  0.10000000000E+01 0.  0.
    9000005    1    3    3    0    0  0.16605415439E+02  0.20396907394E+02  0.14344950493E+03  0.14584421181E+03  0.10000000000E+01 0.  0.
<mgrwt>
<rscale>  0 0.12498498E+03</rscale>
<asrwt>0</asrwt>
<pdfrwt beam="1">  1        4 0.23338889E-01 0.12498498E+03</pdfrwt>
<pdfrwt beam="2">  1       -4 0.39604887E-02 0.12498498E+03</pdfrwt>
<totfact> 0.94110466E+03</totfact>
</mgrwt>
</event>
<event>
 5    1  0.3316206E-002  0.1249999E+03  0.7818608E-02  0.1235069E+00
          4   -1    0    0  501    0  0.00000000000E+00  0.00000000000E+00  0.70243467176E+03  0.70243581983E+03  0.12700000000E+01 0. -1.
         -4   -1    0    0    0  501 -0.00000000000E+00 -0.00000000000E+00 -0.54873281626E+01  0.56323769728E+01  0.12700000000E+01 0. -1.
         25    2    1    2    0    0  0.00000000000E+00  0.00000000000E+00  0.69694734359E+03  0.70806819681E+03  0.12499988635E+03 0.  0.
    9000005    1    3    3    0    0 -0.14590697343E+02 -0.55440497043E+02  0.20757479175E+03  0.21534816305E+03  0.10000000000E+01 0.  0.
    9000005    1    3    3    0    0  0.14590697343E+02  0.55440497043E+02  0.48937255184E+03  0.49272003375E+03  0.10000000000E+01 0.  0.
<mgrwt>
<rscale>  0 0.12499989E+03</rscale>
<asrwt>0</asrwt>
<pdfrwt beam="1">  1        4 0.10807811E+00 0.12499989E+03</pdfrwt>
<pdfrwt beam="2">  1       -4 0.85545033E-03 0.12499989E+03</pdfrwt>
<totfact> 0.42664306E+03</totfact>
</mgrwt>
</event>
<event>
 5    1  0.3316206E-002  0.1249988E+03  0.7818608E-02  0.1235071E+00
          4   -1    0    0  501    0  0.00000000000E+00  0.00000000000E+00  0.22696159581E+02  0.22731664254E+02  0.12700000000E+01 0.  1.
         -4   -1    0    0    0  501 -0.00000000000E+00 -0.00000000000E+00 -0.17193482789E+03  0.17193951826E+03  0.12700000000E+01 0.  1.
         25    2    1    2    0    0  0.00000000000E+00  0.00000000000E+00 -0.14923866831E+03  0.19467118252E+03  0.12499875673E+03 0.  0.
    9000005    1    3    3    0    0 -0.10272949591E+02 -0.58786144163E+02 -0.10349730212E+03  0.11947399627E+03  0.10000000000E+01 0.  0.
    9000005    1    3    3    0    0  0.10272949591E+02  0.58786144163E+02 -0.45741366189E+02  0.75197186249E+02  0.10000000000E+01 0.  0.
<mgrwt>
<rscale>  0 0.12499876E+03</rscale>
<asrwt>0</asrwt>
<pdfrwt beam="1">  1        4 0.34948089E-02 0.12499876E+03</pdfrwt>
<pdfrwt beam="2">  1       -4 0.26454603E-01 0.12499876E+03</pdfrwt>
<totfact> 0.91043372E+03</totfact>
</mgrwt>
</event>
<event>
 5    1  0.3316206E-002  0.1249964E+03  0.7818608E-02  0.1235075E+00
          4   -1    0    0  501    0  0.00000000000E+00  0.00000000000E+00  0.27287110249E+03  0.27287405789E+03  0.12700000000E+01 0.  1.
         -4   -1    0    0    0  501 -0.00000000000E+00 -0.00000000000E+00 -0.14283342433E+02  0.14339692154E+02  0.12700000000E+01 0.  1.
         25    2    1    2    0    0  0.00000000000E+00  0.00000000000E+00  0.25858776005E+03  0.28721375005E+03  0.12499643422E+03 0.  0.
    9000005    1    3    3    0    0 -0.61834636296E+02  0.90154439090E+01  0.12819991868E+03  0.14262194650E+03  0.10000000000E+01 0.  0.
    9000005    1    3    3    0    0  0.61834636296E+02 -0.90154439090E+01  0.13038784137E+03  0.14459180354E+03  0.10000000000E+01 0.  0.
<mgrwt>
<rscale>  0 0.12499643E+03</rscale>
<asrwt>0</asrwt>
<pdfrwt beam="1">  1        4 0.41984730E-01 0.12499643E+03</pdfrwt>
<pdfrwt beam="2">  1       -4 0.22019993E-02 0.12499643E+03</pdfrwt>
<totfact> 0.77237353E+03</totfact>
</mgrwt>
</event>
<event>
 5    1  0.3316206E-002  0.1249976E+03  0.7818608E-02  0.1235073E+00
         -4   -1    0    0    0  501 -0.00000000000E+00  0.00000000000E+00  0.38670083052E+03  0.38670291598E+03  0.12700000000E+01 0.  1.
          4   -1    0    0  501    0  0.00000000000E+00 -0.00000000000E+00 -0.10059052206E+02  0.10138906809E+02  0.12700000000E+01 0.  1.
         25    2    1    2    0    0  0.00000000000E+00  0.00000000000E+00  0.37664177832E+03  0.39684182279E+03  0.12499761254E+03 0.  0.
    9000005    1    3    3    0    0  0.40913192299E+02 -0.12203462514E+02  0.33319340761E+03  0.33591912817E+03  0.10000000000E+01 0.  0.
    9000005    1    3    3    0    0 -0.40913192299E+02  0.12203462514E+02  0.43448370709E+02  0.60922694611E+02  0.10000000000E+01 0.  0.
<mgrwt>
<rscale>  0 0.12499761E+03</rscale>
<asrwt>0</asrwt>
<pdfrwt beam="2">  1        4 0.15538497E-02 0.12499761E+03</pdfrwt>
<pdfrwt beam="1">  1       -4 0.59498733E-01 0.12499761E+03</pdfrwt>
<totfact> 0.64864534E+03</totfact>
</mgrwt>
</event>
<event>
 5    1  0.3316206E-002  0.1250051E+03  0.7818608E-02  0.1235061E+00
          4   -1    0    0  501    0  0.00000000000E+00  0.00000000000E+00  0.21484289756E+03  0.21484665120E+03  0.12700000000E+01 0. -1.
         -4   -1    0    0    0  501 -0.00000000000E+00 -0.00000000000E+00 -0.18157286243E+02  0.18201646731E+02  0.12700000000E+01 0. -1.
         25    2    1    2    0    0  0.00000000000E+00  0.00000000000E+00  0.19668561132E+03  0.23304829793E+03  0.12500511777E+03 0.  0.
    9000005    1    3    3    0    0 -0.21461517590E+02 -0.36330291944E+02  0.18428493151E+03  0.18905666566E+03  0.10000000000E+01 0.  0.
    9000005    1    3    3    0    0  0.21461517590E+02  0.36330291944E+02  0.12400679808E+02  0.43991632269E+02  0.10000000000E+01 0.  0.
<mgrwt>
<rscale>  0 0.12500512E+03</rscale>
<asrwt>0</asrwt>
<pdfrwt beam="1">  1        4 0.33056454E-01 0.12500512E+03</pdfrwt>
<pdfrwt beam="2">  1       -4 0.27971297E-02 0.12500512E+03</pdfrwt>
<totfact> 0.84834030E+03</totfact>
</mgrwt>
</event>
<event>
 5    1  0.3316206E-002  0.1249986E+03  0.7818608E-02  0.1235071E+00
         -4   -1    0    0    0  501 -0.00000000000E+00  0.00000000000E+00  0.62775797233E+03  0.62775925698E+03  0.12700000000E+01 0. -1.
          4   -1    0    0  501    0  0.00000000000E+00 -0.00000000000E+00 -0.61562974326E+01  0.62859285773E+01  0.12700000000E+01 0. -1.
         25    2    1    2    0    0  0.00000000000E+00  0.00000000000E+00  0.62160167490E+03  0.63404518556E+03  0.12499862036E+03 0.  0.
    9000005    1    3    3    0    0  0.38915693385E+02 -0.32794134282E+02  0.49476094649E+03  0.49737237620E+03  0.10000000000E+01 0.  0.
    9000005    1    3    3    0    0 -0.38915693385E+02  0.32794134282E+02  0.12684072842E+03  0.13667280937E+03  0.10000000000E+01 0.  0.
<mgrwt>
<rscale>  0 0.12499862E+03</rscale>
<asrwt>0</asrwt>
<pdfrwt beam="2">  1        4 0.95719355E-03 0.12499862E+03</pdfrwt>
<pdfrwt beam="1">  1       -4 0.96588177E-01 0.12499862E+03</pdfrwt>
<totfact> 0.46788194E+03</totfact>
</mgrwt>
</event>
<event>
 5    1  0.3316206E-002  0.1250149E+03  0.7818608E-02  0.1235046E+00
         -4   -1    0    0    0  501 -0.00000000000E+00  0.00000000000E+00  0.25642914982E+02  0.25674344953E+02  0.12700000000E+01 0. -1.
          4   -1    0    0  501    0  0.00000000000E+00 -0.00000000000E+00 -0.15224132489E+03  0.15224662198E+03  0.12700000000E+01 0. -1.
         25    2    1    2    0    0  0.00000000000E+00  0.00000000000E+00 -0.12659840991E+03  0.17792096693E+03  0.12501485145E+03 0.  0.
    9000005    1    3    3    0    0  0.55987573895E+02  0.21789078853E+02 -0.38780260303E+02  0.71514201226E+02  0.10000000000E+01 0.  0.
    9000005    1    3    3    0    0 -0.55987573895E+02 -0.21789078853E+02 -0.87818149603E+02  0.10640676570E+03  0.10000000000E+01 0.  0.
<mgrwt>
<rscale>  0 0.12501485E+03</rscale>
<asrwt>0</asrwt>
<pdfrwt beam="2">  1        4 0.23424567E-01 0.12501485E+03</pdfrwt>
<pdfrwt beam="1">  1       -4 0.39478891E-02 0.12501485E+03</pdfrwt>
<totfact> 0.93961281E+03</totfact>
</mgrwt>
</event>
<event>
 5    1  0.3316206E-002  0.1249993E+03  0.7818608E-02  0.1235070E+00
          4   -1    0    0  501    0  0.00000000000E+00  0.00000000000E+00  0.26628094193E+03  0.26628397048E+03  0.12700000000E+01 0.  1.
         -4   -1    0    0    0  501 -0.00000000000E+00 -0.00000000000E+00 -0.14638878641E+02  0.14693864974E+02  0.12700000000E+01 0.  1.
         25    2    1    2    0    0  0.00000000000E+00  0.00000000000E+00  0.25164206329E+03  0.28097783546E+03  0.12499926400E+03 0.  0.
    9000005    1    3    3    0    0  0.26770886576E+02 -0.23810579745E+01 -0.99465536783E+00  0.26913549458E+02  0.10000000000E+01 0.  0.
    9000005    1    3    3    0    0 -0.26770886576E+02  0.23810579745E+01  0.25263671866E+03  0.25406428600E+03  0.10000000000E+01 0.  0.
<mgrwt>
<rscale>  0 0.12499926E+03</rscale>
<asrwt>0</asrwt>
<pdfrwt beam="1">  1        4 0.40970759E-01 0.12499926E+03</pdfrwt>
<pdfrwt beam="2">  1       -4 0.22565980E-02 0.12499926E+03</pdfrwt>
<totfact> 0.78049907E+03</totfact>
</mgrwt>
</event>
<event>
 5    1  0.3316206E-002  0.1249999E+03  0.7818608E-02  0.1235069E+00
         -4   -1    0    0    0  501 -0.00000000000E+00  0.00000000000E+00  0.28196437583E+02  0.28225024223E+02  0.12700000000E+01 0. -1.
          4   -1    0    0  501    0  0.00000000000E+00 -0.00000000000E+00 -0.13843516717E+03  0.13844099251E+03  0.12700000000E+01 0. -1.
         25    2    1    2    0    0  0.00000000000E+00  0.00000000000E+00 -0.11023872958E+03  0.16666601674E+03  0.12499993454E+03 0.  0.
    9000005    1    3    3    0    0  0.33970588807E+02 -0.24875112808E+02 -0.11669077763E+03  0.12405849316E+03  0.10000000000E+01 0.  0.
    9000005    1    3    3    0    0 -0.33970588807E+02  0.24875112808E+02  0.64520480492E+01  0.42607523575E+02  0.10000000000E+01 0.  0.
<mgrwt>
<rscale>  0 0.12499993E+03</rscale>
<asrwt>0</asrwt>
<pdfrwt beam="2">  1        4 0.21300365E-01 0.12499993E+03</pdfrwt>
<pdfrwt beam="1">  1       -4 0.43405606E-02 0.12499993E+03</pdfrwt>
<totfact> 0.96072944E+03</totfact>
</mgrwt>
</event>
<event>
 5    1  0.3316206E-002  0.1249996E+03  0.7818608E-02  0.1235070E+00
         -4   -1    0    0    0  501 -0.00000000000E+00  0.00000000000E+00  0.37389751764E+02  0.37411314291E+02  0.12700000000E+01 0. -1.
          4   -1    0    0  501    0  0.00000000000E+00 -0.00000000000E+00 -0.10441755093E+03  0.10442527396E+03  0.12700000000E+01 0. -1.
         25    2    1    2    0    0  0.00000000000E+00  0.00000000000E+00 -0.67027799164E+02  0.14183658825E+03  0.12499956762E+03 0.  0.
    9000005    1    3    3    0    0 -0.37585488602E+02  0.49899505449E+02 -0.31686587365E+02  0.70054760126E+02  0.10000000000E+01 0.  0.
    9000005    1    3    3    0    0  0.37585488602E+02 -0.49899505449E+02 -0.35341211799E+02  0.71781828125E+02  0.10000000000E+01 0.  0.
<mgrwt>
<rscale>  0 0.12499957E+03</rscale>
<asrwt>0</asrwt>
<pdfrwt beam="2">  1        4 0.16066491E-01 0.12499957E+03</pdfrwt>
<pdfrwt beam="1">  1       -4 0.57545223E-02 0.12499957E+03</pdfrwt>
<totfact> 0.10095761E+04</totfact>
</mgrwt>
</event>
<event>
 5    1  0.3316206E-002  0.1250066E+03  0.7818608E-02  0.1235059E+00
          4   -1    0    0  501    0  0.00000000000E+00  0.00000000000E+00  0.10693128051E+03  0.10693882201E+03  0.12700000000E+01 0.  1.
         -4   -1    0    0    0  501 -0.00000000000E+00 -0.00000000000E+00 -0.36514482869E+02  0.36536561951E+02  0.12700000000E+01 0.  1.
         25    2    1    2    0    0  0.00000000000E+00  0.00000000000E+00  0.70416797643E+02  0.14347538396E+03  0.12500664147E+03 0.  0.
    9000005    1    3    3    0    0  0.34170188066E+02 -0.51516699024E+02  0.45733454870E+02  0.76903321939E+02  0.10000000000E+01 0.  0.
    9000005    1    3    3    0    0 -0.34170188066E+02  0.51516699024E+02  0.24683342773E+02  0.66572062018E+02  0.10000000000E+01 0.  0.
<mgrwt>
<rscale>  0 0.12500664E+03</rscale>
<asrwt>0</asrwt>
<pdfrwt beam="1">  1        4 0.16453245E-01 0.12500664E+03</pdfrwt>
<pdfrwt beam="2">  1       -4 0.56198913E-02 0.12500664E+03</pdfrwt>
<totfact> 0.10060553E+04</totfact>
</mgrwt>
</event>
<event>
 5    1  0.3316206E-002  0.1249975E+03  0.7818608E-02  0.1235073E+00
         -4   -1    0    0    0  501 -0.00000000000E+00  0.00000000000E+00  0.11399256910E+02  0.11469784571E+02  0.12700000000E+01 0.  1.
          4   -1    0    0  501    0  0.00000000000E+00 -0.00000000000E+00 -0.34153368162E+03  0.34153604287E+03  0.12700000000E+01 0.  1.
         25    2    1    2    0    0  0.00000000000E+00  0.00000000000E+00 -0.33013442471E+03  0.35300582744E+03  0.12499750329E+03 0.  0.
    9000005    1    3    3    0    0 -0.48291320408E+02 -0.30066974158E+02 -0.23811379292E+03  0.24481677422E+03  0.10000000000E+01 0.  0.
    9000005    1    3    3    0    0  0.48291320408E+02  0.30066974158E+02 -0.92020631787E+02  0.10818905322E+03  0.10000000000E+01 0.  0.
<mgrwt>
<rscale>  0 0.12499750E+03</rscale>
<asrwt>0</asrwt>
<pdfrwt beam="2">  1        4 0.52549242E-01 0.12499750E+03</pdfrwt>
<pdfrwt beam="1">  1       -4 0.17593389E-02 0.12499750E+03</pdfrwt>
<totfact> 0.69398976E+03</totfact>
</mgrwt>
</event>
<event>
 5    1  0.3316206E-002  0.1250031E+03  0.7818608E-02  0.1235065E+00
          4   -1    0    0  501    0  0.00000000000E+00  0.00000000000E+00  0.17062518317E+02  0.17109717453E+02  0.12700000000E+01 0. -1.
         -4   -1    0    0    0  501 -0.00000000000E+00 -0.00000000000E+00 -0.22858346377E+03  0.22858699177E+03  0.12700000000E+01 0. -1.
         25    2    1    2    0    0  0.00000000000E+00  0.00000000000E+00 -0.21152094545E+03  0.24569670923E+03  0.12500305020E+03 0.  0.
    9000005    1    3    3    0    0  0.31364966550E+02  0.18482361178E+02 -0.59225651875E+01  0.36897636507E+02  0.10000000000E+01 0.  0.
    9000005    1    3    3    0    0 -0.31364966550E+02 -0.18482361178E+02 -0.20559838026E+03  0.20879907272E+03  0.10000000000E+01 0.  0.
<mgrwt>
<rscale>  0 0.12500305E+03</rscale>
<asrwt>0</asrwt>
<pdfrwt beam="1">  1        4 0.26289051E-02 0.12500305E+03</pdfrwt>
<pdfrwt beam="2">  1       -4 0.35170587E-01 0.12500305E+03</pdfrwt>
<totfact> 0.82950555E+03</totfact>
</mgrwt>
</event>
<event>
 5    1  0.3316206E-002  0.1249951E+03  0.7818608E-02  0.1235077E+00
          4   -1    0    0  501    0  0.00000000000E+00  0.00000000000E+00  0.10009519574E+03  0.10010325224E+03  0.12700000000E+01 0.  1.
         -4   -1    0    0    0  501 -0.00000000000E+00 -0.00000000000E+00 -0.39002325008E+02  0.39022996503E+02  0.12700000000E+01 0.  1.
         25    2    1    2    0    0  0.00000000000E+00  0.00000000000E+00  0.61092870727E+02  0.13912624874E+03  0.12499509685E+03 0.  0.
    9000005    1    3    3    0    0 -0.44329836370E+02  0.35773233928E+02  0.59143140497E+02  0.82120458633E+02  0.10000000000E+01 0.  0.
    9000005    1    3    3    0    0  0.44329836370E+02 -0.35773233928E+02  0.19497302303E+01  0.57005790112E+02  0.10000000000E+01 0.  0.
<mgrwt>
<rscale>  0 0.12499510E+03</rscale>
<asrwt>0</asrwt>
<pdfrwt beam="1">  1        4 0.15401471E-01 0.12499510E+03</pdfrwt>
<pdfrwt beam="2">  1       -4 0.60025675E-02 0.12499510E+03</pdfrwt>
<totfact> 0.10152848E+04</totfact>
</mgrwt>
</event>
<event>
 4    1  0.3316206E-002  0.1251468E+03  0.7818608E-02  0.1234840E+00
          4   -1    0    0  501    0  0.00000000000E+00  0.00000000000E+00  0.21913124988E+02  0.21949896281E+02  0.12700000000E+01 0.  1.
         -4   -1    0    0    0  501 -0.00000000000E+00 -0.00000000000E+00 -0.17849073658E+03  0.17849525468E+03  0.12700000000E+01 0.  1.
    9000005    1    1    2    0    0  0.33561556592E+02 -0.32268682099E+02 -0.11347332214E+02  0.47931282829E+02  0.10000000000E+01 0.  0.
    9000005    1    1    2    0    0 -0.33561556592E+02  0.32268682099E+02 -0.14523027938E+03  0.15251386813E+03  0.10000000000E+01 0.  0.
<mgrwt>
<rscale>  0 0.12514675E+03</rscale>
<asrwt>0</asrwt>
<pdfrwt beam="1">  1        4 0.33744262E-02 0.12514675E+03</pdfrwt>
<pdfrwt beam="2">  1       -4 0.27463288E-01 0.12514675E+03</pdfrwt>
<totfact> 0.89765378E+03</totfact>
</mgrwt>
</event>
<event>
 5    1  0.3316206E-002  0.1249995E+03  0.7818608E-02  0.1235070E+00
          4   -1    0    0  501    0  0.00000000000E+00  0.00000000000E+00  0.13083064207E+02  0.13144560436E+02  0.12700000000E+01 0. -1.
         -4   -1    0    0    0  501 -0.00000000000E+00 -0.00000000000E+00 -0.29780760937E+03  0.29781031732E+03  0.12700000000E+01 0. -1.
         25    2    1    2    0    0  0.00000000000E+00  0.00000000000E+00 -0.28472454516E+03  0.31095487775E+03  0.12499947751E+03 0.  0.
    9000005    1    3    3    0    0 -0.36697795053E+01  0.61813408190E+02 -0.16330181400E+03  0.17465064320E+03  0.10000000000E+01 0.  0.
    9000005    1    3    3    0    0  0.36697795053E+01 -0.61813408190E+02 -0.12142273116E+03  0.13630423455E+03  0.10000000000E+01 0.  0.
<mgrwt>
<rscale>  0 0.12499948E+03</rscale>
<asrwt>0</asrwt>
<pdfrwt beam="1">  1        4 0.20177181E-02 0.12499948E+03</pdfrwt>
<pdfrwt beam="2">  1       -4 0.45821489E-01 0.12499948E+03</pdfrwt>
<totfact> 0.74245773E+03</totfact>
</mgrwt>
</event>
<event>
 5    1  0.3316206E-002  0.1250029E+03  0.7818608E-02  0.1235065E+00
          4   -1    0    0  501    0  0.00000000000E+00  0.00000000000E+00  0.32769308612E+02  0.32793909296E+02  0.12700000000E+01 0.  1.
         -4   -1    0    0    0  501 -0.00000000000E+00 -0.00000000000E+00 -0.11913736042E+03  0.11914412930E+03  0.12700000000E+01 0.  1.
         25    2    1    2    0    0  0.00000000000E+00  0.00000000000E+00 -0.86368051806E+02  0.15193803860E+03  0.12500290877E+03 0.  0.
    9000005    1    3    3    0    0 -0.12608606699E+02  0.42267271429E+02  0.10626466407E+02  0.45380843814E+02  0.10000000000E+01 0.  0.
    9000005    1    3    3    0    0  0.12608606699E+02 -0.42267271429E+02 -0.96994518214E+02  0.10655719478E+03  0.10000000000E+01 0.  0.
<mgrwt>
<rscale>  0 0.12500291E+03</rscale>
<asrwt>0</asrwt>
<pdfrwt beam="1">  1        4 0.50438452E-02 0.12500291E+03</pdfrwt>
<pdfrwt beam="2">  1       -4 0.18331237E-01 0.12500291E+03</pdfrwt>
<totfact> 0.98912299E+03</totfact>
</mgrwt>
</event>
<event>
 5    1  0.3316206E-002  0.1249984E+03  0.7818608E-02  0.1235072E+00
         -4   -1    0    0    0  501 -0.00000000000E+00  0.00000000000E+00  0.79068624098E+03  0.79068726091E+03  0.12700000000E+01 0. -1.
          4   -1    0    0  501    0  0.00000000000E+00 -0.00000000000E+00 -0.48575379930E+01  0.50208142122E+01  0.12700000000E+01 0. -1.
         25    2    1    2    0    0  0.00000000000E+00  0.00000000000E+00  0.78582870298E+03  0.79570807512E+03  0.12499836153E+03 0.  0.
    9000005    1    3    3    0    0 -0.43389498547E+02 -0.14292378648E+02  0.66435412699E+03  0.66592366433E+03  0.10000000000E+01 0.  0.
    9000005    1    3    3    0    0  0.43389498547E+02  0.14292378648E+02  0.12147457600E+03  0.12978441079E+03  0.10000000000E+01 0.  0.
<mgrwt>
<rscale>  0 0.12499836E+03</rscale>
<asrwt>0</asrwt>
<pdfrwt beam="2">  1        4 0.75995164E-03 0.12499836E+03</pdfrwt>
<pdfrwt beam="1">  1       -4 0.12165668E+00 0.12499836E+03</pdfrwt>
<totfact> 0.38458421E+03</totfact>
</mgrwt>
</event>
<event>
 5    1  0.3316206E-002  0.1249984E+03  0.7818608E-02  0.1235072E+00
         -4   -1    0    0    0  501 -0.00000000000E+00  0.00000000000E+00  0.11080058119E+04  0.11080065398E+04  0.12700000000E+01 0.  1.
          4   -1    0    0  501    0  0.00000000000E+00 -0.00000000000E+00 -0.34102557894E+01  0.36390581953E+01  0.12700000000E+01 0.  1.
         25    2    1    2    0    0  0.00000000000E+00  0.00000000000E+00  0.11045955562E+04  0.11116455980E+04  0.12499837130E+03 0.  0.
    9000005    1    3    3    0    0  0.46706252738E+02 -0.26254970403E+02  0.83831744909E+03  0.84002853699E+03  0.10000000000E+01 0.  0.
    9000005    1    3    3    0    0 -0.46706252738E+02  0.26254970403E+02  0.26627810706E+03  0.27161706098E+03  0.10000000000E+01 0.  0.
<mgrwt>
<rscale>  0 0.12499837E+03</rscale>
<asrwt>0</asrwt>
<pdfrwt beam="2">  1        4 0.54231024E-03 0.12499837E+03</pdfrwt>
<pdfrwt beam="1">  1       -4 0.17048030E+00 0.12499837E+03</pdfrwt>
<totfact> 0.27145963E+03</totfact>
</mgrwt>
</event>
<event>
 5    1  0.3316206E-002  0.1249961E+03  0.7818608E-02  0.1235075E+00
          4   -1    0    0  501    0  0.00000000000E+00  0.00000000000E+00  0.88936922120E+02  0.88945989320E+02  0.12700000000E+01 0.  1.
         -4   -1    0    0    0  501 -0.00000000000E+00 -0.00000000000E+00 -0.43898325795E+02  0.43916692813E+02  0.12700000000E+01 0.  1.
         25    2    1    2    0    0  0.00000000000E+00  0.00000000000E+00  0.45038596325E+02  0.13286268213E+03  0.12499606852E+03 0.  0.
    9000005    1    3    3    0    0 -0.11555984369E+02  0.44663340330E+02 -0.22283748352E+02  0.51243733127E+02  0.10000000000E+01 0.  0.
    9000005    1    3    3    0    0  0.11555984369E+02 -0.44663340330E+02  0.67322344677E+02  0.81618949007E+02  0.10000000000E+01 0.  0.
<mgrwt>
<rscale>  0 0.12499607E+03</rscale>
<asrwt>0</asrwt>
<pdfrwt beam="1">  1        4 0.13684714E-01 0.12499607E+03</pdfrwt>
<pdfrwt beam="2">  1       -4 0.67556989E-02 0.12499607E+03</pdfrwt>
<totfact> 0.10284231E+04</totfact>
</mgrwt>
</event>
<event>
 5    1  0.3316206E-002  0.1249976E+03  0.7818608E-02  0.1235073E+00
         -4   -1    0    0    0  501 -0.00000000000E+00  0.00000000000E+00  0.74507549248E+02  0.74518372197E+02  0.12700000000E+01 0. -1.
          4   -1    0    0  501    0  0.00000000000E+00 -0.00000000000E+00 -0.52403263919E+02  0.52418650969E+02  0.12700000000E+01 0. -1.
         25    2    1    2    0    0  0.00000000000E+00  0.00000000000E+00  0.22104285329E+02  0.12693702317E+03  0.12499763366E+03 0.  0.
    9000005    1    3    3    0    0 -0.57211535537E+02  0.51469277314E+01  0.36039836537E+02  0.67819764679E+02  0.10000000000E+01 0.  0.
    9000005    1    3    3    0    0  0.57211535537E+02 -0.51469277314E+01 -0.13935551208E+02  0.59117258487E+02  0.10000000000E+01 0.  0.
<mgrwt>
<rscale>  0 0.12499763E+03</rscale>
<asrwt>0</asrwt>
<pdfrwt beam="2">  1        4 0.80640567E-02 0.12499763E+03</pdfrwt>
<pdfrwt beam="1">  1       -4 0.11464716E-01 0.12499763E+03</pdfrwt>
<totfact> 0.10411070E+04</totfact>
</mgrwt>
</event>
<event>
 5    1  0.3316206E-002  0.1250006E+03  0.7818608E-02  0.1235068E+00
          4   -1    0    0  501    0  0.00000000000E+00  0.00000000000E+00  0.41298560374E+03  0.41298755647E+03  0.12700000000E+01 0.  1.
         -4   -1    0    0    0  501 -0.00000000000E+00 -0.00000000000E+00 -0.94140348353E+01  0.94993132321E+01  0.12700000000E+01 0.  1.
         25    2    1    2    0    0  0.00000000000E+00  0.00000000000E+00  0.40357156891E+03  0.42248686970E+03  0.12500057536E+03 0.  0.
    9000005    1    3    3    0    0  0.51310052419E+02 -0.27739761203E+02  0.27759385963E+03  0.28365748136E+03  0.10000000000E+01 0.  0.
    9000005    1    3    3    0    0 -0.51310052419E+02  0.27739761203E+02  0.12597770928E+03  0.13882938834E+03  0.10000000000E+01 0.  0.
<mgrwt>
<rscale>  0 0.12500058E+03</rscale>
<asrwt>0</asrwt>
<pdfrwt beam="1">  1        4 0.63542953E-01 0.12500058E+03</pdfrwt>
<pdfrwt beam="2">  1       -4 0.14550232E-02 0.12500058E+03</pdfrwt>
<totfact> 0.62422173E+03</totfact>
</mgrwt>
</event>
<event>
 5    1  0.3316206E-002  0.1250025E+03  0.7818608E-02  0.1235065E+00
         -4   -1    0    0    0  501 -0.00000000000E+00  0.00000000000E+00  0.30288182236E+03  0.30288448494E+03  0.12700000000E+01 0.  1.
          4   -1    0    0  501    0  0.00000000000E+00 -0.00000000000E+00 -0.12863465059E+02  0.12926006086E+02  0.12700000000E+01 0.  1.
         25    2    1    2    0    0  0.00000000000E+00  0.00000000000E+00  0.29001835730E+03  0.31581049102E+03  0.12500247465E+03 0.  0.
    9000005    1    3    3    0    0  0.18695737599E+02  0.25193240545E+02  0.28155760736E+03  0.28330181121E+03  0.10000000000E+01 0.  0.
    9000005    1    3    3    0    0 -0.18695737599E+02 -0.25193240545E+02  0.84607499396E+01  0.32508679811E+02  0.10000000000E+01 0.  0.
<mgrwt>
<rscale>  0 0.12500247E+03</rscale>
<asrwt>0</asrwt>
<pdfrwt beam="2">  1        4 0.19840102E-02 0.12500247E+03</pdfrwt>
<pdfrwt beam="1">  1       -4 0.46602220E-01 0.12500247E+03</pdfrwt>
<totfact> 0.73653154E+03</totfact>
</mgrwt>
</event>
<event>
 5    1  0.3316206E-002  0.1250078E+03  0.7818608E-02  0.1235057E+00
         -4   -1    0    0    0  501 -0.00000000000E+00  0.00000000000E+00  0.98183463883E+01  0.99001427162E+01  0.12700000000E+01 0.  1.
          4   -1    0    0  501    0  0.00000000000E+00 -0.00000000000E+00 -0.39616850598E+03  0.39617054160E+03  0.12700000000E+01 0.  1.
         25    2    1    2    0    0  0.00000000000E+00  0.00000000000E+00 -0.38635015959E+03  0.40607068432E+03  0.12500781913E+03 0.  0.
    9000005    1    3    3    0    0  0.75320188128E+01  0.72248946537E+01  0.69833078429E+01  0.12597499696E+02  0.10000000000E+01 0.  0.
    9000005    1    3    3    0    0 -0.75320188128E+01 -0.72248946537E+01 -0.39333346744E+03  0.39347318462E+03  0.10000000000E+01 0.  0.
<mgrwt>
<rscale>  0 0.12500782E+03</rscale>
<asrwt>0</asrwt>
<pdfrwt beam="2">  1        4 0.60955437E-01 0.12500782E+03</pdfrwt>
<pdfrwt beam="1">  1       -4 0.15169637E-02 0.12500782E+03</pdfrwt>
<totfact> 0.63955581E+03</totfact>
</mgrwt>
</event>
<event>
 5    1  0.3316206E-002  0.1250092E+03  0.7818608E-02  0.1235055E+00
         -4   -1    0    0    0  501 -0.00000000000E+00  0.00000000000E+00  0.27428929187E+02  0.27458314886E+02  0.12700000000E+01 0.  1.
          4   -1    0    0  501    0  0.00000000000E+00 -0.00000000000E+00 -0.14232609360E+03  0.14233175970E+03  0.12700000000E+01 0.  1.
         25    2    1    2    0    0  0.00000000000E+00  0.00000000000E+00 -0.11489716441E+03  0.16979007458E+03  0.12500924381E+03 0.  0.
    9000005    1    3    3    0    0 -0.41008282674E+02  0.21604240439E+02 -0.11438709740E+03  0.12342540462E+03  0.10000000000E+01 0.  0.
    9000005    1    3    3    0    0  0.41008282674E+02 -0.21604240439E+02 -0.51006700837E+00  0.46364669967E+02  0.10000000000E+01 0.  0.
<mgrwt>
<rscale>  0 0.12500924E+03</rscale>
<asrwt>0</asrwt>
<pdfrwt beam="2">  1        4 0.21899018E-01 0.12500924E+03</pdfrwt>
<pdfrwt beam="1">  1       -4 0.42225316E-02 0.12500924E+03</pdfrwt>
<totfact> 0.95467969E+03</totfact>
</mgrwt>
</event>
<event>
 5    1  0.3316206E-002  0.1249965E+03  0.7818608E-02  0.1235075E+00
         -4   -1    0    0    0  501 -0.00000000000E+00  0.00000000000E+00  0.66180369145E+02  0.66192553661E+02  0.12700000000E+01 0.  1.
          4   -1    0    0  501    0  0.00000000000E+00 -0.00000000000E+00 -0.58996568355E+02  0.59010236211E+02  0.12700000000E+01 0.  1.
         25    2    1    2    0    0  0.00000000000E+00  0.00000000000E+00  0.71838007897E+01  0.12520278987E+03  0.12499652634E+03 0.  0.
    9000005    1    3    3    0    0 -0.35397536185E+02 -0.46156343247E+02 -0.19285212632E+02  0.61288767456E+02  0.10000000000E+01 0.  0.
    9000005    1    3    3    0    0  0.35397536185E+02  0.46156343247E+02  0.26469013422E+02  0.63914022417E+02  0.10000000000E+01 0.  0.
<mgrwt>
<rscale>  0 0.12499653E+03</rscale>
<asrwt>0</asrwt>
<pdfrwt beam="2">  1        4 0.90783838E-02 0.12499653E+03</pdfrwt>
<pdfrwt beam="1">  1       -4 0.10183584E-01 0.12499653E+03</pdfrwt>
<totfact> 0.10449280E+04</totfact>
</mgrwt>
</event>
<event>
 5    1  0.3316206E-002  0.1250006E+03  0.7818608E-02  0.1235068E+00
         -4   -1    0    0    0  501 -0.00000000000E+00  0.00000000000E+00  0.13301788709E+02  0.13362278356E+02  0.12700000000E+01 0.  1.
          4   -1    0    0  501    0  0.00000000000E+00 -0.00000000000E+00 -0.29293811531E+03  0.29294086826E+03  0.12700000000E+01 0.  1.
         25    2    1    2    0    0  0.00000000000E+00  0.00000000000E+00 -0.27963632660E+03  0.30630314662E+03  0.12500056990E+03 0.  0.
    9000005    1    3    3    0    0 -0.27201580092E+02  0.24217839930E+02 -0.15380169128E+02  0.39547178569E+02  0.10000000000E+01 0.  0.
    9000005    1    3    3    0    0  0.27201580092E+02 -0.24217839930E+02 -0.26425615747E+03  0.26675596805E+03  0.10000000000E+01 0.  0.
<mgrwt>
<rscale>  0 0.12500057E+03</rscale>
<asrwt>0</asrwt>
<pdfrwt beam="2">  1        4 0.45072262E-01 0.12500057E+03</pdfrwt>
<pdfrwt beam="1">  1       -4 0.20512941E-02 0.12500057E+03</pdfrwt>
<totfact> 0.74813981E+03</totfact>
</mgrwt>
</event>
<event>
 5    1  0.3316206E-002  0.1250006E+03  0.7818608E-02  0.1235068E+00
          4   -1    0    0  501    0  0.00000000000E+00  0.00000000000E+00  0.47014559367E+01  0.48699679593E+01  0.12700000000E+01 0.  1.
         -4   -1    0    0    0  501 -0.00000000000E+00 -0.00000000000E+00 -0.81607006463E+03  0.81607105284E+03  0.12700000000E+01 0.  1.
         25    2    1    2    0    0  0.00000000000E+00  0.00000000000E+00 -0.81136860869E+03  0.82094102080E+03  0.12500056184E+03 0.  0.
    9000005    1    3    3    0    0 -0.58676627061E+02  0.25599861392E+01 -0.26547397257E+03  0.27189507205E+03  0.10000000000E+01 0.  0.
    9000005    1    3    3    0    0  0.58676627061E+02 -0.25599861392E+01 -0.54589463612E+03  0.54904594875E+03  0.10000000000E+01 0.  0.
<mgrwt>
<rscale>  0 0.12500056E+03</rscale>
<asrwt>0</asrwt>
<pdfrwt beam="1">  1        4 0.73634004E-03 0.12500056E+03</pdfrwt>
<pdfrwt beam="2">  1       -4 0.12556217E+00 0.12500056E+03</pdfrwt>
<totfact> 0.37346361E+03</totfact>
</mgrwt>
</event>
<event>
 5    1  0.3316206E-002  0.1249994E+03  0.7818608E-02  0.1235070E+00
         -4   -1    0    0    0  501 -0.00000000000E+00  0.00000000000E+00  0.62785220319E+02  0.62798063589E+02  0.12700000000E+01 0. -1.
          4   -1    0    0  501    0  0.00000000000E+00 -0.00000000000E+00 -0.62189767643E+02  0.62202733859E+02  0.12700000000E+01 0. -1.
         25    2    1    2    0    0  0.00000000000E+00  0.00000000000E+00  0.59545267594E+00  0.12500079745E+03  0.12499937919E+03 0.  0.
    9000005    1    3    3    0    0  0.26075435937E+02 -0.67467572626E+01  0.56687763251E+02  0.62769017797E+02  0.10000000000E+01 0.  0.
    9000005    1    3    3    0    0 -0.26075435937E+02  0.67467572626E+01 -0.56092310575E+02  0.62231779650E+02  0.10000000000E+01 0.  0.
<mgrwt>
<rscale>  0 0.12499938E+03</rscale>
<asrwt>0</asrwt>
<pdfrwt beam="2">  1        4 0.95696419E-02 0.12499938E+03</pdfrwt>
<pdfrwt beam="1">  1       -4 0.96612500E-02 0.12499938E+03</pdfrwt>
<totfact> 0.10452992E+04</totfact>
</mgrwt>
</event>
<event>
 5    1  0.3316206E-002  0.1250006E+03  0.7818608E-02  0.1235068E+00
          4   -1    0    0  501    0  0.00000000000E+00  0.00000000000E+00  0.58737341421E+02  0.58751069583E+02  0.12700000000E+01 0. -1.
         -4   -1    0    0    0  501 -0.00000000000E+00 -0.00000000000E+00 -0.66476719779E+02  0.66488849987E+02  0.12700000000E+01 0. -1.
         25    2    1    2    0    0  0.00000000000E+00  0.00000000000E+00 -0.77393783582E+01  0.12523991957E+03  0.12500055791E+03 0.  0.
    9000005    1    3    3    0    0  0.81953376879E+01 -0.76172806026E+00  0.58196823927E+02  0.58784471628E+02  0.10000000000E+01 0.  0.
    9000005    1    3    3    0    0 -0.81953376879E+01  0.76172806026E+00 -0.65936202285E+02  0.66455447942E+02  0.10000000000E+01 0.  0.
<mgrwt>
<rscale>  0 0.12500056E+03</rscale>
<asrwt>0</asrwt>
<pdfrwt beam="1">  1        4 0.90385031E-02 0.12500056E+03</pdfrwt>
<pdfrwt beam="2">  1       -4 0.10229177E-01 0.12500056E+03</pdfrwt>
<totfact> 0.10447522E+04</totfact>
</mgrwt>
</event>
<event>
 5    1  0.3316206E-002  0.1250024E+03  0.7818608E-02  0.1235065E+00
          4   -1    0    0  501    0  0.00000000000E+00  0.00000000000E+00  0.29639327730E+02  0.29666524035E+02  0.12700000000E+01 0. -1.
         -4   -1    0    0    0  501 -0.00000000000E+00 -0.00000000000E+00 -0.13170725814E+03  0.13171338105E+03  0.12700000000E+01 0. -1.
         25    2    1    2    0    0  0.00000000000E+00  0.00000000000E+00 -0.10206793041E+03  0.16137990509E+03  0.12500244536E+03 0.  0.
    9000005    1    3    3    0    0  0.66800205913E+01 -0.42497632863E+02 -0.10955452498E+03  0.11770244440E+03  0.10000000000E+01 0.  0.
    9000005    1    3    3    0    0 -0.66800205913E+01  0.42497632863E+02  0.74865945633E+01  0.43677460689E+02  0.10000000000E+01 0.  0.
<mgrwt>
<rscale>  0 0.12500245E+03</rscale>
<asrwt>0</asrwt>
<pdfrwt beam="1">  1        4 0.45624597E-02 0.12500245E+03</pdfrwt>
<pdfrwt beam="2">  1       -4 0.20265218E-01 0.12500245E+03</pdfrwt>
<totfact> 0.97072073E+03</totfact>
</mgrwt>
</event>
<event>
 5    1  0.3316206E-002  0.1250005E+03  0.7818608E-02  0.1235069E+00
         -4   -1    0    0    0  501 -0.00000000000E+00  0.00000000000E+00  0.55297244151E+01  0.56736894616E+01  0.12700000000E+01 0.  1.
          4   -1    0    0  501    0  0.00000000000E+00 -0.00000000000E+00 -0.69719275950E+03  0.69719391621E+03  0.12700000000E+01 0.  1.
         25    2    1    2    0    0  0.00000000000E+00  0.00000000000E+00 -0.69166303509E+03  0.70286760568E+03  0.12500046799E+03 0.  0.
    9000005    1    3    3    0    0 -0.26373007758E+02  0.31834278799E+02 -0.82313730580E+02  0.92116812183E+02  0.10000000000E+01 0.  0.
    9000005    1    3    3    0    0  0.26373007758E+02 -0.31834278799E+02 -0.60934930451E+03  0.61075079349E+03  0.10000000000E+01 0.  0.
<mgrwt>
<rscale>  0 0.12500047E+03</rscale>
<asrwt>0</asrwt>
<pdfrwt beam="2">  1        4 0.10727152E+00 0.12500047E+03</pdfrwt>
<pdfrwt beam="1">  1       -4 0.86189059E-03 0.12500047E+03</pdfrwt>
<totfact> 0.42935330E+03</totfact>
</mgrwt>
</event>
<event>
 5    1  0.3316206E-002  0.1250023E+03  0.7818608E-02  0.1235066E+00
         -4   -1    0    0    0  501 -0.00000000000E+00  0.00000000000E+00  0.91581250816E+02  0.91590056234E+02  0.12700000000E+01 0.  1.
          4   -1    0    0  501    0  0.00000000000E+00 -0.00000000000E+00 -0.42634647987E+02  0.42653559160E+02  0.12700000000E+01 0.  1.
         25    2    1    2    0    0  0.00000000000E+00  0.00000000000E+00  0.48946602829E+02  0.13424361539E+03  0.12500231336E+03 0.  0.
    9000005    1    3    3    0    0  0.45167332270E+01 -0.62153749893E+02  0.19447005810E+02  0.65289168626E+02  0.10000000000E+01 0.  0.
    9000005    1    3    3    0    0 -0.45167332270E+01  0.62153749893E+02  0.29499597019E+02  0.68954446768E+02  0.10000000000E+01 0.  0.
<mgrwt>
<rscale>  0 0.12500231E+03</rscale>
<asrwt>0</asrwt>
<pdfrwt beam="2">  1        4 0.65613087E-02 0.12500231E+03</pdfrwt>
<pdfrwt beam="1">  1       -4 0.14091555E-01 0.12500231E+03</pdfrwt>
<totfact> 0.10253503E+04</totfact>
</mgrwt>
</event>
<event>
 5    1  0.3316206E-002  0.1250015E+03  0.7818608E-02  0.1235067E+00
          4   -1    0    0  501    0  0.00000000000E+00  0.00000000000E+00  0.10706627165E+03  0.10707380364E+03  0.12700000000E+01 0.  1.
         -4   -1    0    0    0  501 -0.00000000000E+00 -0.00000000000E+00 -0.36465389860E+02  0.36487498649E+02  0.12700000000E+01 0.  1.
         25    2    1    2    0    0  0.00000000000E+00  0.00000000000E+00  0.70600881792E+02  0.14356130229E+03  0.12500145201E+03 0.  0.
    9000005    1    3    3    0    0  0.21610041249E+01  0.27727031499E+02 -0.28972040037E+02  0.40172594122E+02  0.10000000000E+01 0.  0.
    9000005    1    3    3    0    0 -0.21610041249E+01 -0.27727031499E+02  0.99572921829E+02  0.10338870817E+03  0.10000000000E+01 0.  0.
<mgrwt>
<rscale>  0 0.12500145E+03</rscale>
<asrwt>0</asrwt>
<pdfrwt beam="1">  1        4 0.16474014E-01 0.12500145E+03</pdfrwt>
<pdfrwt beam="2">  1       -4 0.56123401E-02 0.12500145E+03</pdfrwt>
<totfact> 0.10059973E+04</totfact>
</mgrwt>
</event>
<event>
 5    1  0.3316206E-002  0.1250077E+03  0.7818608E-02  0.1235057E+00
         -4   -1    0    0    0  501 -0.00000000000E+00  0.00000000000E+00  0.39650781545E+02  0.39671115149E+02  0.12700000000E+01 0. -1.
          4   -1    0    0  501    0  0.00000000000E+00 -0.00000000000E+00 -0.98478832388E+02  0.98487021117E+02  0.12700000000E+01 0. -1.
         25    2    1    2    0    0  0.00000000000E+00  0.00000000000E+00 -0.58828050843E+02  0.13815813627E+03  0.12500772396E+03 0.  0.
    9000005    1    3    3    0    0  0.56279950141E+02  0.24276154859E+02 -0.15924815298E+02  0.63335331568E+02  0.10000000000E+01 0.  0.
    9000005    1    3    3    0    0 -0.56279950141E+02 -0.24276154859E+02 -0.42903235545E+02  0.74822804698E+02  0.10000000000E+01 0.  0.
<mgrwt>
<rscale>  0 0.12500772E+03</rscale>
<asrwt>0</asrwt>
<pdfrwt beam="2">  1        4 0.15152784E-01 0.12500772E+03</pdfrwt>
<pdfrwt beam="1">  1       -4 0.61023143E-02 0.12500772E+03</pdfrwt>
<totfact> 0.10170133E+04</totfact>
</mgrwt>
</event>
<event>
 5    1  0.3316206E-002  0.1250009E+03  0.7818608E-02  0.1235068E+00
         -4   -1    0    0    0  501 -0.00000000000E+00  0.00000000000E+00  0.73068321886E+01  0.74163802918E+01  0.12700000000E+01 0.  1.
          4   -1    0    0  501    0  0.00000000000E+00 -0.00000000000E+00 -0.53052242858E+03  0.53052394869E+03  0.12700000000E+01 0.  1.
         25    2    1    2    0    0  0.00000000000E+00  0.00000000000E+00 -0.52321559640E+03  0.53794032898E+03  0.12500094892E+03 0.  0.
    9000005    1    3    3    0    0 -0.17313799219E+02  0.55848047394E+02 -0.35653241437E+03  0.36129646350E+03  0.10000000000E+01 0.  0.
    9000005    1    3    3    0    0  0.17313799219E+02 -0.55848047394E+02 -0.16668318202E+03  0.17664386548E+03  0.10000000000E+01 0.  0.
<mgrwt>
<rscale>  0 0.12500095E+03</rscale>
<asrwt>0</asrwt>
<pdfrwt beam="2">  1        4 0.81627349E-01 0.12500095E+03</pdfrwt>
<pdfrwt beam="1">  1       -4 0.11326722E-02 0.12500095E+03</pdfrwt>
<totfact> 0.53035225E+03</totfact>
</mgrwt>
</event>
<event>
 5    1  0.3316206E-002  0.1250038E+03  0.7818608E-02  0.1235063E+00
         -4   -1    0    0    0  501 -0.00000000000E+00  0.00000000000E+00  0.15851923158E+04  0.15851928246E+04  0.12700000000E+01 0. -1.
          4   -1    0    0  501    0  0.00000000000E+00 -0.00000000000E+00 -0.23001982916E+01  0.26275106433E+01  0.12700000000E+01 0. -1.
         25    2    1    2    0    0  0.00000000000E+00  0.00000000000E+00  0.15828921175E+04  0.15878203352E+04  0.12500384454E+03 0.  0.
    9000005    1    3    3    0    0 -0.56557050110E+02  0.10429492342E+02  0.48082248421E+03  0.48425069494E+03  0.10000000000E+01 0.  0.
    9000005    1    3    3    0    0  0.56557050110E+02 -0.10429492342E+02  0.11020696333E+04  0.11035696403E+04  0.10000000000E+01 0.  0.
<mgrwt>
<rscale>  0 0.12500384E+03</rscale>
<asrwt>0</asrwt>
<pdfrwt beam="2">  1        4 0.37909406E-03 0.12500384E+03</pdfrwt>
<pdfrwt beam="1">  1       -4 0.24390071E+00 0.12500384E+03</pdfrwt>
<totfact> 0.16265860E+03</totfact>
</mgrwt>
</event>
<event>
 5    1  0.3316206E-002  0.1249990E+03  0.7818608E-02  0.1235071E+00
          4   -1    0    0  501    0  0.00000000000E+00  0.00000000000E+00  0.97461037092E+03  0.97461119838E+03  0.12700000000E+01 0. -1.
         -4   -1    0    0    0  501 -0.00000000000E+00 -0.00000000000E+00 -0.39064914065E+01  0.41077457455E+01  0.12700000000E+01 0. -1.
         25    2    1    2    0    0  0.00000000000E+00  0.00000000000E+00  0.97070387951E+03  0.97871894412E+03  0.12499899953E+03 0.  0.
    9000005    1    3    3    0    0 -0.57538618757E+02  0.24130525264E+02  0.51271439392E+03  0.51649784572E+03  0.10000000000E+01 0.  0.
    9000005    1    3    3    0    0  0.57538618757E+02 -0.24130525264E+02  0.45798948559E+03  0.46222109840E+03  0.10000000000E+01 0.  0.
<mgrwt>
<rscale>  0 0.12499900E+03</rscale>
<asrwt>0</asrwt>
<pdfrwt beam="1">  1        4 0.14995562E+00 0.12499900E+03</pdfrwt>
<pdfrwt beam="2">  1       -4 0.61654336E-03 0.12499900E+03</pdfrwt>
<totfact> 0.31318452E+03</totfact>
</mgrwt>
</event>
<event>
 5    1  0.3316206E-002  0.1250019E+03  0.7818608E-02  0.1235066E+00
          4   -1    0    0  501    0  0.00000000000E+00  0.00000000000E+00  0.47372729194E+03  0.47372899429E+03  0.12700000000E+01 0.  1.
         -4   -1    0    0    0  501 -0.00000000000E+00 -0.00000000000E+00 -0.81954049894E+01  0.82932239172E+01  0.12700000000E+01 0.  1.
         25    2    1    2    0    0  0.00000000000E+00  0.00000000000E+00  0.46553188695E+03  0.48202221821E+03  0.12500192429E+03 0.  0.
    9000005    1    3    3    0    0 -0.58716034902E+02  0.13722051825E+02  0.16946181916E+03  0.17987266500E+03  0.10000000000E+01 0.  0.
    9000005    1    3    3    0    0  0.58716034902E+02 -0.13722051825E+02  0.29607006779E+03  0.30214955321E+03  0.10000000000E+01 0.  0.
<mgrwt>
<rscale>  0 0.12500192E+03</rscale>
<asrwt>0</asrwt>
<pdfrwt beam="1">  1        4 0.72888770E-01 0.12500192E+03</pdfrwt>
<pdfrwt beam="2">  1       -4 0.12684871E-02 0.12500192E+03</pdfrwt>
<totfact> 0.57284285E+03</totfact>
</mgrwt>
</event>
<event>
 5    1  0.3316206E-002  0.1249917E+03  0.7818608E-02  0.1235082E+00
          4   -1    0    0  501    0  0.00000000000E+00  0.00000000000E+00  0.15717213922E+02  0.15768440426E+02  0.12700000000E+01 0.  1.
         -4   -1    0    0    0  501 -0.00000000000E+00 -0.00000000000E+00 -0.24804325576E+03  0.24804650699E+03  0.12700000000E+01 0.  1.
         25    2    1    2    0    0  0.00000000000E+00  0.00000000000E+00 -0.23232604184E+03  0.26381494741E+03  0.12499174678E+03 0.  0.
    9000005    1    3    3    0    0  0.38107398950E+02  0.49179162444E+02 -0.12846479824E+03  0.14274091306E+03  0.10000000000E+01 0.  0.
    9000005    1    3    3    0    0 -0.38107398950E+02 -0.49179162444E+02 -0.10386124360E+03  0.12107403435E+03  0.10000000000E+01 0.  0.
<mgrwt>
<rscale>  0 0.12499175E+03</rscale>
<asrwt>0</asrwt>
<pdfrwt beam="1">  1        4 0.24222237E-02 0.12499175E+03</pdfrwt>
<pdfrwt beam="2">  1       -4 0.38164688E-01 0.12499175E+03</pdfrwt>
<totfact> 0.80388415E+03</totfact>
</mgrwt>
</event>
<event>
 5    1  0.3316206E-002  0.1249959E+03  0.7818608E-02  0.1235076E+00
          4   -1    0    0  501    0  0.00000000000E+00  0.00000000000E+00  0.19512436105E+02  0.19553722478E+02  0.12700000000E+01 0. -1.
         -4   -1    0    0    0  501 -0.00000000000E+00 -0.00000000000E+00 -0.19992480551E+03  0.19992883924E+03  0.12700000000E+01 0. -1.
         25    2    1    2    0    0  0.00000000000E+00  0.00000000000E+00 -0.18041236941E+03  0.21948256172E+03  0.12499588738E+03 0.  0.
    9000005    1    3    3    0    0 -0.10100512265E+02  0.58212438401E+02 -0.54466253798E+02  0.80363431581E+02  0.10000000000E+01 0.  0.
    9000005    1    3    3    0    0  0.10100512265E+02 -0.58212438401E+02 -0.12594611561E+03  0.13911913013E+03  0.10000000000E+01 0.  0.
<mgrwt>
<rscale>  0 0.12499589E+03</rscale>
<asrwt>0</asrwt>
<pdfrwt beam="1">  1        4 0.30053996E-02 0.12499589E+03</pdfrwt>
<pdfrwt beam="2">  1       -4 0.30761147E-01 0.12499589E+03</pdfrwt>
<totfact> 0.86958283E+03</totfact>
</mgrwt>
</event>
<event>
 5    1  0.3316206E-002  0.1249989E+03  0.7818608E-02  0.1235071E+00
          4   -1    0    0  501    0  0.00000000000E+00  0.00000000000E+00  0.32188633719E+02  0.32213677851E+02  0.12700000000E+01 0. -1.
         -4   -1    0    0    0  501 -0.00000000000E+00 -0.00000000000E+00 -0.12127722326E+03  0.12128387272E+03  0.12700000000E+01 0. -1.
         25    2    1    2    0    0  0.00000000000E+00  0.00000000000E+00 -0.89088589540E+02  0.15349755057E+03  0.12499888497E+03 0.  0.
    9000005    1    3    3    0    0 -0.10492029163E+02 -0.60483735906E+02 -0.30180715172E+02  0.68412283644E+02  0.10000000000E+01 0.  0.
    9000005    1    3    3    0    0  0.10492029163E+02  0.60483735906E+02 -0.58907874368E+02  0.85085266925E+02  0.10000000000E+01 0.  0.
<mgrwt>
<rscale>  0 0.12499888E+03</rscale>
<asrwt>0</asrwt>
<pdfrwt beam="1">  1        4 0.49545355E-02 0.12499888E+03</pdfrwt>
<pdfrwt beam="2">  1       -4 0.18660472E-01 0.12499888E+03</pdfrwt>
<totfact> 0.98613501E+03</totfact>
</mgrwt>
</event>
<event>
 5    1  0.3316206E-002  0.1249978E+03  0.7818608E-02  0.1235073E+00
         -4   -1    0    0    0  501 -0.00000000000E+00  0.00000000000E+00  0.15139882389E+02  0.15193055609E+02  0.12700000000E+01 0.  1.
          4   -1    0    0  501    0  0.00000000000E+00 -0.00000000000E+00 -0.25749441146E+03  0.25749754336E+03  0.12700000000E+01 0.  1.
         25    2    1    2    0    0  0.00000000000E+00  0.00000000000E+00 -0.24235452908E+03  0.27269059897E+03  0.12499777999E+03 0.  0.
    9000005    1    3    3    0    0  0.58532072731E+02 -0.11944078788E+02 -0.81161971774E+02  0.10078159663E+03  0.10000000000E+01 0.  0.
    9000005    1    3    3    0    0 -0.58532072731E+02  0.11944078788E+02 -0.16119255730E+03  0.17190900234E+03  0.10000000000E+01 0.  0.
<mgrwt>
<rscale>  0 0.12499778E+03</rscale>
<asrwt>0</asrwt>
<pdfrwt beam="2">  1        4 0.39618853E-01 0.12499778E+03</pdfrwt>
<pdfrwt beam="1">  1       -4 0.23335440E-02 0.12499778E+03</pdfrwt>
<totfact> 0.79161279E+03</totfact>
</mgrwt>
</event>
<event>
 5    1  0.3316206E-002  0.1250017E+03  0.7818608E-02  0.1235067E+00
         -4   -1    0    0    0  501 -0.00000000000E+00  0.00000000000E+00  0.13657974235E+02  0.13716893241E+02  0.12700000000E+01 0. -1.
          4   -1    0    0  501    0  0.00000000000E+00 -0.00000000000E+00 -0.28533678124E+03  0.28533960753E+03  0.12700000000E+01 0. -1.
         25    2    1    2    0    0  0.00000000000E+00  0.00000000000E+00 -0.27167880700E+03  0.29905650077E+03  0.12500166591E+03 0.  0.
    9000005    1    3    3    0    0  0.50720162502E+02  0.32679687845E+02 -0.96904117461E+02  0.11415736885E+03  0.10000000000E+01 0.  0.
    9000005    1    3    3    0    0 -0.50720162502E+02 -0.32679687845E+02 -0.17477468954E+03  0.18489913192E+03  0.10000000000E+01 0.  0.
<mgrwt>
<rscale>  0 0.12500167E+03</rscale>
<asrwt>0</asrwt>
<pdfrwt beam="2">  1        4 0.43902711E-01 0.12500167E+03</pdfrwt>
<pdfrwt beam="1">  1       -4 0.21059767E-02 0.12500167E+03</pdfrwt>
<totfact> 0.75714544E+03</totfact>
</mgrwt>
</event>
<event>
 5    1  0.3316206E-002  0.1249991E+03  0.7818608E-02  0.1235071E+00
          4   -1    0    0  501    0  0.00000000000E+00  0.00000000000E+00  0.11090978245E+04  0.11090985516E+04  0.12700000000E+01 0. -1.
         -4   -1    0    0    0  501 -0.00000000000E+00 -0.00000000000E+00 -0.34067133452E+01  0.36357386892E+01  0.12700000000E+01 0. -1.
         25    2    1    2    0    0  0.00000000000E+00  0.00000000000E+00  0.11056911112E+04  0.11127342903E+04  0.12499907019E+03 0.  0.
    9000005    1    3    3    0    0 -0.56890000604E+02  0.13384644433E+02  0.74981213207E+03  0.75208699914E+03  0.10000000000E+01 0.  0.
    9000005    1    3    3    0    0  0.56890000604E+02 -0.13384644433E+02  0.35587897908E+03  0.36064729117E+03  0.10000000000E+01 0.  0.
<mgrwt>
<rscale>  0 0.12499907E+03</rscale>
<asrwt>0</asrwt>
<pdfrwt beam="1">  1        4 0.17064813E+00 0.12499907E+03</pdfrwt>
<pdfrwt beam="2">  1       -4 0.54178294E-03 0.12499907E+03</pdfrwt>
<totfact> 0.27114204E+03</totfact>
</mgrwt>
</event>
<event>
 5    1  0.3316206E-002  0.1249926E+03  0.7818608E-02  0.1235081E+00
         -4   -1    0    0    0  501 -0.00000000000E+00  0.00000000000E+00  0.15334843816E+02  0.15387343333E+02  0.12700000000E+01 0.  1.
          4   -1    0    0  501    0  0.00000000000E+00 -0.00000000000E+00 -0.25421098924E+03  0.25421416159E+03  0.12700000000E+01 0.  1.
         25    2    1    2    0    0  0.00000000000E+00  0.00000000000E+00 -0.23887614543E+03  0.26960150492E+03  0.12499263419E+03 0.  0.
    9000005    1    3    3    0    0 -0.54742543668E+02 -0.13862710124E+02 -0.17714854363E+03  0.18593420161E+03  0.10000000000E+01 0.  0.
    9000005    1    3    3    0    0  0.54742543668E+02  0.13862710124E+02 -0.61727601798E+02  0.83667303309E+02  0.10000000000E+01 0.  0.
<mgrwt>
<rscale>  0 0.12499263E+03</rscale>
<asrwt>0</asrwt>
<pdfrwt beam="2">  1        4 0.39113662E-01 0.12499263E+03</pdfrwt>
<pdfrwt beam="1">  1       -4 0.23634894E-02 0.12499263E+03</pdfrwt>
<totfact> 0.79590268E+03</totfact>
</mgrwt>
</event>
<event>
 5    1  0.3316206E-002  0.1249991E+03  0.7818608E-02  0.1235071E+00
         -4   -1    0    0    0  501 -0.00000000000E+00  0.00000000000E+00  0.85513401026E+01  0.86451325930E+01  0.12700000000E+01 0. -1.
          4   -1    0    0  501    0  0.00000000000E+00 -0.00000000000E+00 -0.45420710048E+03  0.45420887599E+03  0.12700000000E+01 0. -1.
         25    2    1    2    0    0  0.00000000000E+00  0.00000000000E+00 -0.44565576038E+03  0.46285400858E+03  0.12499910601E+03 0.  0.
    9000005    1    3    3    0    0 -0.58570997717E+02  0.21076522745E+02 -0.20240751637E+03  0.21176539912E+03  0.10000000000E+01 0.  0.
    9000005    1    3    3    0    0  0.58570997717E+02 -0.21076522745E+02 -0.24324824402E+03  0.25108860946E+03  0.10000000000E+01 0.  0.
<mgrwt>
<rscale>  0 0.12499911E+03</rscale>
<asrwt>0</asrwt>
<pdfrwt beam="2">  1        4 0.69885348E-01 0.12499911E+03</pdfrwt>
<pdfrwt beam="1">  1       -4 0.13229425E-02 0.12499911E+03</pdfrwt>
<totfact> 0.58867373E+03</totfact>
</mgrwt>
</event>
<event>
 5    1  0.3316206E-002  0.1249999E+03  0.7818608E-02  0.1235069E+00
          4   -1    0    0  501    0  0.00000000000E+00  0.00000000000E+00  0.13429491627E+02  0.13489408636E+02  0.12700000000E+01 0.  1.
         -4   -1    0    0    0  501 -0.00000000000E+00 -0.00000000000E+00 -0.29016171180E+03  0.29016449110E+03  0.12700000000E+01 0.  1.
         25    2    1    2    0    0  0.00000000000E+00  0.00000000000E+00 -0.27673222018E+03  0.30365389974E+03  0.12499987657E+03 0.  0.
    9000005    1    3    3    0    0  0.77887792345E+01 -0.25126863103E+02 -0.66438806893E+00  0.26333737731E+02  0.10000000000E+01 0.  0.
    9000005    1    3    3    0    0 -0.77887792345E+01  0.25126863103E+02 -0.27606783211E+03  0.27732016201E+03  0.10000000000E+01 0.  0.
<mgrwt>
<rscale>  0 0.12499988E+03</rscale>
<asrwt>0</asrwt>
<pdfrwt beam="1">  1        4 0.20708986E-02 0.12499988E+03</pdfrwt>
<pdfrwt beam="2">  1       -4 0.44645081E-01 0.12499988E+03</pdfrwt>
<totfact> 0.75142982E+03</totfact>
</mgrwt>
</event>
<event>
 5    1  0.3316206E-002  0.1249649E+03  0.7818608E-02  0.1235124E+00
         -4   -1    0    0    0  501 -0.00000000000E+00  0.00000000000E+00  0.20143061120E+04  0.20143065123E+04  0.12700000000E+01 0.  1.
          4   -1    0    0  501    0  0.00000000000E+00 -0.00000000000E+00 -0.17296763230E+01  0.21458518547E+01  0.12700000000E+01 0.  1.
         25    2    1    2    0    0  0.00000000000E+00  0.00000000000E+00  0.20125764357E+04  0.20164523642E+04  0.12496490591E+03 0.  0.
    9000005    1    3    3    0    0 -0.24821937624E+02 -0.49779270947E+02  0.14652340365E+04  0.14662898371E+04  0.10000000000E+01 0.  0.
    9000005    1    3    3    0    0  0.24821937624E+02  0.49779270947E+02  0.54734239911E+03  0.55016252714E+03  0.10000000000E+01 0.  0.
<mgrwt>
<rscale>  0 0.12496491E+03</rscale>
<asrwt>0</asrwt>
<pdfrwt beam="2">  1        4 0.29814803E-03 0.12496491E+03</pdfrwt>
<pdfrwt beam="1">  1       -4 0.30992562E+00 0.12496491E+03</pdfrwt>
<totfact> 0.96553987E+02</totfact>
</mgrwt>
</event>
<event>
 5    1  0.3316206E-002  0.1250002E+03  0.7818608E-02  0.1235069E+00
         -4   -1    0    0    0  501 -0.00000000000E+00  0.00000000000E+00  0.13581527065E+03  0.13582120836E+03  0.12700000000E+01 0. -1.
          4   -1    0    0  501    0  0.00000000000E+00 -0.00000000000E+00 -0.28740996520E+02  0.28769042058E+02  0.12700000000E+01 0. -1.
         25    2    1    2    0    0  0.00000000000E+00  0.00000000000E+00  0.10707427413E+03  0.16459025042E+03  0.12500020141E+03 0.  0.
    9000005    1    3    3    0    0 -0.30079512659E+02 -0.44104723710E+02  0.96310450616E+02  0.11012132688E+03  0.10000000000E+01 0.  0.
    9000005    1    3    3    0    0  0.30079512659E+02  0.44104723710E+02  0.10763823511E+02  0.54468923543E+02  0.10000000000E+01 0.  0.
<mgrwt>
<rscale>  0 0.12500020E+03</rscale>
<asrwt>0</asrwt>
<pdfrwt beam="2">  1        4 0.44243059E-02 0.12500020E+03</pdfrwt>
<pdfrwt beam="1">  1       -4 0.20897271E-01 0.12500020E+03</pdfrwt>
<totfact> 0.96464612E+03</totfact>
</mgrwt>
</event>
<event>
 5    1  0.3316206E-002  0.1249998E+03  0.7818608E-02  0.1235070E+00
         -4   -1    0    0    0  501 -0.00000000000E+00  0.00000000000E+00  0.38069182274E+01  0.40131691205E+01  0.12700000000E+01 0.  1.
          4   -1    0    0  501    0  0.00000000000E+00 -0.00000000000E+00 -0.99881936579E+03  0.99882017319E+03  0.12700000000E+01 0.  1.
         25    2    1    2    0    0  0.00000000000E+00  0.00000000000E+00 -0.99501244756E+03  0.10028333423E+04  0.12499976660E+03 0.  0.
    9000005    1    3    3    0    0 -0.14648059958E+02 -0.60170042796E+02 -0.56474170645E+03  0.56812779787E+03  0.10000000000E+01 0.  0.
    9000005    1    3    3    0    0  0.14648059958E+02  0.60170042796E+02 -0.43027074111E+03  0.43470554444E+03  0.10000000000E+01 0.  0.
<mgrwt>
<rscale>  0 0.12499977E+03</rscale>
<asrwt>0</asrwt>
<pdfrwt beam="2">  1        4 0.15368024E+00 0.12499977E+03</pdfrwt>
<pdfrwt beam="1">  1       -4 0.60160809E-03 0.12499977E+03</pdfrwt>
<totfact> 0.30511312E+03</totfact>
</mgrwt>
</event>
<event>
 5    1  0.3316206E-002  0.1249984E+03  0.7818608E-02  0.1235072E+00
         -4   -1    0    0    0  501 -0.00000000000E+00  0.00000000000E+00  0.13997090567E+02  0.14054588018E+02  0.12700000000E+01 0. -1.
          4   -1    0    0  501    0  0.00000000000E+00 -0.00000000000E+00 -0.27843793751E+03  0.27844083383E+03  0.12700000000E+01 0. -1.
         25    2    1    2    0    0  0.00000000000E+00  0.00000000000E+00 -0.26444084694E+03  0.29249542185E+03  0.12499844108E+03 0.  0.
    9000005    1    3    3    0    0 -0.37788176042E+02  0.28071911692E+02 -0.22839309543E+03  0.23319602165E+03  0.10000000000E+01 0.  0.
    9000005    1    3    3    0    0  0.37788176042E+02 -0.28071911692E+02 -0.36047751512E+02  0.59299400196E+02  0.10000000000E+01 0.  0.
<mgrwt>
<rscale>  0 0.12499844E+03</rscale>
<asrwt>0</asrwt>
<pdfrwt beam="2">  1        4 0.42841247E-01 0.12499844E+03</pdfrwt>
<pdfrwt beam="1">  1       -4 0.21580444E-02 0.12499844E+03</pdfrwt>
<totfact> 0.76552598E+03</totfact>
</mgrwt>
</event>
<event>
 5    1  0.3316206E-002  0.1249981E+03  0.7818608E-02  0.1235072E+00
          4   -1    0    0  501    0  0.00000000000E+00  0.00000000000E+00  0.30803349864E+03  0.30803611669E+03  0.12700000000E+01 0. -1.
         -4   -1    0    0    0  501 -0.00000000000E+00 -0.00000000000E+00 -0.12646379081E+02  0.12709988351E+02  0.12700000000E+01 0. -1.
         25    2    1    2    0    0  0.00000000000E+00  0.00000000000E+00  0.29538711956E+03  0.32074610504E+03  0.12499805397E+03 0.  0.
    9000005    1    3    3    0    0 -0.47373015529E+02  0.93686450027E+01  0.24946918886E+03  0.25410204702E+03  0.10000000000E+01 0.  0.
    9000005    1    3    3    0    0  0.47373015529E+02 -0.93686450027E+01  0.45917930697E+02  0.66644058017E+02  0.10000000000E+01 0.  0.
<mgrwt>
<rscale>  0 0.12499805E+03</rscale>
<asrwt>0</asrwt>
<pdfrwt beam="1">  1        4 0.47394862E-01 0.12499805E+03</pdfrwt>
<pdfrwt beam="2">  1       -4 0.19506912E-02 0.12499805E+03</pdfrwt>
<totfact> 0.73070624E+03</totfact>
</mgrwt>
</event>
<event>
 5    1  0.3316206E-002  0.1249977E+03  0.7818608E-02  0.1235073E+00
         -4   -1    0    0    0  501 -0.00000000000E+00  0.00000000000E+00  0.82396799596E+03  0.82396897470E+03  0.12700000000E+01 0. -1.
          4   -1    0    0  501    0  0.00000000000E+00 -0.00000000000E+00 -0.46545504189E+01  0.48247009858E+01  0.12700000000E+01 0. -1.
         25    2    1    2    0    0  0.00000000000E+00  0.00000000000E+00  0.81931344554E+03  0.82879367568E+03  0.12499773922E+03 0.  0.
    9000005    1    3    3    0    0 -0.22593729430E+02 -0.49314468136E+02  0.61538463223E+03  0.61777151032E+03  0.10000000000E+01 0.  0.
    9000005    1    3    3    0    0  0.22593729430E+02  0.49314468136E+02  0.20392881331E+03  0.21102216536E+03  0.10000000000E+01 0.  0.
<mgrwt>
<rscale>  0 0.12499774E+03</rscale>
<asrwt>0</asrwt>
<pdfrwt beam="2">  1        4 0.72924776E-03 0.12499774E+03</pdfrwt>
<pdfrwt beam="1">  1       -4 0.12677759E+00 0.12499774E+03</pdfrwt>
<totfact> 0.37012949E+03</totfact>
</mgrwt>
</event>
<event>
 5    1  0.3316206E-002  0.1249896E+03  0.7818608E-02  0.1235086E+00
         -4   -1    0    0    0  501 -0.00000000000E+00  0.00000000000E+00  0.15092025947E+03  0.15092560292E+03  0.12700000000E+01 0.  1.
          4   -1    0    0  501    0  0.00000000000E+00 -0.00000000000E+00 -0.25857177277E+02  0.25888347123E+02  0.12700000000E+01 0.  1.
         25    2    1    2    0    0  0.00000000000E+00  0.00000000000E+00  0.12506308219E+03  0.17681395004E+03  0.12498959318E+03 0.  0.
    9000005    1    3    3    0    0  0.33981065943E+02  0.31740636412E+02  0.34816717634E+01  0.46640142374E+02  0.10000000000E+01 0.  0.
    9000005    1    3    3    0    0 -0.33981065943E+02 -0.31740636412E+02  0.12158141043E+03  0.13017380767E+03  0.10000000000E+01 0.  0.
<mgrwt>
<rscale>  0 0.12498959E+03</rscale>
<asrwt>0</asrwt>
<pdfrwt beam="2">  1        4 0.39808359E-02 0.12498959E+03</pdfrwt>
<pdfrwt beam="1">  1       -4 0.23221310E-01 0.12498959E+03</pdfrwt>
<totfact> 0.94215656E+03</totfact>
</mgrwt>
</event>
<event>
 5    1  0.3316206E-002  0.1249858E+03  0.7818608E-02  0.1235092E+00
         -4   -1    0    0    0  501 -0.00000000000E+00  0.00000000000E+00  0.88376960308E+01  0.89284808972E+01  0.12700000000E+01 0.  1.
          4   -1    0    0  501    0  0.00000000000E+00 -0.00000000000E+00 -0.43954814907E+03  0.43954998379E+03  0.12700000000E+01 0.  1.
         25    2    1    2    0    0  0.00000000000E+00  0.00000000000E+00 -0.43071045304E+03  0.44847846469E+03  0.12498575492E+03 0.  0.
    9000005    1    3    3    0    0  0.12075032356E+02 -0.36937502443E+02 -0.39781732148E+02  0.55621683774E+02  0.10000000000E+01 0.  0.
    9000005    1    3    3    0    0 -0.12075032356E+02  0.36937502443E+02 -0.39092872089E+03  0.39285678092E+03  0.10000000000E+01 0.  0.
<mgrwt>
<rscale>  0 0.12498575E+03</rscale>
<asrwt>0</asrwt>
<pdfrwt beam="2">  1        4 0.67629900E-01 0.12498575E+03</pdfrwt>
<pdfrwt beam="1">  1       -4 0.13667705E-02 0.12498575E+03</pdfrwt>
<totfact> 0.60114701E+03</totfact>
</mgrwt>
</event>
<event>
 5    1  0.3316206E-002  0.1249903E+03  0.7818608E-02  0.1235084E+00
          4   -1    0    0  501    0  0.00000000000E+00  0.00000000000E+00  0.81641588870E+01  0.82623477494E+01  0.12700000000E+01 0. -1.
         -4   -1    0    0    0  501 -0.00000000000E+00 -0.00000000000E+00 -0.47543032534E+03  0.47543202158E+03  0.12700000000E+01 0. -1.
         25    2    1    2    0    0  0.00000000000E+00  0.00000000000E+00 -0.46726616645E+03  0.48369436933E+03  0.12499029010E+03 0.  0.
    9000005    1    3    3    0    0  0.30251205566E+02  0.45435915139E+02 -0.11593059248E+03  0.12814234310E+03  0.10000000000E+01 0.  0.
    9000005    1    3    3    0    0 -0.30251205566E+02 -0.45435915139E+02 -0.35133557397E+03  0.35555202624E+03  0.10000000000E+01 0.  0.
<mgrwt>
<rscale>  0 0.12499029E+03</rscale>
<asrwt>0</asrwt>
<pdfrwt beam="1">  1        4 0.12637083E-02 0.12499029E+03</pdfrwt>
<pdfrwt beam="2">  1       -4 0.73150789E-01 0.12499029E+03</pdfrwt>
<totfact> 0.57164275E+03</totfact>
</mgrwt>
</event>
<event>
 5    1  0.3316206E-002  0.1250021E+03  0.7818608E-02  0.1235066E+00
         -4   -1    0    0    0  501 -0.00000000000E+00  0.00000000000E+00  0.28784490215E+03  0.28784770382E+03  0.12700000000E+01 0. -1.
          4   -1    0    0  501    0  0.00000000000E+00 -0.00000000000E+00 -0.13538537857E+02  0.13597974382E+02  0.12700000000E+01 0. -1.
         25    2    1    2    0    0  0.00000000000E+00  0.00000000000E+00  0.27430636429E+03  0.30144567820E+03  0.12500206164E+03 0.  0.
    9000005    1    3    3    0    0 -0.24573845965E+02  0.49529910628E+02  0.20738999597E+03  0.21463619541E+03  0.10000000000E+01 0.  0.
    9000005    1    3    3    0    0  0.24573845965E+02 -0.49529910628E+02  0.66916368318E+02  0.86809482784E+02  0.10000000000E+01 0.  0.
<mgrwt>
<rscale>  0 0.12500206E+03</rscale>
<asrwt>0</asrwt>
<pdfrwt beam="2">  1        4 0.20876397E-02 0.12500206E+03</pdfrwt>
<pdfrwt beam="1">  1       -4 0.44288615E-01 0.12500206E+03</pdfrwt>
<totfact> 0.75414402E+03</totfact>
</mgrwt>
</event>
<event>
 5    1  0.3316206E-002  0.1249997E+03  0.7818608E-02  0.1235070E+00
          4   -1    0    0  501    0  0.00000000000E+00  0.00000000000E+00  0.55894701323E+03  0.55894845603E+03  0.12700000000E+01 0. -1.
         -4   -1    0    0    0  501 -0.00000000000E+00 -0.00000000000E+00 -0.69293973977E+01  0.70448171229E+01  0.12700000000E+01 0. -1.
         25    2    1    2    0    0  0.00000000000E+00  0.00000000000E+00  0.55201761583E+03  0.56599327316E+03  0.12499974826E+03 0.  0.
    9000005    1    3    3    0    0  0.51945666123E+02 -0.29878795726E+02  0.19575540125E+03  0.20472486850E+03  0.10000000000E+01 0.  0.
    9000005    1    3    3    0    0 -0.51945666123E+02  0.29878795726E+02  0.35626221459E+03  0.36126840466E+03  0.10000000000E+01 0.  0.
<mgrwt>
<rscale>  0 0.12499975E+03</rscale>
<asrwt>0</asrwt>
<pdfrwt beam="1">  1        4 0.86000838E-01 0.12499975E+03</pdfrwt>
<pdfrwt beam="2">  1       -4 0.10750506E-02 0.12499975E+03</pdfrwt>
<totfact> 0.51087349E+03</totfact>
</mgrwt>
</event>
<event>
 5    1  0.3316206E-002  0.1249984E+03  0.7818608E-02  0.1235072E+00
         -4   -1    0    0    0  501 -0.00000000000E+00  0.00000000000E+00  0.17104235766E+03  0.17104707251E+03  0.12700000000E+01 0. -1.
          4   -1    0    0  501    0  0.00000000000E+00 -0.00000000000E+00 -0.22814626375E+02  0.22849946972E+02  0.12700000000E+01 0. -1.
         25    2    1    2    0    0  0.00000000000E+00  0.00000000000E+00  0.14822773128E+03  0.19389701948E+03  0.12499837536E+03 0.  0.
    9000005    1    3    3    0    0  0.30377602996E+02  0.52870267478E+02  0.52896782208E+02  0.80728765102E+02  0.10000000000E+01 0.  0.
    9000005    1    3    3    0    0 -0.30377602996E+02 -0.52870267478E+02  0.95330949074E+02  0.11316825438E+03  0.10000000000E+01 0.  0.
<mgrwt>
<rscale>  0 0.12499838E+03</rscale>
<asrwt>0</asrwt>
<pdfrwt beam="2">  1        4 0.35130221E-02 0.12499838E+03</pdfrwt>
<pdfrwt beam="1">  1       -4 0.26317289E-01 0.12499838E+03</pdfrwt>
<totfact> 0.91176949E+03</totfact>
</mgrwt>
</event>
<event>
 5    1  0.3316206E-002  0.1250005E+03  0.7818608E-02  0.1235069E+00
          4   -1    0    0  501    0  0.00000000000E+00  0.00000000000E+00  0.45663425013E+02  0.45681082342E+02  0.12700000000E+01 0.  1.
         -4   -1    0    0    0  501 -0.00000000000E+00 -0.00000000000E+00 -0.85506132754E+02  0.85515563721E+02  0.12700000000E+01 0.  1.
         25    2    1    2    0    0  0.00000000000E+00  0.00000000000E+00 -0.39842707741E+02  0.13119664606E+03  0.12500047431E+03 0.  0.
    9000005    1    3    3    0    0 -0.61235917309E+02 -0.12425790545E+02 -0.18850070586E+02  0.65272988291E+02  0.10000000000E+01 0.  0.
    9000005    1    3    3    0    0  0.61235917309E+02  0.12425790545E+02 -0.20992637155E+02  0.65923657772E+02  0.10000000000E+01 0.  0.
<mgrwt>
<rscale>  0 0.12500047E+03</rscale>
<asrwt>0</asrwt>
<pdfrwt beam="1">  1        4 0.70272260E-02 0.12500047E+03</pdfrwt>
<pdfrwt beam="2">  1       -4 0.13156873E-01 0.12500047E+03</pdfrwt>
<totfact> 0.10318765E+04</totfact>
</mgrwt>
</event>
<event>
 5    1  0.3316206E-002  0.1250092E+03  0.7818608E-02  0.1235055E+00
          4   -1    0    0  501    0  0.00000000000E+00  0.00000000000E+00  0.14436217527E+03  0.14436776146E+03  0.12700000000E+01 0.  1.
         -4   -1    0    0    0  501 -0.00000000000E+00 -0.00000000000E+00 -0.27041635998E+02  0.27071442102E+02  0.12700000000E+01 0.  1.
         25    2    1    2    0    0  0.00000000000E+00  0.00000000000E+00  0.11732053928E+03  0.17143920356E+03  0.12500916600E+03 0.  0.
    9000005    1    3    3    0    0 -0.13824069461E+02 -0.58223608055E+02  0.83373477996E+02  0.10263152666E+03  0.10000000000E+01 0.  0.
    9000005    1    3    3    0    0  0.13824069461E+02  0.58223608055E+02  0.33947061279E+02  0.68807676904E+02  0.10000000000E+01 0.  0.
<mgrwt>
<rscale>  0 0.12500917E+03</rscale>
<asrwt>0</asrwt>
<pdfrwt beam="1">  1        4 0.22212288E-01 0.12500917E+03</pdfrwt>
<pdfrwt beam="2">  1       -4 0.41629741E-02 0.12500917E+03</pdfrwt>
<totfact> 0.95161490E+03</totfact>
</mgrwt>
</event>
<event>
 5    1  0.3316206E-002  0.1249905E+03  0.7818608E-02  0.1235084E+00
          4   -1    0    0  501    0  0.00000000000E+00  0.00000000000E+00  0.85141992667E+03  0.85142087385E+03  0.12700000000E+01 0.  1.
         -4   -1    0    0    0  501 -0.00000000000E+00 -0.00000000000E+00 -0.44983568022E+01  0.46741966069E+01  0.12700000000E+01 0.  1.
         25    2    1    2    0    0  0.00000000000E+00  0.00000000000E+00  0.84692156987E+03  0.85609507046E+03  0.12499049626E+03 0.  0.
    9000005    1    3    3    0    0 -0.45000028350E+02 -0.33132009932E+00  0.12651906519E+03  0.13428769929E+03  0.10000000000E+01 0.  0.
    9000005    1    3    3    0    0  0.45000028350E+02  0.33132009932E+00  0.72040250468E+03  0.72180737117E+03  0.10000000000E+01 0.  0.
<mgrwt>
<rscale>  0 0.12499050E+03</rscale>
<asrwt>0</asrwt>
<pdfrwt beam="1">  1        4 0.13100138E+00 0.12499050E+03</pdfrwt>
<pdfrwt beam="2">  1       -4 0.70565334E-03 0.12499050E+03</pdfrwt>
<totfact> 0.35886616E+03</totfact>
</mgrwt>
</event>
<event>
 5    1  0.3316206E-002  0.1249993E+03  0.7818608E-02  0.1235070E+00
          4   -1    0    0  501    0  0.00000000000E+00  0.00000000000E+00  0.18434031149E+03  0.18434468623E+03  0.12700000000E+01 0.  1.
         -4   -1    0    0    0  501 -0.00000000000E+00 -0.00000000000E+00 -0.21166525388E+02  0.21204591413E+02  0.12700000000E+01 0.  1.
         25    2    1    2    0    0  0.00000000000E+00  0.00000000000E+00  0.16317378611E+03  0.20554927765E+03  0.12499928427E+03 0.  0.
    9000005    1    3    3    0    0  0.14373642417E+02  0.58521803721E+02  0.54376998204E+02  0.81174263414E+02  0.10000000000E+01 0.  0.
    9000005    1    3    3    0    0 -0.14373642417E+02 -0.58521803721E+02  0.10879678790E+03  0.12437501423E+03  0.10000000000E+01 0.  0.
<mgrwt>
<rscale>  0 0.12499928E+03</rscale>
<asrwt>0</asrwt>
<pdfrwt beam="1">  1        4 0.28363312E-01 0.12499928E+03</pdfrwt>
<pdfrwt beam="2">  1       -4 0.32596533E-02 0.12499928E+03</pdfrwt>
<totfact> 0.89209368E+03</totfact>
</mgrwt>
</event>
<event>
 5    1  0.3316206E-002  0.1250055E+03  0.7818608E-02  0.1235061E+00
         -4   -1    0    0    0  501 -0.00000000000E+00  0.00000000000E+00  0.91051800650E+02  0.91060657265E+02  0.12700000000E+01 0. -1.
          4   -1    0    0  501    0  0.00000000000E+00 -0.00000000000E+00 -0.42884815996E+02  0.42903616899E+02  0.12700000000E+01 0. -1.
         25    2    1    2    0    0  0.00000000000E+00  0.00000000000E+00  0.48166984653E+02  0.13396427416E+03  0.12500547325E+03 0.  0.
    9000005    1    3    3    0    0  0.60855117033E+02  0.96486493459E+01  0.35279742579E+02  0.71007759715E+02  0.10000000000E+01 0.  0.
    9000005    1    3    3    0    0 -0.60855117033E+02 -0.96486493459E+01  0.12887242074E+02  0.62956514449E+02  0.10000000000E+01 0.  0.
<mgrwt>
<rscale>  0 0.12500547E+03</rscale>
<asrwt>0</asrwt>
<pdfrwt beam="2">  1        4 0.65997917E-02 0.12500547E+03</pdfrwt>
<pdfrwt beam="1">  1       -4 0.14010096E-01 0.12500547E+03</pdfrwt>
<totfact> 0.10258681E+04</totfact>
</mgrwt>
</event>
<event>
 5    1  0.3316206E-002  0.1250050E+03  0.7818608E-02  0.1235061E+00
         -4   -1    0    0    0  501 -0.00000000000E+00  0.00000000000E+00  0.35093456174E+03  0.35093685974E+03  0.12700000000E+01 0.  1.
          4   -1    0    0  501    0  0.00000000000E+00 -0.00000000000E+00 -0.11093322391E+02  0.11165782626E+02  0.12700000000E+01 0.  1.
         25    2    1    2    0    0  0.00000000000E+00  0.00000000000E+00  0.33984123935E+03  0.36210264237E+03  0.12500502248E+03 0.  0.
    9000005    1    3    3    0    0 -0.47813973331E+02 -0.40191746824E+02  0.17572224488E+03  0.18649627316E+03  0.10000000000E+01 0.  0.
    9000005    1    3    3    0    0  0.47813973331E+02  0.40191746824E+02  0.16411899447E+03  0.17560636921E+03  0.10000000000E+01 0.  0.
<mgrwt>
<rscale>  0 0.12500502E+03</rscale>
<asrwt>0</asrwt>
<pdfrwt beam="2">  1        4 0.17124158E-02 0.12500502E+03</pdfrwt>
<pdfrwt beam="1">  1       -4 0.53995679E-01 0.12500502E+03</pdfrwt>
<totfact> 0.68405724E+03</totfact>
</mgrwt>
</event>
<event>
 5    1  0.3316206E-002  0.1249983E+03  0.7818608E-02  0.1235072E+00
          4   -1    0    0  501    0  0.00000000000E+00  0.00000000000E+00  0.78234272747E+01  0.79258383987E+01  0.12700000000E+01 0. -1.
         -4   -1    0    0    0  501 -0.00000000000E+00 -0.00000000000E+00 -0.49593848131E+03  0.49594010741E+03  0.12700000000E+01 0. -1.
         25    2    1    2    0    0  0.00000000000E+00  0.00000000000E+00 -0.48811505403E+03  0.50386594581E+03  0.12499834149E+03 0.  0.
    9000005    1    3    3    0    0 -0.37408246382E+01  0.47749775036E+02 -0.82259372669E+02  0.95192642451E+02  0.10000000000E+01 0.  0.
    9000005    1    3    3    0    0  0.37408246382E+01 -0.47749775036E+02 -0.40585568136E+03  0.40867330336E+03  0.10000000000E+01 0.  0.
<mgrwt>
<rscale>  0 0.12499834E+03</rscale>
<asrwt>0</asrwt>
<pdfrwt beam="1">  1        4 0.12116075E-02 0.12499834E+03</pdfrwt>
<pdfrwt beam="2">  1       -4 0.76306206E-01 0.12499834E+03</pdfrwt>
<totfact> 0.55567696E+03</totfact>
</mgrwt>
</event>
<event>
 5    1  0.3316206E-002  0.1250025E+03  0.7818608E-02  0.1235065E+00
          4   -1    0    0  501    0  0.00000000000E+00  0.00000000000E+00  0.47867088790E+01  0.49523208592E+01  0.12700000000E+01 0.  1.
         -4   -1    0    0    0  501 -0.00000000000E+00 -0.00000000000E+00 -0.80205107932E+03  0.80205208480E+03  0.12700000000E+01 0.  1.
         25    2    1    2    0    0  0.00000000000E+00  0.00000000000E+00 -0.79726437044E+03  0.80700440566E+03  0.12500253751E+03 0.  0.
    9000005    1    3    3    0    0 -0.34559122723E+00  0.39640637261E+02 -0.86743916485E+02  0.95378229188E+02  0.10000000000E+01 0.  0.
    9000005    1    3    3    0    0  0.34559122723E+00 -0.39640637261E+02 -0.71052045395E+03  0.71162617647E+03  0.10000000000E+01 0.  0.
<mgrwt>
<rscale>  0 0.12500254E+03</rscale>
<asrwt>0</asrwt>
<pdfrwt beam="1">  1        4 0.74923412E-03 0.12500254E+03</pdfrwt>
<pdfrwt beam="2">  1       -4 0.12340519E+00 0.12500254E+03</pdfrwt>
<totfact> 0.37951862E+03</totfact>
</mgrwt>
</event>
<event>
 5    1  0.3316206E-002  0.1249973E+03  0.7818608E-02  0.1235073E+00
          4   -1    0    0  501    0  0.00000000000E+00  0.00000000000E+00  0.71801149746E+02  0.71812380582E+02  0.12700000000E+01 0. -1.
         -4   -1    0    0    0  501 -0.00000000000E+00 -0.00000000000E+00 -0.54378517169E+02  0.54393345452E+02  0.12700000000E+01 0. -1.
         25    2    1    2    0    0  0.00000000000E+00  0.00000000000E+00  0.17422632578E+02  0.12620572603E+03  0.12499734860E+03 0.  0.
    9000005    1    3    3    0    0  0.29292023846E+02 -0.54641302579E+02  0.80041534172E+00  0.62010767397E+02  0.10000000000E+01 0.  0.
    9000005    1    3    3    0    0 -0.29292023846E+02  0.54641302579E+02  0.16622217236E+02  0.64194958636E+02  0.10000000000E+01 0.  0.
<mgrwt>
<rscale>  0 0.12499735E+03</rscale>
<asrwt>0</asrwt>
<pdfrwt beam="1">  1        4 0.11048335E-01 0.12499735E+03</pdfrwt>
<pdfrwt beam="2">  1       -4 0.83679303E-02 0.12499735E+03</pdfrwt>
<totfact> 0.10427078E+04</totfact>
</mgrwt>
</event>
<event>
 5    1  0.3316206E-002  0.1250011E+03  0.7818608E-02  0.1235067E+00
         -4   -1    0    0    0  501 -0.00000000000E+00  0.00000000000E+00  0.89970818880E+03  0.89970908514E+03  0.12700000000E+01 0.  1.
          4   -1    0    0  501    0  0.00000000000E+00 -0.00000000000E+00 -0.42479758508E+01  0.44337567399E+01  0.12700000000E+01 0.  1.
         25    2    1    2    0    0  0.00000000000E+00  0.00000000000E+00  0.89546021295E+03  0.90414284188E+03  0.12500114223E+03 0.  0.
    9000005    1    3    3    0    0  0.26450605296E+02 -0.50753975228E+02  0.62923866566E+03  0.63183692428E+03  0.10000000000E+01 0.  0.
    9000005    1    3    3    0    0 -0.26450605296E+02  0.50753975228E+02  0.26622154728E+03  0.27230591760E+03  0.10000000000E+01 0.  0.
<mgrwt>
<rscale>  0 0.12500114E+03</rscale>
<asrwt>0</asrwt>
<pdfrwt beam="2">  1        4 0.66789457E-03 0.12500114E+03</pdfrwt>
<pdfrwt beam="1">  1       -4 0.13843100E+00 0.12500114E+03</pdfrwt>
<totfact> 0.34000932E+03</totfact>
</mgrwt>
</event>
<event>
 5    1  0.3316206E-002  0.1249879E+03  0.7818608E-02  0.1235088E+00
          4   -1    0    0  501    0  0.00000000000E+00  0.00000000000E+00  0.14733975475E+02  0.14788608227E+02  0.12700000000E+01 0. -1.
         -4   -1    0    0    0  501 -0.00000000000E+00 -0.00000000000E+00 -0.26452054579E+03  0.26452359450E+03  0.12700000000E+01 0. -1.
         25    2    1    2    0    0  0.00000000000E+00  0.00000000000E+00 -0.24978657032E+03  0.27931220272E+03  0.12498790293E+03 0.  0.
    9000005    1    3    3    0    0 -0.40153735714E+02 -0.47049704076E+01 -0.18420606735E+02  0.44438474218E+02  0.10000000000E+01 0.  0.
    9000005    1    3    3    0    0  0.40153735714E+02  0.47049704076E+01 -0.23136596358E+03  0.23487372851E+03  0.10000000000E+01 0.  0.
<mgrwt>
<rscale>  0 0.12498790E+03</rscale>
<asrwt>0</asrwt>
<pdfrwt beam="1">  1        4 0.22712027E-02 0.12498790E+03</pdfrwt>
<pdfrwt beam="2">  1       -4 0.40699902E-01 0.12498790E+03</pdfrwt>
<totfact> 0.78290443E+03</totfact>
</mgrwt>
</event>
<event>
 5    1  0.3316206E-002  0.1249985E+03  0.7818608E-02  0.1235072E+00
         -4   -1    0    0    0  501 -0.00000000000E+00  0.00000000000E+00  0.43324496962E+03  0.43324683104E+03  0.12700000000E+01 0. -1.
          4   -1    0    0  501    0  0.00000000000E+00 -0.00000000000E+00 -0.89694313283E+01  0.90588960891E+01  0.12700000000E+01 0. -1.
         25    2    1    2    0    0  0.00000000000E+00  0.00000000000E+00  0.42427553829E+03  0.44230572713E+03  0.12499849540E+03 0.  0.
    9000005    1    3    3    0    0 -0.52297806446E+02 -0.19955754565E+02  0.11382997234E+03  0.12685249427E+03  0.10000000000E+01 0.  0.
    9000005    1    3    3    0    0  0.52297806446E+02  0.19955754565E+02  0.31044556595E+03  0.31545323286E+03  0.10000000000E+01 0.  0.
<mgrwt>
<rscale>  0 0.12499850E+03</rscale>
<asrwt>0</asrwt>
<pdfrwt beam="2">  1        4 0.13869380E-02 0.12499850E+03</pdfrwt>
<pdfrwt beam="1">  1       -4 0.66660079E-01 0.12499850E+03</pdfrwt>
<totfact> 0.60638192E+03</totfact>
</mgrwt>
</event>
<event>
 5    1  0.3316206E-002  0.1249982E+03  0.7818608E-02  0.1235072E+00
          4   -1    0    0  501    0  0.00000000000E+00  0.00000000000E+00  0.11575333404E+03  0.11576030080E+03  0.12700000000E+01 0. -1.
         -4   -1    0    0    0  501 -0.00000000000E+00 -0.00000000000E+00 -0.33725403804E+02  0.33749307575E+02  0.12700000000E+01 0. -1.
         25    2    1    2    0    0  0.00000000000E+00  0.00000000000E+00  0.82027930232E+02  0.14950960837E+03  0.12499816662E+03 0.  0.
    9000005    1    3    3    0    0  0.99898954447E+01  0.38183691254E+02 -0.16936076158E+02  0.42960714198E+02  0.10000000000E+01 0.  0.
    9000005    1    3    3    0    0 -0.99898954447E+01 -0.38183691254E+02  0.98964006390E+02  0.10654889417E+03  0.10000000000E+01 0.  0.
<mgrwt>
<rscale>  0 0.12499817E+03</rscale>
<asrwt>0</asrwt>
<pdfrwt beam="1">  1        4 0.17810580E-01 0.12499817E+03</pdfrwt>
<pdfrwt beam="2">  1       -4 0.51908983E-02 0.12499817E+03</pdfrwt>
<totfact> 0.99405641E+03</totfact>
</mgrwt>
</event>
<event>
 4    1  0.3316206E-002  0.1256990E+03  0.7818608E-02  0.1233981E+00
          4   -1    0    0  501    0  0.00000000000E+00  0.00000000000E+00  0.69927097879E+02  0.69938629653E+02  0.12700000000E+01 0.  1.
         -4   -1    0    0    0  501 -0.00000000000E+00 -0.00000000000E+00 -0.56464952819E+02  0.56479233324E+02  0.12700000000E+01 0.  1.
    9000005    1    1    2    0    0 -0.17515590568E+02  0.19578685023E+02  0.64144668665E+02  0.69322863028E+02  0.10000000000E+01 0.  0.
    9000005    1    1    2    0    0  0.17515590568E+02 -0.19578685023E+02 -0.50682523606E+02  0.57094999949E+02  0.10000000000E+01 0.  0.
<mgrwt>
<rscale>  0 0.12569903E+03</rscale>
<asrwt>0</asrwt>
<pdfrwt beam="1">  1        4 0.10760001E-01 0.12569903E+03</pdfrwt>
<pdfrwt beam="2">  1       -4 0.86889014E-02 0.12569903E+03</pdfrwt>
<totfact> 0.10259110E+04</totfact>
</mgrwt>
</event>
<event>
 5    1  0.3316206E-002  0.1250013E+03  0.7818608E-02  0.1235067E+00
          4   -1    0    0  501    0  0.00000000000E+00  0.00000000000E+00  0.86139718420E+02  0.86149080027E+02  0.12700000000E+01 0.  1.
         -4   -1    0    0    0  501 -0.00000000000E+00 -0.00000000000E+00 -0.45328025067E+02  0.45345812998E+02  0.12700000000E+01 0.  1.
         25    2    1    2    0    0  0.00000000000E+00  0.00000000000E+00  0.40811693353E+02  0.13149489303E+03  0.12500125030E+03 0.  0.
    9000005    1    3    3    0    0  0.26580837817E+02  0.41096155635E+02 -0.20470083002E+02  0.53060901285E+02  0.10000000000E+01 0.  0.
    9000005    1    3    3    0    0 -0.26580837817E+02 -0.41096155635E+02  0.61281776355E+02  0.78433991740E+02  0.10000000000E+01 0.  0.
<mgrwt>
<rscale>  0 0.12500125E+03</rscale>
<asrwt>0</asrwt>
<pdfrwt beam="1">  1        4 0.13254353E-01 0.12500125E+03</pdfrwt>
<pdfrwt beam="2">  1       -4 0.69756307E-02 0.12500125E+03</pdfrwt>
<totfact> 0.10312200E+04</totfact>
</mgrwt>
</event>
<event>
 5    1  0.3316206E-002  0.1250001E+03  0.7818608E-02  0.1235069E+00
         -4   -1    0    0    0  501 -0.00000000000E+00  0.00000000000E+00  0.36092364966E+02  0.36114702115E+02  0.12700000000E+01 0.  1.
          4   -1    0    0  501    0  0.00000000000E+00 -0.00000000000E+00 -0.10816983511E+03  0.10817729026E+03  0.12700000000E+01 0.  1.
         25    2    1    2    0    0  0.00000000000E+00  0.00000000000E+00 -0.72077470145E+02  0.14429199237E+03  0.12500006944E+03 0.  0.
    9000005    1    3    3    0    0  0.99395580158E+01  0.60146811847E+02 -0.51900686166E+02  0.80069438698E+02  0.10000000000E+01 0.  0.
    9000005    1    3    3    0    0 -0.99395580158E+01 -0.60146811847E+02 -0.20176783979E+02  0.64222553676E+02  0.10000000000E+01 0.  0.
<mgrwt>
<rscale>  0 0.12500007E+03</rscale>
<asrwt>0</asrwt>
<pdfrwt beam="2">  1        4 0.16643805E-01 0.12500007E+03</pdfrwt>
<pdfrwt beam="1">  1       -4 0.55549633E-02 0.12500007E+03</pdfrwt>
<totfact> 0.10045378E+04</totfact>
</mgrwt>
</event>
<event>
 5    1  0.3316206E-002  0.1249993E+03  0.7818608E-02  0.1235070E+00
          4   -1    0    0  501    0  0.00000000000E+00  0.00000000000E+00  0.46446875658E+02  0.46464235261E+02  0.12700000000E+01 0.  1.
         -4   -1    0    0    0  501 -0.00000000000E+00 -0.00000000000E+00 -0.84062582984E+02  0.84072175885E+02  0.12700000000E+01 0.  1.
         25    2    1    2    0    0  0.00000000000E+00  0.00000000000E+00 -0.37615707326E+02  0.13053641115E+03  0.12499925279E+03 0.  0.
    9000005    1    3    3    0    0  0.60468689090E+02 -0.41559842310E+01 -0.29198101776E+01  0.60689866177E+02  0.10000000000E+01 0.  0.
    9000005    1    3    3    0    0 -0.60468689090E+02  0.41559842310E+01 -0.34695897148E+02  0.69846544969E+02  0.10000000000E+01 0.  0.
<mgrwt>
<rscale>  0 0.12499925E+03</rscale>
<asrwt>0</asrwt>
<pdfrwt beam="1">  1        4 0.71477465E-02 0.12499925E+03</pdfrwt>
<pdfrwt beam="2">  1       -4 0.12934778E-01 0.12499925E+03</pdfrwt>
<totfact> 0.10333212E+04</totfact>
</mgrwt>
</event>
<event>
 5    1  0.3316206E-002  0.1250004E+03  0.7818608E-02  0.1235069E+00
          4   -1    0    0  501    0  0.00000000000E+00  0.00000000000E+00  0.27813365024E+02  0.27842344979E+02  0.12700000000E+01 0. -1.
         -4   -1    0    0    0  501 -0.00000000000E+00 -0.00000000000E+00 -0.14034102433E+03  0.14034677057E+03  0.12700000000E+01 0. -1.
         25    2    1    2    0    0  0.00000000000E+00  0.00000000000E+00 -0.11252765931E+03  0.16818911555E+03  0.12500041792E+03 0.  0.
    9000005    1    3    3    0    0  0.27313223748E+02 -0.55094620505E+02 -0.41290145211E+02  0.74076349071E+02  0.10000000000E+01 0.  0.
    9000005    1    3    3    0    0 -0.27313223748E+02  0.55094620505E+02 -0.71237514095E+02  0.94112766480E+02  0.10000000000E+01 0.  0.
<mgrwt>
<rscale>  0 0.12500042E+03</rscale>
<asrwt>0</asrwt>
<pdfrwt beam="1">  1        4 0.42816505E-02 0.12500042E+03</pdfrwt>
<pdfrwt beam="2">  1       -4 0.21593598E-01 0.12500042E+03</pdfrwt>
<totfact> 0.95785911E+03</totfact>
</mgrwt>
</event>
<event>
 5    1  0.3316206E-002  0.1249893E+03  0.7818608E-02  0.1235086E+00
         -4   -1    0    0    0  501 -0.00000000000E+00  0.00000000000E+00  0.65189844658E+01  0.66415403684E+01  0.12700000000E+01 0.  1.
          4   -1    0    0  501    0  0.00000000000E+00 -0.00000000000E+00 -0.59340671738E+03  0.59340807640E+03  0.12700000000E+01 0.  1.
         25    2    1    2    0    0  0.00000000000E+00  0.00000000000E+00 -0.58688773292E+03  0.60004961677E+03  0.12498932568E+03 0.  0.
    9000005    1    3    3    0    0 -0.37679975228E+02 -0.47174104871E+02 -0.21612163183E+03  0.22439861062E+03  0.10000000000E+01 0.  0.
    9000005    1    3    3    0    0  0.37679975228E+02  0.47174104871E+02 -0.37076610109E+03  0.37565100614E+03  0.10000000000E+01 0.  0.
<mgrwt>
<rscale>  0 0.12498933E+03</rscale>
<asrwt>0</asrwt>
<pdfrwt beam="2">  1        4 0.91302831E-01 0.12498933E+03</pdfrwt>
<pdfrwt beam="1">  1       -4 0.10124531E-02 0.12498933E+03</pdfrwt>
<totfact> 0.48875934E+03</totfact>
</mgrwt>
</event>
<event>
 5    1  0.3316206E-002  0.1250017E+03  0.7818608E-02  0.1235067E+00
          4   -1    0    0  501    0  0.00000000000E+00  0.00000000000E+00  0.19954122187E+01  0.23652843217E+01  0.12700000000E+01 0.  1.
         -4   -1    0    0    0  501 -0.00000000000E+00 -0.00000000000E+00 -0.17912490879E+04  0.17912495381E+04  0.12700000000E+01 0.  1.
         25    2    1    2    0    0  0.00000000000E+00  0.00000000000E+00 -0.17892536756E+04  0.17936148224E+04  0.12500166131E+03 0.  0.
    9000005    1    3    3    0    0 -0.41208464123E+02  0.40119508634E+02 -0.12454059433E+04  0.12467336027E+04  0.10000000000E+01 0.  0.
    9000005    1    3    3    0    0  0.41208464123E+02 -0.40119508634E+02 -0.54384773234E+03  0.54688121970E+03  0.10000000000E+01 0.  0.
<mgrwt>
<rscale>  0 0.12500166E+03</rscale>
<asrwt>0</asrwt>
<pdfrwt beam="1">  1        4 0.33547426E-03 0.12500166E+03</pdfrwt>
<pdfrwt beam="2">  1       -4 0.27560409E+00 0.12500166E+03</pdfrwt>
<totfact> 0.12801768E+03</totfact>
</mgrwt>
</event>
<event>
 5    1  0.3316206E-002  0.1250051E+03  0.7818608E-02  0.1235061E+00
         -4   -1    0    0    0  501 -0.00000000000E+00  0.00000000000E+00  0.64990100723E+03  0.64990224811E+03  0.12700000000E+01 0. -1.
          4   -1    0    0  501    0  0.00000000000E+00 -0.00000000000E+00 -0.59426762077E+01  0.60768660105E+01  0.12700000000E+01 0. -1.
         25    2    1    2    0    0  0.00000000000E+00  0.00000000000E+00  0.64395833102E+03  0.65597911412E+03  0.12500506418E+03 0.  0.
    9000005    1    3    3    0    0  0.27268584232E+02 -0.50486781023E+02  0.19204616073E+03  0.20043756783E+03  0.10000000000E+01 0.  0.
    9000005    1    3    3    0    0 -0.27268584232E+02  0.50486781023E+02  0.45191217029E+03  0.45554154629E+03  0.10000000000E+01 0.  0.
<mgrwt>
<rscale>  0 0.12500506E+03</rscale>
<asrwt>0</asrwt>
<pdfrwt beam="2">  1        4 0.92467611E-03 0.12500506E+03</pdfrwt>
<pdfrwt beam="1">  1       -4 0.99995136E-01 0.12500506E+03</pdfrwt>
<totfact> 0.45509255E+03</totfact>
</mgrwt>
</event>
<event>
 5    1  0.3316206E-002  0.1250006E+03  0.7818608E-02  0.1235068E+00
         -4   -1    0    0    0  501 -0.00000000000E+00  0.00000000000E+00  0.55804789961E+03  0.55804934474E+03  0.12700000000E+01 0.  1.
          4   -1    0    0  501    0  0.00000000000E+00 -0.00000000000E+00 -0.69408456181E+01  0.70560780817E+01  0.12700000000E+01 0.  1.
         25    2    1    2    0    0  0.00000000000E+00  0.00000000000E+00  0.55110705399E+03  0.56510542282E+03  0.12500061575E+03 0.  0.
    9000005    1    3    3    0    0 -0.32526671071E+02 -0.24265738380E+02  0.60708520654E+02  0.73029684855E+02  0.10000000000E+01 0.  0.
    9000005    1    3    3    0    0  0.32526671071E+02  0.24265738380E+02  0.49039853334E+03  0.49207573796E+03  0.10000000000E+01 0.  0.
<mgrwt>
<rscale>  0 0.12500062E+03</rscale>
<asrwt>0</asrwt>
<pdfrwt beam="2">  1        4 0.10767973E-02 0.12500062E+03</pdfrwt>
<pdfrwt beam="1">  1       -4 0.85862523E-01 0.12500062E+03</pdfrwt>
<totfact> 0.51146334E+03</totfact>
</mgrwt>
</event>
<event>
 5    1  0.3316206E-002  0.1250009E+03  0.7818608E-02  0.1235068E+00
         -4   -1    0    0    0  501 -0.00000000000E+00  0.00000000000E+00  0.66441249071E+01  0.67644139274E+01  0.12700000000E+01 0. -1.
          4   -1    0    0  501    0  0.00000000000E+00 -0.00000000000E+00 -0.58253823022E+03  0.58253961460E+03  0.12700000000E+01 0. -1.
         25    2    1    2    0    0  0.00000000000E+00  0.00000000000E+00 -0.57589410532E+03  0.58930402852E+03  0.12500086997E+03 0.  0.
    9000005    1    3    3    0    0 -0.18497034532E+02 -0.19048933963E+02 -0.55464634881E+03  0.55528242762E+03  0.10000000000E+01 0.  0.
    9000005    1    3    3    0    0  0.18497034532E+02  0.19048933963E+02 -0.21247756506E+02  0.34021600905E+02  0.10000000000E+01 0.  0.
<mgrwt>
<rscale>  0 0.12500087E+03</rscale>
<asrwt>0</asrwt>
<pdfrwt beam="2">  1        4 0.89630586E-01 0.12500087E+03</pdfrwt>
<pdfrwt beam="1">  1       -4 0.10315330E-02 0.12500087E+03</pdfrwt>
<totfact> 0.49548878E+03</totfact>
</mgrwt>
</event>
<event>
 5    1  0.3316206E-002  0.1250047E+03  0.7818608E-02  0.1235062E+00
          4   -1    0    0  501    0  0.00000000000E+00  0.00000000000E+00  0.27353125098E+02  0.27382592146E+02  0.12700000000E+01 0. -1.
         -4   -1    0    0    0  501 -0.00000000000E+00 -0.00000000000E+00 -0.14270963612E+03  0.14271528700E+03  0.12700000000E+01 0. -1.
         25    2    1    2    0    0  0.00000000000E+00  0.00000000000E+00 -0.11535651103E+03  0.17009787914E+03  0.12500465533E+03 0.  0.
    9000005    1    3    3    0    0 -0.30089578493E+02 -0.46024997385E+02 -0.98086687941E+02  0.11245301894E+03  0.10000000000E+01 0.  0.
    9000005    1    3    3    0    0  0.30089578493E+02  0.46024997385E+02 -0.17269823086E+02  0.57644860201E+02  0.10000000000E+01 0.  0.
<mgrwt>
<rscale>  0 0.12500466E+03</rscale>
<asrwt>0</asrwt>
<pdfrwt beam="1">  1        4 0.42108746E-02 0.12500466E+03</pdfrwt>
<pdfrwt beam="2">  1       -4 0.21958030E-01 0.12500466E+03</pdfrwt>
<totfact> 0.95420426E+03</totfact>
</mgrwt>
</event>
<event>
 5    1  0.3316206E-002  0.1249942E+03  0.7818608E-02  0.1235078E+00
          4   -1    0    0  501    0  0.00000000000E+00  0.00000000000E+00  0.12436810755E+03  0.12437459176E+03  0.12700000000E+01 0.  1.
         -4   -1    0    0    0  501 -0.00000000000E+00 -0.00000000000E+00 -0.31385736913E+02  0.31411421197E+02  0.12700000000E+01 0.  1.
         25    2    1    2    0    0  0.00000000000E+00  0.00000000000E+00  0.92982370639E+02  0.15578601296E+03  0.12499424220E+03 0.  0.
    9000005    1    3    3    0    0 -0.30631223205E+02 -0.52850414373E+02  0.30076667675E+02  0.68095844755E+02  0.10000000000E+01 0.  0.
    9000005    1    3    3    0    0  0.30631223205E+02  0.52850414373E+02  0.62905702964E+02  0.87690168205E+02  0.10000000000E+01 0.  0.
<mgrwt>
<rscale>  0 0.12499424E+03</rscale>
<asrwt>0</asrwt>
<pdfrwt beam="1">  1        4 0.19136030E-01 0.12499424E+03</pdfrwt>
<pdfrwt beam="2">  1       -4 0.48310494E-02 0.12499424E+03</pdfrwt>
<totfact> 0.98174126E+03</totfact>
</mgrwt>
</event>
<event>
 5    1  0.3316206E-002  0.1250005E+03  0.7818608E-02  0.1235068E+00
          4   -1    0    0  501    0  0.00000000000E+00  0.00000000000E+00  0.48888394494E+02  0.48904887447E+02  0.12700000000E+01 0. -1.
         -4   -1    0    0    0  501 -0.00000000000E+00 -0.00000000000E+00 -0.79867010550E+02  0.79877107322E+02  0.12700000000E+01 0. -1.
         25    2    1    2    0    0  0.00000000000E+00  0.00000000000E+00 -0.30978616056E+02  0.12878199477E+03  0.12500051009E+03 0.  0.
    9000005    1    3    3    0    0  0.40916562000E+02  0.47116275996E+02 -0.12045527403E+02  0.63562593088E+02  0.10000000000E+01 0.  0.
    9000005    1    3    3    0    0 -0.40916562000E+02 -0.47116275996E+02 -0.18933088653E+02  0.65219401681E+02  0.10000000000E+01 0.  0.
<mgrwt>
<rscale>  0 0.12500051E+03</rscale>
<asrwt>0</asrwt>
<pdfrwt beam="1">  1        4 0.75233368E-02 0.12500051E+03</pdfrwt>
<pdfrwt beam="2">  1       -4 0.12289278E-01 0.12500051E+03</pdfrwt>
<totfact> 0.10370514E+04</totfact>
</mgrwt>
</event>
<event>
 5    1  0.3316206E-002  0.1250018E+03  0.7818608E-02  0.1235066E+00
          4   -1    0    0  501    0  0.00000000000E+00  0.00000000000E+00  0.65979452751E+03  0.65979574979E+03  0.12700000000E+01 0.  1.
         -4   -1    0    0    0  501 -0.00000000000E+00 -0.00000000000E+00 -0.58512254023E+01  0.59874651321E+01  0.12700000000E+01 0.  1.
         25    2    1    2    0    0  0.00000000000E+00  0.00000000000E+00  0.65394330211E+03  0.66578321492E+03  0.12500178755E+03 0.  0.
    9000005    1    3    3    0    0  0.55841951006E+02  0.74872045772E+01  0.47097393001E+03  0.47433303118E+03  0.10000000000E+01 0.  0.
    9000005    1    3    3    0    0 -0.55841951006E+02 -0.74872045772E+01  0.18296937211E+03  0.19145018374E+03  0.10000000000E+01 0.  0.
<mgrwt>
<rscale>  0 0.12500179E+03</rscale>
<asrwt>0</asrwt>
<pdfrwt beam="1">  1        4 0.10151741E+00 0.12500179E+03</pdfrwt>
<pdfrwt beam="2">  1       -4 0.91076263E-03 0.12500179E+03</pdfrwt>
<totfact> 0.44953729E+03</totfact>
</mgrwt>
</event>
<event>
 5    1  0.3316206E-002  0.1249779E+03  0.7818608E-02  0.1235104E+00
          4   -1    0    0  501    0  0.00000000000E+00  0.00000000000E+00  0.11520974861E+03  0.11521674824E+03  0.12700000000E+01 0. -1.
         -4   -1    0    0    0  501 -0.00000000000E+00 -0.00000000000E+00 -0.33873649137E+02  0.33897448367E+02  0.12700000000E+01 0. -1.
         25    2    1    2    0    0  0.00000000000E+00  0.00000000000E+00  0.81336099477E+02  0.14911419661E+03  0.12497792826E+03 0.  0.
    9000005    1    3    3    0    0 -0.16938097171E+02  0.36508645092E+02  0.97690031909E+02  0.10566041187E+03  0.10000000000E+01 0.  0.
    9000005    1    3    3    0    0  0.16938097171E+02 -0.36508645092E+02 -0.16353932432E+02  0.43453784740E+02  0.10000000000E+01 0.  0.
<mgrwt>
<rscale>  0 0.12497793E+03</rscale>
<asrwt>0</asrwt>
<pdfrwt beam="1">  1        4 0.17726946E-01 0.12497793E+03</pdfrwt>
<pdfrwt beam="2">  1       -4 0.52136998E-02 0.12497793E+03</pdfrwt>
<totfact> 0.99530000E+03</totfact>
</mgrwt>
</event>
<event>
 5    1  0.3316206E-002  0.1249897E+03  0.7818608E-02  0.1235085E+00
          4   -1    0    0  501    0  0.00000000000E+00  0.00000000000E+00  0.43937900277E+02  0.43956250759E+02  0.12700000000E+01 0. -1.
         -4   -1    0    0    0  501 -0.00000000000E+00 -0.00000000000E+00 -0.88847829140E+02  0.88856905432E+02  0.12700000000E+01 0. -1.
         25    2    1    2    0    0  0.00000000000E+00  0.00000000000E+00 -0.44909928863E+02  0.13281315619E+03  0.12498973057E+03 0.  0.
    9000005    1    3    3    0    0 -0.31691156058E+02 -0.31698826798E+02 -0.68716968606E+02  0.82049782248E+02  0.10000000000E+01 0.  0.
    9000005    1    3    3    0    0  0.31691156058E+02  0.31698826798E+02  0.23807039743E+02  0.50763373942E+02  0.10000000000E+01 0.  0.
<mgrwt>
<rscale>  0 0.12498973E+03</rscale>
<asrwt>0</asrwt>
<pdfrwt beam="1">  1        4 0.67617867E-02 0.12498973E+03</pdfrwt>
<pdfrwt beam="2">  1       -4 0.13671007E-01 0.12498973E+03</pdfrwt>
<totfact> 0.10286755E+04</totfact>
</mgrwt>
</event>
<event>
 5    1  0.3316206E-002  0.1249990E+03  0.7818608E-02  0.1235071E+00
         -4   -1    0    0    0  501 -0.00000000000E+00  0.00000000000E+00  0.16437198368E+02  0.16486187861E+02  0.12700000000E+01 0.  1.
          4   -1    0    0  501    0  0.00000000000E+00 -0.00000000000E+00 -0.23723881583E+03  0.23724221512E+03  0.12700000000E+01 0.  1.
         25    2    1    2    0    0  0.00000000000E+00  0.00000000000E+00 -0.22080161746E+03  0.25372840298E+03  0.12499899282E+03 0.  0.
    9000005    1    3    3    0    0  0.92724203854E+01  0.39065913175E+02 -0.13199831353E+02  0.42277167594E+02  0.10000000000E+01 0.  0.
    9000005    1    3    3    0    0 -0.92724203854E+01 -0.39065913175E+02 -0.20760178610E+03  0.21145123539E+03  0.10000000000E+01 0.  0.
<mgrwt>
<rscale>  0 0.12499899E+03</rscale>
<asrwt>0</asrwt>
<pdfrwt beam="2">  1        4 0.36502307E-01 0.12499899E+03</pdfrwt>
<pdfrwt beam="1">  1       -4 0.25328298E-02 0.12499899E+03</pdfrwt>
<totfact> 0.81796162E+03</totfact>
</mgrwt>
</event>
<event>
 5    1  0.3316206E-002  0.1250007E+03  0.7818608E-02  0.1235068E+00
          4   -1    0    0  501    0  0.00000000000E+00  0.00000000000E+00  0.90268341703E+01  0.91157355785E+01  0.12700000000E+01 0.  1.
         -4   -1    0    0    0  501 -0.00000000000E+00 -0.00000000000E+00 -0.43053204009E+03  0.43053391324E+03  0.12700000000E+01 0.  1.
         25    2    1    2    0    0  0.00000000000E+00  0.00000000000E+00 -0.42150520592E+03  0.43964964881E+03  0.12500070033E+03 0.  0.
    9000005    1    3    3    0    0 -0.46884498755E+01 -0.56905347940E+02 -0.30008431262E+03  0.30546979371E+03  0.10000000000E+01 0.  0.
    9000005    1    3    3    0    0  0.46884498755E+01  0.56905347940E+02 -0.12142089330E+03  0.13417985511E+03  0.10000000000E+01 0.  0.
<mgrwt>
<rscale>  0 0.12500070E+03</rscale>
<asrwt>0</asrwt>
<pdfrwt beam="1">  1        4 0.13957267E-02 0.12500070E+03</pdfrwt>
<pdfrwt beam="2">  1       -4 0.66242665E-01 0.12500070E+03</pdfrwt>
<totfact> 0.60870012E+03</totfact>
</mgrwt>
</event>
<event>
 5    1  0.3316206E-002  0.1250028E+03  0.7818608E-02  0.1235065E+00
         -4   -1    0    0    0  501 -0.00000000000E+00  0.00000000000E+00  0.98150983233E+01  0.98969214959E+01  0.12700000000E+01 0. -1.
          4   -1    0    0  501    0  0.00000000000E+00 -0.00000000000E+00 -0.39626656305E+03  0.39626859816E+03  0.12700000000E+01 0. -1.
         25    2    1    2    0    0  0.00000000000E+00  0.00000000000E+00 -0.38645146473E+03  0.40616551966E+03  0.12500277906E+03 0.  0.
    9000005    1    3    3    0    0 -0.50971830430E+02  0.25385022487E+02 -0.10956794868E+03  0.12348547381E+03  0.10000000000E+01 0.  0.
    9000005    1    3    3    0    0  0.50971830430E+02 -0.25385022487E+02 -0.27688351605E+03  0.28268004585E+03  0.10000000000E+01 0.  0.
<mgrwt>
<rscale>  0 0.12500278E+03</rscale>
<asrwt>0</asrwt>
<pdfrwt beam="2">  1        4 0.60970525E-01 0.12500278E+03</pdfrwt>
<pdfrwt beam="1">  1       -4 0.15164661E-02 0.12500278E+03</pdfrwt>
<totfact> 0.63953606E+03</totfact>
</mgrwt>
</event>
<event>
 5    1  0.3316206E-002  0.1250000E+03  0.7818608E-02  0.1235069E+00
          4   -1    0    0  501    0  0.00000000000E+00  0.00000000000E+00  0.13466658271E+03  0.13467257107E+03  0.12700000000E+01 0.  1.
         -4   -1    0    0    0  501 -0.00000000000E+00 -0.00000000000E+00 -0.28986304277E+02  0.29014112698E+02  0.12700000000E+01 0.  1.
         25    2    1    2    0    0  0.00000000000E+00  0.00000000000E+00  0.10568027844E+03  0.16368668377E+03  0.12500003678E+03 0.  0.
    9000005    1    3    3    0    0 -0.44586838397E+02 -0.41568781804E+02  0.70857094744E+02  0.93475545757E+02  0.10000000000E+01 0.  0.
    9000005    1    3    3    0    0  0.44586838397E+02  0.41568781804E+02  0.34823183692E+02  0.70211138015E+02  0.10000000000E+01 0.  0.
<mgrwt>
<rscale>  0 0.12500004E+03</rscale>
<asrwt>0</asrwt>
<pdfrwt beam="1">  1        4 0.20720536E-01 0.12500004E+03</pdfrwt>
<pdfrwt beam="2">  1       -4 0.44620311E-02 0.12500004E+03</pdfrwt>
<totfact> 0.96636613E+03</totfact>
</mgrwt>
</event>
<event>
 5    1  0.3316206E-002  0.1249984E+03  0.7818608E-02  0.1235072E+00
          4   -1    0    0  501    0  0.00000000000E+00  0.00000000000E+00  0.20217250059E+02  0.20257099989E+02  0.12700000000E+01 0.  1.
         -4   -1    0    0    0  501 -0.00000000000E+00 -0.00000000000E+00 -0.19297671569E+03  0.19298089465E+03  0.12700000000E+01 0.  1.
         25    2    1    2    0    0  0.00000000000E+00  0.00000000000E+00 -0.17275946563E+03  0.21323799464E+03  0.12499843756E+03 0.  0.
    9000005    1    3    3    0    0  0.24886093085E+01  0.30528725372E+02  0.65416288356E+01  0.31336706223E+02  0.10000000000E+01 0.  0.
    9000005    1    3    3    0    0 -0.24886093085E+01 -0.30528725372E+02 -0.17930109447E+03  0.18190128841E+03  0.10000000000E+01 0.  0.
<mgrwt>
<rscale>  0 0.12499844E+03</rscale>
<asrwt>0</asrwt>
<pdfrwt beam="1">  1        4 0.31137331E-02 0.12499844E+03</pdfrwt>
<pdfrwt beam="2">  1       -4 0.29692111E-01 0.12499844E+03</pdfrwt>
<totfact> 0.87952861E+03</totfact>
</mgrwt>
</event>
<event>
 5    1  0.3316206E-002  0.1249914E+03  0.7818608E-02  0.1235083E+00
         -4   -1    0    0    0  501 -0.00000000000E+00  0.00000000000E+00  0.66020270666E+02  0.66032484724E+02  0.12700000000E+01 0.  1.
          4   -1    0    0  501    0  0.00000000000E+00 -0.00000000000E+00 -0.59134809290E+02  0.59148445202E+02  0.12700000000E+01 0.  1.
         25    2    1    2    0    0  0.00000000000E+00  0.00000000000E+00  0.68854613756E+01  0.12518092993E+03  0.12499142226E+03 0.  0.
    9000005    1    3    3    0    0 -0.51922493626E+02 -0.91232942085E+01 -0.30157115249E+02  0.60742336485E+02  0.10000000000E+01 0.  0.
    9000005    1    3    3    0    0  0.51922493626E+02  0.91232942085E+01  0.37042576624E+02  0.64438593440E+02  0.10000000000E+01 0.  0.
<mgrwt>
<rscale>  0 0.12499142E+03</rscale>
<asrwt>0</asrwt>
<pdfrwt beam="2">  1        4 0.90996514E-02 0.12499142E+03</pdfrwt>
<pdfrwt beam="1">  1       -4 0.10158953E-01 0.12499142E+03</pdfrwt>
<totfact> 0.10450960E+04</totfact>
</mgrwt>
</event>
<event>
 5    1  0.3316206E-002  0.1249974E+03  0.7818608E-02  0.1235073E+00
         -4   -1    0    0    0  501 -0.00000000000E+00  0.00000000000E+00  0.53927016477E+02  0.53941968875E+02  0.12700000000E+01 0. -1.
          4   -1    0    0  501    0  0.00000000000E+00 -0.00000000000E+00 -0.72402343145E+02  0.72413480740E+02  0.12700000000E+01 0. -1.
         25    2    1    2    0    0  0.00000000000E+00  0.00000000000E+00 -0.18475326668E+02  0.12635544961E+03  0.12499744778E+03 0.  0.
    9000005    1    3    3    0    0 -0.25958042123E+02 -0.53330859266E+02  0.10650688791E+02  0.60269707753E+02  0.10000000000E+01 0.  0.
    9000005    1    3    3    0    0  0.25958042123E+02  0.53330859266E+02 -0.29126015459E+02  0.66085741862E+02  0.10000000000E+01 0.  0.
<mgrwt>
<rscale>  0 0.12499745E+03</rscale>
<asrwt>0</asrwt>
<pdfrwt beam="2">  1        4 0.11140829E-01 0.12499745E+03</pdfrwt>
<pdfrwt beam="1">  1       -4 0.82984710E-02 0.12499745E+03</pdfrwt>
<totfact> 0.10423783E+04</totfact>
</mgrwt>
</event>
<event>
 5    1  0.3316206E-002  0.1249978E+03  0.7818608E-02  0.1235073E+00
          4   -1    0    0  501    0  0.00000000000E+00  0.00000000000E+00  0.26594115890E+02  0.26624422998E+02  0.12700000000E+01 0.  1.
         -4   -1    0    0    0  501 -0.00000000000E+00 -0.00000000000E+00 -0.14676210440E+03  0.14676759924E+03  0.12700000000E+01 0.  1.
         25    2    1    2    0    0  0.00000000000E+00  0.00000000000E+00 -0.12016798851E+03  0.17339202224E+03  0.12499779164E+03 0.  0.
    9000005    1    3    3    0    0 -0.21674494552E+02  0.24618080021E+02  0.13700416522E+02  0.35560300771E+02  0.10000000000E+01 0.  0.
    9000005    1    3    3    0    0  0.21674494552E+02 -0.24618080021E+02 -0.13386840503E+03  0.13783172147E+03  0.10000000000E+01 0.  0.
<mgrwt>
<rscale>  0 0.12499779E+03</rscale>
<asrwt>0</asrwt>
<pdfrwt beam="1">  1        4 0.40941565E-02 0.12499779E+03</pdfrwt>
<pdfrwt beam="2">  1       -4 0.22581539E-01 0.12499779E+03</pdfrwt>
<totfact> 0.94824864E+03</totfact>
</mgrwt>
</event>
<event>
 5    1  0.3316206E-002  0.1250020E+03  0.7818608E-02  0.1235066E+00
          4   -1    0    0  501    0  0.00000000000E+00  0.00000000000E+00  0.15927047166E+02  0.15977600929E+02  0.12700000000E+01 0.  1.
         -4   -1    0    0    0  501 -0.00000000000E+00 -0.00000000000E+00 -0.24482604947E+03  0.24482934342E+03  0.12700000000E+01 0.  1.
         25    2    1    2    0    0  0.00000000000E+00  0.00000000000E+00 -0.22889900231E+03  0.26080694435E+03  0.12500203584E+03 0.  0.
    9000005    1    3    3    0    0 -0.22001492725E+02 -0.47607465482E+02 -0.18535225806E+03  0.19263176275E+03  0.10000000000E+01 0.  0.
    9000005    1    3    3    0    0  0.22001492725E+02  0.47607465482E+02 -0.43546744241E+02  0.68175181597E+02  0.10000000000E+01 0.  0.
<mgrwt>
<rscale>  0 0.12500204E+03</rscale>
<asrwt>0</asrwt>
<pdfrwt beam="1">  1        4 0.24544573E-02 0.12500204E+03</pdfrwt>
<pdfrwt beam="2">  1       -4 0.37669685E-01 0.12500204E+03</pdfrwt>
<totfact> 0.80789291E+03</totfact>
</mgrwt>
</event>
<event>
 5    1  0.3316206E-002  0.1249976E+03  0.7818608E-02  0.1235073E+00
          4   -1    0    0  501    0  0.00000000000E+00  0.00000000000E+00  0.10408961024E+02  0.10486151325E+02  0.12700000000E+01 0.  1.
         -4   -1    0    0    0  501 -0.00000000000E+00 -0.00000000000E+00 -0.37379886010E+03  0.37380101754E+03  0.12700000000E+01 0.  1.
         25    2    1    2    0    0  0.00000000000E+00  0.00000000000E+00 -0.36338989908E+03  0.38428716887E+03  0.12499763759E+03 0.  0.
    9000005    1    3    3    0    0 -0.51937641097E+02  0.27232621742E+02 -0.24805889110E+03  0.25489870087E+03  0.10000000000E+01 0.  0.
    9000005    1    3    3    0    0  0.51937641097E+02 -0.27232621742E+02 -0.11533100798E+03  0.12938846800E+03  0.10000000000E+01 0.  0.
<mgrwt>
<rscale>  0 0.12499764E+03</rscale>
<asrwt>0</asrwt>
<pdfrwt beam="1">  1        4 0.16074826E-02 0.12499764E+03</pdfrwt>
<pdfrwt beam="2">  1       -4 0.57513610E-01 0.12499764E+03</pdfrwt>
<totfact> 0.66113694E+03</totfact>
</mgrwt>
</event>
<event>
 5    1  0.3316206E-002  0.1250112E+03  0.7818608E-02  0.1235052E+00
          4   -1    0    0  501    0  0.00000000000E+00  0.00000000000E+00  0.26071031169E+02  0.26101945641E+02  0.12700000000E+01 0.  1.
         -4   -1    0    0    0  501 -0.00000000000E+00 -0.00000000000E+00 -0.14973551277E+03  0.14974089851E+03  0.12700000000E+01 0.  1.
         25    2    1    2    0    0  0.00000000000E+00  0.00000000000E+00 -0.12366448161E+03  0.17584284415E+03  0.12501120681E+03 0.  0.
    9000005    1    3    3    0    0  0.40728593977E+01 -0.15777904980E+02  0.23037230547E+02  0.28235517712E+02  0.10000000000E+01 0.  0.
    9000005    1    3    3    0    0 -0.40728593977E+01  0.15777904980E+02 -0.14670171215E+03  0.14760732644E+03  0.10000000000E+01 0.  0.
<mgrwt>
<rscale>  0 0.12501121E+03</rscale>
<asrwt>0</asrwt>
<pdfrwt beam="1">  1        4 0.40137203E-02 0.12501121E+03</pdfrwt>
<pdfrwt beam="2">  1       -4 0.23039025E-01 0.12501121E+03</pdfrwt>
<totfact> 0.94346983E+03</totfact>
</mgrwt>
</event>
<event>
 5    1  0.3316206E-002  0.1250064E+03  0.7818608E-02  0.1235059E+00
          4   -1    0    0  501    0  0.00000000000E+00  0.00000000000E+00  0.27658416632E+02  0.27687558769E+02  0.12700000000E+01 0.  1.
         -4   -1    0    0    0  501 -0.00000000000E+00 -0.00000000000E+00 -0.14113988831E+03  0.14114560203E+03  0.12700000000E+01 0.  1.
         25    2    1    2    0    0  0.00000000000E+00  0.00000000000E+00 -0.11348147168E+03  0.16883316080E+03  0.12500636692E+03 0.  0.
    9000005    1    3    3    0    0 -0.31513329617E+02 -0.16356099580E+02  0.12720325023E+02  0.37728220283E+02  0.10000000000E+01 0.  0.
    9000005    1    3    3    0    0  0.31513329617E+02  0.16356099580E+02 -0.12620179671E+03  0.13110494052E+03  0.10000000000E+01 0.  0.
<mgrwt>
<rscale>  0 0.12500637E+03</rscale>
<asrwt>0</asrwt>
<pdfrwt beam="1">  1        4 0.42578223E-02 0.12500637E+03</pdfrwt>
<pdfrwt beam="2">  1       -4 0.21716510E-01 0.12500637E+03</pdfrwt>
<totfact> 0.95652661E+03</totfact>
</mgrwt>
</event>
<event>
 5    1  0.3316206E-002  0.1250002E+03  0.7818608E-02  0.1235069E+00
          4   -1    0    0  501    0  0.00000000000E+00  0.00000000000E+00  0.16376167134E+03  0.16376659580E+03  0.12700000000E+01 0. -1.
         -4   -1    0    0    0  501 -0.00000000000E+00 -0.00000000000E+00 -0.23831160833E+02  0.23864976989E+02  0.12700000000E+01 0. -1.
         25    2    1    2    0    0  0.00000000000E+00  0.00000000000E+00  0.13993051050E+03  0.18763157278E+03  0.12500023734E+03 0.  0.
    9000005    1    3    3    0    0 -0.46533166180E+01 -0.60300606818E+02  0.93577502108E+02  0.11142515622E+03  0.10000000000E+01 0.  0.
    9000005    1    3    3    0    0  0.46533166180E+01  0.60300606818E+02  0.46353008393E+02  0.76206416563E+02  0.10000000000E+01 0.  0.
<mgrwt>
<rscale>  0 0.12500024E+03</rscale>
<asrwt>0</asrwt>
<pdfrwt beam="1">  1        4 0.25197084E-01 0.12500024E+03</pdfrwt>
<pdfrwt beam="2">  1       -4 0.36693124E-02 0.12500024E+03</pdfrwt>
<totfact> 0.92260562E+03</totfact>
</mgrwt>
</event>
<event>
 5    1  0.3316206E-002  0.1249992E+03  0.7818608E-02  0.1235071E+00
         -4   -1    0    0    0  501 -0.00000000000E+00  0.00000000000E+00  0.31961615744E+03  0.31961868061E+03  0.12700000000E+01 0.  1.
          4   -1    0    0  501    0  0.00000000000E+00 -0.00000000000E+00 -0.12185954312E+02  0.12251954231E+02  0.12700000000E+01 0.  1.
         25    2    1    2    0    0  0.00000000000E+00  0.00000000000E+00  0.30743020313E+03  0.33187063485E+03  0.12499915390E+03 0.  0.
    9000005    1    3    3    0    0  0.87142724001E+01 -0.58559427903E+02  0.10061199058E+03  0.11674295606E+03  0.10000000000E+01 0.  0.
    9000005    1    3    3    0    0 -0.87142724001E+01  0.58559427903E+02  0.20681821255E+03  0.21512767879E+03  0.10000000000E+01 0.  0.
<mgrwt>
<rscale>  0 0.12499915E+03</rscale>
<asrwt>0</asrwt>
<pdfrwt beam="2">  1        4 0.18800331E-02 0.12499915E+03</pdfrwt>
<pdfrwt beam="1">  1       -4 0.49176990E-01 0.12499915E+03</pdfrwt>
<totfact> 0.71767505E+03</totfact>
</mgrwt>
</event>
<event>
 5    1  0.3316206E-002  0.1250022E+03  0.7818608E-02  0.1235066E+00
         -4   -1    0    0    0  501 -0.00000000000E+00  0.00000000000E+00  0.23441456746E+03  0.23441800771E+03  0.12700000000E+01 0. -1.
          4   -1    0    0  501    0  0.00000000000E+00 -0.00000000000E+00 -0.16636673687E+02  0.16685077506E+02  0.12700000000E+01 0. -1.
         25    2    1    2    0    0  0.00000000000E+00  0.00000000000E+00  0.21777789377E+03  0.25110308521E+03  0.12500219353E+03 0.  0.
    9000005    1    3    3    0    0 -0.17434005440E+01  0.54014323943E+02  0.45850059967E+02  0.70878872984E+02  0.10000000000E+01 0.  0.
    9000005    1    3    3    0    0  0.17434005440E+01 -0.54014323943E+02  0.17192783381E+03  0.18022421223E+03  0.10000000000E+01 0.  0.
<mgrwt>
<rscale>  0 0.12500219E+03</rscale>
<asrwt>0</asrwt>
<pdfrwt beam="2">  1        4 0.25634765E-02 0.12500219E+03</pdfrwt>
<pdfrwt beam="1">  1       -4 0.36067764E-01 0.12500219E+03</pdfrwt>
<totfact> 0.82167046E+03</totfact>
</mgrwt>
</event>
<event>
 5    1  0.3316206E-002  0.1249430E+03  0.7818608E-02  0.1235158E+00
         -4   -1    0    0    0  501 -0.00000000000E+00  0.00000000000E+00  0.39886831916E+01  0.41859877691E+01  0.12700000000E+01 0.  1.
          4   -1    0    0  501    0  0.00000000000E+00 -0.00000000000E+00 -0.95462626406E+03  0.95462710884E+03  0.12700000000E+01 0.  1.
         25    2    1    2    0    0  0.00000000000E+00  0.00000000000E+00 -0.95063758087E+03  0.95881309661E+03  0.12494296327E+03 0.  0.
    9000005    1    3    3    0    0  0.20952289911E+02  0.55751065371E+02 -0.61980756881E+03  0.62266331359E+03  0.10000000000E+01 0.  0.
    9000005    1    3    3    0    0 -0.20952289911E+02 -0.55751065371E+02 -0.33083001206E+03  0.33614978302E+03  0.10000000000E+01 0.  0.
<mgrwt>
<rscale>  0 0.12494296E+03</rscale>
<asrwt>0</asrwt>
<pdfrwt beam="2">  1        4 0.14688064E+00 0.12494296E+03</pdfrwt>
<pdfrwt beam="1">  1       -4 0.62888659E-03 0.12494296E+03</pdfrwt>
<totfact> 0.32045020E+03</totfact>
</mgrwt>
</event>
<event>
 5    1  0.3316206E-002  0.1249988E+03  0.7818608E-02  0.1235071E+00
         -4   -1    0    0    0  501 -0.00000000000E+00  0.00000000000E+00  0.18161686761E+02  0.18206036526E+02  0.12700000000E+01 0.  1.
          4   -1    0    0  501    0  0.00000000000E+00 -0.00000000000E+00 -0.21476912183E+03  0.21477287676E+03  0.12700000000E+01 0.  1.
         25    2    1    2    0    0  0.00000000000E+00  0.00000000000E+00 -0.19660743507E+03  0.23297891329E+03  0.12499876204E+03 0.  0.
    9000005    1    3    3    0    0 -0.32792512897E+02  0.36192031280E+02 -0.25638417984E+02  0.55168292587E+02  0.10000000000E+01 0.  0.
    9000005    1    3    3    0    0  0.32792512897E+02 -0.36192031280E+02 -0.17096901709E+03  0.17781062070E+03  0.10000000000E+01 0.  0.
<mgrwt>
<rscale>  0 0.12499876E+03</rscale>
<asrwt>0</asrwt>
<pdfrwt beam="2">  1        4 0.33045102E-01 0.12499876E+03</pdfrwt>
<pdfrwt beam="1">  1       -4 0.27978062E-02 0.12499876E+03</pdfrwt>
<totfact> 0.84856615E+03</totfact>
</mgrwt>
</event>
<event>
 5    1  0.3316206E-002  0.1250232E+03  0.7818608E-02  0.1235033E+00
          4   -1    0    0  501    0  0.00000000000E+00  0.00000000000E+00  0.11684772342E+02  0.11753586886E+02  0.12700000000E+01 0.  1.
         -4   -1    0    0    0  501 -0.00000000000E+00 -0.00000000000E+00 -0.33337463560E+03  0.33337705464E+03  0.12700000000E+01 0.  1.
         25    2    1    2    0    0  0.00000000000E+00  0.00000000000E+00 -0.32168986326E+03  0.34513064153E+03  0.12502316425E+03 0.  0.
    9000005    1    3    3    0    0 -0.46345906750E+02  0.19865785971E+02 -0.58887944736E+02  0.77533106219E+02  0.10000000000E+01 0.  0.
    9000005    1    3    3    0    0  0.46345906750E+02 -0.19865785971E+02 -0.26280191852E+03  0.26759753531E+03  0.10000000000E+01 0.  0.
<mgrwt>
<rscale>  0 0.12502316E+03</rscale>
<asrwt>0</asrwt>
<pdfrwt beam="1">  1        4 0.18031370E-02 0.12502316E+03</pdfrwt>
<pdfrwt beam="2">  1       -4 0.51293878E-01 0.12502316E+03</pdfrwt>
<totfact> 0.70227574E+03</totfact>
</mgrwt>
</event>
<event>
 5    1  0.3316206E-002  0.1250038E+03  0.7818608E-02  0.1235063E+00
          4   -1    0    0  501    0  0.00000000000E+00  0.00000000000E+00  0.11598455748E+02  0.11667779384E+02  0.12700000000E+01 0. -1.
         -4   -1    0    0    0  501 -0.00000000000E+00 -0.00000000000E+00 -0.33573676640E+03  0.33573916842E+03  0.12700000000E+01 0. -1.
         25    2    1    2    0    0  0.00000000000E+00  0.00000000000E+00 -0.32413831065E+03  0.34740694781E+03  0.12500377175E+03 0.  0.
    9000005    1    3    3    0    0  0.26095864835E+02  0.53562412560E+02 -0.10966429732E+03  0.12480859068E+03  0.10000000000E+01 0.  0.
    9000005    1    3    3    0    0 -0.26095864835E+02 -0.53562412560E+02 -0.21447401333E+03  0.22259835713E+03  0.10000000000E+01 0.  0.
<mgrwt>
<rscale>  0 0.12500377E+03</rscale>
<asrwt>0</asrwt>
<pdfrwt beam="1">  1        4 0.17898954E-02 0.12500377E+03</pdfrwt>
<pdfrwt beam="2">  1       -4 0.51657320E-01 0.12500377E+03</pdfrwt>
<totfact> 0.70004927E+03</totfact>
</mgrwt>
</event>
<event>
 5    1  0.3316206E-002  0.1249987E+03  0.7818608E-02  0.1235071E+00
          4   -1    0    0  501    0  0.00000000000E+00  0.00000000000E+00  0.11374239964E+04  0.11374247054E+04  0.12700000000E+01 0.  1.
         -4   -1    0    0    0  501 -0.00000000000E+00 -0.00000000000E+00 -0.33160758600E+01  0.35509518596E+01  0.12700000000E+01 0.  1.
         25    2    1    2    0    0  0.00000000000E+00  0.00000000000E+00  0.11341079205E+04  0.11409756573E+04  0.12499870023E+03 0.  0.
    9000005    1    3    3    0    0 -0.57465181082E+02  0.21607257075E+01  0.79031519464E+03  0.79240521367E+03  0.10000000000E+01 0.  0.
    9000005    1    3    3    0    0  0.57465181082E+02 -0.21607257075E+01  0.34379272590E+03  0.34857044361E+03  0.10000000000E+01 0.  0.
<mgrwt>
<rscale>  0 0.12499870E+03</rscale>
<asrwt>0</asrwt>
<pdfrwt beam="1">  1        4 0.17500642E+00 0.12499870E+03</pdfrwt>
<pdfrwt beam="2">  1       -4 0.52828746E-03 0.12499870E+03</pdfrwt>
<totfact> 0.26312703E+03</totfact>
</mgrwt>
</event>
<event>
 5    1  0.3316206E-002  0.1249987E+03  0.7818608E-02  0.1235071E+00
         -4   -1    0    0    0  501 -0.00000000000E+00  0.00000000000E+00  0.15492503529E+03  0.15493024062E+03  0.12700000000E+01 0.  1.
          4   -1    0    0  501    0  0.00000000000E+00 -0.00000000000E+00 -0.25191668463E+02  0.25223660717E+02  0.12700000000E+01 0.  1.
         25    2    1    2    0    0  0.00000000000E+00  0.00000000000E+00  0.12973336682E+03  0.18015390134E+03  0.12499872679E+03 0.  0.
    9000005    1    3    3    0    0 -0.56211263039E-01  0.47721789446E+02  0.67182059738E+01  0.48202765887E+02  0.10000000000E+01 0.  0.
    9000005    1    3    3    0    0  0.56211263039E-01 -0.47721789446E+02  0.12301516085E+03  0.13195113545E+03  0.10000000000E+01 0.  0.
<mgrwt>
<rscale>  0 0.12499873E+03</rscale>
<asrwt>0</asrwt>
<pdfrwt beam="2">  1        4 0.38785025E-02 0.12499873E+03</pdfrwt>
<pdfrwt beam="1">  1       -4 0.23837483E-01 0.12499873E+03</pdfrwt>
<totfact> 0.93591978E+03</totfact>
</mgrwt>
</event>
<event>
 5    1  0.3316206E-002  0.1249967E+03  0.7818608E-02  0.1235075E+00
          4   -1    0    0  501    0  0.00000000000E+00  0.00000000000E+00  0.74916187808E+01  0.75985032708E+01  0.12700000000E+01 0. -1.
         -4   -1    0    0    0  501 -0.00000000000E+00 -0.00000000000E+00 -0.51758743121E+03  0.51758898930E+03  0.12700000000E+01 0. -1.
         25    2    1    2    0    0  0.00000000000E+00  0.00000000000E+00 -0.51009581243E+03  0.52518749257E+03  0.12499665794E+03 0.  0.
    9000005    1    3    3    0    0  0.72849471171E+01 -0.17762217957E+02 -0.50491048936E+03  0.50527632946E+03  0.10000000000E+01 0.  0.
    9000005    1    3    3    0    0 -0.72849471171E+01  0.17762217957E+02 -0.51853230647E+01  0.19911163114E+02  0.10000000000E+01 0.  0.
<mgrwt>
<rscale>  0 0.12499666E+03</rscale>
<asrwt>0</asrwt>
<pdfrwt beam="1">  1        4 0.11608989E-02 0.12499666E+03</pdfrwt>
<pdfrwt beam="2">  1       -4 0.79637149E-01 0.12499666E+03</pdfrwt>
<totfact> 0.53965723E+03</totfact>
</mgrwt>
</event>
<event>
 5    1  0.3316206E-002  0.1250016E+03  0.7818608E-02  0.1235067E+00
         -4   -1    0    0    0  501 -0.00000000000E+00  0.00000000000E+00  0.30340322644E+02  0.30366891150E+02  0.12700000000E+01 0.  1.
          4   -1    0    0  501    0  0.00000000000E+00 -0.00000000000E+00 -0.12866495264E+03  0.12867122031E+03  0.12700000000E+01 0.  1.
         25    2    1    2    0    0  0.00000000000E+00  0.00000000000E+00 -0.98324629994E+02  0.15903811146E+03  0.12500155213E+03 0.  0.
    9000005    1    3    3    0    0 -0.58064159855E+02 -0.74850191620E+01 -0.76974997995E+02  0.96714127654E+02  0.10000000000E+01 0.  0.
    9000005    1    3    3    0    0  0.58064159855E+02  0.74850191620E+01 -0.21349631999E+02  0.62323983811E+02  0.10000000000E+01 0.  0.
<mgrwt>
<rscale>  0 0.12500155E+03</rscale>
<asrwt>0</asrwt>
<pdfrwt beam="2">  1        4 0.19797134E-01 0.12500155E+03</pdfrwt>
<pdfrwt beam="1">  1       -4 0.46702679E-02 0.12500155E+03</pdfrwt>
<totfact> 0.97525148E+03</totfact>
</mgrwt>
</event>
<event>
 5    1  0.3316206E-002  0.1250041E+03  0.7818608E-02  0.1235063E+00
          4   -1    0    0  501    0  0.00000000000E+00  0.00000000000E+00  0.40072082849E+03  0.40072284098E+03  0.12700000000E+01 0. -1.
         -4   -1    0    0    0  501 -0.00000000000E+00 -0.00000000000E+00 -0.97052942182E+01  0.97880353422E+01  0.12700000000E+01 0. -1.
         25    2    1    2    0    0  0.00000000000E+00  0.00000000000E+00  0.39101553427E+03  0.41051087632E+03  0.12500412609E+03 0.  0.
    9000005    1    3    3    0    0 -0.18408737948E+02  0.16043943808E+02  0.65942574300E+01  0.25313514114E+02  0.10000000000E+01 0.  0.
    9000005    1    3    3    0    0  0.18408737948E+02 -0.16043943808E+02  0.38442127684E+03  0.38519736221E+03  0.10000000000E+01 0.  0.
<mgrwt>
<rscale>  0 0.12500413E+03</rscale>
<asrwt>0</asrwt>
<pdfrwt beam="1">  1        4 0.61655880E-01 0.12500413E+03</pdfrwt>
<pdfrwt beam="2">  1       -4 0.14996416E-02 0.12500413E+03</pdfrwt>
<totfact> 0.63537404E+03</totfact>
</mgrwt>
</event>
<event>
 5    1  0.3316206E-002  0.1249997E+03  0.7818608E-02  0.1235070E+00
          4   -1    0    0  501    0  0.00000000000E+00  0.00000000000E+00  0.32829021852E+02  0.32853577822E+02  0.12700000000E+01 0.  1.
         -4   -1    0    0    0  501 -0.00000000000E+00 -0.00000000000E+00 -0.11891465215E+03  0.11892143371E+03  0.12700000000E+01 0.  1.
         25    2    1    2    0    0  0.00000000000E+00  0.00000000000E+00 -0.86085630295E+02  0.15177501153E+03  0.12499967353E+03 0.  0.
    9000005    1    3    3    0    0 -0.19182946207E+02 -0.15948636407E+02  0.26526742455E+02  0.36428182684E+02  0.10000000000E+01 0.  0.
    9000005    1    3    3    0    0  0.19182946207E+02  0.15948636407E+02 -0.11261237275E+03  0.11534682885E+03  0.10000000000E+01 0.  0.
<mgrwt>
<rscale>  0 0.12499967E+03</rscale>
<asrwt>0</asrwt>
<pdfrwt beam="1">  1        4 0.50530294E-02 0.12499967E+03</pdfrwt>
<pdfrwt beam="2">  1       -4 0.18296972E-01 0.12499967E+03</pdfrwt>
<totfact> 0.98951773E+03</totfact>
</mgrwt>
</event>
<event>
 5    1  0.3316206E-002  0.1250005E+03  0.7818608E-02  0.1235068E+00
          4   -1    0    0  501    0  0.00000000000E+00  0.00000000000E+00  0.17375645564E+03  0.17376109684E+03  0.12700000000E+01 0.  1.
         -4   -1    0    0    0  501 -0.00000000000E+00 -0.00000000000E+00 -0.22458477902E+02  0.22494357730E+02  0.12700000000E+01 0.  1.
         25    2    1    2    0    0  0.00000000000E+00  0.00000000000E+00  0.15129797774E+03  0.19625545457E+03  0.12500050153E+03 0.  0.
    9000005    1    3    3    0    0  0.28453221807E+01 -0.35920552980E+02  0.15581164768E+03  0.15992701941E+03  0.10000000000E+01 0.  0.
    9000005    1    3    3    0    0 -0.28453221807E+01  0.35920552980E+02 -0.45136699465E+01  0.36328435159E+02  0.10000000000E+01 0.  0.
<mgrwt>
<rscale>  0 0.12500050E+03</rscale>
<asrwt>0</asrwt>
<pdfrwt beam="1">  1        4 0.26734879E-01 0.12500050E+03</pdfrwt>
<pdfrwt beam="2">  1       -4 0.34582675E-02 0.12500050E+03</pdfrwt>
<totfact> 0.90769115E+03</totfact>
</mgrwt>
</event>
<event>
 5    1  0.3316206E-002  0.1250008E+03  0.7818608E-02  0.1235068E+00
         -4   -1    0    0    0  501 -0.00000000000E+00  0.00000000000E+00  0.52187763643E+03  0.52187918171E+03  0.12700000000E+01 0. -1.
          4   -1    0    0  501    0  0.00000000000E+00 -0.00000000000E+00 -0.74296456966E+01  0.75374090493E+01  0.12700000000E+01 0. -1.
         25    2    1    2    0    0  0.00000000000E+00  0.00000000000E+00  0.51444799073E+03  0.52941659076E+03  0.12500076562E+03 0.  0.
    9000005    1    3    3    0    0  0.14980647143E+02  0.59429028559E+02  0.30893440757E+03  0.31495665956E+03  0.10000000000E+01 0.  0.
    9000005    1    3    3    0    0 -0.14980647143E+02 -0.59429028559E+02  0.20551358316E+03  0.21445993119E+03  0.10000000000E+01 0.  0.
<mgrwt>
<rscale>  0 0.12500077E+03</rscale>
<asrwt>0</asrwt>
<pdfrwt beam="2">  1        4 0.11514302E-02 0.12500077E+03</pdfrwt>
<pdfrwt beam="1">  1       -4 0.80297317E-01 0.12500077E+03</pdfrwt>
<totfact> 0.53651193E+03</totfact>
</mgrwt>
</event>
<event>
 5    1  0.3316206E-002  0.1250025E+03  0.7818608E-02  0.1235065E+00
         -4   -1    0    0    0  501 -0.00000000000E+00  0.00000000000E+00  0.73051419174E+02  0.73062457824E+02  0.12700000000E+01 0. -1.
          4   -1    0    0  501    0  0.00000000000E+00 -0.00000000000E+00 -0.53452147561E+02  0.53467232759E+02  0.12700000000E+01 0. -1.
         25    2    1    2    0    0  0.00000000000E+00  0.00000000000E+00  0.19599271613E+02  0.12652969058E+03  0.12500252458E+03 0.  0.
    9000005    1    3    3    0    0 -0.32749987973E+02 -0.37025616975E+02 -0.28902941469E+02  0.57269870352E+02  0.10000000000E+01 0.  0.
    9000005    1    3    3    0    0  0.32749987973E+02  0.37025616975E+02  0.48502213082E+02  0.69259820231E+02  0.10000000000E+01 0.  0.
<mgrwt>
<rscale>  0 0.12500252E+03</rscale>
<asrwt>0</asrwt>
<pdfrwt beam="2">  1        4 0.82254168E-02 0.12500252E+03</pdfrwt>
<pdfrwt beam="1">  1       -4 0.11240689E-01 0.12500252E+03</pdfrwt>
<totfact> 0.10418787E+04</totfact>
</mgrwt>
</event>
<event>
 5    1  0.3316206E-002  0.1249997E+03  0.7818608E-02  0.1235070E+00
         -4   -1    0    0    0  501 -0.00000000000E+00  0.00000000000E+00  0.76986482896E+01  0.78026973213E+01  0.12700000000E+01 0. -1.
          4   -1    0    0  501    0  0.00000000000E+00 -0.00000000000E+00 -0.50388128048E+03  0.50388288096E+03  0.12700000000E+01 0. -1.
         25    2    1    2    0    0  0.00000000000E+00  0.00000000000E+00 -0.49618263219E+03  0.51168557828E+03  0.12499970611E+03 0.  0.
    9000005    1    3    3    0    0 -0.49055897636E+02 -0.32807842396E+02 -0.33222193650E+03  0.33742443704E+03  0.10000000000E+01 0.  0.
    9000005    1    3    3    0    0  0.49055897636E+02  0.32807842396E+02 -0.16396069569E+03  0.17426114124E+03  0.10000000000E+01 0.  0.
<mgrwt>
<rscale>  0 0.12499971E+03</rscale>
<asrwt>0</asrwt>
<pdfrwt beam="2">  1        4 0.77528298E-01 0.12499971E+03</pdfrwt>
<pdfrwt beam="1">  1       -4 0.11925347E-02 0.12499971E+03</pdfrwt>
<totfact> 0.54969339E+03</totfact>
</mgrwt>
</event>
<event>
 5    1  0.3316206E-002  0.1250014E+03  0.7818608E-02  0.1235067E+00
          4   -1    0    0  501    0  0.00000000000E+00  0.00000000000E+00  0.21691822595E+03  0.21692194368E+03  0.12700000000E+01 0. -1.
         -4   -1    0    0    0  501 -0.00000000000E+00 -0.00000000000E+00 -0.17982066388E+02  0.18026858061E+02  0.12700000000E+01 0. -1.
         25    2    1    2    0    0  0.00000000000E+00  0.00000000000E+00  0.19893615956E+03  0.23494880174E+03  0.12500137542E+03 0.  0.
    9000005    1    3    3    0    0 -0.55485687242E+02  0.24761856662E+02  0.12693327796E+03  0.14072976973E+03  0.10000000000E+01 0.  0.
    9000005    1    3    3    0    0  0.55485687242E+02 -0.24761856662E+02  0.72002881601E+02  0.94219032010E+02  0.10000000000E+01 0.  0.
<mgrwt>
<rscale>  0 0.12500138E+03</rscale>
<asrwt>0</asrwt>
<pdfrwt beam="1">  1        4 0.33375766E-01 0.12500138E+03</pdfrwt>
<pdfrwt beam="2">  1       -4 0.27702032E-02 0.12500138E+03</pdfrwt>
<totfact> 0.84552857E+03</totfact>
</mgrwt>
</event>
<event>
 5    1  0.3316206E-002  0.1249998E+03  0.7818608E-02  0.1235070E+00
         -4   -1    0    0    0  501 -0.00000000000E+00  0.00000000000E+00  0.34639011508E+02  0.34662285242E+02  0.12700000000E+01 0.  1.
          4   -1    0    0  501    0  0.00000000000E+00 -0.00000000000E+00 -0.11270511099E+03  0.11271226616E+03  0.12700000000E+01 0.  1.
         25    2    1    2    0    0  0.00000000000E+00  0.00000000000E+00 -0.78066099478E+02  0.14737455140E+03  0.12499977005E+03 0.  0.
    9000005    1    3    3    0    0 -0.20990327050E+02  0.35272897985E+00 -0.10842908424E+03  0.11044720258E+03  0.10000000000E+01 0.  0.
    9000005    1    3    3    0    0  0.20990327050E+02 -0.35272897985E+00  0.30362984764E+02  0.36927348824E+02  0.10000000000E+01 0.  0.
<mgrwt>
<rscale>  0 0.12499977E+03</rscale>
<asrwt>0</asrwt>
<pdfrwt beam="2">  1        4 0.17341588E-01 0.12499977E+03</pdfrwt>
<pdfrwt beam="1">  1       -4 0.53314194E-02 0.12499977E+03</pdfrwt>
<totfact> 0.99830157E+03</totfact>
</mgrwt>
</event>
<event>
 5    1  0.3316206E-002  0.1249987E+03  0.7818608E-02  0.1235071E+00
          4   -1    0    0  501    0  0.00000000000E+00  0.00000000000E+00  0.32843684597E+02  0.32868229613E+02  0.12700000000E+01 0. -1.
         -4   -1    0    0    0  501 -0.00000000000E+00 -0.00000000000E+00 -0.11885966712E+03  0.11886645182E+03  0.12700000000E+01 0. -1.
         25    2    1    2    0    0  0.00000000000E+00  0.00000000000E+00 -0.86015982526E+02  0.15173468143E+03  0.12499865719E+03 0.  0.
    9000005    1    3    3    0    0 -0.26087576658E+02  0.56010598308E+02 -0.31658452967E+02  0.69433467600E+02  0.10000000000E+01 0.  0.
    9000005    1    3    3    0    0  0.26087576658E+02 -0.56010598308E+02 -0.54357529559E+02  0.82301213833E+02  0.10000000000E+01 0.  0.
<mgrwt>
<rscale>  0 0.12499866E+03</rscale>
<asrwt>0</asrwt>
<pdfrwt beam="1">  1        4 0.50552846E-02 0.12499866E+03</pdfrwt>
<pdfrwt beam="2">  1       -4 0.18288512E-01 0.12499866E+03</pdfrwt>
<totfact> 0.98962023E+03</totfact>
</mgrwt>
</event>
<event>
 5    1  0.3316206E-002  0.1249931E+03  0.7818608E-02  0.1235080E+00
          4   -1    0    0  501    0  0.00000000000E+00  0.00000000000E+00  0.26656416144E+02  0.26686652500E+02  0.12700000000E+01 0.  1.
         -4   -1    0    0    0  501 -0.00000000000E+00 -0.00000000000E+00 -0.14640856254E+03  0.14641407065E+03  0.12700000000E+01 0.  1.
         25    2    1    2    0    0  0.00000000000E+00  0.00000000000E+00 -0.11975214639E+03  0.17310072315E+03  0.12499313497E+03 0.  0.
    9000005    1    3    3    0    0 -0.49425673856E+02  0.33231795070E+02 -0.86063581267E+02  0.10466704095E+03  0.10000000000E+01 0.  0.
    9000005    1    3    3    0    0  0.49425673856E+02 -0.33231795070E+02 -0.33688565123E+02  0.68433682202E+02  0.10000000000E+01 0.  0.
<mgrwt>
<rscale>  0 0.12499313E+03</rscale>
<asrwt>0</asrwt>
<pdfrwt beam="1">  1        4 0.41037368E-02 0.12499313E+03</pdfrwt>
<pdfrwt beam="2">  1       -4 0.22527143E-01 0.12499313E+03</pdfrwt>
<totfact> 0.94888460E+03</totfact>
</mgrwt>
</event>
<event>
 5    1  0.3316206E-002  0.1250000E+03  0.7818608E-02  0.1235069E+00
          4   -1    0    0  501    0  0.00000000000E+00  0.00000000000E+00  0.44722345117E+03  0.44722525440E+03  0.12700000000E+01 0. -1.
         -4   -1    0    0    0  501 -0.00000000000E+00 -0.00000000000E+00 -0.86864595709E+01  0.87788085682E+01  0.12700000000E+01 0. -1.
         25    2    1    2    0    0  0.00000000000E+00  0.00000000000E+00  0.43853699160E+03  0.45600406297E+03  0.12500004978E+03 0.  0.
    9000005    1    3    3    0    0 -0.58525562226E+02  0.20979349018E+02  0.24230562917E+03  0.25015673576E+03  0.10000000000E+01 0.  0.
    9000005    1    3    3    0    0  0.58525562226E+02 -0.20979349018E+02  0.19623136242E+03  0.20584732721E+03  0.10000000000E+01 0.  0.
<mgrwt>
<rscale>  0 0.12500005E+03</rscale>
<asrwt>0</asrwt>
<pdfrwt beam="1">  1        4 0.68810843E-01 0.12500005E+03</pdfrwt>
<pdfrwt beam="2">  1       -4 0.13436210E-02 0.12500005E+03</pdfrwt>
<totfact> 0.59447107E+03</totfact>
</mgrwt>
</event>
<event>
 5    1  0.3316206E-002  0.1249994E+03  0.7818608E-02  0.1235070E+00
          4   -1    0    0  501    0  0.00000000000E+00  0.00000000000E+00  0.31297652759E+02  0.31323409269E+02  0.12700000000E+01 0.  1.
         -4   -1    0    0    0  501 -0.00000000000E+00 -0.00000000000E+00 -0.12472816598E+03  0.12473463148E+03  0.12700000000E+01 0.  1.
         25    2    1    2    0    0  0.00000000000E+00  0.00000000000E+00 -0.93430513225E+02  0.15605804075E+03  0.12499940512E+03 0.  0.
    9000005    1    3    3    0    0 -0.17571101596E+02  0.52380062051E+02 -0.83173972566E+02  0.99856518185E+02  0.10000000000E+01 0.  0.
    9000005    1    3    3    0    0  0.17571101596E+02 -0.52380062051E+02 -0.10256540660E+02  0.56201522560E+02  0.10000000000E+01 0.  0.
<mgrwt>
<rscale>  0 0.12499941E+03</rscale>
<asrwt>0</asrwt>
<pdfrwt beam="1">  1        4 0.48175022E-02 0.12499941E+03</pdfrwt>
<pdfrwt beam="2">  1       -4 0.19191427E-01 0.12499941E+03</pdfrwt>
<totfact> 0.98109504E+03</totfact>
</mgrwt>
</event>
<event>
 5    1  0.3316206E-002  0.1249982E+03  0.7818608E-02  0.1235072E+00
          4   -1    0    0  501    0  0.00000000000E+00  0.00000000000E+00  0.14090521945E+03  0.14091094269E+03  0.12700000000E+01 0. -1.
         -4   -1    0    0    0  501 -0.00000000000E+00 -0.00000000000E+00 -0.27700912216E+02  0.27730009694E+02  0.12700000000E+01 0. -1.
         25    2    1    2    0    0  0.00000000000E+00  0.00000000000E+00  0.11320430724E+03  0.16864095238E+03  0.12499822256E+03 0.  0.
    9000005    1    3    3    0    0  0.58909245299E+02  0.12373901538E+02  0.33957123815E+02  0.69119453692E+02  0.10000000000E+01 0.  0.
    9000005    1    3    3    0    0 -0.58909245299E+02 -0.12373901538E+02  0.79247183421E+02  0.99521498688E+02  0.10000000000E+01 0.  0.
<mgrwt>
<rscale>  0 0.12499822E+03</rscale>
<asrwt>0</asrwt>
<pdfrwt beam="1">  1        4 0.21680404E-01 0.12499822E+03</pdfrwt>
<pdfrwt beam="2">  1       -4 0.42643574E-02 0.12499822E+03</pdfrwt>
<totfact> 0.95706082E+03</totfact>
</mgrwt>
</event>
<event>
 5    1  0.3316206E-002  0.1250040E+03  0.7818608E-02  0.1235063E+00
          4   -1    0    0  501    0  0.00000000000E+00  0.00000000000E+00  0.48680791069E+02  0.48697354334E+02  0.12700000000E+01 0. -1.
         -4   -1    0    0    0  501 -0.00000000000E+00 -0.00000000000E+00 -0.80212021802E+02  0.80222075151E+02  0.12700000000E+01 0. -1.
         25    2    1    2    0    0  0.00000000000E+00  0.00000000000E+00 -0.31531230733E+02  0.12891942948E+03  0.12500400308E+03 0.  0.
    9000005    1    3    3    0    0 -0.31589487039E+02 -0.53818601876E+02 -0.19211312373E+02  0.65302466434E+02  0.10000000000E+01 0.  0.
    9000005    1    3    3    0    0  0.31589487039E+02  0.53818601876E+02 -0.12319918360E+02  0.63616963050E+02  0.10000000000E+01 0.  0.
<mgrwt>
<rscale>  0 0.12500400E+03</rscale>
<asrwt>0</asrwt>
<pdfrwt beam="1">  1        4 0.74913999E-02 0.12500400E+03</pdfrwt>
<pdfrwt beam="2">  1       -4 0.12342359E-01 0.12500400E+03</pdfrwt>
<totfact> 0.10366742E+04</totfact>
</mgrwt>
</event>
<event>
 5    1  0.3316206E-002  0.1249987E+03  0.7818608E-02  0.1235071E+00
         -4   -1    0    0    0  501 -0.00000000000E+00  0.00000000000E+00  0.32522124542E+03  0.32522372511E+03  0.12700000000E+01 0. -1.
          4   -1    0    0  501    0  0.00000000000E+00 -0.00000000000E+00 -0.11974697518E+02  0.12041855366E+02  0.12700000000E+01 0. -1.
         25    2    1    2    0    0  0.00000000000E+00  0.00000000000E+00  0.31324654790E+03  0.33726558047E+03  0.12499868799E+03 0.  0.
    9000005    1    3    3    0    0  0.28668844234E+02  0.49830364240E+02  0.22272527764E+03  0.23002720954E+03  0.10000000000E+01 0.  0.
    9000005    1    3    3    0    0 -0.28668844234E+02 -0.49830364240E+02  0.90521270263E+02  0.10723837093E+03  0.10000000000E+01 0.  0.
<mgrwt>
<rscale>  0 0.12499869E+03</rscale>
<asrwt>0</asrwt>
<pdfrwt beam="2">  1        4 0.18476181E-02 0.12499869E+03</pdfrwt>
<pdfrwt beam="1">  1       -4 0.50039390E-01 0.12499869E+03</pdfrwt>
<totfact> 0.71150667E+03</totfact>
</mgrwt>
</event>
<event>
 5    1  0.3316206E-002  0.1249980E+03  0.7818608E-02  0.1235072E+00
          4   -1    0    0  501    0  0.00000000000E+00  0.00000000000E+00  0.24517311778E+02  0.24550182827E+02  0.12700000000E+01 0.  1.
         -4   -1    0    0    0  501 -0.00000000000E+00 -0.00000000000E+00 -0.15917890459E+03  0.15918397083E+03  0.12700000000E+01 0.  1.
         25    2    1    2    0    0  0.00000000000E+00  0.00000000000E+00 -0.13466159282E+03  0.18373415365E+03  0.12499797854E+03 0.  0.
    9000005    1    3    3    0    0  0.43195747567E+02  0.27237687490E+02 -0.14386758559E+02  0.53063575544E+02  0.10000000000E+01 0.  0.
    9000005    1    3    3    0    0 -0.43195747567E+02 -0.27237687490E+02 -0.12027483426E+03  0.13067057811E+03  0.10000000000E+01 0.  0.
<mgrwt>
<rscale>  0 0.12499798E+03</rscale>
<asrwt>0</asrwt>
<pdfrwt beam="1">  1        4 0.37748125E-02 0.12499798E+03</pdfrwt>
<pdfrwt beam="2">  1       -4 0.24491980E-01 0.12499798E+03</pdfrwt>
<totfact> 0.92953341E+03</totfact>
</mgrwt>
</event>
<event>
 5    1  0.3316206E-002  0.1249997E+03  0.7818608E-02  0.1235070E+00
         -4   -1    0    0    0  501 -0.00000000000E+00  0.00000000000E+00  0.20104135381E+03  0.20104536513E+03  0.12700000000E+01 0. -1.
          4   -1    0    0  501    0  0.00000000000E+00 -0.00000000000E+00 -0.19405026078E+02  0.19446540491E+02  0.12700000000E+01 0. -1.
         25    2    1    2    0    0  0.00000000000E+00  0.00000000000E+00  0.18163632773E+03  0.22049190562E+03  0.12499969957E+03 0.  0.
    9000005    1    3    3    0    0  0.60126061833E+02 -0.16966711812E+02  0.93445546977E+02  0.11241033258E+03  0.10000000000E+01 0.  0.
    9000005    1    3    3    0    0 -0.60126061833E+02  0.16966711812E+02  0.88190780753E+02  0.10808157304E+03  0.10000000000E+01 0.  0.
<mgrwt>
<rscale>  0 0.12499970E+03</rscale>
<asrwt>0</asrwt>
<pdfrwt beam="2">  1        4 0.29888906E-02 0.12499970E+03</pdfrwt>
<pdfrwt beam="1">  1       -4 0.30932941E-01 0.12499970E+03</pdfrwt>
<totfact> 0.86791154E+03</totfact>
</mgrwt>
</event>
<event>
 5    1  0.3316206E-002  0.1249988E+03  0.7818608E-02  0.1235071E+00
          4   -1    0    0  501    0  0.00000000000E+00  0.00000000000E+00  0.91616099857E+02  0.91624901926E+02  0.12700000000E+01 0. -1.
         -4   -1    0    0    0  501 -0.00000000000E+00 -0.00000000000E+00 -0.42616006534E+02  0.42634925975E+02  0.12700000000E+01 0. -1.
         25    2    1    2    0    0  0.00000000000E+00  0.00000000000E+00  0.49000093323E+02  0.13425982790E+03  0.12499876896E+03 0.  0.
    9000005    1    3    3    0    0 -0.41934989745E+02 -0.44921173875E+02  0.36686005609E+02  0.71577358395E+02  0.10000000000E+01 0.  0.
    9000005    1    3    3    0    0  0.41934989745E+02  0.44921173875E+02  0.12314087714E+02  0.62682469507E+02  0.10000000000E+01 0.  0.
<mgrwt>
<rscale>  0 0.12499877E+03</rscale>
<asrwt>0</asrwt>
<pdfrwt beam="1">  1        4 0.14096917E-01 0.12499877E+03</pdfrwt>
<pdfrwt beam="2">  1       -4 0.65584411E-02 0.12499877E+03</pdfrwt>
<totfact> 0.10253980E+04</totfact>
</mgrwt>
</event>
<event>
 5    1  0.3316206E-002  0.1249891E+03  0.7818608E-02  0.1235086E+00
          4   -1    0    0  501    0  0.00000000000E+00  0.00000000000E+00  0.40125294405E+02  0.40145387669E+02  0.12700000000E+01 0. -1.
         -4   -1    0    0    0  501 -0.00000000000E+00 -0.00000000000E+00 -0.97285683774E+02  0.97293972924E+02  0.12700000000E+01 0. -1.
         25    2    1    2    0    0  0.00000000000E+00  0.00000000000E+00 -0.57160389369E+02  0.13743936059E+03  0.12498907043E+03 0.  0.
    9000005    1    3    3    0    0 -0.41496504370E+02  0.39133358060E+02 -0.56640478767E+02  0.80389821638E+02  0.10000000000E+01 0.  0.
    9000005    1    3    3    0    0  0.41496504370E+02 -0.39133358060E+02 -0.51991060185E+00  0.57049538956E+02  0.10000000000E+01 0.  0.
<mgrwt>
<rscale>  0 0.12498907E+03</rscale>
<asrwt>0</asrwt>
<pdfrwt beam="1">  1        4 0.61753055E-02 0.12498907E+03</pdfrwt>
<pdfrwt beam="2">  1       -4 0.14969211E-01 0.12498907E+03</pdfrwt>
<totfact> 0.10189418E+04</totfact>
</mgrwt>
</event>
<event>
 5    1  0.3316206E-002  0.1249924E+03  0.7818608E-02  0.1235081E+00
          4   -1    0    0  501    0  0.00000000000E+00  0.00000000000E+00  0.47413183992E+02  0.47430189925E+02  0.12700000000E+01 0.  1.
         -4   -1    0    0    0  501 -0.00000000000E+00 -0.00000000000E+00 -0.82340761134E+02  0.82350554607E+02  0.12700000000E+01 0.  1.
         25    2    1    2    0    0  0.00000000000E+00  0.00000000000E+00 -0.34927577142E+02  0.12978074453E+03  0.12499242380E+03 0.  0.
    9000005    1    3    3    0    0 -0.37486441201E+02 -0.44070544671E+02 -0.41976023296E+02  0.71487290571E+02  0.10000000000E+01 0.  0.
    9000005    1    3    3    0    0  0.37486441201E+02  0.44070544671E+02  0.70484461540E+01  0.58293453961E+02  0.10000000000E+01 0.  0.
<mgrwt>
<rscale>  0 0.12499242E+03</rscale>
<asrwt>0</asrwt>
<pdfrwt beam="1">  1        4 0.72963975E-02 0.12499242E+03</pdfrwt>
<pdfrwt beam="2">  1       -4 0.12669871E-01 0.12499242E+03</pdfrwt>
<totfact> 0.10350970E+04</totfact>
</mgrwt>
</event>
<event>
 5    1  0.3316206E-002  0.1249996E+03  0.7818608E-02  0.1235070E+00
          4   -1    0    0  501    0  0.00000000000E+00  0.00000000000E+00  0.14643212371E+03  0.14643763094E+03  0.12700000000E+01 0. -1.
         -4   -1    0    0    0  501 -0.00000000000E+00 -0.00000000000E+00 -0.26654896969E+02  0.26685135046E+02  0.12700000000E+01 0. -1.
         25    2    1    2    0    0  0.00000000000E+00  0.00000000000E+00  0.11977722674E+03  0.17312276598E+03  0.12499963222E+03 0.  0.
    9000005    1    3    3    0    0 -0.54325408995E+02 -0.30882376125E+02  0.60589088344E+02  0.87046015670E+02  0.10000000000E+01 0.  0.
    9000005    1    3    3    0    0  0.54325408995E+02  0.30882376125E+02  0.59188138399E+02  0.86076750315E+02  0.10000000000E+01 0.  0.
<mgrwt>
<rscale>  0 0.12499963E+03</rscale>
<asrwt>0</asrwt>
<pdfrwt beam="1">  1        4 0.22530769E-01 0.12499963E+03</pdfrwt>
<pdfrwt beam="2">  1       -4 0.41035030E-02 0.12499963E+03</pdfrwt>
<totfact> 0.94870563E+03</totfact>
</mgrwt>
</event>
<event>
 5    1  0.3316206E-002  0.1249870E+03  0.7818608E-02  0.1235090E+00
         -4   -1    0    0    0  501 -0.00000000000E+00  0.00000000000E+00  0.66900658031E+02  0.66912711385E+02  0.12700000000E+01 0.  1.
          4   -1    0    0  501    0  0.00000000000E+00 -0.00000000000E+00 -0.58352457144E+02  0.58366275834E+02  0.12700000000E+01 0.  1.
         25    2    1    2    0    0  0.00000000000E+00  0.00000000000E+00  0.85482008868E+01  0.12527898722E+03  0.12498701093E+03 0.  0.
    9000005    1    3    3    0    0  0.50401298597E+02 -0.34903423958E+01 -0.32580868501E+02  0.60124756819E+02  0.10000000000E+01 0.  0.
    9000005    1    3    3    0    0 -0.50401298597E+02  0.34903423958E+01  0.41129069388E+02  0.65154230400E+02  0.10000000000E+01 0.  0.
<mgrwt>
<rscale>  0 0.12498701E+03</rscale>
<asrwt>0</asrwt>
<pdfrwt beam="2">  1        4 0.89792913E-02 0.12498701E+03</pdfrwt>
<pdfrwt beam="1">  1       -4 0.10294399E-01 0.12498701E+03</pdfrwt>
<totfact> 0.10449873E+04</totfact>
</mgrwt>
</event>
<event>
 5    1  0.3316206E-002  0.1249990E+03  0.7818608E-02  0.1235071E+00
         -4   -1    0    0    0  501 -0.00000000000E+00  0.00000000000E+00  0.25934652451E+02  0.25965729294E+02  0.12700000000E+01 0.  1.
          4   -1    0    0  501    0  0.00000000000E+00 -0.00000000000E+00 -0.15049247387E+03  0.15049783252E+03  0.12700000000E+01 0.  1.
         25    2    1    2    0    0  0.00000000000E+00  0.00000000000E+00 -0.12455782142E+03  0.17646356181E+03  0.12499895107E+03 0.  0.
    9000005    1    3    3    0    0  0.54181969402E+02  0.10118009864E+02 -0.10384980846E+03  0.11757483851E+03  0.10000000000E+01 0.  0.
    9000005    1    3    3    0    0 -0.54181969402E+02 -0.10118009864E+02 -0.20708012961E+02  0.58888723307E+02  0.10000000000E+01 0.  0.
<mgrwt>
<rscale>  0 0.12499895E+03</rscale>
<asrwt>0</asrwt>
<pdfrwt beam="2">  1        4 0.23155491E-01 0.12499895E+03</pdfrwt>
<pdfrwt beam="1">  1       -4 0.39927493E-02 0.12499895E+03</pdfrwt>
<totfact> 0.94259692E+03</totfact>
</mgrwt>
</event>
<event>
 5    1  0.3316206E-002  0.1250026E+03  0.7818608E-02  0.1235065E+00
         -4   -1    0    0    0  501 -0.00000000000E+00  0.00000000000E+00  0.38635483917E+02  0.38656351580E+02  0.12700000000E+01 0.  1.
          4   -1    0    0  501    0  0.00000000000E+00 -0.00000000000E+00 -0.10105736209E+03  0.10106534190E+03  0.12700000000E+01 0.  1.
         25    2    1    2    0    0  0.00000000000E+00  0.00000000000E+00 -0.62421878174E+02  0.13972169348E+03  0.12500264299E+03 0.  0.
    9000005    1    3    3    0    0  0.22088187686E+02  0.48389381391E+02 -0.67875775869E+02  0.86241180514E+02  0.10000000000E+01 0.  0.
    9000005    1    3    3    0    0 -0.22088187686E+02 -0.48389381391E+02  0.54538976951E+01  0.53480512962E+02  0.10000000000E+01 0.  0.
<mgrwt>
<rscale>  0 0.12500264E+03</rscale>
<asrwt>0</asrwt>
<pdfrwt beam="2">  1        4 0.15549505E-01 0.12500264E+03</pdfrwt>
<pdfrwt beam="1">  1       -4 0.59461397E-02 0.12500264E+03</pdfrwt>
<totfact> 0.10138753E+04</totfact>
</mgrwt>
</event>
<event>
 5    1  0.3316206E-002  0.1250061E+03  0.7818608E-02  0.1235060E+00
         -4   -1    0    0    0  501 -0.00000000000E+00  0.00000000000E+00  0.57846400845E+03  0.57846540257E+03  0.12700000000E+01 0. -1.
          4   -1    0    0  501    0  0.00000000000E+00 -0.00000000000E+00 -0.66923333881E+01  0.68117711483E+01  0.12700000000E+01 0. -1.
         25    2    1    2    0    0  0.00000000000E+00  0.00000000000E+00  0.57177167506E+03  0.58527717372E+03  0.12500608655E+03 0.  0.
    9000005    1    3    3    0    0 -0.72039043141E+01  0.77327335278E+01 -0.25011098592E+01  0.10906280562E+02  0.10000000000E+01 0.  0.
    9000005    1    3    3    0    0  0.72039043141E+01 -0.77327335278E+01  0.57427278492E+03  0.57437089316E+03  0.10000000000E+01 0.  0.
<mgrwt>
<rscale>  0 0.12500609E+03</rscale>
<asrwt>0</asrwt>
<pdfrwt beam="2">  1        4 0.10388843E-02 0.12500609E+03</pdfrwt>
<pdfrwt beam="1">  1       -4 0.89003778E-01 0.12500609E+03</pdfrwt>
<totfact> 0.49803685E+03</totfact>
</mgrwt>
</event>
<event>
 5    1  0.3316206E-002  0.1250003E+03  0.7818608E-02  0.1235069E+00
          4   -1    0    0  501    0  0.00000000000E+00  0.00000000000E+00  0.44637823631E+02  0.44655886493E+02  0.12700000000E+01 0.  1.
         -4   -1    0    0    0  501 -0.00000000000E+00 -0.00000000000E+00 -0.87469852515E+02  0.87479071778E+02  0.12700000000E+01 0.  1.
         25    2    1    2    0    0  0.00000000000E+00  0.00000000000E+00 -0.42832028885E+02  0.13213495827E+03  0.12500025800E+03 0.  0.
    9000005    1    3    3    0    0  0.61049692748E+02 -0.82612348947E+01 -0.32500374811E+02  0.69660514996E+02  0.10000000000E+01 0.  0.
    9000005    1    3    3    0    0 -0.61049692748E+02  0.82612348947E+01 -0.10331654074E+02  0.62474443275E+02  0.10000000000E+01 0.  0.
<mgrwt>
<rscale>  0 0.12500026E+03</rscale>
<asrwt>0</asrwt>
<pdfrwt beam="1">  1        4 0.68694561E-02 0.12500026E+03</pdfrwt>
<pdfrwt beam="2">  1       -4 0.13458999E-01 0.12500026E+03</pdfrwt>
<totfact> 0.10298759E+04</totfact>
</mgrwt>
</event>
<event>
 5    1  0.3316206E-002  0.1249998E+03  0.7818608E-02  0.1235070E+00
          4   -1    0    0  501    0  0.00000000000E+00  0.00000000000E+00  0.34590654587E+01  0.36848383747E+01  0.12700000000E+01 0.  1.
         -4   -1    0    0    0  501 -0.00000000000E+00 -0.00000000000E+00 -0.10933608429E+04  0.10933615805E+04  0.12700000000E+01 0.  1.
         25    2    1    2    0    0  0.00000000000E+00  0.00000000000E+00 -0.10899017774E+04  0.10970464188E+04  0.12499984268E+03 0.  0.
    9000005    1    3    3    0    0  0.17425520107E+02 -0.95687779915E+01 -0.10649120989E+04  0.10650981122E+04  0.10000000000E+01 0.  0.
    9000005    1    3    3    0    0 -0.17425520107E+02  0.95687779915E+01 -0.24989678490E+02  0.31948306595E+02  0.10000000000E+01 0.  0.
<mgrwt>
<rscale>  0 0.12499984E+03</rscale>
<asrwt>0</asrwt>
<pdfrwt beam="1">  1        4 0.54958868E-03 0.12499984E+03</pdfrwt>
<pdfrwt beam="2">  1       -4 0.16822652E+00 0.12499984E+03</pdfrwt>
<totfact> 0.27570136E+03</totfact>
</mgrwt>
</event>
<event>
 5    1  0.3316206E-002  0.1250006E+03  0.7818608E-02  0.1235068E+00
          4   -1    0    0  501    0  0.00000000000E+00  0.00000000000E+00  0.34086361499E+03  0.34086598088E+03  0.12700000000E+01 0.  1.
         -4   -1    0    0    0  501 -0.00000000000E+00 -0.00000000000E+00 -0.11422364801E+02  0.11492750657E+02  0.12700000000E+01 0.  1.
         25    2    1    2    0    0  0.00000000000E+00  0.00000000000E+00  0.32944125018E+03  0.35235873154E+03  0.12500055347E+03 0.  0.
    9000005    1    3    3    0    0  0.28209599103E+02  0.34984631600E+02  0.42316676056E+02  0.61736593704E+02  0.10000000000E+01 0.  0.
    9000005    1    3    3    0    0 -0.28209599103E+02 -0.34984631600E+02  0.28712457413E+03  0.29062213783E+03  0.10000000000E+01 0.  0.
<mgrwt>
<rscale>  0 0.12500055E+03</rscale>
<asrwt>0</asrwt>
<pdfrwt beam="1">  1        4 0.52446141E-01 0.12500055E+03</pdfrwt>
<pdfrwt beam="2">  1       -4 0.17628836E-02 0.12500055E+03</pdfrwt>
<totfact> 0.69464999E+03</totfact>
</mgrwt>
</event>
<event>
 5    1  0.3316206E-002  0.1249975E+03  0.7818608E-02  0.1235073E+00
         -4   -1    0    0    0  501 -0.00000000000E+00  0.00000000000E+00  0.92191388329E+02  0.92200135477E+02  0.12700000000E+01 0.  1.
          4   -1    0    0  501    0  0.00000000000E+00 -0.00000000000E+00 -0.42349103471E+02  0.42368142098E+02  0.12700000000E+01 0.  1.
         25    2    1    2    0    0  0.00000000000E+00  0.00000000000E+00  0.49842284858E+02  0.13456827757E+03  0.12499747185E+03 0.  0.
    9000005    1    3    3    0    0  0.25088652851E+02 -0.54867669707E+02  0.42452691476E+02  0.73777589379E+02  0.10000000000E+01 0.  0.
    9000005    1    3    3    0    0 -0.25088652851E+02  0.54867669707E+02  0.73895933815E+01  0.60790688196E+02  0.10000000000E+01 0.  0.
<mgrwt>
<rscale>  0 0.12499747E+03</rscale>
<asrwt>0</asrwt>
<pdfrwt beam="2">  1        4 0.65173841E-02 0.12499747E+03</pdfrwt>
<pdfrwt beam="1">  1       -4 0.14185428E-01 0.12499747E+03</pdfrwt>
<totfact> 0.10247763E+04</totfact>
</mgrwt>
</event>
<event>
 5    1  0.3316206E-002  0.1249998E+03  0.7818608E-02  0.1235070E+00
          4   -1    0    0  501    0  0.00000000000E+00  0.00000000000E+00  0.30893934317E+03  0.30894195354E+03  0.12700000000E+01 0.  1.
         -4   -1    0    0    0  501 -0.00000000000E+00 -0.00000000000E+00 -0.12609457903E+02  0.12673252487E+02  0.12700000000E+01 0.  1.
         25    2    1    2    0    0  0.00000000000E+00  0.00000000000E+00  0.29632988526E+03  0.32161520602E+03  0.12499975939E+03 0.  0.
    9000005    1    3    3    0    0 -0.33287649759E+02 -0.13128722119E+02  0.27998328192E+03  0.28226241182E+03  0.10000000000E+01 0.  0.
    9000005    1    3    3    0    0  0.33287649759E+02  0.13128722119E+02  0.16346603342E+02  0.39352794206E+02  0.10000000000E+01 0.  0.
<mgrwt>
<rscale>  0 0.12499976E+03</rscale>
<asrwt>0</asrwt>
<pdfrwt beam="1">  1        4 0.47534237E-01 0.12499976E+03</pdfrwt>
<pdfrwt beam="2">  1       -4 0.19450247E-02 0.12499976E+03</pdfrwt>
<totfact> 0.72964817E+03</totfact>
</mgrwt>
</event>
<event>
 5    1  0.3316206E-002  0.1249965E+03  0.7818608E-02  0.1235075E+00
         -4   -1    0    0    0  501 -0.00000000000E+00  0.00000000000E+00  0.44331151656E+03  0.44331333571E+03  0.12700000000E+01 0.  1.
          4   -1    0    0  501    0  0.00000000000E+00 -0.00000000000E+00 -0.87634138392E+01  0.88549603115E+01  0.12700000000E+01 0.  1.
         25    2    1    2    0    0  0.00000000000E+00  0.00000000000E+00  0.43454810272E+03  0.45216829602E+03  0.12499645733E+03 0.  0.
    9000005    1    3    3    0    0 -0.10242713653E+02 -0.26679012339E+02  0.16241975017E+02  0.32885933692E+02  0.10000000000E+01 0.  0.
    9000005    1    3    3    0    0  0.10242713653E+02  0.26679012339E+02  0.41830612771E+03  0.41928236233E+03  0.10000000000E+01 0.  0.
<mgrwt>
<rscale>  0 0.12499646E+03</rscale>
<asrwt>0</asrwt>
<pdfrwt beam="2">  1        4 0.13553997E-02 0.12499646E+03</pdfrwt>
<pdfrwt beam="1">  1       -4 0.68208944E-01 0.12499646E+03</pdfrwt>
<totfact> 0.59781082E+03</totfact>
</mgrwt>
</event>
<event>
 5    1  0.3316206E-002  0.1250004E+03  0.7818608E-02  0.1235069E+00
         -4   -1    0    0    0  501 -0.00000000000E+00  0.00000000000E+00  0.90000410624E+01  0.90892045375E+01  0.12700000000E+01 0.  1.
          4   -1    0    0  501    0  0.00000000000E+00 -0.00000000000E+00 -0.43179895650E+03  0.43180082415E+03  0.12700000000E+01 0.  1.
         25    2    1    2    0    0  0.00000000000E+00  0.00000000000E+00 -0.42279891544E+03  0.44089002869E+03  0.12500037799E+03 0.  0.
    9000005    1    3    3    0    0 -0.27821921008E+02  0.33810557042E+02 -0.36866506499E+03  0.37125751602E+03  0.10000000000E+01 0.  0.
    9000005    1    3    3    0    0  0.27821921008E+02 -0.33810557042E+02 -0.54133850452E+02  0.69632512671E+02  0.10000000000E+01 0.  0.
<mgrwt>
<rscale>  0 0.12500038E+03</rscale>
<asrwt>0</asrwt>
<pdfrwt beam="2">  1        4 0.66437595E-01 0.12500038E+03</pdfrwt>
<pdfrwt beam="1">  1       -4 0.13916244E-02 0.12500038E+03</pdfrwt>
<totfact> 0.60760631E+03</totfact>
</mgrwt>
</event>
<event>
 5    1  0.3316206E-002  0.1250043E+03  0.7818608E-02  0.1235063E+00
          4   -1    0    0  501    0  0.00000000000E+00  0.00000000000E+00  0.15895127061E+02  0.15945782022E+02  0.12700000000E+01 0.  1.
         -4   -1    0    0    0  501 -0.00000000000E+00 -0.00000000000E+00 -0.24532495648E+03  0.24532824373E+03  0.12700000000E+01 0.  1.
         25    2    1    2    0    0  0.00000000000E+00  0.00000000000E+00 -0.22942982942E+03  0.26127402575E+03  0.12500427955E+03 0.  0.
    9000005    1    3    3    0    0 -0.31244085317E+02  0.32096868790E+01 -0.22763990926E+03  0.22979865806E+03  0.10000000000E+01 0.  0.
    9000005    1    3    3    0    0  0.31244085317E+02 -0.32096868790E+01 -0.17899201558E+01  0.31475367691E+02  0.10000000000E+01 0.  0.
<mgrwt>
<rscale>  0 0.12500428E+03</rscale>
<asrwt>0</asrwt>
<pdfrwt beam="1">  1        4 0.24495538E-02 0.12500428E+03</pdfrwt>
<pdfrwt beam="2">  1       -4 0.37746447E-01 0.12500428E+03</pdfrwt>
<totfact> 0.80719913E+03</totfact>
</mgrwt>
</event>
<event>
 5    1  0.3316206E-002  0.1250192E+03  0.7818608E-02  0.1235039E+00
          4   -1    0    0  501    0  0.00000000000E+00  0.00000000000E+00  0.54809783987E+03  0.54809931123E+03  0.12700000000E+01 0. -1.
         -4   -1    0    0    0  501 -0.00000000000E+00 -0.00000000000E+00 -0.70710628889E+01  0.71842070111E+01  0.12700000000E+01 0. -1.
         25    2    1    2    0    0  0.00000000000E+00  0.00000000000E+00  0.54102677698E+03  0.55528351824E+03  0.12501924739E+03 0.  0.
    9000005    1    3    3    0    0  0.56566074839E+02  0.11348807434E+02  0.16373629916E+03  0.17360614020E+03  0.10000000000E+01 0.  0.
    9000005    1    3    3    0    0 -0.56566074839E+02 -0.11348807434E+02  0.37729047782E+03  0.38167737804E+03  0.10000000000E+01 0.  0.
<mgrwt>
<rscale>  0 0.12501925E+03</rscale>
<asrwt>0</asrwt>
<pdfrwt beam="1">  1        4 0.84331569E-01 0.12501925E+03</pdfrwt>
<pdfrwt beam="2">  1       -4 0.10966723E-02 0.12501925E+03</pdfrwt>
<totfact> 0.51795747E+03</totfact>
</mgrwt>
</event>
<event>
 5    1  0.3316206E-002  0.1249988E+03  0.7818608E-02  0.1235071E+00
         -4   -1    0    0    0  501 -0.00000000000E+00  0.00000000000E+00  0.31251127280E+02  0.31276922103E+02  0.12700000000E+01 0.  1.
          4   -1    0    0  501    0  0.00000000000E+00 -0.00000000000E+00 -0.12491249873E+03  0.12491895469E+03  0.12700000000E+01 0.  1.
         25    2    1    2    0    0  0.00000000000E+00  0.00000000000E+00 -0.93661371455E+02  0.15619587679E+03  0.12499879769E+03 0.  0.
    9000005    1    3    3    0    0 -0.76046594325E+01 -0.60104813455E+02 -0.65976398294E+02  0.89578482782E+02  0.10000000000E+01 0.  0.
    9000005    1    3    3    0    0  0.76046594325E+01  0.60104813455E+02 -0.27684973161E+02  0.66617394009E+02  0.10000000000E+01 0.  0.
<mgrwt>
<rscale>  0 0.12499880E+03</rscale>
<asrwt>0</asrwt>
<pdfrwt beam="2">  1        4 0.19219788E-01 0.12499880E+03</pdfrwt>
<pdfrwt beam="1">  1       -4 0.48103466E-02 0.12499880E+03</pdfrwt>
<totfact> 0.98083895E+03</totfact>
</mgrwt>
</event>
<event>
 5    1  0.3316206E-002  0.1250015E+03  0.7818608E-02  0.1235067E+00
         -4   -1    0    0    0  501 -0.00000000000E+00  0.00000000000E+00  0.19190663863E+02  0.19232640991E+02  0.12700000000E+01 0.  1.
          4   -1    0    0  501    0  0.00000000000E+00 -0.00000000000E+00 -0.20328814308E+03  0.20329211007E+03  0.12700000000E+01 0.  1.
         25    2    1    2    0    0  0.00000000000E+00  0.00000000000E+00 -0.18409747921E+03  0.22252475106E+03  0.12500153191E+03 0.  0.
    9000005    1    3    3    0    0  0.21997996044E+02 -0.21420904451E+02 -0.18894297533E+03  0.19142417534E+03  0.10000000000E+01 0.  0.
    9000005    1    3    3    0    0 -0.21997996044E+02  0.21420904451E+02  0.48454961160E+01  0.31100575720E+02  0.10000000000E+01 0.  0.
<mgrwt>
<rscale>  0 0.12500153E+03</rscale>
<asrwt>0</asrwt>
<pdfrwt beam="2">  1        4 0.31278631E-01 0.12500153E+03</pdfrwt>
<pdfrwt beam="1">  1       -4 0.29559441E-02 0.12500153E+03</pdfrwt>
<totfact> 0.86467454E+03</totfact>
</mgrwt>
</event>
<event>
 5    1  0.3316206E-002  0.1250296E+03  0.7818608E-02  0.1235023E+00
          4   -1    0    0  501    0  0.00000000000E+00  0.00000000000E+00  0.38999282586E+02  0.39019955692E+02  0.12700000000E+01 0.  1.
         -4   -1    0    0    0  501 -0.00000000000E+00 -0.00000000000E+00 -0.10015835626E+03  0.10016640768E+03  0.12700000000E+01 0.  1.
         25    2    1    2    0    0  0.00000000000E+00  0.00000000000E+00 -0.61159073670E+02  0.13918636337E+03  0.12502964231E+03 0.  0.
    9000005    1    3    3    0    0  0.81487641368E+01  0.57941251198E+02 -0.55058177117E+02  0.80349199217E+02  0.10000000000E+01 0.  0.
    9000005    1    3    3    0    0 -0.81487641368E+01 -0.57941251198E+02 -0.61008965531E+01  0.58837164157E+02  0.10000000000E+01 0.  0.
<mgrwt>
<rscale>  0 0.12502964E+03</rscale>
<asrwt>0</asrwt>
<pdfrwt beam="1">  1        4 0.60020992E-02 0.12502964E+03</pdfrwt>
<pdfrwt beam="2">  1       -4 0.15411187E-01 0.12502964E+03</pdfrwt>
<totfact> 0.10143700E+04</totfact>
</mgrwt>
</event>
<event>
 5    1  0.3316206E-002  0.1250003E+03  0.7818608E-02  0.1235069E+00
          4   -1    0    0  501    0  0.00000000000E+00  0.00000000000E+00  0.79879613964E+01  0.80882895145E+01  0.12700000000E+01 0. -1.
         -4   -1    0    0    0  501 -0.00000000000E+00 -0.00000000000E+00 -0.48586613496E+03  0.48586779478E+03  0.12700000000E+01 0. -1.
         25    2    1    2    0    0  0.00000000000E+00  0.00000000000E+00 -0.47787817356E+03  0.49395608429E+03  0.12500025776E+03 0.  0.
    9000005    1    3    3    0    0  0.25329956468E+02 -0.45530665669E+02 -0.10258642064E+03  0.11506355596E+03  0.10000000000E+01 0.  0.
    9000005    1    3    3    0    0 -0.25329956468E+02  0.45530665669E+02 -0.37529175292E+03  0.37889252833E+03  0.10000000000E+01 0.  0.
<mgrwt>
<rscale>  0 0.12500026E+03</rscale>
<asrwt>0</asrwt>
<pdfrwt beam="1">  1        4 0.12367627E-02 0.12500026E+03</pdfrwt>
<pdfrwt beam="2">  1       -4 0.74756458E-01 0.12500026E+03</pdfrwt>
<totfact> 0.56336059E+03</totfact>
</mgrwt>
</event>
<event>
 5    1  0.3316206E-002  0.1249922E+03  0.7818608E-02  0.1235081E+00
          4   -1    0    0  501    0  0.00000000000E+00  0.00000000000E+00  0.26977527005E+02  0.27007403861E+02  0.12700000000E+01 0. -1.
         -4   -1    0    0    0  501 -0.00000000000E+00 -0.00000000000E+00 -0.14466559049E+03  0.14467116496E+03  0.12700000000E+01 0. -1.
         25    2    1    2    0    0  0.00000000000E+00  0.00000000000E+00 -0.11768806349E+03  0.17167856883E+03  0.12499220258E+03 0.  0.
    9000005    1    3    3    0    0  0.40029909545E+02 -0.47133312676E+02 -0.71191905926E+02  0.94303925111E+02  0.10000000000E+01 0.  0.
    9000005    1    3    3    0    0 -0.40029909545E+02  0.47133312676E+02 -0.46496157560E+02  0.77374643714E+02  0.10000000000E+01 0.  0.
<mgrwt>
<rscale>  0 0.12499220E+03</rscale>
<asrwt>0</asrwt>
<pdfrwt beam="1">  1        4 0.41531159E-02 0.12499220E+03</pdfrwt>
<pdfrwt beam="2">  1       -4 0.22258971E-01 0.12499220E+03</pdfrwt>
<totfact> 0.95153346E+03</totfact>
</mgrwt>
</event>
<event>
 5    1  0.3316206E-002  0.1249955E+03  0.7818608E-02  0.1235076E+00
         -4   -1    0    0    0  501 -0.00000000000E+00  0.00000000000E+00  0.64666844172E+03  0.64666968880E+03  0.12700000000E+01 0.  1.
          4   -1    0    0  501    0  0.00000000000E+00 -0.00000000000E+00 -0.59721151797E+01  0.61056580087E+01  0.12700000000E+01 0.  1.
         25    2    1    2    0    0  0.00000000000E+00  0.00000000000E+00  0.64069632654E+03  0.65277534681E+03  0.12499548217E+03 0.  0.
    9000005    1    3    3    0    0 -0.57408900041E+02 -0.15975635500E+02  0.22209432349E+03  0.22995193250E+03  0.10000000000E+01 0.  0.
    9000005    1    3    3    0    0  0.57408900041E+02  0.15975635500E+02  0.41860200304E+03  0.42282341431E+03  0.10000000000E+01 0.  0.
<mgrwt>
<rscale>  0 0.12499548E+03</rscale>
<asrwt>0</asrwt>
<pdfrwt beam="2">  1        4 0.92915546E-03 0.12499548E+03</pdfrwt>
<pdfrwt beam="1">  1       -4 0.99497815E-01 0.12499548E+03</pdfrwt>
<totfact> 0.45701496E+03</totfact>
</mgrwt>
</event>
<event>
 5    1  0.3316206E-002  0.1250024E+03  0.7818608E-02  0.1235066E+00
         -4   -1    0    0    0  501 -0.00000000000E+00  0.00000000000E+00  0.52261602691E+03  0.52261757001E+03  0.12700000000E+01 0. -1.
          4   -1    0    0  501    0  0.00000000000E+00 -0.00000000000E+00 -0.74191939959E+01  0.75271069840E+01  0.12700000000E+01 0. -1.
         25    2    1    2    0    0  0.00000000000E+00  0.00000000000E+00  0.51519683292E+03  0.53014467700E+03  0.12500240758E+03 0.  0.
    9000005    1    3    3    0    0  0.13471882974E+02  0.14017159692E+02  0.50948504370E+03  0.50985682515E+03  0.10000000000E+01 0.  0.
    9000005    1    3    3    0    0 -0.13471882974E+02 -0.14017159692E+02  0.57117892215E+01  0.20287851853E+02  0.10000000000E+01 0.  0.
<mgrwt>
<rscale>  0 0.12500241E+03</rscale>
<asrwt>0</asrwt>
<pdfrwt beam="2">  1        4 0.11498341E-02 0.12500241E+03</pdfrwt>
<pdfrwt beam="1">  1       -4 0.80410893E-01 0.12500241E+03</pdfrwt>
<totfact> 0.53596246E+03</totfact>
</mgrwt>
</event>
<event>
 5    1  0.3316206E-002  0.1250017E+03  0.7818608E-02  0.1235067E+00
          4   -1    0    0  501    0  0.00000000000E+00  0.00000000000E+00  0.13947197958E+04  0.13947203740E+04  0.12700000000E+01 0.  1.
         -4   -1    0    0    0  501 -0.00000000000E+00 -0.00000000000E+00 -0.26562436817E+01  0.29442368275E+01  0.12700000000E+01 0.  1.
         25    2    1    2    0    0  0.00000000000E+00  0.00000000000E+00  0.13920635521E+04  0.13976646108E+04  0.12500172506E+03 0.  0.
    9000005    1    3    3    0    0 -0.40889842535E+02 -0.70800648974E+00  0.16768459600E+03  0.17260244561E+03  0.10000000000E+01 0.  0.
    9000005    1    3    3    0    0  0.40889842535E+02  0.70800648974E+00  0.12243789561E+04  0.12250621652E+04  0.10000000000E+01 0.  0.
<mgrwt>
<rscale>  0 0.12500173E+03</rscale>
<asrwt>0</asrwt>
<pdfrwt beam="1">  1        4 0.21459460E+00 0.12500173E+03</pdfrwt>
<pdfrwt beam="2">  1       -4 0.43085042E-03 0.12500173E+03</pdfrwt>
<totfact> 0.20030324E+03</totfact>
</mgrwt>
</event>
<event>
 5    1  0.3316206E-002  0.1250003E+03  0.7818608E-02  0.1235069E+00
         -4   -1    0    0    0  501 -0.00000000000E+00  0.00000000000E+00  0.13704221693E+02  0.13762942716E+02  0.12700000000E+01 0.  1.
          4   -1    0    0  501    0  0.00000000000E+00 -0.00000000000E+00 -0.28437176228E+03  0.28437459817E+03  0.12700000000E+01 0.  1.
         25    2    1    2    0    0  0.00000000000E+00  0.00000000000E+00 -0.27066754059E+03  0.29813754089E+03  0.12500030302E+03 0.  0.
    9000005    1    3    3    0    0 -0.38949365689E+02  0.48869029075E+02 -0.13577258076E+03  0.14946714949E+03  0.10000000000E+01 0.  0.
    9000005    1    3    3    0    0  0.38949365689E+02 -0.48869029075E+02 -0.13489495984E+03  0.14867039140E+03  0.10000000000E+01 0.  0.
<mgrwt>
<rscale>  0 0.12500030E+03</rscale>
<asrwt>0</asrwt>
<pdfrwt beam="2">  1        4 0.43754233E-01 0.12500030E+03</pdfrwt>
<pdfrwt beam="1">  1       -4 0.21130772E-02 0.12500030E+03</pdfrwt>
<totfact> 0.75832549E+03</totfact>
</mgrwt>
</event>
<event>
 5    1  0.3316206E-002  0.1249991E+03  0.7818608E-02  0.1235071E+00
          4   -1    0    0  501    0  0.00000000000E+00  0.00000000000E+00  0.76398719175E+01  0.77447106412E+01  0.12700000000E+01 0. -1.
         -4   -1    0    0    0  501 -0.00000000000E+00 -0.00000000000E+00 -0.50770077349E+03  0.50770236192E+03  0.12700000000E+01 0. -1.
         25    2    1    2    0    0  0.00000000000E+00  0.00000000000E+00 -0.50006090157E+03  0.51544707257E+03  0.12499911733E+03 0.  0.
    9000005    1    3    3    0    0 -0.89560734206E+01 -0.30268820669E+02 -0.27631505160E+02  0.41963231921E+02  0.10000000000E+01 0.  0.
    9000005    1    3    3    0    0  0.89560734206E+01  0.30268820669E+02 -0.47242939641E+03  0.47348384064E+03  0.10000000000E+01 0.  0.
<mgrwt>
<rscale>  0 0.12499912E+03</rscale>
<asrwt>0</asrwt>
<pdfrwt beam="1">  1        4 0.11835520E-02 0.12499912E+03</pdfrwt>
<pdfrwt beam="2">  1       -4 0.78115972E-01 0.12499912E+03</pdfrwt>
<totfact> 0.54686543E+03</totfact>
</mgrwt>
</event>
<event>
 5    1  0.3316206E-002  0.1250017E+03  0.7818608E-02  0.1235067E+00
          4   -1    0    0  501    0  0.00000000000E+00  0.00000000000E+00  0.66791401643E+03  0.66791522384E+03  0.12700000000E+01 0. -1.
         -4   -1    0    0    0  501 -0.00000000000E+00 -0.00000000000E+00 -0.57784209716E+01  0.59163374587E+01  0.12700000000E+01 0. -1.
         25    2    1    2    0    0  0.00000000000E+00  0.00000000000E+00  0.66213559545E+03  0.67383156130E+03  0.12500170493E+03 0.  0.
    9000005    1    3    3    0    0  0.81215314551E+00  0.34314539406E+02  0.61257833202E+03  0.61354002320E+03  0.10000000000E+01 0.  0.
    9000005    1    3    3    0    0 -0.81215314551E+00 -0.34314539406E+02  0.49557263434E+02  0.60291538100E+02  0.10000000000E+01 0.  0.
<mgrwt>
<rscale>  0 0.12500170E+03</rscale>
<asrwt>0</asrwt>
<pdfrwt beam="1">  1        4 0.10276674E+00 0.12500170E+03</pdfrwt>
<pdfrwt beam="2">  1       -4 0.89968937E-03 0.12500170E+03</pdfrwt>
<totfact> 0.44502882E+03</totfact>
</mgrwt>
</event>
<event>
 5    1  0.3316206E-002  0.1250065E+03  0.7818608E-02  0.1235059E+00
          4   -1    0    0  501    0  0.00000000000E+00  0.00000000000E+00  0.44132945131E+02  0.44151214547E+02  0.12700000000E+01 0. -1.
         -4   -1    0    0    0  501 -0.00000000000E+00 -0.00000000000E+00 -0.88479068678E+02  0.88488182793E+02  0.12700000000E+01 0. -1.
         25    2    1    2    0    0  0.00000000000E+00  0.00000000000E+00 -0.44346123547E+02  0.13263939734E+03  0.12500652404E+03 0.  0.
    9000005    1    3    3    0    0 -0.28314829657E+02  0.17825483957E+02 -0.78180340246E+02  0.85044947280E+02  0.10000000000E+01 0.  0.
    9000005    1    3    3    0    0  0.28314829657E+02 -0.17825483957E+02  0.33834216700E+02  0.47594450060E+02  0.10000000000E+01 0.  0.
<mgrwt>
<rscale>  0 0.12500652E+03</rscale>
<asrwt>0</asrwt>
<pdfrwt beam="1">  1        4 0.67917903E-02 0.12500652E+03</pdfrwt>
<pdfrwt beam="2">  1       -4 0.13614271E-01 0.12500652E+03</pdfrwt>
<totfact> 0.10286556E+04</totfact>
</mgrwt>
</event>
<event>
 5    1  0.3316206E-002  0.1250013E+03  0.7818608E-02  0.1235067E+00
          4   -1    0    0  501    0  0.00000000000E+00  0.00000000000E+00  0.54119794022E+02  0.54134693173E+02  0.12700000000E+01 0.  1.
         -4   -1    0    0    0  501 -0.00000000000E+00 -0.00000000000E+00 -0.72148901166E+02  0.72160077879E+02  0.12700000000E+01 0.  1.
         25    2    1    2    0    0  0.00000000000E+00  0.00000000000E+00 -0.18029107144E+02  0.12629477105E+03  0.12500128196E+03 0.  0.
    9000005    1    3    3    0    0 -0.34204496611E+02  0.46180998115E+02  0.15789391400E+02  0.59606518570E+02  0.10000000000E+01 0.  0.
    9000005    1    3    3    0    0  0.34204496611E+02 -0.46180998115E+02 -0.33818498544E+02  0.66688252482E+02  0.10000000000E+01 0.  0.
<mgrwt>
<rscale>  0 0.12500128E+03</rscale>
<asrwt>0</asrwt>
<pdfrwt beam="1">  1        4 0.83281279E-02 0.12500128E+03</pdfrwt>
<pdfrwt beam="2">  1       -4 0.11101837E-01 0.12500128E+03</pdfrwt>
<totfact> 0.10424206E+04</totfact>
</mgrwt>
</event>
<event>
 5    1  0.3316206E-002  0.1249961E+03  0.7818608E-02  0.1235075E+00
          4   -1    0    0  501    0  0.00000000000E+00  0.00000000000E+00  0.61960863139E+02  0.61973877246E+02  0.12700000000E+01 0.  1.
         -4   -1    0    0    0  501 -0.00000000000E+00 -0.00000000000E+00 -0.63013835633E+02  0.63026632317E+02  0.12700000000E+01 0.  1.
         25    2    1    2    0    0  0.00000000000E+00  0.00000000000E+00 -0.10529724942E+01  0.12500050956E+03  0.12499607450E+03 0.  0.
    9000005    1    3    3    0    0 -0.34627456792E+02  0.35888826676E+02 -0.38183313504E+02  0.62817466315E+02  0.10000000000E+01 0.  0.
    9000005    1    3    3    0    0  0.34627456792E+02 -0.35888826676E+02  0.37130341010E+02  0.62183043248E+02  0.10000000000E+01 0.  0.
<mgrwt>
<rscale>  0 0.12499607E+03</rscale>
<asrwt>0</asrwt>
<pdfrwt beam="1">  1        4 0.95344259E-02 0.12499607E+03</pdfrwt>
<pdfrwt beam="2">  1       -4 0.96964218E-02 0.12499607E+03</pdfrwt>
<totfact> 0.10453779E+04</totfact>
</mgrwt>
</event>
<event>
 5    1  0.3316206E-002  0.1249987E+03  0.7818608E-02  0.1235071E+00
         -4   -1    0    0    0  501 -0.00000000000E+00  0.00000000000E+00  0.13616807512E+03  0.13617399745E+03  0.12700000000E+01 0.  1.
          4   -1    0    0  501    0  0.00000000000E+00 -0.00000000000E+00 -0.28665748306E+02  0.28693867392E+02  0.12700000000E+01 0.  1.
         25    2    1    2    0    0  0.00000000000E+00  0.00000000000E+00  0.10750232681E+03  0.16486786484E+03  0.12499865034E+03 0.  0.
    9000005    1    3    3    0    0 -0.40918239929E+02  0.14986793972E+02  0.11282895067E+03  0.12095568801E+03  0.10000000000E+01 0.  0.
    9000005    1    3    3    0    0  0.40918239929E+02 -0.14986793972E+02 -0.53266238579E+01  0.43912176832E+02  0.10000000000E+01 0.  0.
<mgrwt>
<rscale>  0 0.12499865E+03</rscale>
<asrwt>0</asrwt>
<pdfrwt beam="2">  1        4 0.44127337E-02 0.12499865E+03</pdfrwt>
<pdfrwt beam="1">  1       -4 0.20951553E-01 0.12499865E+03</pdfrwt>
<totfact> 0.96415346E+03</totfact>
</mgrwt>
</event>
<event>
 5    1  0.3316206E-002  0.1249991E+03  0.7818608E-02  0.1235071E+00
          4   -1    0    0  501    0  0.00000000000E+00  0.00000000000E+00  0.45643758842E+03  0.45643935525E+03  0.12700000000E+01 0. -1.
         -4   -1    0    0    0  501 -0.00000000000E+00 -0.00000000000E+00 -0.85090969309E+01  0.86033499626E+01  0.12700000000E+01 0. -1.
         25    2    1    2    0    0  0.00000000000E+00  0.00000000000E+00  0.44792849149E+03  0.46504270522E+03  0.12499913674E+03 0.  0.
    9000005    1    3    3    0    0 -0.32415604473E+01  0.62166002074E+02  0.24436750760E+03  0.25217374625E+03  0.10000000000E+01 0.  0.
    9000005    1    3    3    0    0  0.32415604473E+01 -0.62166002074E+02  0.20356098389E+03  0.21286895896E+03  0.10000000000E+01 0.  0.
<mgrwt>
<rscale>  0 0.12499914E+03</rscale>
<asrwt>0</asrwt>
<pdfrwt beam="1">  1        4 0.70228560E-01 0.12499914E+03</pdfrwt>
<pdfrwt beam="2">  1       -4 0.13164779E-02 0.12499914E+03</pdfrwt>
<totfact> 0.58683553E+03</totfact>
</mgrwt>
</event>
<event>
 5    1  0.3316206E-002  0.1250028E+03  0.7818608E-02  0.1235065E+00
          4   -1    0    0  501    0  0.00000000000E+00  0.00000000000E+00  0.12461008378E+03  0.12461655540E+03  0.12700000000E+01 0. -1.
         -4   -1    0    0    0  501 -0.00000000000E+00 -0.00000000000E+00 -0.31329037976E+02  0.31354768705E+02  0.12700000000E+01 0. -1.
         25    2    1    2    0    0  0.00000000000E+00  0.00000000000E+00  0.93281045804E+02  0.15597132410E+03  0.12500280172E+03 0.  0.
    9000005    1    3    3    0    0  0.15337850677E+02 -0.60581947321E+02  0.46571000021E+02  0.77944082826E+02  0.10000000000E+01 0.  0.
    9000005    1    3    3    0    0 -0.15337850677E+02  0.60581947321E+02  0.46710045783E+02  0.78027241279E+02  0.10000000000E+01 0.  0.
<mgrwt>
<rscale>  0 0.12500280E+03</rscale>
<asrwt>0</asrwt>
<pdfrwt beam="1">  1        4 0.19173259E-01 0.12500280E+03</pdfrwt>
<pdfrwt beam="2">  1       -4 0.48223292E-02 0.12500280E+03</pdfrwt>
<totfact> 0.98118971E+03</totfact>
</mgrwt>
</event>
<event>
 5    1  0.3316206E-002  0.1250024E+03  0.7818608E-02  0.1235065E+00
          4   -1    0    0  501    0  0.00000000000E+00  0.00000000000E+00  0.13587617974E+03  0.13588211480E+03  0.12700000000E+01 0.  1.
         -4   -1    0    0    0  501 -0.00000000000E+00 -0.00000000000E+00 -0.28729134526E+02  0.28757191633E+02  0.12700000000E+01 0.  1.
         25    2    1    2    0    0  0.00000000000E+00  0.00000000000E+00  0.10714704522E+03  0.16463930643E+03  0.12500244767E+03 0.  0.
    9000005    1    3    3    0    0 -0.38069960686E+02 -0.24975333501E+02 -0.28051616177E+01  0.45628479284E+02  0.10000000000E+01 0.  0.
    9000005    1    3    3    0    0  0.38069960686E+02  0.24975333501E+02  0.10995220683E+03  0.11901082714E+03  0.10000000000E+01 0.  0.
<mgrwt>
<rscale>  0 0.12500245E+03</rscale>
<asrwt>0</asrwt>
<pdfrwt beam="1">  1        4 0.20906642E-01 0.12500245E+03</pdfrwt>
<pdfrwt beam="2">  1       -4 0.44224817E-02 0.12500245E+03</pdfrwt>
<totfact> 0.96450442E+03</totfact>
</mgrwt>
</event>
<event>
 5    1  0.3316206E-002  0.1249991E+03  0.7818608E-02  0.1235071E+00
          4   -1    0    0  501    0  0.00000000000E+00  0.00000000000E+00  0.71433927268E+03  0.71434040163E+03  0.12700000000E+01 0. -1.
         -4   -1    0    0    0  501 -0.00000000000E+00 -0.00000000000E+00 -0.53933711183E+01  0.55408800763E+01  0.12700000000E+01 0. -1.
         25    2    1    2    0    0  0.00000000000E+00  0.00000000000E+00  0.70894590157E+03  0.71988128171E+03  0.12499907361E+03 0.  0.
    9000005    1    3    3    0    0  0.38746939731E+02  0.60860298909E+01  0.74292813007E+02  0.84016588617E+02  0.10000000000E+01 0.  0.
    9000005    1    3    3    0    0 -0.38746939731E+02 -0.60860298909E+01  0.63465308856E+03  0.63586469309E+03  0.10000000000E+01 0.  0.
<mgrwt>
<rscale>  0 0.12499907E+03</rscale>
<asrwt>0</asrwt>
<pdfrwt beam="1">  1        4 0.10990979E+00 0.12499907E+03</pdfrwt>
<pdfrwt beam="2">  1       -4 0.84118301E-03 0.12499907E+03</pdfrwt>
<totfact> 0.42058593E+03</totfact>
</mgrwt>
</event>
<event>
 4    1  0.3316206E-002  0.1252244E+03  0.7818608E-02  0.1234719E+00
         -4   -1    0    0    0  501 -0.00000000000E+00  0.00000000000E+00  0.17938843410E+02  0.17983742738E+02  0.12700000000E+01 0.  1.
          4   -1    0    0  501    0  0.00000000000E+00 -0.00000000000E+00 -0.21821641483E+03  0.21822011044E+03  0.12700000000E+01 0.  1.
    9000005    1    1    2    0    0 -0.21951666302E+02  0.21879078227E+02 -0.20273936557E+03  0.20509709912E+03  0.10000000000E+01 0.  0.
    9000005    1    1    2    0    0  0.21951666302E+02 -0.21879078227E+02  0.24617941497E+01  0.31106754056E+02  0.10000000000E+01 0.  0.
<mgrwt>
<rscale>  0 0.12522442E+03</rscale>
<asrwt>0</asrwt>
<pdfrwt beam="2">  1        4 0.33575492E-01 0.12522442E+03</pdfrwt>
<pdfrwt beam="1">  1       -4 0.27635603E-02 0.12522442E+03</pdfrwt>
<totfact> 0.83945176E+03</totfact>
</mgrwt>
</event>
<event>
 5    1  0.3316206E-002  0.1249980E+03  0.7818608E-02  0.1235072E+00
         -4   -1    0    0    0  501 -0.00000000000E+00  0.00000000000E+00  0.10800949595E+02  0.10875358024E+02  0.12700000000E+01 0. -1.
          4   -1    0    0  501    0  0.00000000000E+00 -0.00000000000E+00 -0.36032940306E+03  0.36033164114E+03  0.12700000000E+01 0. -1.
         25    2    1    2    0    0  0.00000000000E+00  0.00000000000E+00 -0.34952845346E+03  0.37120699917E+03  0.12499798578E+03 0.  0.
    9000005    1    3    3    0    0  0.18768870482E+02  0.51996233858E+02 -0.88221671919E+02  0.10411504325E+03  0.10000000000E+01 0.  0.
    9000005    1    3    3    0    0 -0.18768870482E+02 -0.51996233858E+02 -0.26130678155E+03  0.26709195592E+03  0.10000000000E+01 0.  0.
<mgrwt>
<rscale>  0 0.12499799E+03</rscale>
<asrwt>0</asrwt>
<pdfrwt beam="2">  1        4 0.55441179E-01 0.12499799E+03</pdfrwt>
<pdfrwt beam="1">  1       -4 0.16675807E-02 0.12499799E+03</pdfrwt>
<totfact> 0.67455859E+03</totfact>
</mgrwt>
</event>
<event>
 5    1  0.3316206E-002  0.1250069E+03  0.7818608E-02  0.1235059E+00
          4   -1    0    0  501    0  0.00000000000E+00  0.00000000000E+00  0.57665170607E+02  0.57679153957E+02  0.12700000000E+01 0.  1.
         -4   -1    0    0    0  501 -0.00000000000E+00 -0.00000000000E+00 -0.67719479653E+02  0.67731387291E+02  0.12700000000E+01 0.  1.
         25    2    1    2    0    0  0.00000000000E+00  0.00000000000E+00 -0.10054309045E+02  0.12541054125E+03  0.12500685872E+03 0.  0.
    9000005    1    3    3    0    0 -0.26528470473E+02 -0.47372494301E+02 -0.36074883918E+02  0.65194403223E+02  0.10000000000E+01 0.  0.
    9000005    1    3    3    0    0  0.26528470473E+02  0.47372494301E+02  0.26020574873E+02  0.60216138025E+02  0.10000000000E+01 0.  0.
<mgrwt>
<rscale>  0 0.12500686E+03</rscale>
<asrwt>0</asrwt>
<pdfrwt beam="1">  1        4 0.88735563E-02 0.12500686E+03</pdfrwt>
<pdfrwt beam="2">  1       -4 0.10420373E-01 0.12500686E+03</pdfrwt>
<totfact> 0.10442318E+04</totfact>
</mgrwt>
</event>
<event>
 5    1  0.3316206E-002  0.1250165E+03  0.7818608E-02  0.1235043E+00
         -4   -1    0    0    0  501 -0.00000000000E+00  0.00000000000E+00  0.28571034198E+03  0.28571316458E+03  0.12700000000E+01 0.  1.
          4   -1    0    0  501    0  0.00000000000E+00 -0.00000000000E+00 -0.13643292739E+02  0.13702274875E+02  0.12700000000E+01 0.  1.
         25    2    1    2    0    0  0.00000000000E+00  0.00000000000E+00  0.27206704925E+03  0.29941543946E+03  0.12501650332E+03 0.  0.
    9000005    1    3    3    0    0 -0.73309215820E+01  0.61645852358E+02  0.15335855147E+03  0.16545029113E+03  0.10000000000E+01 0.  0.
    9000005    1    3    3    0    0  0.73309215820E+01 -0.61645852358E+02  0.11870849777E+03  0.13396514833E+03  0.10000000000E+01 0.  0.
<mgrwt>
<rscale>  0 0.12501650E+03</rscale>
<asrwt>0</asrwt>
<pdfrwt beam="2">  1        4 0.21037225E-02 0.12501650E+03</pdfrwt>
<pdfrwt beam="1">  1       -4 0.43960188E-01 0.12501650E+03</pdfrwt>
<totfact> 0.75644507E+03</totfact>
</mgrwt>
</event>
<event>
 5    1  0.3316206E-002  0.1249994E+03  0.7818608E-02  0.1235070E+00
          4   -1    0    0  501    0  0.00000000000E+00  0.00000000000E+00  0.20877666247E+02  0.20916257981E+02  0.12700000000E+01 0. -1.
         -4   -1    0    0    0  501 -0.00000000000E+00 -0.00000000000E+00 -0.18688655630E+03  0.18689087143E+03  0.12700000000E+01 0. -1.
         25    2    1    2    0    0  0.00000000000E+00  0.00000000000E+00 -0.16600889005E+03  0.20780712941E+03  0.12499940584E+03 0.  0.
    9000005    1    3    3    0    0  0.34365395334E+02 -0.18547870599E+02 -0.16411176248E+03  0.16869699015E+03  0.10000000000E+01 0.  0.
    9000005    1    3    3    0    0 -0.34365395334E+02  0.18547870599E+02 -0.18971275670E+01  0.39110139264E+02  0.10000000000E+01 0.  0.
<mgrwt>
<rscale>  0 0.12499941E+03</rscale>
<asrwt>0</asrwt>
<pdfrwt beam="1">  1        4 0.32152493E-02 0.12499941E+03</pdfrwt>
<pdfrwt beam="2">  1       -4 0.28755077E-01 0.12499941E+03</pdfrwt>
<totfact> 0.88836443E+03</totfact>
</mgrwt>
</event>
<event>
 5    1  0.3316206E-002  0.1249799E+03  0.7818608E-02  0.1235101E+00
         -4   -1    0    0    0  501 -0.00000000000E+00  0.00000000000E+00  0.21073544489E+02  0.21111778166E+02  0.12700000000E+01 0.  1.
          4   -1    0    0  501    0  0.00000000000E+00 -0.00000000000E+00 -0.18509467243E+03  0.18509902933E+03  0.12700000000E+01 0.  1.
         25    2    1    2    0    0  0.00000000000E+00  0.00000000000E+00 -0.16402112794E+03  0.20621080750E+03  0.12497986526E+03 0.  0.
    9000005    1    3    3    0    0  0.47338887026E+02  0.37028117464E+02 -0.53819066062E+02  0.80681742542E+02  0.10000000000E+01 0.  0.
    9000005    1    3    3    0    0 -0.47338887026E+02 -0.37028117464E+02 -0.11020206187E+03  0.12552906496E+03  0.10000000000E+01 0.  0.
<mgrwt>
<rscale>  0 0.12497987E+03</rscale>
<asrwt>0</asrwt>
<pdfrwt beam="2">  1        4 0.28479378E-01 0.12497987E+03</pdfrwt>
<pdfrwt beam="1">  1       -4 0.32453601E-02 0.12497987E+03</pdfrwt>
<totfact> 0.89138602E+03</totfact>
</mgrwt>
</event>
<event>
 5    1  0.3316206E-002  0.1249965E+03  0.7818608E-02  0.1235075E+00
          4   -1    0    0  501    0  0.00000000000E+00  0.00000000000E+00  0.60428409948E+02  0.60441754018E+02  0.12700000000E+01 0. -1.
         -4   -1    0    0    0  501 -0.00000000000E+00 -0.00000000000E+00 -0.64612278707E+02  0.64624758875E+02  0.12700000000E+01 0. -1.
         25    2    1    2    0    0  0.00000000000E+00  0.00000000000E+00 -0.41838687591E+01  0.12506651289E+03  0.12499651151E+03 0.  0.
    9000005    1    3    3    0    0 -0.55798284453E+02  0.27274391366E+01  0.25926328055E+02  0.61595957324E+02  0.10000000000E+01 0.  0.
    9000005    1    3    3    0    0  0.55798284453E+02 -0.27274391366E+01 -0.30110196814E+02  0.63470555570E+02  0.10000000000E+01 0.  0.
<mgrwt>
<rscale>  0 0.12499651E+03</rscale>
<asrwt>0</asrwt>
<pdfrwt beam="1">  1        4 0.92986650E-02 0.12499651E+03</pdfrwt>
<pdfrwt beam="2">  1       -4 0.99423370E-02 0.12499651E+03</pdfrwt>
<totfact> 0.10452242E+04</totfact>
</mgrwt>
</event>
<event>
 5    1  0.3316206E-002  0.1249991E+03  0.7818608E-02  0.1235071E+00
          4   -1    0    0  501    0  0.00000000000E+00  0.00000000000E+00  0.35215394427E+03  0.35215623431E+03  0.12700000000E+01 0. -1.
         -4   -1    0    0    0  501 -0.00000000000E+00 -0.00000000000E+00 -0.11053607432E+02  0.11126326315E+02  0.12700000000E+01 0. -1.
         25    2    1    2    0    0  0.00000000000E+00  0.00000000000E+00  0.34110033684E+03  0.36328256063E+03  0.12499911626E+03 0.  0.
    9000005    1    3    3    0    0  0.19355764760E+02  0.12261181607E+01 -0.20997005420E+01  0.19533502952E+02  0.10000000000E+01 0.  0.
    9000005    1    3    3    0    0 -0.19355764760E+02 -0.12261181607E+01  0.34320003738E+03  0.34374905768E+03  0.10000000000E+01 0.  0.
<mgrwt>
<rscale>  0 0.12499912E+03</rscale>
<asrwt>0</asrwt>
<pdfrwt beam="1">  1        4 0.54183288E-01 0.12499912E+03</pdfrwt>
<pdfrwt beam="2">  1       -4 0.17063253E-02 0.12499912E+03</pdfrwt>
<totfact> 0.68288952E+03</totfact>
</mgrwt>
</event>
<event>
 5    1  0.3316206E-002  0.1249802E+03  0.7818608E-02  0.1235100E+00
         -4   -1    0    0    0  501 -0.00000000000E+00  0.00000000000E+00  0.52942245884E+01  0.54444204460E+01  0.12700000000E+01 0.  1.
          4   -1    0    0  501    0  0.00000000000E+00 -0.00000000000E+00 -0.72713091510E+03  0.72713202419E+03  0.12700000000E+01 0.  1.
         25    2    1    2    0    0  0.00000000000E+00  0.00000000000E+00 -0.72183669051E+03  0.73257644463E+03  0.12498015626E+03 0.  0.
    9000005    1    3    3    0    0  0.13604310452E+02  0.34322126890E+01 -0.40302069172E+01  0.14632153451E+02  0.10000000000E+01 0.  0.
    9000005    1    3    3    0    0 -0.13604310452E+02 -0.34322126890E+01 -0.71780648360E+03  0.71794429118E+03  0.10000000000E+01 0.  0.
<mgrwt>
<rscale>  0 0.12498016E+03</rscale>
<asrwt>0</asrwt>
<pdfrwt beam="2">  1        4 0.11187786E+00 0.12498016E+03</pdfrwt>
<pdfrwt beam="1">  1       -4 0.82613551E-03 0.12498016E+03</pdfrwt>
<totfact> 0.41439696E+03</totfact>
</mgrwt>
</event>
<event>
 5    1  0.3316206E-002  0.1250010E+03  0.7818608E-02  0.1235068E+00
          4   -1    0    0  501    0  0.00000000000E+00  0.00000000000E+00  0.55204892961E+02  0.55219499335E+02  0.12700000000E+01 0.  1.
         -4   -1    0    0    0  501 -0.00000000000E+00 -0.00000000000E+00 -0.70730641467E+02  0.70742042255E+02  0.12700000000E+01 0.  1.
         25    2    1    2    0    0  0.00000000000E+00  0.00000000000E+00 -0.15525748507E+02  0.12596154159E+03  0.12500104437E+03 0.  0.
    9000005    1    3    3    0    0  0.53029436679E+02 -0.22574622949E+02 -0.32105908945E+02  0.65981240857E+02  0.10000000000E+01 0.  0.
    9000005    1    3    3    0    0 -0.53029436679E+02  0.22574622949E+02  0.16580160438E+02  0.59980300733E+02  0.10000000000E+01 0.  0.
<mgrwt>
<rscale>  0 0.12500104E+03</rscale>
<asrwt>0</asrwt>
<pdfrwt beam="1">  1        4 0.84950611E-02 0.12500104E+03</pdfrwt>
<pdfrwt beam="2">  1       -4 0.10883638E-01 0.12500104E+03</pdfrwt>
<totfact> 0.10431554E+04</totfact>
</mgrwt>
</event>
<event>
 4    1  0.3316206E-002  0.1249185E+03  0.7818608E-02  0.1235197E+00
         -4   -1    0    0    0  501 -0.00000000000E+00  0.00000000000E+00  0.22380526661E+03  0.22380886994E+03  0.12700000000E+01 0.  1.
          4   -1    0    0  501    0  0.00000000000E+00 -0.00000000000E+00 -0.17404155901E+02  0.17450431016E+02  0.12700000000E+01 0.  1.
    9000005    1    1    2    0    0 -0.27535732874E+02  0.20277388195E+01  0.21138678429E+03  0.21318466381E+03  0.10000000000E+01 0.  0.
    9000005    1    1    2    0    0  0.27535732874E+02 -0.20277388195E+01 -0.49856735845E+01  0.28074637143E+02  0.10000000000E+01 0.  0.
<mgrwt>
<rscale>  0 0.12491850E+03</rscale>
<asrwt>0</asrwt>
<pdfrwt beam="2">  1        4 0.26813992E-02 0.12491850E+03</pdfrwt>
<pdfrwt beam="1">  1       -4 0.34435417E-01 0.12491850E+03</pdfrwt>
<totfact> 0.83762252E+03</totfact>
</mgrwt>
</event>
<event>
 5    1  0.3316206E-002  0.1250003E+03  0.7818608E-02  0.1235069E+00
          4   -1    0    0  501    0  0.00000000000E+00  0.00000000000E+00  0.34320376593E+02  0.34343866257E+02  0.12700000000E+01 0.  1.
         -4   -1    0    0    0  501 -0.00000000000E+00 -0.00000000000E+00 -0.11375182887E+03  0.11375891821E+03  0.12700000000E+01 0.  1.
         25    2    1    2    0    0  0.00000000000E+00  0.00000000000E+00 -0.79431452278E+02  0.14810278446E+03  0.12500031662E+03 0.  0.
    9000005    1    3    3    0    0 -0.21709036272E+02  0.47723758431E+02 -0.80007080232E+02  0.95660714308E+02  0.10000000000E+01 0.  0.
    9000005    1    3    3    0    0  0.21709036272E+02 -0.47723758431E+02  0.57562795440E+00  0.52442070156E+02  0.10000000000E+01 0.  0.
<mgrwt>
<rscale>  0 0.12500032E+03</rscale>
<asrwt>0</asrwt>
<pdfrwt beam="1">  1        4 0.52824102E-02 0.12500032E+03</pdfrwt>
<pdfrwt beam="2">  1       -4 0.17502633E-01 0.12500032E+03</pdfrwt>
<totfact> 0.99682522E+03</totfact>
</mgrwt>
</event>
<event>
 5    1  0.3316206E-002  0.1250065E+03  0.7818608E-02  0.1235059E+00
         -4   -1    0    0    0  501 -0.00000000000E+00  0.00000000000E+00  0.47496528482E+03  0.47496698273E+03  0.12700000000E+01 0.  1.
          4   -1    0    0  501    0  0.00000000000E+00 -0.00000000000E+00 -0.81743922166E+01  0.82724596167E+01  0.12700000000E+01 0.  1.
         25    2    1    2    0    0  0.00000000000E+00  0.00000000000E+00  0.46679089260E+03  0.48323944234E+03  0.12500648472E+03 0.  0.
    9000005    1    3    3    0    0 -0.52299489820E+02  0.22690702311E+02  0.13441874531E+03  0.14601199847E+03  0.10000000000E+01 0.  0.
    9000005    1    3    3    0    0  0.52299489820E+02 -0.22690702311E+02  0.33237214729E+03  0.33722744387E+03  0.10000000000E+01 0.  0.
<mgrwt>
<rscale>  0 0.12500648E+03</rscale>
<asrwt>0</asrwt>
<pdfrwt beam="2">  1        4 0.12652727E-02 0.12500648E+03</pdfrwt>
<pdfrwt beam="1">  1       -4 0.73079279E-01 0.12500648E+03</pdfrwt>
<totfact> 0.57180468E+03</totfact>
</mgrwt>
</event>
<event>
 5    1  0.3316206E-002  0.1249991E+03  0.7818608E-02  0.1235071E+00
         -4   -1    0    0    0  501 -0.00000000000E+00  0.00000000000E+00  0.85367535308E+02  0.85376981585E+02  0.12700000000E+01 0.  1.
          4   -1    0    0  501    0  0.00000000000E+00 -0.00000000000E+00 -0.45736588268E+02  0.45754217361E+02  0.12700000000E+01 0.  1.
         25    2    1    2    0    0  0.00000000000E+00  0.00000000000E+00  0.39630947040E+02  0.13113119895E+03  0.12499911749E+03 0.  0.
    9000005    1    3    3    0    0 -0.67035206301E+01 -0.61460548370E+02  0.10266251120E+02  0.62679598809E+02  0.10000000000E+01 0.  0.
    9000005    1    3    3    0    0  0.67035206301E+01  0.61460548370E+02  0.29364695921E+02  0.68451600137E+02  0.10000000000E+01 0.  0.
<mgrwt>
<rscale>  0 0.12499912E+03</rscale>
<asrwt>0</asrwt>
<pdfrwt beam="2">  1        4 0.70384809E-02 0.12499912E+03</pdfrwt>
<pdfrwt beam="1">  1       -4 0.13135550E-01 0.12499912E+03</pdfrwt>
<totfact> 0.10320483E+04</totfact>
</mgrwt>
</event>
<event>
 5    1  0.3316206E-002  0.1249964E+03  0.7818608E-02  0.1235075E+00
          4   -1    0    0  501    0  0.00000000000E+00  0.00000000000E+00  0.33575997609E+02  0.33600007670E+02  0.12700000000E+01 0. -1.
         -4   -1    0    0    0  501 -0.00000000000E+00 -0.00000000000E+00 -0.11626470827E+03  0.11627164439E+03  0.12700000000E+01 0. -1.
         25    2    1    2    0    0  0.00000000000E+00  0.00000000000E+00 -0.82688710657E+02  0.14987165206E+03  0.12499635683E+03 0.  0.
    9000005    1    3    3    0    0  0.23983414424E+01 -0.10654476098E+02 -0.11511749093E+03  0.11563868998E+03  0.10000000000E+01 0.  0.
    9000005    1    3    3    0    0 -0.23983414424E+01  0.10654476098E+02  0.32428780272E+02  0.34232962076E+02  0.10000000000E+01 0.  0.
<mgrwt>
<rscale>  0 0.12499636E+03</rscale>
<asrwt>0</asrwt>
<pdfrwt beam="1">  1        4 0.51679186E-02 0.12499636E+03</pdfrwt>
<pdfrwt beam="2">  1       -4 0.17889258E-01 0.12499636E+03</pdfrwt>
<totfact> 0.99337433E+03</totfact>
</mgrwt>
</event>
<event>
 5    1  0.3316206E-002  0.1250006E+03  0.7818608E-02  0.1235068E+00
         -4   -1    0    0    0  501 -0.00000000000E+00  0.00000000000E+00  0.94293328785E+03  0.94293414311E+03  0.12700000000E+01 0.  1.
          4   -1    0    0  501    0  0.00000000000E+00 -0.00000000000E+00 -0.40444889021E+01  0.42391969144E+01  0.12700000000E+01 0.  1.
         25    2    1    2    0    0  0.00000000000E+00  0.00000000000E+00  0.93888879895E+03  0.94717334002E+03  0.12500063702E+03 0.  0.
    9000005    1    3    3    0    0 -0.29620097298E+02  0.32029834271E+02  0.80848558743E+03  0.80966240220E+03  0.10000000000E+01 0.  0.
    9000005    1    3    3    0    0  0.29620097298E+02 -0.32029834271E+02  0.13040321152E+03  0.13751093783E+03  0.10000000000E+01 0.  0.
<mgrwt>
<rscale>  0 0.12500064E+03</rscale>
<asrwt>0</asrwt>
<pdfrwt beam="2">  1        4 0.63727237E-03 0.12500064E+03</pdfrwt>
<pdfrwt beam="1">  1       -4 0.14508171E+00 0.12500064E+03</pdfrwt>
<totfact> 0.32416088E+03</totfact>
</mgrwt>
</event>
<event>
 5    1  0.3316206E-002  0.1250010E+03  0.7818608E-02  0.1235068E+00
         -4   -1    0    0    0  501 -0.00000000000E+00  0.00000000000E+00  0.12124834756E+03  0.12125499861E+03  0.12700000000E+01 0. -1.
          4   -1    0    0  501    0  0.00000000000E+00 -0.00000000000E+00 -0.32197418737E+02  0.32222456041E+02  0.12700000000E+01 0. -1.
         25    2    1    2    0    0  0.00000000000E+00  0.00000000000E+00  0.89050928828E+02  0.15347745465E+03  0.12500104464E+03 0.  0.
    9000005    1    3    3    0    0  0.57496364768E+02  0.21658818902E+02  0.58545031041E+02  0.84873182204E+02  0.10000000000E+01 0.  0.
    9000005    1    3    3    0    0 -0.57496364768E+02 -0.21658818902E+02  0.30505897786E+02  0.68604272444E+02  0.10000000000E+01 0.  0.
<mgrwt>
<rscale>  0 0.12500104E+03</rscale>
<asrwt>0</asrwt>
<pdfrwt beam="2">  1        4 0.49558867E-02 0.12500104E+03</pdfrwt>
<pdfrwt beam="1">  1       -4 0.18656029E-01 0.12500104E+03</pdfrwt>
<totfact> 0.98612664E+03</totfact>
</mgrwt>
</event>
<event>
 5    1  0.3316206E-002  0.1250245E+03  0.7818608E-02  0.1235031E+00
          4   -1    0    0  501    0  0.00000000000E+00  0.00000000000E+00  0.10706689529E+03  0.10707442723E+03  0.12700000000E+01 0. -1.
         -4   -1    0    0    0  501 -0.00000000000E+00 -0.00000000000E+00 -0.36478619240E+02  0.36500720015E+02  0.12700000000E+01 0. -1.
         25    2    1    2    0    0  0.00000000000E+00  0.00000000000E+00  0.70588276053E+02  0.14357514725E+03  0.12502447037E+03 0.  0.
    9000005    1    3    3    0    0  0.59739649809E+02  0.16704264589E+02  0.44109101748E+02  0.76121423212E+02  0.10000000000E+01 0.  0.
    9000005    1    3    3    0    0 -0.59739649809E+02 -0.16704264589E+02  0.26479174305E+02  0.67453724038E+02  0.10000000000E+01 0.  0.
<mgrwt>
<rscale>  0 0.12502447E+03</rscale>
<asrwt>0</asrwt>
<pdfrwt beam="1">  1        4 0.16474109E-01 0.12502447E+03</pdfrwt>
<pdfrwt beam="2">  1       -4 0.56143747E-02 0.12502447E+03</pdfrwt>
<totfact> 0.10054477E+04</totfact>
</mgrwt>
</event>
<event>
 5    1  0.3316206E-002  0.1249957E+03  0.7818608E-02  0.1235076E+00
         -4   -1    0    0    0  501 -0.00000000000E+00  0.00000000000E+00  0.64665513113E+02  0.64677983009E+02  0.12700000000E+01 0. -1.
          4   -1    0    0  501    0  0.00000000000E+00 -0.00000000000E+00 -0.60377873631E+02  0.60391228868E+02  0.12700000000E+01 0. -1.
         25    2    1    2    0    0  0.00000000000E+00  0.00000000000E+00  0.42876394822E+01  0.12506921188E+03  0.12499569555E+03 0.  0.
    9000005    1    3    3    0    0 -0.25984868881E+02  0.41675590197E+02 -0.36517134463E+02  0.61209225925E+02  0.10000000000E+01 0.  0.
    9000005    1    3    3    0    0  0.25984868881E+02 -0.41675590197E+02  0.40804773945E+02  0.63859985951E+02  0.10000000000E+01 0.  0.
<mgrwt>
<rscale>  0 0.12499570E+03</rscale>
<asrwt>0</asrwt>
<pdfrwt beam="2">  1        4 0.92908902E-02 0.12499570E+03</pdfrwt>
<pdfrwt beam="1">  1       -4 0.99505270E-02 0.12499570E+03</pdfrwt>
<totfact> 0.10452376E+04</totfact>
</mgrwt>
</event>
<event>
 5    1  0.3316206E-002  0.1250028E+03  0.7818608E-02  0.1235065E+00
         -4   -1    0    0    0  501 -0.00000000000E+00  0.00000000000E+00  0.12221387244E+03  0.12222047094E+03  0.12700000000E+01 0. -1.
          4   -1    0    0  501    0  0.00000000000E+00 -0.00000000000E+00 -0.31943787187E+02  0.31969023130E+02  0.12700000000E+01 0. -1.
         25    2    1    2    0    0  0.00000000000E+00  0.00000000000E+00  0.90270085258E+02  0.15418949407E+03  0.12500284713E+03 0.  0.
    9000005    1    3    3    0    0  0.31357439388E+02 -0.19604128141E+02 -0.17004068774E+02  0.40715466349E+02  0.10000000000E+01 0.  0.
    9000005    1    3    3    0    0 -0.31357439388E+02  0.19604128141E+02  0.10727415403E+03  0.11347402773E+03  0.10000000000E+01 0.  0.
<mgrwt>
<rscale>  0 0.12500285E+03</rscale>
<asrwt>0</asrwt>
<pdfrwt beam="2">  1        4 0.49168776E-02 0.12500285E+03</pdfrwt>
<pdfrwt beam="1">  1       -4 0.18804583E-01 0.12500285E+03</pdfrwt>
<totfact> 0.98468541E+03</totfact>
</mgrwt>
</event>
<event>
 5    1  0.3316206E-002  0.1250002E+03  0.7818608E-02  0.1235069E+00
          4   -1    0    0  501    0  0.00000000000E+00  0.00000000000E+00  0.31467115757E+03  0.31467372039E+03  0.12700000000E+01 0.  1.
         -4   -1    0    0    0  501 -0.00000000000E+00 -0.00000000000E+00 -0.12378688351E+02  0.12443666071E+02  0.12700000000E+01 0.  1.
         25    2    1    2    0    0  0.00000000000E+00  0.00000000000E+00  0.30229246922E+03  0.32711738647E+03  0.12500019032E+03 0.  0.
    9000005    1    3    3    0    0 -0.50479902134E+02 -0.34136678815E+02  0.18738190750E+03  0.19704444326E+03  0.10000000000E+01 0.  0.
    9000005    1    3    3    0    0  0.50479902134E+02  0.34136678815E+02  0.11491056172E+03  0.13007294321E+03  0.10000000000E+01 0.  0.
<mgrwt>
<rscale>  0 0.12500019E+03</rscale>
<asrwt>0</asrwt>
<pdfrwt beam="1">  1        4 0.48416135E-01 0.12500019E+03</pdfrwt>
<pdfrwt beam="2">  1       -4 0.19096093E-02 0.12500019E+03</pdfrwt>
<totfact> 0.72317227E+03</totfact>
</mgrwt>
</event>
<event>
 5    1  0.3316206E-002  0.1249986E+03  0.7818608E-02  0.1235071E+00
         -4   -1    0    0    0  501 -0.00000000000E+00  0.00000000000E+00  0.13762969258E+03  0.13763555202E+03  0.12700000000E+01 0. -1.
          4   -1    0    0  501    0  0.00000000000E+00 -0.00000000000E+00 -0.28361019488E+02  0.28389440403E+02  0.12700000000E+01 0. -1.
         25    2    1    2    0    0  0.00000000000E+00  0.00000000000E+00  0.10926867309E+03  0.16602499242E+03  0.12499862075E+03 0.  0.
    9000005    1    3    3    0    0 -0.48474091745E+02 -0.28518629518E+02  0.18451420903E+02  0.59198857534E+02  0.10000000000E+01 0.  0.
    9000005    1    3    3    0    0  0.48474091745E+02  0.28518629518E+02  0.90817252191E+02  0.10682613489E+03  0.10000000000E+01 0.  0.
<mgrwt>
<rscale>  0 0.12499862E+03</rscale>
<asrwt>0</asrwt>
<pdfrwt beam="2">  1        4 0.43658707E-02 0.12499862E+03</pdfrwt>
<pdfrwt beam="1">  1       -4 0.21176436E-01 0.12499862E+03</pdfrwt>
<totfact> 0.96196606E+03</totfact>
</mgrwt>
</event>
<event>
 5    1  0.3316206E-002  0.1250012E+03  0.7818608E-02  0.1235067E+00
         -4   -1    0    0    0  501 -0.00000000000E+00  0.00000000000E+00  0.64795267143E+01  0.66028150392E+01  0.12700000000E+01 0. -1.
          4   -1    0    0  501    0  0.00000000000E+00 -0.00000000000E+00 -0.59706648542E+03  0.59706783611E+03  0.12700000000E+01 0. -1.
         25    2    1    2    0    0  0.00000000000E+00  0.00000000000E+00 -0.59058695871E+03  0.60367065115E+03  0.12500119704E+03 0.  0.
    9000005    1    3    3    0    0 -0.31415012913E+02  0.42668584373E+02 -0.13528234257E+03  0.14529219986E+03  0.10000000000E+01 0.  0.
    9000005    1    3    3    0    0  0.31415012913E+02 -0.42668584373E+02 -0.45530461613E+03  0.45837845128E+03  0.10000000000E+01 0.  0.
<mgrwt>
<rscale>  0 0.12500120E+03</rscale>
<asrwt>0</asrwt>
<pdfrwt beam="2">  1        4 0.91865927E-01 0.12500120E+03</pdfrwt>
<pdfrwt beam="1">  1       -4 0.10064383E-02 0.12500120E+03</pdfrwt>
<totfact> 0.48635465E+03</totfact>
</mgrwt>
</event>
<event>
 5    1  0.3316206E-002  0.1250053E+03  0.7818608E-02  0.1235061E+00
         -4   -1    0    0    0  501 -0.00000000000E+00  0.00000000000E+00  0.26939326632E+03  0.26939625988E+03  0.12700000000E+01 0.  1.
          4   -1    0    0  501    0  0.00000000000E+00 -0.00000000000E+00 -0.14470525813E+02  0.14526149432E+02  0.12700000000E+01 0.  1.
         25    2    1    2    0    0  0.00000000000E+00  0.00000000000E+00  0.25492274051E+03  0.28392240932E+03  0.12500532342E+03 0.  0.
    9000005    1    3    3    0    0  0.22248564988E+01  0.53328516034E+02  0.20129384939E+03  0.20825247756E+03  0.10000000000E+01 0.  0.
    9000005    1    3    3    0    0 -0.22248564988E+01 -0.53328516034E+02  0.53628891117E+02  0.75669931752E+02  0.10000000000E+01 0.  0.
<mgrwt>
<rscale>  0 0.12500532E+03</rscale>
<asrwt>0</asrwt>
<pdfrwt beam="2">  1        4 0.22307440E-02 0.12500532E+03</pdfrwt>
<pdfrwt beam="1">  1       -4 0.41449623E-01 0.12500532E+03</pdfrwt>
<totfact> 0.77651696E+03</totfact>
</mgrwt>
</event>
<event>
 4    1  0.3316206E-002  0.1249297E+03  0.7818608E-02  0.1235179E+00
          4   -1    0    0  501    0  0.00000000000E+00  0.00000000000E+00  0.77287394685E+03  0.77287499029E+03  0.12700000000E+01 0. -1.
         -4   -1    0    0    0  501 -0.00000000000E+00 -0.00000000000E+00 -0.49675703805E+01  0.51273439016E+01  0.12700000000E+01 0. -1.
    9000005    1    1    2    0    0  0.22085243832E+02 -0.49921815855E+02  0.57293681403E+03  0.57553239576E+03  0.10000000000E+01 0.  0.
    9000005    1    1    2    0    0 -0.22085243832E+02  0.49921815855E+02  0.19496956244E+03  0.20246993843E+03  0.10000000000E+01 0.  0.
<mgrwt>
<rscale>  0 0.12492970E+03</rscale>
<asrwt>0</asrwt>
<pdfrwt beam="1">  1        4 0.11891613E+00 0.12492970E+03</pdfrwt>
<pdfrwt beam="2">  1       -4 0.77661166E-03 0.12492970E+03</pdfrwt>
<totfact> 0.39326178E+03</totfact>
</mgrwt>
</event>
<event>
 5    1  0.3316206E-002  0.1249982E+03  0.7818608E-02  0.1235072E+00
         -4   -1    0    0    0  501 -0.00000000000E+00  0.00000000000E+00  0.76808119930E+03  0.76808224925E+03  0.12700000000E+01 0. -1.
          4   -1    0    0  501    0  0.00000000000E+00 -0.00000000000E+00 -0.50052207715E+01  0.51638294871E+01  0.12700000000E+01 0. -1.
         25    2    1    2    0    0  0.00000000000E+00  0.00000000000E+00  0.76307597853E+03  0.77324607874E+03  0.12499819711E+03 0.  0.
    9000005    1    3    3    0    0 -0.48012169133E+02 -0.37404181451E+02  0.29385814313E+03  0.30009640028E+03  0.10000000000E+01 0.  0.
    9000005    1    3    3    0    0  0.48012169133E+02  0.37404181451E+02  0.46921783540E+03  0.47314967847E+03  0.10000000000E+01 0.  0.
<mgrwt>
<rscale>  0 0.12499820E+03</rscale>
<asrwt>0</asrwt>
<pdfrwt beam="2">  1        4 0.78231554E-03 0.12499820E+03</pdfrwt>
<pdfrwt beam="1">  1       -4 0.11817860E+00 0.12499820E+03</pdfrwt>
<totfact> 0.39487725E+03</totfact>
</mgrwt>
</event>
<event>
 5    1  0.3316206E-002  0.1249988E+03  0.7818608E-02  0.1235071E+00
         -4   -1    0    0    0  501 -0.00000000000E+00  0.00000000000E+00  0.14953768017E+03  0.14954307303E+03  0.12700000000E+01 0.  1.
          4   -1    0    0  501    0  0.00000000000E+00 -0.00000000000E+00 -0.26100359722E+02  0.26131239496E+02  0.12700000000E+01 0.  1.
         25    2    1    2    0    0  0.00000000000E+00  0.00000000000E+00  0.12343732045E+03  0.17567431253E+03  0.12499876800E+03 0.  0.
    9000005    1    3    3    0    0  0.26918926236E+02 -0.47651321563E+02  0.19325245531E+02  0.58049480197E+02  0.10000000000E+01 0.  0.
    9000005    1    3    3    0    0 -0.26918926236E+02  0.47651321563E+02  0.10411207492E+03  0.11762483233E+03  0.10000000000E+01 0.  0.
<mgrwt>
<rscale>  0 0.12499877E+03</rscale>
<asrwt>0</asrwt>
<pdfrwt beam="2">  1        4 0.40182302E-02 0.12499877E+03</pdfrwt>
<pdfrwt beam="1">  1       -4 0.23008587E-01 0.12499877E+03</pdfrwt>
<totfact> 0.94404096E+03</totfact>
</mgrwt>
</event>
<event>
 5    1  0.3316206E-002  0.1250143E+03  0.7818608E-02  0.1235047E+00
         -4   -1    0    0    0  501 -0.00000000000E+00  0.00000000000E+00  0.14297790626E+03  0.14298354653E+03  0.12700000000E+01 0. -1.
          4   -1    0    0  501    0  0.00000000000E+00 -0.00000000000E+00 -0.27305958181E+02  0.27335476074E+02  0.12700000000E+01 0. -1.
         25    2    1    2    0    0  0.00000000000E+00  0.00000000000E+00  0.11567194808E+03  0.17031902260E+03  0.12501427874E+03 0.  0.
    9000005    1    3    3    0    0 -0.17388475946E+02 -0.58421010651E+02  0.39018673817E+02  0.72379765734E+02  0.10000000000E+01 0.  0.
    9000005    1    3    3    0    0  0.17388475946E+02  0.58421010651E+02  0.76653274263E+02  0.97939256871E+02  0.10000000000E+01 0.  0.
<mgrwt>
<rscale>  0 0.12501428E+03</rscale>
<asrwt>0</asrwt>
<pdfrwt beam="2">  1        4 0.42036211E-02 0.12501428E+03</pdfrwt>
<pdfrwt beam="1">  1       -4 0.21999305E-01 0.12501428E+03</pdfrwt>
<totfact> 0.95358644E+03</totfact>
</mgrwt>
</event>
<event>
 5    1  0.3316206E-002  0.1250065E+03  0.7818608E-02  0.1235059E+00
          4   -1    0    0  501    0  0.00000000000E+00  0.00000000000E+00  0.38542560651E+03  0.38542769886E+03  0.12700000000E+01 0. -1.
         -4   -1    0    0    0  501 -0.00000000000E+00 -0.00000000000E+00 -0.10094038062E+02  0.10173618058E+02  0.12700000000E+01 0. -1.
         25    2    1    2    0    0  0.00000000000E+00  0.00000000000E+00  0.37533156844E+03  0.39560131692E+03  0.12500646255E+03 0.  0.
    9000005    1    3    3    0    0 -0.44368497782E+02  0.15643510925E+02  0.31785440807E+03  0.32131870123E+03  0.10000000000E+01 0.  0.
    9000005    1    3    3    0    0  0.44368497782E+02 -0.15643510925E+02  0.57477160375E+02  0.74282615693E+02  0.10000000000E+01 0.  0.
<mgrwt>
<rscale>  0 0.12500646E+03</rscale>
<asrwt>0</asrwt>
<pdfrwt beam="1">  1        4 0.59302522E-01 0.12500646E+03</pdfrwt>
<pdfrwt beam="2">  1       -4 0.15592116E-02 0.12500646E+03</pdfrwt>
<totfact> 0.64973590E+03</totfact>
</mgrwt>
</event>
<event>
 5    1  0.3316206E-002  0.1249946E+03  0.7818608E-02  0.1235078E+00
         -4   -1    0    0    0  501 -0.00000000000E+00  0.00000000000E+00  0.15693644325E+03  0.15694158187E+03  0.12700000000E+01 0. -1.
          4   -1    0    0  501    0  0.00000000000E+00 -0.00000000000E+00 -0.24866751849E+02  0.24899161583E+02  0.12700000000E+01 0. -1.
         25    2    1    2    0    0  0.00000000000E+00  0.00000000000E+00  0.13206969140E+03  0.18184074345E+03  0.12499461025E+03 0.  0.
    9000005    1    3    3    0    0 -0.60304842568E+02  0.15995608012E+02  0.60916214517E+02  0.87202744818E+02  0.10000000000E+01 0.  0.
    9000005    1    3    3    0    0  0.60304842568E+02 -0.15995608012E+02  0.71153476882E+02  0.94637998632E+02  0.10000000000E+01 0.  0.
<mgrwt>
<rscale>  0 0.12499461E+03</rscale>
<asrwt>0</asrwt>
<pdfrwt beam="2">  1        4 0.38285425E-02 0.12499461E+03</pdfrwt>
<pdfrwt beam="1">  1       -4 0.24146957E-01 0.12499461E+03</pdfrwt>
<totfact> 0.93297981E+03</totfact>
</mgrwt>
</event>
<event>
 5    1  0.3316206E-002  0.1250014E+03  0.7818608E-02  0.1235067E+00
          4   -1    0    0  501    0  0.00000000000E+00  0.00000000000E+00  0.39680043828E+02  0.39700362445E+02  0.12700000000E+01 0. -1.
         -4   -1    0    0    0  501 -0.00000000000E+00 -0.00000000000E+00 -0.98396203559E+02  0.98404399164E+02  0.12700000000E+01 0. -1.
         25    2    1    2    0    0  0.00000000000E+00  0.00000000000E+00 -0.58716159731E+02  0.13810476161E+03  0.12500135105E+03 0.  0.
    9000005    1    3    3    0    0  0.20022076924E+02 -0.56074703571E+02 -0.83931922465E+01  0.60139019123E+02  0.10000000000E+01 0.  0.
    9000005    1    3    3    0    0 -0.20022076924E+02  0.56074703571E+02 -0.50322967484E+02  0.77965742486E+02  0.10000000000E+01 0.  0.
<mgrwt>
<rscale>  0 0.12500135E+03</rscale>
<asrwt>0</asrwt>
<pdfrwt beam="1">  1        4 0.61068156E-02 0.12500135E+03</pdfrwt>
<pdfrwt beam="2">  1       -4 0.15140071E-01 0.12500135E+03</pdfrwt>
<totfact> 0.10172708E+04</totfact>
</mgrwt>
</event>
<event>
 5    1  0.3316206E-002  0.1249985E+03  0.7818608E-02  0.1235072E+00
          4   -1    0    0  501    0  0.00000000000E+00  0.00000000000E+00  0.68387423744E+02  0.68399215100E+02  0.12700000000E+01 0. -1.
         -4   -1    0    0    0  501 -0.00000000000E+00 -0.00000000000E+00 -0.57094252009E+02  0.57108375151E+02  0.12700000000E+01 0. -1.
         25    2    1    2    0    0  0.00000000000E+00  0.00000000000E+00  0.11293171735E+02  0.12550759025E+03  0.12499847792E+03 0.  0.
    9000005    1    3    3    0    0  0.30436267101E+02  0.46308863104E+02  0.34648094334E+02  0.65363350572E+02  0.10000000000E+01 0.  0.
    9000005    1    3    3    0    0 -0.30436267101E+02 -0.46308863104E+02 -0.23354922599E+02  0.60144239679E+02  0.10000000000E+01 0.  0.
<mgrwt>
<rscale>  0 0.12499848E+03</rscale>
<asrwt>0</asrwt>
<pdfrwt beam="1">  1        4 0.10523135E-01 0.12499848E+03</pdfrwt>
<pdfrwt beam="2">  1       -4 0.87857246E-02 0.12499848E+03</pdfrwt>
<totfact> 0.10442145E+04</totfact>
</mgrwt>
</event>
<event>
 5    1  0.3316206E-002  0.1250018E+03  0.7818608E-02  0.1235066E+00
         -4   -1    0    0    0  501 -0.00000000000E+00  0.00000000000E+00  0.18982068063E+03  0.18982492907E+03  0.12700000000E+01 0. -1.
          4   -1    0    0  501    0  0.00000000000E+00 -0.00000000000E+00 -0.20555160132E+02  0.20594356218E+02  0.12700000000E+01 0. -1.
         25    2    1    2    0    0  0.00000000000E+00  0.00000000000E+00  0.16926552050E+03  0.21041928529E+03  0.12500183675E+03 0.  0.
    9000005    1    3    3    0    0  0.21712206305E+01 -0.62333388738E+02  0.78070096061E+02  0.99930503099E+02  0.10000000000E+01 0.  0.
    9000005    1    3    3    0    0 -0.21712206305E+01  0.62333388738E+02  0.91195424440E+02  0.11048878219E+03  0.10000000000E+01 0.  0.
<mgrwt>
<rscale>  0 0.12500184E+03</rscale>
<asrwt>0</asrwt>
<pdfrwt beam="2">  1        4 0.31656742E-02 0.12500184E+03</pdfrwt>
<pdfrwt beam="1">  1       -4 0.29206524E-01 0.12500184E+03</pdfrwt>
<totfact> 0.88403821E+03</totfact>
</mgrwt>
</event>
<event>
 5    1  0.3316206E-002  0.1250007E+03  0.7818608E-02  0.1235068E+00
         -4   -1    0    0    0  501 -0.00000000000E+00  0.00000000000E+00  0.64725460712E+02  0.64737919061E+02  0.12700000000E+01 0. -1.
          4   -1    0    0  501    0  0.00000000000E+00 -0.00000000000E+00 -0.60326746100E+02  0.60340112654E+02  0.12700000000E+01 0. -1.
         25    2    1    2    0    0  0.00000000000E+00  0.00000000000E+00  0.43987146116E+01  0.12507803171E+03  0.12500066131E+03 0.  0.
    9000005    1    3    3    0    0  0.20511962902E+02 -0.55553912498E+02 -0.17770789133E+02  0.61836710475E+02  0.10000000000E+01 0.  0.
    9000005    1    3    3    0    0 -0.20511962902E+02  0.55553912498E+02  0.22169503744E+02  0.63241321240E+02  0.10000000000E+01 0.  0.
<mgrwt>
<rscale>  0 0.12500066E+03</rscale>
<asrwt>0</asrwt>
<pdfrwt beam="2">  1        4 0.92830244E-02 0.12500066E+03</pdfrwt>
<pdfrwt beam="1">  1       -4 0.99597497E-02 0.12500066E+03</pdfrwt>
<totfact> 0.10451012E+04</totfact>
</mgrwt>
</event>
<event>
 5    1  0.3316206E-002  0.1250342E+03  0.7818608E-02  0.1235016E+00
          4   -1    0    0  501    0  0.00000000000E+00  0.00000000000E+00  0.56423389169E+02  0.56437680191E+02  0.12700000000E+01 0. -1.
         -4   -1    0    0    0  501 -0.00000000000E+00 -0.00000000000E+00 -0.69240013404E+02  0.69251659592E+02  0.12700000000E+01 0. -1.
         25    2    1    2    0    0  0.00000000000E+00  0.00000000000E+00 -0.12816624235E+02  0.12568933978E+03  0.12503417244E+03 0.  0.
    9000005    1    3    3    0    0 -0.15825856632E+02 -0.52929953066E+02 -0.35807900137E+02  0.65842565122E+02  0.10000000000E+01 0.  0.
    9000005    1    3    3    0    0  0.15825856632E+02  0.52929953066E+02  0.22991275902E+02  0.59846774661E+02  0.10000000000E+01 0.  0.
<mgrwt>
<rscale>  0 0.12503417E+03</rscale>
<asrwt>0</asrwt>
<pdfrwt beam="1">  1        4 0.86825166E-02 0.12503417E+03</pdfrwt>
<pdfrwt beam="2">  1       -4 0.10654305E-01 0.12503417E+03</pdfrwt>
<totfact> 0.10429736E+04</totfact>
</mgrwt>
</event>
<event>
 5    1  0.3316206E-002  0.1249997E+03  0.7818608E-02  0.1235070E+00
         -4   -1    0    0    0  501 -0.00000000000E+00  0.00000000000E+00  0.90645768257E+02  0.90654664541E+02  0.12700000000E+01 0.  1.
          4   -1    0    0  501    0  0.00000000000E+00 -0.00000000000E+00 -0.43072990461E+02  0.43091709263E+02  0.12700000000E+01 0.  1.
         25    2    1    2    0    0  0.00000000000E+00  0.00000000000E+00  0.47572777797E+02  0.13374637380E+03  0.12499969327E+03 0.  0.
    9000005    1    3    3    0    0  0.11719220583E+01 -0.56621830866E+02  0.52051229977E+02  0.76926820252E+02  0.10000000000E+01 0.  0.
    9000005    1    3    3    0    0 -0.11719220583E+01  0.56621830866E+02 -0.44784521796E+01  0.56819553552E+02  0.10000000000E+01 0.  0.
<mgrwt>
<rscale>  0 0.12499969E+03</rscale>
<asrwt>0</asrwt>
<pdfrwt beam="2">  1        4 0.66287382E-02 0.12499969E+03</pdfrwt>
<pdfrwt beam="1">  1       -4 0.13947627E-01 0.12499969E+03</pdfrwt>
<totfact> 0.10264633E+04</totfact>
</mgrwt>
</event>
<event>
 5    1  0.3316206E-002  0.1250008E+03  0.7818608E-02  0.1235068E+00
          4   -1    0    0  501    0  0.00000000000E+00  0.00000000000E+00  0.31072454283E+02  0.31098397308E+02  0.12700000000E+01 0.  1.
         -4   -1    0    0    0  501 -0.00000000000E+00 -0.00000000000E+00 -0.12563424260E+03  0.12564066147E+03  0.12700000000E+01 0.  1.
         25    2    1    2    0    0  0.00000000000E+00  0.00000000000E+00 -0.94561788316E+02  0.15673905877E+03  0.12500080294E+03 0.  0.
    9000005    1    3    3    0    0 -0.55465970252E+02 -0.22658892710E+02 -0.69549647361E+02  0.91804426488E+02  0.10000000000E+01 0.  0.
    9000005    1    3    3    0    0  0.55465970252E+02  0.22658892710E+02 -0.25012140956E+02  0.64934632285E+02  0.10000000000E+01 0.  0.
<mgrwt>
<rscale>  0 0.12500080E+03</rscale>
<asrwt>0</asrwt>
<pdfrwt beam="1">  1        4 0.47828670E-02 0.12500080E+03</pdfrwt>
<pdfrwt beam="2">  1       -4 0.19330834E-01 0.12500080E+03</pdfrwt>
<totfact> 0.97973409E+03</totfact>
</mgrwt>
</event>
<event>
 5    1  0.3316206E-002  0.1250000E+03  0.7818608E-02  0.1235069E+00
         -4   -1    0    0    0  501 -0.00000000000E+00  0.00000000000E+00  0.42679227661E+03  0.42679416617E+03  0.12700000000E+01 0. -1.
          4   -1    0    0  501    0  0.00000000000E+00 -0.00000000000E+00 -0.91065992985E+01  0.91947295111E+01  0.12700000000E+01 0. -1.
         25    2    1    2    0    0  0.00000000000E+00  0.00000000000E+00  0.41768567731E+03  0.43598889568E+03  0.12499996849E+03 0.  0.
    9000005    1    3    3    0    0 -0.33412478431E+02 -0.40074284423E+01  0.25178688857E+02  0.42040689459E+02  0.10000000000E+01 0.  0.
    9000005    1    3    3    0    0  0.33412478431E+02  0.40074284423E+01  0.39250698845E+03  0.39394820622E+03  0.10000000000E+01 0.  0.
<mgrwt>
<rscale>  0 0.12499997E+03</rscale>
<asrwt>0</asrwt>
<pdfrwt beam="2">  1        4 0.14079397E-02 0.12499997E+03</pdfrwt>
<pdfrwt beam="1">  1       -4 0.65667283E-01 0.12499997E+03</pdfrwt>
<totfact> 0.61196898E+03</totfact>
</mgrwt>
</event>
<event>
 5    1  0.3316206E-002  0.1250009E+03  0.7818608E-02  0.1235068E+00
          4   -1    0    0  501    0  0.00000000000E+00  0.00000000000E+00  0.14910598336E+03  0.14911139184E+03  0.12700000000E+01 0. -1.
         -4   -1    0    0    0  501 -0.00000000000E+00 -0.00000000000E+00 -0.26176918353E+02  0.26207707921E+02  0.12700000000E+01 0. -1.
         25    2    1    2    0    0  0.00000000000E+00  0.00000000000E+00  0.12292906501E+03  0.17531909976E+03  0.12500092686E+03 0.  0.
    9000005    1    3    3    0    0 -0.41649685786E+02 -0.24820030653E+02  0.61649041193E+01  0.48884929073E+02  0.10000000000E+01 0.  0.
    9000005    1    3    3    0    0  0.41649685786E+02  0.24820030653E+02  0.11676416089E+03  0.12643417068E+03  0.10000000000E+01 0.  0.
<mgrwt>
<rscale>  0 0.12500093E+03</rscale>
<asrwt>0</asrwt>
<pdfrwt beam="1">  1        4 0.22942166E-01 0.12500093E+03</pdfrwt>
<pdfrwt beam="2">  1       -4 0.40300028E-02 0.12500093E+03</pdfrwt>
<totfact> 0.94464467E+03</totfact>
</mgrwt>
</event>
<event>
 5    1  0.3316206E-002  0.1249745E+03  0.7818608E-02  0.1235109E+00
         -4   -1    0    0    0  501 -0.00000000000E+00  0.00000000000E+00  0.39667013039E+02  0.39687338327E+02  0.12700000000E+01 0. -1.
          4   -1    0    0  501    0  0.00000000000E+00 -0.00000000000E+00 -0.98386209097E+02  0.98394405535E+02  0.12700000000E+01 0. -1.
         25    2    1    2    0    0  0.00000000000E+00  0.00000000000E+00 -0.58719196058E+02  0.13808174386E+03  0.12497449341E+03 0.  0.
    9000005    1    3    3    0    0  0.58529144795E+02  0.21470772743E+02 -0.24803912423E+02  0.67103568788E+02  0.10000000000E+01 0.  0.
    9000005    1    3    3    0    0 -0.58529144795E+02 -0.21470772743E+02 -0.33915283635E+02  0.70978175073E+02  0.10000000000E+01 0.  0.
<mgrwt>
<rscale>  0 0.12497449E+03</rscale>
<asrwt>0</asrwt>
<pdfrwt beam="2">  1        4 0.15138534E-01 0.12497449E+03</pdfrwt>
<pdfrwt beam="1">  1       -4 0.61048114E-02 0.12497449E+03</pdfrwt>
<totfact> 0.10179348E+04</totfact>
</mgrwt>
</event>
<event>
 5    1  0.3316206E-002  0.1249977E+03  0.7818608E-02  0.1235073E+00
         -4   -1    0    0    0  501 -0.00000000000E+00  0.00000000000E+00  0.89230620453E+02  0.89239657812E+02  0.12700000000E+01 0.  1.
          4   -1    0    0  501    0  0.00000000000E+00 -0.00000000000E+00 -0.43754906915E+02  0.43773334110E+02  0.12700000000E+01 0.  1.
         25    2    1    2    0    0  0.00000000000E+00  0.00000000000E+00  0.45475713538E+02  0.13301299192E+03  0.12499766197E+03 0.  0.
    9000005    1    3    3    0    0  0.36760535178E+02  0.20967958515E+02 -0.26189993157E+02  0.49778589498E+02  0.10000000000E+01 0.  0.
    9000005    1    3    3    0    0 -0.36760535178E+02 -0.20967958515E+02  0.71665706695E+02  0.83234402424E+02  0.10000000000E+01 0.  0.
<mgrwt>
<rscale>  0 0.12499766E+03</rscale>
<asrwt>0</asrwt>
<pdfrwt beam="2">  1        4 0.67336369E-02 0.12499766E+03</pdfrwt>
<pdfrwt beam="1">  1       -4 0.13729900E-01 0.12499766E+03</pdfrwt>
<totfact> 0.10280666E+04</totfact>
</mgrwt>
</event>
<event>
 5    1  0.3316206E-002  0.1250068E+03  0.7818608E-02  0.1235059E+00
          4   -1    0    0  501    0  0.00000000000E+00  0.00000000000E+00  0.24327076388E+03  0.24327407889E+03  0.12700000000E+01 0.  1.
         -4   -1    0    0    0  501 -0.00000000000E+00 -0.00000000000E+00 -0.16030429319E+02  0.16080658076E+02  0.12700000000E+01 0.  1.
         25    2    1    2    0    0  0.00000000000E+00  0.00000000000E+00  0.22724033456E+03  0.25935473697E+03  0.12500683955E+03 0.  0.
    9000005    1    3    3    0    0  0.11376513528E+01 -0.59132692167E+02  0.71727790672E+02  0.92972283441E+02  0.10000000000E+01 0.  0.
    9000005    1    3    3    0    0 -0.11376513528E+01  0.59132692167E+02  0.15551254389E+03  0.16638245352E+03  0.10000000000E+01 0.  0.
<mgrwt>
<rscale>  0 0.12500684E+03</rscale>
<asrwt>0</asrwt>
<pdfrwt beam="1">  1        4 0.37430389E-01 0.12500684E+03</pdfrwt>
<pdfrwt beam="2">  1       -4 0.24703387E-02 0.12500684E+03</pdfrwt>
<totfact> 0.80984368E+03</totfact>
</mgrwt>
</event>
<event>
 5    1  0.3316206E-002  0.1249995E+03  0.7818608E-02  0.1235070E+00
         -4   -1    0    0    0  501 -0.00000000000E+00  0.00000000000E+00  0.27665417090E+01  0.30441177750E+01  0.12700000000E+01 0.  1.
          4   -1    0    0  501    0  0.00000000000E+00 -0.00000000000E+00 -0.13442234471E+04  0.13442240470E+04  0.12700000000E+01 0.  1.
         25    2    1    2    0    0  0.00000000000E+00  0.00000000000E+00 -0.13414569054E+04  0.13472681648E+04  0.12499951558E+03 0.  0.
    9000005    1    3    3    0    0 -0.11551186224E+02  0.36999236004E+02 -0.11990626459E+04  0.11996893774E+04  0.10000000000E+01 0.  0.
    9000005    1    3    3    0    0  0.11551186224E+02 -0.36999236004E+02 -0.14239425944E+03  0.14757878739E+03  0.10000000000E+01 0.  0.
<mgrwt>
<rscale>  0 0.12499952E+03</rscale>
<asrwt>0</asrwt>
<pdfrwt beam="2">  1        4 0.20682451E+00 0.12499952E+03</pdfrwt>
<pdfrwt beam="1">  1       -4 0.44702103E-03 0.12499952E+03</pdfrwt>
<totfact> 0.21139902E+03</totfact>
</mgrwt>
</event>
<event>
 5    1  0.3316206E-002  0.1250017E+03  0.7818608E-02  0.1235067E+00
          4   -1    0    0  501    0  0.00000000000E+00  0.00000000000E+00  0.24654743260E+02  0.24687431320E+02  0.12700000000E+01 0. -1.
         -4   -1    0    0    0  501 -0.00000000000E+00 -0.00000000000E+00 -0.15830213826E+03  0.15830723255E+03  0.12700000000E+01 0. -1.
         25    2    1    2    0    0  0.00000000000E+00  0.00000000000E+00 -0.13364739500E+03  0.18299466387E+03  0.12500168325E+03 0.  0.
    9000005    1    3    3    0    0 -0.14947555178E+02 -0.58057225683E+02 -0.40995077443E+02  0.72633788517E+02  0.10000000000E+01 0.  0.
    9000005    1    3    3    0    0  0.14947555178E+02  0.58057225683E+02 -0.92652317554E+02  0.11036087535E+03  0.10000000000E+01 0.  0.
<mgrwt>
<rscale>  0 0.12500168E+03</rscale>
<asrwt>0</asrwt>
<pdfrwt beam="1">  1        4 0.37959439E-02 0.12500168E+03</pdfrwt>
<pdfrwt beam="2">  1       -4 0.24357081E-01 0.12500168E+03</pdfrwt>
<totfact> 0.93077203E+03</totfact>
</mgrwt>
</event>
<event>
 5    1  0.3316206E-002  0.1249980E+03  0.7818608E-02  0.1235072E+00
          4   -1    0    0  501    0  0.00000000000E+00  0.00000000000E+00  0.33354486041E+03  0.33354727822E+03  0.12700000000E+01 0.  1.
         -4   -1    0    0    0  501 -0.00000000000E+00 -0.00000000000E+00 -0.11674048717E+02  0.11742926103E+02  0.12700000000E+01 0.  1.
         25    2    1    2    0    0  0.00000000000E+00  0.00000000000E+00  0.32187081169E+03  0.34529020432E+03  0.12499802310E+03 0.  0.
    9000005    1    3    3    0    0 -0.56336051079E+02 -0.11814468586E+02  0.22813496722E+03  0.23528683683E+03  0.10000000000E+01 0.  0.
    9000005    1    3    3    0    0  0.56336051079E+02  0.11814468586E+02  0.93735844475E+02  0.11000336749E+03  0.10000000000E+01 0.  0.
<mgrwt>
<rscale>  0 0.12499802E+03</rscale>
<asrwt>0</asrwt>
<pdfrwt beam="1">  1        4 0.51320071E-01 0.12499802E+03</pdfrwt>
<pdfrwt beam="2">  1       -4 0.18014920E-02 0.12499802E+03</pdfrwt>
<totfact> 0.70248894E+03</totfact>
</mgrwt>
</event>
<event>
 5    1  0.3316206E-002  0.1249849E+03  0.7818608E-02  0.1235093E+00
          4   -1    0    0  501    0  0.00000000000E+00  0.00000000000E+00  0.10484581040E+02  0.10561218660E+02  0.12700000000E+01 0.  1.
         -4   -1    0    0    0  501 -0.00000000000E+00 -0.00000000000E+00 -0.37104668864E+03  0.37104886208E+03  0.12700000000E+01 0.  1.
         25    2    1    2    0    0  0.00000000000E+00  0.00000000000E+00 -0.36056210760E+03  0.38161008074E+03  0.12498488023E+03 0.  0.
    9000005    1    3    3    0    0  0.44038577778E+02  0.29422975766E+02 -0.28150894137E+03  0.28644963241E+03  0.10000000000E+01 0.  0.
    9000005    1    3    3    0    0 -0.44038577778E+02 -0.29422975766E+02 -0.79053166229E+02  0.95160448330E+02  0.10000000000E+01 0.  0.
<mgrwt>
<rscale>  0 0.12498488E+03</rscale>
<asrwt>0</asrwt>
<pdfrwt beam="1">  1        4 0.16190751E-02 0.12498488E+03</pdfrwt>
<pdfrwt beam="2">  1       -4 0.57090158E-01 0.12498488E+03</pdfrwt>
<totfact> 0.66403732E+03</totfact>
</mgrwt>
</event>
<event>
 5    1  0.3316206E-002  0.1249986E+03  0.7818608E-02  0.1235072E+00
          4   -1    0    0  501    0  0.00000000000E+00  0.00000000000E+00  0.23198580920E+02  0.23233317815E+02  0.12700000000E+01 0. -1.
         -4   -1    0    0    0  501 -0.00000000000E+00 -0.00000000000E+00 -0.16821617704E+03  0.16822097110E+03  0.12700000000E+01 0. -1.
         25    2    1    2    0    0  0.00000000000E+00  0.00000000000E+00 -0.14501759612E+03  0.19145428891E+03  0.12499856623E+03 0.  0.
    9000005    1    3    3    0    0 -0.76316695553E+01 -0.25292803113E+02 -0.15924942490E+03  0.16142907917E+03  0.10000000000E+01 0.  0.
    9000005    1    3    3    0    0  0.76316695553E+01  0.25292803113E+02  0.14231828786E+02  0.30025209743E+02  0.10000000000E+01 0.  0.
<mgrwt>
<rscale>  0 0.12499857E+03</rscale>
<asrwt>0</asrwt>
<pdfrwt beam="1">  1        4 0.35720534E-02 0.12499857E+03</pdfrwt>
<pdfrwt beam="2">  1       -4 0.25882452E-01 0.12499857E+03</pdfrwt>
<totfact> 0.91597829E+03</totfact>
</mgrwt>
</event>
<event>
 5    1  0.3316206E-002  0.1250426E+03  0.7818608E-02  0.1235003E+00
          4   -1    0    0  501    0  0.00000000000E+00  0.00000000000E+00  0.33865109513E+02  0.33888914741E+02  0.12700000000E+01 0.  1.
         -4   -1    0    0    0  501 -0.00000000000E+00 -0.00000000000E+00 -0.11535802837E+03  0.11536501900E+03  0.12700000000E+01 0.  1.
         25    2    1    2    0    0  0.00000000000E+00  0.00000000000E+00 -0.81492918859E+02  0.14925393374E+03  0.12504255641E+03 0.  0.
    9000005    1    3    3    0    0 -0.38283033813E+02 -0.42500418394E+02 -0.70849343344E+02  0.91063196154E+02  0.10000000000E+01 0.  0.
    9000005    1    3    3    0    0  0.38283033813E+02  0.42500418394E+02 -0.10643575515E+02  0.58190737591E+02  0.10000000000E+01 0.  0.
<mgrwt>
<rscale>  0 0.12504256E+03</rscale>
<asrwt>0</asrwt>
<pdfrwt beam="1">  1        4 0.52123858E-02 0.12504256E+03</pdfrwt>
<pdfrwt beam="2">  1       -4 0.17749758E-01 0.12504256E+03</pdfrwt>
<totfact> 0.99357424E+03</totfact>
</mgrwt>
</event>
<event>
 5    1  0.3316206E-002  0.1250000E+03  0.7818608E-02  0.1235069E+00
         -4   -1    0    0    0  501 -0.00000000000E+00  0.00000000000E+00  0.61533118956E+01  0.62830046383E+01  0.12700000000E+01 0.  1.
          4   -1    0    0  501    0  0.00000000000E+00 -0.00000000000E+00 -0.62807043259E+03  0.62807171660E+03  0.12700000000E+01 0.  1.
         25    2    1    2    0    0  0.00000000000E+00  0.00000000000E+00 -0.62191712069E+03  0.63435472124E+03  0.12500002938E+03 0.  0.
    9000005    1    3    3    0    0  0.29546580993E+02  0.93819611504E+01 -0.58632305537E+03  0.58714286754E+03  0.10000000000E+01 0.  0.
    9000005    1    3    3    0    0 -0.29546580993E+02 -0.93819611504E+01 -0.35594065321E+02  0.47211853697E+02  0.10000000000E+01 0.  0.
<mgrwt>
<rscale>  0 0.12500003E+03</rscale>
<asrwt>0</asrwt>
<pdfrwt beam="2">  1        4 0.96636245E-01 0.12500003E+03</pdfrwt>
<pdfrwt beam="1">  1       -4 0.95673900E-03 0.12500003E+03</pdfrwt>
<totfact> 0.46768438E+03</totfact>
</mgrwt>
</event>
<event>
 5    1  0.3316206E-002  0.1250016E+03  0.7818608E-02  0.1235067E+00
         -4   -1    0    0    0  501 -0.00000000000E+00  0.00000000000E+00  0.38572325989E+02  0.38593227803E+02  0.12700000000E+01 0.  1.
          4   -1    0    0  501    0  0.00000000000E+00 -0.00000000000E+00 -0.10122114275E+03  0.10122910965E+03  0.12700000000E+01 0.  1.
         25    2    1    2    0    0  0.00000000000E+00  0.00000000000E+00 -0.62648816764E+02  0.13982233745E+03  0.12500164722E+03 0.  0.
    9000005    1    3    3    0    0  0.40064556633E+02  0.44854947743E+02 -0.50314248556E+02  0.78419759264E+02  0.10000000000E+01 0.  0.
    9000005    1    3    3    0    0 -0.40064556633E+02 -0.44854947743E+02 -0.12334568208E+02  0.61402578188E+02  0.10000000000E+01 0.  0.
<mgrwt>
<rscale>  0 0.12500165E+03</rscale>
<asrwt>0</asrwt>
<pdfrwt beam="2">  1        4 0.15574704E-01 0.12500165E+03</pdfrwt>
<pdfrwt beam="1">  1       -4 0.59364247E-02 0.12500165E+03</pdfrwt>
<totfact> 0.10136893E+04</totfact>
</mgrwt>
</event>
<event>
 5    1  0.3316206E-002  0.1250103E+03  0.7818608E-02  0.1235053E+00
          4   -1    0    0  501    0  0.00000000000E+00  0.00000000000E+00  0.42451735319E+02  0.42470727939E+02  0.12700000000E+01 0.  1.
         -4   -1    0    0    0  501 -0.00000000000E+00 -0.00000000000E+00 -0.91987457224E+02  0.91996223762E+02  0.12700000000E+01 0.  1.
         25    2    1    2    0    0  0.00000000000E+00  0.00000000000E+00 -0.49535721905E+02  0.13446695170E+03  0.12501029300E+03 0.  0.
    9000005    1    3    3    0    0 -0.27570136967E+02 -0.17508701727E+01 -0.85068554802E+02  0.89447398033E+02  0.10000000000E+01 0.  0.
    9000005    1    3    3    0    0  0.27570136967E+02  0.17508701727E+01  0.35532832898E+02  0.45019553668E+02  0.10000000000E+01 0.  0.
<mgrwt>
<rscale>  0 0.12501029E+03</rscale>
<asrwt>0</asrwt>
<pdfrwt beam="1">  1        4 0.65331715E-02 0.12501029E+03</pdfrwt>
<pdfrwt beam="2">  1       -4 0.14154052E-01 0.12501029E+03</pdfrwt>
<totfact> 0.10246939E+04</totfact>
</mgrwt>
</event>
<event>
 5    1  0.3316206E-002  0.1250008E+03  0.7818608E-02  0.1235068E+00
          4   -1    0    0  501    0  0.00000000000E+00  0.00000000000E+00  0.27826336379E+01  0.30587497385E+01  0.12700000000E+01 0. -1.
         -4   -1    0    0    0  501 -0.00000000000E+00 -0.00000000000E+00 -0.13371815532E+04  0.13371821563E+04  0.12700000000E+01 0. -1.
         25    2    1    2    0    0  0.00000000000E+00  0.00000000000E+00 -0.13343989195E+04  0.13402409060E+04  0.12500083872E+03 0.  0.
    9000005    1    3    3    0    0  0.45728264201E+02 -0.20033545079E+02 -0.26418242597E+03  0.26886013327E+03  0.10000000000E+01 0.  0.
    9000005    1    3    3    0    0 -0.45728264201E+02  0.20033545079E+02 -0.10702164936E+04  0.10713807727E+04  0.10000000000E+01 0.  0.
<mgrwt>
<rscale>  0 0.12500084E+03</rscale>
<asrwt>0</asrwt>
<pdfrwt beam="1">  1        4 0.44938464E-03 0.12500084E+03</pdfrwt>
<pdfrwt beam="2">  1       -4 0.20574104E+00 0.12500084E+03</pdfrwt>
<totfact> 0.21297888E+03</totfact>
</mgrwt>
</event>
<event>
 5    1  0.3316206E-002  0.1249969E+03  0.7818608E-02  0.1235074E+00
         -4   -1    0    0    0  501 -0.00000000000E+00  0.00000000000E+00  0.12815874366E+02  0.12878646504E+02  0.12700000000E+01 0.  1.
          4   -1    0    0  501    0  0.00000000000E+00 -0.00000000000E+00 -0.30397414981E+03  0.30397680282E+03  0.12700000000E+01 0.  1.
         25    2    1    2    0    0  0.00000000000E+00  0.00000000000E+00 -0.29115827544E+03  0.31685544932E+03  0.12499693759E+03 0.  0.
    9000005    1    3    3    0    0 -0.96262454370E+01 -0.20610674327E+02 -0.29311836066E+03  0.29400142492E+03  0.10000000000E+01 0.  0.
    9000005    1    3    3    0    0  0.96262454370E+01  0.20610674327E+02  0.19600852176E+01  0.22854024405E+02  0.10000000000E+01 0.  0.
<mgrwt>
<rscale>  0 0.12499694E+03</rscale>
<asrwt>0</asrwt>
<pdfrwt beam="2">  1        4 0.46770281E-01 0.12499694E+03</pdfrwt>
<pdfrwt beam="1">  1       -4 0.19767059E-02 0.12499694E+03</pdfrwt>
<totfact> 0.73536690E+03</totfact>
</mgrwt>
</event>
<event>
 5    1  0.3316206E-002  0.1249968E+03  0.7818608E-02  0.1235074E+00
         -4   -1    0    0    0  501 -0.00000000000E+00  0.00000000000E+00  0.10974843662E+03  0.10975578454E+03  0.12700000000E+01 0.  1.
          4   -1    0    0  501    0  0.00000000000E+00 -0.00000000000E+00 -0.35571051433E+02  0.35593715738E+02  0.12700000000E+01 0.  1.
         25    2    1    2    0    0  0.00000000000E+00  0.00000000000E+00  0.74177385183E+02  0.14534950028E+03  0.12499677099E+03 0.  0.
    9000005    1    3    3    0    0  0.53090608549E+01  0.59371997573E+02  0.15277474117E+02  0.61543654737E+02  0.10000000000E+01 0.  0.
    9000005    1    3    3    0    0 -0.53090608549E+01 -0.59371997573E+02  0.58899911067E+02  0.83805845540E+02  0.10000000000E+01 0.  0.
<mgrwt>
<rscale>  0 0.12499677E+03</rscale>
<asrwt>0</asrwt>
<pdfrwt beam="2">  1        4 0.54747782E-02 0.12499677E+03</pdfrwt>
<pdfrwt beam="1">  1       -4 0.16886683E-01 0.12499677E+03</pdfrwt>
<totfact> 0.10024621E+04</totfact>
</mgrwt>
</event>
<event>
 5    1  0.3316206E-002  0.1249987E+03  0.7818608E-02  0.1235071E+00
         -4   -1    0    0    0  501 -0.00000000000E+00  0.00000000000E+00  0.21439180049E+03  0.21439556203E+03  0.12700000000E+01 0.  1.
          4   -1    0    0  501    0  0.00000000000E+00 -0.00000000000E+00 -0.18193724464E+02  0.18237996323E+02  0.12700000000E+01 0.  1.
         25    2    1    2    0    0  0.00000000000E+00  0.00000000000E+00  0.19619807603E+03  0.23263355835E+03  0.12499874973E+03 0.  0.
    9000005    1    3    3    0    0 -0.46438219659E+02 -0.20040319134E+02  0.29793105081E+02  0.58709043140E+02  0.10000000000E+01 0.  0.
    9000005    1    3    3    0    0  0.46438219659E+02  0.20040319134E+02  0.16640497095E+03  0.17392451521E+03  0.10000000000E+01 0.  0.
<mgrwt>
<rscale>  0 0.12499875E+03</rscale>
<asrwt>0</asrwt>
<pdfrwt beam="2">  1        4 0.28027296E-02 0.12499875E+03</pdfrwt>
<pdfrwt beam="1">  1       -4 0.32987046E-01 0.12499875E+03</pdfrwt>
<totfact> 0.84909215E+03</totfact>
</mgrwt>
</event>
<event>
 5    1  0.3316206E-002  0.1250004E+03  0.7818608E-02  0.1235069E+00
         -4   -1    0    0    0  501 -0.00000000000E+00  0.00000000000E+00  0.10967401334E+03  0.10968136625E+03  0.12700000000E+01 0. -1.
          4   -1    0    0  501    0  0.00000000000E+00 -0.00000000000E+00 -0.35597276823E+02  0.35619924441E+02  0.12700000000E+01 0. -1.
         25    2    1    2    0    0  0.00000000000E+00  0.00000000000E+00  0.74076736518E+02  0.14530129069E+03  0.12500040873E+03 0.  0.
    9000005    1    3    3    0    0  0.20116900774E+02 -0.53188138481E+02  0.67162594200E+02  0.88008419094E+02  0.10000000000E+01 0.  0.
    9000005    1    3    3    0    0 -0.20116900774E+02  0.53188138481E+02  0.69141423183E+01  0.57292871597E+02  0.10000000000E+01 0.  0.
<mgrwt>
<rscale>  0 0.12500041E+03</rscale>
<asrwt>0</asrwt>
<pdfrwt beam="2">  1        4 0.54788120E-02 0.12500041E+03</pdfrwt>
<pdfrwt beam="1">  1       -4 0.16875233E-01 0.12500041E+03</pdfrwt>
<totfact> 0.10024778E+04</totfact>
</mgrwt>
</event>
<event>
 5    1  0.3316206E-002  0.1249998E+03  0.7818608E-02  0.1235070E+00
          4   -1    0    0  501    0  0.00000000000E+00  0.00000000000E+00  0.70199005217E+02  0.70210492331E+02  0.12700000000E+01 0.  1.
         -4   -1    0    0    0  501 -0.00000000000E+00 -0.00000000000E+00 -0.55621916139E+02  0.55636413031E+02  0.12700000000E+01 0.  1.
         25    2    1    2    0    0  0.00000000000E+00  0.00000000000E+00  0.14577089077E+02  0.12584690536E+03  0.12499980825E+03 0.  0.
    9000005    1    3    3    0    0  0.61706993587E+02  0.43717074366E+00  0.17219153158E+02  0.64073734176E+02  0.10000000000E+01 0.  0.
    9000005    1    3    3    0    0 -0.61706993587E+02 -0.43717074366E+00 -0.26420640804E+01  0.61773171186E+02  0.10000000000E+01 0.  0.
<mgrwt>
<rscale>  0 0.12499981E+03</rscale>
<asrwt>0</asrwt>
<pdfrwt beam="1">  1        4 0.10801846E-01 0.12499981E+03</pdfrwt>
<pdfrwt beam="2">  1       -4 0.85592166E-02 0.12499981E+03</pdfrwt>
<totfact> 0.10434360E+04</totfact>
</mgrwt>
</event>
<event>
 5    1  0.3316206E-002  0.1249929E+03  0.7818608E-02  0.1235080E+00
         -4   -1    0    0    0  501 -0.00000000000E+00  0.00000000000E+00  0.11687836333E+03  0.11688526304E+03  0.12700000000E+01 0. -1.
          4   -1    0    0  501    0  0.00000000000E+00 -0.00000000000E+00 -0.33397731671E+02  0.33421869798E+02  0.12700000000E+01 0. -1.
         25    2    1    2    0    0  0.00000000000E+00  0.00000000000E+00  0.83480631662E+02  0.15030713284E+03  0.12499287307E+03 0.  0.
    9000005    1    3    3    0    0 -0.21583970268E+02  0.17547632915E+02  0.10902823207E+03  0.11252529752E+03  0.10000000000E+01 0.  0.
    9000005    1    3    3    0    0  0.21583970268E+02 -0.17547632915E+02 -0.25547600407E+02  0.37781835318E+02  0.10000000000E+01 0.  0.
<mgrwt>
<rscale>  0 0.12499287E+03</rscale>
<asrwt>0</asrwt>
<pdfrwt beam="2">  1        4 0.51405000E-02 0.12499287E+03</pdfrwt>
<pdfrwt beam="1">  1       -4 0.17983675E-01 0.12499287E+03</pdfrwt>
<totfact> 0.99258430E+03</totfact>
</mgrwt>
</event>
<event>
 5    1  0.3316206E-002  0.1249990E+03  0.7818608E-02  0.1235071E+00
         -4   -1    0    0    0  501 -0.00000000000E+00  0.00000000000E+00  0.90391051045E+01  0.91278870003E+01  0.12700000000E+01 0. -1.
          4   -1    0    0  501    0  0.00000000000E+00 -0.00000000000E+00 -0.42994177474E+03  0.42994365045E+03  0.12700000000E+01 0. -1.
         25    2    1    2    0    0  0.00000000000E+00  0.00000000000E+00 -0.42090266963E+03  0.43907153745E+03  0.12499903078E+03 0.  0.
    9000005    1    3    3    0    0 -0.44090137218E+02  0.25137778096E+02 -0.82381486733E+02  0.96765476508E+02  0.10000000000E+01 0.  0.
    9000005    1    3    3    0    0  0.44090137218E+02 -0.25137778096E+02 -0.33852118290E+03  0.34230606095E+03  0.10000000000E+01 0.  0.
<mgrwt>
<rscale>  0 0.12499903E+03</rscale>
<asrwt>0</asrwt>
<pdfrwt beam="2">  1        4 0.66151846E-01 0.12499903E+03</pdfrwt>
<pdfrwt beam="1">  1       -4 0.13976056E-02 0.12499903E+03</pdfrwt>
<totfact> 0.60923541E+03</totfact>
</mgrwt>
</event>
<event>
 5    1  0.3316206E-002  0.1249875E+03  0.7818608E-02  0.1235089E+00
         -4   -1    0    0    0  501 -0.00000000000E+00  0.00000000000E+00  0.35721506814E+03  0.35721732574E+03  0.12700000000E+01 0. -1.
          4   -1    0    0  501    0  0.00000000000E+00 -0.00000000000E+00 -0.10893927529E+02  0.10967705185E+02  0.12700000000E+01 0. -1.
         25    2    1    2    0    0  0.00000000000E+00  0.00000000000E+00  0.34632114061E+03  0.36818503092E+03  0.12498753762E+03 0.  0.
    9000005    1    3    3    0    0  0.47182135588E+02 -0.12945615325E+02  0.58663969626E+02  0.76395053551E+02  0.10000000000E+01 0.  0.
    9000005    1    3    3    0    0 -0.47182135588E+02  0.12945615325E+02  0.28765717098E+03  0.29178997737E+03  0.10000000000E+01 0.  0.
<mgrwt>
<rscale>  0 0.12498754E+03</rscale>
<asrwt>0</asrwt>
<pdfrwt beam="2">  1        4 0.16818376E-02 0.12498754E+03</pdfrwt>
<pdfrwt beam="1">  1       -4 0.54962018E-01 0.12498754E+03</pdfrwt>
<totfact> 0.67787917E+03</totfact>
</mgrwt>
</event>
<event>
 5    1  0.3316206E-002  0.1249960E+03  0.7818608E-02  0.1235075E+00
         -4   -1    0    0    0  501 -0.00000000000E+00  0.00000000000E+00  0.66058059916E+02  0.66070266988E+02  0.12700000000E+01 0. -1.
          4   -1    0    0  501    0  0.00000000000E+00 -0.00000000000E+00 -0.59105332962E+02  0.59118975672E+02  0.12700000000E+01 0. -1.
         25    2    1    2    0    0  0.00000000000E+00  0.00000000000E+00  0.69527269541E+01  0.12518924266E+03  0.12499602420E+03 0.  0.
    9000005    1    3    3    0    0 -0.35186926049E+02  0.51379847617E+02  0.86798744460E+01  0.62883612542E+02  0.10000000000E+01 0.  0.
    9000005    1    3    3    0    0  0.35186926049E+02 -0.51379847617E+02 -0.17271474919E+01  0.62305630118E+02  0.10000000000E+01 0.  0.
<mgrwt>
<rscale>  0 0.12499602E+03</rscale>
<asrwt>0</asrwt>
<pdfrwt beam="2">  1        4 0.90951166E-02 0.12499602E+03</pdfrwt>
<pdfrwt beam="1">  1       -4 0.10164767E-01 0.12499602E+03</pdfrwt>
<totfact> 0.10449693E+04</totfact>
</mgrwt>
</event>
<event>
 5    1  0.3316206E-002  0.1250004E+03  0.7818608E-02  0.1235069E+00
          4   -1    0    0  501    0  0.00000000000E+00  0.00000000000E+00  0.83793845525E+01  0.84750802639E+01  0.12700000000E+01 0. -1.
         -4   -1    0    0    0  501 -0.00000000000E+00 -0.00000000000E+00 -0.46343322564E+03  0.46343496580E+03  0.12700000000E+01 0. -1.
         25    2    1    2    0    0  0.00000000000E+00  0.00000000000E+00 -0.45505384108E+03  0.47191004606E+03  0.12500037315E+03 0.  0.
    9000005    1    3    3    0    0  0.23112017715E+02 -0.38719370253E+02 -0.64187368073E+02  0.78449813357E+02  0.10000000000E+01 0.  0.
    9000005    1    3    3    0    0 -0.23112017715E+02  0.38719370253E+02 -0.39086647301E+03  0.39346023270E+03  0.10000000000E+01 0.  0.
<mgrwt>
<rscale>  0 0.12500037E+03</rscale>
<asrwt>0</asrwt>
<pdfrwt beam="1">  1        4 0.12966315E-02 0.12500037E+03</pdfrwt>
<pdfrwt beam="2">  1       -4 0.71304894E-01 0.12500037E+03</pdfrwt>
<totfact> 0.58111161E+03</totfact>
</mgrwt>
</event>
<event>
 5    1  0.3316206E-002  0.1249955E+03  0.7818608E-02  0.1235076E+00
          4   -1    0    0  501    0  0.00000000000E+00  0.00000000000E+00  0.63204456418E+03  0.63204584012E+03  0.12700000000E+01 0. -1.
         -4   -1    0    0    0  501 -0.00000000000E+00 -0.00000000000E+00 -0.61133504522E+01  0.62438732972E+01  0.12700000000E+01 0. -1.
         25    2    1    2    0    0  0.00000000000E+00  0.00000000000E+00  0.62593121373E+03  0.63828971342E+03  0.12499549565E+03 0.  0.
    9000005    1    3    3    0    0  0.15817639406E+02  0.29195387617E+02  0.42639149491E+02  0.54052432358E+02  0.10000000000E+01 0.  0.
    9000005    1    3    3    0    0 -0.15817639406E+02 -0.29195387617E+02  0.58329206424E+03  0.58423728106E+03  0.10000000000E+01 0.  0.
<mgrwt>
<rscale>  0 0.12499550E+03</rscale>
<asrwt>0</asrwt>
<pdfrwt beam="1">  1        4 0.97247762E-01 0.12499550E+03</pdfrwt>
<pdfrwt beam="2">  1       -4 0.95065383E-03 0.12499550E+03</pdfrwt>
<totfact> 0.46541101E+03</totfact>
</mgrwt>
</event>
<event>
 5    1  0.3316206E-002  0.1249922E+03  0.7818608E-02  0.1235081E+00
         -4   -1    0    0    0  501 -0.00000000000E+00  0.00000000000E+00  0.14702324229E+03  0.14702872737E+03  0.12700000000E+01 0.  1.
          4   -1    0    0  501    0  0.00000000000E+00 -0.00000000000E+00 -0.26544442318E+02  0.26574806076E+02  0.12700000000E+01 0.  1.
         25    2    1    2    0    0  0.00000000000E+00  0.00000000000E+00  0.12047879997E+03  0.17360353345E+03  0.12499218209E+03 0.  0.
    9000005    1    3    3    0    0 -0.11338519913E+02  0.34063959086E+02 -0.10797140212E+02  0.37503247582E+02  0.10000000000E+01 0.  0.
    9000005    1    3    3    0    0  0.11338519913E+02 -0.34063959086E+02  0.13127594018E+03  0.13610028587E+03  0.10000000000E+01 0.  0.
<mgrwt>
<rscale>  0 0.12499218E+03</rscale>
<asrwt>0</asrwt>
<pdfrwt beam="2">  1        4 0.40865179E-02 0.12499218E+03</pdfrwt>
<pdfrwt beam="1">  1       -4 0.22621718E-01 0.12499218E+03</pdfrwt>
<totfact> 0.94797851E+03</totfact>
</mgrwt>
</event>
<event>
 5    1  0.3316206E-002  0.1250041E+03  0.7818608E-02  0.1235063E+00
          4   -1    0    0  501    0  0.00000000000E+00  0.00000000000E+00  0.83942719746E+03  0.83942815818E+03  0.12700000000E+01 0. -1.
         -4   -1    0    0    0  501 -0.00000000000E+00 -0.00000000000E+00 -0.45661479746E+01  0.47394733173E+01  0.12700000000E+01 0. -1.
         25    2    1    2    0    0  0.00000000000E+00  0.00000000000E+00  0.83486104949E+03  0.84416763150E+03  0.12500407237E+03 0.  0.
    9000005    1    3    3    0    0  0.52233863783E+02  0.54760837567E+01  0.18870594302E+03  0.19588082333E+03  0.10000000000E+01 0.  0.
    9000005    1    3    3    0    0 -0.52233863783E+02 -0.54760837567E+01  0.64615510647E+03  0.64828680816E+03  0.10000000000E+01 0.  0.
<mgrwt>
<rscale>  0 0.12500407E+03</rscale>
<asrwt>0</asrwt>
<pdfrwt beam="1">  1        4 0.12915598E+00 0.12500407E+03</pdfrwt>
<pdfrwt beam="2">  1       -4 0.71589135E-03 0.12500407E+03</pdfrwt>
<totfact> 0.36363971E+03</totfact>
</mgrwt>
</event>
<event>
 5    1  0.3316206E-002  0.1249998E+03  0.7818608E-02  0.1235070E+00
         -4   -1    0    0    0  501 -0.00000000000E+00  0.00000000000E+00  0.48772811608E+02  0.48789343633E+02  0.12700000000E+01 0. -1.
          4   -1    0    0  501    0  0.00000000000E+00 -0.00000000000E+00 -0.80055366609E+02  0.80065439629E+02  0.12700000000E+01 0. -1.
         25    2    1    2    0    0  0.00000000000E+00  0.00000000000E+00 -0.31282555002E+02  0.12885478326E+03  0.12499982769E+03 0.  0.
    9000005    1    3    3    0    0  0.36399991169E+02  0.11522075498E+02  0.35356870089E+02  0.52046381655E+02  0.10000000000E+01 0.  0.
    9000005    1    3    3    0    0 -0.36399991169E+02 -0.11522075498E+02 -0.66639425091E+02  0.76808401606E+02  0.10000000000E+01 0.  0.
<mgrwt>
<rscale>  0 0.12499983E+03</rscale>
<asrwt>0</asrwt>
<pdfrwt beam="2">  1        4 0.12318257E-01 0.12499983E+03</pdfrwt>
<pdfrwt beam="1">  1       -4 0.75055560E-02 0.12499983E+03</pdfrwt>
<totfact> 0.10369109E+04</totfact>
</mgrwt>
</event>
<event>
 5    1  0.3316206E-002  0.1249994E+03  0.7818608E-02  0.1235070E+00
          4   -1    0    0  501    0  0.00000000000E+00  0.00000000000E+00  0.29412503484E+02  0.29439909327E+02  0.12700000000E+01 0. -1.
         -4   -1    0    0    0  501 -0.00000000000E+00 -0.00000000000E+00 -0.13271562933E+03  0.13272170572E+03  0.12700000000E+01 0. -1.
         25    2    1    2    0    0  0.00000000000E+00  0.00000000000E+00 -0.10330312585E+03  0.16216161505E+03  0.12499941434E+03 0.  0.
    9000005    1    3    3    0    0  0.57204644029E+02  0.10717731576E+02 -0.81176797860E+02  0.99889506853E+02  0.10000000000E+01 0.  0.
    9000005    1    3    3    0    0 -0.57204644029E+02 -0.10717731576E+02 -0.22126327989E+02  0.62272108194E+02  0.10000000000E+01 0.  0.
<mgrwt>
<rscale>  0 0.12499941E+03</rscale>
<asrwt>0</asrwt>
<pdfrwt beam="1">  1        4 0.45275762E-02 0.12499941E+03</pdfrwt>
<pdfrwt beam="2">  1       -4 0.20420364E-01 0.12499941E+03</pdfrwt>
<totfact> 0.96928930E+03</totfact>
</mgrwt>
</event>
<event>
 5    1  0.3316206E-002  0.1250000E+03  0.7818608E-02  0.1235069E+00
         -4   -1    0    0    0  501 -0.00000000000E+00  0.00000000000E+00  0.11510303701E+03  0.11511004313E+03  0.12700000000E+01 0. -1.
          4   -1    0    0  501    0  0.00000000000E+00 -0.00000000000E+00 -0.33917040621E+02  0.33940809426E+02  0.12700000000E+01 0. -1.
         25    2    1    2    0    0  0.00000000000E+00  0.00000000000E+00  0.81185996386E+02  0.14905085255E+03  0.12499996255E+03 0.  0.
    9000005    1    3    3    0    0 -0.32518592205E+02 -0.16832781056E+02 -0.19790933391E+02  0.41635110203E+02  0.10000000000E+01 0.  0.
    9000005    1    3    3    0    0  0.32518592205E+02  0.16832781056E+02  0.10097692978E+03  0.10741574235E+03  0.10000000000E+01 0.  0.
<mgrwt>
<rscale>  0 0.12499996E+03</rscale>
<asrwt>0</asrwt>
<pdfrwt beam="2">  1        4 0.52203736E-02 0.12499996E+03</pdfrwt>
<pdfrwt beam="1">  1       -4 0.17710527E-01 0.12499996E+03</pdfrwt>
<totfact> 0.99493317E+03</totfact>
</mgrwt>
</event>
<event>
 5    1  0.3316206E-002  0.1250007E+03  0.7818608E-02  0.1235068E+00
          4   -1    0    0  501    0  0.00000000000E+00  0.00000000000E+00  0.20757689335E+02  0.20796503709E+02  0.12700000000E+01 0.  1.
         -4   -1    0    0    0  501 -0.00000000000E+00 -0.00000000000E+00 -0.18796858050E+03  0.18797287079E+03  0.12700000000E+01 0.  1.
         25    2    1    2    0    0  0.00000000000E+00  0.00000000000E+00 -0.16721089116E+03  0.20876937450E+03  0.12500067842E+03 0.  0.
    9000005    1    3    3    0    0 -0.57531667330E+02 -0.17286249922E+02 -0.11236811382E+03  0.12742174141E+03  0.10000000000E+01 0.  0.
    9000005    1    3    3    0    0  0.57531667330E+02  0.17286249922E+02 -0.54842777347E+02  0.81347633090E+02  0.10000000000E+01 0.  0.
<mgrwt>
<rscale>  0 0.12500068E+03</rscale>
<asrwt>0</asrwt>
<pdfrwt beam="1">  1        4 0.31968065E-02 0.12500068E+03</pdfrwt>
<pdfrwt beam="2">  1       -4 0.28921558E-01 0.12500068E+03</pdfrwt>
<totfact> 0.88675909E+03</totfact>
</mgrwt>
</event>
<event>
 5    1  0.3316206E-002  0.1250025E+03  0.7818608E-02  0.1235065E+00
         -4   -1    0    0    0  501 -0.00000000000E+00  0.00000000000E+00  0.26414147369E+03  0.26414452677E+03  0.12700000000E+01 0.  1.
          4   -1    0    0  501    0  0.00000000000E+00 -0.00000000000E+00 -0.14758660026E+02  0.14813201739E+02  0.12700000000E+01 0.  1.
         25    2    1    2    0    0  0.00000000000E+00  0.00000000000E+00  0.24938281366E+03  0.27895772851E+03  0.12500250615E+03 0.  0.
    9000005    1    3    3    0    0 -0.12799267948E+02 -0.55292702860E+02  0.66314147086E+02  0.87290723180E+02  0.10000000000E+01 0.  0.
    9000005    1    3    3    0    0  0.12799267948E+02  0.55292702860E+02  0.18306866658E+03  0.19166700533E+03  0.10000000000E+01 0.  0.
<mgrwt>
<rscale>  0 0.12500251E+03</rscale>
<asrwt>0</asrwt>
<pdfrwt beam="2">  1        4 0.22749936E-02 0.12500251E+03</pdfrwt>
<pdfrwt beam="1">  1       -4 0.40641577E-01 0.12500251E+03</pdfrwt>
<totfact> 0.78312145E+03</totfact>
</mgrwt>
</event>
<event>
 5    1  0.3316206E-002  0.1249968E+03  0.7818608E-02  0.1235074E+00
         -4   -1    0    0    0  501 -0.00000000000E+00  0.00000000000E+00  0.10034359214E+03  0.10035162871E+03  0.12700000000E+01 0.  1.
          4   -1    0    0  501    0  0.00000000000E+00 -0.00000000000E+00 -0.38906772158E+02  0.38927494394E+02  0.12700000000E+01 0.  1.
         25    2    1    2    0    0  0.00000000000E+00  0.00000000000E+00  0.61436819985E+02  0.13927912310E+03  0.12499676509E+03 0.  0.
    9000005    1    3    3    0    0 -0.32178074859E+02  0.42424949241E+02  0.67162488791E+02  0.85715253720E+02  0.10000000000E+01 0.  0.
    9000005    1    3    3    0    0  0.32178074859E+02 -0.42424949241E+02 -0.57256688058E+01  0.53563869381E+02  0.10000000000E+01 0.  0.
<mgrwt>
<rscale>  0 0.12499677E+03</rscale>
<asrwt>0</asrwt>
<pdfrwt beam="2">  1        4 0.59878696E-02 0.12499677E+03</pdfrwt>
<pdfrwt beam="1">  1       -4 0.15439688E-01 0.12499677E+03</pdfrwt>
<totfact> 0.10149288E+04</totfact>
</mgrwt>
</event>
<event>
 5    1  0.3316206E-002  0.1250103E+03  0.7818608E-02  0.1235053E+00
         -4   -1    0    0    0  501 -0.00000000000E+00  0.00000000000E+00  0.31883304776E+02  0.31908588553E+02  0.12700000000E+01 0. -1.
          4   -1    0    0  501    0  0.00000000000E+00 -0.00000000000E+00 -0.12246011526E+03  0.12246670050E+03  0.12700000000E+01 0. -1.
         25    2    1    2    0    0  0.00000000000E+00  0.00000000000E+00 -0.90576810488E+02  0.15437528905E+03  0.12501028466E+03 0.  0.
    9000005    1    3    3    0    0 -0.34669759362E+02 -0.36786882308E+02 -0.90672071354E+02  0.10381566090E+03  0.10000000000E+01 0.  0.
    9000005    1    3    3    0    0  0.34669759362E+02  0.36786882308E+02  0.95260865766E-01  0.50559628152E+02  0.10000000000E+01 0.  0.
<mgrwt>
<rscale>  0 0.12501028E+03</rscale>
<asrwt>0</asrwt>
<pdfrwt beam="2">  1        4 0.18842469E-01 0.12501028E+03</pdfrwt>
<pdfrwt beam="1">  1       -4 0.49075753E-02 0.12501028E+03</pdfrwt>
<totfact> 0.98415510E+03</totfact>
</mgrwt>
</event>
<event>
 5    1  0.3316206E-002  0.1249891E+03  0.7818608E-02  0.1235086E+00
          4   -1    0    0  501    0  0.00000000000E+00  0.00000000000E+00  0.17220398274E+03  0.17220866578E+03  0.12700000000E+01 0. -1.
         -4   -1    0    0    0  501 -0.00000000000E+00 -0.00000000000E+00 -0.22657106366E+02  0.22692672140E+02  0.12700000000E+01 0. -1.
         25    2    1    2    0    0  0.00000000000E+00  0.00000000000E+00  0.14954687637E+03  0.19490133792E+03  0.12498905269E+03 0.  0.
    9000005    1    3    3    0    0 -0.58945245469E+02  0.11505301013E+02  0.10167621937E+03  0.11809304595E+03  0.10000000000E+01 0.  0.
    9000005    1    3    3    0    0  0.58945245469E+02 -0.11505301013E+02  0.47870656996E+02  0.76808291974E+02  0.10000000000E+01 0.  0.
<mgrwt>
<rscale>  0 0.12498905E+03</rscale>
<asrwt>0</asrwt>
<pdfrwt beam="1">  1        4 0.26496017E-01 0.12498905E+03</pdfrwt>
<pdfrwt beam="2">  1       -4 0.34888046E-02 0.12498905E+03</pdfrwt>
<totfact> 0.91023730E+03</totfact>
</mgrwt>
</event>
<event>
 5    1  0.3316206E-002  0.1249942E+03  0.7818608E-02  0.1235078E+00
          4   -1    0    0  501    0  0.00000000000E+00  0.00000000000E+00  0.95079785100E+02  0.95088266546E+02  0.12700000000E+01 0.  1.
         -4   -1    0    0    0  501 -0.00000000000E+00 -0.00000000000E+00 -0.41059968988E+02  0.41079605078E+02  0.12700000000E+01 0.  1.
         25    2    1    2    0    0  0.00000000000E+00  0.00000000000E+00  0.54019816112E+02  0.13616787162E+03  0.12499419478E+03 0.  0.
    9000005    1    3    3    0    0  0.38921480343E+02  0.31263930123E+02  0.67953895673E+02  0.84327023521E+02  0.10000000000E+01 0.  0.
    9000005    1    3    3    0    0 -0.38921480343E+02 -0.31263930123E+02 -0.13934079561E+02  0.51840848103E+02  0.10000000000E+01 0.  0.
<mgrwt>
<rscale>  0 0.12499419E+03</rscale>
<asrwt>0</asrwt>
<pdfrwt beam="1">  1        4 0.14629822E-01 0.12499419E+03</pdfrwt>
<pdfrwt beam="2">  1       -4 0.63190812E-02 0.12499419E+03</pdfrwt>
<totfact> 0.10214850E+04</totfact>
</mgrwt>
</event>
<event>
 5    1  0.3316206E-002  0.1249980E+03  0.7818608E-02  0.1235072E+00
          4   -1    0    0  501    0  0.00000000000E+00  0.00000000000E+00  0.47026007930E+03  0.47026179420E+03  0.12700000000E+01 0.  1.
         -4   -1    0    0    0  501 -0.00000000000E+00 -0.00000000000E+00 -0.82560176237E+01  0.83531267800E+01  0.12700000000E+01 0.  1.
         25    2    1    2    0    0  0.00000000000E+00  0.00000000000E+00  0.46200406167E+03  0.47861492098E+03  0.12499795830E+03 0.  0.
    9000005    1    3    3    0    0  0.26038186709E+02 -0.56710016819E+02  0.21823984410E+03  0.22698819953E+03  0.10000000000E+01 0.  0.
    9000005    1    3    3    0    0 -0.26038186709E+02  0.56710016819E+02  0.24376421758E+03  0.25162672145E+03  0.10000000000E+01 0.  0.
<mgrwt>
<rscale>  0 0.12499796E+03</rscale>
<asrwt>0</asrwt>
<pdfrwt beam="1">  1        4 0.72355326E-01 0.12499796E+03</pdfrwt>
<pdfrwt beam="2">  1       -4 0.12777581E-02 0.12499796E+03</pdfrwt>
<totfact> 0.57565193E+03</totfact>
</mgrwt>
</event>
<event>
 5    1  0.3316206E-002  0.1249954E+03  0.7818608E-02  0.1235076E+00
          4   -1    0    0  501    0  0.00000000000E+00  0.00000000000E+00  0.52402742727E+03  0.52402896621E+03  0.12700000000E+01 0. -1.
         -4   -1    0    0    0  501 -0.00000000000E+00 -0.00000000000E+00 -0.73980791141E+01  0.75062956628E+01  0.12700000000E+01 0. -1.
         25    2    1    2    0    0  0.00000000000E+00  0.00000000000E+00  0.51662934816E+03  0.53153526188E+03  0.12499540489E+03 0.  0.
    9000005    1    3    3    0    0 -0.57104824542E+02 -0.24621300340E+02  0.28445710577E+03  0.29117694695E+03  0.10000000000E+01 0.  0.
    9000005    1    3    3    0    0  0.57104824542E+02  0.24621300340E+02  0.23217224239E+03  0.24035831492E+03  0.10000000000E+01 0.  0.
<mgrwt>
<rscale>  0 0.12499540E+03</rscale>
<asrwt>0</asrwt>
<pdfrwt beam="1">  1        4 0.80628049E-01 0.12499540E+03</pdfrwt>
<pdfrwt beam="2">  1       -4 0.11466087E-02 0.12499540E+03</pdfrwt>
<totfact> 0.53503425E+03</totfact>
</mgrwt>
</event>
<event>
 5    1  0.3316206E-002  0.1249990E+03  0.7818608E-02  0.1235071E+00
          4   -1    0    0  501    0  0.00000000000E+00  0.00000000000E+00  0.15208928428E+02  0.15261861090E+02  0.12700000000E+01 0. -1.
         -4   -1    0    0    0  501 -0.00000000000E+00 -0.00000000000E+00 -0.25633445380E+03  0.25633759987E+03  0.12700000000E+01 0. -1.
         25    2    1    2    0    0  0.00000000000E+00  0.00000000000E+00 -0.24112552537E+03  0.27159946096E+03  0.12499899282E+03 0.  0.
    9000005    1    3    3    0    0  0.32104079546E+02 -0.49726488274E+02 -0.77009293073E+02  0.97133036497E+02  0.10000000000E+01 0.  0.
    9000005    1    3    3    0    0 -0.32104079546E+02  0.49726488274E+02 -0.16411623230E+03  0.17446642446E+03  0.10000000000E+01 0.  0.
<mgrwt>
<rscale>  0 0.12499899E+03</rscale>
<asrwt>0</asrwt>
<pdfrwt beam="1">  1        4 0.23441491E-02 0.12499899E+03</pdfrwt>
<pdfrwt beam="2">  1       -4 0.39440380E-01 0.12499899E+03</pdfrwt>
<totfact> 0.79307082E+03</totfact>
</mgrwt>
</event>
<event>
 5    1  0.3316206E-002  0.1250009E+03  0.7818608E-02  0.1235068E+00
          4   -1    0    0  501    0  0.00000000000E+00  0.00000000000E+00  0.10356611148E+03  0.10357389800E+03  0.12700000000E+01 0. -1.
         -4   -1    0    0    0  501 -0.00000000000E+00 -0.00000000000E+00 -0.37698101581E+02  0.37719487839E+02  0.12700000000E+01 0. -1.
         25    2    1    2    0    0  0.00000000000E+00  0.00000000000E+00  0.65868009900E+02  0.14129338584E+03  0.12500090461E+03 0.  0.
    9000005    1    3    3    0    0  0.32792365490E+02 -0.25637543442E+02 -0.19753414320E+02  0.46084924275E+02  0.10000000000E+01 0.  0.
    9000005    1    3    3    0    0 -0.32792365490E+02  0.25637543442E+02  0.85621424220E+02  0.95208461565E+02  0.10000000000E+01 0.  0.
<mgrwt>
<rscale>  0 0.12500090E+03</rscale>
<asrwt>0</asrwt>
<pdfrwt beam="1">  1        4 0.15935491E-01 0.12500090E+03</pdfrwt>
<pdfrwt beam="2">  1       -4 0.58019522E-02 0.12500090E+03</pdfrwt>
<totfact> 0.10106644E+04</totfact>
</mgrwt>
</event>
<event>
 5    1  0.3316206E-002  0.1250006E+03  0.7818608E-02  0.1235068E+00
         -4   -1    0    0    0  501 -0.00000000000E+00  0.00000000000E+00  0.19931162697E+03  0.19931567311E+03  0.12700000000E+01 0. -1.
          4   -1    0    0  501    0  0.00000000000E+00 -0.00000000000E+00 -0.19574063794E+02  0.19615220453E+02  0.12700000000E+01 0. -1.
         25    2    1    2    0    0  0.00000000000E+00  0.00000000000E+00  0.17973756318E+03  0.21893089356E+03  0.12500057815E+03 0.  0.
    9000005    1    3    3    0    0 -0.39738873425E+02  0.43706784877E+02  0.54153807347E+02  0.80144219726E+02  0.10000000000E+01 0.  0.
    9000005    1    3    3    0    0  0.39738873425E+02 -0.43706784877E+02  0.12558375583E+03  0.13878667383E+03  0.10000000000E+01 0.  0.
<mgrwt>
<rscale>  0 0.12500058E+03</rscale>
<asrwt>0</asrwt>
<pdfrwt beam="2">  1        4 0.30148716E-02 0.12500058E+03</pdfrwt>
<pdfrwt beam="1">  1       -4 0.30666804E-01 0.12500058E+03</pdfrwt>
<totfact> 0.87036680E+03</totfact>
</mgrwt>
</event>
<event>
 5    1  0.3316206E-002  0.1250069E+03  0.7818608E-02  0.1235058E+00
          4   -1    0    0  501    0  0.00000000000E+00  0.00000000000E+00  0.18160966596E+03  0.18161410648E+03  0.12700000000E+01 0. -1.
         -4   -1    0    0    0  501 -0.00000000000E+00 -0.00000000000E+00 -0.21487974621E+02  0.21525472197E+02  0.12700000000E+01 0. -1.
         25    2    1    2    0    0  0.00000000000E+00  0.00000000000E+00  0.16012169134E+03  0.20313957867E+03  0.12500692935E+03 0.  0.
    9000005    1    3    3    0    0  0.59710684560E+02 -0.60405191494E+01  0.10838619923E+03  0.12389681959E+03  0.10000000000E+01 0.  0.
    9000005    1    3    3    0    0 -0.59710684560E+02  0.60405191494E+01  0.51735492114E+02  0.79242759079E+02  0.10000000000E+01 0.  0.
<mgrwt>
<rscale>  0 0.12500693E+03</rscale>
<asrwt>0</asrwt>
<pdfrwt beam="1">  1        4 0.27943176E-01 0.12500693E+03</pdfrwt>
<pdfrwt beam="2">  1       -4 0.33090681E-02 0.12500693E+03</pdfrwt>
<totfact> 0.89594788E+03</totfact>
</mgrwt>
</event>
<event>
 4    1  0.3316206E-002  0.1253232E+03  0.7818608E-02  0.1234565E+00
          4   -1    0    0  501    0  0.00000000000E+00  0.00000000000E+00  0.92315807688E+01  0.93185290411E+01  0.12700000000E+01 0. -1.
         -4   -1    0    0    0  501 -0.00000000000E+00 -0.00000000000E+00 -0.42324901043E+03  0.42325091580E+03  0.12700000000E+01 0. -1.
    9000005    1    1    2    0    0 -0.48813272324E+02 -0.68174191936E+01 -0.73494312474E+02  0.88496478605E+02  0.10000000000E+01 0.  0.
    9000005    1    1    2    0    0  0.48813272324E+02  0.68174191936E+01 -0.34052311718E+03  0.34407296624E+03  0.10000000000E+01 0.  0.
<mgrwt>
<rscale>  0 0.12532315E+03</rscale>
<asrwt>0</asrwt>
<pdfrwt beam="1">  1        4 0.14270784E-02 0.12532315E+03</pdfrwt>
<pdfrwt beam="2">  1       -4 0.65122052E-01 0.12532315E+03</pdfrwt>
<totfact> 0.61067668E+03</totfact>
</mgrwt>
</event>
<event>
 5    1  0.3316206E-002  0.1249992E+03  0.7818608E-02  0.1235071E+00
          4   -1    0    0  501    0  0.00000000000E+00  0.00000000000E+00  0.27089215420E+03  0.27089513120E+03  0.12700000000E+01 0. -1.
         -4   -1    0    0    0  501 -0.00000000000E+00 -0.00000000000E+00 -0.14388725134E+02  0.14444663755E+02  0.12700000000E+01 0. -1.
         25    2    1    2    0    0  0.00000000000E+00  0.00000000000E+00  0.25650342907E+03  0.28533979496E+03  0.12499915784E+03 0.  0.
    9000005    1    3    3    0    0 -0.21623492065E+02  0.50437556563E+02  0.60010770772E+02  0.81325365845E+02  0.10000000000E+01 0.  0.
    9000005    1    3    3    0    0  0.21623492065E+02 -0.50437556563E+02  0.19649265830E+03  0.20401442911E+03  0.10000000000E+01 0.  0.
<mgrwt>
<rscale>  0 0.12499916E+03</rscale>
<asrwt>0</asrwt>
<pdfrwt beam="1">  1        4 0.41680248E-01 0.12499916E+03</pdfrwt>
<pdfrwt beam="2">  1       -4 0.22181820E-02 0.12499916E+03</pdfrwt>
<totfact> 0.77476822E+03</totfact>
</mgrwt>
</event>
<event>
 5    1  0.3316206E-002  0.1249988E+03  0.7818608E-02  0.1235071E+00
          4   -1    0    0  501    0  0.00000000000E+00  0.00000000000E+00  0.45448446360E+01  0.47189525073E+01  0.12700000000E+01 0.  1.
         -4   -1    0    0    0  501 -0.00000000000E+00 -0.00000000000E+00 -0.84314529903E+03  0.84314625551E+03  0.12700000000E+01 0.  1.
         25    2    1    2    0    0  0.00000000000E+00  0.00000000000E+00 -0.83860045439E+03  0.84786520802E+03  0.12499875540E+03 0.  0.
    9000005    1    3    3    0    0  0.30194768932E+02 -0.48420567665E+02 -0.59208637868E+03  0.59483069462E+03  0.10000000000E+01 0.  0.
    9000005    1    3    3    0    0 -0.30194768932E+02  0.48420567665E+02 -0.24651407572E+03  0.25303451340E+03  0.10000000000E+01 0.  0.
<mgrwt>
<rscale>  0 0.12499876E+03</rscale>
<asrwt>0</asrwt>
<pdfrwt beam="1">  1        4 0.71267403E-03 0.12499876E+03</pdfrwt>
<pdfrwt beam="2">  1       -4 0.12972801E+00 0.12499876E+03</pdfrwt>
<totfact> 0.36215856E+03</totfact>
</mgrwt>
</event>
<event>
 5    1  0.3316206E-002  0.1250004E+03  0.7818608E-02  0.1235069E+00
          4   -1    0    0  501    0  0.00000000000E+00  0.00000000000E+00  0.43252773467E+02  0.43271414497E+02  0.12700000000E+01 0.  1.
         -4   -1    0    0    0  501 -0.00000000000E+00 -0.00000000000E+00 -0.90270126866E+02  0.90279060166E+02  0.12700000000E+01 0.  1.
         25    2    1    2    0    0  0.00000000000E+00  0.00000000000E+00 -0.47017353399E+02  0.13355047466E+03  0.12500039105E+03 0.  0.
    9000005    1    3    3    0    0 -0.52937541674E+02  0.25802055602E+02 -0.11705450486E+01  0.58910946075E+02  0.10000000000E+01 0.  0.
    9000005    1    3    3    0    0  0.52937541674E+02 -0.25802055602E+02 -0.45846808351E+02  0.74639528587E+02  0.10000000000E+01 0.  0.
<mgrwt>
<rscale>  0 0.12500039E+03</rscale>
<asrwt>0</asrwt>
<pdfrwt beam="1">  1        4 0.66563939E-02 0.12500039E+03</pdfrwt>
<pdfrwt beam="2">  1       -4 0.13889833E-01 0.12500039E+03</pdfrwt>
<totfact> 0.10268624E+04</totfact>
</mgrwt>
</event>
<event>
 5    1  0.3316206E-002  0.1250097E+03  0.7818608E-02  0.1235054E+00
          4   -1    0    0  501    0  0.00000000000E+00  0.00000000000E+00  0.13502818901E+02  0.13562411964E+02  0.12700000000E+01 0.  1.
         -4   -1    0    0    0  501 -0.00000000000E+00 -0.00000000000E+00 -0.28863806835E+03  0.28864086232E+03  0.12700000000E+01 0.  1.
         25    2    1    2    0    0  0.00000000000E+00  0.00000000000E+00 -0.27513524945E+03  0.30220327428E+03  0.12500965362E+03 0.  0.
    9000005    1    3    3    0    0 -0.23769764654E+02  0.47034831914E+02 -0.21877978573E+03  0.22503971153E+03  0.10000000000E+01 0.  0.
    9000005    1    3    3    0    0  0.23769764654E+02 -0.47034831914E+02 -0.56355463723E+02  0.77163562750E+02  0.10000000000E+01 0.  0.
<mgrwt>
<rscale>  0 0.12500965E+03</rscale>
<asrwt>0</asrwt>
<pdfrwt beam="1">  1        4 0.20821560E-02 0.12500965E+03</pdfrwt>
<pdfrwt beam="2">  1       -4 0.44410651E-01 0.12500965E+03</pdfrwt>
<totfact> 0.75307157E+03</totfact>
</mgrwt>
</event>
<event>
 5    1  0.3316206E-002  0.1249955E+03  0.7818608E-02  0.1235076E+00
          4   -1    0    0  501    0  0.00000000000E+00  0.00000000000E+00  0.10366185671E+02  0.10443692133E+02  0.12700000000E+01 0.  1.
         -4   -1    0    0    0  501 -0.00000000000E+00 -0.00000000000E+00 -0.37531722812E+03  0.37531937683E+03  0.12700000000E+01 0.  1.
         25    2    1    2    0    0  0.00000000000E+00  0.00000000000E+00 -0.36495104245E+03  0.38576306897E+03  0.12499552788E+03 0.  0.
    9000005    1    3    3    0    0  0.22548645701E+02  0.45429856493E+02 -0.69811460501E+02  0.86295731651E+02  0.10000000000E+01 0.  0.
    9000005    1    3    3    0    0 -0.22548645701E+02 -0.45429856493E+02 -0.29513958195E+03  0.29946733732E+03  0.10000000000E+01 0.  0.
<mgrwt>
<rscale>  0 0.12499553E+03</rscale>
<asrwt>0</asrwt>
<pdfrwt beam="1">  1        4 0.16009254E-02 0.12499553E+03</pdfrwt>
<pdfrwt beam="2">  1       -4 0.57747229E-01 0.12499553E+03</pdfrwt>
<totfact> 0.65967938E+03</totfact>
</mgrwt>
</event>
<event>
 5    1  0.3316206E-002  0.1249958E+03  0.7818608E-02  0.1235076E+00
          4   -1    0    0  501    0  0.00000000000E+00  0.00000000000E+00  0.75036949298E+02  0.75047695900E+02  0.12700000000E+01 0.  1.
         -4   -1    0    0    0  501 -0.00000000000E+00 -0.00000000000E+00 -0.52031947035E+02  0.52047443859E+02  0.12700000000E+01 0.  1.
         25    2    1    2    0    0  0.00000000000E+00  0.00000000000E+00  0.23005002263E+02  0.12709513976E+03  0.12499577761E+03 0.  0.
    9000005    1    3    3    0    0  0.25012564193E+02 -0.58919950780E+01  0.69420960613E+02  0.74031167395E+02  0.10000000000E+01 0.  0.
    9000005    1    3    3    0    0 -0.25012564193E+02  0.58919950780E+01 -0.46415958350E+02  0.53063972364E+02  0.10000000000E+01 0.  0.
<mgrwt>
<rscale>  0 0.12499578E+03</rscale>
<asrwt>0</asrwt>
<pdfrwt beam="1">  1        4 0.11546165E-01 0.12499578E+03</pdfrwt>
<pdfrwt beam="2">  1       -4 0.80069336E-02 0.12499578E+03</pdfrwt>
<totfact> 0.10408071E+04</totfact>
</mgrwt>
</event>
<event>
 5    1  0.3316206E-002  0.1250007E+03  0.7818608E-02  0.1235068E+00
         -4   -1    0    0    0  501 -0.00000000000E+00  0.00000000000E+00  0.29524401219E+01  0.32140010382E+01  0.12700000000E+01 0.  1.
          4   -1    0    0  501    0  0.00000000000E+00 -0.00000000000E+00 -0.12666901553E+04  0.12666907920E+04  0.12700000000E+01 0.  1.
         25    2    1    2    0    0  0.00000000000E+00  0.00000000000E+00 -0.12637377152E+04  0.12699047930E+04  0.12500068206E+03 0.  0.
    9000005    1    3    3    0    0  0.23460877541E+02  0.55822752415E+02 -0.78882746638E+03  0.79114876235E+03  0.10000000000E+01 0.  0.
    9000005    1    3    3    0    0 -0.23460877541E+02 -0.55822752415E+02 -0.47491024883E+03  0.47875603068E+03  0.10000000000E+01 0.  0.
<mgrwt>
<rscale>  0 0.12500068E+03</rscale>
<asrwt>0</asrwt>
<pdfrwt beam="2">  1        4 0.19489516E+00 0.12500068E+03</pdfrwt>
<pdfrwt beam="1">  1       -4 0.47439161E-03 0.12500068E+03</pdfrwt>
<totfact> 0.22949873E+03</totfact>
</mgrwt>
</event>
<event>
 5    1  0.3316206E-002  0.1249968E+03  0.7818608E-02  0.1235074E+00
          4   -1    0    0  501    0  0.00000000000E+00  0.00000000000E+00  0.68942109045E+01  0.70102099823E+01  0.12700000000E+01 0. -1.
         -4   -1    0    0    0  501 -0.00000000000E+00 -0.00000000000E+00 -0.56172584921E+03  0.56172728487E+03  0.12700000000E+01 0. -1.
         25    2    1    2    0    0  0.00000000000E+00  0.00000000000E+00 -0.55483163830E+03  0.56873749485E+03  0.12499676472E+03 0.  0.
    9000005    1    3    3    0    0 -0.35036997857E+02 -0.29739706712E+02 -0.84750293793E+02  0.96413970317E+02  0.10000000000E+01 0.  0.
    9000005    1    3    3    0    0  0.35036997857E+02  0.29739706712E+02 -0.47008134451E+03  0.47232352454E+03  0.10000000000E+01 0.  0.
<mgrwt>
<rscale>  0 0.12499676E+03</rscale>
<asrwt>0</asrwt>
<pdfrwt beam="1">  1        4 0.10696817E-02 0.12499676E+03</pdfrwt>
<pdfrwt beam="2">  1       -4 0.86428359E-01 0.12499676E+03</pdfrwt>
<totfact> 0.50906014E+03</totfact>
</mgrwt>
</event>
<event>
 5    1  0.3316206E-002  0.1249978E+03  0.7818608E-02  0.1235073E+00
          4   -1    0    0  501    0  0.00000000000E+00  0.00000000000E+00  0.35813507375E+03  0.35813732555E+03  0.12700000000E+01 0.  1.
         -4   -1    0    0    0  501 -0.00000000000E+00 -0.00000000000E+00 -0.10867550180E+02  0.10941505697E+02  0.12700000000E+01 0.  1.
         25    2    1    2    0    0  0.00000000000E+00  0.00000000000E+00  0.34726752357E+03  0.36907883125E+03  0.12499780296E+03 0.  0.
    9000005    1    3    3    0    0  0.29915585665E+02 -0.54852761468E+02  0.17705808448E+03  0.18776137245E+03  0.10000000000E+01 0.  0.
    9000005    1    3    3    0    0 -0.29915585665E+02  0.54852761468E+02  0.17020943910E+03  0.18131745879E+03  0.10000000000E+01 0.  0.
<mgrwt>
<rscale>  0 0.12499780E+03</rscale>
<asrwt>0</asrwt>
<pdfrwt beam="1">  1        4 0.55103564E-01 0.12499780E+03</pdfrwt>
<pdfrwt beam="2">  1       -4 0.16777929E-02 0.12499780E+03</pdfrwt>
<totfact> 0.67678705E+03</totfact>
</mgrwt>
</event>
<event>
 5    1  0.3316206E-002  0.1249970E+03  0.7818608E-02  0.1235074E+00
         -4   -1    0    0    0  501 -0.00000000000E+00  0.00000000000E+00  0.50472815278E+02  0.50488790658E+02  0.12700000000E+01 0. -1.
          4   -1    0    0  501    0  0.00000000000E+00 -0.00000000000E+00 -0.77356051083E+02  0.77366475551E+02  0.12700000000E+01 0. -1.
         25    2    1    2    0    0  0.00000000000E+00  0.00000000000E+00 -0.26883235805E+02  0.12785526621E+03  0.12499704288E+03 0.  0.
    9000005    1    3    3    0    0  0.36226010015E+02  0.30633032473E+02  0.28162251282E+02  0.55179877468E+02  0.10000000000E+01 0.  0.
    9000005    1    3    3    0    0 -0.36226010015E+02 -0.30633032473E+02 -0.55045487086E+02  0.72675388741E+02  0.10000000000E+01 0.  0.
<mgrwt>
<rscale>  0 0.12499704E+03</rscale>
<asrwt>0</asrwt>
<pdfrwt beam="2">  1        4 0.11902962E-01 0.12499704E+03</pdfrwt>
<pdfrwt beam="1">  1       -4 0.77670792E-02 0.12499704E+03</pdfrwt>
<totfact> 0.10391308E+04</totfact>
</mgrwt>
</event>
<event>
 5    1  0.3316206E-002  0.1249997E+03  0.7818608E-02  0.1235070E+00
          4   -1    0    0  501    0  0.00000000000E+00  0.00000000000E+00  0.23544966780E+03  0.23545309292E+03  0.12700000000E+01 0.  1.
         -4   -1    0    0    0  501 -0.00000000000E+00 -0.00000000000E+00 -0.16562648507E+02  0.16611268030E+02  0.12700000000E+01 0.  1.
         25    2    1    2    0    0  0.00000000000E+00  0.00000000000E+00  0.21888701929E+03  0.25206436095E+03  0.12499965939E+03 0.  0.
    9000005    1    3    3    0    0 -0.47466988884E+02  0.34008429302E+02  0.15433273966E+03  0.16501297775E+03  0.10000000000E+01 0.  0.
    9000005    1    3    3    0    0  0.47466988884E+02 -0.34008429302E+02  0.64554279634E+02  0.87051383196E+02  0.10000000000E+01 0.  0.
<mgrwt>
<rscale>  0 0.12499966E+03</rscale>
<asrwt>0</asrwt>
<pdfrwt beam="1">  1        4 0.36227029E-01 0.12499966E+03</pdfrwt>
<pdfrwt beam="2">  1       -4 0.25521032E-02 0.12499966E+03</pdfrwt>
<totfact> 0.82033397E+03</totfact>
</mgrwt>
</event>
<event>
 5    1  0.3316206E-002  0.1250014E+03  0.7818608E-02  0.1235067E+00
          4   -1    0    0  501    0  0.00000000000E+00  0.00000000000E+00  0.29586994774E+02  0.29614239139E+02  0.12700000000E+01 0. -1.
         -4   -1    0    0    0  501 -0.00000000000E+00 -0.00000000000E+00 -0.13193778758E+03  0.13194389979E+03  0.12700000000E+01 0. -1.
         25    2    1    2    0    0  0.00000000000E+00  0.00000000000E+00 -0.10235079281E+03  0.16155813893E+03  0.12500138986E+03 0.  0.
    9000005    1    3    3    0    0 -0.56549666115E+02 -0.17778675738E+02 -0.76744724520E+02  0.96977826282E+02  0.10000000000E+01 0.  0.
    9000005    1    3    3    0    0  0.56549666115E+02  0.17778675738E+02 -0.25606068290E+02  0.64580312650E+02  0.10000000000E+01 0.  0.
<mgrwt>
<rscale>  0 0.12500139E+03</rscale>
<asrwt>0</asrwt>
<pdfrwt beam="1">  1        4 0.45544113E-02 0.12500139E+03</pdfrwt>
<pdfrwt beam="2">  1       -4 0.20300687E-01 0.12500139E+03</pdfrwt>
<totfact> 0.97040196E+03</totfact>
</mgrwt>
</event>
<event>
 5    1  0.3316206E-002  0.1249918E+03  0.7818608E-02  0.1235082E+00
          4   -1    0    0  501    0  0.00000000000E+00  0.00000000000E+00  0.37680376961E+03  0.37680590984E+03  0.12700000000E+01 0. -1.
         -4   -1    0    0    0  501 -0.00000000000E+00 -0.00000000000E+00 -0.10324363056E+02  0.10402181142E+02  0.12700000000E+01 0. -1.
         25    2    1    2    0    0  0.00000000000E+00  0.00000000000E+00  0.36647940655E+03  0.38720809098E+03  0.12499180091E+03 0.  0.
    9000005    1    3    3    0    0  0.35209105358E+02 -0.37915254233E+02  0.29177521899E+03  0.29632925272E+03  0.10000000000E+01 0.  0.
    9000005    1    3    3    0    0 -0.35209105358E+02  0.37915254233E+02  0.74704187561E+02  0.90878838256E+02  0.10000000000E+01 0.  0.
<mgrwt>
<rscale>  0 0.12499180E+03</rscale>
<asrwt>0</asrwt>
<pdfrwt beam="1">  1        4 0.57975969E-01 0.12499180E+03</pdfrwt>
<pdfrwt beam="2">  1       -4 0.15945140E-02 0.12499180E+03</pdfrwt>
<totfact> 0.65828139E+03</totfact>
</mgrwt>
</event>
<event>
 5    1  0.3316206E-002  0.1249999E+03  0.7818608E-02  0.1235069E+00
          4   -1    0    0  501    0  0.00000000000E+00  0.00000000000E+00  0.36908577777E+02  0.36930421247E+02  0.12700000000E+01 0. -1.
         -4   -1    0    0    0  501 -0.00000000000E+00 -0.00000000000E+00 -0.10577864167E+03  0.10578626534E+03  0.12700000000E+01 0. -1.
         25    2    1    2    0    0  0.00000000000E+00  0.00000000000E+00 -0.68870063897E+02  0.14271668659E+03  0.12499986772E+03 0.  0.
    9000005    1    3    3    0    0 -0.10964897531E+02 -0.26393178415E+02  0.29015151032E+02  0.40739511952E+02  0.10000000000E+01 0.  0.
    9000005    1    3    3    0    0  0.10964897531E+02  0.26393178415E+02 -0.97885214929E+02  0.10197717463E+03  0.10000000000E+01 0.  0.
<mgrwt>
<rscale>  0 0.12499987E+03</rscale>
<asrwt>0</asrwt>
<pdfrwt beam="1">  1        4 0.56805095E-02 0.12499987E+03</pdfrwt>
<pdfrwt beam="2">  1       -4 0.16275904E-01 0.12499987E+03</pdfrwt>
<totfact> 0.10077618E+04</totfact>
</mgrwt>
</event>
<event>
 5    1  0.3316206E-002  0.1250021E+03  0.7818608E-02  0.1235066E+00
          4   -1    0    0  501    0  0.00000000000E+00  0.00000000000E+00  0.29505524599E+02  0.29532844121E+02  0.12700000000E+01 0. -1.
         -4   -1    0    0    0  501 -0.00000000000E+00 -0.00000000000E+00 -0.13230328743E+03  0.13230938276E+03  0.12700000000E+01 0. -1.
         25    2    1    2    0    0  0.00000000000E+00  0.00000000000E+00 -0.10279776283E+03  0.16184222688E+03  0.12500210541E+03 0.  0.
    9000005    1    3    3    0    0  0.46590034642E+02  0.38812928862E+02 -0.31835948988E+02  0.68495272996E+02  0.10000000000E+01 0.  0.
    9000005    1    3    3    0    0 -0.46590034642E+02 -0.38812928862E+02 -0.70961813846E+02  0.93346953883E+02  0.10000000000E+01 0.  0.
<mgrwt>
<rscale>  0 0.12500211E+03</rscale>
<asrwt>0</asrwt>
<pdfrwt beam="1">  1        4 0.45418819E-02 0.12500211E+03</pdfrwt>
<pdfrwt beam="2">  1       -4 0.20356922E-01 0.12500211E+03</pdfrwt>
<totfact> 0.96984201E+03</totfact>
</mgrwt>
</event>
<event>
 5    1  0.3316206E-002  0.1249922E+03  0.7818608E-02  0.1235082E+00
          4   -1    0    0  501    0  0.00000000000E+00  0.00000000000E+00  0.10499095924E+03  0.10499864010E+03  0.12700000000E+01 0.  1.
         -4   -1    0    0    0  501 -0.00000000000E+00 -0.00000000000E+00 -0.37181042643E+02  0.37202726137E+02  0.12700000000E+01 0.  1.
         25    2    1    2    0    0  0.00000000000E+00  0.00000000000E+00  0.67809916597E+02  0.14220136623E+03  0.12499217484E+03 0.  0.
    9000005    1    3    3    0    0 -0.30387391362E+01  0.33409781975E+00 -0.37101496841E+02  0.37240658221E+02  0.10000000000E+01 0.  0.
    9000005    1    3    3    0    0  0.30387391362E+01 -0.33409781975E+00  0.10491141344E+03  0.10496070801E+03  0.10000000000E+01 0.  0.
<mgrwt>
<rscale>  0 0.12499217E+03</rscale>
<asrwt>0</asrwt>
<pdfrwt beam="1">  1        4 0.16154714E-01 0.12499217E+03</pdfrwt>
<pdfrwt beam="2">  1       -4 0.57224193E-02 0.12499217E+03</pdfrwt>
<totfact> 0.10089942E+04</totfact>
</mgrwt>
</event>
<event>
 5    1  0.3316206E-002  0.1250022E+03  0.7818608E-02  0.1235066E+00
         -4   -1    0    0    0  501 -0.00000000000E+00  0.00000000000E+00  0.22392424050E+02  0.22428409548E+02  0.12700000000E+01 0. -1.
          4   -1    0    0  501    0  0.00000000000E+00 -0.00000000000E+00 -0.17427289833E+03  0.17427752578E+03  0.12700000000E+01 0. -1.
         25    2    1    2    0    0  0.00000000000E+00  0.00000000000E+00 -0.15188047428E+03  0.19670593533E+03  0.12500218608E+03 0.  0.
    9000005    1    3    3    0    0  0.21596230674E+02  0.26218542288E+01  0.16249121347E+02  0.27171772917E+02  0.10000000000E+01 0.  0.
    9000005    1    3    3    0    0 -0.21596230674E+02 -0.26218542288E+01 -0.16812959562E+03  0.16953416241E+03  0.10000000000E+01 0.  0.
<mgrwt>
<rscale>  0 0.12500219E+03</rscale>
<asrwt>0</asrwt>
<pdfrwt beam="2">  1        4 0.26814338E-01 0.12500219E+03</pdfrwt>
<pdfrwt beam="1">  1       -4 0.34481125E-02 0.12500219E+03</pdfrwt>
<totfact> 0.90688981E+03</totfact>
</mgrwt>
</event>
<event>
 5    1  0.3316206E-002  0.1250394E+03  0.7818608E-02  0.1235008E+00
          4   -1    0    0  501    0  0.00000000000E+00  0.00000000000E+00  0.14238154407E+02  0.14294682260E+02  0.12700000000E+01 0. -1.
         -4   -1    0    0    0  501 -0.00000000000E+00 -0.00000000000E+00 -0.27392198460E+03  0.27392492867E+03  0.12700000000E+01 0. -1.
         25    2    1    2    0    0  0.00000000000E+00  0.00000000000E+00 -0.25968383020E+03  0.28821961093E+03  0.12503940363E+03 0.  0.
    9000005    1    3    3    0    0  0.34146974467E+02 -0.48837863080E+02 -0.17336735567E+03  0.18332591946E+03  0.10000000000E+01 0.  0.
    9000005    1    3    3    0    0 -0.34146974467E+02  0.48837863080E+02 -0.86316474530E+02  0.10489369147E+03  0.10000000000E+01 0.  0.
<mgrwt>
<rscale>  0 0.12503940E+03</rscale>
<asrwt>0</asrwt>
<pdfrwt beam="1">  1        4 0.21950603E-02 0.12503940E+03</pdfrwt>
<pdfrwt beam="2">  1       -4 0.42146415E-01 0.12503940E+03</pdfrwt>
<totfact> 0.77033263E+03</totfact>
</mgrwt>
</event>
<event>
 5    1  0.3316206E-002  0.1249998E+03  0.7818608E-02  0.1235070E+00
          4   -1    0    0  501    0  0.00000000000E+00  0.00000000000E+00  0.13896418824E+02  0.13954331088E+02  0.12700000000E+01 0. -1.
         -4   -1    0    0    0  501 -0.00000000000E+00 -0.00000000000E+00 -0.28045263342E+03  0.28045550893E+03  0.12700000000E+01 0. -1.
         25    2    1    2    0    0  0.00000000000E+00  0.00000000000E+00 -0.26655621459E+03  0.29440984002E+03  0.12499975345E+03 0.  0.
    9000005    1    3    3    0    0  0.78215576780E+01  0.61129350543E+02 -0.15767096745E+03  0.16929001223E+03  0.10000000000E+01 0.  0.
    9000005    1    3    3    0    0 -0.78215576780E+01 -0.61129350543E+02 -0.10888524714E+03  0.12511982779E+03  0.10000000000E+01 0.  0.
<mgrwt>
<rscale>  0 0.12499975E+03</rscale>
<asrwt>0</asrwt>
<pdfrwt beam="1">  1        4 0.21425868E-02 0.12499975E+03</pdfrwt>
<pdfrwt beam="2">  1       -4 0.43151231E-01 0.12499975E+03</pdfrwt>
<totfact> 0.76305871E+03</totfact>
</mgrwt>
</event>
<event>
 5    1  0.3316206E-002  0.1249987E+03  0.7818608E-02  0.1235071E+00
          4   -1    0    0  501    0  0.00000000000E+00  0.00000000000E+00  0.14840903196E+03  0.14841446583E+03  0.12700000000E+01 0.  1.
         -4   -1    0    0    0  501 -0.00000000000E+00 -0.00000000000E+00 -0.26299054542E+02  0.26329701286E+02  0.12700000000E+01 0.  1.
         25    2    1    2    0    0  0.00000000000E+00  0.00000000000E+00  0.12210997741E+03  0.17474416711E+03  0.12499870942E+03 0.  0.
    9000005    1    3    3    0    0 -0.35850958473E+02 -0.50976502475E+02  0.67502986938E+02  0.91877898722E+02  0.10000000000E+01 0.  0.
    9000005    1    3    3    0    0  0.35850958473E+02  0.50976502475E+02  0.54606990477E+02  0.82866268390E+02  0.10000000000E+01 0.  0.
<mgrwt>
<rscale>  0 0.12499871E+03</rscale>
<asrwt>0</asrwt>
<pdfrwt beam="1">  1        4 0.22834934E-01 0.12499871E+03</pdfrwt>
<pdfrwt beam="2">  1       -4 0.40487839E-02 0.12499871E+03</pdfrwt>
<totfact> 0.94574455E+03</totfact>
</mgrwt>
</event>
<event>
 5    1  0.3316206E-002  0.1249914E+03  0.7818608E-02  0.1235083E+00
         -4   -1    0    0    0  501 -0.00000000000E+00  0.00000000000E+00  0.74783614010E+03  0.74783721848E+03  0.12700000000E+01 0.  1.
          4   -1    0    0  501    0  0.00000000000E+00 -0.00000000000E+00 -0.51443795590E+01  0.52988244967E+01  0.12700000000E+01 0.  1.
         25    2    1    2    0    0  0.00000000000E+00  0.00000000000E+00  0.74269176054E+03  0.75313604298E+03  0.12499139191E+03 0.  0.
    9000005    1    3    3    0    0 -0.52365994612E+02  0.25204092962E+01  0.57622736045E+03  0.57860826194E+03  0.10000000000E+01 0.  0.
    9000005    1    3    3    0    0  0.52365994612E+02 -0.25204092962E+01  0.16646440009E+03  0.17452778103E+03  0.10000000000E+01 0.  0.
<mgrwt>
<rscale>  0 0.12499139E+03</rscale>
<asrwt>0</asrwt>
<pdfrwt beam="2">  1        4 0.80340581E-03 0.12499139E+03</pdfrwt>
<pdfrwt beam="1">  1       -4 0.11506375E+00 0.12499139E+03</pdfrwt>
<totfact> 0.40432170E+03</totfact>
</mgrwt>
</event>
<event>
 5    1  0.3316206E-002  0.1250000E+03  0.7818608E-02  0.1235069E+00
          4   -1    0    0  501    0  0.00000000000E+00  0.00000000000E+00  0.10338111978E+04  0.10338119778E+04  0.12700000000E+01 0. -1.
         -4   -1    0    0    0  501 -0.00000000000E+00 -0.00000000000E+00 -0.36709758945E+01  0.38844515723E+01  0.12700000000E+01 0. -1.
         25    2    1    2    0    0  0.00000000000E+00  0.00000000000E+00  0.10301402219E+04  0.10376964294E+04  0.12500001159E+03 0.  0.
    9000005    1    3    3    0    0  0.23768365007E+02 -0.57682663421E+02  0.54503164005E+03  0.54859157257E+03  0.10000000000E+01 0.  0.
    9000005    1    3    3    0    0 -0.23768365007E+02  0.57682663421E+02  0.48510858182E+03  0.48910485685E+03  0.10000000000E+01 0.  0.
<mgrwt>
<rscale>  0 0.12500001E+03</rscale>
<asrwt>0</asrwt>
<pdfrwt beam="1">  1        4 0.15906445E+00 0.12500001E+03</pdfrwt>
<pdfrwt beam="2">  1       -4 0.58124640E-03 0.12500001E+03</pdfrwt>
<totfact> 0.29382037E+03</totfact>
</mgrwt>
</event>
<event>
 5    1  0.3316206E-002  0.1250014E+03  0.7818608E-02  0.1235067E+00
         -4   -1    0    0    0  501 -0.00000000000E+00  0.00000000000E+00  0.39191645180E+02  0.39212216871E+02  0.12700000000E+01 0.  1.
          4   -1    0    0  501    0  0.00000000000E+00 -0.00000000000E+00 -0.99621875132E+02  0.99629969913E+02  0.12700000000E+01 0.  1.
         25    2    1    2    0    0  0.00000000000E+00  0.00000000000E+00 -0.60430229952E+02  0.13884218678E+03  0.12500136055E+03 0.  0.
    9000005    1    3    3    0    0 -0.57975879086E+02 -0.13232729563E+02 -0.88779860725E+01  0.60134235874E+02  0.10000000000E+01 0.  0.
    9000005    1    3    3    0    0  0.57975879086E+02  0.13232729563E+02 -0.51552243879E+02  0.78707950910E+02  0.10000000000E+01 0.  0.
<mgrwt>
<rscale>  0 0.12500136E+03</rscale>
<asrwt>0</asrwt>
<pdfrwt beam="2">  1        4 0.15328647E-01 0.12500136E+03</pdfrwt>
<pdfrwt beam="1">  1       -4 0.60316890E-02 0.12500136E+03</pdfrwt>
<totfact> 0.10157327E+04</totfact>
</mgrwt>
</event>
<event>
 5    1  0.3316206E-002  0.1250075E+03  0.7818608E-02  0.1235057E+00
          4   -1    0    0  501    0  0.00000000000E+00  0.00000000000E+00  0.72649923908E+02  0.72661023554E+02  0.12700000000E+01 0.  1.
         -4   -1    0    0    0  501 -0.00000000000E+00 -0.00000000000E+00 -0.53751906096E+02  0.53766907192E+02  0.12700000000E+01 0.  1.
         25    2    1    2    0    0  0.00000000000E+00  0.00000000000E+00  0.18898017812E+02  0.12642793075E+03  0.12500754615E+03 0.  0.
    9000005    1    3    3    0    0 -0.57751731806E+02 -0.82902436659E+01  0.32102871372E+02  0.66600187815E+02  0.10000000000E+01 0.  0.
    9000005    1    3    3    0    0  0.57751731806E+02  0.82902436659E+01 -0.13204853559E+02  0.59827742931E+02  0.10000000000E+01 0.  0.
<mgrwt>
<rscale>  0 0.12500755E+03</rscale>
<asrwt>0</asrwt>
<pdfrwt beam="1">  1        4 0.11178919E-01 0.12500755E+03</pdfrwt>
<pdfrwt beam="2">  1       -4 0.82715318E-02 0.12500755E+03</pdfrwt>
<totfact> 0.10419825E+04</totfact>
</mgrwt>
</event>
<event>
 5    1  0.3316206E-002  0.1249978E+03  0.7818608E-02  0.1235073E+00
         -4   -1    0    0    0  501 -0.00000000000E+00  0.00000000000E+00  0.59983679546E+03  0.59983813991E+03  0.12700000000E+01 0. -1.
          4   -1    0    0  501    0  0.00000000000E+00 -0.00000000000E+00 -0.64486734538E+01  0.65725405524E+01  0.12700000000E+01 0. -1.
         25    2    1    2    0    0  0.00000000000E+00  0.00000000000E+00  0.59338812201E+03  0.60641068046E+03  0.12499780013E+03 0.  0.
    9000005    1    3    3    0    0 -0.37026163620E+02 -0.41645738191E+02  0.15949302201E+03  0.16895066846E+03  0.10000000000E+01 0.  0.
    9000005    1    3    3    0    0  0.37026163620E+02  0.41645738191E+02  0.43389509999E+03  0.43746001200E+03  0.10000000000E+01 0.  0.
<mgrwt>
<rscale>  0 0.12499780E+03</rscale>
<asrwt>0</asrwt>
<pdfrwt beam="2">  1        4 0.10017350E-02 0.12499780E+03</pdfrwt>
<pdfrwt beam="1">  1       -4 0.92292237E-01 0.12499780E+03</pdfrwt>
<totfact> 0.48467762E+03</totfact>
</mgrwt>
</event>
<event>
 4    1  0.3316206E-002  0.1251865E+03  0.7818608E-02  0.1234778E+00
         -4   -1    0    0    0  501 -0.00000000000E+00  0.00000000000E+00  0.80159709407E+02  0.80169769316E+02  0.12700000000E+01 0.  1.
          4   -1    0    0  501    0  0.00000000000E+00 -0.00000000000E+00 -0.48854983451E+02  0.48871487679E+02  0.12700000000E+01 0.  1.
    9000005    1    1    2    0    0 -0.35270386256E+02  0.22336889521E+02  0.63714013408E+02  0.76180130511E+02  0.10000000000E+01 0.  0.
    9000005    1    1    2    0    0  0.35270386256E+02 -0.22336889521E+02 -0.32409287451E+02  0.52861126485E+02  0.10000000000E+01 0.  0.
<mgrwt>
<rscale>  0 0.12518650E+03</rscale>
<asrwt>0</asrwt>
<pdfrwt beam="2">  1        4 0.75181948E-02 0.12518650E+03</pdfrwt>
<pdfrwt beam="1">  1       -4 0.12334306E-01 0.12518650E+03</pdfrwt>
<totfact> 0.10321543E+04</totfact>
</mgrwt>
</event>
<event>
 5    1  0.3316206E-002  0.1249986E+03  0.7818608E-02  0.1235071E+00
          4   -1    0    0  501    0  0.00000000000E+00  0.00000000000E+00  0.12100336993E+03  0.12101003444E+03  0.12700000000E+01 0. -1.
         -4   -1    0    0    0  501 -0.00000000000E+00 -0.00000000000E+00 -0.32261404491E+02  0.32286392175E+02  0.12700000000E+01 0. -1.
         25    2    1    2    0    0  0.00000000000E+00  0.00000000000E+00  0.88741965438E+02  0.15329642661E+03  0.12499863192E+03 0.  0.
    9000005    1    3    3    0    0  0.36116391974E+02  0.45673502324E+02  0.16547937454E+02  0.60541694870E+02  0.10000000000E+01 0.  0.
    9000005    1    3    3    0    0 -0.36116391974E+02 -0.45673502324E+02  0.72194027984E+02  0.92754731741E+02  0.10000000000E+01 0.  0.
<mgrwt>
<rscale>  0 0.12499863E+03</rscale>
<asrwt>0</asrwt>
<pdfrwt beam="1">  1        4 0.18618338E-01 0.12499863E+03</pdfrwt>
<pdfrwt beam="2">  1       -4 0.49657277E-02 0.12499863E+03</pdfrwt>
<totfact> 0.98653653E+03</totfact>
</mgrwt>
</event>
<event>
 5    1  0.3316206E-002  0.1250004E+03  0.7818608E-02  0.1235069E+00
          4   -1    0    0  501    0  0.00000000000E+00  0.00000000000E+00  0.11673239777E+02  0.11742121907E+02  0.12700000000E+01 0. -1.
         -4   -1    0    0    0  501 -0.00000000000E+00 -0.00000000000E+00 -0.33358072484E+03  0.33358314239E+03  0.12700000000E+01 0. -1.
         25    2    1    2    0    0  0.00000000000E+00  0.00000000000E+00 -0.32190748507E+03  0.34532526430E+03  0.12500043688E+03 0.  0.
    9000005    1    3    3    0    0 -0.18090153644E+02  0.28110463565E+02 -0.15089240440E+02  0.36689739679E+02  0.10000000000E+01 0.  0.
    9000005    1    3    3    0    0  0.18090153644E+02 -0.28110463565E+02 -0.30681824463E+03  0.30863552462E+03  0.10000000000E+01 0.  0.
<mgrwt>
<rscale>  0 0.12500044E+03</rscale>
<asrwt>0</asrwt>
<pdfrwt beam="1">  1        4 0.18013679E-02 0.12500044E+03</pdfrwt>
<pdfrwt beam="2">  1       -4 0.51325589E-01 0.12500044E+03</pdfrwt>
<totfact> 0.70241238E+03</totfact>
</mgrwt>
</event>
<event>
 5    1  0.3316206E-002  0.1250032E+03  0.7818608E-02  0.1235064E+00
         -4   -1    0    0    0  501 -0.00000000000E+00  0.00000000000E+00  0.74892195490E+01  0.75961377985E+01  0.12700000000E+01 0. -1.
          4   -1    0    0  501    0  0.00000000000E+00 -0.00000000000E+00 -0.51780473839E+03  0.51780629583E+03  0.12700000000E+01 0. -1.
         25    2    1    2    0    0  0.00000000000E+00  0.00000000000E+00 -0.51031551884E+03  0.52540243362E+03  0.12500315392E+03 0.  0.
    9000005    1    3    3    0    0  0.52442489013E+02 -0.23838562710E+02 -0.35698727068E+03  0.36160669678E+03  0.10000000000E+01 0.  0.
    9000005    1    3    3    0    0 -0.52442489013E+02  0.23838562710E+02 -0.15332824815E+03  0.16379573684E+03  0.10000000000E+01 0.  0.
<mgrwt>
<rscale>  0 0.12500315E+03</rscale>
<asrwt>0</asrwt>
<pdfrwt beam="2">  1        4 0.79670584E-01 0.12500315E+03</pdfrwt>
<pdfrwt beam="1">  1       -4 0.11605323E-02 0.12500315E+03</pdfrwt>
<totfact> 0.53942219E+03</totfact>
</mgrwt>
</event>
<event>
 5    1  0.3316206E-002  0.1250074E+03  0.7818608E-02  0.1235058E+00
         -4   -1    0    0    0  501 -0.00000000000E+00  0.00000000000E+00  0.59561852974E+03  0.59561988371E+03  0.12700000000E+01 0. -1.
          4   -1    0    0  501    0  0.00000000000E+00 -0.00000000000E+00 -0.64962365071E+01  0.66192136055E+01  0.12700000000E+01 0. -1.
         25    2    1    2    0    0  0.00000000000E+00  0.00000000000E+00  0.58912229323E+03  0.60223909731E+03  0.12500741558E+03 0.  0.
    9000005    1    3    3    0    0 -0.50804438217E+02 -0.33484404310E+02  0.36327226538E+03  0.36833413508E+03  0.10000000000E+01 0.  0.
    9000005    1    3    3    0    0  0.50804438217E+02  0.33484404310E+02  0.22585002785E+03  0.23390496223E+03  0.10000000000E+01 0.  0.
<mgrwt>
<rscale>  0 0.12500742E+03</rscale>
<asrwt>0</asrwt>
<pdfrwt beam="2">  1        4 0.10089844E-02 0.12500742E+03</pdfrwt>
<pdfrwt beam="1">  1       -4 0.91643231E-01 0.12500742E+03</pdfrwt>
<totfact> 0.48718635E+03</totfact>
</mgrwt>
</event>
<event>
 5    1  0.3316206E-002  0.1250034E+03  0.7818608E-02  0.1235064E+00
          4   -1    0    0  501    0  0.00000000000E+00  0.00000000000E+00  0.65442468372E+01  0.66663383252E+01  0.12700000000E+01 0. -1.
         -4   -1    0    0    0  501 -0.00000000000E+00 -0.00000000000E+00 -0.59129134596E+03  0.59129270984E+03  0.12700000000E+01 0. -1.
         25    2    1    2    0    0  0.00000000000E+00  0.00000000000E+00 -0.58474709913E+03  0.59795904817E+03  0.12500341334E+03 0.  0.
    9000005    1    3    3    0    0 -0.12153998938E+02  0.16851486146E+02 -0.10437788139E+02  0.23273153993E+02  0.10000000000E+01 0.  0.
    9000005    1    3    3    0    0  0.12153998938E+02 -0.16851486146E+02 -0.57430931099E+03  0.57468589417E+03  0.10000000000E+01 0.  0.
<mgrwt>
<rscale>  0 0.12500341E+03</rscale>
<asrwt>0</asrwt>
<pdfrwt beam="1">  1        4 0.10163042E-02 0.12500341E+03</pdfrwt>
<pdfrwt beam="2">  1       -4 0.90977354E-01 0.12500341E+03</pdfrwt>
<totfact> 0.48993045E+03</totfact>
</mgrwt>
</event>
<event>
 5    1  0.3316206E-002  0.1250005E+03  0.7818608E-02  0.1235068E+00
          4   -1    0    0  501    0  0.00000000000E+00  0.00000000000E+00  0.19480541315E+02  0.19521895142E+02  0.12700000000E+01 0.  1.
         -4   -1    0    0    0  501 -0.00000000000E+00 -0.00000000000E+00 -0.20026629215E+03  0.20027031900E+03  0.12700000000E+01 0.  1.
         25    2    1    2    0    0  0.00000000000E+00  0.00000000000E+00 -0.18078575084E+03  0.21979221414E+03  0.12500051876E+03 0.  0.
    9000005    1    3    3    0    0 -0.20900915404E+02  0.36024551413E+02 -0.84715489269E+01  0.42513335678E+02  0.10000000000E+01 0.  0.
    9000005    1    3    3    0    0  0.20900915404E+02 -0.36024551413E+02 -0.17231420191E+03  0.17727887846E+03  0.10000000000E+01 0.  0.
<mgrwt>
<rscale>  0 0.12500052E+03</rscale>
<asrwt>0</asrwt>
<pdfrwt beam="1">  1        4 0.30004973E-02 0.12500052E+03</pdfrwt>
<pdfrwt beam="2">  1       -4 0.30813688E-01 0.12500052E+03</pdfrwt>
<totfact> 0.86900233E+03</totfact>
</mgrwt>
</event>
<event>
 5    1  0.3316206E-002  0.1250002E+03  0.7818608E-02  0.1235069E+00
         -4   -1    0    0    0  501 -0.00000000000E+00  0.00000000000E+00  0.97019910613E+01  0.97847601173E+01  0.12700000000E+01 0. -1.
          4   -1    0    0  501    0  0.00000000000E+00 -0.00000000000E+00 -0.40083085400E+03  0.40083286594E+03  0.12700000000E+01 0. -1.
         25    2    1    2    0    0  0.00000000000E+00  0.00000000000E+00 -0.39112886294E+03  0.41061762606E+03  0.12500018962E+03 0.  0.
    9000005    1    3    3    0    0  0.53825904712E+02 -0.23055307456E+01 -0.91544539154E+02  0.10622592028E+03  0.10000000000E+01 0.  0.
    9000005    1    3    3    0    0 -0.53825904712E+02  0.23055307456E+01 -0.29958432378E+03  0.30439170578E+03  0.10000000000E+01 0.  0.
<mgrwt>
<rscale>  0 0.12500019E+03</rscale>
<asrwt>0</asrwt>
<pdfrwt beam="2">  1        4 0.61672794E-01 0.12500019E+03</pdfrwt>
<pdfrwt beam="1">  1       -4 0.14991359E-02 0.12500019E+03</pdfrwt>
<totfact> 0.63532808E+03</totfact>
</mgrwt>
</event>
<event>
 5    1  0.3316206E-002  0.1250003E+03  0.7818608E-02  0.1235069E+00
         -4   -1    0    0    0  501 -0.00000000000E+00  0.00000000000E+00  0.10733049653E+03  0.10733800997E+03  0.12700000000E+01 0.  1.
          4   -1    0    0  501    0  0.00000000000E+00 -0.00000000000E+00 -0.36374912069E+02  0.36397075817E+02  0.12700000000E+01 0.  1.
         25    2    1    2    0    0  0.00000000000E+00  0.00000000000E+00  0.70955584456E+02  0.14373508579E+03  0.12500031968E+03 0.  0.
    9000005    1    3    3    0    0 -0.43877426102E+02 -0.46797119153E+01  0.86360912218E+02  0.96986263894E+02  0.10000000000E+01 0.  0.
    9000005    1    3    3    0    0  0.43877426102E+02  0.46797119153E+01 -0.15405327762E+02  0.46748821893E+02  0.10000000000E+01 0.  0.
<mgrwt>
<rscale>  0 0.12500032E+03</rscale>
<asrwt>0</asrwt>
<pdfrwt beam="2">  1        4 0.55984233E-02 0.12500032E+03</pdfrwt>
<pdfrwt beam="1">  1       -4 0.16514667E-01 0.12500032E+03</pdfrwt>
<totfact> 0.10056680E+04</totfact>
</mgrwt>
</event>
<event>
 5    1  0.3316206E-002  0.1250050E+03  0.7818608E-02  0.1235062E+00
         -4   -1    0    0    0  501 -0.00000000000E+00  0.00000000000E+00  0.15880959772E+02  0.15931659778E+02  0.12700000000E+01 0. -1.
          4   -1    0    0  501    0  0.00000000000E+00 -0.00000000000E+00 -0.24554575844E+03  0.24554904274E+03  0.12700000000E+01 0. -1.
         25    2    1    2    0    0  0.00000000000E+00  0.00000000000E+00 -0.22966479867E+03  0.26148070252E+03  0.12500495206E+03 0.  0.
    9000005    1    3    3    0    0 -0.21602657892E+02  0.50194694745E+02 -0.17825722962E+03  0.18644790726E+03  0.10000000000E+01 0.  0.
    9000005    1    3    3    0    0  0.21602657892E+02 -0.50194694745E+02 -0.51407569053E+02  0.75032795260E+02  0.10000000000E+01 0.  0.
<mgrwt>
<rscale>  0 0.12500495E+03</rscale>
<asrwt>0</asrwt>
<pdfrwt beam="2">  1        4 0.37780420E-01 0.12500495E+03</pdfrwt>
<pdfrwt beam="1">  1       -4 0.24473774E-02 0.12500495E+03</pdfrwt>
<totfact> 0.80689820E+03</totfact>
</mgrwt>
</event>
<event>
 5    1  0.3316206E-002  0.1249893E+03  0.7818608E-02  0.1235086E+00
          4   -1    0    0  501    0  0.00000000000E+00  0.00000000000E+00  0.37019434908E+02  0.37041213006E+02  0.12700000000E+01 0.  1.
         -4   -1    0    0    0  501 -0.00000000000E+00 -0.00000000000E+00 -0.10544416326E+03  0.10545181111E+03  0.12700000000E+01 0.  1.
         25    2    1    2    0    0  0.00000000000E+00  0.00000000000E+00 -0.68424728354E+02  0.14249302411E+03  0.12498927342E+03 0.  0.
    9000005    1    3    3    0    0 -0.22417664410E+02 -0.57658524202E+02 -0.44250078250E+02  0.76066592640E+02  0.10000000000E+01 0.  0.
    9000005    1    3    3    0    0  0.22417664410E+02  0.57658524202E+02 -0.24174650104E+02  0.66426431474E+02  0.10000000000E+01 0.  0.
<mgrwt>
<rscale>  0 0.12498927E+03</rscale>
<asrwt>0</asrwt>
<pdfrwt beam="1">  1        4 0.56975613E-02 0.12498927E+03</pdfrwt>
<pdfrwt beam="2">  1       -4 0.16224442E-01 0.12498927E+03</pdfrwt>
<totfact> 0.10084612E+04</totfact>
</mgrwt>
</event>
<event>
 5    1  0.3316206E-002  0.1249863E+03  0.7818608E-02  0.1235091E+00
         -4   -1    0    0    0  501 -0.00000000000E+00  0.00000000000E+00  0.19931944182E+01  0.23634136305E+01  0.12700000000E+01 0.  1.
          4   -1    0    0  501    0  0.00000000000E+00 -0.00000000000E+00 -0.17924904776E+04  0.17924909275E+04  0.12700000000E+01 0.  1.
         25    2    1    2    0    0  0.00000000000E+00  0.00000000000E+00 -0.17904972831E+04  0.17948543411E+04  0.12498633849E+03 0.  0.
    9000005    1    3    3    0    0  0.34377391998E+02 -0.41076546596E+02 -0.13573120122E+04  0.13583688698E+04  0.10000000000E+01 0.  0.
    9000005    1    3    3    0    0 -0.34377391998E+02  0.41076546596E+02 -0.43318527091E+03  0.43648547134E+03  0.10000000000E+01 0.  0.
<mgrwt>
<rscale>  0 0.12498634E+03</rscale>
<asrwt>0</asrwt>
<pdfrwt beam="2">  1        4 0.27579510E+00 0.12498634E+03</pdfrwt>
<pdfrwt beam="1">  1       -4 0.33515974E-03 0.12498634E+03</pdfrwt>
<totfact> 0.12786881E+03</totfact>
</mgrwt>
</event>
<event>
 5    1  0.3316206E-002  0.1250027E+03  0.7818608E-02  0.1235065E+00
         -4   -1    0    0    0  501 -0.00000000000E+00  0.00000000000E+00  0.17836576027E+02  0.17881732142E+02  0.12700000000E+01 0.  1.
          4   -1    0    0  501    0  0.00000000000E+00 -0.00000000000E+00 -0.21868792453E+03  0.21869161217E+03  0.12700000000E+01 0.  1.
         25    2    1    2    0    0  0.00000000000E+00  0.00000000000E+00 -0.20085134850E+03  0.23657334431E+03  0.12500273215E+03 0.  0.
    9000005    1    3    3    0    0 -0.14833163073E+00  0.70385986099E+01 -0.21794431434E+03  0.21806028530E+03  0.10000000000E+01 0.  0.
    9000005    1    3    3    0    0  0.14833163073E+00 -0.70385986099E+01  0.17092965841E+02  0.18513059010E+02  0.10000000000E+01 0.  0.
<mgrwt>
<rscale>  0 0.12500273E+03</rscale>
<asrwt>0</asrwt>
<pdfrwt beam="2">  1        4 0.33648051E-01 0.12500273E+03</pdfrwt>
<pdfrwt beam="1">  1       -4 0.27478460E-02 0.12500273E+03</pdfrwt>
<totfact> 0.84305232E+03</totfact>
</mgrwt>
</event>
<event>
 5    1  0.3316206E-002  0.1250006E+03  0.7818608E-02  0.1235068E+00
         -4   -1    0    0    0  501 -0.00000000000E+00  0.00000000000E+00  0.10501169607E+03  0.10501937541E+03  0.12700000000E+01 0. -1.
          4   -1    0    0  501    0  0.00000000000E+00 -0.00000000000E+00 -0.37178687714E+02  0.37200372581E+02  0.12700000000E+01 0. -1.
         25    2    1    2    0    0  0.00000000000E+00  0.00000000000E+00  0.67833008359E+02  0.14221974799E+03  0.12500055878E+03 0.  0.
    9000005    1    3    3    0    0  0.39186060522E+01 -0.61059565290E+02  0.48382482506E+02  0.78009554545E+02  0.10000000000E+01 0.  0.
    9000005    1    3    3    0    0 -0.39186060522E+01  0.61059565290E+02  0.19450525854E+02  0.64210193450E+02  0.10000000000E+01 0.  0.
<mgrwt>
<rscale>  0 0.12500056E+03</rscale>
<asrwt>0</asrwt>
<pdfrwt beam="2">  1        4 0.57220570E-02 0.12500056E+03</pdfrwt>
<pdfrwt beam="1">  1       -4 0.16157904E-01 0.12500056E+03</pdfrwt>
<totfact> 0.10087659E+04</totfact>
</mgrwt>
</event>
<event>
 5    1  0.3316206E-002  0.1249985E+03  0.7818608E-02  0.1235072E+00
         -4   -1    0    0    0  501 -0.00000000000E+00  0.00000000000E+00  0.74176377889E+02  0.74187249152E+02  0.12700000000E+01 0. -1.
          4   -1    0    0  501    0  0.00000000000E+00 -0.00000000000E+00 -0.52638005229E+02  0.52653323680E+02  0.12700000000E+01 0. -1.
         25    2    1    2    0    0  0.00000000000E+00  0.00000000000E+00  0.21538372660E+02  0.12684057283E+03  0.12499851767E+03 0.  0.
    9000005    1    3    3    0    0 -0.13906686275E+02  0.43633789040E+02 -0.32376262916E+02  0.56093902250E+02  0.10000000000E+01 0.  0.
    9000005    1    3    3    0    0  0.13906686275E+02 -0.43633789040E+02  0.53914635576E+02  0.70746670582E+02  0.10000000000E+01 0.  0.
<mgrwt>
<rscale>  0 0.12499852E+03</rscale>
<asrwt>0</asrwt>
<pdfrwt beam="2">  1        4 0.81001692E-02 0.12499852E+03</pdfrwt>
<pdfrwt beam="1">  1       -4 0.11413765E-01 0.12499852E+03</pdfrwt>
<totfact> 0.10412960E+04</totfact>
</mgrwt>
</event>
<event>
 5    1  0.3316206E-002  0.1250021E+03  0.7818608E-02  0.1235066E+00
         -4   -1    0    0    0  501 -0.00000000000E+00  0.00000000000E+00  0.13884440764E+03  0.13885021582E+03  0.12700000000E+01 0.  1.
          4   -1    0    0  501    0  0.00000000000E+00 -0.00000000000E+00 -0.28114210476E+02  0.28142880640E+02  0.12700000000E+01 0.  1.
         25    2    1    2    0    0  0.00000000000E+00  0.00000000000E+00  0.11073019716E+03  0.16699309646E+03  0.12500207078E+03 0.  0.
    9000005    1    3    3    0    0  0.61546399757E+02  0.73438232020E+01  0.66009674753E+02  0.90554780234E+02  0.10000000000E+01 0.  0.
    9000005    1    3    3    0    0 -0.61546399757E+02 -0.73438232020E+01  0.44720522408E+02  0.76438316222E+02  0.10000000000E+01 0.  0.
<mgrwt>
<rscale>  0 0.12500207E+03</rscale>
<asrwt>0</asrwt>
<pdfrwt beam="2">  1        4 0.43279154E-02 0.12500207E+03</pdfrwt>
<pdfrwt beam="1">  1       -4 0.21363330E-01 0.12500207E+03</pdfrwt>
<totfact> 0.96006792E+03</totfact>
</mgrwt>
</event>
<event>
 5    1  0.3316206E-002  0.1249988E+03  0.7818608E-02  0.1235071E+00
          4   -1    0    0  501    0  0.00000000000E+00  0.00000000000E+00  0.94689818137E+02  0.94698334509E+02  0.12700000000E+01 0.  1.
         -4   -1    0    0    0  501 -0.00000000000E+00 -0.00000000000E+00 -0.41232190353E+02  0.41251744464E+02  0.12700000000E+01 0.  1.
         25    2    1    2    0    0  0.00000000000E+00  0.00000000000E+00  0.53457627784E+02  0.13595007897E+03  0.12499882401E+03 0.  0.
    9000005    1    3    3    0    0  0.12191660853E+02 -0.48136462934E+02  0.67992443884E+02  0.84200523059E+02  0.10000000000E+01 0.  0.
    9000005    1    3    3    0    0 -0.12191660853E+02  0.48136462934E+02 -0.14534816100E+02  0.51749555913E+02  0.10000000000E+01 0.  0.
<mgrwt>
<rscale>  0 0.12499882E+03</rscale>
<asrwt>0</asrwt>
<pdfrwt beam="1">  1        4 0.14569823E-01 0.12499882E+03</pdfrwt>
<pdfrwt beam="2">  1       -4 0.63455733E-02 0.12499882E+03</pdfrwt>
<totfact> 0.10218355E+04</totfact>
</mgrwt>
</event>
<event>
 5    1  0.3316206E-002  0.1249978E+03  0.7818608E-02  0.1235073E+00
         -4   -1    0    0    0  501 -0.00000000000E+00  0.00000000000E+00  0.11266522940E+04  0.11266530098E+04  0.12700000000E+01 0.  1.
          4   -1    0    0  501    0  0.00000000000E+00 -0.00000000000E+00 -0.33499622089E+01  0.35826173116E+01  0.12700000000E+01 0.  1.
         25    2    1    2    0    0  0.00000000000E+00  0.00000000000E+00  0.11233023318E+04  0.11302356271E+04  0.12499777666E+03 0.  0.
    9000005    1    3    3    0    0  0.32105057073E+02 -0.27276862033E+02  0.14430916073E+03  0.15033594302E+03  0.10000000000E+01 0.  0.
    9000005    1    3    3    0    0 -0.32105057073E+02  0.27276862033E+02  0.97899317103E+03  0.97989968406E+03  0.10000000000E+01 0.  0.
<mgrwt>
<rscale>  0 0.12499778E+03</rscale>
<asrwt>0</asrwt>
<pdfrwt beam="2">  1        4 0.53333041E-03 0.12499778E+03</pdfrwt>
<pdfrwt beam="1">  1       -4 0.17334907E+00 0.12499778E+03</pdfrwt>
<totfact> 0.26616179E+03</totfact>
</mgrwt>
</event>
<event>
 5    1  0.3316206E-002  0.1250034E+03  0.7818608E-02  0.1235064E+00
         -4   -1    0    0    0  501 -0.00000000000E+00  0.00000000000E+00  0.63996184443E+02  0.64008784736E+02  0.12700000000E+01 0. -1.
          4   -1    0    0  501    0  0.00000000000E+00 -0.00000000000E+00 -0.61016876038E+02  0.61030091442E+02  0.12700000000E+01 0. -1.
         25    2    1    2    0    0  0.00000000000E+00  0.00000000000E+00  0.29793084059E+01  0.12503887618E+03  0.12500337706E+03 0.  0.
    9000005    1    3    3    0    0 -0.56203175514E+02 -0.12935861134E+02  0.25565715257E+02  0.63093099763E+02  0.10000000000E+01 0.  0.
    9000005    1    3    3    0    0  0.56203175514E+02  0.12935861134E+02 -0.22586406851E+02  0.61945776414E+02  0.10000000000E+01 0.  0.
<mgrwt>
<rscale>  0 0.12500338E+03</rscale>
<asrwt>0</asrwt>
<pdfrwt beam="2">  1        4 0.93891976E-02 0.12500338E+03</pdfrwt>
<pdfrwt beam="1">  1       -4 0.98475526E-02 0.12500338E+03</pdfrwt>
<totfact> 0.10451221E+04</totfact>
</mgrwt>
</event>
<event>
 5    1  0.3316206E-002  0.1249991E+03  0.7818608E-02  0.1235071E+00
         -4   -1    0    0    0  501 -0.00000000000E+00  0.00000000000E+00  0.10052777140E+03  0.10053579324E+03  0.12700000000E+01 0. -1.
          4   -1    0    0  501    0  0.00000000000E+00 -0.00000000000E+00 -0.38836915084E+02  0.38857674573E+02  0.12700000000E+01 0. -1.
         25    2    1    2    0    0  0.00000000000E+00  0.00000000000E+00  0.61690856315E+02  0.13939346781E+03  0.12499910846E+03 0.  0.
    9000005    1    3    3    0    0  0.61137292001E+02 -0.11959787904E+02  0.36352680668E+02  0.72134058472E+02  0.10000000000E+01 0.  0.
    9000005    1    3    3    0    0 -0.61137292001E+02  0.11959787904E+02  0.25338175646E+02  0.67259409342E+02  0.10000000000E+01 0.  0.
<mgrwt>
<rscale>  0 0.12499911E+03</rscale>
<asrwt>0</asrwt>
<pdfrwt beam="2">  1        4 0.59771241E-02 0.12499911E+03</pdfrwt>
<pdfrwt beam="1">  1       -4 0.15468025E-01 0.12499911E+03</pdfrwt>
<totfact> 0.10146376E+04</totfact>
</mgrwt>
</event>
<event>
 4    1  0.3316206E-002  0.1250643E+03  0.7818608E-02  0.1234969E+00
          4   -1    0    0  501    0  0.00000000000E+00  0.00000000000E+00  0.14728904074E+03  0.14729451593E+03  0.12700000000E+01 0. -1.
         -4   -1    0    0    0  501 -0.00000000000E+00 -0.00000000000E+00 -0.26527124216E+02  0.26557507774E+02  0.12700000000E+01 0. -1.
    9000005    1    1    2    0    0  0.25166132886E+02 -0.24208806986E+02  0.13247709873E+03  0.13700577458E+03  0.10000000000E+01 0.  0.
    9000005    1    1    2    0    0 -0.25166132886E+02  0.24208806986E+02 -0.11715182207E+02  0.36846249121E+02  0.10000000000E+01 0.  0.
<mgrwt>
<rscale>  0 0.12506433E+03</rscale>
<asrwt>0</asrwt>
<pdfrwt beam="1">  1        4 0.22662611E-01 0.12506433E+03</pdfrwt>
<pdfrwt beam="2">  1       -4 0.40838543E-02 0.12506433E+03</pdfrwt>
<totfact> 0.94598916E+03</totfact>
</mgrwt>
</event>
<event>
 5    1  0.3316206E-002  0.1250020E+03  0.7818608E-02  0.1235066E+00
          4   -1    0    0  501    0  0.00000000000E+00  0.00000000000E+00  0.11632798284E+02  0.11701918472E+02  0.12700000000E+01 0. -1.
         -4   -1    0    0    0  501 -0.00000000000E+00 -0.00000000000E+00 -0.33474194585E+03  0.33474435501E+03  0.12700000000E+01 0. -1.
         25    2    1    2    0    0  0.00000000000E+00  0.00000000000E+00 -0.32310914757E+03  0.34644627349E+03  0.12500199666E+03 0.  0.
    9000005    1    3    3    0    0 -0.21396371961E+02  0.55912440820E+02 -0.11187007090E+03  0.12688545438E+03  0.10000000000E+01 0.  0.
    9000005    1    3    3    0    0  0.21396371961E+02 -0.55912440820E+02 -0.21123907667E+03  0.21956081910E+03  0.10000000000E+01 0.  0.
<mgrwt>
<rscale>  0 0.12500200E+03</rscale>
<asrwt>0</asrwt>
<pdfrwt beam="1">  1        4 0.17951638E-02 0.12500200E+03</pdfrwt>
<pdfrwt beam="2">  1       -4 0.51504256E-01 0.12500200E+03</pdfrwt>
<totfact> 0.70114191E+03</totfact>
</mgrwt>
</event>
<event>
 5    1  0.3316206E-002  0.1250004E+03  0.7818608E-02  0.1235069E+00
         -4   -1    0    0    0  501 -0.00000000000E+00  0.00000000000E+00  0.13361640036E+02  0.13421859947E+02  0.12700000000E+01 0. -1.
          4   -1    0    0  501    0  0.00000000000E+00 -0.00000000000E+00 -0.29163110556E+03  0.29163387086E+03  0.12700000000E+01 0. -1.
         25    2    1    2    0    0  0.00000000000E+00  0.00000000000E+00 -0.27826946553E+03  0.30505573081E+03  0.12500041381E+03 0.  0.
    9000005    1    3    3    0    0 -0.12552046493E+02  0.12262357557E+02  0.72377642092E+01  0.19008011857E+02  0.10000000000E+01 0.  0.
    9000005    1    3    3    0    0  0.12552046493E+02 -0.12262357557E+02 -0.28550722974E+03  0.28604771895E+03  0.10000000000E+01 0.  0.
<mgrwt>
<rscale>  0 0.12500041E+03</rscale>
<asrwt>0</asrwt>
<pdfrwt beam="2">  1        4 0.44871164E-01 0.12500041E+03</pdfrwt>
<pdfrwt beam="1">  1       -4 0.20604822E-02 0.12500041E+03</pdfrwt>
<totfact> 0.74968316E+03</totfact>
</mgrwt>
</event>
<event>
 5    1  0.3316206E-002  0.1250003E+03  0.7818608E-02  0.1235069E+00
          4   -1    0    0  501    0  0.00000000000E+00  0.00000000000E+00  0.24836511442E+02  0.24868960585E+02  0.12700000000E+01 0. -1.
         -4   -1    0    0    0  501 -0.00000000000E+00 -0.00000000000E+00 -0.15714153939E+03  0.15714667130E+03  0.12700000000E+01 0. -1.
         25    2    1    2    0    0  0.00000000000E+00  0.00000000000E+00 -0.13230502794E+03  0.18201563189E+03  0.12500027932E+03 0.  0.
    9000005    1    3    3    0    0  0.23806003907E+02 -0.32855902572E+02  0.30558891348E+01  0.40701039474E+02  0.10000000000E+01 0.  0.
    9000005    1    3    3    0    0 -0.23806003907E+02  0.32855902572E+02 -0.13536091708E+03  0.14131459241E+03  0.10000000000E+01 0.  0.
<mgrwt>
<rscale>  0 0.12500028E+03</rscale>
<asrwt>0</asrwt>
<pdfrwt beam="1">  1        4 0.38238927E-02 0.12500028E+03</pdfrwt>
<pdfrwt beam="2">  1       -4 0.24178512E-01 0.12500028E+03</pdfrwt>
<totfact> 0.93254852E+03</totfact>
</mgrwt>
</event>
<event>
 5    1  0.3316206E-002  0.1249973E+03  0.7818608E-02  0.1235074E+00
          4   -1    0    0  501    0  0.00000000000E+00  0.00000000000E+00  0.81690923336E+01  0.82672226023E+01  0.12700000000E+01 0. -1.
         -4   -1    0    0    0  501 -0.00000000000E+00 -0.00000000000E+00 -0.47519957619E+03  0.47520127326E+03  0.12700000000E+01 0. -1.
         25    2    1    2    0    0  0.00000000000E+00  0.00000000000E+00 -0.46703048386E+03  0.48346849587E+03  0.12499725454E+03 0.  0.
    9000005    1    3    3    0    0  0.41782105458E+02  0.39512590932E+02 -0.13892405019E+03  0.15035917299E+03  0.10000000000E+01 0.  0.
    9000005    1    3    3    0    0 -0.41782105458E+02 -0.39512590932E+02 -0.32810643366E+03  0.33310932288E+03  0.10000000000E+01 0.  0.
<mgrwt>
<rscale>  0 0.12499725E+03</rscale>
<asrwt>0</asrwt>
<pdfrwt beam="1">  1        4 0.12644628E-02 0.12499725E+03</pdfrwt>
<pdfrwt beam="2">  1       -4 0.73115285E-01 0.12499725E+03</pdfrwt>
<totfact> 0.57173677E+03</totfact>
</mgrwt>
</event>
<event>
 5    1  0.3316206E-002  0.1249599E+03  0.7818608E-02  0.1235132E+00
         -4   -1    0    0    0  501 -0.00000000000E+00  0.00000000000E+00  0.20526830869E+03  0.20527223742E+03  0.12700000000E+01 0.  1.
          4   -1    0    0  501    0  0.00000000000E+00 -0.00000000000E+00 -0.18992448949E+02  0.19034863201E+02  0.12700000000E+01 0.  1.
         25    2    1    2    0    0  0.00000000000E+00  0.00000000000E+00  0.18627585974E+03  0.22430710062E+03  0.12495991143E+03 0.  0.
    9000005    1    3    3    0    0  0.35538285167E+02  0.49038772629E+02  0.12065373060E+03  0.13500405046E+03  0.10000000000E+01 0.  0.
    9000005    1    3    3    0    0 -0.35538285167E+02 -0.49038772629E+02  0.65622129148E+02  0.89303050158E+02  0.10000000000E+01 0.  0.
<mgrwt>
<rscale>  0 0.12495991E+03</rscale>
<asrwt>0</asrwt>
<pdfrwt beam="2">  1        4 0.29254799E-02 0.12495991E+03</pdfrwt>
<pdfrwt beam="1">  1       -4 0.31583306E-01 0.12495991E+03</pdfrwt>
<totfact> 0.86268556E+03</totfact>
</mgrwt>
</event>
<event>
 5    1  0.3316206E-002  0.1250064E+03  0.7818608E-02  0.1235059E+00
          4   -1    0    0  501    0  0.00000000000E+00  0.00000000000E+00  0.55226477136E+02  0.55241077803E+02  0.12700000000E+01 0. -1.
         -4   -1    0    0    0  501 -0.00000000000E+00 -0.00000000000E+00 -0.70709095627E+02  0.70720499888E+02  0.12700000000E+01 0. -1.
         25    2    1    2    0    0  0.00000000000E+00  0.00000000000E+00 -0.15482618491E+02  0.12596157769E+03  0.12500643015E+03 0.  0.
    9000005    1    3    3    0    0  0.38103472036E+02  0.31214630536E+02  0.31015863714E+02  0.58216935187E+02  0.10000000000E+01 0.  0.
    9000005    1    3    3    0    0 -0.38103472036E+02 -0.31214630536E+02 -0.46498482205E+02  0.67744642504E+02  0.10000000000E+01 0.  0.
<mgrwt>
<rscale>  0 0.12500643E+03</rscale>
<asrwt>0</asrwt>
<pdfrwt beam="1">  1        4 0.84983814E-02 0.12500643E+03</pdfrwt>
<pdfrwt beam="2">  1       -4 0.10880323E-01 0.12500643E+03</pdfrwt>
<totfact> 0.10430286E+04</totfact>
</mgrwt>
</event>
<event>
 5    1  0.3316206E-002  0.1250162E+03  0.7818608E-02  0.1235044E+00
         -4   -1    0    0    0  501 -0.00000000000E+00  0.00000000000E+00  0.16613522200E+02  0.16661993275E+02  0.12700000000E+01 0.  1.
          4   -1    0    0  501    0  0.00000000000E+00 -0.00000000000E+00 -0.23479272282E+03  0.23479615752E+03  0.12700000000E+01 0.  1.
         25    2    1    2    0    0  0.00000000000E+00  0.00000000000E+00 -0.21817920062E+03  0.25145815080E+03  0.12501615104E+03 0.  0.
    9000005    1    3    3    0    0  0.21642259763E+01  0.44731135538E+02 -0.19678090098E+03  0.20181496811E+03  0.10000000000E+01 0.  0.
    9000005    1    3    3    0    0 -0.21642259763E+01 -0.44731135538E+02 -0.21398299636E+02  0.49643182693E+02  0.10000000000E+01 0.  0.
<mgrwt>
<rscale>  0 0.12501615E+03</rscale>
<asrwt>0</asrwt>
<pdfrwt beam="2">  1        4 0.36125948E-01 0.12501615E+03</pdfrwt>
<pdfrwt beam="1">  1       -4 0.25599194E-02 0.12501615E+03</pdfrwt>
<totfact> 0.82090401E+03</totfact>
</mgrwt>
</event>
<event>
 5    1  0.3316206E-002  0.1250071E+03  0.7818608E-02  0.1235058E+00
          4   -1    0    0  501    0  0.00000000000E+00  0.00000000000E+00  0.64076684792E+01  0.65323131691E+01  0.12700000000E+01 0. -1.
         -4   -1    0    0    0  501 -0.00000000000E+00 -0.00000000000E+00 -0.60369228686E+03  0.60369362272E+03  0.12700000000E+01 0. -1.
         25    2    1    2    0    0  0.00000000000E+00  0.00000000000E+00 -0.59728461838E+03  0.61022593589E+03  0.12500710971E+03 0.  0.
    9000005    1    3    3    0    0  0.41999579523E+02 -0.96382329119E+01 -0.51960011623E+03  0.52138483004E+03  0.10000000000E+01 0.  0.
    9000005    1    3    3    0    0 -0.41999579523E+02  0.96382329119E+01 -0.77684502157E+02  0.88841105853E+02  0.10000000000E+01 0.  0.
<mgrwt>
<rscale>  0 0.12500711E+03</rscale>
<asrwt>0</asrwt>
<pdfrwt beam="1">  1        4 0.99548644E-03 0.12500711E+03</pdfrwt>
<pdfrwt beam="2">  1       -4 0.92885383E-01 0.12500711E+03</pdfrwt>
<totfact> 0.48220918E+03</totfact>
</mgrwt>
</event>
<event>
 5    1  0.3316206E-002  0.1250013E+03  0.7818608E-02  0.1235067E+00
          4   -1    0    0  501    0  0.00000000000E+00  0.00000000000E+00  0.16054079444E+03  0.16054581770E+03  0.12700000000E+01 0. -1.
         -4   -1    0    0    0  501 -0.00000000000E+00 -0.00000000000E+00 -0.24310332236E+02  0.24343482771E+02  0.12700000000E+01 0. -1.
         25    2    1    2    0    0  0.00000000000E+00  0.00000000000E+00  0.13623046220E+03  0.18488930047E+03  0.12500125837E+03 0.  0.
    9000005    1    3    3    0    0  0.29558164289E+02  0.11899319813E+02  0.14763041258E+03  0.15103316724E+03  0.10000000000E+01 0.  0.
    9000005    1    3    3    0    0 -0.29558164289E+02 -0.11899319813E+02 -0.11399950379E+02  0.33856133223E+02  0.10000000000E+01 0.  0.
<mgrwt>
<rscale>  0 0.12500126E+03</rscale>
<asrwt>0</asrwt>
<pdfrwt beam="1">  1        4 0.24701521E-01 0.12500126E+03</pdfrwt>
<pdfrwt beam="2">  1       -4 0.37429875E-02 0.12500126E+03</pdfrwt>
<totfact> 0.92741627E+03</totfact>
</mgrwt>
</event>
<event>
 5    1  0.3316206E-002  0.1249991E+03  0.7818608E-02  0.1235071E+00
         -4   -1    0    0    0  501 -0.00000000000E+00  0.00000000000E+00  0.20297901928E+03  0.20298299231E+03  0.12700000000E+01 0.  1.
          4   -1    0    0  501    0  0.00000000000E+00 -0.00000000000E+00 -0.19219210636E+02  0.19261125551E+02  0.12700000000E+01 0.  1.
         25    2    1    2    0    0  0.00000000000E+00  0.00000000000E+00  0.18375980864E+03  0.22224411786E+03  0.12499912260E+03 0.  0.
    9000005    1    3    3    0    0  0.57939626058E+01  0.15456839984E+02 -0.15281587430E+02  0.22516900749E+02  0.10000000000E+01 0.  0.
    9000005    1    3    3    0    0 -0.57939626058E+01 -0.15456839984E+02  0.19904139607E+03  0.19972721711E+03  0.10000000000E+01 0.  0.
<mgrwt>
<rscale>  0 0.12499912E+03</rscale>
<asrwt>0</asrwt>
<pdfrwt beam="2">  1        4 0.29603315E-02 0.12499912E+03</pdfrwt>
<pdfrwt beam="1">  1       -4 0.31231071E-01 0.12499912E+03</pdfrwt>
<totfact> 0.86516183E+03</totfact>
</mgrwt>
</event>
<event>
 4    1  0.3316206E-002  0.1250695E+03  0.7818608E-02  0.1234961E+00
         -4   -1    0    0    0  501 -0.00000000000E+00  0.00000000000E+00  0.55659241050E+01  0.57089763656E+01  0.12700000000E+01 0.  1.
          4   -1    0    0  501    0  0.00000000000E+00 -0.00000000000E+00 -0.69353782773E+03  0.69353899054E+03  0.12700000000E+01 0.  1.
    9000005    1    1    2    0    0  0.54935127392E+01  0.60323550001E+02 -0.25728494106E+03  0.26432111203E+03  0.10000000000E+01 0.  0.
    9000005    1    1    2    0    0 -0.54935127392E+01 -0.60323550001E+02 -0.43068696256E+03  0.43492685487E+03  0.10000000000E+01 0.  0.
<mgrwt>
<rscale>  0 0.12506950E+03</rscale>
<asrwt>0</asrwt>
<pdfrwt beam="2">  1        4 0.10670915E+00 0.12506950E+03</pdfrwt>
<pdfrwt beam="1">  1       -4 0.86739003E-03 0.12506950E+03</pdfrwt>
<totfact> 0.43060931E+03</totfact>
</mgrwt>
</event>
<event>
 5    1  0.3316206E-002  0.1249991E+03  0.7818608E-02  0.1235071E+00
         -4   -1    0    0    0  501 -0.00000000000E+00  0.00000000000E+00  0.50788494210E+02  0.50804370325E+02  0.12700000000E+01 0. -1.
          4   -1    0    0  501    0  0.00000000000E+00 -0.00000000000E+00 -0.76877847119E+02  0.76888336422E+02  0.12700000000E+01 0. -1.
         25    2    1    2    0    0  0.00000000000E+00  0.00000000000E+00 -0.26089352909E+02  0.12769270675E+03  0.12499909208E+03 0.  0.
    9000005    1    3    3    0    0 -0.67482127886E+01 -0.46294780418E+01  0.50243754030E+02  0.50915668137E+02  0.10000000000E+01 0.  0.
    9000005    1    3    3    0    0  0.67482127886E+01  0.46294780418E+01 -0.76333106939E+02  0.76777038610E+02  0.10000000000E+01 0.  0.
<mgrwt>
<rscale>  0 0.12499909E+03</rscale>
<asrwt>0</asrwt>
<pdfrwt beam="2">  1        4 0.11829389E-01 0.12499909E+03</pdfrwt>
<pdfrwt beam="1">  1       -4 0.78156426E-02 0.12499909E+03</pdfrwt>
<totfact> 0.10394342E+04</totfact>
</mgrwt>
</event>
<event>
 5    1  0.3316206E-002  0.1250008E+03  0.7818608E-02  0.1235068E+00
         -4   -1    0    0    0  501 -0.00000000000E+00  0.00000000000E+00  0.99117395290E+01  0.99927714119E+01  0.12700000000E+01 0.  1.
          4   -1    0    0  501    0  0.00000000000E+00 -0.00000000000E+00 -0.39242189797E+03  0.39242395303E+03  0.12700000000E+01 0.  1.
         25    2    1    2    0    0  0.00000000000E+00  0.00000000000E+00 -0.38251015845E+03  0.40241672444E+03  0.12500079518E+03 0.  0.
    9000005    1    3    3    0    0 -0.19689027590E+02 -0.51708097716E+02 -0.28477679718E+03  0.29010379072E+03  0.10000000000E+01 0.  0.
    9000005    1    3    3    0    0  0.19689027590E+02  0.51708097716E+02 -0.97733361261E+02  0.11231293372E+03  0.10000000000E+01 0.  0.
<mgrwt>
<rscale>  0 0.12500080E+03</rscale>
<asrwt>0</asrwt>
<pdfrwt beam="2">  1        4 0.60378979E-01 0.12500080E+03</pdfrwt>
<pdfrwt beam="1">  1       -4 0.15312746E-02 0.12500080E+03</pdfrwt>
<totfact> 0.64317295E+03</totfact>
</mgrwt>
</event>
<event>
 5    1  0.3316206E-002  0.1250016E+03  0.7818608E-02  0.1235067E+00
         -4   -1    0    0    0  501 -0.00000000000E+00  0.00000000000E+00  0.28951676239E+02  0.28979517888E+02  0.12700000000E+01 0. -1.
          4   -1    0    0  501    0  0.00000000000E+00 -0.00000000000E+00 -0.13483081772E+03  0.13483679879E+03  0.12700000000E+01 0. -1.
         25    2    1    2    0    0  0.00000000000E+00  0.00000000000E+00 -0.10587914148E+03  0.16381631668E+03  0.12500157202E+03 0.  0.
    9000005    1    3    3    0    0  0.23907158467E+02  0.47863849029E+02 -0.95260206641E+02  0.10926118816E+03  0.10000000000E+01 0.  0.
    9000005    1    3    3    0    0 -0.23907158467E+02 -0.47863849029E+02 -0.10618934843E+02  0.54555128513E+02  0.10000000000E+01 0.  0.
<mgrwt>
<rscale>  0 0.12500157E+03</rscale>
<asrwt>0</asrwt>
<pdfrwt beam="2">  1        4 0.20745804E-01 0.12500157E+03</pdfrwt>
<pdfrwt beam="1">  1       -4 0.44567059E-02 0.12500157E+03</pdfrwt>
<totfact> 0.96608622E+03</totfact>
</mgrwt>
</event>
<event>
 5    1  0.3316206E-002  0.1250005E+03  0.7818608E-02  0.1235069E+00
         -4   -1    0    0    0  501 -0.00000000000E+00  0.00000000000E+00  0.32695423310E+02  0.32720079545E+02  0.12700000000E+01 0.  1.
          4   -1    0    0  501    0  0.00000000000E+00 -0.00000000000E+00 -0.11940171970E+03  0.11940847360E+03  0.12700000000E+01 0.  1.
         25    2    1    2    0    0  0.00000000000E+00  0.00000000000E+00 -0.86706296394E+02  0.15212855315E+03  0.12500045939E+03 0.  0.
    9000005    1    3    3    0    0  0.10190543213E+02 -0.58596554518E+02 -0.66695760877E+02  0.89368494959E+02  0.10000000000E+01 0.  0.
    9000005    1    3    3    0    0 -0.10190543213E+02  0.58596554518E+02 -0.20010535517E+02  0.62760058190E+02  0.10000000000E+01 0.  0.
<mgrwt>
<rscale>  0 0.12500046E+03</rscale>
<asrwt>0</asrwt>
<pdfrwt beam="2">  1        4 0.18371911E-01 0.12500046E+03</pdfrwt>
<pdfrwt beam="1">  1       -4 0.50324813E-02 0.12500046E+03</pdfrwt>
<totfact> 0.98880061E+03</totfact>
</mgrwt>
</event>
<event>
 5    1  0.3316206E-002  0.1250068E+03  0.7818608E-02  0.1235059E+00
          4   -1    0    0  501    0  0.00000000000E+00  0.00000000000E+00  0.24321179432E+03  0.24321511013E+03  0.12700000000E+01 0.  1.
         -4   -1    0    0    0  501 -0.00000000000E+00 -0.00000000000E+00 -0.16034321768E+02  0.16084538369E+02  0.12700000000E+01 0.  1.
         25    2    1    2    0    0  0.00000000000E+00  0.00000000000E+00  0.22717747255E+03  0.25929964850E+03  0.12500681452E+03 0.  0.
    9000005    1    3    3    0    0  0.10956322015E+02  0.48983052587E+02  0.19082053404E+03  0.19731410655E+03  0.10000000000E+01 0.  0.
    9000005    1    3    3    0    0 -0.10956322015E+02 -0.48983052587E+02  0.36356938512E+02  0.61985541949E+02  0.10000000000E+01 0.  0.
<mgrwt>
<rscale>  0 0.12500681E+03</rscale>
<asrwt>0</asrwt>
<pdfrwt beam="1">  1        4 0.37421314E-01 0.12500681E+03</pdfrwt>
<pdfrwt beam="2">  1       -4 0.24709368E-02 0.12500681E+03</pdfrwt>
<totfact> 0.80992160E+03</totfact>
</mgrwt>
</event>
<event>
 5    1  0.3316206E-002  0.1249474E+03  0.7818608E-02  0.1235152E+00
          4   -1    0    0  501    0  0.00000000000E+00  0.00000000000E+00  0.12492541282E+03  0.12493186811E+03  0.12700000000E+01 0. -1.
         -4   -1    0    0    0  501 -0.00000000000E+00 -0.00000000000E+00 -0.31222159856E+02  0.31247978592E+02  0.12700000000E+01 0. -1.
         25    2    1    2    0    0  0.00000000000E+00  0.00000000000E+00  0.93703252965E+02  0.15617984670E+03  0.12494736851E+03 0.  0.
    9000005    1    3    3    0    0  0.10232673596E+02 -0.34460854813E+01 -0.30053007836E+02  0.31949434957E+02  0.10000000000E+01 0.  0.
    9000005    1    3    3    0    0 -0.10232673596E+02  0.34460854813E+01  0.12375626080E+03  0.12423041174E+03  0.10000000000E+01 0.  0.
<mgrwt>
<rscale>  0 0.12494737E+03</rscale>
<asrwt>0</asrwt>
<pdfrwt beam="1">  1        4 0.19221777E-01 0.12494737E+03</pdfrwt>
<pdfrwt beam="2">  1       -4 0.48058918E-02 0.12494737E+03</pdfrwt>
<totfact> 0.98200552E+03</totfact>
</mgrwt>
</event>
<event>
 5    1  0.3316206E-002  0.1249931E+03  0.7818608E-02  0.1235080E+00
         -4   -1    0    0    0  501 -0.00000000000E+00  0.00000000000E+00  0.35675591718E+03  0.35675817768E+03  0.12700000000E+01 0.  1.
          4   -1    0    0  501    0  0.00000000000E+00 -0.00000000000E+00 -0.10909028079E+02  0.10982704295E+02  0.12700000000E+01 0.  1.
         25    2    1    2    0    0  0.00000000000E+00  0.00000000000E+00  0.34584688910E+03  0.36774088198E+03  0.12499314212E+03 0.  0.
    9000005    1    3    3    0    0  0.60958242682E+02 -0.79329654774E+01  0.20594596007E+03  0.21492691261E+03  0.10000000000E+01 0.  0.
    9000005    1    3    3    0    0 -0.60958242682E+02  0.79329654774E+01  0.13990092903E+03  0.15281396937E+03  0.10000000000E+01 0.  0.
<mgrwt>
<rscale>  0 0.12499314E+03</rscale>
<asrwt>0</asrwt>
<pdfrwt beam="2">  1        4 0.16841536E-02 0.12499314E+03</pdfrwt>
<pdfrwt beam="1">  1       -4 0.54891356E-01 0.12499314E+03</pdfrwt>
<totfact> 0.67826236E+03</totfact>
</mgrwt>
</event>
<event>
 5    1  0.3316206E-002  0.1250038E+03  0.7818608E-02  0.1235063E+00
          4   -1    0    0  501    0  0.00000000000E+00  0.00000000000E+00  0.54951515275E+02  0.54966188980E+02  0.12700000000E+01 0.  1.
         -4   -1    0    0    0  501 -0.00000000000E+00 -0.00000000000E+00 -0.71059865035E+02  0.71071213011E+02  0.12700000000E+01 0.  1.
         25    2    1    2    0    0  0.00000000000E+00  0.00000000000E+00 -0.16108349760E+02  0.12603740199E+03  0.12500379102E+03 0.  0.
    9000005    1    3    3    0    0  0.65971664017E+01  0.56363180954E+02  0.18337748696E+02  0.59645651971E+02  0.10000000000E+01 0.  0.
    9000005    1    3    3    0    0 -0.65971664017E+01 -0.56363180954E+02 -0.34446098456E+02  0.66391750020E+02  0.10000000000E+01 0.  0.
<mgrwt>
<rscale>  0 0.12500379E+03</rscale>
<asrwt>0</asrwt>
<pdfrwt beam="1">  1        4 0.84560810E-02 0.12500379E+03</pdfrwt>
<pdfrwt beam="2">  1       -4 0.10934289E-01 0.12500379E+03</pdfrwt>
<totfact> 0.10429245E+04</totfact>
</mgrwt>
</event>
<event>
 5    1  0.3316206E-002  0.1250015E+03  0.7818608E-02  0.1235067E+00
         -4   -1    0    0    0  501 -0.00000000000E+00  0.00000000000E+00  0.15732340012E+02  0.15783517423E+02  0.12700000000E+01 0.  1.
          4   -1    0    0  501    0  0.00000000000E+00 -0.00000000000E+00 -0.24784407370E+03  0.24784732754E+03  0.12700000000E+01 0.  1.
         25    2    1    2    0    0  0.00000000000E+00  0.00000000000E+00 -0.23211173369E+03  0.26363084496E+03  0.12500146199E+03 0.  0.
    9000005    1    3    3    0    0 -0.11575215895E+02  0.47581913625E+02 -0.19793692821E+03  0.20390696819E+03  0.10000000000E+01 0.  0.
    9000005    1    3    3    0    0  0.11575215895E+02 -0.47581913625E+02 -0.34174805478E+02  0.59723876772E+02  0.10000000000E+01 0.  0.
<mgrwt>
<rscale>  0 0.12500146E+03</rscale>
<asrwt>0</asrwt>
<pdfrwt beam="2">  1        4 0.38134042E-01 0.12500146E+03</pdfrwt>
<pdfrwt beam="1">  1       -4 0.24245472E-02 0.12500146E+03</pdfrwt>
<totfact> 0.80396594E+03</totfact>
</mgrwt>
</event>
<event>
 5    1  0.3316206E-002  0.1250000E+03  0.7818608E-02  0.1235069E+00
         -4   -1    0    0    0  501 -0.00000000000E+00  0.00000000000E+00  0.36801454797E+03  0.36801673931E+03  0.12700000000E+01 0. -1.
          4   -1    0    0  501    0  0.00000000000E+00 -0.00000000000E+00 -0.10574168675E+02  0.10650161650E+02  0.12700000000E+01 0. -1.
         25    2    1    2    0    0  0.00000000000E+00  0.00000000000E+00  0.35744037929E+03  0.37866690096E+03  0.12499998855E+03 0.  0.
    9000005    1    3    3    0    0  0.62082584096E+02  0.25541233382E+01  0.19892349328E+03  0.20840423934E+03  0.10000000000E+01 0.  0.
    9000005    1    3    3    0    0 -0.62082584096E+02 -0.25541233382E+01  0.15851688601E+03  0.17026266163E+03  0.10000000000E+01 0.  0.
<mgrwt>
<rscale>  0 0.12499999E+03</rscale>
<asrwt>0</asrwt>
<pdfrwt beam="2">  1        4 0.16328092E-02 0.12499999E+03</pdfrwt>
<pdfrwt beam="1">  1       -4 0.56623642E-01 0.12499999E+03</pdfrwt>
<totfact> 0.66681871E+03</totfact>
</mgrwt>
</event>
<event>
 5    1  0.3316206E-002  0.1250031E+03  0.7818608E-02  0.1235064E+00
          4   -1    0    0  501    0  0.00000000000E+00  0.00000000000E+00  0.82856731870E+01  0.83824387956E+01  0.12700000000E+01 0.  1.
         -4   -1    0    0    0  501 -0.00000000000E+00 -0.00000000000E+00 -0.46863531350E+03  0.46863703434E+03  0.12700000000E+01 0.  1.
         25    2    1    2    0    0  0.00000000000E+00  0.00000000000E+00 -0.46034964031E+03  0.47701947314E+03  0.12500314563E+03 0.  0.
    9000005    1    3    3    0    0 -0.51009252663E+02 -0.35897925197E+02 -0.21547347092E+03  0.22432213792E+03  0.10000000000E+01 0.  0.
    9000005    1    3    3    0    0  0.51009252663E+02  0.35897925197E+02 -0.24487616940E+03  0.25269733522E+03  0.10000000000E+01 0.  0.
<mgrwt>
<rscale>  0 0.12500315E+03</rscale>
<asrwt>0</asrwt>
<pdfrwt beam="1">  1        4 0.12822952E-02 0.12500315E+03</pdfrwt>
<pdfrwt beam="2">  1       -4 0.72105296E-01 0.12500315E+03</pdfrwt>
<totfact> 0.57688539E+03</totfact>
</mgrwt>
</event>
<event>
 5    1  0.3316206E-002  0.1249913E+03  0.7818608E-02  0.1235083E+00
         -4   -1    0    0    0  501 -0.00000000000E+00  0.00000000000E+00  0.24620323617E+03  0.24620651169E+03  0.12700000000E+01 0.  1.
          4   -1    0    0  501    0  0.00000000000E+00 -0.00000000000E+00 -0.15834934894E+02  0.15885781791E+02  0.12700000000E+01 0.  1.
         25    2    1    2    0    0  0.00000000000E+00  0.00000000000E+00  0.23036830127E+03  0.26209229348E+03  0.12499126398E+03 0.  0.
    9000005    1    3    3    0    0 -0.55507789979E+02 -0.17629910837E+02  0.16266715941E+03  0.17278175035E+03  0.10000000000E+01 0.  0.
    9000005    1    3    3    0    0  0.55507789979E+02  0.17629910837E+02  0.67701141866E+02  0.89310543131E+02  0.10000000000E+01 0.  0.
<mgrwt>
<rscale>  0 0.12499126E+03</rscale>
<asrwt>0</asrwt>
<pdfrwt beam="2">  1        4 0.24403072E-02 0.12499126E+03</pdfrwt>
<pdfrwt beam="1">  1       -4 0.37881583E-01 0.12499126E+03</pdfrwt>
<totfact> 0.80629007E+03</totfact>
</mgrwt>
</event>
<event>
 5    1  0.3316206E-002  0.1250009E+03  0.7818608E-02  0.1235068E+00
         -4   -1    0    0    0  501 -0.00000000000E+00  0.00000000000E+00  0.19364999431E+03  0.19365415874E+03  0.12700000000E+01 0.  1.
          4   -1    0    0  501    0  0.00000000000E+00 -0.00000000000E+00 -0.20147603957E+02  0.20187591367E+02  0.12700000000E+01 0.  1.
         25    2    1    2    0    0  0.00000000000E+00  0.00000000000E+00  0.17350239035E+03  0.21384175010E+03  0.12500085851E+03 0.  0.
    9000005    1    3    3    0    0  0.45331900309E+02  0.42187853506E+02  0.10111591389E+03  0.11857581630E+03  0.10000000000E+01 0.  0.
    9000005    1    3    3    0    0 -0.45331900309E+02 -0.42187853506E+02  0.72386476458E+02  0.95265933802E+02  0.10000000000E+01 0.  0.
<mgrwt>
<rscale>  0 0.12500086E+03</rscale>
<asrwt>0</asrwt>
<pdfrwt beam="2">  1        4 0.31030277E-02 0.12500086E+03</pdfrwt>
<pdfrwt beam="1">  1       -4 0.29795703E-01 0.12500086E+03</pdfrwt>
<totfact> 0.87850605E+03</totfact>
</mgrwt>
</event>
<event>
 5    1  0.3316206E-002  0.1250083E+03  0.7818608E-02  0.1235056E+00
          4   -1    0    0  501    0  0.00000000000E+00  0.00000000000E+00  0.10864568784E+03  0.10865311033E+03  0.12700000000E+01 0.  1.
         -4   -1    0    0    0  501 -0.00000000000E+00 -0.00000000000E+00 -0.35938947566E+02  0.35961380009E+02  0.12700000000E+01 0.  1.
         25    2    1    2    0    0  0.00000000000E+00  0.00000000000E+00  0.72706740270E+02  0.14461449034E+03  0.12500832267E+03 0.  0.
    9000005    1    3    3    0    0 -0.14667394410E+02  0.59751289739E+02  0.23658619390E+02  0.65924800763E+02  0.10000000000E+01 0.  0.
    9000005    1    3    3    0    0  0.14667394410E+02 -0.59751289739E+02  0.49048120881E+02  0.78689689580E+02  0.10000000000E+01 0.  0.
<mgrwt>
<rscale>  0 0.12500832E+03</rscale>
<asrwt>0</asrwt>
<pdfrwt beam="1">  1        4 0.16717018E-01 0.12500832E+03</pdfrwt>
<pdfrwt beam="2">  1       -4 0.55313655E-02 0.12500832E+03</pdfrwt>
<totfact> 0.10036946E+04</totfact>
</mgrwt>
</event>
<event>
 5    1  0.3316206E-002  0.1250044E+03  0.7818608E-02  0.1235062E+00
         -4   -1    0    0    0  501 -0.00000000000E+00  0.00000000000E+00  0.90851706813E+01  0.91735067618E+01  0.12700000000E+01 0.  1.
          4   -1    0    0  501    0  0.00000000000E+00 -0.00000000000E+00 -0.42781940365E+03  0.42782128867E+03  0.12700000000E+01 0.  1.
         25    2    1    2    0    0  0.00000000000E+00  0.00000000000E+00 -0.41873423297E+03  0.43699479543E+03  0.12500437342E+03 0.  0.
    9000005    1    3    3    0    0  0.10607627710E+02  0.56651476983E+02 -0.29381972425E+03  0.29942101124E+03  0.10000000000E+01 0.  0.
    9000005    1    3    3    0    0 -0.10607627710E+02 -0.56651476983E+02 -0.12491450871E+03  0.13757378419E+03  0.10000000000E+01 0.  0.
<mgrwt>
<rscale>  0 0.12500437E+03</rscale>
<asrwt>0</asrwt>
<pdfrwt beam="2">  1        4 0.65825294E-01 0.12500437E+03</pdfrwt>
<pdfrwt beam="1">  1       -4 0.14046590E-02 0.12500437E+03</pdfrwt>
<totfact> 0.61101150E+03</totfact>
</mgrwt>
</event>
<event>
 5    1  0.3316206E-002  0.1249957E+03  0.7818608E-02  0.1235076E+00
          4   -1    0    0  501    0  0.00000000000E+00  0.00000000000E+00  0.93583004245E+03  0.93583090420E+03  0.12700000000E+01 0. -1.
         -4   -1    0    0    0  501 -0.00000000000E+00 -0.00000000000E+00 -0.40763257000E+01  0.42695820888E+01  0.12700000000E+01 0. -1.
         25    2    1    2    0    0  0.00000000000E+00  0.00000000000E+00  0.93175371675E+03  0.94010048628E+03  0.12499574248E+03 0.  0.
    9000005    1    3    3    0    0 -0.20937155521E+02 -0.15092339817E+02  0.89390650562E+03  0.89427958939E+03  0.10000000000E+01 0.  0.
    9000005    1    3    3    0    0  0.20937155521E+02  0.15092339817E+02  0.37847211128E+02  0.45820896899E+02  0.10000000000E+01 0.  0.
<mgrwt>
<rscale>  0 0.12499574E+03</rscale>
<asrwt>0</asrwt>
<pdfrwt beam="1">  1        4 0.14398891E+00 0.12499574E+03</pdfrwt>
<pdfrwt beam="2">  1       -4 0.64205863E-03 0.12499574E+03</pdfrwt>
<totfact> 0.32673077E+03</totfact>
</mgrwt>
</event>
<event>
 5    1  0.3316206E-002  0.1250011E+03  0.7818608E-02  0.1235068E+00
         -4   -1    0    0    0  501 -0.00000000000E+00  0.00000000000E+00  0.67526641026E+01  0.68710532295E+01  0.12700000000E+01 0. -1.
          4   -1    0    0  501    0  0.00000000000E+00 -0.00000000000E+00 -0.57333932494E+03  0.57334073152E+03  0.12700000000E+01 0. -1.
         25    2    1    2    0    0  0.00000000000E+00  0.00000000000E+00 -0.56658666084E+03  0.58021178475E+03  0.12500108370E+03 0.  0.
    9000005    1    3    3    0    0 -0.48001520910E+02 -0.21421884033E+02 -0.12641678090E+03  0.13691327773E+03  0.10000000000E+01 0.  0.
    9000005    1    3    3    0    0  0.48001520910E+02  0.21421884033E+02 -0.44016987994E+03  0.44329850702E+03  0.10000000000E+01 0.  0.
<mgrwt>
<rscale>  0 0.12500108E+03</rscale>
<asrwt>0</asrwt>
<pdfrwt beam="2">  1        4 0.88215227E-01 0.12500108E+03</pdfrwt>
<pdfrwt beam="1">  1       -4 0.10480869E-02 0.12500108E+03</pdfrwt>
<totfact> 0.50139831E+03</totfact>
</mgrwt>
</event>
<event>
 5    1  0.3316206E-002  0.1250159E+03  0.7818608E-02  0.1235044E+00
         -4   -1    0    0    0  501 -0.00000000000E+00  0.00000000000E+00  0.12660560680E+02  0.12724099054E+02  0.12700000000E+01 0. -1.
          4   -1    0    0  501    0  0.00000000000E+00 -0.00000000000E+00 -0.30777805164E+03  0.30778067186E+03  0.12700000000E+01 0. -1.
         25    2    1    2    0    0  0.00000000000E+00  0.00000000000E+00 -0.29511749096E+03  0.32050477091E+03  0.12501589782E+03 0.  0.
    9000005    1    3    3    0    0  0.58429170374E+02  0.14622692695E+02 -0.10477834150E+03  0.12086063023E+03  0.10000000000E+01 0.  0.
    9000005    1    3    3    0    0 -0.58429170374E+02 -0.14622692695E+02 -0.19033914946E+03  0.19964414068E+03  0.10000000000E+01 0.  0.
<mgrwt>
<rscale>  0 0.12501590E+03</rscale>
<asrwt>0</asrwt>
<pdfrwt beam="2">  1        4 0.47355553E-01 0.12501590E+03</pdfrwt>
<pdfrwt beam="1">  1       -4 0.19528679E-02 0.12501590E+03</pdfrwt>
<totfact> 0.73070379E+03</totfact>
</mgrwt>
</event>
<event>
 5    1  0.3316206E-002  0.1250026E+03  0.7818608E-02  0.1235065E+00
         -4   -1    0    0    0  501 -0.00000000000E+00  0.00000000000E+00  0.49184743024E+03  0.49184906987E+03  0.12700000000E+01 0. -1.
          4   -1    0    0  501    0  0.00000000000E+00 -0.00000000000E+00 -0.78898993182E+01  0.79914586436E+01  0.12700000000E+01 0. -1.
         25    2    1    2    0    0  0.00000000000E+00  0.00000000000E+00  0.48395753092E+03  0.49984052852E+03  0.12500264881E+03 0.  0.
    9000005    1    3    3    0    0 -0.30395320304E+01  0.53006231606E+02  0.37378330128E+03  0.37753656202E+03  0.10000000000E+01 0.  0.
    9000005    1    3    3    0    0  0.30395320304E+01 -0.53006231606E+02  0.11017422964E+03  0.12230396650E+03  0.10000000000E+01 0.  0.
<mgrwt>
<rscale>  0 0.12500265E+03</rscale>
<asrwt>0</asrwt>
<pdfrwt beam="2">  1        4 0.12217684E-02 0.12500265E+03</pdfrwt>
<pdfrwt beam="1">  1       -4 0.75676815E-01 0.12500265E+03</pdfrwt>
<totfact> 0.55873465E+03</totfact>
</mgrwt>
</event>
<event>
 5    1  0.3316206E-002  0.1249973E+03  0.7818608E-02  0.1235074E+00
         -4   -1    0    0    0  501 -0.00000000000E+00  0.00000000000E+00  0.11926844643E+03  0.11927520788E+03  0.12700000000E+01 0.  1.
          4   -1    0    0  501    0  0.00000000000E+00 -0.00000000000E+00 -0.32730309765E+02  0.32754939740E+02  0.12700000000E+01 0.  1.
         25    2    1    2    0    0  0.00000000000E+00  0.00000000000E+00  0.86538136667E+02  0.15203014762E+03  0.12499726672E+03 0.  0.
    9000005    1    3    3    0    0  0.20713755027E+02  0.41318364831E+02  0.94421945894E+02  0.10513215867E+03  0.10000000000E+01 0.  0.
    9000005    1    3    3    0    0 -0.20713755027E+02 -0.41318364831E+02 -0.78838092278E+01  0.46897988950E+02  0.10000000000E+01 0.  0.
<mgrwt>
<rscale>  0 0.12499727E+03</rscale>
<asrwt>0</asrwt>
<pdfrwt beam="2">  1        4 0.50378471E-02 0.12499727E+03</pdfrwt>
<pdfrwt beam="1">  1       -4 0.18351406E-01 0.12499727E+03</pdfrwt>
<totfact> 0.98906630E+03</totfact>
</mgrwt>
</event>
<event>
 5    1  0.3316206E-002  0.1250013E+03  0.7818608E-02  0.1235067E+00
          4   -1    0    0  501    0  0.00000000000E+00  0.00000000000E+00  0.29838510183E+02  0.29865525107E+02  0.12700000000E+01 0.  1.
         -4   -1    0    0    0  501 -0.00000000000E+00 -0.00000000000E+00 -0.13082646448E+03  0.13083262861E+03  0.12700000000E+01 0.  1.
         25    2    1    2    0    0  0.00000000000E+00  0.00000000000E+00 -0.10098795430E+03  0.16069815372E+03  0.12500131877E+03 0.  0.
    9000005    1    3    3    0    0  0.16219666012E+02 -0.21739398190E+02  0.21883290097E+02  0.34864844538E+02  0.10000000000E+01 0.  0.
    9000005    1    3    3    0    0 -0.16219666012E+02  0.21739398190E+02 -0.12287124440E+03  0.12583330918E+03  0.10000000000E+01 0.  0.
<mgrwt>
<rscale>  0 0.12500132E+03</rscale>
<asrwt>0</asrwt>
<pdfrwt beam="1">  1        4 0.45930923E-02 0.12500132E+03</pdfrwt>
<pdfrwt beam="2">  1       -4 0.20129700E-01 0.12500132E+03</pdfrwt>
<totfact> 0.97205474E+03</totfact>
</mgrwt>
</event>
<event>
 5    1  0.3316206E-002  0.1250001E+03  0.7818608E-02  0.1235069E+00
          4   -1    0    0  501    0  0.00000000000E+00  0.00000000000E+00  0.99052876819E+02  0.99061018095E+02  0.12700000000E+01 0. -1.
         -4   -1    0    0    0  501 -0.00000000000E+00 -0.00000000000E+00 -0.39416059174E+02  0.39436513802E+02  0.12700000000E+01 0. -1.
         25    2    1    2    0    0  0.00000000000E+00  0.00000000000E+00  0.59636817644E+02  0.13849753190E+03  0.12500006529E+03 0.  0.
    9000005    1    3    3    0    0 -0.33611352940E+01  0.47131095418E+02 -0.15495341555E+02  0.49736736882E+02  0.10000000000E+01 0.  0.
    9000005    1    3    3    0    0  0.33611352940E+01 -0.47131095418E+02  0.75132159199E+02  0.88760795015E+02  0.10000000000E+01 0.  0.
<mgrwt>
<rscale>  0 0.12500007E+03</rscale>
<asrwt>0</asrwt>
<pdfrwt beam="1">  1        4 0.15241104E-01 0.12500007E+03</pdfrwt>
<pdfrwt beam="2">  1       -4 0.60662088E-02 0.12500007E+03</pdfrwt>
<totfact> 0.10164806E+04</totfact>
</mgrwt>
</event>
<event>
 5    1  0.3316206E-002  0.1250290E+03  0.7818608E-02  0.1235024E+00
         -4   -1    0    0    0  501 -0.00000000000E+00  0.00000000000E+00  0.84211076186E+02  0.84220652173E+02  0.12700000000E+01 0.  1.
          4   -1    0    0  501    0  0.00000000000E+00 -0.00000000000E+00 -0.46387058246E+02  0.46404440227E+02  0.12700000000E+01 0.  1.
         25    2    1    2    0    0  0.00000000000E+00  0.00000000000E+00  0.37824017940E+02  0.13062509240E+03  0.12502903035E+03 0.  0.
    9000005    1    3    3    0    0  0.19858029846E+02 -0.43920206602E+02 -0.22665408831E+02  0.53273320291E+02  0.10000000000E+01 0.  0.
    9000005    1    3    3    0    0 -0.19858029846E+02  0.43920206602E+02  0.60489426771E+02  0.77351772109E+02  0.10000000000E+01 0.  0.
<mgrwt>
<rscale>  0 0.12502903E+03</rscale>
<asrwt>0</asrwt>
<pdfrwt beam="2">  1        4 0.71385442E-02 0.12502903E+03</pdfrwt>
<pdfrwt beam="1">  1       -4 0.12957624E-01 0.12502903E+03</pdfrwt>
<totfact> 0.10324370E+04</totfact>
</mgrwt>
</event>
<event>
 5    1  0.3316206E-002  0.1250008E+03  0.7818608E-02  0.1235068E+00
         -4   -1    0    0    0  501 -0.00000000000E+00  0.00000000000E+00  0.20698828733E+03  0.20699218341E+03  0.12700000000E+01 0. -1.
          4   -1    0    0  501    0  0.00000000000E+00 -0.00000000000E+00 -0.18846632876E+02  0.18889374547E+02  0.12700000000E+01 0. -1.
         25    2    1    2    0    0  0.00000000000E+00  0.00000000000E+00  0.18814165446E+03  0.22588155796E+03  0.12500078433E+03 0.  0.
    9000005    1    3    3    0    0 -0.18705611093E+02  0.58509136083E+02  0.73303204806E+02  0.95642975311E+02  0.10000000000E+01 0.  0.
    9000005    1    3    3    0    0  0.18705611093E+02 -0.58509136083E+02  0.11483844965E+03  0.13023858265E+03  0.10000000000E+01 0.  0.
<mgrwt>
<rscale>  0 0.12500078E+03</rscale>
<asrwt>0</asrwt>
<pdfrwt beam="2">  1        4 0.29030697E-02 0.12500078E+03</pdfrwt>
<pdfrwt beam="1">  1       -4 0.31847937E-01 0.12500078E+03</pdfrwt>
<totfact> 0.85944522E+03</totfact>
</mgrwt>
</event>
<event>
 5    1  0.3316206E-002  0.1250013E+03  0.7818608E-02  0.1235067E+00
          4   -1    0    0  501    0  0.00000000000E+00  0.00000000000E+00  0.55271880309E+02  0.55286468986E+02  0.12700000000E+01 0. -1.
         -4   -1    0    0    0  501 -0.00000000000E+00 -0.00000000000E+00 -0.70645228683E+02  0.70656643252E+02  0.12700000000E+01 0. -1.
         25    2    1    2    0    0  0.00000000000E+00  0.00000000000E+00 -0.15373348373E+02  0.12594311224E+03  0.12500131071E+03 0.  0.
    9000005    1    3    3    0    0  0.17938913696E+02  0.24697170485E+02  0.47254691876E+02  0.56265093609E+02  0.10000000000E+01 0.  0.
    9000005    1    3    3    0    0 -0.17938913696E+02 -0.24697170485E+02 -0.62628040249E+02  0.69678018629E+02  0.10000000000E+01 0.  0.
<mgrwt>
<rscale>  0 0.12500131E+03</rscale>
<asrwt>0</asrwt>
<pdfrwt beam="1">  1        4 0.85053665E-02 0.12500131E+03</pdfrwt>
<pdfrwt beam="2">  1       -4 0.10870497E-01 0.12500131E+03</pdfrwt>
<totfact> 0.10431895E+04</totfact>
</mgrwt>
</event>
<event>
 5    1  0.3316206E-002  0.1250003E+03  0.7818608E-02  0.1235069E+00
         -4   -1    0    0    0  501 -0.00000000000E+00  0.00000000000E+00  0.39608394228E+02  0.39628749581E+02  0.12700000000E+01 0.  1.
          4   -1    0    0  501    0  0.00000000000E+00 -0.00000000000E+00 -0.98572533252E+02  0.98580714198E+02  0.12700000000E+01 0.  1.
         25    2    1    2    0    0  0.00000000000E+00  0.00000000000E+00 -0.58964139024E+02  0.13820946378E+03  0.12500034475E+03 0.  0.
    9000005    1    3    3    0    0  0.37592299840E+02 -0.23370371091E+02 -0.78256100359E+02  0.89913138615E+02  0.10000000000E+01 0.  0.
    9000005    1    3    3    0    0 -0.37592299840E+02  0.23370371091E+02  0.19291961334E+02  0.48296325164E+02  0.10000000000E+01 0.  0.
<mgrwt>
<rscale>  0 0.12500034E+03</rscale>
<asrwt>0</asrwt>
<pdfrwt beam="2">  1        4 0.15167200E-01 0.12500034E+03</pdfrwt>
<pdfrwt beam="1">  1       -4 0.60957942E-02 0.12500034E+03</pdfrwt>
<totfact> 0.10170752E+04</totfact>
</mgrwt>
</event>
<event>
 5    1  0.3316206E-002  0.1250010E+03  0.7818608E-02  0.1235068E+00
         -4   -1    0    0    0  501 -0.00000000000E+00  0.00000000000E+00  0.11394682819E+02  0.11465238617E+02  0.12700000000E+01 0. -1.
          4   -1    0    0  501    0  0.00000000000E+00 -0.00000000000E+00 -0.34168881062E+03  0.34169117080E+03  0.12700000000E+01 0. -1.
         25    2    1    2    0    0  0.00000000000E+00  0.00000000000E+00 -0.33029412780E+03  0.35315640942E+03  0.12500095461E+03 0.  0.
    9000005    1    3    3    0    0 -0.30876894582E+02 -0.39735950111E+02 -0.26983245409E+03  0.27448657824E+03  0.10000000000E+01 0.  0.
    9000005    1    3    3    0    0  0.30876894582E+02  0.39735950111E+02 -0.60461673706E+02  0.78669831178E+02  0.10000000000E+01 0.  0.
<mgrwt>
<rscale>  0 0.12500095E+03</rscale>
<asrwt>0</asrwt>
<pdfrwt beam="2">  1        4 0.52573110E-01 0.12500095E+03</pdfrwt>
<pdfrwt beam="1">  1       -4 0.17586373E-02 0.12500095E+03</pdfrwt>
<totfact> 0.69377241E+03</totfact>
</mgrwt>
</event>
<event>
 5    1  0.3316206E-002  0.1250006E+03  0.7818608E-02  0.1235068E+00
          4   -1    0    0  501    0  0.00000000000E+00  0.00000000000E+00  0.37634348018E+02  0.37655770484E+02  0.12700000000E+01 0. -1.
         -4   -1    0    0    0  501 -0.00000000000E+00 -0.00000000000E+00 -0.10374090999E+03  0.10374868339E+03  0.12700000000E+01 0. -1.
         25    2    1    2    0    0  0.00000000000E+00  0.00000000000E+00 -0.66106561970E+02  0.14140445387E+03  0.12500056816E+03 0.  0.
    9000005    1    3    3    0    0 -0.55999992389E+02 -0.89318963205E+01 -0.33488917146E+01  0.56815429200E+02  0.10000000000E+01 0.  0.
    9000005    1    3    3    0    0  0.55999992389E+02  0.89318963205E+01 -0.62757670255E+02  0.84589024674E+02  0.10000000000E+01 0.  0.
<mgrwt>
<rscale>  0 0.12500057E+03</rscale>
<asrwt>0</asrwt>
<pdfrwt beam="1">  1        4 0.57921456E-02 0.12500057E+03</pdfrwt>
<pdfrwt beam="2">  1       -4 0.15962386E-01 0.12500057E+03</pdfrwt>
<totfact> 0.10104431E+04</totfact>
</mgrwt>
</event>
<event>
 5    1  0.3316206E-002  0.1249921E+03  0.7818608E-02  0.1235082E+00
         -4   -1    0    0    0  501 -0.00000000000E+00  0.00000000000E+00  0.39011478640E+03  0.39011685361E+03  0.12700000000E+01 0. -1.
          4   -1    0    0  501    0  0.00000000000E+00 -0.00000000000E+00 -0.99694352996E+01  0.10050002000E+02  0.12700000000E+01 0. -1.
         25    2    1    2    0    0  0.00000000000E+00  0.00000000000E+00  0.38014535110E+03  0.40016685561E+03  0.12499209720E+03 0.  0.
    9000005    1    3    3    0    0  0.31131433823E+01 -0.37194625097E+02  0.29624088403E+02  0.47662547263E+02  0.10000000000E+01 0.  0.
    9000005    1    3    3    0    0 -0.31131433823E+01  0.37194625097E+02  0.35052126270E+03  0.35250430834E+03  0.10000000000E+01 0.  0.
<mgrwt>
<rscale>  0 0.12499210E+03</rscale>
<asrwt>0</asrwt>
<pdfrwt beam="2">  1        4 0.15401159E-02 0.12499210E+03</pdfrwt>
<pdfrwt beam="1">  1       -4 0.60024010E-01 0.12499210E+03</pdfrwt>
<totfact> 0.64547827E+03</totfact>
</mgrwt>
</event>
<event>
 5    1  0.3316206E-002  0.1250019E+03  0.7818608E-02  0.1235066E+00
         -4   -1    0    0    0  501 -0.00000000000E+00  0.00000000000E+00  0.74754018892E+02  0.74764806162E+02  0.12700000000E+01 0.  1.
          4   -1    0    0  501    0  0.00000000000E+00 -0.00000000000E+00 -0.52234047767E+02  0.52249484650E+02  0.12700000000E+01 0.  1.
         25    2    1    2    0    0  0.00000000000E+00  0.00000000000E+00  0.22519971124E+02  0.12701429081E+03  0.12500192387E+03 0.  0.
    9000005    1    3    3    0    0  0.57355878395E+02  0.58594451704E+01  0.35759141814E+02  0.67850910882E+02  0.10000000000E+01 0.  0.
    9000005    1    3    3    0    0 -0.57355878395E+02 -0.58594451704E+01 -0.13239170690E+02  0.59163379930E+02  0.10000000000E+01 0.  0.
<mgrwt>
<rscale>  0 0.12500192E+03</rscale>
<asrwt>0</asrwt>
<pdfrwt beam="2">  1        4 0.80380246E-02 0.12500192E+03</pdfrwt>
<pdfrwt beam="1">  1       -4 0.11502635E-01 0.12500192E+03</pdfrwt>
<totfact> 0.10408383E+04</totfact>
</mgrwt>
</event>
<event>
 4    1  0.3316206E-002  0.1248936E+03  0.7818608E-02  0.1235236E+00
          4   -1    0    0  501    0  0.00000000000E+00  0.00000000000E+00  0.38730705135E+02  0.38751521522E+02  0.12700000000E+01 0.  1.
         -4   -1    0    0    0  501 -0.00000000000E+00 -0.00000000000E+00 -0.10063323668E+03  0.10064125012E+03  0.12700000000E+01 0.  1.
    9000005    1    1    2    0    0  0.52706190677E+02  0.32518985193E+02 -0.22080026883E+02  0.65756783078E+02  0.10000000000E+01 0.  0.
    9000005    1    1    2    0    0 -0.52706190677E+02 -0.32518985193E+02 -0.39822504667E+02  0.73635988563E+02  0.10000000000E+01 0.  0.
<mgrwt>
<rscale>  0 0.12489364E+03</rscale>
<asrwt>0</asrwt>
<pdfrwt beam="1">  1        4 0.59607877E-02 0.12489364E+03</pdfrwt>
<pdfrwt beam="2">  1       -4 0.15484254E-01 0.12489364E+03</pdfrwt>
<totfact> 0.10170539E+04</totfact>
</mgrwt>
</event>
<event>
 5    1  0.3316206E-002  0.1249805E+03  0.7818608E-02  0.1235100E+00
         -4   -1    0    0    0  501 -0.00000000000E+00  0.00000000000E+00  0.81200049198E+02  0.81209980235E+02  0.12700000000E+01 0.  1.
          4   -1    0    0  501    0  0.00000000000E+00 -0.00000000000E+00 -0.48070208699E+02  0.48086982275E+02  0.12700000000E+01 0.  1.
         25    2    1    2    0    0  0.00000000000E+00  0.00000000000E+00  0.33129840499E+02  0.12929696251E+03  0.12498047121E+03 0.  0.
    9000005    1    3    3    0    0  0.48347767391E+02  0.38725089538E+02  0.81037978526E+01  0.62480482641E+02  0.10000000000E+01 0.  0.
    9000005    1    3    3    0    0 -0.48347767391E+02 -0.38725089538E+02  0.25026042647E+02  0.66816479868E+02  0.10000000000E+01 0.  0.
<mgrwt>
<rscale>  0 0.12498047E+03</rscale>
<asrwt>0</asrwt>
<pdfrwt beam="2">  1        4 0.73974710E-02 0.12498047E+03</pdfrwt>
<pdfrwt beam="1">  1       -4 0.12494369E-01 0.12498047E+03</pdfrwt>
<totfact> 0.10364138E+04</totfact>
</mgrwt>
</event>
<event>
 5    1  0.3316206E-002  0.1250003E+03  0.7818608E-02  0.1235069E+00
          4   -1    0    0  501    0  0.00000000000E+00  0.00000000000E+00  0.17970922918E+02  0.18015742297E+02  0.12700000000E+01 0.  1.
         -4   -1    0    0    0  501 -0.00000000000E+00 -0.00000000000E+00 -0.21704870266E+03  0.21705241816E+03  0.12700000000E+01 0.  1.
         25    2    1    2    0    0  0.00000000000E+00  0.00000000000E+00 -0.19907777975E+03  0.23506816045E+03  0.12500031068E+03 0.  0.
    9000005    1    3    3    0    0 -0.14214566092E+02 -0.51006147031E+02 -0.37123395931E+02  0.64674782176E+02  0.10000000000E+01 0.  0.
    9000005    1    3    3    0    0  0.14214566092E+02  0.51006147031E+02 -0.16195438381E+03  0.17039337828E+03  0.10000000000E+01 0.  0.
<mgrwt>
<rscale>  0 0.12500031E+03</rscale>
<asrwt>0</asrwt>
<pdfrwt beam="1">  1        4 0.27684910E-02 0.12500031E+03</pdfrwt>
<pdfrwt beam="2">  1       -4 0.33395840E-01 0.12500031E+03</pdfrwt>
<totfact> 0.84536818E+03</totfact>
</mgrwt>
</event>
<event>
 5    1  0.3316206E-002  0.1250095E+03  0.7818608E-02  0.1235054E+00
         -4   -1    0    0    0  501 -0.00000000000E+00  0.00000000000E+00  0.10666771049E+02  0.10742108946E+02  0.12700000000E+01 0.  1.
          4   -1    0    0  501    0  0.00000000000E+00 -0.00000000000E+00 -0.36489786288E+03  0.36490007294E+03  0.12700000000E+01 0.  1.
         25    2    1    2    0    0  0.00000000000E+00  0.00000000000E+00 -0.35423109183E+03  0.37564218189E+03  0.12500952922E+03 0.  0.
    9000005    1    3    3    0    0  0.47638456941E+02  0.18413132952E+02 -0.28534980773E+03  0.28988614802E+03  0.10000000000E+01 0.  0.
    9000005    1    3    3    0    0 -0.47638456941E+02 -0.18413132952E+02 -0.68881284096E+02  0.85756033861E+02  0.10000000000E+01 0.  0.
<mgrwt>
<rscale>  0 0.12500953E+03</rscale>
<asrwt>0</asrwt>
<pdfrwt beam="2">  1        4 0.56144088E-01 0.12500953E+03</pdfrwt>
<pdfrwt beam="1">  1       -4 0.16470072E-02 0.12500953E+03</pdfrwt>
<totfact> 0.66978658E+03</totfact>
</mgrwt>
</event>
<event>
 5    1  0.3316206E-002  0.1250151E+03  0.7818608E-02  0.1235046E+00
         -4   -1    0    0    0  501 -0.00000000000E+00  0.00000000000E+00  0.60165117953E+03  0.60165251992E+03  0.12700000000E+01 0.  1.
          4   -1    0    0  501    0  0.00000000000E+00 -0.00000000000E+00 -0.64306689407E+01  0.65548762783E+01  0.12700000000E+01 0.  1.
         25    2    1    2    0    0  0.00000000000E+00  0.00000000000E+00  0.59522051059E+03  0.60820739620E+03  0.12501512136E+03 0.  0.
    9000005    1    3    3    0    0  0.12135275320E+01  0.61333123811E+02  0.35578202035E+03  0.36103333742E+03  0.10000000000E+01 0.  0.
    9000005    1    3    3    0    0 -0.12135275320E+01 -0.61333123811E+02  0.23943849023E+03  0.24717405877E+03  0.10000000000E+01 0.  0.
<mgrwt>
<rscale>  0 0.12501512E+03</rscale>
<asrwt>0</asrwt>
<pdfrwt beam="2">  1        4 0.99899150E-03 0.12501512E+03</pdfrwt>
<pdfrwt beam="1">  1       -4 0.92571350E-01 0.12501512E+03</pdfrwt>
<totfact> 0.48337585E+03</totfact>
</mgrwt>
</event>
<event>
 5    1  0.3316206E-002  0.1249982E+03  0.7818608E-02  0.1235072E+00
          4   -1    0    0  501    0  0.00000000000E+00  0.00000000000E+00  0.21095950259E+02  0.21134143402E+02  0.12700000000E+01 0. -1.
         -4   -1    0    0    0  501 -0.00000000000E+00 -0.00000000000E+00 -0.18495276703E+03  0.18495712729E+03  0.12700000000E+01 0. -1.
         25    2    1    2    0    0  0.00000000000E+00  0.00000000000E+00 -0.16385681678E+03  0.20609127069E+03  0.12499822179E+03 0.  0.
    9000005    1    3    3    0    0  0.49760854223E+02  0.34282516510E+01 -0.14399786946E+03  0.15239515061E+03  0.10000000000E+01 0.  0.
    9000005    1    3    3    0    0 -0.49760854223E+02 -0.34282516510E+01 -0.19858947317E+02  0.53696120073E+02  0.10000000000E+01 0.  0.
<mgrwt>
<rscale>  0 0.12499822E+03</rscale>
<asrwt>0</asrwt>
<pdfrwt beam="1">  1        4 0.32488043E-02 0.12499822E+03</pdfrwt>
<pdfrwt beam="2">  1       -4 0.28457544E-01 0.12499822E+03</pdfrwt>
<totfact> 0.89121777E+03</totfact>
</mgrwt>
</event>
<event>
 5    1  0.3316206E-002  0.1250025E+03  0.7818608E-02  0.1235065E+00
         -4   -1    0    0    0  501 -0.00000000000E+00  0.00000000000E+00  0.67800955824E+02  0.67812849156E+02  0.12700000000E+01 0. -1.
          4   -1    0    0  501    0  0.00000000000E+00 -0.00000000000E+00 -0.57591832329E+02  0.57605833481E+02  0.12700000000E+01 0. -1.
         25    2    1    2    0    0  0.00000000000E+00  0.00000000000E+00  0.10209123495E+02  0.12541868264E+03  0.12500247898E+03 0.  0.
    9000005    1    3    3    0    0 -0.51426400195E+01  0.62109738607E+02  0.97393103390E+01  0.63086611432E+02  0.10000000000E+01 0.  0.
    9000005    1    3    3    0    0  0.51426400195E+01 -0.62109738607E+02  0.46981315596E+00  0.62332071204E+02  0.10000000000E+01 0.  0.
<mgrwt>
<rscale>  0 0.12500248E+03</rscale>
<asrwt>0</asrwt>
<pdfrwt beam="2">  1        4 0.88622738E-02 0.12500248E+03</pdfrwt>
<pdfrwt beam="1">  1       -4 0.10432908E-01 0.12500248E+03</pdfrwt>
<totfact> 0.10443169E+04</totfact>
</mgrwt>
</event>
<event>
 5    1  0.3316206E-002  0.1249990E+03  0.7818608E-02  0.1235071E+00
          4   -1    0    0  501    0  0.00000000000E+00  0.00000000000E+00  0.13254664087E+03  0.13255272501E+03  0.12700000000E+01 0. -1.
         -4   -1    0    0    0  501 -0.00000000000E+00 -0.00000000000E+00 -0.29449849543E+02  0.29477220664E+02  0.12700000000E+01 0. -1.
         25    2    1    2    0    0  0.00000000000E+00  0.00000000000E+00  0.10309679133E+03  0.16202994567E+03  0.12499901964E+03 0.  0.
    9000005    1    3    3    0    0 -0.18674420664E+02  0.15483791787E+02  0.12620052998E+03  0.12851480678E+03  0.10000000000E+01 0.  0.
    9000005    1    3    3    0    0  0.18674420664E+02 -0.15483791787E+02 -0.23103738648E+02  0.33515138889E+02  0.10000000000E+01 0.  0.
<mgrwt>
<rscale>  0 0.12499902E+03</rscale>
<asrwt>0</asrwt>
<pdfrwt beam="1">  1        4 0.20394364E-01 0.12499902E+03</pdfrwt>
<pdfrwt beam="2">  1       -4 0.45333197E-02 0.12499902E+03</pdfrwt>
<totfact> 0.96954985E+03</totfact>
</mgrwt>
</event>
<event>
 5    1  0.3316206E-002  0.1249992E+03  0.7818608E-02  0.1235071E+00
          4   -1    0    0  501    0  0.00000000000E+00  0.00000000000E+00  0.19842862761E+03  0.19843269175E+03  0.12700000000E+01 0.  1.
         -4   -1    0    0    0  501 -0.00000000000E+00 -0.00000000000E+00 -0.19660907618E+02  0.19701882864E+02  0.12700000000E+01 0.  1.
         25    2    1    2    0    0  0.00000000000E+00  0.00000000000E+00  0.17876771999E+03  0.21813457462E+03  0.12499917972E+03 0.  0.
    9000005    1    3    3    0    0 -0.35877689569E+02 -0.49300036273E+02  0.65488477774E+02  0.89484316539E+02  0.10000000000E+01 0.  0.
    9000005    1    3    3    0    0  0.35877689569E+02  0.49300036273E+02  0.11327924222E+03  0.12865025808E+03  0.10000000000E+01 0.  0.
<mgrwt>
<rscale>  0 0.12499918E+03</rscale>
<asrwt>0</asrwt>
<pdfrwt beam="1">  1        4 0.30530946E-01 0.12499918E+03</pdfrwt>
<pdfrwt beam="2">  1       -4 0.30282196E-02 0.12499918E+03</pdfrwt>
<totfact> 0.87165989E+03</totfact>
</mgrwt>
</event>
<event>
 5    1  0.3316206E-002  0.1249981E+03  0.7818608E-02  0.1235072E+00
          4   -1    0    0  501    0  0.00000000000E+00  0.00000000000E+00  0.17344460793E+02  0.17390894750E+02  0.12700000000E+01 0. -1.
         -4   -1    0    0    0  501 -0.00000000000E+00 -0.00000000000E+00 -0.22485994521E+03  0.22486353164E+03  0.12700000000E+01 0. -1.
         25    2    1    2    0    0  0.00000000000E+00  0.00000000000E+00 -0.20751548442E+03  0.24225442639E+03  0.12499812331E+03 0.  0.
    9000005    1    3    3    0    0 -0.11849536116E+02  0.25635788690E+02  0.42800551859E+01  0.28581883079E+02  0.10000000000E+01 0.  0.
    9000005    1    3    3    0    0  0.11849536116E+02 -0.25635788690E+02 -0.21179553960E+03  0.21367254331E+03  0.10000000000E+01 0.  0.
<mgrwt>
<rscale>  0 0.12499812E+03</rscale>
<asrwt>0</asrwt>
<pdfrwt beam="1">  1        4 0.26722265E-02 0.12499812E+03</pdfrwt>
<pdfrwt beam="2">  1       -4 0.34597683E-01 0.12499812E+03</pdfrwt>
<totfact> 0.83466244E+03</totfact>
</mgrwt>
</event>
<event>
 5    1  0.3316206E-002  0.1250076E+03  0.7818608E-02  0.1235057E+00
          4   -1    0    0  501    0  0.00000000000E+00  0.00000000000E+00  0.19307522939E+03  0.19307940621E+03  0.12700000000E+01 0.  1.
         -4   -1    0    0    0  501 -0.00000000000E+00 -0.00000000000E+00 -0.20209879162E+02  0.20249743597E+02  0.12700000000E+01 0.  1.
         25    2    1    2    0    0  0.00000000000E+00  0.00000000000E+00  0.17286535022E+03  0.21332914981E+03  0.12500758717E+03 0.  0.
    9000005    1    3    3    0    0 -0.49609014773E+02  0.34245850607E+02  0.58293477430E+02  0.83862757774E+02  0.10000000000E+01 0.  0.
    9000005    1    3    3    0    0  0.49609014773E+02 -0.34245850607E+02  0.11457187279E+03  0.12946639203E+03  0.10000000000E+01 0.  0.
<mgrwt>
<rscale>  0 0.12500759E+03</rscale>
<asrwt>0</asrwt>
<pdfrwt beam="1">  1        4 0.29707269E-01 0.12500759E+03</pdfrwt>
<pdfrwt beam="2">  1       -4 0.31125999E-02 0.12500759E+03</pdfrwt>
<totfact> 0.87920147E+03</totfact>
</mgrwt>
</event>
<event>
 4    1  0.3316206E-002  0.1250801E+03  0.7818608E-02  0.1234944E+00
         -4   -1    0    0    0  501 -0.00000000000E+00  0.00000000000E+00  0.53854851407E+01  0.55332043339E+01  0.12700000000E+01 0.  1.
          4   -1    0    0  501    0  0.00000000000E+00 -0.00000000000E+00 -0.71628563044E+03  0.71628675632E+03  0.12700000000E+01 0.  1.
    9000005    1    1    2    0    0  0.33157372186E+02  0.44459038262E+02 -0.18876885065E+03  0.19675034025E+03  0.10000000000E+01 0.  0.
    9000005    1    1    2    0    0 -0.33157372186E+02 -0.44459038262E+02 -0.52213129465E+03  0.52506962040E+03  0.10000000000E+01 0.  0.
<mgrwt>
<rscale>  0 0.12508013E+03</rscale>
<asrwt>0</asrwt>
<pdfrwt beam="2">  1        4 0.11020916E+00 0.12508013E+03</pdfrwt>
<pdfrwt beam="1">  1       -4 0.83998637E-03 0.12508013E+03</pdfrwt>
<totfact> 0.41886146E+03</totfact>
</mgrwt>
</event>
<event>
 5    1  0.3316206E-002  0.1250033E+03  0.7818608E-02  0.1235064E+00
         -4   -1    0    0    0  501 -0.00000000000E+00  0.00000000000E+00  0.83110219632E+02  0.83119922445E+02  0.12700000000E+01 0.  1.
          4   -1    0    0  501    0  0.00000000000E+00 -0.00000000000E+00 -0.46982318156E+02  0.46999479990E+02  0.12700000000E+01 0.  1.
         25    2    1    2    0    0  0.00000000000E+00  0.00000000000E+00  0.36127901475E+02  0.13011940243E+03  0.12500333446E+03 0.  0.
    9000005    1    3    3    0    0  0.42447089691E+02 -0.33526767192E+02 -0.14516560782E+02  0.56013659749E+02  0.10000000000E+01 0.  0.
    9000005    1    3    3    0    0 -0.42447089691E+02  0.33526767192E+02  0.50644462257E+02  0.74105742685E+02  0.10000000000E+01 0.  0.
<mgrwt>
<rscale>  0 0.12500333E+03</rscale>
<asrwt>0</asrwt>
<pdfrwt beam="2">  1        4 0.72301155E-02 0.12500333E+03</pdfrwt>
<pdfrwt beam="1">  1       -4 0.12788254E-01 0.12500333E+03</pdfrwt>
<totfact> 0.10341176E+04</totfact>
</mgrwt>
</event>
<event>
 5    1  0.3316206E-002  0.1249969E+03  0.7818608E-02  0.1235074E+00
         -4   -1    0    0    0  501 -0.00000000000E+00  0.00000000000E+00  0.57435795328E+02  0.57449834508E+02  0.12700000000E+01 0. -1.
          4   -1    0    0  501    0  0.00000000000E+00 -0.00000000000E+00 -0.67979031844E+02  0.67990894026E+02  0.12700000000E+01 0. -1.
         25    2    1    2    0    0  0.00000000000E+00  0.00000000000E+00 -0.10543236516E+02  0.12544072853E+03  0.12499686612E+03 0.  0.
    9000005    1    3    3    0    0  0.55165616396E+02 -0.14063380268E+02  0.20588670569E+02  0.60546818684E+02  0.10000000000E+01 0.  0.
    9000005    1    3    3    0    0 -0.55165616396E+02  0.14063380268E+02 -0.31131907085E+02  0.64893909850E+02  0.10000000000E+01 0.  0.
<mgrwt>
<rscale>  0 0.12499687E+03</rscale>
<asrwt>0</asrwt>
<pdfrwt beam="2">  1        4 0.10460305E-01 0.12499687E+03</pdfrwt>
<pdfrwt beam="1">  1       -4 0.88382686E-02 0.12499687E+03</pdfrwt>
<totfact> 0.10444003E+04</totfact>
</mgrwt>
</event>
<event>
 5    1  0.3316206E-002  0.1250000E+03  0.7818608E-02  0.1235069E+00
         -4   -1    0    0    0  501 -0.00000000000E+00  0.00000000000E+00  0.31175694265E+02  0.31201551451E+02  0.12700000000E+01 0.  1.
          4   -1    0    0  501    0  0.00000000000E+00 -0.00000000000E+00 -0.12521685265E+03  0.12522329291E+03  0.12700000000E+01 0.  1.
         25    2    1    2    0    0  0.00000000000E+00  0.00000000000E+00 -0.94041158384E+02  0.15642484436E+03  0.12499996985E+03 0.  0.
    9000005    1    3    3    0    0  0.43929296321E+02 -0.22689864214E+02 -0.94846868876E+02  0.10696514175E+03  0.10000000000E+01 0.  0.
    9000005    1    3    3    0    0 -0.43929296321E+02  0.22689864214E+02  0.80571049212E+00  0.49459702614E+02  0.10000000000E+01 0.  0.
<mgrwt>
<rscale>  0 0.12499997E+03</rscale>
<asrwt>0</asrwt>
<pdfrwt beam="2">  1        4 0.19266615E-01 0.12499997E+03</pdfrwt>
<pdfrwt beam="1">  1       -4 0.47987451E-02 0.12499997E+03</pdfrwt>
<totfact> 0.98036575E+03</totfact>
</mgrwt>
</event>
<event>
 5    1  0.3316206E-002  0.1250082E+03  0.7818608E-02  0.1235056E+00
          4   -1    0    0  501    0  0.00000000000E+00  0.00000000000E+00  0.21244176064E+03  0.21244555670E+03  0.12700000000E+01 0.  1.
         -4   -1    0    0    0  501 -0.00000000000E+00 -0.00000000000E+00 -0.18363924596E+02  0.18407787117E+02  0.12700000000E+01 0.  1.
         25    2    1    2    0    0  0.00000000000E+00  0.00000000000E+00  0.19407783604E+03  0.23085334382E+03  0.12500823937E+03 0.  0.
    9000005    1    3    3    0    0 -0.52145779204E+02 -0.34301865933E+02  0.10286839050E+03  0.12032749503E+03  0.10000000000E+01 0.  0.
    9000005    1    3    3    0    0  0.52145779204E+02  0.34301865933E+02  0.91209445539E+02  0.11052584879E+03  0.10000000000E+01 0.  0.
<mgrwt>
<rscale>  0 0.12500824E+03</rscale>
<asrwt>0</asrwt>
<pdfrwt beam="1">  1        4 0.32687015E-01 0.12500824E+03</pdfrwt>
<pdfrwt beam="2">  1       -4 0.28288851E-02 0.12500824E+03</pdfrwt>
<totfact> 0.85163080E+03</totfact>
</mgrwt>
</event>
<event>
 5    1  0.3316206E-002  0.1249996E+03  0.7818608E-02  0.1235070E+00
         -4   -1    0    0    0  501 -0.00000000000E+00  0.00000000000E+00  0.49986452655E+03  0.49986613989E+03  0.12700000000E+01 0. -1.
          4   -1    0    0  501    0  0.00000000000E+00 -0.00000000000E+00 -0.77613352515E+01  0.78645549706E+01  0.12700000000E+01 0. -1.
         25    2    1    2    0    0  0.00000000000E+00  0.00000000000E+00  0.49210319130E+03  0.50773069486E+03  0.12499963045E+03 0.  0.
    9000005    1    3    3    0    0 -0.45475809053E+02  0.19191229112E+02  0.90377258864E+02  0.10298252960E+03  0.10000000000E+01 0.  0.
    9000005    1    3    3    0    0  0.45475809053E+02 -0.19191229112E+02  0.40172593244E+03  0.40474816525E+03  0.10000000000E+01 0.  0.
<mgrwt>
<rscale>  0 0.12499963E+03</rscale>
<asrwt>0</asrwt>
<pdfrwt beam="2">  1        4 0.12021155E-02 0.12499963E+03</pdfrwt>
<pdfrwt beam="1">  1       -4 0.76910310E-01 0.12499963E+03</pdfrwt>
<totfact> 0.55269952E+03</totfact>
</mgrwt>
</event>
<event>
 5    1  0.3316206E-002  0.1250008E+03  0.7818608E-02  0.1235068E+00
         -4   -1    0    0    0  501 -0.00000000000E+00  0.00000000000E+00  0.42532904503E+02  0.42551860893E+02  0.12700000000E+01 0.  1.
          4   -1    0    0  501    0  0.00000000000E+00 -0.00000000000E+00 -0.91798039750E+02  0.91806824376E+02  0.12700000000E+01 0.  1.
         25    2    1    2    0    0  0.00000000000E+00  0.00000000000E+00 -0.49265135247E+02  0.13435868527E+03  0.12500081102E+03 0.  0.
    9000005    1    3    3    0    0  0.14320841540E+02  0.60829371644E+02 -0.24587834359E+02  0.67162940343E+02  0.10000000000E+01 0.  0.
    9000005    1    3    3    0    0 -0.14320841540E+02 -0.60829371644E+02 -0.24677300889E+02  0.67195744926E+02  0.10000000000E+01 0.  0.
<mgrwt>
<rscale>  0 0.12500081E+03</rscale>
<asrwt>0</asrwt>
<pdfrwt beam="2">  1        4 0.14124909E-01 0.12500081E+03</pdfrwt>
<pdfrwt beam="1">  1       -4 0.65456577E-02 0.12500081E+03</pdfrwt>
<totfact> 0.10251418E+04</totfact>
</mgrwt>
</event>
<event>
 5    1  0.3316206E-002  0.1249991E+03  0.7818608E-02  0.1235071E+00
          4   -1    0    0  501    0  0.00000000000E+00  0.00000000000E+00  0.73650366287E+01  0.74737316344E+01  0.12700000000E+01 0. -1.
         -4   -1    0    0    0  501 -0.00000000000E+00 -0.00000000000E+00 -0.52637537739E+03  0.52637690947E+03  0.12700000000E+01 0. -1.
         25    2    1    2    0    0  0.00000000000E+00  0.00000000000E+00 -0.51901034076E+03  0.53385064110E+03  0.12499909276E+03 0.  0.
    9000005    1    3    3    0    0 -0.50059525876E+02 -0.33828420768E+02 -0.32768825186E+03  0.33321300784E+03  0.10000000000E+01 0.  0.
    9000005    1    3    3    0    0  0.50059525876E+02  0.33828420768E+02 -0.19132208890E+03  0.20063763326E+03  0.10000000000E+01 0.  0.
<mgrwt>
<rscale>  0 0.12499909E+03</rscale>
<asrwt>0</asrwt>
<pdfrwt beam="1">  1        4 0.11415620E-02 0.12499909E+03</pdfrwt>
<pdfrwt beam="2">  1       -4 0.80989277E-01 0.12499909E+03</pdfrwt>
<totfact> 0.53331486E+03</totfact>
</mgrwt>
</event>
<event>
 5    1  0.3316206E-002  0.1249984E+03  0.7818608E-02  0.1235072E+00
          4   -1    0    0  501    0  0.00000000000E+00  0.00000000000E+00  0.10888859331E+02  0.10962671095E+02  0.12700000000E+01 0. -1.
         -4   -1    0    0    0  501 -0.00000000000E+00 -0.00000000000E+00 -0.35744262117E+03  0.35744487732E+03  0.12700000000E+01 0. -1.
         25    2    1    2    0    0  0.00000000000E+00  0.00000000000E+00 -0.34655376183E+03  0.36840754842E+03  0.12499844755E+03 0.  0.
    9000005    1    3    3    0    0 -0.22837560652E+02  0.24933816725E+02 -0.18385177030E+02  0.38500183473E+02  0.10000000000E+01 0.  0.
    9000005    1    3    3    0    0  0.22837560652E+02 -0.24933816725E+02 -0.32816858481E+03  0.32990736495E+03  0.10000000000E+01 0.  0.
<mgrwt>
<rscale>  0 0.12499845E+03</rscale>
<asrwt>0</asrwt>
<pdfrwt beam="1">  1        4 0.16810608E-02 0.12499845E+03</pdfrwt>
<pdfrwt beam="2">  1       -4 0.54997015E-01 0.12499845E+03</pdfrwt>
<totfact> 0.67748196E+03</totfact>
</mgrwt>
</event>
<event>
 5    1  0.3316206E-002  0.1249993E+03  0.7818608E-02  0.1235070E+00
          4   -1    0    0  501    0  0.00000000000E+00  0.00000000000E+00  0.18539587590E+02  0.18583035490E+02  0.12700000000E+01 0.  1.
         -4   -1    0    0    0  501 -0.00000000000E+00 -0.00000000000E+00 -0.21040345797E+03  0.21040729081E+03  0.12700000000E+01 0.  1.
         25    2    1    2    0    0  0.00000000000E+00  0.00000000000E+00 -0.19186387038E+03  0.22899032630E+03  0.12499929912E+03 0.  0.
    9000005    1    3    3    0    0  0.45603185752E+02  0.42719933733E+02 -0.94557489306E+02  0.11334355770E+03  0.10000000000E+01 0.  0.
    9000005    1    3    3    0    0 -0.45603185752E+02 -0.42719933733E+02 -0.97306381071E+02  0.11564676859E+03  0.10000000000E+01 0.  0.
<mgrwt>
<rscale>  0 0.12499930E+03</rscale>
<asrwt>0</asrwt>
<pdfrwt beam="1">  1        4 0.28558814E-02 0.12499930E+03</pdfrwt>
<pdfrwt beam="2">  1       -4 0.32373398E-01 0.12499930E+03</pdfrwt>
<totfact> 0.85466212E+03</totfact>
</mgrwt>
</event>
<event>
 5    1  0.3316206E-002  0.1249989E+03  0.7818608E-02  0.1235071E+00
          4   -1    0    0  501    0  0.00000000000E+00  0.00000000000E+00  0.30729302009E+03  0.30729564445E+03  0.12700000000E+01 0.  1.
         -4   -1    0    0    0  501 -0.00000000000E+00 -0.00000000000E+00 -0.12677173968E+02  0.12740629490E+02  0.12700000000E+01 0.  1.
         25    2    1    2    0    0  0.00000000000E+00  0.00000000000E+00  0.29461584612E+03  0.32003627394E+03  0.12499887939E+03 0.  0.
    9000005    1    3    3    0    0 -0.11047318754E+02  0.57219698194E+02  0.89542194342E+02  0.10684073044E+03  0.10000000000E+01 0.  0.
    9000005    1    3    3    0    0  0.11047318754E+02 -0.57219698194E+02  0.20507365178E+03  0.21319554350E+03  0.10000000000E+01 0.  0.
<mgrwt>
<rscale>  0 0.12499888E+03</rscale>
<asrwt>0</asrwt>
<pdfrwt beam="1">  1        4 0.47280930E-01 0.12499888E+03</pdfrwt>
<pdfrwt beam="2">  1       -4 0.19554176E-02 0.12499888E+03</pdfrwt>
<totfact> 0.73153628E+03</totfact>
</mgrwt>
</event>
<event>
 5    1  0.3316206E-002  0.1250020E+03  0.7818608E-02  0.1235066E+00
         -4   -1    0    0    0  501 -0.00000000000E+00  0.00000000000E+00  0.35573097068E+02  0.35595760070E+02  0.12700000000E+01 0.  1.
          4   -1    0    0  501    0  0.00000000000E+00 -0.00000000000E+00 -0.10975136725E+03  0.10975871498E+03  0.12700000000E+01 0.  1.
         25    2    1    2    0    0  0.00000000000E+00  0.00000000000E+00 -0.74178270182E+02  0.14535447505E+03  0.12500203058E+03 0.  0.
    9000005    1    3    3    0    0  0.48154688167E+02  0.35100776366E+02 -0.58980948302E+02  0.83849214406E+02  0.10000000000E+01 0.  0.
    9000005    1    3    3    0    0 -0.48154688167E+02 -0.35100776366E+02 -0.15197321880E+02  0.61505260639E+02  0.10000000000E+01 0.  0.
<mgrwt>
<rscale>  0 0.12500203E+03</rscale>
<asrwt>0</asrwt>
<pdfrwt beam="2">  1        4 0.16887134E-01 0.12500203E+03</pdfrwt>
<pdfrwt beam="1">  1       -4 0.54750927E-02 0.12500203E+03</pdfrwt>
<totfact> 0.10023333E+04</totfact>
</mgrwt>
</event>
<event>
 5    1  0.3316206E-002  0.1250125E+03  0.7818608E-02  0.1235050E+00
         -4   -1    0    0    0  501 -0.00000000000E+00  0.00000000000E+00  0.65391705437E+02  0.65404036878E+02  0.12700000000E+01 0.  1.
          4   -1    0    0  501    0  0.00000000000E+00 -0.00000000000E+00 -0.59723365842E+02  0.59736867406E+02  0.12700000000E+01 0.  1.
         25    2    1    2    0    0  0.00000000000E+00  0.00000000000E+00  0.56683395955E+01  0.12514090428E+03  0.12501246278E+03 0.  0.
    9000005    1    3    3    0    0  0.25688799417E+02 -0.56904364467E+02  0.14475421613E-02  0.62442142124E+02  0.10000000000E+01 0.  0.
    9000005    1    3    3    0    0 -0.25688799417E+02  0.56904364467E+02  0.56668920533E+01  0.62698762160E+02  0.10000000000E+01 0.  0.
<mgrwt>
<rscale>  0 0.12501246E+03</rscale>
<asrwt>0</asrwt>
<pdfrwt beam="2">  1        4 0.91901973E-02 0.12501246E+03</pdfrwt>
<pdfrwt beam="1">  1       -4 0.10062249E-01 0.12501246E+03</pdfrwt>
<totfact> 0.10446860E+04</totfact>
</mgrwt>
</event>
<event>
 5    1  0.3316206E-002  0.1250034E+03  0.7818608E-02  0.1235064E+00
         -4   -1    0    0    0  501 -0.00000000000E+00  0.00000000000E+00  0.35831137649E+02  0.35853637545E+02  0.12700000000E+01 0. -1.
          4   -1    0    0  501    0  0.00000000000E+00 -0.00000000000E+00 -0.10896385703E+03  0.10897125786E+03  0.12700000000E+01 0. -1.
         25    2    1    2    0    0  0.00000000000E+00  0.00000000000E+00 -0.73132719386E+02  0.14482489541E+03  0.12500342269E+03 0.  0.
    9000005    1    3    3    0    0 -0.33539721443E+02 -0.44577985488E+02 -0.39335185989E+01  0.55933731086E+02  0.10000000000E+01 0.  0.
    9000005    1    3    3    0    0  0.33539721443E+02  0.44577985488E+02 -0.69199200787E+02  0.88891164320E+02  0.10000000000E+01 0.  0.
<mgrwt>
<rscale>  0 0.12500342E+03</rscale>
<asrwt>0</asrwt>
<pdfrwt beam="2">  1        4 0.16765970E-01 0.12500342E+03</pdfrwt>
<pdfrwt beam="1">  1       -4 0.55147828E-02 0.12500342E+03</pdfrwt>
<totfact> 0.10033774E+04</totfact>
</mgrwt>
</event>
<event>
 5    1  0.3316206E-002  0.1250053E+03  0.7818608E-02  0.1235061E+00
          4   -1    0    0  501    0  0.00000000000E+00  0.00000000000E+00  0.18383745698E+02  0.18427561040E+02  0.12700000000E+01 0. -1.
         -4   -1    0    0    0  501 -0.00000000000E+00 -0.00000000000E+00 -0.21220327339E+03  0.21220707372E+03  0.12700000000E+01 0. -1.
         25    2    1    2    0    0  0.00000000000E+00  0.00000000000E+00 -0.19381952770E+03  0.23063463476E+03  0.12500530164E+03 0.  0.
    9000005    1    3    3    0    0 -0.15270553636E+02  0.91996310852E+01 -0.20742131771E+03  0.20818843883E+03  0.10000000000E+01 0.  0.
    9000005    1    3    3    0    0  0.15270553636E+02 -0.91996310852E+01  0.13601790015E+02  0.22446195937E+02  0.10000000000E+01 0.  0.
<mgrwt>
<rscale>  0 0.12500530E+03</rscale>
<asrwt>0</asrwt>
<pdfrwt beam="1">  1        4 0.28319315E-02 0.12500530E+03</pdfrwt>
<pdfrwt beam="2">  1       -4 0.32650319E-01 0.12500530E+03</pdfrwt>
<totfact> 0.85202166E+03</totfact>
</mgrwt>
</event>
<event>
 5    1  0.3316206E-002  0.1250009E+03  0.7818608E-02  0.1235068E+00
         -4   -1    0    0    0  501 -0.00000000000E+00  0.00000000000E+00  0.11053009288E+02  0.11125732080E+02  0.12700000000E+01 0.  1.
          4   -1    0    0  501    0  0.00000000000E+00 -0.00000000000E+00 -0.35218316664E+03  0.35218545649E+03  0.12700000000E+01 0.  1.
         25    2    1    2    0    0  0.00000000000E+00  0.00000000000E+00 -0.34113015735E+03  0.36331118857E+03  0.12500094194E+03 0.  0.
    9000005    1    3    3    0    0  0.24278737359E+01 -0.42979438658E+02 -0.38899139822E+02  0.58028181060E+02  0.10000000000E+01 0.  0.
    9000005    1    3    3    0    0 -0.24278737359E+01  0.42979438658E+02 -0.30223101753E+03  0.30528300751E+03  0.10000000000E+01 0.  0.
<mgrwt>
<rscale>  0 0.12500094E+03</rscale>
<asrwt>0</asrwt>
<pdfrwt beam="2">  1        4 0.54187787E-01 0.12500094E+03</pdfrwt>
<pdfrwt beam="1">  1       -4 0.17062334E-02 0.12500094E+03</pdfrwt>
<totfact> 0.68283148E+03</totfact>
</mgrwt>
</event>
<event>
 5    1  0.3316206E-002  0.1249984E+03  0.7818608E-02  0.1235072E+00
          4   -1    0    0  501    0  0.00000000000E+00  0.00000000000E+00  0.75629852203E+01  0.76688751093E+01  0.12700000000E+01 0.  1.
         -4   -1    0    0    0  501 -0.00000000000E+00 -0.00000000000E+00 -0.51278507694E+03  0.51278664962E+03  0.12700000000E+01 0.  1.
         25    2    1    2    0    0  0.00000000000E+00  0.00000000000E+00 -0.50522209172E+03  0.52045552473E+03  0.12499836504E+03 0.  0.
    9000005    1    3    3    0    0  0.55529783718E+02 -0.12140717508E+02 -0.36072249893E+03  0.36517485556E+03  0.10000000000E+01 0.  0.
    9000005    1    3    3    0    0 -0.55529783718E+02  0.12140717508E+02 -0.14449959279E+03  0.15528066917E+03  0.10000000000E+01 0.  0.
<mgrwt>
<rscale>  0 0.12499837E+03</rscale>
<asrwt>0</asrwt>
<pdfrwt beam="1">  1        4 0.11718029E-02 0.12499837E+03</pdfrwt>
<pdfrwt beam="2">  1       -4 0.78898251E-01 0.12499837E+03</pdfrwt>
<totfact> 0.54313442E+03</totfact>
</mgrwt>
</event>
<event>
 5    1  0.3316206E-002  0.1250031E+03  0.7818608E-02  0.1235064E+00
         -4   -1    0    0    0  501 -0.00000000000E+00  0.00000000000E+00  0.41624432130E+03  0.41624625874E+03  0.12700000000E+01 0. -1.
          4   -1    0    0  501    0  0.00000000000E+00 -0.00000000000E+00 -0.93400410538E+01  0.94259889076E+01  0.12700000000E+01 0. -1.
         25    2    1    2    0    0  0.00000000000E+00  0.00000000000E+00  0.40690428025E+03  0.42567224765E+03  0.12500307650E+03 0.  0.
    9000005    1    3    3    0    0  0.17047513895E+02 -0.57580560048E+02  0.14453920678E+03  0.15652067251E+03  0.10000000000E+01 0.  0.
    9000005    1    3    3    0    0 -0.17047513895E+02  0.57580560048E+02  0.26236507347E+03  0.26915157514E+03  0.10000000000E+01 0.  0.
<mgrwt>
<rscale>  0 0.12500308E+03</rscale>
<asrwt>0</asrwt>
<pdfrwt beam="2">  1        4 0.14436899E-02 0.12500308E+03</pdfrwt>
<pdfrwt beam="1">  1       -4 0.64044343E-01 0.12500308E+03</pdfrwt>
<totfact> 0.62126030E+03</totfact>
</mgrwt>
</event>
<event>
 5    1  0.3316206E-002  0.1249984E+03  0.7818608E-02  0.1235072E+00
          4   -1    0    0  501    0  0.00000000000E+00  0.00000000000E+00  0.64613647375E+02  0.64626127279E+02  0.12700000000E+01 0. -1.
         -4   -1    0    0    0  501 -0.00000000000E+00 -0.00000000000E+00 -0.60428956469E+02  0.60442300419E+02  0.12700000000E+01 0. -1.
         25    2    1    2    0    0  0.00000000000E+00  0.00000000000E+00  0.41846909066E+01  0.12506842770E+03  0.12499839987E+03 0.  0.
    9000005    1    3    3    0    0  0.24400414167E+02  0.22427745323E+02  0.55100946354E+02  0.64307839809E+02  0.10000000000E+01 0.  0.
    9000005    1    3    3    0    0 -0.24400414167E+02 -0.22427745323E+02 -0.50916255447E+02  0.60760587889E+02  0.10000000000E+01 0.  0.
<mgrwt>
<rscale>  0 0.12499840E+03</rscale>
<asrwt>0</asrwt>
<pdfrwt beam="1">  1        4 0.99425476E-02 0.12499840E+03</pdfrwt>
<pdfrwt beam="2">  1       -4 0.92987490E-02 0.12499840E+03</pdfrwt>
<totfact> 0.10451755E+04</totfact>
</mgrwt>
</event>
<event>
 5    1  0.3316206E-002  0.1249936E+03  0.7818608E-02  0.1235079E+00
          4   -1    0    0  501    0  0.00000000000E+00  0.00000000000E+00  0.25394195046E+03  0.25394512616E+03  0.12700000000E+01 0. -1.
         -4   -1    0    0    0  501 -0.00000000000E+00 -0.00000000000E+00 -0.15351381582E+02  0.15403824735E+02  0.12700000000E+01 0. -1.
         25    2    1    2    0    0  0.00000000000E+00  0.00000000000E+00  0.23859056888E+03  0.26934895090E+03  0.12499359101E+03 0.  0.
    9000005    1    3    3    0    0  0.31971751030E+02 -0.52658113596E+02  0.14187344088E+03  0.15467431273E+03  0.10000000000E+01 0.  0.
    9000005    1    3    3    0    0 -0.31971751030E+02  0.52658113596E+02  0.96717127992E+02  0.11467463817E+03  0.10000000000E+01 0.  0.
<mgrwt>
<rscale>  0 0.12499359E+03</rscale>
<asrwt>0</asrwt>
<pdfrwt beam="1">  1        4 0.39072265E-01 0.12499359E+03</pdfrwt>
<pdfrwt beam="2">  1       -4 0.23660297E-02 0.12499359E+03</pdfrwt>
<totfact> 0.79623065E+03</totfact>
</mgrwt>
</event>
<event>
 5    1  0.3316206E-002  0.1250133E+03  0.7818608E-02  0.1235049E+00
          4   -1    0    0  501    0  0.00000000000E+00  0.00000000000E+00  0.19146844060E+01  0.22975892528E+01  0.12700000000E+01 0.  1.
         -4   -1    0    0    0  501 -0.00000000000E+00 -0.00000000000E+00 -0.18547097964E+04  0.18547102312E+04  0.12700000000E+01 0.  1.
         25    2    1    2    0    0  0.00000000000E+00  0.00000000000E+00 -0.18527951120E+04  0.18570078204E+04  0.12501327225E+03 0.  0.
    9000005    1    3    3    0    0  0.21831884668E+01  0.12837607846E+02 -0.18344075533E+04  0.18344540446E+04  0.10000000000E+01 0.  0.
    9000005    1    3    3    0    0 -0.21831884668E+01 -0.12837607846E+02 -0.18387558724E+02  0.22553775802E+02  0.10000000000E+01 0.  0.
<mgrwt>
<rscale>  0 0.12501327E+03</rscale>
<asrwt>0</asrwt>
<pdfrwt beam="1">  1        4 0.32405598E-03 0.12501327E+03</pdfrwt>
<pdfrwt beam="2">  1       -4 0.28536815E+00 0.12501327E+03</pdfrwt>
<totfact> 0.11841909E+03</totfact>
</mgrwt>
</event>
<event>
 5    1  0.3316206E-002  0.1249993E+03  0.7818608E-02  0.1235070E+00
         -4   -1    0    0    0  501 -0.00000000000E+00  0.00000000000E+00  0.46720229540E+01  0.48415595094E+01  0.12700000000E+01 0.  1.
          4   -1    0    0  501    0  0.00000000000E+00 -0.00000000000E+00 -0.82101525065E+03  0.82101623291E+03  0.12700000000E+01 0.  1.
         25    2    1    2    0    0  0.00000000000E+00  0.00000000000E+00 -0.81634322770E+03  0.82585779242E+03  0.12499931157E+03 0.  0.
    9000005    1    3    3    0    0 -0.50113383437E+02  0.19105080317E+02 -0.19625059400E+03  0.20344938176E+03  0.10000000000E+01 0.  0.
    9000005    1    3    3    0    0  0.50113383437E+02 -0.19105080317E+02 -0.62009263370E+03  0.62240841066E+03  0.10000000000E+01 0.  0.
<mgrwt>
<rscale>  0 0.12499931E+03</rscale>
<asrwt>0</asrwt>
<pdfrwt beam="2">  1        4 0.12632304E+00 0.12499931E+03</pdfrwt>
<pdfrwt beam="1">  1       -4 0.73189025E-03 0.12499931E+03</pdfrwt>
<totfact> 0.37136690E+03</totfact>
</mgrwt>
</event>
<event>
 5    1  0.3316206E-002  0.1250039E+03  0.7818608E-02  0.1235063E+00
         -4   -1    0    0    0  501 -0.00000000000E+00  0.00000000000E+00  0.73512540931E+02  0.73523510350E+02  0.12700000000E+01 0.  1.
          4   -1    0    0  501    0  0.00000000000E+00 -0.00000000000E+00 -0.53117964254E+02  0.53133144331E+02  0.12700000000E+01 0.  1.
         25    2    1    2    0    0  0.00000000000E+00  0.00000000000E+00  0.20394576677E+02  0.12665665468E+03  0.12500387761E+03 0.  0.
    9000005    1    3    3    0    0 -0.91123903135E+01 -0.57756948808E+02  0.32547766283E+02  0.66927258146E+02  0.10000000000E+01 0.  0.
    9000005    1    3    3    0    0  0.91123903135E+01  0.57756948808E+02 -0.12153189607E+02  0.59729396535E+02  0.10000000000E+01 0.  0.
<mgrwt>
<rscale>  0 0.12500388E+03</rscale>
<asrwt>0</asrwt>
<pdfrwt beam="2">  1        4 0.81740060E-02 0.12500388E+03</pdfrwt>
<pdfrwt beam="1">  1       -4 0.11311633E-01 0.12500388E+03</pdfrwt>
<totfact> 0.10415702E+04</totfact>
</mgrwt>
</event>
<event>
 5    1  0.3316206E-002  0.1249994E+03  0.7818608E-02  0.1235070E+00
         -4   -1    0    0    0  501 -0.00000000000E+00  0.00000000000E+00  0.44331434355E+03  0.44331616269E+03  0.12700000000E+01 0. -1.
          4   -1    0    0  501    0  0.00000000000E+00 -0.00000000000E+00 -0.87637742002E+01  0.88553169470E+01  0.12700000000E+01 0. -1.
         25    2    1    2    0    0  0.00000000000E+00  0.00000000000E+00  0.43455056935E+03  0.45217147964E+03  0.12499939868E+03 0.  0.
    9000005    1    3    3    0    0 -0.44491495035E+02  0.36552424872E+02  0.12943605158E+03  0.14166956040E+03  0.10000000000E+01 0.  0.
    9000005    1    3    3    0    0  0.44491495035E+02 -0.36552424872E+02  0.30511451777E+03  0.31050191924E+03  0.10000000000E+01 0.  0.
<mgrwt>
<rscale>  0 0.12499940E+03</rscale>
<asrwt>0</asrwt>
<pdfrwt beam="2">  1        4 0.13554546E-02 0.12499940E+03</pdfrwt>
<pdfrwt beam="1">  1       -4 0.68209388E-01 0.12499940E+03</pdfrwt>
<totfact> 0.59776930E+03</totfact>
</mgrwt>
</event>
<event>
 5    1  0.3316206E-002  0.1249997E+03  0.7818608E-02  0.1235070E+00
          4   -1    0    0  501    0  0.00000000000E+00  0.00000000000E+00  0.80403142408E+01  0.81399971186E+01  0.12700000000E+01 0.  1.
         -4   -1    0    0    0  501 -0.00000000000E+00 -0.00000000000E+00 -0.48273720981E+03  0.48273888039E+03  0.12700000000E+01 0.  1.
         25    2    1    2    0    0  0.00000000000E+00  0.00000000000E+00 -0.47469689557E+03  0.49087887750E+03  0.12499971886E+03 0.  0.
    9000005    1    3    3    0    0  0.45233459630E+02 -0.17493895310E+02 -0.39211219582E+03  0.39510134947E+03  0.10000000000E+01 0.  0.
    9000005    1    3    3    0    0 -0.45233459630E+02  0.17493895310E+02 -0.82584699747E+02  0.95777528030E+02  0.10000000000E+01 0.  0.
<mgrwt>
<rscale>  0 0.12499972E+03</rscale>
<asrwt>0</asrwt>
<pdfrwt beam="1">  1        4 0.12447682E-02 0.12499972E+03</pdfrwt>
<pdfrwt beam="2">  1       -4 0.74275037E-01 0.12499972E+03</pdfrwt>
<totfact> 0.56579423E+03</totfact>
</mgrwt>
</event>
<event>
 5    1  0.3316206E-002  0.1250037E+03  0.7818608E-02  0.1235063E+00
          4   -1    0    0  501    0  0.00000000000E+00  0.00000000000E+00  0.13327791675E+04  0.13327797726E+04  0.12700000000E+01 0. -1.
         -4   -1    0    0    0  501 -0.00000000000E+00 -0.00000000000E+00 -0.27928784038E+01  0.30680726488E+01  0.12700000000E+01 0. -1.
         25    2    1    2    0    0  0.00000000000E+00  0.00000000000E+00  0.13299862891E+04  0.13358478452E+04  0.12500374571E+03 0.  0.
    9000005    1    3    3    0    0 -0.14317706843E+02  0.50688109569E+02  0.10244147901E+04  0.10257684647E+04  0.10000000000E+01 0.  0.
    9000005    1    3    3    0    0  0.14317706843E+02 -0.50688109569E+02  0.30557149905E+03  0.31007938050E+03  0.10000000000E+01 0.  0.
<mgrwt>
<rscale>  0 0.12500375E+03</rscale>
<asrwt>0</asrwt>
<pdfrwt beam="1">  1        4 0.20506466E+00 0.12500375E+03</pdfrwt>
<pdfrwt beam="2">  1       -4 0.45088784E-03 0.12500375E+03</pdfrwt>
<totfact> 0.21396100E+03</totfact>
</mgrwt>
</event>
<event>
 5    1  0.3316206E-002  0.1249991E+03  0.7818608E-02  0.1235071E+00
          4   -1    0    0  501    0  0.00000000000E+00  0.00000000000E+00  0.76110920666E+02  0.76121515649E+02  0.12700000000E+01 0. -1.
         -4   -1    0    0    0  501 -0.00000000000E+00 -0.00000000000E+00 -0.51300354369E+02  0.51316072126E+02  0.12700000000E+01 0. -1.
         25    2    1    2    0    0  0.00000000000E+00  0.00000000000E+00  0.24810566297E+02  0.12743758777E+03  0.12499909831E+03 0.  0.
    9000005    1    3    3    0    0 -0.55384409446E+02 -0.18223064183E+02  0.35331314391E+02  0.68182216556E+02  0.10000000000E+01 0.  0.
    9000005    1    3    3    0    0  0.55384409446E+02  0.18223064183E+02 -0.10520748094E+02  0.59255371219E+02  0.10000000000E+01 0.  0.
<mgrwt>
<rscale>  0 0.12499910E+03</rscale>
<asrwt>0</asrwt>
<pdfrwt beam="1">  1        4 0.11711396E-01 0.12499910E+03</pdfrwt>
<pdfrwt beam="2">  1       -4 0.78943863E-02 0.12499910E+03</pdfrwt>
<totfact> 0.10399864E+04</totfact>
</mgrwt>
</event>
<event>
 5    1  0.3316206E-002  0.1249991E+03  0.7818608E-02  0.1235071E+00
         -4   -1    0    0    0  501 -0.00000000000E+00  0.00000000000E+00  0.48694130835E+03  0.48694296450E+03  0.12700000000E+01 0. -1.
          4   -1    0    0  501    0  0.00000000000E+00 -0.00000000000E+00 -0.79699506203E+01  0.80705026417E+01  0.12700000000E+01 0. -1.
         25    2    1    2    0    0  0.00000000000E+00  0.00000000000E+00  0.47897135773E+03  0.49501346714E+03  0.12499908451E+03 0.  0.
    9000005    1    3    3    0    0 -0.30549700291E+02  0.52837276145E+02  0.18633556202E+03  0.19607907490E+03  0.10000000000E+01 0.  0.
    9000005    1    3    3    0    0  0.30549700291E+02 -0.52837276145E+02  0.29263579570E+03  0.29893439224E+03  0.10000000000E+01 0.  0.
<mgrwt>
<rscale>  0 0.12499908E+03</rscale>
<asrwt>0</asrwt>
<pdfrwt beam="2">  1        4 0.12340079E-02 0.12499908E+03</pdfrwt>
<pdfrwt beam="1">  1       -4 0.74921941E-01 0.12499908E+03</pdfrwt>
<totfact> 0.56254462E+03</totfact>
</mgrwt>
</event>
<event>
 5    1  0.3316206E-002  0.1249995E+03  0.7818608E-02  0.1235070E+00
         -4   -1    0    0    0  501 -0.00000000000E+00  0.00000000000E+00  0.32887872268E+02  0.32912384330E+02  0.12700000000E+01 0.  1.
          4   -1    0    0  501    0  0.00000000000E+00 -0.00000000000E+00 -0.11870168860E+03  0.11870848233E+03  0.12700000000E+01 0.  1.
         25    2    1    2    0    0  0.00000000000E+00  0.00000000000E+00 -0.85813816331E+02  0.15162086666E+03  0.12499950453E+03 0.  0.
    9000005    1    3    3    0    0 -0.23767985207E+02  0.49772962263E+02 -0.72745519429E+01  0.55643364377E+02  0.10000000000E+01 0.  0.
    9000005    1    3    3    0    0  0.23767985207E+02 -0.49772962263E+02 -0.78539264388E+02  0.95977502280E+02  0.10000000000E+01 0.  0.
<mgrwt>
<rscale>  0 0.12499950E+03</rscale>
<asrwt>0</asrwt>
<pdfrwt beam="2">  1        4 0.18264206E-01 0.12499950E+03</pdfrwt>
<pdfrwt beam="1">  1       -4 0.50620809E-02 0.12499950E+03</pdfrwt>
<totfact> 0.98982683E+03</totfact>
</mgrwt>
</event>
<event>
 5    1  0.3316206E-002  0.1249975E+03  0.7818608E-02  0.1235073E+00
         -4   -1    0    0    0  501 -0.00000000000E+00  0.00000000000E+00  0.25223910193E+03  0.25224229907E+03  0.12700000000E+01 0.  1.
          4   -1    0    0  501    0  0.00000000000E+00 -0.00000000000E+00 -0.15456342523E+02  0.15508430746E+02  0.12700000000E+01 0.  1.
         25    2    1    2    0    0  0.00000000000E+00  0.00000000000E+00  0.23678275940E+03  0.26775072982E+03  0.12499751264E+03 0.  0.
    9000005    1    3    3    0    0 -0.69437160747E+01  0.59682685138E+02  0.15517331734E+03  0.16640311449E+03  0.10000000000E+01 0.  0.
    9000005    1    3    3    0    0  0.69437160747E+01 -0.59682685138E+02  0.81609442065E+02  0.10134761533E+03  0.10000000000E+01 0.  0.
<mgrwt>
<rscale>  0 0.12499751E+03</rscale>
<asrwt>0</asrwt>
<pdfrwt beam="2">  1        4 0.23821515E-02 0.12499751E+03</pdfrwt>
<pdfrwt beam="1">  1       -4 0.38810269E-01 0.12499751E+03</pdfrwt>
<totfact> 0.79834928E+03</totfact>
</mgrwt>
</event>
<event>
 5    1  0.3316206E-002  0.1249976E+03  0.7818608E-02  0.1235073E+00
          4   -1    0    0  501    0  0.00000000000E+00  0.00000000000E+00  0.40929132659E+03  0.40929329694E+03  0.12700000000E+01 0.  1.
         -4   -1    0    0    0  501 -0.00000000000E+00 -0.00000000000E+00 -0.94993111683E+01  0.95838307932E+01  0.12700000000E+01 0.  1.
         25    2    1    2    0    0  0.00000000000E+00  0.00000000000E+00  0.39979201542E+03  0.41887712773E+03  0.12499757016E+03 0.  0.
    9000005    1    3    3    0    0 -0.20915177305E+02  0.56894992291E+02  0.25078540359E+03  0.25800930883E+03  0.10000000000E+01 0.  0.
    9000005    1    3    3    0    0  0.20915177305E+02 -0.56894992291E+02  0.14900661183E+03  0.16086781890E+03  0.10000000000E+01 0.  0.
<mgrwt>
<rscale>  0 0.12499757E+03</rscale>
<asrwt>0</asrwt>
<pdfrwt beam="1">  1        4 0.62974538E-01 0.12499757E+03</pdfrwt>
<pdfrwt beam="2">  1       -4 0.14680858E-02 0.12499757E+03</pdfrwt>
<totfact> 0.62760686E+03</totfact>
</mgrwt>
</event>
<event>
 5    1  0.3316206E-002  0.1249916E+03  0.7818608E-02  0.1235082E+00
          4   -1    0    0  501    0  0.00000000000E+00  0.00000000000E+00  0.60267549001E+03  0.60267682812E+03  0.12700000000E+01 0. -1.
         -4   -1    0    0    0  501 -0.00000000000E+00 -0.00000000000E+00 -0.64170654312E+01  0.65415310707E+01  0.12700000000E+01 0. -1.
         25    2    1    2    0    0  0.00000000000E+00  0.00000000000E+00  0.59625842458E+03  0.60921835919E+03  0.12499160092E+03 0.  0.
    9000005    1    3    3    0    0  0.11379504816E+02 -0.56820594161E+02  0.41208795060E+03  0.41614366760E+03  0.10000000000E+01 0.  0.
    9000005    1    3    3    0    0 -0.11379504816E+02  0.56820594161E+02  0.18417047397E+03  0.19307469160E+03  0.10000000000E+01 0.  0.
<mgrwt>
<rscale>  0 0.12499160E+03</rscale>
<asrwt>0</asrwt>
<pdfrwt beam="1">  1        4 0.92728975E-01 0.12499160E+03</pdfrwt>
<pdfrwt beam="2">  1       -4 0.99691814E-03 0.12499160E+03</pdfrwt>
<totfact> 0.48299739E+03</totfact>
</mgrwt>
</event>
<event>
 5    1  0.3316206E-002  0.1250014E+03  0.7818608E-02  0.1235067E+00
         -4   -1    0    0    0  501 -0.00000000000E+00  0.00000000000E+00  0.10965353123E+02  0.11038653410E+02  0.12700000000E+01 0.  1.
          4   -1    0    0  501    0  0.00000000000E+00 -0.00000000000E+00 -0.35498230306E+03  0.35498457486E+03  0.12700000000E+01 0.  1.
         25    2    1    2    0    0  0.00000000000E+00  0.00000000000E+00 -0.34401694994E+03  0.36602322827E+03  0.12500136714E+03 0.  0.
    9000005    1    3    3    0    0  0.56737808067E+02  0.24962467946E+02 -0.14876111407E+03  0.16116194566E+03  0.10000000000E+01 0.  0.
    9000005    1    3    3    0    0 -0.56737808067E+02 -0.24962467946E+02 -0.19525583587E+03  0.20486128261E+03  0.10000000000E+01 0.  0.
<mgrwt>
<rscale>  0 0.12500137E+03</rscale>
<asrwt>0</asrwt>
<pdfrwt beam="2">  1        4 0.54618467E-01 0.12500137E+03</pdfrwt>
<pdfrwt beam="1">  1       -4 0.16927909E-02 0.12500137E+03</pdfrwt>
<totfact> 0.67994992E+03</totfact>
</mgrwt>
</event>
<event>
 5    1  0.3316206E-002  0.1250019E+03  0.7818608E-02  0.1235066E+00
         -4   -1    0    0    0  501 -0.00000000000E+00  0.00000000000E+00  0.12357129161E+03  0.12357781763E+03  0.12700000000E+01 0. -1.
          4   -1    0    0  501    0  0.00000000000E+00 -0.00000000000E+00 -0.31592134122E+02  0.31617650741E+02  0.12700000000E+01 0. -1.
         25    2    1    2    0    0  0.00000000000E+00  0.00000000000E+00  0.91979157483E+02  0.15519546837E+03  0.12500187195E+03 0.  0.
    9000005    1    3    3    0    0 -0.61587318733E+02  0.26197526736E+01  0.58742251967E+02  0.85155816589E+02  0.10000000000E+01 0.  0.
    9000005    1    3    3    0    0  0.61587318733E+02 -0.26197526736E+01  0.33236905516E+02  0.70039651778E+02  0.10000000000E+01 0.  0.
<mgrwt>
<rscale>  0 0.12500187E+03</rscale>
<asrwt>0</asrwt>
<pdfrwt beam="2">  1        4 0.48627932E-02 0.12500187E+03</pdfrwt>
<pdfrwt beam="1">  1       -4 0.19013432E-01 0.12500187E+03</pdfrwt>
<totfact> 0.98273003E+03</totfact>
</mgrwt>
</event>
<event>
 5    1  0.3316206E-002  0.1249967E+03  0.7818608E-02  0.1235074E+00
          4   -1    0    0  501    0  0.00000000000E+00  0.00000000000E+00  0.91844915010E+02  0.91853695153E+02  0.12700000000E+01 0.  1.
         -4   -1    0    0    0  501 -0.00000000000E+00 -0.00000000000E+00 -0.42508406595E+02  0.42527373905E+02  0.12700000000E+01 0.  1.
         25    2    1    2    0    0  0.00000000000E+00  0.00000000000E+00  0.49336508416E+02  0.13438106906E+03  0.12499672259E+03 0.  0.
    9000005    1    3    3    0    0  0.11286752045E+02 -0.58124712375E+02  0.46147528889E+02  0.75076410296E+02  0.10000000000E+01 0.  0.
    9000005    1    3    3    0    0 -0.11286752045E+02  0.58124712375E+02  0.31889795265E+01  0.59304658761E+02  0.10000000000E+01 0.  0.
<mgrwt>
<rscale>  0 0.12499672E+03</rscale>
<asrwt>0</asrwt>
<pdfrwt beam="1">  1        4 0.14132121E-01 0.12499672E+03</pdfrwt>
<pdfrwt beam="2">  1       -4 0.65418893E-02 0.12499672E+03</pdfrwt>
<totfact> 0.10251891E+04</totfact>
</mgrwt>
</event>
<event>
 5    1  0.3316206E-002  0.1249998E+03  0.7818608E-02  0.1235070E+00
          4   -1    0    0  501    0  0.00000000000E+00  0.00000000000E+00  0.11444604928E+02  0.11514854839E+02  0.12700000000E+01 0.  1.
         -4   -1    0    0    0  501 -0.00000000000E+00 -0.00000000000E+00 -0.34020100693E+03  0.34020337743E+03  0.12700000000E+01 0.  1.
         25    2    1    2    0    0  0.00000000000E+00  0.00000000000E+00 -0.32875640200E+03  0.35171823227E+03  0.12499977222E+03 0.  0.
    9000005    1    3    3    0    0 -0.61616462270E+02 -0.10051490520E+02 -0.17214276674E+03  0.18311677428E+03  0.10000000000E+01 0.  0.
    9000005    1    3    3    0    0  0.61616462270E+02  0.10051490520E+02 -0.15661363527E+03  0.16860145799E+03  0.10000000000E+01 0.  0.
<mgrwt>
<rscale>  0 0.12499977E+03</rscale>
<asrwt>0</asrwt>
<pdfrwt beam="1">  1        4 0.17662949E-02 0.12499977E+03</pdfrwt>
<pdfrwt beam="2">  1       -4 0.52344195E-01 0.12499977E+03</pdfrwt>
<totfact> 0.69536296E+03</totfact>
</mgrwt>
</event>
