<event>
 5    1  0.3434846E-002  0.1249888E+03  0.7818608E-02  0.1235087E+00
         -4   -1    0    0    0  501 -0.00000000000E+00  0.00000000000E+00  0.46473614467E+03  0.46473787996E+03  0.12700000000E+01 0. -1.
          4   -1    0    0  501    0  0.00000000000E+00 -0.00000000000E+00 -0.83540582188E+01  0.84500407528E+01  0.12700000000E+01 0. -1.
         25    2    1    2    0    0  0.00000000000E+00  0.00000000000E+00  0.45638208646E+03  0.47318792071E+03  0.12498879737E+03 0.  0.
    9000005    1    3    3    0    0 -0.65513109247E+00  0.59004193905E+02  0.15036220480E+03  0.16152930610E+03  0.10000000000E+01 0.  0.
    9000005    1    3    3    0    0  0.65513109247E+00 -0.59004193905E+02  0.30601988165E+03  0.31165861461E+03  0.10000000000E+01 0.  0.
<mgrwt>
<rscale>  0 0.12498880E+03</rscale>
<asrwt>0</asrwt>
<pdfrwt beam="2">  1        4 0.12927565E-02 0.12498880E+03</pdfrwt>
<pdfrwt beam="1">  1       -4 0.71505384E-01 0.12498880E+03</pdfrwt>
<totfact> 0.58020669E+03</totfact>
</mgrwt>
</event>
<event>
 5    1  0.3434846E-002  0.1249985E+03  0.7818608E-02  0.1235072E+00
          4   -1    0    0  501    0  0.00000000000E+00  0.00000000000E+00  0.13867870764E+03  0.13868452276E+03  0.12700000000E+01 0. -1.
         -4   -1    0    0    0  501 -0.00000000000E+00 -0.00000000000E+00 -0.28146222997E+02  0.28174860585E+02  0.12700000000E+01 0. -1.
         25    2    1    2    0    0  0.00000000000E+00  0.00000000000E+00  0.11053248464E+03  0.16685938334E+03  0.12499849458E+03 0.  0.
    9000005    1    3    3    0    0 -0.47246911681E+01  0.49891863722E+02  0.10509962819E+03  0.11644076871E+03  0.10000000000E+01 0.  0.
    9000005    1    3    3    0    0  0.47246911681E+01 -0.49891863722E+02  0.54328564547E+01  0.50418614634E+02  0.10000000000E+01 0.  0.
<mgrwt>
<rscale>  0 0.12499849E+03</rscale>
<asrwt>0</asrwt>
<pdfrwt beam="1">  1        4 0.21337836E-01 0.12499849E+03</pdfrwt>
<pdfrwt beam="2">  1       -4 0.43328383E-02 0.12499849E+03</pdfrwt>
<totfact> 0.96039656E+03</totfact>
</mgrwt>
</event>
<event>
 5    1  0.3434846E-002  0.1249991E+03  0.7818608E-02  0.1235071E+00
         -4   -1    0    0    0  501 -0.00000000000E+00  0.00000000000E+00  0.34031859658E+02  0.34055548326E+02  0.12700000000E+01 0. -1.
          4   -1    0    0  501    0  0.00000000000E+00 -0.00000000000E+00 -0.11471330798E+03  0.11472033790E+03  0.12700000000E+01 0. -1.
         25    2    1    2    0    0  0.00000000000E+00  0.00000000000E+00 -0.80681448322E+02  0.14877588622E+03  0.12499907287E+03 0.  0.
    9000005    1    3    3    0    0 -0.17400493502E+02  0.40978083075E+02 -0.92536972371E+02  0.10269406858E+03  0.10000000000E+01 0.  0.
    9000005    1    3    3    0    0  0.17400493502E+02 -0.40978083075E+02  0.11855524049E+02  0.46081817641E+02  0.10000000000E+01 0.  0.
<mgrwt>
<rscale>  0 0.12499907E+03</rscale>
<asrwt>0</asrwt>
<pdfrwt beam="2">  1        4 0.17650564E-01 0.12499907E+03</pdfrwt>
<pdfrwt beam="1">  1       -4 0.52380337E-02 0.12499907E+03</pdfrwt>
<totfact> 0.99550346E+03</totfact>
</mgrwt>
</event>
<event>
 5    1  0.3434846E-002  0.1250020E+03  0.7818608E-02  0.1235066E+00
          4   -1    0    0  501    0  0.00000000000E+00  0.00000000000E+00  0.96895720589E+02  0.96904043096E+02  0.12700000000E+01 0.  1.
         -4   -1    0    0    0  501 -0.00000000000E+00 -0.00000000000E+00 -0.40295162449E+02  0.40315171050E+02  0.12700000000E+01 0.  1.
         25    2    1    2    0    0  0.00000000000E+00  0.00000000000E+00  0.56600558139E+02  0.13721921415E+03  0.12500195818E+03 0.  0.
    9000005    1    3    3    0    0 -0.23006858133E+02  0.57017864830E+02  0.40574326101E+02  0.73672439687E+02  0.10000000000E+01 0.  0.
    9000005    1    3    3    0    0  0.23006858133E+02 -0.57017864830E+02  0.16026232038E+02  0.63546774460E+02  0.10000000000E+01 0.  0.
<mgrwt>
<rscale>  0 0.12500196E+03</rscale>
<asrwt>0</asrwt>
<pdfrwt beam="1">  1        4 0.14909213E-01 0.12500196E+03</pdfrwt>
<pdfrwt beam="2">  1       -4 0.62014352E-02 0.12500196E+03</pdfrwt>
<totfact> 0.10191054E+04</totfact>
</mgrwt>
</event>
<event>
 5    1  0.3434846E-002  0.1249967E+03  0.7818608E-02  0.1235074E+00
          4   -1    0    0  501    0  0.00000000000E+00  0.00000000000E+00  0.15070665591E+02  0.15124082166E+02  0.12700000000E+01 0. -1.
         -4   -1    0    0    0  501 -0.00000000000E+00 -0.00000000000E+00 -0.25866855337E+03  0.25867167105E+03  0.12700000000E+01 0. -1.
         25    2    1    2    0    0  0.00000000000E+00  0.00000000000E+00 -0.24359788778E+03  0.27379575321E+03  0.12499673415E+03 0.  0.
    9000005    1    3    3    0    0 -0.60662492422E+02 -0.11939249587E+02 -0.14170195204E+03  0.15460571426E+03  0.10000000000E+01 0.  0.
    9000005    1    3    3    0    0  0.60662492422E+02  0.11939249587E+02 -0.10189593574E+03  0.11919003896E+03  0.10000000000E+01 0.  0.
<mgrwt>
<rscale>  0 0.12499673E+03</rscale>
<asrwt>0</asrwt>
<pdfrwt beam="1">  1        4 0.23229129E-02 0.12499673E+03</pdfrwt>
<pdfrwt beam="2">  1       -4 0.39799508E-01 0.12499673E+03</pdfrwt>
<totfact> 0.79013740E+03</totfact>
</mgrwt>
</event>
<event>
 5    1  0.3434846E-002  0.1249864E+03  0.7818608E-02  0.1235091E+00
          4   -1    0    0  501    0  0.00000000000E+00  0.00000000000E+00  0.55792773814E+02  0.55807226323E+02  0.12700000000E+01 0.  1.
         -4   -1    0    0    0  501 -0.00000000000E+00 -0.00000000000E+00 -0.69969008335E+02  0.69980533203E+02  0.12700000000E+01 0.  1.
         25    2    1    2    0    0  0.00000000000E+00  0.00000000000E+00 -0.14176234521E+02  0.12578775953E+03  0.12498637854E+03 0.  0.
    9000005    1    3    3    0    0 -0.59897989657E+02  0.17751940845E+02 -0.58562854595E+01  0.62755052769E+02  0.10000000000E+01 0.  0.
    9000005    1    3    3    0    0  0.59897989657E+02 -0.17751940845E+02 -0.83199490613E+01  0.63032706756E+02  0.10000000000E+01 0.  0.
<mgrwt>
<rscale>  0 0.12498638E+03</rscale>
<asrwt>0</asrwt>
<pdfrwt beam="1">  1        4 0.85855019E-02 0.12498638E+03</pdfrwt>
<pdfrwt beam="2">  1       -4 0.10766461E-01 0.12498638E+03</pdfrwt>
<totfact> 0.10438822E+04</totfact>
</mgrwt>
</event>
<event>
 5    1  0.3434846E-002  0.1250017E+03  0.7818608E-02  0.1235067E+00
          4   -1    0    0  501    0  0.00000000000E+00  0.00000000000E+00  0.93060819336E+02  0.93069484771E+02  0.12700000000E+01 0. -1.
         -4   -1    0    0    0  501 -0.00000000000E+00 -0.00000000000E+00 -0.41956140138E+02  0.41975357000E+02  0.12700000000E+01 0. -1.
         25    2    1    2    0    0  0.00000000000E+00  0.00000000000E+00  0.51104679198E+02  0.13504484177E+03  0.12500168420E+03 0.  0.
    9000005    1    3    3    0    0 -0.41724231818E+02  0.39528880192E+02  0.52057376341E+02  0.77552655155E+02  0.10000000000E+01 0.  0.
    9000005    1    3    3    0    0  0.41724231818E+02 -0.39528880192E+02 -0.95269714380E+00  0.57492186616E+02  0.10000000000E+01 0.  0.
<mgrwt>
<rscale>  0 0.12500168E+03</rscale>
<asrwt>0</asrwt>
<pdfrwt beam="1">  1        4 0.14319194E-01 0.12500168E+03</pdfrwt>
<pdfrwt beam="2">  1       -4 0.64569356E-02 0.12500168E+03</pdfrwt>
<totfact> 0.10236737E+04</totfact>
</mgrwt>
</event>
<event>
 5    1  0.3434846E-002  0.1249993E+03  0.7818608E-02  0.1235070E+00
          4   -1    0    0  501    0  0.00000000000E+00  0.00000000000E+00  0.15308683359E+02  0.15361272284E+02  0.12700000000E+01 0.  1.
         -4   -1    0    0    0  501 -0.00000000000E+00 -0.00000000000E+00 -0.25467127247E+03  0.25467443908E+03  0.12700000000E+01 0.  1.
         25    2    1    2    0    0  0.00000000000E+00  0.00000000000E+00 -0.23936258911E+03  0.27003571136E+03  0.12499934538E+03 0.  0.
    9000005    1    3    3    0    0  0.58919054800E+02  0.16071469904E+02 -0.91065559511E+02  0.10965255716E+03  0.10000000000E+01 0.  0.
    9000005    1    3    3    0    0 -0.58919054800E+02 -0.16071469904E+02 -0.14829702960E+03  0.16038315420E+03  0.10000000000E+01 0.  0.
<mgrwt>
<rscale>  0 0.12499935E+03</rscale>
<asrwt>0</asrwt>
<pdfrwt beam="1">  1        4 0.23594711E-02 0.12499935E+03</pdfrwt>
<pdfrwt beam="2">  1       -4 0.39184482E-01 0.12499935E+03</pdfrwt>
<totfact> 0.79519158E+03</totfact>
</mgrwt>
</event>
<event>
 5    1  0.3434846E-002  0.1250000E+03  0.7818608E-02  0.1235069E+00
          4   -1    0    0  501    0  0.00000000000E+00  0.00000000000E+00  0.76133498832E+02  0.76144090673E+02  0.12700000000E+01 0.  1.
         -4   -1    0    0    0  501 -0.00000000000E+00 -0.00000000000E+00 -0.51285904718E+02  0.51301626902E+02  0.12700000000E+01 0.  1.
         25    2    1    2    0    0  0.00000000000E+00  0.00000000000E+00  0.24847594114E+02  0.12744571757E+03  0.12500003198E+03 0.  0.
    9000005    1    3    3    0    0  0.15348381519E+02 -0.60570510428E+02  0.13386976160E+02  0.63910646058E+02  0.10000000000E+01 0.  0.
    9000005    1    3    3    0    0 -0.15348381519E+02  0.60570510428E+02  0.11460617954E+02  0.63535071517E+02  0.10000000000E+01 0.  0.
<mgrwt>
<rscale>  0 0.12500003E+03</rscale>
<asrwt>0</asrwt>
<pdfrwt beam="1">  1        4 0.11714870E-01 0.12500003E+03</pdfrwt>
<pdfrwt beam="2">  1       -4 0.78921633E-02 0.12500003E+03</pdfrwt>
<totfact> 0.10399469E+04</totfact>
</mgrwt>
</event>
<event>
 5    1  0.3434846E-002  0.1250000E+03  0.7818608E-02  0.1235069E+00
         -4   -1    0    0    0  501 -0.00000000000E+00  0.00000000000E+00  0.22850999106E+02  0.22886263569E+02  0.12700000000E+01 0. -1.
          4   -1    0    0  501    0  0.00000000000E+00 -0.00000000000E+00 -0.17077498647E+03  0.17077970870E+03  0.12700000000E+01 0. -1.
         25    2    1    2    0    0  0.00000000000E+00  0.00000000000E+00 -0.14792398737E+03  0.19366597227E+03  0.12500001111E+03 0.  0.
    9000005    1    3    3    0    0  0.44026228272E+02  0.41120620945E+02 -0.99703057241E+02  0.11649426538E+03  0.10000000000E+01 0.  0.
    9000005    1    3    3    0    0 -0.44026228272E+02 -0.41120620945E+02 -0.48220930127E+02  0.77171706895E+02  0.10000000000E+01 0.  0.
<mgrwt>
<rscale>  0 0.12500001E+03</rscale>
<asrwt>0</asrwt>
<pdfrwt beam="2">  1        4 0.26276150E-01 0.12500001E+03</pdfrwt>
<pdfrwt beam="1">  1       -4 0.35186143E-02 0.12500001E+03</pdfrwt>
<totfact> 0.91213309E+03</totfact>
</mgrwt>
</event>
<event>
 5    1  0.3434846E-002  0.1249990E+03  0.7818608E-02  0.1235071E+00
          4   -1    0    0  501    0  0.00000000000E+00  0.00000000000E+00  0.77453426798E+02  0.77463838162E+02  0.12700000000E+01 0.  1.
         -4   -1    0    0    0  501 -0.00000000000E+00 -0.00000000000E+00 -0.50410930722E+02  0.50426925707E+02  0.12700000000E+01 0.  1.
         25    2    1    2    0    0  0.00000000000E+00  0.00000000000E+00  0.27042496076E+02  0.12789076387E+03  0.12499900355E+03 0.  0.
    9000005    1    3    3    0    0 -0.96578702594E+00 -0.24193533805E+02  0.72464153456E+02  0.76408856546E+02  0.10000000000E+01 0.  0.
    9000005    1    3    3    0    0  0.96578702594E+00  0.24193533805E+02 -0.45421657380E+02  0.51481907324E+02  0.10000000000E+01 0.  0.
<mgrwt>
<rscale>  0 0.12499900E+03</rscale>
<asrwt>0</asrwt>
<pdfrwt beam="1">  1        4 0.11917943E-01 0.12499900E+03</pdfrwt>
<pdfrwt beam="2">  1       -4 0.77575591E-02 0.12499900E+03</pdfrwt>
<totfact> 0.10390081E+04</totfact>
</mgrwt>
</event>
<event>
 5    1  0.3434846E-002  0.1249969E+03  0.7818608E-02  0.1235074E+00
         -4   -1    0    0    0  501 -0.00000000000E+00  0.00000000000E+00  0.44523937538E+02  0.44542046584E+02  0.12700000000E+01 0. -1.
          4   -1    0    0  501    0  0.00000000000E+00 -0.00000000000E+00 -0.87688872292E+02  0.87698068530E+02  0.12700000000E+01 0. -1.
         25    2    1    2    0    0  0.00000000000E+00  0.00000000000E+00 -0.43164934754E+02  0.13224011511E+03  0.12499694577E+03 0.  0.
    9000005    1    3    3    0    0 -0.62415828144E+02 -0.23435674599E-01 -0.24812751733E+02  0.67174465392E+02  0.10000000000E+01 0.  0.
    9000005    1    3    3    0    0  0.62415828144E+02  0.23435674599E-01 -0.18352183021E+02  0.65065649722E+02  0.10000000000E+01 0.  0.
<mgrwt>
<rscale>  0 0.12499695E+03</rscale>
<asrwt>0</asrwt>
<pdfrwt beam="2">  1        4 0.13492696E-01 0.12499695E+03</pdfrwt>
<pdfrwt beam="1">  1       -4 0.68519369E-02 0.12499695E+03</pdfrwt>
<totfact> 0.10297285E+04</totfact>
</mgrwt>
</event>
<event>
 5    1  0.3434846E-002  0.1249963E+03  0.7818608E-02  0.1235075E+00
         -4   -1    0    0    0  501 -0.00000000000E+00  0.00000000000E+00  0.25397192626E+02  0.25428926310E+02  0.12700000000E+01 0.  1.
          4   -1    0    0  501    0  0.00000000000E+00 -0.00000000000E+00 -0.15366698506E+03  0.15367223301E+03  0.12700000000E+01 0.  1.
         25    2    1    2    0    0  0.00000000000E+00  0.00000000000E+00 -0.12826979243E+03  0.17910115932E+03  0.12499634242E+03 0.  0.
    9000005    1    3    3    0    0 -0.31914940861E+02  0.60568377071E+01  0.12355374966E+02  0.34769297141E+02  0.10000000000E+01 0.  0.
    9000005    1    3    3    0    0  0.31914940861E+02 -0.60568377071E+01 -0.14062516740E+03  0.14433186218E+03  0.10000000000E+01 0.  0.
<mgrwt>
<rscale>  0 0.12499634E+03</rscale>
<asrwt>0</asrwt>
<pdfrwt beam="2">  1        4 0.23643919E-01 0.12499634E+03</pdfrwt>
<pdfrwt beam="1">  1       -4 0.39101053E-02 0.12499634E+03</pdfrwt>
<totfact> 0.93786740E+03</totfact>
</mgrwt>
</event>
<event>
 5    1  0.3434846E-002  0.1249962E+03  0.7818608E-02  0.1235075E+00
          4   -1    0    0  501    0  0.00000000000E+00  0.00000000000E+00  0.19189420459E+02  0.19231400301E+02  0.12700000000E+01 0.  1.
         -4   -1    0    0    0  501 -0.00000000000E+00 -0.00000000000E+00 -0.20328392806E+03  0.20328789514E+03  0.12700000000E+01 0.  1.
         25    2    1    2    0    0  0.00000000000E+00  0.00000000000E+00 -0.18409450760E+03  0.22251929544E+03  0.12499619639E+03 0.  0.
    9000005    1    3    3    0    0  0.33667489736E+02 -0.20984431589E+01 -0.18569212743E+03  0.18873385896E+03  0.10000000000E+01 0.  0.
    9000005    1    3    3    0    0 -0.33667489736E+02  0.20984431589E+01  0.15976198254E+01  0.33785436476E+02  0.10000000000E+01 0.  0.
<mgrwt>
<rscale>  0 0.12499620E+03</rscale>
<asrwt>0</asrwt>
<pdfrwt beam="1">  1        4 0.29557531E-02 0.12499620E+03</pdfrwt>
<pdfrwt beam="2">  1       -4 0.31277983E-01 0.12499620E+03</pdfrwt>
<totfact> 0.86478613E+03</totfact>
</mgrwt>
</event>
<event>
 5    1  0.3434846E-002  0.1250115E+03  0.7818608E-02  0.1235051E+00
          4   -1    0    0  501    0  0.00000000000E+00  0.00000000000E+00  0.41425437700E+02  0.41444900635E+02  0.12700000000E+01 0.  1.
         -4   -1    0    0    0  501 -0.00000000000E+00 -0.00000000000E+00 -0.94267357772E+02  0.94275912307E+02  0.12700000000E+01 0.  1.
         25    2    1    2    0    0  0.00000000000E+00  0.00000000000E+00 -0.52841920072E+02  0.13572081294E+03  0.12501148167E+03 0.  0.
    9000005    1    3    3    0    0 -0.17742809781E+02  0.43653446458E+02  0.18151406020E+02  0.50506477081E+02  0.10000000000E+01 0.  0.
    9000005    1    3    3    0    0  0.17742809781E+02 -0.43653446458E+02 -0.70993326092E+02  0.85214335861E+02  0.10000000000E+01 0.  0.
<mgrwt>
<rscale>  0 0.12501148E+03</rscale>
<asrwt>0</asrwt>
<pdfrwt beam="1">  1        4 0.63752995E-02 0.12501148E+03</pdfrwt>
<pdfrwt beam="2">  1       -4 0.14504826E-01 0.12501148E+03</pdfrwt>
<totfact> 0.10220254E+04</totfact>
</mgrwt>
</event>
<event>
 5    1  0.3434846E-002  0.1249992E+03  0.7818608E-02  0.1235070E+00
         -4   -1    0    0    0  501 -0.00000000000E+00  0.00000000000E+00  0.61680651398E+02  0.61693724615E+02  0.12700000000E+01 0. -1.
          4   -1    0    0  501    0  0.00000000000E+00 -0.00000000000E+00 -0.63303289674E+02  0.63316027857E+02  0.12700000000E+01 0. -1.
         25    2    1    2    0    0  0.00000000000E+00  0.00000000000E+00 -0.16226382764E+01  0.12500975247E+03  0.12499922103E+03 0.  0.
    9000005    1    3    3    0    0  0.21092588866E+02 -0.47796722175E+02  0.33481179902E+02  0.62059756392E+02  0.10000000000E+01 0.  0.
    9000005    1    3    3    0    0 -0.21092588866E+02  0.47796722175E+02 -0.35103818179E+02  0.62949996080E+02  0.10000000000E+01 0.  0.
<mgrwt>
<rscale>  0 0.12499922E+03</rscale>
<asrwt>0</asrwt>
<pdfrwt beam="2">  1        4 0.97409530E-02 0.12499922E+03</pdfrwt>
<pdfrwt beam="1">  1       -4 0.94913166E-02 0.12499922E+03</pdfrwt>
<totfact> 0.10452835E+04</totfact>
</mgrwt>
</event>
<event>
 5    1  0.3434846E-002  0.1249992E+03  0.7818608E-02  0.1235071E+00
         -4   -1    0    0    0  501 -0.00000000000E+00  0.00000000000E+00  0.10241249480E+02  0.10319694323E+02  0.12700000000E+01 0. -1.
          4   -1    0    0  501    0  0.00000000000E+00 -0.00000000000E+00 -0.37988344018E+03  0.37988556306E+03  0.12700000000E+01 0. -1.
         25    2    1    2    0    0  0.00000000000E+00  0.00000000000E+00 -0.36964219070E+03  0.39020525738E+03  0.12499917498E+03 0.  0.
    9000005    1    3    3    0    0  0.38365513902E+01  0.52883061595E+02 -0.81576563293E+02  0.97298884932E+02  0.10000000000E+01 0.  0.
    9000005    1    3    3    0    0 -0.38365513902E+01 -0.52883061595E+02 -0.28806562740E+03  0.29290637245E+03  0.10000000000E+01 0.  0.
<mgrwt>
<rscale>  0 0.12499917E+03</rscale>
<asrwt>0</asrwt>
<pdfrwt beam="2">  1        4 0.58449793E-01 0.12499917E+03</pdfrwt>
<pdfrwt beam="1">  1       -4 0.15817747E-02 0.12499917E+03</pdfrwt>
<totfact> 0.65517892E+03</totfact>
</mgrwt>
</event>
<event>
 5    1  0.3434846E-002  0.1249947E+03  0.7818608E-02  0.1235078E+00
          4   -1    0    0  501    0  0.00000000000E+00  0.00000000000E+00  0.12800284711E+03  0.12800914721E+03  0.12700000000E+01 0.  1.
         -4   -1    0    0    0  501 -0.00000000000E+00 -0.00000000000E+00 -0.30494057445E+02  0.30520492124E+02  0.12700000000E+01 0.  1.
         25    2    1    2    0    0  0.00000000000E+00  0.00000000000E+00  0.97508789669E+02  0.15852963933E+03  0.12499472983E+03 0.  0.
    9000005    1    3    3    0    0 -0.50401603847E+02  0.80310394617E+01  0.30237447620E+01  0.51136702060E+02  0.10000000000E+01 0.  0.
    9000005    1    3    3    0    0  0.50401603847E+02 -0.80310394617E+01  0.94485044907E+02  0.10739293727E+03  0.10000000000E+01 0.  0.
<mgrwt>
<rscale>  0 0.12499473E+03</rscale>
<asrwt>0</asrwt>
<pdfrwt beam="1">  1        4 0.19695264E-01 0.12499473E+03</pdfrwt>
<pdfrwt beam="2">  1       -4 0.46939115E-02 0.12499473E+03</pdfrwt>
<totfact> 0.97638577E+03</totfact>
</mgrwt>
</event>
<event>
 5    1  0.3434846E-002  0.1250018E+03  0.7818608E-02  0.1235066E+00
         -4   -1    0    0    0  501 -0.00000000000E+00  0.00000000000E+00  0.21198920967E+03  0.21199301384E+03  0.12700000000E+01 0.  1.
          4   -1    0    0  501    0  0.00000000000E+00 -0.00000000000E+00 -0.18401325714E+02  0.18445099296E+02  0.12700000000E+01 0.  1.
         25    2    1    2    0    0  0.00000000000E+00  0.00000000000E+00  0.19358788395E+03  0.23043811313E+03  0.12500182067E+03 0.  0.
    9000005    1    3    3    0    0  0.83261423299E+00 -0.30458942182E+02  0.19737629722E+03  0.19971690742E+03  0.10000000000E+01 0.  0.
    9000005    1    3    3    0    0 -0.83261423299E+00  0.30458942182E+02 -0.37884132661E+01  0.30721205712E+02  0.10000000000E+01 0.  0.
<mgrwt>
<rscale>  0 0.12500182E+03</rscale>
<asrwt>0</asrwt>
<pdfrwt beam="2">  1        4 0.28346331E-02 0.12500182E+03</pdfrwt>
<pdfrwt beam="1">  1       -4 0.32617384E-01 0.12500182E+03</pdfrwt>
<totfact> 0.85238907E+03</totfact>
</mgrwt>
</event>
<event>
 5    1  0.3434846E-002  0.1249870E+03  0.7818608E-02  0.1235090E+00
          4   -1    0    0  501    0  0.00000000000E+00  0.00000000000E+00  0.35321226643E+03  0.35321454961E+03  0.12700000000E+01 0.  1.
         -4   -1    0    0    0  501 -0.00000000000E+00 -0.00000000000E+00 -0.11018121474E+02  0.11091073023E+02  0.12700000000E+01 0.  1.
         25    2    1    2    0    0  0.00000000000E+00  0.00000000000E+00  0.34219414495E+03  0.36430562263E+03  0.12498701469E+03 0.  0.
    9000005    1    3    3    0    0 -0.42542291457E+02  0.38242870046E+02  0.97817114266E+02  0.11332056969E+03  0.10000000000E+01 0.  0.
    9000005    1    3    3    0    0  0.42542291457E+02 -0.38242870046E+02  0.24437703069E+03  0.25098505294E+03  0.10000000000E+01 0.  0.
<mgrwt>
<rscale>  0 0.12498701E+03</rscale>
<asrwt>0</asrwt>
<pdfrwt beam="1">  1        4 0.54346128E-01 0.12498701E+03</pdfrwt>
<pdfrwt beam="2">  1       -4 0.17008831E-02 0.12498701E+03</pdfrwt>
<totfact> 0.68198498E+03</totfact>
</mgrwt>
</event>
<event>
 5    1  0.3434846E-002  0.1249528E+03  0.7818608E-02  0.1235143E+00
          4   -1    0    0  501    0  0.00000000000E+00  0.00000000000E+00  0.63304725466E+02  0.63317463360E+02  0.12700000000E+01 0.  1.
         -4   -1    0    0    0  501 -0.00000000000E+00 -0.00000000000E+00 -0.61633445186E+02  0.61646528414E+02  0.12700000000E+01 0.  1.
         25    2    1    2    0    0  0.00000000000E+00  0.00000000000E+00  0.16712802805E+01  0.12496399177E+03  0.12495281534E+03 0.  0.
    9000005    1    3    3    0    0  0.49871901698E+02 -0.17061806055E+02 -0.32693314373E+02  0.62033576469E+02  0.10000000000E+01 0.  0.
    9000005    1    3    3    0    0 -0.49871901698E+02  0.17061806055E+02  0.34364594653E+02  0.62930415305E+02  0.10000000000E+01 0.  0.
<mgrwt>
<rscale>  0 0.12495282E+03</rscale>
<asrwt>0</asrwt>
<pdfrwt beam="1">  1        4 0.97411748E-02 0.12495282E+03</pdfrwt>
<pdfrwt beam="2">  1       -4 0.94840547E-02 0.12495282E+03</pdfrwt>
<totfact> 0.10464800E+04</totfact>
</mgrwt>
</event>
<event>
 5    1  0.3434846E-002  0.1249997E+03  0.7818608E-02  0.1235070E+00
         -4   -1    0    0    0  501 -0.00000000000E+00  0.00000000000E+00  0.54265295547E+03  0.54265444159E+03  0.12700000000E+01 0.  1.
          4   -1    0    0  501    0  0.00000000000E+00 -0.00000000000E+00 -0.71408758354E+01  0.72529309729E+01  0.12700000000E+01 0.  1.
         25    2    1    2    0    0  0.00000000000E+00  0.00000000000E+00  0.53551207963E+03  0.54990737257E+03  0.12499972387E+03 0.  0.
    9000005    1    3    3    0    0  0.26179723681E+02  0.26373724680E+02  0.46726979613E+02  0.59710651556E+02  0.10000000000E+01 0.  0.
    9000005    1    3    3    0    0 -0.26179723681E+02 -0.26373724680E+02  0.48878510002E+03  0.49019672101E+03  0.10000000000E+01 0.  0.
<mgrwt>
<rscale>  0 0.12499972E+03</rscale>
<asrwt>0</asrwt>
<pdfrwt beam="2">  1        4 0.11073299E-02 0.12499972E+03</pdfrwt>
<pdfrwt beam="1">  1       -4 0.83493831E-01 0.12499972E+03</pdfrwt>
<totfact> 0.52190690E+03</totfact>
</mgrwt>
</event>
<event>
 5    1  0.3434846E-002  0.1250011E+03  0.7818608E-02  0.1235068E+00
          4   -1    0    0  501    0  0.00000000000E+00  0.00000000000E+00  0.10477341163E+03  0.10478110843E+03  0.12700000000E+01 0. -1.
         -4   -1    0    0    0  501 -0.00000000000E+00 -0.00000000000E+00 -0.37263607540E+02  0.37285243018E+02  0.12700000000E+01 0. -1.
         25    2    1    2    0    0  0.00000000000E+00  0.00000000000E+00  0.67509804087E+02  0.14206635145E+03  0.12500109826E+03 0.  0.
    9000005    1    3    3    0    0  0.12529328760E+02  0.39658093730E+02 -0.19255847556E+02  0.45842514575E+02  0.10000000000E+01 0.  0.
    9000005    1    3    3    0    0 -0.12529328760E+02 -0.39658093730E+02  0.86765651643E+02  0.96223836873E+02  0.10000000000E+01 0.  0.
<mgrwt>
<rscale>  0 0.12500110E+03</rscale>
<asrwt>0</asrwt>
<pdfrwt beam="1">  1        4 0.16121242E-01 0.12500110E+03</pdfrwt>
<pdfrwt beam="2">  1       -4 0.57351192E-02 0.12500110E+03</pdfrwt>
<totfact> 0.10090688E+04</totfact>
</mgrwt>
</event>
<event>
 5    1  0.3434846E-002  0.1250029E+03  0.7818608E-02  0.1235065E+00
          4   -1    0    0  501    0  0.00000000000E+00  0.00000000000E+00  0.20439898890E+03  0.20440293434E+03  0.12700000000E+01 0.  1.
         -4   -1    0    0    0  501 -0.00000000000E+00 -0.00000000000E+00 -0.19086545638E+02  0.19128751250E+02  0.12700000000E+01 0.  1.
         25    2    1    2    0    0  0.00000000000E+00  0.00000000000E+00  0.18531244327E+03  0.22353168559E+03  0.12500285129E+03 0.  0.
    9000005    1    3    3    0    0  0.23915106767E+02 -0.43355187420E+02  0.16083905287E+03  0.16829083616E+03  0.10000000000E+01 0.  0.
    9000005    1    3    3    0    0 -0.23915106767E+02  0.43355187420E+02  0.24473390402E+02  0.55240849429E+02  0.10000000000E+01 0.  0.
<mgrwt>
<rscale>  0 0.12500285E+03</rscale>
<asrwt>0</asrwt>
<pdfrwt beam="1">  1        4 0.31449550E-01 0.12500285E+03</pdfrwt>
<pdfrwt beam="2">  1       -4 0.29399416E-02 0.12500285E+03</pdfrwt>
<totfact> 0.86307076E+03</totfact>
</mgrwt>
</event>
<event>
 5    1  0.3434846E-002  0.1250301E+03  0.7818608E-02  0.1235022E+00
         -4   -1    0    0    0  501 -0.00000000000E+00  0.00000000000E+00  0.51847535113E+03  0.51847690655E+03  0.12700000000E+01 0. -1.
          4   -1    0    0  501    0  0.00000000000E+00 -0.00000000000E+00 -0.74826615999E+01  0.75896722339E+01  0.12700000000E+01 0. -1.
         25    2    1    2    0    0  0.00000000000E+00  0.00000000000E+00  0.51099268953E+03  0.52606657879E+03  0.12503006264E+03 0.  0.
    9000005    1    3    3    0    0 -0.62443107532E+02  0.22813582111E+01  0.26251530086E+03  0.26985112462E+03  0.10000000000E+01 0.  0.
    9000005    1    3    3    0    0  0.62443107532E+02 -0.22813582111E+01  0.24847738867E+03  0.25621545416E+03  0.10000000000E+01 0.  0.
<mgrwt>
<rscale>  0 0.12503006E+03</rscale>
<asrwt>0</asrwt>
<pdfrwt beam="2">  1        4 0.11595297E-02 0.12503006E+03</pdfrwt>
<pdfrwt beam="1">  1       -4 0.79773809E-01 0.12503006E+03</pdfrwt>
<totfact> 0.53861567E+03</totfact>
</mgrwt>
</event>
<event>
 5    1  0.3434846E-002  0.1249994E+03  0.7818608E-02  0.1235070E+00
          4   -1    0    0  501    0  0.00000000000E+00  0.00000000000E+00  0.18534173462E+03  0.18534608572E+03  0.12700000000E+01 0. -1.
         -4   -1    0    0    0  501 -0.00000000000E+00 -0.00000000000E+00 -0.21051996226E+02  0.21090268967E+02  0.12700000000E+01 0. -1.
         25    2    1    2    0    0  0.00000000000E+00  0.00000000000E+00  0.16428973839E+03  0.20643635469E+03  0.12499940158E+03 0.  0.
    9000005    1    3    3    0    0  0.38061511530E+01 -0.58314480873E+02  0.45581897950E+02  0.74120003284E+02  0.10000000000E+01 0.  0.
    9000005    1    3    3    0    0 -0.38061511530E+01  0.58314480873E+02  0.11870784044E+03  0.13231635140E+03  0.10000000000E+01 0.  0.
<mgrwt>
<rscale>  0 0.12499940E+03</rscale>
<asrwt>0</asrwt>
<pdfrwt beam="1">  1        4 0.28517392E-01 0.12499940E+03</pdfrwt>
<pdfrwt beam="2">  1       -4 0.32420474E-02 0.12499940E+03</pdfrwt>
<totfact> 0.89062389E+03</totfact>
</mgrwt>
</event>
<event>
 5    1  0.3434846E-002  0.1250026E+03  0.7818608E-02  0.1235065E+00
         -4   -1    0    0    0  501 -0.00000000000E+00  0.00000000000E+00  0.35094959797E+02  0.35117931362E+02  0.12700000000E+01 0. -1.
          4   -1    0    0  501    0  0.00000000000E+00 -0.00000000000E+00 -0.11124672828E+03  0.11125397725E+03  0.12700000000E+01 0. -1.
         25    2    1    2    0    0  0.00000000000E+00  0.00000000000E+00 -0.76151768488E+02  0.14637190861E+03  0.12500257512E+03 0.  0.
    9000005    1    3    3    0    0  0.55305067817E+02  0.15075984958E+02 -0.89317806072E+01  0.58023379370E+02  0.10000000000E+01 0.  0.
    9000005    1    3    3    0    0 -0.55305067817E+02 -0.15075984958E+02 -0.67219987880E+02  0.88348529243E+02  0.10000000000E+01 0.  0.
<mgrwt>
<rscale>  0 0.12500258E+03</rscale>
<asrwt>0</asrwt>
<pdfrwt beam="2">  1        4 0.17117206E-01 0.12500258E+03</pdfrwt>
<pdfrwt beam="1">  1       -4 0.54015493E-02 0.12500258E+03</pdfrwt>
<totfact> 0.10002609E+04</totfact>
</mgrwt>
</event>
<event>
 4    1  0.3434846E-002  0.1251328E+03  0.7818608E-02  0.1234862E+00
         -4   -1    0    0    0  501 -0.00000000000E+00  0.00000000000E+00  0.50179124043E+03  0.50179284757E+03  0.12700000000E+01 0.  1.
          4   -1    0    0  501    0  0.00000000000E+00 -0.00000000000E+00 -0.77478393232E+01  0.78512364744E+01  0.12700000000E+01 0.  1.
    9000005    1    1    2    0    0  0.21972761726E+01 -0.15418522110E+02  0.49378907918E+03  0.49403563998E+03  0.10000000000E+01 0.  0.
    9000005    1    1    2    0    0 -0.21972761726E+01  0.15418522110E+02  0.25432192575E+00  0.15608444070E+02  0.10000000000E+01 0.  0.
<mgrwt>
<rscale>  0 0.12513277E+03</rscale>
<asrwt>0</asrwt>
<pdfrwt beam="2">  1        4 0.12000527E-02 0.12513277E+03</pdfrwt>
<pdfrwt beam="1">  1       -4 0.77206719E-01 0.12513277E+03</pdfrwt>
<totfact> 0.54963228E+03</totfact>
</mgrwt>
</event>
<event>
 5    1  0.3434846E-002  0.1250000E+03  0.7818608E-02  0.1235069E+00
          4   -1    0    0  501    0  0.00000000000E+00  0.00000000000E+00  0.64270980404E+02  0.64283526833E+02  0.12700000000E+01 0.  1.
         -4   -1    0    0    0  501 -0.00000000000E+00 -0.00000000000E+00 -0.60752727377E+02  0.60766000228E+02  0.12700000000E+01 0.  1.
         25    2    1    2    0    0  0.00000000000E+00  0.00000000000E+00  0.35182530268E+01  0.12504952706E+03  0.12500002446E+03 0.  0.
    9000005    1    3    3    0    0 -0.48397276487E+02  0.25394385451E+01 -0.37709081842E+02  0.61414330355E+02  0.10000000000E+01 0.  0.
    9000005    1    3    3    0    0  0.48397276487E+02 -0.25394385451E+01  0.41227334869E+02  0.63635196707E+02  0.10000000000E+01 0.  0.
<mgrwt>
<rscale>  0 0.12500002E+03</rscale>
<asrwt>0</asrwt>
<pdfrwt beam="1">  1        4 0.98898293E-02 0.12500002E+03</pdfrwt>
<pdfrwt beam="2">  1       -4 0.93485595E-02 0.12500002E+03</pdfrwt>
<totfact> 0.10451781E+04</totfact>
</mgrwt>
</event>
<event>
 5    1  0.3434846E-002  0.1249976E+03  0.7818608E-02  0.1235073E+00
         -4   -1    0    0    0  501 -0.00000000000E+00  0.00000000000E+00  0.14159556241E+04  0.14159561937E+04  0.12700000000E+01 0.  1.
          4   -1    0    0  501    0  0.00000000000E+00 -0.00000000000E+00 -0.26118636920E+01  0.29042609982E+01  0.12700000000E+01 0.  1.
         25    2    1    2    0    0  0.00000000000E+00  0.00000000000E+00  0.14133437605E+04  0.14188604547E+04  0.12499761864E+03 0.  0.
    9000005    1    3    3    0    0 -0.55484788193E+01  0.55205461928E+02  0.10330377208E+04  0.10345271196E+04  0.10000000000E+01 0.  0.
    9000005    1    3    3    0    0  0.55484788193E+01 -0.55205461928E+02  0.38030603963E+03  0.38433333504E+03  0.10000000000E+01 0.  0.
<mgrwt>
<rscale>  0 0.12499762E+03</rscale>
<asrwt>0</asrwt>
<pdfrwt beam="2">  1        4 0.42436012E-03 0.12499762E+03</pdfrwt>
<pdfrwt beam="1">  1       -4 0.21786237E+00 0.12499762E+03</pdfrwt>
<totfact> 0.19580722E+03</totfact>
</mgrwt>
</event>
<event>
 5    1  0.3434846E-002  0.1250001E+03  0.7818608E-02  0.1235069E+00
         -4   -1    0    0    0  501 -0.00000000000E+00  0.00000000000E+00  0.27846199664E+02  0.27875145484E+02  0.12700000000E+01 0.  1.
          4   -1    0    0  501    0  0.00000000000E+00 -0.00000000000E+00 -0.14017496040E+03  0.14018071345E+03  0.12700000000E+01 0.  1.
         25    2    1    2    0    0  0.00000000000E+00  0.00000000000E+00 -0.11232876073E+03  0.16805585893E+03  0.12500008493E+03 0.  0.
    9000005    1    3    3    0    0  0.41492062778E+02  0.39625463172E+02 -0.22864250528E+02  0.61770078172E+02  0.10000000000E+01 0.  0.
    9000005    1    3    3    0    0 -0.41492062778E+02 -0.39625463172E+02 -0.89464510206E+02  0.10628578076E+03  0.10000000000E+01 0.  0.
<mgrwt>
<rscale>  0 0.12500008E+03</rscale>
<asrwt>0</asrwt>
<pdfrwt beam="2">  1        4 0.21568047E-01 0.12500008E+03</pdfrwt>
<pdfrwt beam="1">  1       -4 0.42866999E-02 0.12500008E+03</pdfrwt>
<totfact> 0.95811588E+03</totfact>
</mgrwt>
</event>
<event>
 5    1  0.3434846E-002  0.1250006E+03  0.7818608E-02  0.1235068E+00
         -4   -1    0    0    0  501 -0.00000000000E+00  0.00000000000E+00  0.40941438613E+02  0.40961131524E+02  0.12700000000E+01 0.  1.
          4   -1    0    0  501    0  0.00000000000E+00 -0.00000000000E+00 -0.95364682171E+02  0.95373138281E+02  0.12700000000E+01 0.  1.
         25    2    1    2    0    0  0.00000000000E+00  0.00000000000E+00 -0.54423243558E+02  0.13633426980E+03  0.12500057473E+03 0.  0.
    9000005    1    3    3    0    0 -0.54774302961E+02 -0.18757626088E+02 -0.15585567493E+01  0.57926694196E+02  0.10000000000E+01 0.  0.
    9000005    1    3    3    0    0  0.54774302961E+02  0.18757626088E+02 -0.52864686809E+02  0.78407575608E+02  0.10000000000E+01 0.  0.
<mgrwt>
<rscale>  0 0.12500057E+03</rscale>
<asrwt>0</asrwt>
<pdfrwt beam="2">  1        4 0.14673655E-01 0.12500057E+03</pdfrwt>
<pdfrwt beam="1">  1       -4 0.63008482E-02 0.12500057E+03</pdfrwt>
<totfact> 0.10209892E+04</totfact>
</mgrwt>
</event>
<event>
 5    1  0.3434846E-002  0.1250031E+03  0.7818608E-02  0.1235064E+00
          4   -1    0    0  501    0  0.00000000000E+00  0.00000000000E+00  0.37381231813E+02  0.37402799251E+02  0.12700000000E+01 0.  1.
         -4   -1    0    0    0  501 -0.00000000000E+00 -0.00000000000E+00 -0.10444728255E+03  0.10445500339E+03  0.12700000000E+01 0.  1.
         25    2    1    2    0    0  0.00000000000E+00  0.00000000000E+00 -0.67066050741E+02  0.14185780264E+03  0.12500312399E+03 0.  0.
    9000005    1    3    3    0    0 -0.52820648625E+02 -0.10873260592E+02 -0.69369290586E+02  0.87871196609E+02  0.10000000000E+01 0.  0.
    9000005    1    3    3    0    0  0.52820648625E+02  0.10873260592E+02  0.23032398449E+01  0.53986606031E+02  0.10000000000E+01 0.  0.
<mgrwt>
<rscale>  0 0.12500312E+03</rscale>
<asrwt>0</asrwt>
<pdfrwt beam="1">  1        4 0.57532117E-02 0.12500312E+03</pdfrwt>
<pdfrwt beam="2">  1       -4 0.16071066E-01 0.12500312E+03</pdfrwt>
<totfact> 0.10094516E+04</totfact>
</mgrwt>
</event>
<event>
 5    1  0.3434846E-002  0.1249975E+03  0.7818608E-02  0.1235073E+00
         -4   -1    0    0    0  501 -0.00000000000E+00  0.00000000000E+00  0.49700491438E+01  0.51297454607E+01  0.12700000000E+01 0.  1.
          4   -1    0    0  501    0  0.00000000000E+00 -0.00000000000E+00 -0.77333915197E+03  0.77334019479E+03  0.12700000000E+01 0.  1.
         25    2    1    2    0    0  0.00000000000E+00  0.00000000000E+00 -0.76836910283E+03  0.77846994025E+03  0.12499747873E+03 0.  0.
    9000005    1    3    3    0    0 -0.30432433993E+01  0.62078349143E+02 -0.34377058670E+03  0.34934538646E+03  0.10000000000E+01 0.  0.
    9000005    1    3    3    0    0  0.30432433993E+01 -0.62078349143E+02 -0.42459851613E+03  0.42912455378E+03  0.10000000000E+01 0.  0.
<mgrwt>
<rscale>  0 0.12499748E+03</rscale>
<asrwt>0</asrwt>
<pdfrwt beam="2">  1        4 0.11898752E+00 0.12499748E+03</pdfrwt>
<pdfrwt beam="1">  1       -4 0.77698811E-03 0.12499748E+03</pdfrwt>
<totfact> 0.39246325E+03</totfact>
</mgrwt>
</event>
<event>
 5    1  0.3434846E-002  0.1250553E+03  0.7818608E-02  0.1234983E+00
         -4   -1    0    0    0  501 -0.00000000000E+00  0.00000000000E+00  0.20092014784E+02  0.20132112609E+02  0.12700000000E+01 0.  1.
          4   -1    0    0  501    0  0.00000000000E+00 -0.00000000000E+00 -0.19435388435E+03  0.19435803370E+03  0.12700000000E+01 0.  1.
         25    2    1    2    0    0  0.00000000000E+00  0.00000000000E+00 -0.17426186957E+03  0.21449014631E+03  0.12505528248E+03 0.  0.
    9000005    1    3    3    0    0  0.54679816998E+02 -0.95953811239E+01 -0.13644751822E+03  0.14731218196E+03  0.10000000000E+01 0.  0.
    9000005    1    3    3    0    0 -0.54679816998E+02  0.95953811239E+01 -0.37814351352E+02  0.67177964348E+02  0.10000000000E+01 0.  0.
<mgrwt>
<rscale>  0 0.12505528E+03</rscale>
<asrwt>0</asrwt>
<pdfrwt beam="2">  1        4 0.29904000E-01 0.12505528E+03</pdfrwt>
<pdfrwt beam="1">  1       -4 0.30944830E-02 0.12505528E+03</pdfrwt>
<totfact> 0.87639474E+03</totfact>
</mgrwt>
</event>
<event>
 5    1  0.3434846E-002  0.1250102E+03  0.7818608E-02  0.1235053E+00
          4   -1    0    0  501    0  0.00000000000E+00  0.00000000000E+00  0.10669797787E+02  0.10745114463E+02  0.12700000000E+01 0. -1.
         -4   -1    0    0    0  501 -0.00000000000E+00 -0.00000000000E+00 -0.36479912976E+03  0.36480134042E+03  0.12700000000E+01 0. -1.
         25    2    1    2    0    0  0.00000000000E+00  0.00000000000E+00 -0.35412933197E+03  0.37554645488E+03  0.12501022363E+03 0.  0.
    9000005    1    3    3    0    0  0.23208399819E+01 -0.23846693646E+02 -0.36602844050E+01  0.24257963187E+02  0.10000000000E+01 0.  0.
    9000005    1    3    3    0    0 -0.23208399819E+01  0.23846693646E+02 -0.35046904757E+03  0.35128849170E+03  0.10000000000E+01 0.  0.
<mgrwt>
<rscale>  0 0.12501022E+03</rscale>
<asrwt>0</asrwt>
<pdfrwt beam="1">  1        4 0.16474713E-02 0.12501022E+03</pdfrwt>
<pdfrwt beam="2">  1       -4 0.56128897E-01 0.12501022E+03</pdfrwt>
<totfact> 0.66987505E+03</totfact>
</mgrwt>
</event>
<event>
 5    1  0.3434846E-002  0.1250006E+03  0.7818608E-02  0.1235068E+00
          4   -1    0    0  501    0  0.00000000000E+00  0.00000000000E+00  0.34391522699E+02  0.34414963803E+02  0.12700000000E+01 0.  1.
         -4   -1    0    0    0  501 -0.00000000000E+00 -0.00000000000E+00 -0.11351717083E+03  0.11352427481E+03  0.12700000000E+01 0.  1.
         25    2    1    2    0    0  0.00000000000E+00  0.00000000000E+00 -0.79125648126E+02  0.14793923862E+03  0.12500060052E+03 0.  0.
    9000005    1    3    3    0    0 -0.44907568813E+02  0.30264923718E+02 -0.76472956105E+02  0.93711089844E+02  0.10000000000E+01 0.  0.
    9000005    1    3    3    0    0  0.44907568813E+02 -0.30264923718E+02 -0.26526920211E+01  0.54228148773E+02  0.10000000000E+01 0.  0.
<mgrwt>
<rscale>  0 0.12500060E+03</rscale>
<asrwt>0</asrwt>
<pdfrwt beam="1">  1        4 0.52933532E-02 0.12500060E+03</pdfrwt>
<pdfrwt beam="2">  1       -4 0.17466530E-01 0.12500060E+03</pdfrwt>
<totfact> 0.99714729E+03</totfact>
</mgrwt>
</event>
<event>
 5    1  0.3434846E-002  0.1250113E+03  0.7818608E-02  0.1235052E+00
          4   -1    0    0  501    0  0.00000000000E+00  0.00000000000E+00  0.21835991311E+02  0.21872892277E+02  0.12700000000E+01 0. -1.
         -4   -1    0    0    0  501 -0.00000000000E+00 -0.00000000000E+00 -0.17873249099E+03  0.17873700299E+03  0.12700000000E+01 0. -1.
         25    2    1    2    0    0  0.00000000000E+00  0.00000000000E+00 -0.15689649968E+03  0.20060989526E+03  0.12501127335E+03 0.  0.
    9000005    1    3    3    0    0  0.64540057106E+01 -0.72319967095E+01  0.20630277178E+02  0.22815878299E+02  0.10000000000E+01 0.  0.
    9000005    1    3    3    0    0 -0.64540057106E+01  0.72319967095E+01 -0.17752677686E+03  0.17779401696E+03  0.10000000000E+01 0.  0.
<mgrwt>
<rscale>  0 0.12501127E+03</rscale>
<asrwt>0</asrwt>
<pdfrwt beam="1">  1        4 0.33625690E-02 0.12501127E+03</pdfrwt>
<pdfrwt beam="2">  1       -4 0.27500491E-01 0.12501127E+03</pdfrwt>
<totfact> 0.90010038E+03</totfact>
</mgrwt>
</event>
<event>
 5    1  0.3434846E-002  0.1250216E+03  0.7818608E-02  0.1235036E+00
         -4   -1    0    0    0  501 -0.00000000000E+00  0.00000000000E+00  0.18906172924E+02  0.18948780294E+02  0.12700000000E+01 0.  1.
          4   -1    0    0  501    0  0.00000000000E+00 -0.00000000000E+00 -0.20640650779E+03  0.20641041485E+03  0.12700000000E+01 0.  1.
         25    2    1    2    0    0  0.00000000000E+00  0.00000000000E+00 -0.18750033487E+03  0.22535919514E+03  0.12502156318E+03 0.  0.
    9000005    1    3    3    0    0 -0.34220878129E+02  0.49995506296E+02 -0.66059926890E+02  0.89641135036E+02  0.10000000000E+01 0.  0.
    9000005    1    3    3    0    0  0.34220878129E+02 -0.49995506296E+02 -0.12144040798E+03  0.13571806011E+03  0.10000000000E+01 0.  0.
<mgrwt>
<rscale>  0 0.12502156E+03</rscale>
<asrwt>0</asrwt>
<pdfrwt beam="2">  1        4 0.31758424E-01 0.12502156E+03</pdfrwt>
<pdfrwt beam="1">  1       -4 0.29122202E-02 0.12502156E+03</pdfrwt>
<totfact> 0.85985938E+03</totfact>
</mgrwt>
</event>
<event>
 5    1  0.3434846E-002  0.1249991E+03  0.7818608E-02  0.1235071E+00
         -4   -1    0    0    0  501 -0.00000000000E+00  0.00000000000E+00  0.57723074037E+02  0.57737043362E+02  0.12700000000E+01 0. -1.
          4   -1    0    0  501    0  0.00000000000E+00 -0.00000000000E+00 -0.67643136911E+02  0.67655057987E+02  0.12700000000E+01 0. -1.
         25    2    1    2    0    0  0.00000000000E+00  0.00000000000E+00 -0.99200628745E+01  0.12539210135E+03  0.12499908573E+03 0.  0.
    9000005    1    3    3    0    0  0.48578781810E+01  0.19508163785E+02 -0.64315532593E+02  0.67391803414E+02  0.10000000000E+01 0.  0.
    9000005    1    3    3    0    0 -0.48578781810E+01 -0.19508163785E+02  0.54395469718E+02  0.58000297935E+02  0.10000000000E+01 0.  0.
<mgrwt>
<rscale>  0 0.12499909E+03</rscale>
<asrwt>0</asrwt>
<pdfrwt beam="2">  1        4 0.10408628E-01 0.12499909E+03</pdfrwt>
<pdfrwt beam="1">  1       -4 0.88824645E-02 0.12499909E+03</pdfrwt>
<totfact> 0.10444557E+04</totfact>
</mgrwt>
</event>
<event>
 5    1  0.3434846E-002  0.1250031E+03  0.7818608E-02  0.1235064E+00
          4   -1    0    0  501    0  0.00000000000E+00  0.00000000000E+00  0.43529350888E+02  0.43547873527E+02  0.12700000000E+01 0. -1.
         -4   -1    0    0    0  501 -0.00000000000E+00 -0.00000000000E+00 -0.89700713668E+02  0.89709703670E+02  0.12700000000E+01 0. -1.
         25    2    1    2    0    0  0.00000000000E+00  0.00000000000E+00 -0.46171362781E+02  0.13325757720E+03  0.12500314852E+03 0.  0.
    9000005    1    3    3    0    0  0.23926296229E+02 -0.35481473509E+02 -0.71634644818E+02  0.83450134523E+02  0.10000000000E+01 0.  0.
    9000005    1    3    3    0    0 -0.23926296229E+02  0.35481473509E+02  0.25463282037E+02  0.49807442674E+02  0.10000000000E+01 0.  0.
<mgrwt>
<rscale>  0 0.12500315E+03</rscale>
<asrwt>0</asrwt>
<pdfrwt beam="1">  1        4 0.66989396E-02 0.12500315E+03</pdfrwt>
<pdfrwt beam="2">  1       -4 0.13802226E-01 0.12500315E+03</pdfrwt>
<totfact> 0.10274199E+04</totfact>
</mgrwt>
</event>
<event>
 5    1  0.3434846E-002  0.1249925E+03  0.7818608E-02  0.1235081E+00
         -4   -1    0    0    0  501 -0.00000000000E+00  0.00000000000E+00  0.22810414470E+03  0.22810768012E+03  0.12700000000E+01 0. -1.
          4   -1    0    0  501    0  0.00000000000E+00 -0.00000000000E+00 -0.17095570311E+02  0.17142678444E+02  0.12700000000E+01 0. -1.
         25    2    1    2    0    0  0.00000000000E+00  0.00000000000E+00  0.21100857439E+03  0.24525035856E+03  0.12499247941E+03 0.  0.
    9000005    1    3    3    0    0  0.30388026324E+02 -0.95557838560E+01  0.22542077444E-01  0.31870764929E+02  0.10000000000E+01 0.  0.
    9000005    1    3    3    0    0 -0.30388026324E+02  0.95557838560E+01  0.21098603231E+03  0.21337959364E+03  0.10000000000E+01 0.  0.
<mgrwt>
<rscale>  0 0.12499248E+03</rscale>
<asrwt>0</asrwt>
<pdfrwt beam="2">  1        4 0.26339833E-02 0.12499248E+03</pdfrwt>
<pdfrwt beam="1">  1       -4 0.35096843E-01 0.12499248E+03</pdfrwt>
<totfact> 0.83035494E+03</totfact>
</mgrwt>
</event>
<event>
 5    1  0.3434846E-002  0.1249912E+03  0.7818608E-02  0.1235083E+00
          4   -1    0    0  501    0  0.00000000000E+00  0.00000000000E+00  0.15284689842E+03  0.15285217452E+03  0.12700000000E+01 0.  1.
         -4   -1    0    0    0  501 -0.00000000000E+00 -0.00000000000E+00 -0.25531525717E+02  0.25563092642E+02  0.12700000000E+01 0.  1.
         25    2    1    2    0    0  0.00000000000E+00  0.00000000000E+00  0.12731537270E+03  0.17841526717E+03  0.12499121342E+03 0.  0.
    9000005    1    3    3    0    0 -0.44584216103E+02  0.22004239634E+02  0.11768825685E+03  0.12776331511E+03  0.10000000000E+01 0.  0.
    9000005    1    3    3    0    0  0.44584216103E+02 -0.22004239634E+02  0.96271158514E+01  0.50651952055E+02  0.10000000000E+01 0.  0.
<mgrwt>
<rscale>  0 0.12499121E+03</rscale>
<asrwt>0</asrwt>
<pdfrwt beam="1">  1        4 0.23517742E-01 0.12499121E+03</pdfrwt>
<pdfrwt beam="2">  1       -4 0.39307610E-02 0.12499121E+03</pdfrwt>
<totfact> 0.93921545E+03</totfact>
</mgrwt>
</event>
<event>
 5    1  0.3434846E-002  0.1250010E+03  0.7818608E-02  0.1235068E+00
          4   -1    0    0  501    0  0.00000000000E+00  0.00000000000E+00  0.12694505443E+03  0.12695140702E+03  0.12700000000E+01 0.  1.
         -4   -1    0    0    0  501 -0.00000000000E+00 -0.00000000000E+00 -0.30751448097E+02  0.30777661706E+02  0.12700000000E+01 0.  1.
         25    2    1    2    0    0  0.00000000000E+00  0.00000000000E+00  0.96193606332E+02  0.15772906872E+03  0.12500099688E+03 0.  0.
    9000005    1    3    3    0    0 -0.31369240779E+02  0.31245635835E+02 -0.75521905031E+01  0.44926101624E+02  0.10000000000E+01 0.  0.
    9000005    1    3    3    0    0  0.31369240779E+02 -0.31245635835E+02  0.10374579684E+03  0.11280296710E+03  0.10000000000E+01 0.  0.
<mgrwt>
<rscale>  0 0.12500100E+03</rscale>
<asrwt>0</asrwt>
<pdfrwt beam="1">  1        4 0.19532513E-01 0.12500100E+03</pdfrwt>
<pdfrwt beam="2">  1       -4 0.47334972E-02 0.12500100E+03</pdfrwt>
<totfact> 0.97780206E+03</totfact>
</mgrwt>
</event>
<event>
 5    1  0.3434846E-002  0.1249961E+03  0.7818608E-02  0.1235075E+00
         -4   -1    0    0    0  501 -0.00000000000E+00  0.00000000000E+00  0.33844551778E+02  0.33868371455E+02  0.12700000000E+01 0. -1.
          4   -1    0    0  501    0  0.00000000000E+00 -0.00000000000E+00 -0.11534230318E+03  0.11534929477E+03  0.12700000000E+01 0. -1.
         25    2    1    2    0    0  0.00000000000E+00  0.00000000000E+00 -0.81497751402E+02  0.14921766622E+03  0.12499611365E+03 0.  0.
    9000005    1    3    3    0    0 -0.38814424795E+02  0.47660695833E+02 -0.54197075095E+02  0.81953794593E+02  0.10000000000E+01 0.  0.
    9000005    1    3    3    0    0  0.38814424795E+02 -0.47660695833E+02 -0.27300676307E+02  0.67263871627E+02  0.10000000000E+01 0.  0.
<mgrwt>
<rscale>  0 0.12499611E+03</rscale>
<asrwt>0</asrwt>
<pdfrwt beam="2">  1        4 0.17747340E-01 0.12499611E+03</pdfrwt>
<pdfrwt beam="1">  1       -4 0.52092243E-02 0.12499611E+03</pdfrwt>
<totfact> 0.99468574E+03</totfact>
</mgrwt>
</event>
<event>
 5    1  0.3434846E-002  0.1250040E+03  0.7818608E-02  0.1235063E+00
          4   -1    0    0  501    0  0.00000000000E+00  0.00000000000E+00  0.22134570211E+03  0.22134934548E+03  0.12700000000E+01 0.  1.
         -4   -1    0    0    0  501 -0.00000000000E+00 -0.00000000000E+00 -0.17622218008E+02  0.17667921992E+02  0.12700000000E+01 0.  1.
         25    2    1    2    0    0  0.00000000000E+00  0.00000000000E+00  0.20372348411E+03  0.23901726747E+03  0.12500398463E+03 0.  0.
    9000005    1    3    3    0    0 -0.61964960088E+02  0.54834394065E+01  0.90425241394E+02  0.10976087038E+03  0.10000000000E+01 0.  0.
    9000005    1    3    3    0    0  0.61964960088E+02 -0.54834394065E+01  0.11329824271E+03  0.12925639709E+03  0.10000000000E+01 0.  0.
<mgrwt>
<rscale>  0 0.12500398E+03</rscale>
<asrwt>0</asrwt>
<pdfrwt beam="1">  1        4 0.34056977E-01 0.12500398E+03</pdfrwt>
<pdfrwt beam="2">  1       -4 0.27149067E-02 0.12500398E+03</pdfrwt>
<totfact> 0.83936491E+03</totfact>
</mgrwt>
</event>
<event>
 5    1  0.3434846E-002  0.1250009E+03  0.7818608E-02  0.1235068E+00
         -4   -1    0    0    0  501 -0.00000000000E+00  0.00000000000E+00  0.54184196394E+01  0.55652647187E+01  0.12700000000E+01 0.  1.
          4   -1    0    0  501    0  0.00000000000E+00 -0.00000000000E+00 -0.71114504703E+03  0.71114618104E+03  0.12700000000E+01 0.  1.
         25    2    1    2    0    0  0.00000000000E+00  0.00000000000E+00 -0.70572662739E+03  0.71671144576E+03  0.12500089552E+03 0.  0.
    9000005    1    3    3    0    0 -0.68764535172E+00  0.54769478152E+02 -0.52536306185E+03  0.52821161986E+03  0.10000000000E+01 0.  0.
    9000005    1    3    3    0    0  0.68764535172E+00 -0.54769478152E+02 -0.18036356553E+03  0.18849982590E+03  0.10000000000E+01 0.  0.
<mgrwt>
<rscale>  0 0.12500090E+03</rscale>
<asrwt>0</asrwt>
<pdfrwt beam="2">  1        4 0.10941824E+00 0.12500090E+03</pdfrwt>
<pdfrwt beam="1">  1       -4 0.84498659E-03 0.12500090E+03</pdfrwt>
<totfact> 0.42218272E+03</totfact>
</mgrwt>
</event>
<event>
 5    1  0.3434846E-002  0.1249976E+03  0.7818608E-02  0.1235073E+00
         -4   -1    0    0    0  501 -0.00000000000E+00  0.00000000000E+00  0.83101528668E+02  0.83111232496E+02  0.12700000000E+01 0. -1.
          4   -1    0    0  501    0  0.00000000000E+00 -0.00000000000E+00 -0.46982892032E+02  0.47000053656E+02  0.12700000000E+01 0. -1.
         25    2    1    2    0    0  0.00000000000E+00  0.00000000000E+00  0.36118636636E+02  0.13011128615E+03  0.12499756346E+03 0.  0.
    9000005    1    3    3    0    0 -0.53225397533E+02  0.17647889503E+02 -0.10649945982E+02  0.57086007882E+02  0.10000000000E+01 0.  0.
    9000005    1    3    3    0    0  0.53225397533E+02 -0.17647889503E+02  0.46768582618E+02  0.73025278271E+02  0.10000000000E+01 0.  0.
<mgrwt>
<rscale>  0 0.12499756E+03</rscale>
<asrwt>0</asrwt>
<pdfrwt beam="2">  1        4 0.72302038E-02 0.12499756E+03</pdfrwt>
<pdfrwt beam="1">  1       -4 0.12786917E-01 0.12499756E+03</pdfrwt>
<totfact> 0.10342696E+04</totfact>
</mgrwt>
</event>
<event>
 5    1  0.3434846E-002  0.1249991E+03  0.7818608E-02  0.1235071E+00
          4   -1    0    0  501    0  0.00000000000E+00  0.00000000000E+00  0.26282958123E+02  0.26313623614E+02  0.12700000000E+01 0. -1.
         -4   -1    0    0    0  501 -0.00000000000E+00 -0.00000000000E+00 -0.14850080651E+03  0.14850623702E+03  0.12700000000E+01 0. -1.
         25    2    1    2    0    0  0.00000000000E+00  0.00000000000E+00 -0.12221784839E+03  0.17481986063E+03  0.12499912483E+03 0.  0.
    9000005    1    3    3    0    0  0.10840138209E+02 -0.11151845387E+02 -0.14575784130E+03  0.14658860990E+03  0.10000000000E+01 0.  0.
    9000005    1    3    3    0    0 -0.10840138209E+02  0.11151845387E+02  0.23539992911E+02  0.28231250737E+02  0.10000000000E+01 0.  0.
<mgrwt>
<rscale>  0 0.12499912E+03</rscale>
<asrwt>0</asrwt>
<pdfrwt beam="1">  1        4 0.40463087E-02 0.12499912E+03</pdfrwt>
<pdfrwt beam="2">  1       -4 0.22849054E-01 0.12499912E+03</pdfrwt>
<totfact> 0.94559700E+03</totfact>
</mgrwt>
</event>
<event>
 5    1  0.3434846E-002  0.1249921E+03  0.7818608E-02  0.1235082E+00
         -4   -1    0    0    0  501 -0.00000000000E+00  0.00000000000E+00  0.20642705724E+03  0.20643096391E+03  0.12700000000E+01 0. -1.
          4   -1    0    0  501    0  0.00000000000E+00 -0.00000000000E+00 -0.18895361159E+02  0.18937992853E+02  0.12700000000E+01 0. -1.
         25    2    1    2    0    0  0.00000000000E+00  0.00000000000E+00  0.18753169608E+03  0.22536895676E+03  0.12499211830E+03 0.  0.
    9000005    1    3    3    0    0 -0.58550438020E+01 -0.51401743403E+02  0.15695902222E+03  0.16526813189E+03  0.10000000000E+01 0.  0.
    9000005    1    3    3    0    0  0.58550438020E+01  0.51401743403E+02  0.30572673855E+02  0.60100824865E+02  0.10000000000E+01 0.  0.
<mgrwt>
<rscale>  0 0.12499212E+03</rscale>
<asrwt>0</asrwt>
<pdfrwt beam="2">  1        4 0.29105585E-02 0.12499212E+03</pdfrwt>
<pdfrwt beam="1">  1       -4 0.31761589E-01 0.12499212E+03</pdfrwt>
<totfact> 0.86040943E+03</totfact>
</mgrwt>
</event>
<event>
 5    1  0.3434846E-002  0.1249989E+03  0.7818608E-02  0.1235071E+00
         -4   -1    0    0    0  501 -0.00000000000E+00  0.00000000000E+00  0.38550330980E+02  0.38571244713E+02  0.12700000000E+01 0. -1.
          4   -1    0    0  501    0  0.00000000000E+00 -0.00000000000E+00 -0.10127436517E+03  0.10128232788E+03  0.12700000000E+01 0. -1.
         25    2    1    2    0    0  0.00000000000E+00  0.00000000000E+00 -0.62724034189E+02  0.13985357259E+03  0.12499886920E+03 0.  0.
    9000005    1    3    3    0    0  0.13637658861E+02 -0.75447858928E+01  0.36346398022E+02  0.39559704025E+02  0.10000000000E+01 0.  0.
    9000005    1    3    3    0    0 -0.13637658861E+02  0.75447858928E+01 -0.99070432211E+02  0.10029386857E+03  0.10000000000E+01 0.  0.
<mgrwt>
<rscale>  0 0.12499887E+03</rscale>
<asrwt>0</asrwt>
<pdfrwt beam="2">  1        4 0.15582893E-01 0.12499887E+03</pdfrwt>
<pdfrwt beam="1">  1       -4 0.59330414E-02 0.12499887E+03</pdfrwt>
<totfact> 0.10136880E+04</totfact>
</mgrwt>
</event>
<event>
 5    1  0.3434846E-002  0.1249802E+03  0.7818608E-02  0.1235100E+00
          4   -1    0    0  501    0  0.00000000000E+00  0.00000000000E+00  0.93776997119E+02  0.93785596382E+02  0.12700000000E+01 0.  1.
         -4   -1    0    0    0  501 -0.00000000000E+00 -0.00000000000E+00 -0.41621301768E+02  0.41640673156E+02  0.12700000000E+01 0.  1.
         25    2    1    2    0    0  0.00000000000E+00  0.00000000000E+00  0.52155695351E+02  0.13542626954E+03  0.12498023013E+03 0.  0.
    9000005    1    3    3    0    0 -0.30854874826E+02  0.50310823503E+02  0.48306122942E+02  0.76273742374E+02  0.10000000000E+01 0.  0.
    9000005    1    3    3    0    0  0.30854874826E+02 -0.50310823503E+02  0.38495724089E+01  0.59152527164E+02  0.10000000000E+01 0.  0.
<mgrwt>
<rscale>  0 0.12498023E+03</rscale>
<asrwt>0</asrwt>
<pdfrwt beam="1">  1        4 0.14429382E-01 0.12498023E+03</pdfrwt>
<pdfrwt beam="2">  1       -4 0.64054288E-02 0.12498023E+03</pdfrwt>
<totfact> 0.10233656E+04</totfact>
</mgrwt>
</event>
<event>
 5    1  0.3434846E-002  0.1250029E+03  0.7818608E-02  0.1235065E+00
          4   -1    0    0  501    0  0.00000000000E+00  0.00000000000E+00  0.77146275052E+02  0.77156727862E+02  0.12700000000E+01 0. -1.
         -4   -1    0    0    0  501 -0.00000000000E+00 -0.00000000000E+00 -0.50614863072E+02  0.50630793632E+02  0.12700000000E+01 0. -1.
         25    2    1    2    0    0  0.00000000000E+00  0.00000000000E+00  0.26531411980E+02  0.12778752149E+03  0.12500293928E+03 0.  0.
    9000005    1    3    3    0    0 -0.61779715286E+02  0.88079607434E+01  0.16674703962E+02  0.64601541355E+02  0.10000000000E+01 0.  0.
    9000005    1    3    3    0    0  0.61779715286E+02 -0.88079607434E+01  0.98567080180E+01  0.63185980140E+02  0.10000000000E+01 0.  0.
<mgrwt>
<rscale>  0 0.12500294E+03</rscale>
<asrwt>0</asrwt>
<pdfrwt beam="1">  1        4 0.11870687E-01 0.12500294E+03</pdfrwt>
<pdfrwt beam="2">  1       -4 0.77889315E-02 0.12500294E+03</pdfrwt>
<totfact> 0.10391389E+04</totfact>
</mgrwt>
</event>
<event>
 5    1  0.3434846E-002  0.1249982E+03  0.7818608E-02  0.1235072E+00
          4   -1    0    0  501    0  0.00000000000E+00  0.00000000000E+00  0.19019546565E+03  0.19019970572E+03  0.12700000000E+01 0. -1.
         -4   -1    0    0    0  501 -0.00000000000E+00 -0.00000000000E+00 -0.20513380283E+02  0.20552656048E+02  0.12700000000E+01 0. -1.
         25    2    1    2    0    0  0.00000000000E+00  0.00000000000E+00  0.16968208537E+03  0.21075236177E+03  0.12499819156E+03 0.  0.
    9000005    1    3    3    0    0 -0.49249089932E+02 -0.13487877634E+02  0.24102722225E+02  0.56474214654E+02  0.10000000000E+01 0.  0.
    9000005    1    3    3    0    0  0.49249089932E+02  0.13487877634E+02  0.14557936315E+03  0.15427814711E+03  0.10000000000E+01 0.  0.
<mgrwt>
<rscale>  0 0.12499819E+03</rscale>
<asrwt>0</asrwt>
<pdfrwt beam="1">  1        4 0.29264188E-01 0.12499819E+03</pdfrwt>
<pdfrwt beam="2">  1       -4 0.31592521E-02 0.12499819E+03</pdfrwt>
<totfact> 0.88356730E+03</totfact>
</mgrwt>
</event>
<event>
 5    1  0.3434846E-002  0.1250005E+03  0.7818608E-02  0.1235068E+00
         -4   -1    0    0    0  501 -0.00000000000E+00  0.00000000000E+00  0.59395098418E+02  0.59408674586E+02  0.12700000000E+01 0.  1.
          4   -1    0    0  501    0  0.00000000000E+00 -0.00000000000E+00 -0.65740527803E+02  0.65752793825E+02  0.12700000000E+01 0.  1.
         25    2    1    2    0    0  0.00000000000E+00  0.00000000000E+00 -0.63454293850E+01  0.12516146841E+03  0.12500051480E+03 0.  0.
    9000005    1    3    3    0    0  0.32312431462E+01  0.49614664216E+01 -0.65463952412E+02  0.65738772021E+02  0.10000000000E+01 0.  0.
    9000005    1    3    3    0    0 -0.32312431462E+01 -0.49614664216E+01  0.59118523027E+02  0.59422696390E+02  0.10000000000E+01 0.  0.
<mgrwt>
<rscale>  0 0.12500051E+03</rscale>
<asrwt>0</asrwt>
<pdfrwt beam="2">  1        4 0.10115915E-01 0.12500051E+03</pdfrwt>
<pdfrwt beam="1">  1       -4 0.91396953E-02 0.12500051E+03</pdfrwt>
<totfact> 0.10449235E+04</totfact>
</mgrwt>
</event>
<event>
 5    1  0.3434846E-002  0.1250111E+03  0.7818608E-02  0.1235052E+00
          4   -1    0    0  501    0  0.00000000000E+00  0.00000000000E+00  0.71477116885E+02  0.71488398626E+02  0.12700000000E+01 0. -1.
         -4   -1    0    0    0  501 -0.00000000000E+00 -0.00000000000E+00 -0.54637051336E+02  0.54651809473E+02  0.12700000000E+01 0. -1.
         25    2    1    2    0    0  0.00000000000E+00  0.00000000000E+00  0.16840065549E+02  0.12614020810E+03  0.12501105668E+03 0.  0.
    9000005    1    3    3    0    0  0.14225776280E+02 -0.16937166286E+02 -0.50560486136E+02  0.55196042167E+02  0.10000000000E+01 0.  0.
    9000005    1    3    3    0    0 -0.14225776280E+02  0.16937166286E+02  0.67400551684E+02  0.70944165933E+02  0.10000000000E+01 0.  0.
<mgrwt>
<rscale>  0 0.12501106E+03</rscale>
<asrwt>0</asrwt>
<pdfrwt beam="1">  1        4 0.10998483E-01 0.12501106E+03</pdfrwt>
<pdfrwt beam="2">  1       -4 0.84077033E-02 0.12501106E+03</pdfrwt>
<totfact> 0.10425285E+04</totfact>
</mgrwt>
</event>
<event>
 5    1  0.3434846E-002  0.1249987E+03  0.7818608E-02  0.1235071E+00
          4   -1    0    0  501    0  0.00000000000E+00  0.00000000000E+00  0.56089717996E+02  0.56104094011E+02  0.12700000000E+01 0. -1.
         -4   -1    0    0    0  501 -0.00000000000E+00 -0.00000000000E+00 -0.69612336712E+02  0.69623920620E+02  0.12700000000E+01 0. -1.
         25    2    1    2    0    0  0.00000000000E+00  0.00000000000E+00 -0.13522618716E+02  0.12572801463E+03  0.12499868978E+03 0.  0.
    9000005    1    3    3    0    0  0.42452870692E+02  0.91541845233E+01 -0.51958137949E+02  0.67725131402E+02  0.10000000000E+01 0.  0.
    9000005    1    3    3    0    0 -0.42452870692E+02 -0.91541845233E+01  0.38435519233E+02  0.58002883230E+02  0.10000000000E+01 0.  0.
<mgrwt>
<rscale>  0 0.12499869E+03</rscale>
<asrwt>0</asrwt>
<pdfrwt beam="1">  1        4 0.86311843E-02 0.12499869E+03</pdfrwt>
<pdfrwt beam="2">  1       -4 0.10711587E-01 0.12499869E+03</pdfrwt>
<totfact> 0.10437236E+04</totfact>
</mgrwt>
</event>
<event>
 5    1  0.3434846E-002  0.1250078E+03  0.7818608E-02  0.1235057E+00
          4   -1    0    0  501    0  0.00000000000E+00  0.00000000000E+00  0.30634661985E+02  0.30660975440E+02  0.12700000000E+01 0. -1.
         -4   -1    0    0    0  501 -0.00000000000E+00 -0.00000000000E+00 -0.12744246672E+03  0.12744879452E+03  0.12700000000E+01 0. -1.
         25    2    1    2    0    0  0.00000000000E+00  0.00000000000E+00 -0.96807804737E+02  0.15810976996E+03  0.12500779295E+03 0.  0.
    9000005    1    3    3    0    0 -0.27112293056E+02  0.54517062778E+02 -0.66225930224E+02  0.89966996186E+02  0.10000000000E+01 0.  0.
    9000005    1    3    3    0    0  0.27112293056E+02 -0.54517062778E+02 -0.30581874514E+02  0.68142773773E+02  0.10000000000E+01 0.  0.
<mgrwt>
<rscale>  0 0.12500779E+03</rscale>
<asrwt>0</asrwt>
<pdfrwt beam="1">  1        4 0.47155359E-02 0.12500779E+03</pdfrwt>
<pdfrwt beam="2">  1       -4 0.19609044E-01 0.12500779E+03</pdfrwt>
<totfact> 0.97691332E+03</totfact>
</mgrwt>
</event>
<event>
 5    1  0.3434846E-002  0.1250061E+03  0.7818608E-02  0.1235060E+00
         -4   -1    0    0    0  501 -0.00000000000E+00  0.00000000000E+00  0.26326354272E+03  0.26326660598E+03  0.12700000000E+01 0. -1.
          4   -1    0    0  501    0  0.00000000000E+00 -0.00000000000E+00 -0.14808915196E+02  0.14863272495E+02  0.12700000000E+01 0. -1.
         25    2    1    2    0    0  0.00000000000E+00  0.00000000000E+00  0.24845462753E+03  0.27812987848E+03  0.12500610931E+03 0.  0.
    9000005    1    3    3    0    0 -0.56252815225E+02  0.25353387905E+02  0.10215018113E+03  0.11934334084E+03  0.10000000000E+01 0.  0.
    9000005    1    3    3    0    0  0.56252815225E+02 -0.25353387905E+02  0.14630444640E+03  0.15878653764E+03  0.10000000000E+01 0.  0.
<mgrwt>
<rscale>  0 0.12500611E+03</rscale>
<asrwt>0</asrwt>
<pdfrwt beam="2">  1        4 0.22827115E-02 0.12500611E+03</pdfrwt>
<pdfrwt beam="1">  1       -4 0.40506502E-01 0.12500611E+03</pdfrwt>
<totfact> 0.78416071E+03</totfact>
</mgrwt>
</event>
<event>
 5    1  0.3434846E-002  0.1250012E+03  0.7818608E-02  0.1235067E+00
         -4   -1    0    0    0  501 -0.00000000000E+00  0.00000000000E+00  0.12292977997E+03  0.12293634004E+03  0.12700000000E+01 0.  1.
          4   -1    0    0  501    0  0.00000000000E+00 -0.00000000000E+00 -0.31756780675E+02  0.31782165106E+02  0.12700000000E+01 0.  1.
         25    2    1    2    0    0  0.00000000000E+00  0.00000000000E+00  0.91172999294E+02  0.15471850515E+03  0.12500120014E+03 0.  0.
    9000005    1    3    3    0    0 -0.32378861136E+02  0.28078732192E+02 -0.10706948571E+02  0.44186475280E+02  0.10000000000E+01 0.  0.
    9000005    1    3    3    0    0  0.32378861136E+02 -0.28078732192E+02  0.10187994787E+03  0.11053202987E+03  0.10000000000E+01 0.  0.
<mgrwt>
<rscale>  0 0.12500120E+03</rscale>
<asrwt>0</asrwt>
<pdfrwt beam="2">  1        4 0.48881158E-02 0.12500120E+03</pdfrwt>
<pdfrwt beam="1">  1       -4 0.18914731E-01 0.12500120E+03</pdfrwt>
<totfact> 0.98368133E+03</totfact>
</mgrwt>
</event>
<event>
 5    1  0.3434846E-002  0.1249946E+03  0.7818608E-02  0.1235078E+00
          4   -1    0    0  501    0  0.00000000000E+00  0.00000000000E+00  0.22247200751E+02  0.22283420771E+02  0.12700000000E+01 0. -1.
         -4   -1    0    0    0  501 -0.00000000000E+00 -0.00000000000E+00 -0.17538729162E+03  0.17539188966E+03  0.12700000000E+01 0. -1.
         25    2    1    2    0    0  0.00000000000E+00  0.00000000000E+00 -0.15314009086E+03  0.19767531044E+03  0.12499456359E+03 0.  0.
    9000005    1    3    3    0    0  0.39810564958E+02 -0.31535443191E+02 -0.13414830567E+03  0.14344383282E+03  0.10000000000E+01 0.  0.
    9000005    1    3    3    0    0 -0.39810564958E+02  0.31535443191E+02 -0.18991785194E+02  0.54231477616E+02  0.10000000000E+01 0.  0.
<mgrwt>
<rscale>  0 0.12499456E+03</rscale>
<asrwt>0</asrwt>
<pdfrwt beam="1">  1        4 0.34257862E-02 0.12499456E+03</pdfrwt>
<pdfrwt beam="2">  1       -4 0.26985799E-01 0.12499456E+03</pdfrwt>
<totfact> 0.90539737E+03</totfact>
</mgrwt>
</event>
<event>
 5    1  0.3434846E-002  0.1249906E+03  0.7818608E-02  0.1235084E+00
         -4   -1    0    0    0  501 -0.00000000000E+00  0.00000000000E+00  0.12565349929E+03  0.12565991717E+03  0.12700000000E+01 0.  1.
          4   -1    0    0  501    0  0.00000000000E+00 -0.00000000000E+00 -0.31062595260E+02  0.31088546513E+02  0.12700000000E+01 0.  1.
         25    2    1    2    0    0  0.00000000000E+00  0.00000000000E+00  0.94590904031E+02  0.15674846369E+03  0.12499056662E+03 0.  0.
    9000005    1    3    3    0    0 -0.13303474367E+01  0.59694258153E+01 -0.30692505944E+02  0.31311879375E+02  0.10000000000E+01 0.  0.
    9000005    1    3    3    0    0  0.13303474367E+01 -0.59694258153E+01  0.12528340998E+03  0.12543658431E+03  0.10000000000E+01 0.  0.
<mgrwt>
<rscale>  0 0.12499057E+03</rscale>
<asrwt>0</asrwt>
<pdfrwt beam="2">  1        4 0.47813508E-02 0.12499057E+03</pdfrwt>
<pdfrwt beam="1">  1       -4 0.19333797E-01 0.12499057E+03</pdfrwt>
<totfact> 0.97994127E+03</totfact>
</mgrwt>
</event>
<event>
 5    1  0.3434846E-002  0.1249980E+03  0.7818608E-02  0.1235072E+00
          4   -1    0    0  501    0  0.00000000000E+00  0.00000000000E+00  0.10720604160E+03  0.10721356376E+03  0.12700000000E+01 0. -1.
         -4   -1    0    0    0  501 -0.00000000000E+00 -0.00000000000E+00 -0.36415785735E+02  0.36437924621E+02  0.12700000000E+01 0. -1.
         25    2    1    2    0    0  0.00000000000E+00  0.00000000000E+00  0.70790255864E+02  0.14365148839E+03  0.12499795914E+03 0.  0.
    9000005    1    3    3    0    0 -0.32298455997E+02  0.50090232255E+02  0.56984178413E+02  0.82464648283E+02  0.10000000000E+01 0.  0.
    9000005    1    3    3    0    0  0.32298455997E+02 -0.50090232255E+02  0.13806077451E+02  0.61186840102E+02  0.10000000000E+01 0.  0.
<mgrwt>
<rscale>  0 0.12499796E+03</rscale>
<asrwt>0</asrwt>
<pdfrwt beam="1">  1        4 0.16495519E-01 0.12499796E+03</pdfrwt>
<pdfrwt beam="2">  1       -4 0.56047102E-02 0.12499796E+03</pdfrwt>
<totfact> 0.10058922E+04</totfact>
</mgrwt>
</event>
<event>
 5    1  0.3434846E-002  0.1249965E+03  0.7818608E-02  0.1235075E+00
         -4   -1    0    0    0  501 -0.00000000000E+00  0.00000000000E+00  0.11816113379E+04  0.11816120204E+04  0.12700000000E+01 0. -1.
          4   -1    0    0  501    0  0.00000000000E+00 -0.00000000000E+00 -0.31829948603E+01  0.34270039803E+01  0.12700000000E+01 0. -1.
         25    2    1    2    0    0  0.00000000000E+00  0.00000000000E+00  0.11784283431E+04  0.11850390244E+04  0.12499651845E+03 0.  0.
    9000005    1    3    3    0    0  0.39627521499E+02  0.15802845654E+01  0.10470577557E+04  0.10478090386E+04  0.10000000000E+01 0.  0.
    9000005    1    3    3    0    0 -0.39627521499E+02 -0.15802845654E+01  0.13137058743E+03  0.13722998579E+03  0.10000000000E+01 0.  0.
<mgrwt>
<rscale>  0 0.12499652E+03</rscale>
<asrwt>0</asrwt>
<pdfrwt beam="2">  1        4 0.50851362E-03 0.12499652E+03</pdfrwt>
<pdfrwt beam="1">  1       -4 0.18180530E+00 0.12499652E+03</pdfrwt>
<totfact> 0.25109630E+03</totfact>
</mgrwt>
</event>
<event>
 5    1  0.3434846E-002  0.1250040E+03  0.7818608E-02  0.1235063E+00
          4   -1    0    0  501    0  0.00000000000E+00  0.00000000000E+00  0.33030093154E+03  0.33030337309E+03  0.12700000000E+01 0. -1.
         -4   -1    0    0    0  501 -0.00000000000E+00 -0.00000000000E+00 -0.11790502852E+02  0.11858703872E+02  0.12700000000E+01 0. -1.
         25    2    1    2    0    0  0.00000000000E+00  0.00000000000E+00  0.31851042869E+03  0.34216207696E+03  0.12500397485E+03 0.  0.
    9000005    1    3    3    0    0  0.10313943032E+02  0.47405777083E+02  0.51428148625E+02  0.70707422473E+02  0.10000000000E+01 0.  0.
    9000005    1    3    3    0    0 -0.10313943032E+02 -0.47405777083E+02  0.26708228006E+03  0.27145465449E+03  0.10000000000E+01 0.  0.
<mgrwt>
<rscale>  0 0.12500397E+03</rscale>
<asrwt>0</asrwt>
<pdfrwt beam="1">  1        4 0.50820962E-01 0.12500397E+03</pdfrwt>
<pdfrwt beam="2">  1       -4 0.18193576E-02 0.12500397E+03</pdfrwt>
<totfact> 0.70589304E+03</totfact>
</mgrwt>
</event>
<event>
 5    1  0.3434846E-002  0.1249976E+03  0.7818608E-02  0.1235073E+00
         -4   -1    0    0    0  501 -0.00000000000E+00  0.00000000000E+00  0.58768382002E+01  0.60124975869E+01  0.12700000000E+01 0. -1.
          4   -1    0    0  501    0  0.00000000000E+00 -0.00000000000E+00 -0.65694026357E+03  0.65694149115E+03  0.12700000000E+01 0. -1.
         25    2    1    2    0    0  0.00000000000E+00  0.00000000000E+00 -0.65106342537E+03  0.66295398874E+03  0.12499762931E+03 0.  0.
    9000005    1    3    3    0    0 -0.91456390516E+01  0.57869898139E+02 -0.44082344029E+03  0.44470088075E+03  0.10000000000E+01 0.  0.
    9000005    1    3    3    0    0  0.91456390516E+01 -0.57869898139E+02 -0.21023998507E+03  0.21825310799E+03  0.10000000000E+01 0.  0.
<mgrwt>
<rscale>  0 0.12499763E+03</rscale>
<asrwt>0</asrwt>
<pdfrwt beam="2">  1        4 0.10107821E+00 0.12499763E+03</pdfrwt>
<pdfrwt beam="1">  1       -4 0.91465924E-03 0.12499763E+03</pdfrwt>
<totfact> 0.45118034E+03</totfact>
</mgrwt>
</event>
<event>
 5    1  0.3434846E-002  0.1250024E+03  0.7818608E-02  0.1235066E+00
          4   -1    0    0  501    0  0.00000000000E+00  0.00000000000E+00  0.20101224112E+02  0.20141303603E+02  0.12700000000E+01 0.  1.
         -4   -1    0    0    0  501 -0.00000000000E+00 -0.00000000000E+00 -0.19410061337E+03  0.19410476813E+03  0.12700000000E+01 0.  1.
         25    2    1    2    0    0  0.00000000000E+00  0.00000000000E+00 -0.17399938926E+03  0.21424607173E+03  0.12500236714E+03 0.  0.
    9000005    1    3    3    0    0  0.18884752415E+02  0.59101156943E+02 -0.99804681227E+02  0.11752257239E+03  0.10000000000E+01 0.  0.
    9000005    1    3    3    0    0 -0.18884752415E+02 -0.59101156943E+02 -0.74194708032E+02  0.96723499346E+02  0.10000000000E+01 0.  0.
<mgrwt>
<rscale>  0 0.12500237E+03</rscale>
<asrwt>0</asrwt>
<pdfrwt beam="1">  1        4 0.30958988E-02 0.12500237E+03</pdfrwt>
<pdfrwt beam="2">  1       -4 0.29865034E-01 0.12500237E+03</pdfrwt>
<totfact> 0.87782460E+03</totfact>
</mgrwt>
</event>
<event>
 5    1  0.3434846E-002  0.1249872E+03  0.7818608E-02  0.1235089E+00
          4   -1    0    0  501    0  0.00000000000E+00  0.00000000000E+00  0.20214113897E+03  0.20214512847E+03  0.12700000000E+01 0. -1.
         -4   -1    0    0    0  501 -0.00000000000E+00 -0.00000000000E+00 -0.19295356341E+02  0.19337106204E+02  0.12700000000E+01 0. -1.
         25    2    1    2    0    0  0.00000000000E+00  0.00000000000E+00  0.18284578263E+03  0.22148223467E+03  0.12498719955E+03 0.  0.
    9000005    1    3    3    0    0  0.43035546589E+02  0.13227317542E+02  0.14641634913E+02  0.47353961529E+02  0.10000000000E+01 0.  0.
    9000005    1    3    3    0    0 -0.43035546589E+02 -0.13227317542E+02  0.16820414772E+03  0.17412827314E+03  0.10000000000E+01 0.  0.
<mgrwt>
<rscale>  0 0.12498720E+03</rscale>
<asrwt>0</asrwt>
<pdfrwt beam="1">  1        4 0.31102155E-01 0.12498720E+03</pdfrwt>
<pdfrwt beam="2">  1       -4 0.29720348E-02 0.12498720E+03</pdfrwt>
<totfact> 0.86659119E+03</totfact>
</mgrwt>
</event>
<event>
 5    1  0.3434846E-002  0.1249998E+03  0.7818608E-02  0.1235070E+00
         -4   -1    0    0    0  501 -0.00000000000E+00  0.00000000000E+00  0.43438979601E+03  0.43439165252E+03  0.12700000000E+01 0. -1.
          4   -1    0    0  501    0  0.00000000000E+00 -0.00000000000E+00 -0.89457519352E+01  0.90354511611E+01  0.12700000000E+01 0. -1.
         25    2    1    2    0    0  0.00000000000E+00  0.00000000000E+00  0.42544404407E+03  0.44342710368E+03  0.12499984655E+03 0.  0.
    9000005    1    3    3    0    0 -0.50979446268E+02  0.36013960340E+02  0.20188575146E+03  0.21131674312E+03  0.10000000000E+01 0.  0.
    9000005    1    3    3    0    0  0.50979446268E+02 -0.36013960340E+02  0.22355829261E+03  0.23211036055E+03  0.10000000000E+01 0.  0.
<mgrwt>
<rscale>  0 0.12499985E+03</rscale>
<asrwt>0</asrwt>
<pdfrwt beam="2">  1        4 0.13833123E-02 0.12499985E+03</pdfrwt>
<pdfrwt beam="1">  1       -4 0.66836240E-01 0.12499985E+03</pdfrwt>
<totfact> 0.60537669E+03</totfact>
</mgrwt>
</event>
<event>
 5    1  0.3434846E-002  0.1249954E+03  0.7818608E-02  0.1235077E+00
         -4   -1    0    0    0  501 -0.00000000000E+00  0.00000000000E+00  0.20936147729E+02  0.20974631861E+02  0.12700000000E+01 0. -1.
          4   -1    0    0  501    0  0.00000000000E+00 -0.00000000000E+00 -0.18635340796E+03  0.18635773544E+03  0.12700000000E+01 0. -1.
         25    2    1    2    0    0  0.00000000000E+00  0.00000000000E+00 -0.16541726023E+03  0.20733236730E+03  0.12499536211E+03 0.  0.
    9000005    1    3    3    0    0  0.14967536760E+02 -0.82764871767E+00  0.17917726584E+02  0.23382837403E+02  0.10000000000E+01 0.  0.
    9000005    1    3    3    0    0 -0.14967536760E+02  0.82764871767E+00 -0.18333498681E+03  0.18394952989E+03  0.10000000000E+01 0.  0.
<mgrwt>
<rscale>  0 0.12499536E+03</rscale>
<asrwt>0</asrwt>
<pdfrwt beam="2">  1        4 0.28673047E-01 0.12499536E+03</pdfrwt>
<pdfrwt beam="1">  1       -4 0.32242391E-02 0.12499536E+03</pdfrwt>
<totfact> 0.88922624E+03</totfact>
</mgrwt>
</event>
<event>
 5    1  0.3434846E-002  0.1250006E+03  0.7818608E-02  0.1235068E+00
         -4   -1    0    0    0  501 -0.00000000000E+00  0.00000000000E+00  0.55586534861E+01  0.57018881591E+01  0.12700000000E+01 0.  1.
          4   -1    0    0  501    0  0.00000000000E+00 -0.00000000000E+00 -0.69365717782E+03  0.69365834043E+03  0.12700000000E+01 0.  1.
         25    2    1    2    0    0  0.00000000000E+00  0.00000000000E+00 -0.68809852434E+03  0.69936022859E+03  0.12500060054E+03 0.  0.
    9000005    1    3    3    0    0 -0.33058163264E+01 -0.62041144365E+02 -0.38168709436E+03  0.38671186951E+03  0.10000000000E+01 0.  0.
    9000005    1    3    3    0    0  0.33058163264E+01  0.62041144365E+02 -0.30641142998E+03  0.31264835908E+03  0.10000000000E+01 0.  0.
<mgrwt>
<rscale>  0 0.12500060E+03</rscale>
<asrwt>0</asrwt>
<pdfrwt beam="2">  1        4 0.10672753E+00 0.12500060E+03</pdfrwt>
<pdfrwt beam="1">  1       -4 0.86628549E-03 0.12500060E+03</pdfrwt>
<totfact> 0.43119939E+03</totfact>
</mgrwt>
</event>
<event>
 5    1  0.3434846E-002  0.1249971E+03  0.7818608E-02  0.1235074E+00
          4   -1    0    0  501    0  0.00000000000E+00  0.00000000000E+00  0.70507878314E+01  0.71642521622E+01  0.12700000000E+01 0.  1.
         -4   -1    0    0    0  501 -0.00000000000E+00 -0.00000000000E+00 -0.54945408719E+03  0.54945555491E+03  0.12700000000E+01 0.  1.
         25    2    1    2    0    0  0.00000000000E+00  0.00000000000E+00 -0.54240329936E+03  0.55661980708E+03  0.12499708188E+03 0.  0.
    9000005    1    3    3    0    0 -0.47136807814E+02 -0.23739300760E+02 -0.42020530806E+03  0.42350789127E+03  0.10000000000E+01 0.  0.
    9000005    1    3    3    0    0  0.47136807814E+02  0.23739300760E+02 -0.12219799130E+03  0.13311191580E+03  0.10000000000E+01 0.  0.
<mgrwt>
<rscale>  0 0.12499708E+03</rscale>
<asrwt>0</asrwt>
<pdfrwt beam="1">  1        4 0.10935779E-02 0.12499708E+03</pdfrwt>
<pdfrwt beam="2">  1       -4 0.84540206E-01 0.12499708E+03</pdfrwt>
<totfact> 0.51728947E+03</totfact>
</mgrwt>
</event>
<event>
 5    1  0.3434846E-002  0.1249988E+03  0.7818608E-02  0.1235071E+00
         -4   -1    0    0    0  501 -0.00000000000E+00  0.00000000000E+00  0.51611560017E+01  0.53151134770E+01  0.12700000000E+01 0.  1.
          4   -1    0    0  501    0  0.00000000000E+00 -0.00000000000E+00 -0.74556404546E+03  0.74556512712E+03  0.12700000000E+01 0.  1.
         25    2    1    2    0    0  0.00000000000E+00  0.00000000000E+00 -0.74040288945E+03  0.75088024060E+03  0.12499878802E+03 0.  0.
    9000005    1    3    3    0    0  0.19333536466E+02 -0.31120618823E+02 -0.67431119206E+03  0.67530649507E+03  0.10000000000E+01 0.  0.
    9000005    1    3    3    0    0 -0.19333536466E+02  0.31120618823E+02 -0.66091697394E+02  0.75573745524E+02  0.10000000000E+01 0.  0.
<mgrwt>
<rscale>  0 0.12499879E+03</rscale>
<asrwt>0</asrwt>
<pdfrwt beam="2">  1        4 0.11471400E+00 0.12499879E+03</pdfrwt>
<pdfrwt beam="1">  1       -4 0.80595068E-03 0.12499879E+03</pdfrwt>
<totfact> 0.40533168E+03</totfact>
</mgrwt>
</event>
<event>
 5    1  0.3434846E-002  0.1249984E+03  0.7818608E-02  0.1235072E+00
         -4   -1    0    0    0  501 -0.00000000000E+00  0.00000000000E+00  0.81617366322E+02  0.81627246587E+02  0.12700000000E+01 0.  1.
          4   -1    0    0  501    0  0.00000000000E+00 -0.00000000000E+00 -0.47838123071E+02  0.47854977995E+02  0.12700000000E+01 0.  1.
         25    2    1    2    0    0  0.00000000000E+00  0.00000000000E+00  0.33779243251E+02  0.12948222458E+03  0.12499843682E+03 0.  0.
    9000005    1    3    3    0    0 -0.26610229789E+02 -0.56531658217E+02  0.15745656426E+02  0.64442675352E+02  0.10000000000E+01 0.  0.
    9000005    1    3    3    0    0  0.26610229789E+02  0.56531658217E+02  0.18033586826E+02  0.65039549230E+02  0.10000000000E+01 0.  0.
<mgrwt>
<rscale>  0 0.12499844E+03</rscale>
<asrwt>0</asrwt>
<pdfrwt beam="2">  1        4 0.73617678E-02 0.12499844E+03</pdfrwt>
<pdfrwt beam="1">  1       -4 0.12558574E-01 0.12499844E+03</pdfrwt>
<totfact> 0.10355962E+04</totfact>
</mgrwt>
</event>
<event>
 5    1  0.3434846E-002  0.1249990E+03  0.7818608E-02  0.1235071E+00
          4   -1    0    0  501    0  0.00000000000E+00  0.00000000000E+00  0.14067926738E+03  0.14068499981E+03  0.12700000000E+01 0. -1.
         -4   -1    0    0    0  501 -0.00000000000E+00 -0.00000000000E+00 -0.27745791266E+02  0.27774841728E+02  0.12700000000E+01 0. -1.
         25    2    1    2    0    0  0.00000000000E+00  0.00000000000E+00  0.11293347612E+03  0.16845984154E+03  0.12499899273E+03 0.  0.
    9000005    1    3    3    0    0 -0.49915020845E+02 -0.27224145731E+02  0.91416453844E+02  0.10765979496E+03  0.10000000000E+01 0.  0.
    9000005    1    3    3    0    0  0.49915020845E+02  0.27224145731E+02  0.21517022274E+02  0.60800046582E+02  0.10000000000E+01 0.  0.
<mgrwt>
<rscale>  0 0.12499899E+03</rscale>
<asrwt>0</asrwt>
<pdfrwt beam="1">  1        4 0.21645640E-01 0.12499899E+03</pdfrwt>
<pdfrwt beam="2">  1       -4 0.42712588E-02 0.12499899E+03</pdfrwt>
<totfact> 0.95738301E+03</totfact>
</mgrwt>
</event>
<event>
 5    1  0.3434846E-002  0.1250012E+03  0.7818608E-02  0.1235067E+00
          4   -1    0    0  501    0  0.00000000000E+00  0.00000000000E+00  0.51159081790E+03  0.51159239425E+03  0.12700000000E+01 0. -1.
         -4   -1    0    0    0  501 -0.00000000000E+00 -0.00000000000E+00 -0.75812302694E+01  0.76868688292E+01  0.12700000000E+01 0. -1.
         25    2    1    2    0    0  0.00000000000E+00  0.00000000000E+00  0.50400958763E+03  0.51927926308E+03  0.12500115458E+03 0.  0.
    9000005    1    3    3    0    0 -0.19188867951E+02 -0.31750985659E+02  0.43094407506E+02  0.56872363252E+02  0.10000000000E+01 0.  0.
    9000005    1    3    3    0    0  0.19188867951E+02  0.31750985659E+02  0.46091518012E+03  0.46240689983E+03  0.10000000000E+01 0.  0.
<mgrwt>
<rscale>  0 0.12500115E+03</rscale>
<asrwt>0</asrwt>
<pdfrwt beam="1">  1        4 0.78714507E-01 0.12500115E+03</pdfrwt>
<pdfrwt beam="2">  1       -4 0.11745907E-02 0.12500115E+03</pdfrwt>
<totfact> 0.54397585E+03</totfact>
</mgrwt>
</event>
<event>
 5    1  0.3434846E-002  0.1249995E+03  0.7818608E-02  0.1235070E+00
         -4   -1    0    0    0  501 -0.00000000000E+00  0.00000000000E+00  0.43421303600E+02  0.43439872310E+02  0.12700000000E+01 0. -1.
          4   -1    0    0  501    0  0.00000000000E+00 -0.00000000000E+00 -0.89918556848E+02  0.89927525073E+02  0.12700000000E+01 0. -1.
         25    2    1    2    0    0  0.00000000000E+00  0.00000000000E+00 -0.46497253248E+02  0.13336739738E+03  0.12499947250E+03 0.  0.
    9000005    1    3    3    0    0 -0.58062090712E+02  0.14265023802E+02 -0.42645878413E+02  0.73446362929E+02  0.10000000000E+01 0.  0.
    9000005    1    3    3    0    0  0.58062090712E+02 -0.14265023802E+02 -0.38513748355E+01  0.59921034454E+02  0.10000000000E+01 0.  0.
<mgrwt>
<rscale>  0 0.12499947E+03</rscale>
<asrwt>0</asrwt>
<pdfrwt beam="2">  1        4 0.13835742E-01 0.12499947E+03</pdfrwt>
<pdfrwt beam="1">  1       -4 0.66823188E-02 0.12499947E+03</pdfrwt>
<totfact> 0.10272720E+04</totfact>
</mgrwt>
</event>
<event>
 5    1  0.3434846E-002  0.1250002E+03  0.7818608E-02  0.1235069E+00
          4   -1    0    0  501    0  0.00000000000E+00  0.00000000000E+00  0.17813448929E+03  0.17813901643E+03  0.12700000000E+01 0. -1.
         -4   -1    0    0    0  501 -0.00000000000E+00 -0.00000000000E+00 -0.21905524283E+02  0.21942308313E+02  0.12700000000E+01 0. -1.
         25    2    1    2    0    0  0.00000000000E+00  0.00000000000E+00  0.15622896501E+03  0.20008132474E+03  0.12500018801E+03 0.  0.
    9000005    1    3    3    0    0  0.17007213341E+02 -0.53267949092E+02  0.12277635462E+03  0.13491387238E+03  0.10000000000E+01 0.  0.
    9000005    1    3    3    0    0 -0.17007213341E+02  0.53267949092E+02  0.33452610387E+02  0.65167452365E+02  0.10000000000E+01 0.  0.
<mgrwt>
<rscale>  0 0.12500019E+03</rscale>
<asrwt>0</asrwt>
<pdfrwt beam="1">  1        4 0.27408484E-01 0.12500019E+03</pdfrwt>
<pdfrwt beam="2">  1       -4 0.33732584E-02 0.12500019E+03</pdfrwt>
<totfact> 0.90121412E+03</totfact>
</mgrwt>
</event>
<event>
 5    1  0.3434846E-002  0.1250003E+03  0.7818608E-02  0.1235069E+00
         -4   -1    0    0    0  501 -0.00000000000E+00  0.00000000000E+00  0.17502192571E+03  0.17502653336E+03  0.12700000000E+01 0. -1.
          4   -1    0    0  501    0  0.00000000000E+00 -0.00000000000E+00 -0.22295774500E+02  0.22331915738E+02  0.12700000000E+01 0. -1.
         25    2    1    2    0    0  0.00000000000E+00  0.00000000000E+00  0.15272615121E+03  0.19735844910E+03  0.12500032066E+03 0.  0.
    9000005    1    3    3    0    0 -0.62272804156E+02 -0.29467311399E+01  0.83187836258E+02  0.10396057649E+03  0.10000000000E+01 0.  0.
    9000005    1    3    3    0    0  0.62272804156E+02  0.29467311399E+01  0.69538314952E+02  0.93397872611E+02  0.10000000000E+01 0.  0.
<mgrwt>
<rscale>  0 0.12500032E+03</rscale>
<asrwt>0</asrwt>
<pdfrwt beam="2">  1        4 0.34332538E-02 0.12500032E+03</pdfrwt>
<pdfrwt beam="1">  1       -4 0.26929584E-01 0.12500032E+03</pdfrwt>
<totfact> 0.90581848E+03</totfact>
</mgrwt>
</event>
<event>
 5    1  0.3434846E-002  0.1249996E+03  0.7818608E-02  0.1235070E+00
         -4   -1    0    0    0  501 -0.00000000000E+00  0.00000000000E+00  0.15267903484E+02  0.15320632389E+02  0.12700000000E+01 0. -1.
          4   -1    0    0  501    0  0.00000000000E+00 -0.00000000000E+00 -0.25535031487E+03  0.25535347306E+03  0.12700000000E+01 0. -1.
         25    2    1    2    0    0  0.00000000000E+00  0.00000000000E+00 -0.24008241138E+03  0.27067410545E+03  0.12499962841E+03 0.  0.
    9000005    1    3    3    0    0  0.61782892381E+02  0.75489252358E+01 -0.10796248647E+03  0.12462347511E+03  0.10000000000E+01 0.  0.
    9000005    1    3    3    0    0 -0.61782892381E+02 -0.75489252358E+01 -0.13211992491E+03  0.14605063033E+03  0.10000000000E+01 0.  0.
<mgrwt>
<rscale>  0 0.12499963E+03</rscale>
<asrwt>0</asrwt>
<pdfrwt beam="2">  1        4 0.39288960E-01 0.12499963E+03</pdfrwt>
<pdfrwt beam="1">  1       -4 0.23532074E-02 0.12499963E+03</pdfrwt>
<totfact> 0.79431710E+03</totfact>
</mgrwt>
</event>
<event>
 5    1  0.3434846E-002  0.1249983E+03  0.7818608E-02  0.1235072E+00
         -4   -1    0    0    0  501 -0.00000000000E+00  0.00000000000E+00  0.10269598959E+03  0.10270384208E+03  0.12700000000E+01 0. -1.
          4   -1    0    0  501    0  0.00000000000E+00 -0.00000000000E+00 -0.38016071031E+02  0.38037278513E+02  0.12700000000E+01 0. -1.
         25    2    1    2    0    0  0.00000000000E+00  0.00000000000E+00  0.64679918555E+02  0.14074112059E+03  0.12499828463E+03 0.  0.
    9000005    1    3    3    0    0 -0.21040229169E+02 -0.58034695696E+02  0.43281082892E+02  0.75398735296E+02  0.10000000000E+01 0.  0.
    9000005    1    3    3    0    0  0.21040229169E+02  0.58034695696E+02  0.21398835664E+02  0.65342385293E+02  0.10000000000E+01 0.  0.
<mgrwt>
<rscale>  0 0.12499828E+03</rscale>
<asrwt>0</asrwt>
<pdfrwt beam="2">  1        4 0.58508617E-02 0.12499828E+03</pdfrwt>
<pdfrwt beam="1">  1       -4 0.15801618E-01 0.12499828E+03</pdfrwt>
<totfact> 0.10118640E+04</totfact>
</mgrwt>
</event>
<event>
 5    1  0.3434846E-002  0.1249977E+03  0.7818608E-02  0.1235073E+00
         -4   -1    0    0    0  501 -0.00000000000E+00  0.00000000000E+00  0.23737014468E+02  0.23770964554E+02  0.12700000000E+01 0.  1.
          4   -1    0    0  501    0  0.00000000000E+00 -0.00000000000E+00 -0.16440372193E+03  0.16440862716E+03  0.12700000000E+01 0.  1.
         25    2    1    2    0    0  0.00000000000E+00  0.00000000000E+00 -0.14066670746E+03  0.18817959171E+03  0.12499774458E+03 0.  0.
    9000005    1    3    3    0    0  0.56567767547E+01 -0.56938246428E+02 -0.10815455031E+03  0.12236163525E+03  0.10000000000E+01 0.  0.
    9000005    1    3    3    0    0 -0.56567767547E+01  0.56938246428E+02 -0.32512157150E+02  0.65817956456E+02  0.10000000000E+01 0.  0.
<mgrwt>
<rscale>  0 0.12499774E+03</rscale>
<asrwt>0</asrwt>
<pdfrwt beam="2">  1        4 0.25295869E-01 0.12499774E+03</pdfrwt>
<pdfrwt beam="1">  1       -4 0.36548373E-02 0.12499774E+03</pdfrwt>
<totfact> 0.92169685E+03</totfact>
</mgrwt>
</event>
<event>
 5    1  0.3434846E-002  0.1249991E+03  0.7818608E-02  0.1235071E+00
         -4   -1    0    0    0  501 -0.00000000000E+00  0.00000000000E+00  0.14552589127E+03  0.14553143279E+03  0.12700000000E+01 0.  1.
          4   -1    0    0  501    0  0.00000000000E+00 -0.00000000000E+00 -0.26820856021E+02  0.26850907204E+02  0.12700000000E+01 0.  1.
         25    2    1    2    0    0  0.00000000000E+00  0.00000000000E+00  0.11870503525E+03  0.17238233999E+03  0.12499914299E+03 0.  0.
    9000005    1    3    3    0    0  0.41995333329E+02 -0.24517153818E+02  0.52252321920E+01  0.48918318698E+02  0.10000000000E+01 0.  0.
    9000005    1    3    3    0    0 -0.41995333329E+02  0.24517153818E+02  0.11347980305E+03  0.12346402129E+03  0.10000000000E+01 0.  0.
<mgrwt>
<rscale>  0 0.12499914E+03</rscale>
<asrwt>0</asrwt>
<pdfrwt beam="2">  1        4 0.41290234E-02 0.12499914E+03</pdfrwt>
<pdfrwt beam="1">  1       -4 0.22391337E-01 0.12499914E+03</pdfrwt>
<totfact> 0.95008284E+03</totfact>
</mgrwt>
</event>
<event>
 5    1  0.3434846E-002  0.1250003E+03  0.7818608E-02  0.1235069E+00
          4   -1    0    0  501    0  0.00000000000E+00  0.00000000000E+00  0.29767584965E+02  0.29794664197E+02  0.12700000000E+01 0. -1.
         -4   -1    0    0    0  501 -0.00000000000E+00 -0.00000000000E+00 -0.13113569658E+03  0.13114184617E+03  0.12700000000E+01 0. -1.
         25    2    1    2    0    0  0.00000000000E+00  0.00000000000E+00 -0.10136811162E+03  0.16093651037E+03  0.12500026527E+03 0.  0.
    9000005    1    3    3    0    0 -0.50101746662E+02  0.21491820079E+02 -0.11353769453E+02  0.55695524324E+02  0.10000000000E+01 0.  0.
    9000005    1    3    3    0    0  0.50101746662E+02 -0.21491820079E+02 -0.90014342162E+02  0.10524098605E+03  0.10000000000E+01 0.  0.
<mgrwt>
<rscale>  0 0.12500027E+03</rscale>
<asrwt>0</asrwt>
<pdfrwt beam="1">  1        4 0.45821846E-02 0.12500027E+03</pdfrwt>
<pdfrwt beam="2">  1       -4 0.20177278E-01 0.12500027E+03</pdfrwt>
<totfact> 0.97161957E+03</totfact>
</mgrwt>
</event>
<event>
 5    1  0.3434846E-002  0.1250002E+03  0.7818608E-02  0.1235069E+00
          4   -1    0    0  501    0  0.00000000000E+00  0.00000000000E+00  0.30667965170E+01  0.33193585038E+01  0.12700000000E+01 0.  1.
         -4   -1    0    0    0  501 -0.00000000000E+00 -0.00000000000E+00 -0.12231009085E+04  0.12231015678E+04  0.12700000000E+01 0.  1.
         25    2    1    2    0    0  0.00000000000E+00  0.00000000000E+00 -0.12200341120E+04  0.12264209263E+04  0.12500021677E+03 0.  0.
    9000005    1    3    3    0    0 -0.26698244570E+02 -0.94075177068E+01 -0.63394867575E+02  0.69434911157E+02  0.10000000000E+01 0.  0.
    9000005    1    3    3    0    0  0.26698244570E+02  0.94075177068E+01 -0.11566392444E+04  0.11569860152E+04  0.10000000000E+01 0.  0.
<mgrwt>
<rscale>  0 0.12500022E+03</rscale>
<asrwt>0</asrwt>
<pdfrwt beam="1">  1        4 0.49129439E-03 0.12500022E+03</pdfrwt>
<pdfrwt beam="2">  1       -4 0.18818848E+00 0.12500022E+03</pdfrwt>
<totfact> 0.24031425E+03</totfact>
</mgrwt>
</event>
<event>
 5    1  0.3434846E-002  0.1249535E+03  0.7818608E-02  0.1235142E+00
          4   -1    0    0  501    0  0.00000000000E+00  0.00000000000E+00  0.44368957237E+02  0.44387129512E+02  0.12700000000E+01 0.  1.
         -4   -1    0    0    0  501 -0.00000000000E+00 -0.00000000000E+00 -0.87933869499E+02  0.87943040117E+02  0.12700000000E+01 0.  1.
         25    2    1    2    0    0  0.00000000000E+00  0.00000000000E+00 -0.43564912262E+02  0.13233016963E+03  0.12495348020E+03 0.  0.
    9000005    1    3    3    0    0 -0.20470445703E+02  0.56522057761E+02 -0.37925354311E+01  0.60242555439E+02  0.10000000000E+01 0.  0.
    9000005    1    3    3    0    0  0.20470445703E+02 -0.56522057761E+02 -0.39772376831E+02  0.72087614190E+02  0.10000000000E+01 0.  0.
<mgrwt>
<rscale>  0 0.12495348E+03</rscale>
<asrwt>0</asrwt>
<pdfrwt beam="1">  1        4 0.68280967E-02 0.12495348E+03</pdfrwt>
<pdfrwt beam="2">  1       -4 0.13530391E-01 0.12495348E+03</pdfrwt>
<totfact> 0.10305467E+04</totfact>
</mgrwt>
</event>
<event>
 5    1  0.3434846E-002  0.1250025E+03  0.7818608E-02  0.1235065E+00
         -4   -1    0    0    0  501 -0.00000000000E+00  0.00000000000E+00  0.57386540051E+01  0.58775037039E+01  0.12700000000E+01 0.  1.
          4   -1    0    0  501    0  0.00000000000E+00 -0.00000000000E+00 -0.67244200990E+03  0.67244320918E+03  0.12700000000E+01 0.  1.
         25    2    1    2    0    0  0.00000000000E+00  0.00000000000E+00 -0.66670335589E+03  0.67832071289E+03  0.12500249906E+03 0.  0.
    9000005    1    3    3    0    0  0.43700459910E+01  0.50704135944E+02 -0.53016079708E+03  0.53259879597E+03  0.10000000000E+01 0.  0.
    9000005    1    3    3    0    0 -0.43700459910E+01 -0.50704135944E+02 -0.13654255881E+03  0.14572191692E+03  0.10000000000E+01 0.  0.
<mgrwt>
<rscale>  0 0.12500250E+03</rscale>
<asrwt>0</asrwt>
<pdfrwt beam="2">  1        4 0.10346333E+00 0.12500250E+03</pdfrwt>
<pdfrwt beam="1">  1       -4 0.89364338E-03 0.12500250E+03</pdfrwt>
<totfact> 0.44253694E+03</totfact>
</mgrwt>
</event>
<event>
 5    1  0.3434846E-002  0.1249862E+03  0.7818608E-02  0.1235091E+00
         -4   -1    0    0    0  501 -0.00000000000E+00  0.00000000000E+00  0.39715933995E+02  0.39736234259E+02  0.12700000000E+01 0.  1.
          4   -1    0    0  501    0  0.00000000000E+00 -0.00000000000E+00 -0.98283469989E+02  0.98291674994E+02  0.12700000000E+01 0.  1.
         25    2    1    2    0    0  0.00000000000E+00  0.00000000000E+00 -0.58567535994E+02  0.13802790925E+03  0.12498618908E+03 0.  0.
    9000005    1    3    3    0    0  0.20935743708E+02  0.37041244979E+02 -0.79819212665E+02  0.90456983725E+02  0.10000000000E+01 0.  0.
    9000005    1    3    3    0    0 -0.20935743708E+02 -0.37041244979E+02  0.21251676671E+02  0.47570925528E+02  0.10000000000E+01 0.  0.
<mgrwt>
<rscale>  0 0.12498619E+03</rscale>
<asrwt>0</asrwt>
<pdfrwt beam="2">  1        4 0.15122726E-01 0.12498619E+03</pdfrwt>
<pdfrwt beam="1">  1       -4 0.61123364E-02 0.12498619E+03</pdfrwt>
<totfact> 0.10177790E+04</totfact>
</mgrwt>
</event>
<event>
 5    1  0.3434846E-002  0.1250099E+03  0.7818608E-02  0.1235054E+00
          4   -1    0    0  501    0  0.00000000000E+00  0.00000000000E+00  0.29753657583E+02  0.29780749480E+02  0.12700000000E+01 0.  1.
         -4   -1    0    0    0  501 -0.00000000000E+00 -0.00000000000E+00 -0.13121732082E+03  0.13122346659E+03  0.12700000000E+01 0.  1.
         25    2    1    2    0    0  0.00000000000E+00  0.00000000000E+00 -0.10146366324E+03  0.16100421607E+03  0.12500993014E+03 0.  0.
    9000005    1    3    3    0    0 -0.31767734703E+02  0.34202741315E+01 -0.11990925733E+03  0.12409720882E+03  0.10000000000E+01 0.  0.
    9000005    1    3    3    0    0  0.31767734703E+02 -0.34202741315E+01  0.18445594087E+02  0.36907007254E+02  0.10000000000E+01 0.  0.
<mgrwt>
<rscale>  0 0.12500993E+03</rscale>
<asrwt>0</asrwt>
<pdfrwt beam="1">  1        4 0.45800426E-02 0.12500993E+03</pdfrwt>
<pdfrwt beam="2">  1       -4 0.20189836E-01 0.12500993E+03</pdfrwt>
<totfact> 0.97127851E+03</totfact>
</mgrwt>
</event>
<event>
 5    1  0.3434846E-002  0.1249987E+03  0.7818608E-02  0.1235071E+00
          4   -1    0    0  501    0  0.00000000000E+00  0.00000000000E+00  0.10584907346E+03  0.10585669205E+03  0.12700000000E+01 0.  1.
         -4   -1    0    0    0  501 -0.00000000000E+00 -0.00000000000E+00 -0.36883336638E+02  0.36905195048E+02  0.12700000000E+01 0.  1.
         25    2    1    2    0    0  0.00000000000E+00  0.00000000000E+00  0.68965736822E+02  0.14276188710E+03  0.12499873421E+03 0.  0.
    9000005    1    3    3    0    0  0.26706231729E+02 -0.35617186023E+02  0.84571298697E+02  0.95577776270E+02  0.10000000000E+01 0.  0.
    9000005    1    3    3    0    0 -0.26706231729E+02  0.35617186023E+02 -0.15605561876E+02  0.47184110830E+02  0.10000000000E+01 0.  0.
<mgrwt>
<rscale>  0 0.12499873E+03</rscale>
<asrwt>0</asrwt>
<pdfrwt beam="1">  1        4 0.16286740E-01 0.12499873E+03</pdfrwt>
<pdfrwt beam="2">  1       -4 0.56766271E-02 0.12499873E+03</pdfrwt>
<totfact> 0.10076949E+04</totfact>
</mgrwt>
</event>
<event>
 5    1  0.3434846E-002  0.1249955E+03  0.7818608E-02  0.1235076E+00
          4   -1    0    0  501    0  0.00000000000E+00  0.00000000000E+00  0.77021368195E+03  0.77021472899E+03  0.12700000000E+01 0. -1.
         -4   -1    0    0    0  501 -0.00000000000E+00 -0.00000000000E+00 -0.49906991725E+01  0.51497551622E+01  0.12700000000E+01 0. -1.
         25    2    1    2    0    0  0.00000000000E+00  0.00000000000E+00  0.76522298277E+03  0.77536448415E+03  0.12499547961E+03 0.  0.
    9000005    1    3    3    0    0  0.49874034706E+02 -0.20095058124E+02  0.18510826295E+03  0.19276228809E+03  0.10000000000E+01 0.  0.
    9000005    1    3    3    0    0 -0.49874034706E+02  0.20095058124E+02  0.58011471982E+03  0.58260219606E+03  0.10000000000E+01 0.  0.
<mgrwt>
<rscale>  0 0.12499548E+03</rscale>
<asrwt>0</asrwt>
<pdfrwt beam="1">  1        4 0.11850664E+00 0.12499548E+03</pdfrwt>
<pdfrwt beam="2">  1       -4 0.78011610E-03 0.12499548E+03</pdfrwt>
<totfact> 0.39392360E+03</totfact>
</mgrwt>
</event>
<event>
 5    1  0.3434846E-002  0.1250008E+03  0.7818608E-02  0.1235068E+00
          4   -1    0    0  501    0  0.00000000000E+00  0.00000000000E+00  0.12919312344E+03  0.12919936550E+03  0.12700000000E+01 0. -1.
         -4   -1    0    0    0  501 -0.00000000000E+00 -0.00000000000E+00 -0.30215841259E+02  0.30242519124E+02  0.12700000000E+01 0. -1.
         25    2    1    2    0    0  0.00000000000E+00  0.00000000000E+00  0.98977282186E+02  0.15944188462E+03  0.12500084873E+03 0.  0.
    9000005    1    3    3    0    0 -0.32053004132E+02 -0.48786279045E+02  0.21029621501E+02  0.62054339715E+02  0.10000000000E+01 0.  0.
    9000005    1    3    3    0    0  0.32053004132E+02  0.48786279045E+02  0.77947660685E+02  0.97387544908E+02  0.10000000000E+01 0.  0.
<mgrwt>
<rscale>  0 0.12500085E+03</rscale>
<asrwt>0</asrwt>
<pdfrwt beam="1">  1        4 0.19878397E-01 0.12500085E+03</pdfrwt>
<pdfrwt beam="2">  1       -4 0.46511233E-02 0.12500085E+03</pdfrwt>
<totfact> 0.97448634E+03</totfact>
</mgrwt>
</event>
<event>
 5    1  0.3434846E-002  0.1250016E+03  0.7818608E-02  0.1235067E+00
          4   -1    0    0  501    0  0.00000000000E+00  0.00000000000E+00  0.41316817718E+02  0.41336331796E+02  0.12700000000E+01 0. -1.
         -4   -1    0    0    0  501 -0.00000000000E+00 -0.00000000000E+00 -0.94500107504E+02  0.94508640971E+02  0.12700000000E+01 0. -1.
         25    2    1    2    0    0  0.00000000000E+00  0.00000000000E+00 -0.53183289785E+02  0.13584497277E+03  0.12500157724E+03 0.  0.
    9000005    1    3    3    0    0  0.21318273934E+02  0.87600147643E+01  0.36534570188E+02  0.43208581104E+02  0.10000000000E+01 0.  0.
    9000005    1    3    3    0    0 -0.21318273934E+02 -0.87600147643E+01 -0.89717859973E+02  0.92636391663E+02  0.10000000000E+01 0.  0.
<mgrwt>
<rscale>  0 0.12500158E+03</rscale>
<asrwt>0</asrwt>
<pdfrwt beam="1">  1        4 0.63585910E-02 0.12500158E+03</pdfrwt>
<pdfrwt beam="2">  1       -4 0.14540636E-01 0.12500158E+03</pdfrwt>
<totfact> 0.10219928E+04</totfact>
</mgrwt>
</event>
<event>
 5    1  0.3434846E-002  0.1249998E+03  0.7818608E-02  0.1235070E+00
         -4   -1    0    0    0  501 -0.00000000000E+00  0.00000000000E+00  0.15692147895E+03  0.15692661806E+03  0.12700000000E+01 0. -1.
          4   -1    0    0  501    0  0.00000000000E+00 -0.00000000000E+00 -0.24871184365E+02  0.24903588330E+02  0.12700000000E+01 0. -1.
         25    2    1    2    0    0  0.00000000000E+00  0.00000000000E+00  0.13205029459E+03  0.18183020639E+03  0.12499977462E+03 0.  0.
    9000005    1    3    3    0    0  0.30751741935E+02  0.39400292241E+02  0.12059240525E+03  0.13054340606E+03  0.10000000000E+01 0.  0.
    9000005    1    3    3    0    0 -0.30751741935E+02 -0.39400292241E+02  0.11457889338E+02  0.51286800337E+02  0.10000000000E+01 0.  0.
<mgrwt>
<rscale>  0 0.12499977E+03</rscale>
<asrwt>0</asrwt>
<pdfrwt beam="2">  1        4 0.38292239E-02 0.12499977E+03</pdfrwt>
<pdfrwt beam="1">  1       -4 0.24144654E-01 0.12499977E+03</pdfrwt>
<totfact> 0.93289064E+03</totfact>
</mgrwt>
</event>
<event>
 5    1  0.3434846E-002  0.1250011E+03  0.7818608E-02  0.1235067E+00
          4   -1    0    0  501    0  0.00000000000E+00  0.00000000000E+00  0.62059890036E+02  0.62072883382E+02  0.12700000000E+01 0.  1.
         -4   -1    0    0    0  501 -0.00000000000E+00 -0.00000000000E+00 -0.62918398279E+02  0.62931214369E+02  0.12700000000E+01 0.  1.
         25    2    1    2    0    0  0.00000000000E+00  0.00000000000E+00 -0.85850824229E+00  0.12500409775E+03  0.12500114967E+03 0.  0.
    9000005    1    3    3    0    0 -0.62286056225E+02 -0.41337845642E+01  0.25171486087E+01  0.62481813450E+02  0.10000000000E+01 0.  0.
    9000005    1    3    3    0    0  0.62286056225E+02  0.41337845642E+01 -0.33756568510E+01  0.62522284300E+02  0.10000000000E+01 0.  0.
<mgrwt>
<rscale>  0 0.12500115E+03</rscale>
<asrwt>0</asrwt>
<pdfrwt beam="1">  1        4 0.95496607E-02 0.12500115E+03</pdfrwt>
<pdfrwt beam="2">  1       -4 0.96817389E-02 0.12500115E+03</pdfrwt>
<totfact> 0.10452502E+04</totfact>
</mgrwt>
</event>
<event>
 5    1  0.3434846E-002  0.1250009E+03  0.7818608E-02  0.1235068E+00
          4   -1    0    0  501    0  0.00000000000E+00  0.00000000000E+00  0.11141243023E+03  0.11141966841E+03  0.12700000000E+01 0. -1.
         -4   -1    0    0    0  501 -0.00000000000E+00 -0.00000000000E+00 -0.35041811161E+02  0.35064817545E+02  0.12700000000E+01 0. -1.
         25    2    1    2    0    0  0.00000000000E+00  0.00000000000E+00  0.76370619067E+02  0.14648448596E+03  0.12500093268E+03 0.  0.
    9000005    1    3    3    0    0  0.49332778320E+02  0.13864495591E+02  0.80100837233E+02  0.95095170120E+02  0.10000000000E+01 0.  0.
    9000005    1    3    3    0    0 -0.49332778320E+02 -0.13864495591E+02 -0.37302181660E+01  0.51389315838E+02  0.10000000000E+01 0.  0.
<mgrwt>
<rscale>  0 0.12500093E+03</rscale>
<asrwt>0</asrwt>
<pdfrwt beam="1">  1        4 0.17142700E-01 0.12500093E+03</pdfrwt>
<pdfrwt beam="2">  1       -4 0.53933744E-02 0.12500093E+03</pdfrwt>
<totfact> 0.10000704E+04</totfact>
</mgrwt>
</event>
<event>
 5    1  0.3434846E-002  0.1249923E+03  0.7818608E-02  0.1235081E+00
         -4   -1    0    0    0  501 -0.00000000000E+00  0.00000000000E+00  0.54315444125E+02  0.54330289623E+02  0.12700000000E+01 0.  1.
          4   -1    0    0  501    0  0.00000000000E+00 -0.00000000000E+00 -0.71878722306E+02  0.71889941023E+02  0.12700000000E+01 0.  1.
         25    2    1    2    0    0  0.00000000000E+00  0.00000000000E+00 -0.17563278180E+02  0.12622023065E+03  0.12499231130E+03 0.  0.
    9000005    1    3    3    0    0  0.10201882376E+02  0.32372961155E+02  0.44199797227E+02  0.55737860498E+02  0.10000000000E+01 0.  0.
    9000005    1    3    3    0    0 -0.10201882376E+02 -0.32372961155E+02 -0.61763075407E+02  0.70482370148E+02  0.10000000000E+01 0.  0.
<mgrwt>
<rscale>  0 0.12499231E+03</rscale>
<asrwt>0</asrwt>
<pdfrwt beam="2">  1        4 0.11060270E-01 0.12499231E+03</pdfrwt>
<pdfrwt beam="1">  1       -4 0.83582271E-02 0.12499231E+03</pdfrwt>
<totfact> 0.10427946E+04</totfact>
</mgrwt>
</event>
<event>
 5    1  0.3434846E-002  0.1249956E+03  0.7818608E-02  0.1235076E+00
          4   -1    0    0  501    0  0.00000000000E+00  0.00000000000E+00  0.41556291227E+01  0.43453599857E+01  0.12700000000E+01 0.  1.
         -4   -1    0    0    0  501 -0.00000000000E+00 -0.00000000000E+00 -0.91875564702E+03  0.91875652478E+03  0.12700000000E+01 0.  1.
         25    2    1    2    0    0  0.00000000000E+00  0.00000000000E+00 -0.91460001790E+03  0.92310188477E+03  0.12499558762E+03 0.  0.
    9000005    1    3    3    0    0 -0.54300109291E+02  0.28102180448E+01 -0.22984746381E+03  0.23619325946E+03  0.10000000000E+01 0.  0.
    9000005    1    3    3    0    0  0.54300109291E+02 -0.28102180448E+01 -0.68475255408E+03  0.68690862531E+03  0.10000000000E+01 0.  0.
<mgrwt>
<rscale>  0 0.12499559E+03</rscale>
<asrwt>0</asrwt>
<pdfrwt beam="1">  1        4 0.65399049E-03 0.12499559E+03</pdfrwt>
<pdfrwt beam="2">  1       -4 0.14136153E+00 0.12499559E+03</pdfrwt>
<totfact> 0.33293849E+03</totfact>
</mgrwt>
</event>
<event>
 5    1  0.3434846E-002  0.1249994E+03  0.7818608E-02  0.1235070E+00
         -4   -1    0    0    0  501 -0.00000000000E+00  0.00000000000E+00  0.14787748605E+03  0.14788293945E+03  0.12700000000E+01 0.  1.
          4   -1    0    0  501    0  0.00000000000E+00 -0.00000000000E+00 -0.26393981382E+02  0.26424518031E+02  0.12700000000E+01 0.  1.
         25    2    1    2    0    0  0.00000000000E+00  0.00000000000E+00  0.12148350467E+03  0.17430745748E+03  0.12499939131E+03 0.  0.
    9000005    1    3    3    0    0 -0.31167377921E+02  0.39788618153E+02  0.94930257278E+01  0.51435951614E+02  0.10000000000E+01 0.  0.
    9000005    1    3    3    0    0  0.31167377921E+02 -0.39788618153E+02  0.11199047894E+03  0.12287150587E+03  0.10000000000E+01 0.  0.
<mgrwt>
<rscale>  0 0.12499939E+03</rscale>
<asrwt>0</asrwt>
<pdfrwt beam="2">  1        4 0.40633810E-02 0.12499939E+03</pdfrwt>
<pdfrwt beam="1">  1       -4 0.22753151E-01 0.12499939E+03</pdfrwt>
<totfact> 0.94653124E+03</totfact>
</mgrwt>
</event>
<event>
 5    1  0.3434846E-002  0.1250017E+03  0.7818608E-02  0.1235067E+00
         -4   -1    0    0    0  501 -0.00000000000E+00  0.00000000000E+00  0.72192983684E+01  0.73301547687E+01  0.12700000000E+01 0. -1.
          4   -1    0    0  501    0  0.00000000000E+00 -0.00000000000E+00 -0.53686477163E+03  0.53686627377E+03  0.12700000000E+01 0. -1.
         25    2    1    2    0    0  0.00000000000E+00  0.00000000000E+00 -0.52964547326E+03  0.54419642854E+03  0.12500170196E+03 0.  0.
    9000005    1    3    3    0    0  0.58411010670E+02 -0.16259430034E+02 -0.33072362916E+03  0.33623702074E+03  0.10000000000E+01 0.  0.
    9000005    1    3    3    0    0 -0.58411010670E+02  0.16259430034E+02 -0.19892184410E+03  0.20795940780E+03  0.10000000000E+01 0.  0.
<mgrwt>
<rscale>  0 0.12500170E+03</rscale>
<asrwt>0</asrwt>
<pdfrwt beam="2">  1        4 0.82603192E-01 0.12500170E+03</pdfrwt>
<pdfrwt beam="1">  1       -4 0.11193047E-02 0.12500170E+03</pdfrwt>
<totfact> 0.52589292E+03</totfact>
</mgrwt>
</event>
<event>
 5    1  0.3434846E-002  0.1250039E+03  0.7818608E-02  0.1235063E+00
          4   -1    0    0  501    0  0.00000000000E+00  0.00000000000E+00  0.14591549684E+03  0.14592102357E+03  0.12700000000E+01 0. -1.
         -4   -1    0    0    0  501 -0.00000000000E+00 -0.00000000000E+00 -0.26751217508E+02  0.26781346833E+02  0.12700000000E+01 0. -1.
         25    2    1    2    0    0  0.00000000000E+00  0.00000000000E+00  0.11916427933E+03  0.17270237040E+03  0.12500393303E+03 0.  0.
    9000005    1    3    3    0    0 -0.23701742374E+02  0.17635798694E+02 -0.16501184235E+02  0.33853848648E+02  0.10000000000E+01 0.  0.
    9000005    1    3    3    0    0  0.23701742374E+02 -0.17635798694E+02  0.13566546357E+03  0.13884852175E+03  0.10000000000E+01 0.  0.
<mgrwt>
<rscale>  0 0.12500393E+03</rscale>
<asrwt>0</asrwt>
<pdfrwt beam="1">  1        4 0.22451281E-01 0.12500393E+03</pdfrwt>
<pdfrwt beam="2">  1       -4 0.41183147E-02 0.12500393E+03</pdfrwt>
<totfact> 0.94938959E+03</totfact>
</mgrwt>
</event>
<event>
 5    1  0.3434846E-002  0.1250000E+03  0.7818608E-02  0.1235069E+00
         -4   -1    0    0    0  501 -0.00000000000E+00  0.00000000000E+00  0.35953615282E+01  0.38130728446E+01  0.12700000000E+01 0.  1.
          4   -1    0    0  501    0  0.00000000000E+00 -0.00000000000E+00 -0.10543232325E+04  0.10543239974E+04  0.12700000000E+01 0.  1.
         25    2    1    2    0    0  0.00000000000E+00  0.00000000000E+00 -0.10507278709E+04  0.10581370702E+04  0.12500000234E+03 0.  0.
    9000005    1    3    3    0    0 -0.24714767424E+02 -0.21296838182E+02 -0.97655239062E+03  0.97709771603E+03  0.10000000000E+01 0.  0.
    9000005    1    3    3    0    0  0.24714767424E+02  0.21296838182E+02 -0.74175480321E+02  0.81039354182E+02  0.10000000000E+01 0.  0.
<mgrwt>
<rscale>  0 0.12500000E+03</rscale>
<asrwt>0</asrwt>
<pdfrwt beam="2">  1        4 0.16222014E+00 0.12500000E+03</pdfrwt>
<pdfrwt beam="1">  1       -4 0.56993925E-03 0.12500000E+03</pdfrwt>
<totfact> 0.28742098E+03</totfact>
</mgrwt>
</event>
<event>
 5    1  0.3434846E-002  0.1249990E+03  0.7818608E-02  0.1235071E+00
          4   -1    0    0  501    0  0.00000000000E+00  0.00000000000E+00  0.27499618037E+03  0.27499911295E+03  0.12700000000E+01 0.  1.
         -4   -1    0    0    0  501 -0.00000000000E+00 -0.00000000000E+00 -0.14173108626E+02  0.14229894874E+02  0.12700000000E+01 0.  1.
         25    2    1    2    0    0  0.00000000000E+00  0.00000000000E+00  0.26082307175E+03  0.28922900782E+03  0.12499897683E+03 0.  0.
    9000005    1    3    3    0    0  0.49593428221E+02  0.28199875531E+02  0.71399491196E+02  0.91398186228E+02  0.10000000000E+01 0.  0.
    9000005    1    3    3    0    0 -0.49593428221E+02 -0.28199875531E+02  0.18942358055E+03  0.19783082159E+03  0.10000000000E+01 0.  0.
<mgrwt>
<rscale>  0 0.12499898E+03</rscale>
<asrwt>0</asrwt>
<pdfrwt beam="1">  1        4 0.42311694E-01 0.12499898E+03</pdfrwt>
<pdfrwt beam="2">  1       -4 0.21850722E-02 0.12499898E+03</pdfrwt>
<totfact> 0.76971857E+03</totfact>
</mgrwt>
</event>
<event>
 5    1  0.3434846E-002  0.1250021E+03  0.7818608E-02  0.1235066E+00
          4   -1    0    0  501    0  0.00000000000E+00  0.00000000000E+00  0.62254918992E+01  0.63537114655E+01  0.12700000000E+01 0.  1.
         -4   -1    0    0    0  501 -0.00000000000E+00 -0.00000000000E+00 -0.62095685906E+03  0.62095815778E+03  0.12700000000E+01 0.  1.
         25    2    1    2    0    0  0.00000000000E+00  0.00000000000E+00 -0.61473136716E+03  0.62731186925E+03  0.12500211008E+03 0.  0.
    9000005    1    3    3    0    0 -0.27789357902E+02 -0.50993823971E+02 -0.19153240586E+03  0.20014564944E+03  0.10000000000E+01 0.  0.
    9000005    1    3    3    0    0  0.27789357902E+02  0.50993823971E+02 -0.42319896131E+03  0.42716621981E+03  0.10000000000E+01 0.  0.
<mgrwt>
<rscale>  0 0.12500211E+03</rscale>
<asrwt>0</asrwt>
<pdfrwt beam="1">  1        4 0.96773142E-03 0.12500211E+03</pdfrwt>
<pdfrwt beam="2">  1       -4 0.95541739E-01 0.12500211E+03</pdfrwt>
<totfact> 0.47185612E+03</totfact>
</mgrwt>
</event>
<event>
 5    1  0.3434846E-002  0.1250008E+03  0.7818608E-02  0.1235068E+00
          4   -1    0    0  501    0  0.00000000000E+00  0.00000000000E+00  0.13411224919E+02  0.13471223174E+02  0.12700000000E+01 0.  1.
         -4   -1    0    0    0  501 -0.00000000000E+00 -0.00000000000E+00 -0.29055925141E+03  0.29056202691E+03  0.12700000000E+01 0.  1.
         25    2    1    2    0    0  0.00000000000E+00  0.00000000000E+00 -0.27714802649E+03  0.30403325008E+03  0.12500075426E+03 0.  0.
    9000005    1    3    3    0    0 -0.42642857843E+01  0.62182805391E+02 -0.12758526376E+03  0.14199959489E+03  0.10000000000E+01 0.  0.
    9000005    1    3    3    0    0  0.42642857843E+01 -0.62182805391E+02 -0.14956276274E+03  0.16203365520E+03  0.10000000000E+01 0.  0.
<mgrwt>
<rscale>  0 0.12500075E+03</rscale>
<asrwt>0</asrwt>
<pdfrwt beam="1">  1        4 0.20680943E-02 0.12500075E+03</pdfrwt>
<pdfrwt beam="2">  1       -4 0.44706247E-01 0.12500075E+03</pdfrwt>
<totfact> 0.75094430E+03</totfact>
</mgrwt>
</event>
<event>
 5    1  0.3434846E-002  0.1249859E+03  0.7818608E-02  0.1235091E+00
          4   -1    0    0  501    0  0.00000000000E+00  0.00000000000E+00  0.51798279659E+02  0.51813846370E+02  0.12700000000E+01 0. -1.
         -4   -1    0    0    0  501 -0.00000000000E+00 -0.00000000000E+00 -0.75363460802E+02  0.75374160851E+02  0.12700000000E+01 0. -1.
         25    2    1    2    0    0  0.00000000000E+00  0.00000000000E+00 -0.23565181143E+02  0.12718800722E+03  0.12498588488E+03 0.  0.
    9000005    1    3    3    0    0  0.61714724596E+02 -0.76961620936E+01 -0.56405446206E+01  0.62456015615E+02  0.10000000000E+01 0.  0.
    9000005    1    3    3    0    0 -0.61714724596E+02  0.76961620936E+01 -0.17924636522E+02  0.64731991606E+02  0.10000000000E+01 0.  0.
<mgrwt>
<rscale>  0 0.12498588E+03</rscale>
<asrwt>0</asrwt>
<pdfrwt beam="1">  1        4 0.79709866E-02 0.12498588E+03</pdfrwt>
<pdfrwt beam="2">  1       -4 0.11596399E-01 0.12498588E+03</pdfrwt>
<totfact> 0.10408380E+04</totfact>
</mgrwt>
</event>
<event>
 5    1  0.3434846E-002  0.1250033E+03  0.7818608E-02  0.1235064E+00
         -4   -1    0    0    0  501 -0.00000000000E+00  0.00000000000E+00  0.39076257034E+02  0.39096889439E+02  0.12700000000E+01 0. -1.
          4   -1    0    0  501    0  0.00000000000E+00 -0.00000000000E+00 -0.99919093921E+02  0.99927164625E+02  0.12700000000E+01 0. -1.
         25    2    1    2    0    0  0.00000000000E+00  0.00000000000E+00 -0.60842836887E+02  0.13902405406E+03  0.12500334719E+03 0.  0.
    9000005    1    3    3    0    0 -0.14978085057E+02 -0.44974874673E+02 -0.75712210493E+02  0.89333203243E+02  0.10000000000E+01 0.  0.
    9000005    1    3    3    0    0  0.14978085057E+02  0.44974874673E+02  0.14869373606E+02  0.49690850821E+02  0.10000000000E+01 0.  0.
<mgrwt>
<rscale>  0 0.12500335E+03</rscale>
<asrwt>0</asrwt>
<pdfrwt beam="2">  1        4 0.15374376E-01 0.12500335E+03</pdfrwt>
<pdfrwt beam="1">  1       -4 0.60139398E-02 0.12500335E+03</pdfrwt>
<totfact> 0.10153087E+04</totfact>
</mgrwt>
</event>
<event>
 5    1  0.3434846E-002  0.1249977E+03  0.7818608E-02  0.1235073E+00
         -4   -1    0    0    0  501 -0.00000000000E+00  0.00000000000E+00  0.18226173278E+02  0.18270366509E+02  0.12700000000E+01 0.  1.
          4   -1    0    0  501    0  0.00000000000E+00 -0.00000000000E+00 -0.21400754045E+03  0.21401130874E+03  0.12700000000E+01 0.  1.
         25    2    1    2    0    0  0.00000000000E+00  0.00000000000E+00 -0.19578136717E+03  0.23228167525E+03  0.12499773168E+03 0.  0.
    9000005    1    3    3    0    0 -0.58225884538E+02 -0.21834827426E+02 -0.86421135476E+02  0.10647359286E+03  0.10000000000E+01 0.  0.
    9000005    1    3    3    0    0  0.58225884538E+02  0.21834827426E+02 -0.10936023170E+03  0.12580808239E+03  0.10000000000E+01 0.  0.
<mgrwt>
<rscale>  0 0.12499773E+03</rscale>
<asrwt>0</asrwt>
<pdfrwt beam="2">  1        4 0.32927924E-01 0.12499773E+03</pdfrwt>
<pdfrwt beam="1">  1       -4 0.28077162E-02 0.12499773E+03</pdfrwt>
<totfact> 0.84964771E+03</totfact>
</mgrwt>
</event>
<event>
 5    1  0.3434846E-002  0.1249987E+03  0.7818608E-02  0.1235071E+00
         -4   -1    0    0    0  501 -0.00000000000E+00  0.00000000000E+00  0.91106426182E+03  0.91106514699E+03  0.12700000000E+01 0. -1.
          4   -1    0    0  501    0  0.00000000000E+00 -0.00000000000E+00 -0.41925231426E+01  0.43806563779E+01  0.12700000000E+01 0. -1.
         25    2    1    2    0    0  0.00000000000E+00  0.00000000000E+00  0.90687173867E+03  0.91544580337E+03  0.12499867398E+03 0.  0.
    9000005    1    3    3    0    0 -0.36075404823E+02 -0.34919498539E+02  0.72592670230E+03  0.72766158572E+03  0.10000000000E+01 0.  0.
    9000005    1    3    3    0    0  0.36075404823E+02  0.34919498539E+02  0.18094503637E+03  0.18778421765E+03  0.10000000000E+01 0.  0.
<mgrwt>
<rscale>  0 0.12499867E+03</rscale>
<asrwt>0</asrwt>
<pdfrwt beam="2">  1        4 0.65954326E-03 0.12499867E+03</pdfrwt>
<pdfrwt beam="1">  1       -4 0.14017831E+00 0.12499867E+03</pdfrwt>
<totfact> 0.33576312E+03</totfact>
</mgrwt>
</event>
<event>
 5    1  0.3434846E-002  0.1249991E+03  0.7818608E-02  0.1235071E+00
          4   -1    0    0  501    0  0.00000000000E+00  0.00000000000E+00  0.22070873783E+02  0.22107382693E+02  0.12700000000E+01 0. -1.
         -4   -1    0    0    0  501 -0.00000000000E+00 -0.00000000000E+00 -0.17679905917E+03  0.17680362051E+03  0.12700000000E+01 0. -1.
         25    2    1    2    0    0  0.00000000000E+00  0.00000000000E+00 -0.15472818539E+03  0.19891100320E+03  0.12499910336E+03 0.  0.
    9000005    1    3    3    0    0  0.28759517551E+02  0.39568713702E+02 -0.15479093616E+02  0.51316618097E+02  0.10000000000E+01 0.  0.
    9000005    1    3    3    0    0 -0.28759517551E+02 -0.39568713702E+02 -0.13924909177E+03  0.14759438510E+03  0.10000000000E+01 0.  0.
<mgrwt>
<rscale>  0 0.12499910E+03</rscale>
<asrwt>0</asrwt>
<pdfrwt beam="1">  1        4 0.33986784E-02 0.12499910E+03</pdfrwt>
<pdfrwt beam="2">  1       -4 0.27203014E-01 0.12499910E+03</pdfrwt>
<totfact> 0.90321313E+03</totfact>
</mgrwt>
</event>
<event>
 5    1  0.3434846E-002  0.1249994E+03  0.7818608E-02  0.1235070E+00
          4   -1    0    0  501    0  0.00000000000E+00  0.00000000000E+00  0.94780699568E+02  0.94789207775E+02  0.12700000000E+01 0.  1.
         -4   -1    0    0    0  501 -0.00000000000E+00 -0.00000000000E+00 -0.41193019139E+02  0.41212591835E+02  0.12700000000E+01 0.  1.
         25    2    1    2    0    0  0.00000000000E+00  0.00000000000E+00  0.53587680429E+02  0.13600179961E+03  0.12499940001E+03 0.  0.
    9000005    1    3    3    0    0  0.44374568604E+02 -0.38530746287E+02  0.49912445888E+02  0.77110135538E+02  0.10000000000E+01 0.  0.
    9000005    1    3    3    0    0 -0.44374568604E+02  0.38530746287E+02  0.36752345408E+01  0.58891664072E+02  0.10000000000E+01 0.  0.
<mgrwt>
<rscale>  0 0.12499940E+03</rscale>
<asrwt>0</asrwt>
<pdfrwt beam="1">  1        4 0.14583806E-01 0.12499940E+03</pdfrwt>
<pdfrwt beam="2">  1       -4 0.63395476E-02 0.12499940E+03</pdfrwt>
<totfact> 0.10217137E+04</totfact>
</mgrwt>
</event>
<event>
 5    1  0.3434846E-002  0.1249999E+03  0.7818608E-02  0.1235069E+00
          4   -1    0    0  501    0  0.00000000000E+00  0.00000000000E+00  0.32104830580E+02  0.32129940034E+02  0.12700000000E+01 0.  1.
         -4   -1    0    0    0  501 -0.00000000000E+00 -0.00000000000E+00 -0.12159551993E+03  0.12160215198E+03  0.12700000000E+01 0.  1.
         25    2    1    2    0    0  0.00000000000E+00  0.00000000000E+00 -0.89490689350E+02  0.15373209202E+03  0.12499989054E+03 0.  0.
    9000005    1    3    3    0    0  0.30784803681E+02  0.53605563815E+02 -0.56016006821E+02  0.83426935877E+02  0.10000000000E+01 0.  0.
    9000005    1    3    3    0    0 -0.30784803681E+02 -0.53605563815E+02 -0.33474682529E+02  0.70305156141E+02  0.10000000000E+01 0.  0.
<mgrwt>
<rscale>  0 0.12499989E+03</rscale>
<asrwt>0</asrwt>
<pdfrwt beam="1">  1        4 0.49416464E-02 0.12499989E+03</pdfrwt>
<pdfrwt beam="2">  1       -4 0.18709445E-01 0.12499989E+03</pdfrwt>
<totfact> 0.98565139E+03</totfact>
</mgrwt>
</event>
<event>
 5    1  0.3434846E-002  0.1249991E+03  0.7818608E-02  0.1235071E+00
          4   -1    0    0  501    0  0.00000000000E+00  0.00000000000E+00  0.16208625983E+02  0.16258304224E+02  0.12700000000E+01 0.  1.
         -4   -1    0    0    0  501 -0.00000000000E+00 -0.00000000000E+00 -0.24057455901E+03  0.24057791117E+03  0.12700000000E+01 0.  1.
         25    2    1    2    0    0  0.00000000000E+00  0.00000000000E+00 -0.22436593303E+03  0.25683621540E+03  0.12499907854E+03 0.  0.
    9000005    1    3    3    0    0 -0.27329225398E+02  0.47874641765E+02 -0.17265989897E+03  0.18124929957E+03  0.10000000000E+01 0.  0.
    9000005    1    3    3    0    0  0.27329225398E+02 -0.47874641765E+02 -0.51706034062E+02  0.75586915822E+02  0.10000000000E+01 0.  0.
<mgrwt>
<rscale>  0 0.12499908E+03</rscale>
<asrwt>0</asrwt>
<pdfrwt beam="1">  1        4 0.24977142E-02 0.12499908E+03</pdfrwt>
<pdfrwt beam="2">  1       -4 0.37015547E-01 0.12499908E+03</pdfrwt>
<totfact> 0.81353783E+03</totfact>
</mgrwt>
</event>
<event>
 5    1  0.3434846E-002  0.1249990E+03  0.7818608E-02  0.1235071E+00
         -4   -1    0    0    0  501 -0.00000000000E+00  0.00000000000E+00  0.32547016597E+03  0.32547264376E+03  0.12700000000E+01 0.  1.
          4   -1    0    0  501    0  0.00000000000E+00 -0.00000000000E+00 -0.11965556520E+02  0.12032765385E+02  0.12700000000E+01 0.  1.
         25    2    1    2    0    0  0.00000000000E+00  0.00000000000E+00  0.31350460945E+03  0.33750540915E+03  0.12499904422E+03 0.  0.
    9000005    1    3    3    0    0 -0.24128317707E+02 -0.56902076928E+02  0.18167028021E+03  0.19189870449E+03  0.10000000000E+01 0.  0.
    9000005    1    3    3    0    0  0.24128317707E+02  0.56902076928E+02  0.13183432924E+03  0.14560670466E+03  0.10000000000E+01 0.  0.
<mgrwt>
<rscale>  0 0.12499904E+03</rscale>
<asrwt>0</asrwt>
<pdfrwt beam="2">  1        4 0.18462154E-02 0.12499904E+03</pdfrwt>
<pdfrwt beam="1">  1       -4 0.50077693E-01 0.12499904E+03</pdfrwt>
<totfact> 0.71122849E+03</totfact>
</mgrwt>
</event>
<event>
 5    1  0.3434846E-002  0.1250042E+03  0.7818608E-02  0.1235063E+00
         -4   -1    0    0    0  501 -0.00000000000E+00  0.00000000000E+00  0.11721397410E+02  0.11789998187E+02  0.12700000000E+01 0.  1.
          4   -1    0    0  501    0  0.00000000000E+00 -0.00000000000E+00 -0.33223802348E+03  0.33224045079E+03  0.12700000000E+01 0.  1.
         25    2    1    2    0    0  0.00000000000E+00  0.00000000000E+00 -0.32051662607E+03  0.34403044898E+03  0.12500416889E+03 0.  0.
    9000005    1    3    3    0    0  0.61511652431E+02 -0.24431421452E+00 -0.12988878413E+03  0.14372139478E+03  0.10000000000E+01 0.  0.
    9000005    1    3    3    0    0 -0.61511652431E+02  0.24431421452E+00 -0.19062784194E+03  0.20030905420E+03  0.10000000000E+01 0.  0.
<mgrwt>
<rscale>  0 0.12500417E+03</rscale>
<asrwt>0</asrwt>
<pdfrwt beam="2">  1        4 0.51118999E-01 0.12500417E+03</pdfrwt>
<pdfrwt beam="1">  1       -4 0.18087559E-02 0.12500417E+03</pdfrwt>
<totfact> 0.70379818E+03</totfact>
</mgrwt>
</event>
<event>
 4    1  0.3434846E-002  0.1246284E+03  0.7818608E-02  0.1235651E+00
          4   -1    0    0  501    0  0.00000000000E+00  0.00000000000E+00  0.35380956039E+02  0.35403742037E+02  0.12700000000E+01 0. -1.
         -4   -1    0    0    0  501 -0.00000000000E+00 -0.00000000000E+00 -0.10968818832E+03  0.10969554027E+03  0.12700000000E+01 0. -1.
    9000005    1    1    2    0    0  0.69011464535E+01 -0.54378537625E+02 -0.26671200582E+01  0.54888657353E+02  0.10000000000E+01 0.  0.
    9000005    1    1    2    0    0 -0.69011464535E+01  0.54378537625E+02 -0.71640112219E+02  0.90210624959E+02  0.10000000000E+01 0.  0.
<mgrwt>
<rscale>  0 0.12462840E+03</rscale>
<asrwt>0</asrwt>
<pdfrwt beam="1">  1        4 0.54455423E-02 0.12462840E+03</pdfrwt>
<pdfrwt beam="2">  1       -4 0.16877424E-01 0.12462840E+03</pdfrwt>
<totfact> 0.10113354E+04</totfact>
</mgrwt>
</event>
<event>
 5    1  0.3434846E-002  0.1250159E+03  0.7818608E-02  0.1235044E+00
          4   -1    0    0  501    0  0.00000000000E+00  0.00000000000E+00  0.41736862541E+02  0.41756180318E+02  0.12700000000E+01 0. -1.
         -4   -1    0    0    0  501 -0.00000000000E+00 -0.00000000000E+00 -0.93570917273E+02  0.93579535472E+02  0.12700000000E+01 0. -1.
         25    2    1    2    0    0  0.00000000000E+00  0.00000000000E+00 -0.51834054732E+02  0.13533571579E+03  0.12501594594E+03 0.  0.
    9000005    1    3    3    0    0 -0.11364341891E+02 -0.10690065529E+02  0.39600101275E+02  0.42574567392E+02  0.10000000000E+01 0.  0.
    9000005    1    3    3    0    0  0.11364341891E+02  0.10690065529E+02 -0.91434156006E+02  0.92761148399E+02  0.10000000000E+01 0.  0.
<mgrwt>
<rscale>  0 0.12501595E+03</rscale>
<asrwt>0</asrwt>
<pdfrwt beam="1">  1        4 0.64232047E-02 0.12501595E+03</pdfrwt>
<pdfrwt beam="2">  1       -4 0.14397675E-01 0.12501595E+03</pdfrwt>
<totfact> 0.10227321E+04</totfact>
</mgrwt>
</event>
<event>
 5    1  0.3434846E-002  0.1250008E+03  0.7818608E-02  0.1235068E+00
         -4   -1    0    0    0  501 -0.00000000000E+00  0.00000000000E+00  0.21624281549E+03  0.21624654483E+03  0.12700000000E+01 0. -1.
          4   -1    0    0  501    0  0.00000000000E+00 -0.00000000000E+00 -0.18038193149E+02  0.18082845796E+02  0.12700000000E+01 0. -1.
         25    2    1    2    0    0  0.00000000000E+00  0.00000000000E+00  0.19820462234E+03  0.23432939063E+03  0.12500076397E+03 0.  0.
    9000005    1    3    3    0    0  0.19613160731E+02  0.48189000965E+02  0.16399900631E+03  0.17205676377E+03  0.10000000000E+01 0.  0.
    9000005    1    3    3    0    0 -0.19613160731E+02 -0.48189000965E+02  0.34205616034E+02  0.62272626860E+02  0.10000000000E+01 0.  0.
<mgrwt>
<rscale>  0 0.12500076E+03</rscale>
<asrwt>0</asrwt>
<pdfrwt beam="2">  1        4 0.27788282E-02 0.12500076E+03</pdfrwt>
<pdfrwt beam="1">  1       -4 0.33271849E-01 0.12500076E+03</pdfrwt>
<totfact> 0.84647774E+03</totfact>
</mgrwt>
</event>
<event>
 5    1  0.3434846E-002  0.1250021E+03  0.7818608E-02  0.1235066E+00
         -4   -1    0    0    0  501 -0.00000000000E+00  0.00000000000E+00  0.58109163513E+02  0.58123040046E+02  0.12700000000E+01 0. -1.
          4   -1    0    0  501    0  0.00000000000E+00 -0.00000000000E+00 -0.67197006773E+02  0.67209006980E+02  0.12700000000E+01 0. -1.
         25    2    1    2    0    0  0.00000000000E+00  0.00000000000E+00 -0.90878432605E+01  0.12533204703E+03  0.12500213245E+03 0.  0.
    9000005    1    3    3    0    0 -0.50872012010E+02  0.33620014386E+02 -0.18259070584E+02  0.63660510773E+02  0.10000000000E+01 0.  0.
    9000005    1    3    3    0    0  0.50872012010E+02 -0.33620014386E+02  0.91712273236E+01  0.61671536253E+02  0.10000000000E+01 0.  0.
<mgrwt>
<rscale>  0 0.12500213E+03</rscale>
<asrwt>0</asrwt>
<pdfrwt beam="2">  1        4 0.10339992E-01 0.12500213E+03</pdfrwt>
<pdfrwt beam="1">  1       -4 0.89418618E-02 0.12500213E+03</pdfrwt>
<totfact> 0.10445151E+04</totfact>
</mgrwt>
</event>
<event>
 5    1  0.3434846E-002  0.1250081E+03  0.7818608E-02  0.1235057E+00
          4   -1    0    0  501    0  0.00000000000E+00  0.00000000000E+00  0.38379692532E+02  0.38400699198E+02  0.12700000000E+01 0.  1.
         -4   -1    0    0    0  501 -0.00000000000E+00 -0.00000000000E+00 -0.10173950738E+03  0.10174743368E+03  0.12700000000E+01 0.  1.
         25    2    1    2    0    0  0.00000000000E+00  0.00000000000E+00 -0.63359814844E+02  0.14014813288E+03  0.12500813179E+03 0.  0.
    9000005    1    3    3    0    0  0.20116269720E+02 -0.52211134618E+02 -0.62892187944E+02  0.84184881006E+02  0.10000000000E+01 0.  0.
    9000005    1    3    3    0    0 -0.20116269720E+02  0.52211134618E+02 -0.46762689941E+00  0.55963251875E+02  0.10000000000E+01 0.  0.
<mgrwt>
<rscale>  0 0.12500813E+03</rscale>
<asrwt>0</asrwt>
<pdfrwt beam="1">  1        4 0.59067937E-02 0.12500813E+03</pdfrwt>
<pdfrwt beam="2">  1       -4 0.15654457E-01 0.12500813E+03</pdfrwt>
<totfact> 0.10128661E+04</totfact>
</mgrwt>
</event>
<event>
 5    1  0.3434846E-002  0.1250001E+03  0.7818608E-02  0.1235069E+00
         -4   -1    0    0    0  501 -0.00000000000E+00  0.00000000000E+00  0.75616450592E+01  0.76675534560E+01  0.12700000000E+01 0. -1.
          4   -1    0    0  501    0  0.00000000000E+00 -0.00000000000E+00 -0.51288889998E+03  0.51289047235E+03  0.12700000000E+01 0. -1.
         25    2    1    2    0    0  0.00000000000E+00  0.00000000000E+00 -0.50532725492E+03  0.52055802580E+03  0.12500009464E+03 0.  0.
    9000005    1    3    3    0    0  0.28051414700E+01  0.20249746935E+02 -0.67369572962E+01  0.21547799498E+02  0.10000000000E+01 0.  0.
    9000005    1    3    3    0    0 -0.28051414700E+01 -0.20249746935E+02 -0.49859029763E+03  0.49901022630E+03  0.10000000000E+01 0.  0.
<mgrwt>
<rscale>  0 0.12500009E+03</rscale>
<asrwt>0</asrwt>
<pdfrwt beam="2">  1        4 0.78914225E-01 0.12500009E+03</pdfrwt>
<pdfrwt beam="1">  1       -4 0.11715982E-02 0.12500009E+03</pdfrwt>
<totfact> 0.54303765E+03</totfact>
</mgrwt>
</event>
<event>
 5    1  0.3434846E-002  0.1250081E+03  0.7818608E-02  0.1235057E+00
          4   -1    0    0  501    0  0.00000000000E+00  0.00000000000E+00  0.33243687346E+02  0.33267937242E+02  0.12700000000E+01 0.  1.
         -4   -1    0    0    0  501 -0.00000000000E+00 -0.00000000000E+00 -0.11744823390E+03  0.11745510013E+03  0.12700000000E+01 0.  1.
         25    2    1    2    0    0  0.00000000000E+00  0.00000000000E+00 -0.84204546559E+02  0.15072303738E+03  0.12500811307E+03 0.  0.
    9000005    1    3    3    0    0 -0.38425175735E+02  0.46349555698E+02 -0.21891617324E+02  0.64070417141E+02  0.10000000000E+01 0.  0.
    9000005    1    3    3    0    0  0.38425175735E+02 -0.46349555698E+02 -0.62312929235E+02  0.86652620234E+02  0.10000000000E+01 0.  0.
<mgrwt>
<rscale>  0 0.12500811E+03</rscale>
<asrwt>0</asrwt>
<pdfrwt beam="1">  1        4 0.51168070E-02 0.12500811E+03</pdfrwt>
<pdfrwt beam="2">  1       -4 0.18071352E-01 0.12500811E+03</pdfrwt>
<totfact> 0.99141665E+03</totfact>
</mgrwt>
</event>
<event>
 5    1  0.3434846E-002  0.1250015E+03  0.7818608E-02  0.1235067E+00
          4   -1    0    0  501    0  0.00000000000E+00  0.00000000000E+00  0.23499768288E+03  0.23500111460E+03  0.12700000000E+01 0. -1.
         -4   -1    0    0    0  501 -0.00000000000E+00 -0.00000000000E+00 -0.16595094876E+02  0.16643619617E+02  0.12700000000E+01 0. -1.
         25    2    1    2    0    0  0.00000000000E+00  0.00000000000E+00  0.21840258801E+03  0.25164473421E+03  0.12500152722E+03 0.  0.
    9000005    1    3    3    0    0  0.31115438684E+00 -0.16166172463E+02  0.23072358870E+03  0.23129162616E+03  0.10000000000E+01 0.  0.
    9000005    1    3    3    0    0 -0.31115438684E+00  0.16166172463E+02 -0.12321000694E+02  0.20353108049E+02  0.10000000000E+01 0.  0.
<mgrwt>
<rscale>  0 0.12500153E+03</rscale>
<asrwt>0</asrwt>
<pdfrwt beam="1">  1        4 0.36157485E-01 0.12500153E+03</pdfrwt>
<pdfrwt beam="2">  1       -4 0.25570883E-02 0.12500153E+03</pdfrwt>
<totfact> 0.82090300E+03</totfact>
</mgrwt>
</event>
<event>
 5    1  0.3434846E-002  0.1249960E+03  0.7818608E-02  0.1235076E+00
          4   -1    0    0  501    0  0.00000000000E+00  0.00000000000E+00  0.73939961421E+03  0.73940070489E+03  0.12700000000E+01 0.  1.
         -4   -1    0    0    0  501 -0.00000000000E+00 -0.00000000000E+00 -0.52052253628E+01  0.53579166732E+01  0.12700000000E+01 0.  1.
         25    2    1    2    0    0  0.00000000000E+00  0.00000000000E+00  0.73419438884E+03  0.74475862156E+03  0.12499601506E+03 0.  0.
    9000005    1    3    3    0    0 -0.50279622176E+02  0.32018020110E+02  0.25534101018E+03  0.26220836275E+03  0.10000000000E+01 0.  0.
    9000005    1    3    3    0    0  0.50279622176E+02 -0.32018020110E+02  0.47885337867E+03  0.48255025881E+03  0.10000000000E+01 0.  0.
<mgrwt>
<rscale>  0 0.12499602E+03</rscale>
<asrwt>0</asrwt>
<pdfrwt beam="1">  1        4 0.11376561E+00 0.12499602E+03</pdfrwt>
<pdfrwt beam="2">  1       -4 0.81263330E-03 0.12499602E+03</pdfrwt>
<totfact> 0.40829651E+03</totfact>
</mgrwt>
</event>
<event>
 5    1  0.3434846E-002  0.1249982E+03  0.7818608E-02  0.1235072E+00
         -4   -1    0    0    0  501 -0.00000000000E+00  0.00000000000E+00  0.20630503499E+02  0.20669556711E+02  0.12700000000E+01 0. -1.
          4   -1    0    0  501    0  0.00000000000E+00 -0.00000000000E+00 -0.18911788295E+03  0.18912214717E+03  0.12700000000E+01 0. -1.
         25    2    1    2    0    0  0.00000000000E+00  0.00000000000E+00 -0.16848737945E+03  0.20979170388E+03  0.12499824792E+03 0.  0.
    9000005    1    3    3    0    0 -0.53323589760E+02  0.32195652595E+02 -0.75822546261E+02  0.98132684629E+02  0.10000000000E+01 0.  0.
    9000005    1    3    3    0    0  0.53323589760E+02 -0.32195652595E+02 -0.92664833186E+02  0.11165901925E+03  0.10000000000E+01 0.  0.
<mgrwt>
<rscale>  0 0.12499825E+03</rscale>
<asrwt>0</asrwt>
<pdfrwt beam="2">  1        4 0.29098390E-01 0.12499825E+03</pdfrwt>
<pdfrwt beam="1">  1       -4 0.31772558E-02 0.12499825E+03</pdfrwt>
<totfact> 0.88513377E+03</totfact>
</mgrwt>
</event>
<event>
 5    1  0.3434846E-002  0.1249984E+03  0.7818608E-02  0.1235072E+00
         -4   -1    0    0    0  501 -0.00000000000E+00  0.00000000000E+00  0.42202478464E+03  0.42202669554E+03  0.12700000000E+01 0. -1.
          4   -1    0    0  501    0  0.00000000000E+00 -0.00000000000E+00 -0.92102341733E+01  0.92973820792E+01  0.12700000000E+01 0. -1.
         25    2    1    2    0    0  0.00000000000E+00  0.00000000000E+00  0.41281455046E+03  0.43132407762E+03  0.12499842743E+03 0.  0.
    9000005    1    3    3    0    0  0.29661836832E+02 -0.52001779006E+02  0.14457036302E+03  0.15647875079E+03  0.10000000000E+01 0.  0.
    9000005    1    3    3    0    0 -0.29661836832E+02  0.52001779006E+02  0.26824418744E+03  0.27484532683E+03  0.10000000000E+01 0.  0.
<mgrwt>
<rscale>  0 0.12499843E+03</rscale>
<asrwt>0</asrwt>
<pdfrwt beam="2">  1        4 0.14238097E-02 0.12499843E+03</pdfrwt>
<pdfrwt beam="1">  1       -4 0.64933745E-01 0.12499843E+03</pdfrwt>
<totfact> 0.61618287E+03</totfact>
</mgrwt>
</event>
<event>
 5    1  0.3434846E-002  0.1250028E+03  0.7818608E-02  0.1235065E+00
         -4   -1    0    0    0  501 -0.00000000000E+00  0.00000000000E+00  0.50728467553E+03  0.50728626527E+03  0.12700000000E+01 0.  1.
          4   -1    0    0  501    0  0.00000000000E+00 -0.00000000000E+00 -0.76466820481E+01  0.77514286647E+01  0.12700000000E+01 0.  1.
         25    2    1    2    0    0  0.00000000000E+00  0.00000000000E+00  0.49963799348E+03  0.51503769393E+03  0.12500280652E+03 0.  0.
    9000005    1    3    3    0    0 -0.56156874718E+02 -0.83822317013E+01  0.14225320629E+03  0.15316928897E+03  0.10000000000E+01 0.  0.
    9000005    1    3    3    0    0  0.56156874718E+02  0.83822317013E+01  0.35738478719E+03  0.36186840496E+03  0.10000000000E+01 0.  0.
<mgrwt>
<rscale>  0 0.12500281E+03</rscale>
<asrwt>0</asrwt>
<pdfrwt beam="2">  1        4 0.11845924E-02 0.12500281E+03</pdfrwt>
<pdfrwt beam="1">  1       -4 0.78051975E-01 0.12500281E+03</pdfrwt>
<totfact> 0.54712840E+03</totfact>
</mgrwt>
</event>
<event>
 5    1  0.3434846E-002  0.1249971E+03  0.7818608E-02  0.1235074E+00
         -4   -1    0    0    0  501 -0.00000000000E+00  0.00000000000E+00  0.33409395955E+03  0.33409637338E+03  0.12700000000E+01 0. -1.
          4   -1    0    0  501    0  0.00000000000E+00 -0.00000000000E+00 -0.11654569196E+02  0.11723561026E+02  0.12700000000E+01 0. -1.
         25    2    1    2    0    0  0.00000000000E+00  0.00000000000E+00  0.32243939035E+03  0.34581993441E+03  0.12499706630E+03 0.  0.
    9000005    1    3    3    0    0  0.19567655414E+01  0.40229252904E+02  0.29032797777E+02  0.49660095322E+02  0.10000000000E+01 0.  0.
    9000005    1    3    3    0    0 -0.19567655414E+01 -0.40229252904E+02  0.29340659257E+03  0.29615983908E+03  0.10000000000E+01 0.  0.
<mgrwt>
<rscale>  0 0.12499707E+03</rscale>
<asrwt>0</asrwt>
<pdfrwt beam="2">  1        4 0.17985032E-02 0.12499707E+03</pdfrwt>
<pdfrwt beam="1">  1       -4 0.51404568E-01 0.12499707E+03</pdfrwt>
<totfact> 0.70191428E+03</totfact>
</mgrwt>
</event>
<event>
 5    1  0.3434846E-002  0.1249974E+03  0.7818608E-02  0.1235073E+00
          4   -1    0    0  501    0  0.00000000000E+00  0.00000000000E+00  0.24791937149E+03  0.24792262434E+03  0.12700000000E+01 0.  1.
         -4   -1    0    0    0  501 -0.00000000000E+00 -0.00000000000E+00 -0.15726518292E+02  0.15777714587E+02  0.12700000000E+01 0.  1.
         25    2    1    2    0    0  0.00000000000E+00  0.00000000000E+00  0.23219285320E+03  0.26370033893E+03  0.12499739067E+03 0.  0.
    9000005    1    3    3    0    0 -0.36012816963E+01 -0.30175113669E+02  0.23129125680E+03  0.23328127269E+03  0.10000000000E+01 0.  0.
    9000005    1    3    3    0    0  0.36012816963E+01  0.30175113669E+02  0.90159639721E+00  0.30419066239E+02  0.10000000000E+01 0.  0.
<mgrwt>
<rscale>  0 0.12499739E+03</rscale>
<asrwt>0</asrwt>
<pdfrwt beam="1">  1        4 0.38145629E-01 0.12499739E+03</pdfrwt>
<pdfrwt beam="2">  1       -4 0.24236528E-02 0.12499739E+03</pdfrwt>
<totfact> 0.80394227E+03</totfact>
</mgrwt>
</event>
<event>
 5    1  0.3434846E-002  0.1249937E+03  0.7818608E-02  0.1235079E+00
         -4   -1    0    0    0  501 -0.00000000000E+00  0.00000000000E+00  0.64560539374E+02  0.64573029542E+02  0.12700000000E+01 0. -1.
          4   -1    0    0  501    0  0.00000000000E+00 -0.00000000000E+00 -0.60474087534E+02  0.60487421528E+02  0.12700000000E+01 0. -1.
         25    2    1    2    0    0  0.00000000000E+00  0.00000000000E+00  0.40864518399E+01  0.12506045107E+03  0.12499366917E+03 0.  0.
    9000005    1    3    3    0    0 -0.39020247418E+02 -0.31127459487E+01  0.50778442911E+02  0.64122688344E+02  0.10000000000E+01 0.  0.
    9000005    1    3    3    0    0  0.39020247418E+02  0.31127459487E+01 -0.46691991072E+02  0.60937762727E+02  0.10000000000E+01 0.  0.
<mgrwt>
<rscale>  0 0.12499367E+03</rscale>
<asrwt>0</asrwt>
<pdfrwt beam="2">  1        4 0.93056922E-02 0.12499367E+03</pdfrwt>
<pdfrwt beam="1">  1       -4 0.99343772E-02 0.12499367E+03</pdfrwt>
<totfact> 0.10453045E+04</totfact>
</mgrwt>
</event>
<event>
 5    1  0.3434846E-002  0.1249987E+03  0.7818608E-02  0.1235071E+00
         -4   -1    0    0    0  501 -0.00000000000E+00  0.00000000000E+00  0.44916331678E+02  0.44934282585E+02  0.12700000000E+01 0. -1.
          4   -1    0    0  501    0  0.00000000000E+00 -0.00000000000E+00 -0.86925502964E+02  0.86934779954E+02  0.12700000000E+01 0. -1.
         25    2    1    2    0    0  0.00000000000E+00  0.00000000000E+00 -0.42009171286E+02  0.13186906254E+03  0.12499871672E+03 0.  0.
    9000005    1    3    3    0    0  0.81674946870E+00 -0.62221148146E+02 -0.27067774741E+02  0.67866065053E+02  0.10000000000E+01 0.  0.
    9000005    1    3    3    0    0 -0.81674946870E+00  0.62221148146E+02 -0.14941396546E+02  0.64002997485E+02  0.10000000000E+01 0.  0.
<mgrwt>
<rscale>  0 0.12499872E+03</rscale>
<asrwt>0</asrwt>
<pdfrwt beam="2">  1        4 0.13375249E-01 0.12499872E+03</pdfrwt>
<pdfrwt beam="1">  1       -4 0.69122994E-02 0.12499872E+03</pdfrwt>
<totfact> 0.10304792E+04</totfact>
</mgrwt>
</event>
<event>
 5    1  0.3434846E-002  0.1250012E+03  0.7818608E-02  0.1235067E+00
          4   -1    0    0  501    0  0.00000000000E+00  0.00000000000E+00  0.72896377947E+02  0.72907440071E+02  0.12700000000E+01 0.  1.
         -4   -1    0    0    0  501 -0.00000000000E+00 -0.00000000000E+00 -0.53564714503E+02  0.53579768008E+02  0.12700000000E+01 0.  1.
         25    2    1    2    0    0  0.00000000000E+00  0.00000000000E+00  0.19331663443E+02  0.12648720808E+03  0.12500120238E+03 0.  0.
    9000005    1    3    3    0    0  0.61045835034E+02  0.33310923561E+01 -0.34354794747E+01  0.61241266076E+02  0.10000000000E+01 0.  0.
    9000005    1    3    3    0    0 -0.61045835034E+02 -0.33310923561E+01  0.22767142918E+02  0.65245942004E+02  0.10000000000E+01 0.  0.
<mgrwt>
<rscale>  0 0.12500120E+03</rscale>
<asrwt>0</asrwt>
<pdfrwt beam="1">  1        4 0.11216836E-01 0.12500120E+03</pdfrwt>
<pdfrwt beam="2">  1       -4 0.82427343E-02 0.12500120E+03</pdfrwt>
<totfact> 0.10420024E+04</totfact>
</mgrwt>
</event>
<event>
 5    1  0.3434846E-002  0.1249986E+03  0.7818608E-02  0.1235072E+00
         -4   -1    0    0    0  501 -0.00000000000E+00  0.00000000000E+00  0.13513150163E+04  0.13513156131E+04  0.12700000000E+01 0. -1.
          4   -1    0    0  501    0  0.00000000000E+00 -0.00000000000E+00 -0.27505164689E+01  0.30295611639E+01  0.12700000000E+01 0. -1.
         25    2    1    2    0    0  0.00000000000E+00  0.00000000000E+00  0.13485644998E+04  0.13543451743E+04  0.12499856326E+03 0.  0.
    9000005    1    3    3    0    0 -0.50574254774E+02  0.33142775196E+02  0.50332388265E+03  0.50694391173E+03  0.10000000000E+01 0.  0.
    9000005    1    3    3    0    0  0.50574254774E+02 -0.33142775196E+02  0.84524061719E+03  0.84740126253E+03  0.10000000000E+01 0.  0.
<mgrwt>
<rscale>  0 0.12499856E+03</rscale>
<asrwt>0</asrwt>
<pdfrwt beam="2">  1        4 0.44466695E-03 0.12499856E+03</pdfrwt>
<pdfrwt beam="1">  1       -4 0.20791627E+00 0.12499856E+03</pdfrwt>
<totfact> 0.20981639E+03</totfact>
</mgrwt>
</event>
<event>
 5    1  0.3434846E-002  0.1250008E+03  0.7818608E-02  0.1235068E+00
         -4   -1    0    0    0  501 -0.00000000000E+00  0.00000000000E+00  0.33237093629E+03  0.33237336263E+03  0.12700000000E+01 0. -1.
          4   -1    0    0  501    0  0.00000000000E+00 -0.00000000000E+00 -0.11716055701E+02  0.11784687572E+02  0.12700000000E+01 0. -1.
         25    2    1    2    0    0  0.00000000000E+00  0.00000000000E+00  0.32065488059E+03  0.34415805021E+03  0.12500084431E+03 0.  0.
    9000005    1    3    3    0    0 -0.55040470810E+02 -0.28815892073E+02  0.17889781413E+03  0.18938119485E+03  0.10000000000E+01 0.  0.
    9000005    1    3    3    0    0  0.55040470810E+02  0.28815892073E+02  0.14175706646E+03  0.15477685535E+03  0.10000000000E+01 0.  0.
<mgrwt>
<rscale>  0 0.12500084E+03</rscale>
<asrwt>0</asrwt>
<pdfrwt beam="2">  1        4 0.18079365E-02 0.12500084E+03</pdfrwt>
<pdfrwt beam="1">  1       -4 0.51139444E-01 0.12500084E+03</pdfrwt>
<totfact> 0.70370751E+03</totfact>
</mgrwt>
</event>
<event>
 5    1  0.3434846E-002  0.1249969E+03  0.7818608E-02  0.1235074E+00
         -4   -1    0    0    0  501 -0.00000000000E+00  0.00000000000E+00  0.55120046334E+02  0.55134675185E+02  0.12700000000E+01 0. -1.
          4   -1    0    0  501    0  0.00000000000E+00 -0.00000000000E+00 -0.70834856720E+02  0.70846240736E+02  0.12700000000E+01 0. -1.
         25    2    1    2    0    0  0.00000000000E+00  0.00000000000E+00 -0.15714810386E+02  0.12598091592E+03  0.12499694361E+03 0.  0.
    9000005    1    3    3    0    0 -0.30214606880E+01 -0.22455407717E+02 -0.66554024139E+02  0.70312251348E+02  0.10000000000E+01 0.  0.
    9000005    1    3    3    0    0  0.30214606880E+01  0.22455407717E+02  0.50839213753E+02  0.55668664574E+02  0.10000000000E+01 0.  0.
<mgrwt>
<rscale>  0 0.12499694E+03</rscale>
<asrwt>0</asrwt>
<pdfrwt beam="2">  1        4 0.10899671E-01 0.12499694E+03</pdfrwt>
<pdfrwt beam="1">  1       -4 0.84820081E-02 0.12499694E+03</pdfrwt>
<totfact> 0.10432095E+04</totfact>
</mgrwt>
</event>
<event>
 5    1  0.3434846E-002  0.1250001E+03  0.7818608E-02  0.1235069E+00
         -4   -1    0    0    0  501 -0.00000000000E+00  0.00000000000E+00  0.15958147675E+02  0.16008603225E+02  0.12700000000E+01 0. -1.
          4   -1    0    0  501    0  0.00000000000E+00 -0.00000000000E+00 -0.24434279299E+03  0.24434609346E+03  0.12700000000E+01 0. -1.
         25    2    1    2    0    0  0.00000000000E+00  0.00000000000E+00 -0.22838464532E+03  0.26035469668E+03  0.12500008747E+03 0.  0.
    9000005    1    3    3    0    0  0.19267838380E+02  0.84323093078E+01 -0.23675978718E+03  0.23769423691E+03  0.10000000000E+01 0.  0.
    9000005    1    3    3    0    0 -0.19267838380E+02 -0.84323093078E+01  0.83751418564E+01  0.22660459775E+02  0.10000000000E+01 0.  0.
<mgrwt>
<rscale>  0 0.12500009E+03</rscale>
<asrwt>0</asrwt>
<pdfrwt beam="2">  1        4 0.37595331E-01 0.12500009E+03</pdfrwt>
<pdfrwt beam="1">  1       -4 0.24592349E-02 0.12500009E+03</pdfrwt>
<totfact> 0.80856153E+03</totfact>
</mgrwt>
</event>
<event>
 5    1  0.3434846E-002  0.1250021E+03  0.7818608E-02  0.1235066E+00
          4   -1    0    0  501    0  0.00000000000E+00  0.00000000000E+00  0.31262891533E+04  0.31262894113E+04  0.12700000000E+01 0. -1.
         -4   -1    0    0    0  501 -0.00000000000E+00 -0.00000000000E+00 -0.92649850900E+00  0.15720367321E+01  0.12700000000E+01 0. -1.
         25    2    1    2    0    0  0.00000000000E+00  0.00000000000E+00  0.31253626548E+04  0.31278614480E+04  0.12500205542E+03 0.  0.
    9000005    1    3    3    0    0 -0.58895069015E+02  0.21611040226E+01  0.20828113258E+04  0.20836451997E+04  0.10000000000E+01 0.  0.
    9000005    1    3    3    0    0  0.58895069015E+02 -0.21611040226E+01  0.10425513290E+04  0.10442162483E+04  0.10000000000E+01 0.  0.
<mgrwt>
<rscale>  0 0.12500206E+03</rscale>
<asrwt>0</asrwt>
<pdfrwt beam="1">  1        4 0.48101187E+00 0.12500206E+03</pdfrwt>
<pdfrwt beam="2">  1       -4 0.19221701E-03 0.12500206E+03</pdfrwt>
<totfact> 0.13814942E+02</totfact>
</mgrwt>
</event>
<event>
 5    1  0.3434846E-002  0.1249992E+03  0.7818608E-02  0.1235071E+00
          4   -1    0    0  501    0  0.00000000000E+00  0.00000000000E+00  0.17459382152E+03  0.17459844047E+03  0.12700000000E+01 0. -1.
         -4   -1    0    0    0  501 -0.00000000000E+00 -0.00000000000E+00 -0.22350121684E+02  0.22386175182E+02  0.12700000000E+01 0. -1.
         25    2    1    2    0    0  0.00000000000E+00  0.00000000000E+00  0.15224369984E+03  0.19698461565E+03  0.12499917865E+03 0.  0.
    9000005    1    3    3    0    0  0.38289594502E+02  0.45102124840E+02  0.44411490931E+02  0.73984290487E+02  0.10000000000E+01 0.  0.
    9000005    1    3    3    0    0 -0.38289594502E+02 -0.45102124840E+02  0.10783220891E+03  0.12300032516E+03  0.10000000000E+01 0.  0.
<mgrwt>
<rscale>  0 0.12499918E+03</rscale>
<asrwt>0</asrwt>
<pdfrwt beam="1">  1        4 0.26863717E-01 0.12499918E+03</pdfrwt>
<pdfrwt beam="2">  1       -4 0.34416089E-02 0.12499918E+03</pdfrwt>
<totfact> 0.90647682E+03</totfact>
</mgrwt>
</event>
<event>
 5    1  0.3434846E-002  0.1250039E+03  0.7818608E-02  0.1235063E+00
         -4   -1    0    0    0  501 -0.00000000000E+00  0.00000000000E+00  0.12227626442E+02  0.12293402637E+02  0.12700000000E+01 0.  1.
          4   -1    0    0  501    0  0.00000000000E+00 -0.00000000000E+00 -0.31855696340E+03  0.31855949496E+03  0.12700000000E+01 0.  1.
         25    2    1    2    0    0  0.00000000000E+00  0.00000000000E+00 -0.30632933696E+03  0.33085289760E+03  0.12500390861E+03 0.  0.
    9000005    1    3    3    0    0  0.36700780033E+02 -0.49625214551E+02 -0.12724753573E+03  0.14143035220E+03  0.10000000000E+01 0.  0.
    9000005    1    3    3    0    0 -0.36700780033E+02  0.49625214551E+02 -0.17908180123E+03  0.18942254540E+03  0.10000000000E+01 0.  0.
<mgrwt>
<rscale>  0 0.12500391E+03</rscale>
<asrwt>0</asrwt>
<pdfrwt beam="2">  1        4 0.49014012E-01 0.12500391E+03</pdfrwt>
<pdfrwt beam="1">  1       -4 0.18864280E-02 0.12500391E+03</pdfrwt>
<totfact> 0.71877421E+03</totfact>
</mgrwt>
</event>
<event>
 5    1  0.3434846E-002  0.1250022E+03  0.7818608E-02  0.1235066E+00
         -4   -1    0    0    0  501 -0.00000000000E+00  0.00000000000E+00  0.10258453980E+04  0.10258461841E+04  0.12700000000E+01 0.  1.
          4   -1    0    0  501    0  0.00000000000E+00 -0.00000000000E+00 -0.37012717180E+01  0.39130949810E+01  0.12700000000E+01 0.  1.
         25    2    1    2    0    0  0.00000000000E+00  0.00000000000E+00  0.10221441262E+04  0.10297592791E+04  0.12500223208E+03 0.  0.
    9000005    1    3    3    0    0 -0.13414149266E+02 -0.33179844510E+01  0.10131425386E+04  0.10132372634E+04  0.10000000000E+01 0.  0.
    9000005    1    3    3    0    0  0.13414149266E+02  0.33179844510E+01  0.90015876106E+01  0.16522015641E+02  0.10000000000E+01 0.  0.
<mgrwt>
<rscale>  0 0.12500223E+03</rscale>
<asrwt>0</asrwt>
<pdfrwt beam="2">  1        4 0.58578125E-03 0.12500223E+03</pdfrwt>
<pdfrwt beam="1">  1       -4 0.15783865E+00 0.12500223E+03</pdfrwt>
<totfact> 0.29633842E+03</totfact>
</mgrwt>
</event>
<event>
 5    1  0.3434846E-002  0.1249639E+03  0.7818608E-02  0.1235126E+00
         -4   -1    0    0    0  501 -0.00000000000E+00  0.00000000000E+00  0.33952949976E+02  0.33976693660E+02  0.12700000000E+01 0.  1.
          4   -1    0    0  501    0  0.00000000000E+00 -0.00000000000E+00 -0.11491508678E+03  0.11492210435E+03  0.12700000000E+01 0.  1.
         25    2    1    2    0    0  0.00000000000E+00  0.00000000000E+00 -0.80962136799E+02  0.14889879801E+03  0.12496393261E+03 0.  0.
    9000005    1    3    3    0    0  0.17995057917E+02 -0.42511835286E+01  0.30623692533E+02  0.35786941965E+02  0.10000000000E+01 0.  0.
    9000005    1    3    3    0    0 -0.17995057917E+02  0.42511835286E+01 -0.11158582933E+03  0.11311185605E+03  0.10000000000E+01 0.  0.
<mgrwt>
<rscale>  0 0.12496393E+03</rscale>
<asrwt>0</asrwt>
<pdfrwt beam="2">  1        4 0.17681610E-01 0.12496393E+03</pdfrwt>
<pdfrwt beam="1">  1       -4 0.52258971E-02 0.12496393E+03</pdfrwt>
<totfact> 0.99604498E+03</totfact>
</mgrwt>
</event>
<event>
 5    1  0.3434846E-002  0.1250021E+03  0.7818608E-02  0.1235066E+00
         -4   -1    0    0    0  501 -0.00000000000E+00  0.00000000000E+00  0.53078148220E+02  0.53093339681E+02  0.12700000000E+01 0. -1.
          4   -1    0    0  501    0  0.00000000000E+00 -0.00000000000E+00 -0.73565603879E+02  0.73576565387E+02  0.12700000000E+01 0. -1.
         25    2    1    2    0    0  0.00000000000E+00  0.00000000000E+00 -0.20487455659E+02  0.12666990507E+03  0.12500211602E+03 0.  0.
    9000005    1    3    3    0    0 -0.79591150358E+01 -0.35577497800E+02  0.41190509813E+02  0.55016033668E+02  0.10000000000E+01 0.  0.
    9000005    1    3    3    0    0  0.79591150358E+01  0.35577497800E+02 -0.61677965472E+02  0.71653871400E+02  0.10000000000E+01 0.  0.
<mgrwt>
<rscale>  0 0.12500212E+03</rscale>
<asrwt>0</asrwt>
<pdfrwt beam="2">  1        4 0.11319797E-01 0.12500212E+03</pdfrwt>
<pdfrwt beam="1">  1       -4 0.81678807E-02 0.12500212E+03</pdfrwt>
<totfact> 0.10415828E+04</totfact>
</mgrwt>
</event>
<event>
 5    1  0.3434846E-002  0.1249969E+03  0.7818608E-02  0.1235074E+00
          4   -1    0    0  501    0  0.00000000000E+00  0.00000000000E+00  0.10394406589E+03  0.10395182410E+03  0.12700000000E+01 0. -1.
         -4   -1    0    0    0  501 -0.00000000000E+00 -0.00000000000E+00 -0.37558573423E+02  0.37580039085E+02  0.12700000000E+01 0. -1.
         25    2    1    2    0    0  0.00000000000E+00  0.00000000000E+00  0.66385492469E+02  0.14153186319E+03  0.12499693871E+03 0.  0.
    9000005    1    3    3    0    0 -0.19640149143E+02 -0.55938587993E+02  0.55559200259E+02  0.81256912435E+02  0.10000000000E+01 0.  0.
    9000005    1    3    3    0    0  0.19640149143E+02  0.55938587993E+02  0.10826292209E+02  0.60274950751E+02  0.10000000000E+01 0.  0.
<mgrwt>
<rscale>  0 0.12499694E+03</rscale>
<asrwt>0</asrwt>
<pdfrwt beam="1">  1        4 0.15993642E-01 0.12499694E+03</pdfrwt>
<pdfrwt beam="2">  1       -4 0.57804902E-02 0.12499694E+03</pdfrwt>
<totfact> 0.10102632E+04</totfact>
</mgrwt>
</event>
<event>
 5    1  0.3434846E-002  0.1249982E+03  0.7818608E-02  0.1235072E+00
          4   -1    0    0  501    0  0.00000000000E+00  0.00000000000E+00  0.11889827624E+03  0.11890505873E+03  0.12700000000E+01 0.  1.
         -4   -1    0    0    0  501 -0.00000000000E+00 -0.00000000000E+00 -0.32832759222E+02  0.32857312399E+02  0.12700000000E+01 0.  1.
         25    2    1    2    0    0  0.00000000000E+00  0.00000000000E+00  0.86065517017E+02  0.15176237113E+03  0.12499817628E+03 0.  0.
    9000005    1    3    3    0    0 -0.40677891787E+02  0.46027996437E+02  0.29090560085E+02  0.67974465958E+02  0.10000000000E+01 0.  0.
    9000005    1    3    3    0    0  0.40677891787E+02 -0.46027996437E+02  0.56974956932E+02  0.83787905175E+02  0.10000000000E+01 0.  0.
<mgrwt>
<rscale>  0 0.12499818E+03</rscale>
<asrwt>0</asrwt>
<pdfrwt beam="1">  1        4 0.18294453E-01 0.12499818E+03</pdfrwt>
<pdfrwt beam="2">  1       -4 0.50536042E-02 0.12499818E+03</pdfrwt>
<totfact> 0.98957610E+03</totfact>
</mgrwt>
</event>
<event>
 5    1  0.3434846E-002  0.1249443E+03  0.7818608E-02  0.1235156E+00
         -4   -1    0    0    0  501 -0.00000000000E+00  0.00000000000E+00  0.59629453101E+02  0.59642975924E+02  0.12700000000E+01 0.  1.
          4   -1    0    0  501    0  0.00000000000E+00 -0.00000000000E+00 -0.65423290951E+02  0.65435616440E+02  0.12700000000E+01 0.  1.
         25    2    1    2    0    0  0.00000000000E+00  0.00000000000E+00 -0.57938378501E+01  0.12507859236E+03  0.12494433045E+03 0.  0.
    9000005    1    3    3    0    0 -0.22027582766E+02  0.40935402951E+02  0.38871408360E+02  0.60604521326E+02  0.10000000000E+01 0.  0.
    9000005    1    3    3    0    0  0.22027582766E+02 -0.40935402951E+02 -0.44665246210E+02  0.64474071038E+02  0.10000000000E+01 0.  0.
<mgrwt>
<rscale>  0 0.12494433E+03</rscale>
<asrwt>0</asrwt>
<pdfrwt beam="2">  1        4 0.10067110E-01 0.12494433E+03</pdfrwt>
<pdfrwt beam="1">  1       -4 0.91757504E-02 0.12494433E+03</pdfrwt>
<totfact> 0.10464316E+04</totfact>
</mgrwt>
</event>
<event>
 5    1  0.3434846E-002  0.1249967E+03  0.7818608E-02  0.1235075E+00
          4   -1    0    0  501    0  0.00000000000E+00  0.00000000000E+00  0.43665841558E+02  0.43684306324E+02  0.12700000000E+01 0. -1.
         -4   -1    0    0    0  501 -0.00000000000E+00 -0.00000000000E+00 -0.89411127432E+02  0.89420146547E+02  0.12700000000E+01 0. -1.
         25    2    1    2    0    0  0.00000000000E+00  0.00000000000E+00 -0.45745285873E+02  0.13310445287E+03  0.12499665673E+03 0.  0.
    9000005    1    3    3    0    0  0.20008131072E+02 -0.57811114855E+02 -0.92944464240E+01  0.61885677213E+02  0.10000000000E+01 0.  0.
    9000005    1    3    3    0    0 -0.20008131072E+02  0.57811114855E+02 -0.36450839449E+02  0.71218775659E+02  0.10000000000E+01 0.  0.
<mgrwt>
<rscale>  0 0.12499666E+03</rscale>
<asrwt>0</asrwt>
<pdfrwt beam="1">  1        4 0.67199359E-02 0.12499666E+03</pdfrwt>
<pdfrwt beam="2">  1       -4 0.13757672E-01 0.12499666E+03</pdfrwt>
<totfact> 0.10278956E+04</totfact>
</mgrwt>
</event>
<event>
 5    1  0.3434846E-002  0.1250008E+03  0.7818608E-02  0.1235068E+00
          4   -1    0    0  501    0  0.00000000000E+00  0.00000000000E+00  0.91966375020E+01  0.92839130404E+01  0.12700000000E+01 0. -1.
         -4   -1    0    0    0  501 -0.00000000000E+00 -0.00000000000E+00 -0.42265915504E+03  0.42266106308E+03  0.12700000000E+01 0. -1.
         25    2    1    2    0    0  0.00000000000E+00  0.00000000000E+00 -0.41346251754E+03  0.43194497612E+03  0.12500083592E+03 0.  0.
    9000005    1    3    3    0    0 -0.43509980639E+02 -0.41734569697E+01 -0.36106521814E+03  0.36370266415E+03  0.10000000000E+01 0.  0.
    9000005    1    3    3    0    0  0.43509980639E+02  0.41734569697E+01 -0.52397299398E+02  0.68242311966E+02  0.10000000000E+01 0.  0.
<mgrwt>
<rscale>  0 0.12500084E+03</rscale>
<asrwt>0</asrwt>
<pdfrwt beam="1">  1        4 0.14217279E-02 0.12500084E+03</pdfrwt>
<pdfrwt beam="2">  1       -4 0.65031331E-01 0.12500084E+03</pdfrwt>
<totfact> 0.61558959E+03</totfact>
</mgrwt>
</event>
<event>
 5    1  0.3434846E-002  0.1249918E+03  0.7818608E-02  0.1235082E+00
          4   -1    0    0  501    0  0.00000000000E+00  0.00000000000E+00  0.25843147436E+03  0.25843459490E+03  0.12700000000E+01 0.  1.
         -4   -1    0    0    0  501 -0.00000000000E+00 -0.00000000000E+00 -0.15083353904E+02  0.15136725702E+02  0.12700000000E+01 0.  1.
         25    2    1    2    0    0  0.00000000000E+00  0.00000000000E+00  0.24334812046E+03  0.27357132060E+03  0.12499183863E+03 0.  0.
    9000005    1    3    3    0    0 -0.14376718143E+02  0.52322029196E+02  0.53843179030E+02  0.76448496988E+02  0.10000000000E+01 0.  0.
    9000005    1    3    3    0    0  0.14376718143E+02 -0.52322029196E+02  0.18950494143E+03  0.19712282361E+03  0.10000000000E+01 0.  0.
<mgrwt>
<rscale>  0 0.12499184E+03</rscale>
<asrwt>0</asrwt>
<pdfrwt beam="1">  1        4 0.39763036E-01 0.12499184E+03</pdfrwt>
<pdfrwt beam="2">  1       -4 0.23248614E-02 0.12499184E+03</pdfrwt>
<totfact> 0.79052639E+03</totfact>
</mgrwt>
</event>
<event>
 5    1  0.3434846E-002  0.1249995E+03  0.7818608E-02  0.1235070E+00
          4   -1    0    0  501    0  0.00000000000E+00  0.00000000000E+00  0.24329652836E+02  0.24362777081E+02  0.12700000000E+01 0. -1.
         -4   -1    0    0    0  501 -0.00000000000E+00 -0.00000000000E+00 -0.16040890457E+03  0.16041393195E+03  0.12700000000E+01 0. -1.
         25    2    1    2    0    0  0.00000000000E+00  0.00000000000E+00 -0.13607925173E+03  0.18477670903E+03  0.12499947780E+03 0.  0.
    9000005    1    3    3    0    0 -0.30518576990E+02  0.35254903229E+01  0.12403310060E+02  0.33145960899E+02  0.10000000000E+01 0.  0.
    9000005    1    3    3    0    0  0.30518576990E+02 -0.35254903229E+01 -0.14848256179E+03  0.15163074813E+03  0.10000000000E+01 0.  0.
<mgrwt>
<rscale>  0 0.12499948E+03</rscale>
<asrwt>0</asrwt>
<pdfrwt beam="1">  1        4 0.37459584E-02 0.12499948E+03</pdfrwt>
<pdfrwt beam="2">  1       -4 0.24681227E-01 0.12499948E+03</pdfrwt>
<totfact> 0.92765264E+03</totfact>
</mgrwt>
</event>
<event>
 5    1  0.3434846E-002  0.1250001E+03  0.7818608E-02  0.1235069E+00
         -4   -1    0    0    0  501 -0.00000000000E+00  0.00000000000E+00  0.45824777503E+02  0.45842372683E+02  0.12700000000E+01 0.  1.
          4   -1    0    0  501    0  0.00000000000E+00 -0.00000000000E+00 -0.85204641526E+02  0.85214105860E+02  0.12700000000E+01 0.  1.
         25    2    1    2    0    0  0.00000000000E+00  0.00000000000E+00 -0.39379864023E+02  0.13105647854E+03  0.12500010751E+03 0.  0.
    9000005    1    3    3    0    0 -0.91882736461E+01 -0.49879663704E+02  0.18587164719E+02  0.54026733347E+02  0.10000000000E+01 0.  0.
    9000005    1    3    3    0    0  0.91882736461E+01  0.49879663704E+02 -0.57967028743E+02  0.77029745197E+02  0.10000000000E+01 0.  0.
<mgrwt>
<rscale>  0 0.12500011E+03</rscale>
<asrwt>0</asrwt>
<pdfrwt beam="2">  1        4 0.13110488E-01 0.12500011E+03</pdfrwt>
<pdfrwt beam="1">  1       -4 0.70520473E-02 0.12500011E+03</pdfrwt>
<totfact> 0.10321854E+04</totfact>
</mgrwt>
</event>
<event>
 5    1  0.3434846E-002  0.1249937E+03  0.7818608E-02  0.1235079E+00
          4   -1    0    0  501    0  0.00000000000E+00  0.00000000000E+00  0.26346904909E+02  0.26377496058E+02  0.12700000000E+01 0.  1.
         -4   -1    0    0    0  501 -0.00000000000E+00 -0.00000000000E+00 -0.14812792572E+03  0.14813336990E+03  0.12700000000E+01 0.  1.
         25    2    1    2    0    0  0.00000000000E+00  0.00000000000E+00 -0.12178102081E+03  0.17451086595E+03  0.12499370107E+03 0.  0.
    9000005    1    3    3    0    0  0.54908371931E+02  0.21694836632E+02 -0.89478039612E+02  0.10720501302E+03  0.10000000000E+01 0.  0.
    9000005    1    3    3    0    0 -0.54908371931E+02 -0.21694836632E+02 -0.32302981194E+02  0.67305852930E+02  0.10000000000E+01 0.  0.
<mgrwt>
<rscale>  0 0.12499370E+03</rscale>
<asrwt>0</asrwt>
<pdfrwt beam="1">  1        4 0.40561420E-02 0.12499370E+03</pdfrwt>
<pdfrwt beam="2">  1       -4 0.22791683E-01 0.12499370E+03</pdfrwt>
<totfact> 0.94627872E+03</totfact>
</mgrwt>
</event>
<event>
 5    1  0.3434846E-002  0.1250008E+03  0.7818608E-02  0.1235068E+00
          4   -1    0    0  501    0  0.00000000000E+00  0.00000000000E+00  0.51396346920E+01  0.52942180506E+01  0.12700000000E+01 0. -1.
         -4   -1    0    0    0  501 -0.00000000000E+00 -0.00000000000E+00 -0.74861940899E+03  0.74862048624E+03  0.12700000000E+01 0. -1.
         25    2    1    2    0    0  0.00000000000E+00  0.00000000000E+00 -0.74347977430E+03  0.75391470429E+03  0.12500082621E+03 0.  0.
    9000005    1    3    3    0    0 -0.14294036369E+02  0.45154480221E+02 -0.12585488695E+03  0.13447564511E+03  0.10000000000E+01 0.  0.
    9000005    1    3    3    0    0  0.14294036369E+02 -0.45154480221E+02 -0.61762488735E+03  0.61943905918E+03  0.10000000000E+01 0.  0.
<mgrwt>
<rscale>  0 0.12500083E+03</rscale>
<asrwt>0</asrwt>
<pdfrwt beam="1">  1        4 0.80268752E-03 0.12500083E+03</pdfrwt>
<pdfrwt beam="2">  1       -4 0.11518411E+00 0.12500083E+03</pdfrwt>
<totfact> 0.40386888E+03</totfact>
</mgrwt>
</event>
<event>
 5    1  0.3434846E-002  0.1250014E+03  0.7818608E-02  0.1235067E+00
         -4   -1    0    0    0  501 -0.00000000000E+00  0.00000000000E+00  0.47328283073E+02  0.47345319501E+02  0.12700000000E+01 0.  1.
          4   -1    0    0  501    0  0.00000000000E+00 -0.00000000000E+00 -0.82500345105E+02  0.82510119637E+02  0.12700000000E+01 0.  1.
         25    2    1    2    0    0  0.00000000000E+00  0.00000000000E+00 -0.35172062033E+02  0.12985543914E+03  0.12500144450E+03 0.  0.
    9000005    1    3    3    0    0 -0.51134226212E+02 -0.32978756443E+02 -0.32388297932E+02  0.68936995219E+02  0.10000000000E+01 0.  0.
    9000005    1    3    3    0    0  0.51134226212E+02  0.32978756443E+02 -0.27837641004E+01  0.60918443918E+02  0.10000000000E+01 0.  0.
<mgrwt>
<rscale>  0 0.12500144E+03</rscale>
<asrwt>0</asrwt>
<pdfrwt beam="2">  1        4 0.12694423E-01 0.12500144E+03</pdfrwt>
<pdfrwt beam="1">  1       -4 0.72833367E-02 0.12500144E+03</pdfrwt>
<totfact> 0.10347264E+04</totfact>
</mgrwt>
</event>
<event>
 5    1  0.3434846E-002  0.1250033E+03  0.7818608E-02  0.1235064E+00
         -4   -1    0    0    0  501 -0.00000000000E+00  0.00000000000E+00  0.18167886451E+02  0.18212221120E+02  0.12700000000E+01 0. -1.
          4   -1    0    0  501    0  0.00000000000E+00 -0.00000000000E+00 -0.21471153971E+03  0.21471529565E+03  0.12700000000E+01 0. -1.
         25    2    1    2    0    0  0.00000000000E+00  0.00000000000E+00 -0.19654365326E+03  0.23292751677E+03  0.12500328168E+03 0.  0.
    9000005    1    3    3    0    0  0.49776739873E+01 -0.36305278804E+01  0.17609746577E+02  0.18683178143E+02  0.10000000000E+01 0.  0.
    9000005    1    3    3    0    0 -0.49776739873E+01  0.36305278804E+01 -0.21415339984E+03  0.21424433862E+03  0.10000000000E+01 0.  0.
<mgrwt>
<rscale>  0 0.12500328E+03</rscale>
<asrwt>0</asrwt>
<pdfrwt beam="2">  1        4 0.33036242E-01 0.12500328E+03</pdfrwt>
<pdfrwt beam="1">  1       -4 0.27987589E-02 0.12500328E+03</pdfrwt>
<totfact> 0.84855881E+03</totfact>
</mgrwt>
</event>
<event>
 5    1  0.3434846E-002  0.1250012E+03  0.7818608E-02  0.1235067E+00
          4   -1    0    0  501    0  0.00000000000E+00  0.00000000000E+00  0.19243592385E+03  0.19244011455E+03  0.12700000000E+01 0.  1.
         -4   -1    0    0    0  501 -0.00000000000E+00 -0.00000000000E+00 -0.20275065557E+02  0.20314802074E+02  0.12700000000E+01 0.  1.
         25    2    1    2    0    0  0.00000000000E+00  0.00000000000E+00  0.17216085829E+03  0.21275491662E+03  0.12500117367E+03 0.  0.
    9000005    1    3    3    0    0 -0.55153651567E+02  0.17729354485E+02  0.46198275145E+02  0.74104898070E+02  0.10000000000E+01 0.  0.
    9000005    1    3    3    0    0  0.55153651567E+02 -0.17729354485E+02  0.12596258314E+03  0.13865001855E+03  0.10000000000E+01 0.  0.
<mgrwt>
<rscale>  0 0.12500117E+03</rscale>
<asrwt>0</asrwt>
<pdfrwt beam="1">  1        4 0.29608906E-01 0.12500117E+03</pdfrwt>
<pdfrwt beam="2">  1       -4 0.31226199E-02 0.12500117E+03</pdfrwt>
<totfact> 0.88025625E+03</totfact>
</mgrwt>
</event>
<event>
 5    1  0.3434846E-002  0.1250000E+03  0.7818608E-02  0.1235069E+00
         -4   -1    0    0    0  501 -0.00000000000E+00  0.00000000000E+00  0.10002073333E+02  0.10082379231E+02  0.12700000000E+01 0. -1.
          4   -1    0    0  501    0  0.00000000000E+00 -0.00000000000E+00 -0.38890101961E+03  0.38890309327E+03  0.12700000000E+01 0. -1.
         25    2    1    2    0    0  0.00000000000E+00  0.00000000000E+00 -0.37889894628E+03  0.39898547250E+03  0.12499998310E+03 0.  0.
    9000005    1    3    3    0    0 -0.62014301226E+02  0.25377749303E+01 -0.21269443115E+03  0.22156745000E+03  0.10000000000E+01 0.  0.
    9000005    1    3    3    0    0  0.62014301226E+02 -0.25377749303E+01 -0.16620451512E+03  0.17741802249E+03  0.10000000000E+01 0.  0.
<mgrwt>
<rscale>  0 0.12499998E+03</rscale>
<asrwt>0</asrwt>
<pdfrwt beam="2">  1        4 0.59837251E-01 0.12499998E+03</pdfrwt>
<pdfrwt beam="1">  1       -4 0.15451177E-02 0.12499998E+03</pdfrwt>
<totfact> 0.64651610E+03</totfact>
</mgrwt>
</event>
<event>
 5    1  0.3434846E-002  0.1250003E+03  0.7818608E-02  0.1235069E+00
          4   -1    0    0  501    0  0.00000000000E+00  0.00000000000E+00  0.25040503848E+03  0.25040825904E+03  0.12700000000E+01 0.  1.
         -4   -1    0    0    0  501 -0.00000000000E+00 -0.00000000000E+00 -0.15570619705E+02  0.15622326908E+02  0.12700000000E+01 0.  1.
         25    2    1    2    0    0  0.00000000000E+00  0.00000000000E+00  0.23483441877E+03  0.26603058595E+03  0.12500027368E+03 0.  0.
    9000005    1    3    3    0    0  0.26071401425E+02 -0.56792620517E+02  0.11660015555E+03  0.13229405124E+03  0.10000000000E+01 0.  0.
    9000005    1    3    3    0    0 -0.26071401425E+02  0.56792620517E+02  0.11823426322E+03  0.13373653471E+03  0.10000000000E+01 0.  0.
<mgrwt>
<rscale>  0 0.12500027E+03</rscale>
<asrwt>0</asrwt>
<pdfrwt beam="1">  1        4 0.38528077E-01 0.12500027E+03</pdfrwt>
<pdfrwt beam="2">  1       -4 0.23997052E-02 0.12500027E+03</pdfrwt>
<totfact> 0.80066644E+03</totfact>
</mgrwt>
</event>
<event>
 5    1  0.3434846E-002  0.1250003E+03  0.7818608E-02  0.1235069E+00
         -4   -1    0    0    0  501 -0.00000000000E+00  0.00000000000E+00  0.20016113467E+03  0.20016516363E+03  0.12700000000E+01 0. -1.
          4   -1    0    0  501    0  0.00000000000E+00 -0.00000000000E+00 -0.19490737177E+02  0.19532069417E+02  0.12700000000E+01 0. -1.
         25    2    1    2    0    0  0.00000000000E+00  0.00000000000E+00  0.18067039749E+03  0.21969723305E+03  0.12500032672E+03 0.  0.
    9000005    1    3    3    0    0  0.46586627108E+02 -0.16885191878E+02  0.15725806139E+03  0.16488335696E+03  0.10000000000E+01 0.  0.
    9000005    1    3    3    0    0 -0.46586627108E+02  0.16885191878E+02  0.23412336098E+02  0.54813876086E+02  0.10000000000E+01 0.  0.
<mgrwt>
<rscale>  0 0.12500033E+03</rscale>
<asrwt>0</asrwt>
<pdfrwt beam="2">  1        4 0.30020642E-02 0.12500033E+03</pdfrwt>
<pdfrwt beam="1">  1       -4 0.30797511E-01 0.12500033E+03</pdfrwt>
<totfact> 0.86915645E+03</totfact>
</mgrwt>
</event>
<event>
 5    1  0.3434846E-002  0.1249965E+03  0.7818608E-02  0.1235075E+00
         -4   -1    0    0    0  501 -0.00000000000E+00  0.00000000000E+00  0.72019560910E+03  0.72019672886E+03  0.12700000000E+01 0.  1.
          4   -1    0    0  501    0  0.00000000000E+00 -0.00000000000E+00 -0.53480857708E+01  0.54968101125E+01  0.12700000000E+01 0.  1.
         25    2    1    2    0    0  0.00000000000E+00  0.00000000000E+00  0.71484752333E+03  0.72569353898E+03  0.12499652356E+03 0.  0.
    9000005    1    3    3    0    0 -0.20660121608E+02 -0.17793613440E+01  0.15180938656E+02  0.25719013397E+02  0.10000000000E+01 0.  0.
    9000005    1    3    3    0    0  0.20660121608E+02  0.17793613440E+01  0.69966658467E+03  0.69997452558E+03  0.10000000000E+01 0.  0.
<mgrwt>
<rscale>  0 0.12499652E+03</rscale>
<asrwt>0</asrwt>
<pdfrwt beam="2">  1        4 0.83430943E-03 0.12499652E+03</pdfrwt>
<pdfrwt beam="1">  1       -4 0.11081078E+00 0.12499652E+03</pdfrwt>
<totfact> 0.41767751E+03</totfact>
</mgrwt>
</event>
<event>
 5    1  0.3434846E-002  0.1249990E+03  0.7818608E-02  0.1235071E+00
         -4   -1    0    0    0  501 -0.00000000000E+00  0.00000000000E+00  0.14330021132E+03  0.14330583891E+03  0.12700000000E+01 0. -1.
          4   -1    0    0  501    0  0.00000000000E+00 -0.00000000000E+00 -0.27237798931E+02  0.27267390608E+02  0.12700000000E+01 0. -1.
         25    2    1    2    0    0  0.00000000000E+00  0.00000000000E+00  0.11606241239E+03  0.17057322952E+03  0.12499897222E+03 0.  0.
    9000005    1    3    3    0    0 -0.40640301100E+02 -0.42827567905E+02  0.85975512477E+02  0.10430063946E+03  0.10000000000E+01 0.  0.
    9000005    1    3    3    0    0  0.40640301100E+02  0.42827567905E+02  0.30086899914E+02  0.66272590055E+02  0.10000000000E+01 0.  0.
<mgrwt>
<rscale>  0 0.12499897E+03</rscale>
<asrwt>0</asrwt>
<pdfrwt beam="2">  1        4 0.41931398E-02 0.12499897E+03</pdfrwt>
<pdfrwt beam="1">  1       -4 0.22048895E-01 0.12499897E+03</pdfrwt>
<totfact> 0.95344101E+03</totfact>
</mgrwt>
</event>
<event>
 5    1  0.3434846E-002  0.1250041E+03  0.7818608E-02  0.1235063E+00
         -4   -1    0    0    0  501 -0.00000000000E+00  0.00000000000E+00  0.11931355436E+03  0.11932031325E+03  0.12700000000E+01 0.  1.
          4   -1    0    0  501    0  0.00000000000E+00 -0.00000000000E+00 -0.32721524464E+02  0.32746161046E+02  0.12700000000E+01 0.  1.
         25    2    1    2    0    0  0.00000000000E+00  0.00000000000E+00  0.86592029900E+02  0.15206647430E+03  0.12500413179E+03 0.  0.
    9000005    1    3    3    0    0  0.51732054539E+02  0.34685290222E+02  0.49526710555E+02  0.79581215641E+02  0.10000000000E+01 0.  0.
    9000005    1    3    3    0    0 -0.51732054539E+02 -0.34685290222E+02  0.37065319345E+02  0.72485258658E+02  0.10000000000E+01 0.  0.
<mgrwt>
<rscale>  0 0.12500413E+03</rscale>
<asrwt>0</asrwt>
<pdfrwt beam="2">  1        4 0.50364957E-02 0.12500413E+03</pdfrwt>
<pdfrwt beam="1">  1       -4 0.18358346E-01 0.12500413E+03</pdfrwt>
<totfact> 0.98884168E+03</totfact>
</mgrwt>
</event>
<event>
 5    1  0.3434846E-002  0.1250019E+03  0.7818608E-02  0.1235066E+00
          4   -1    0    0  501    0  0.00000000000E+00  0.00000000000E+00  0.34787632497E+03  0.34787864317E+03  0.12700000000E+01 0. -1.
         -4   -1    0    0    0  501 -0.00000000000E+00 -0.00000000000E+00 -0.11190907474E+02  0.11262739901E+02  0.12700000000E+01 0. -1.
         25    2    1    2    0    0  0.00000000000E+00  0.00000000000E+00  0.33668541750E+03  0.35914138307E+03  0.12500185071E+03 0.  0.
    9000005    1    3    3    0    0  0.54527252535E+02 -0.59027737675E+01  0.25440605820E+03  0.26025277416E+03  0.10000000000E+01 0.  0.
    9000005    1    3    3    0    0 -0.54527252535E+02  0.59027737675E+01  0.82279359295E+02  0.98888608915E+02  0.10000000000E+01 0.  0.
<mgrwt>
<rscale>  0 0.12500185E+03</rscale>
<asrwt>0</asrwt>
<pdfrwt beam="1">  1        4 0.53525126E-01 0.12500185E+03</pdfrwt>
<pdfrwt beam="2">  1       -4 0.17273824E-02 0.12500185E+03</pdfrwt>
<totfact> 0.68727656E+03</totfact>
</mgrwt>
</event>
<event>
 5    1  0.3434846E-002  0.1250000E+03  0.7818608E-02  0.1235069E+00
          4   -1    0    0  501    0  0.00000000000E+00  0.00000000000E+00  0.43472170533E+02  0.43490717526E+02  0.12700000000E+01 0. -1.
         -4   -1    0    0    0  501 -0.00000000000E+00 -0.00000000000E+00 -0.89814085667E+02  0.89823064322E+02  0.12700000000E+01 0. -1.
         25    2    1    2    0    0  0.00000000000E+00  0.00000000000E+00 -0.46341915133E+02  0.13331378185E+03  0.12499996533E+03 0.  0.
    9000005    1    3    3    0    0 -0.44575711962E+02 -0.86534979626E+01  0.22619132450E+02  0.50739553375E+02  0.10000000000E+01 0.  0.
    9000005    1    3    3    0    0  0.44575711962E+02  0.86534979626E+01 -0.68961047584E+02  0.82574228472E+02  0.10000000000E+01 0.  0.
<mgrwt>
<rscale>  0 0.12499997E+03</rscale>
<asrwt>0</asrwt>
<pdfrwt beam="1">  1        4 0.66901436E-02 0.12499997E+03</pdfrwt>
<pdfrwt beam="2">  1       -4 0.13819669E-01 0.12499997E+03</pdfrwt>
<totfact> 0.10273744E+04</totfact>
</mgrwt>
</event>
<event>
 4    1  0.3434846E-002  0.1250772E+03  0.7818608E-02  0.1234949E+00
          4   -1    0    0  501    0  0.00000000000E+00  0.00000000000E+00  0.62359370458E+02  0.62372301416E+02  0.12700000000E+01 0. -1.
         -4   -1    0    0    0  501 -0.00000000000E+00 -0.00000000000E+00 -0.62692477054E+02  0.62705339319E+02  0.12700000000E+01 0. -1.
    9000005    1    1    2    0    0  0.43138572890E+02 -0.42307785869E+02  0.15932916731E+02  0.62495944281E+02  0.10000000000E+01 0.  0.
    9000005    1    1    2    0    0 -0.43138572890E+02  0.42307785869E+02 -0.16266023327E+02  0.62581696453E+02  0.10000000000E+01 0.  0.
<mgrwt>
<rscale>  0 0.12507720E+03</rscale>
<asrwt>0</asrwt>
<pdfrwt beam="1">  1        4 0.95957334E-02 0.12507720E+03</pdfrwt>
<pdfrwt beam="2">  1       -4 0.96469806E-02 0.12507720E+03</pdfrwt>
<totfact> 0.10432963E+04</totfact>
</mgrwt>
</event>
<event>
 5    1  0.3434846E-002  0.1249877E+03  0.7818608E-02  0.1235088E+00
          4   -1    0    0  501    0  0.00000000000E+00  0.00000000000E+00  0.90096387880E+02  0.90105338405E+02  0.12700000000E+01 0.  1.
         -4   -1    0    0    0  501 -0.00000000000E+00 -0.00000000000E+00 -0.43327432622E+02  0.43346041545E+02  0.12700000000E+01 0.  1.
         25    2    1    2    0    0  0.00000000000E+00  0.00000000000E+00  0.46768955258E+02  0.13345137995E+03  0.12498774194E+03 0.  0.
    9000005    1    3    3    0    0 -0.14478068601E+02 -0.28419279950E+02  0.80755835875E+02  0.86831877621E+02  0.10000000000E+01 0.  0.
    9000005    1    3    3    0    0  0.14478068601E+02  0.28419279950E+02 -0.33986880617E+02  0.46619502329E+02  0.10000000000E+01 0.  0.
<mgrwt>
<rscale>  0 0.12498774E+03</rscale>
<asrwt>0</asrwt>
<pdfrwt beam="1">  1        4 0.13863102E-01 0.12498774E+03</pdfrwt>
<pdfrwt beam="2">  1       -4 0.66678789E-02 0.12498774E+03</pdfrwt>
<totfact> 0.10273656E+04</totfact>
</mgrwt>
</event>
<event>
 5    1  0.3434846E-002  0.1249996E+03  0.7818608E-02  0.1235070E+00
          4   -1    0    0  501    0  0.00000000000E+00  0.00000000000E+00  0.51562378087E+02  0.51578015995E+02  0.12700000000E+01 0.  1.
         -4   -1    0    0    0  501 -0.00000000000E+00 -0.00000000000E+00 -0.75724772895E+02  0.75735421897E+02  0.12700000000E+01 0.  1.
         25    2    1    2    0    0  0.00000000000E+00  0.00000000000E+00 -0.24162394808E+02  0.12731343789E+03  0.12499956058E+03 0.  0.
    9000005    1    3    3    0    0 -0.23461900185E+02  0.50795037277E+02 -0.40428502910E+02  0.69036659970E+02  0.10000000000E+01 0.  0.
    9000005    1    3    3    0    0  0.23461900185E+02 -0.50795037277E+02  0.16266108102E+02  0.58276777922E+02  0.10000000000E+01 0.  0.
<mgrwt>
<rscale>  0 0.12499956E+03</rscale>
<asrwt>0</asrwt>
<pdfrwt beam="1">  1        4 0.79346956E-02 0.12499956E+03</pdfrwt>
<pdfrwt beam="2">  1       -4 0.11651987E-01 0.12499956E+03</pdfrwt>
<totfact> 0.10402446E+04</totfact>
</mgrwt>
</event>
<event>
 5    1  0.3434846E-002  0.1249984E+03  0.7818608E-02  0.1235072E+00
          4   -1    0    0  501    0  0.00000000000E+00  0.00000000000E+00  0.14608316959E+03  0.14608868997E+03  0.12700000000E+01 0.  1.
         -4   -1    0    0    0  501 -0.00000000000E+00 -0.00000000000E+00 -0.26718096988E+02  0.26748263620E+02  0.12700000000E+01 0.  1.
         25    2    1    2    0    0  0.00000000000E+00  0.00000000000E+00  0.11936507260E+03  0.17283695359E+03  0.12499836787E+03 0.  0.
    9000005    1    3    3    0    0 -0.33238304202E+02 -0.14225658332E+02 -0.10795097257E+02  0.37745043992E+02  0.10000000000E+01 0.  0.
    9000005    1    3    3    0    0  0.33238304202E+02  0.14225658332E+02  0.13016016986E+03  0.13509190960E+03  0.10000000000E+01 0.  0.
<mgrwt>
<rscale>  0 0.12499837E+03</rscale>
<asrwt>0</asrwt>
<pdfrwt beam="1">  1        4 0.22477079E-01 0.12499837E+03</pdfrwt>
<pdfrwt beam="2">  1       -4 0.41132215E-02 0.12499837E+03</pdfrwt>
<totfact> 0.94925973E+03</totfact>
</mgrwt>
</event>
<event>
 5    1  0.3434846E-002  0.1249994E+03  0.7818608E-02  0.1235070E+00
          4   -1    0    0  501    0  0.00000000000E+00  0.00000000000E+00  0.86409539488E+02  0.86418871866E+02  0.12700000000E+01 0. -1.
         -4   -1    0    0    0  501 -0.00000000000E+00 -0.00000000000E+00 -0.45185119140E+02  0.45202963307E+02  0.12700000000E+01 0. -1.
         25    2    1    2    0    0  0.00000000000E+00  0.00000000000E+00  0.41224420348E+02  0.13162183517E+03  0.12499941864E+03 0.  0.
    9000005    1    3    3    0    0 -0.48580029525E+02 -0.13672972862E+02  0.59419103762E+02  0.77965372746E+02  0.10000000000E+01 0.  0.
    9000005    1    3    3    0    0  0.48580029525E+02  0.13672972862E+02 -0.18194683414E+02  0.53656462426E+02  0.10000000000E+01 0.  0.
<mgrwt>
<rscale>  0 0.12499942E+03</rscale>
<asrwt>0</asrwt>
<pdfrwt beam="1">  1        4 0.13295866E-01 0.12499942E+03</pdfrwt>
<pdfrwt beam="2">  1       -4 0.69536474E-02 0.12499942E+03</pdfrwt>
<totfact> 0.10309912E+04</totfact>
</mgrwt>
</event>
<event>
 5    1  0.3434846E-002  0.1249949E+03  0.7818608E-02  0.1235077E+00
          4   -1    0    0  501    0  0.00000000000E+00  0.00000000000E+00  0.26037526209E+03  0.26037835933E+03  0.12700000000E+01 0.  1.
         -4   -1    0    0    0  501 -0.00000000000E+00 -0.00000000000E+00 -0.14971092628E+02  0.15024863209E+02  0.12700000000E+01 0.  1.
         25    2    1    2    0    0  0.00000000000E+00  0.00000000000E+00  0.24540416946E+03  0.27540322254E+03  0.12499491428E+03 0.  0.
    9000005    1    3    3    0    0 -0.22661102765E+02  0.26061259417E+02  0.23744844477E+03  0.23994890861E+03  0.10000000000E+01 0.  0.
    9000005    1    3    3    0    0  0.22661102765E+02 -0.26061259417E+02  0.79557246954E+01  0.35454313931E+02  0.10000000000E+01 0.  0.
<mgrwt>
<rscale>  0 0.12499491E+03</rscale>
<asrwt>0</asrwt>
<pdfrwt beam="1">  1        4 0.40062105E-01 0.12499491E+03</pdfrwt>
<pdfrwt beam="2">  1       -4 0.23076196E-02 0.12499491E+03</pdfrwt>
<totfact> 0.78800490E+03</totfact>
</mgrwt>
</event>
<event>
 4    1  0.3434846E-002  0.1250623E+03  0.7818608E-02  0.1234972E+00
          4   -1    0    0  501    0  0.00000000000E+00  0.00000000000E+00  0.45425949635E+03  0.45426127166E+03  0.12700000000E+01 0. -1.
         -4   -1    0    0    0  501 -0.00000000000E+00 -0.00000000000E+00 -0.85590886173E+01  0.86527971177E+01  0.12700000000E+01 0. -1.
    9000005    1    1    2    0    0  0.59887844193E+02  0.17959455595E+02  0.22202687936E+03  0.23066432556E+03  0.10000000000E+01 0.  0.
    9000005    1    1    2    0    0 -0.59887844193E+02 -0.17959455595E+02  0.22367352838E+03  0.23224974322E+03  0.10000000000E+01 0.  0.
<mgrwt>
<rscale>  0 0.12506231E+03</rscale>
<asrwt>0</asrwt>
<pdfrwt beam="1">  1        4 0.69893427E-01 0.12506231E+03</pdfrwt>
<pdfrwt beam="2">  1       -4 0.13241277E-02 0.12506231E+03</pdfrwt>
<totfact> 0.58780470E+03</totfact>
</mgrwt>
</event>
<event>
 5    1  0.3434846E-002  0.1250065E+03  0.7818608E-02  0.1235059E+00
         -4   -1    0    0    0  501 -0.00000000000E+00  0.00000000000E+00  0.11315836833E+02  0.11386881190E+02  0.12700000000E+01 0. -1.
          4   -1    0    0  501    0  0.00000000000E+00 -0.00000000000E+00 -0.34408531883E+03  0.34408766257E+03  0.12700000000E+01 0. -1.
         25    2    1    2    0    0  0.00000000000E+00  0.00000000000E+00 -0.33276948200E+03  0.35547454376E+03  0.12500649229E+03 0.  0.
    9000005    1    3    3    0    0 -0.54457908725E+00 -0.61615410330E+02 -0.19605974036E+03  0.20551685368E+03  0.10000000000E+01 0.  0.
    9000005    1    3    3    0    0  0.54457908725E+00  0.61615410330E+02 -0.13670974164E+03  0.14995769008E+03  0.10000000000E+01 0.  0.
<mgrwt>
<rscale>  0 0.12500649E+03</rscale>
<asrwt>0</asrwt>
<pdfrwt beam="2">  1        4 0.52941840E-01 0.12500649E+03</pdfrwt>
<pdfrwt beam="1">  1       -4 0.17465435E-02 0.12500649E+03</pdfrwt>
<totfact> 0.69116534E+03</totfact>
</mgrwt>
</event>
<event>
 5    1  0.3434846E-002  0.1249981E+03  0.7818608E-02  0.1235072E+00
         -4   -1    0    0    0  501 -0.00000000000E+00  0.00000000000E+00  0.36888354642E+03  0.36888573261E+03  0.12700000000E+01 0. -1.
          4   -1    0    0  501    0  0.00000000000E+00 -0.00000000000E+00 -0.10548761760E+02  0.10624936455E+02  0.12700000000E+01 0. -1.
         25    2    1    2    0    0  0.00000000000E+00  0.00000000000E+00  0.35833478466E+03  0.37951066906E+03  0.12499812012E+03 0.  0.
    9000005    1    3    3    0    0  0.35334067822E+02 -0.29281554814E+02  0.50382934935E+02  0.68156774673E+02  0.10000000000E+01 0.  0.
    9000005    1    3    3    0    0 -0.35334067822E+02  0.29281554814E+02  0.30795184973E+03  0.31135389439E+03  0.10000000000E+01 0.  0.
<mgrwt>
<rscale>  0 0.12499812E+03</rscale>
<asrwt>0</asrwt>
<pdfrwt beam="2">  1        4 0.16289144E-02 0.12499812E+03</pdfrwt>
<pdfrwt beam="1">  1       -4 0.56757334E-01 0.12499812E+03</pdfrwt>
<totfact> 0.66598312E+03</totfact>
</mgrwt>
</event>
<event>
 5    1  0.3434846E-002  0.1250074E+03  0.7818608E-02  0.1235058E+00
         -4   -1    0    0    0  501 -0.00000000000E+00  0.00000000000E+00  0.14408716725E+03  0.14409276410E+03  0.12700000000E+01 0.  1.
          4   -1    0    0  501    0  0.00000000000E+00 -0.00000000000E+00 -0.27092552162E+02  0.27122302311E+02  0.12700000000E+01 0.  1.
         25    2    1    2    0    0  0.00000000000E+00  0.00000000000E+00  0.11699461509E+03  0.17121506641E+03  0.12500743581E+03 0.  0.
    9000005    1    3    3    0    0  0.62071220606E+02 -0.65275323865E+01  0.54108122910E+02  0.82608317205E+02  0.10000000000E+01 0.  0.
    9000005    1    3    3    0    0 -0.62071220606E+02  0.65275323865E+01  0.62886492180E+02  0.88606749209E+02  0.10000000000E+01 0.  0.
<mgrwt>
<rscale>  0 0.12500744E+03</rscale>
<asrwt>0</asrwt>
<pdfrwt beam="2">  1        4 0.41708040E-02 0.12500744E+03</pdfrwt>
<pdfrwt beam="1">  1       -4 0.22169975E-01 0.12500744E+03</pdfrwt>
<totfact> 0.95206760E+03</totfact>
</mgrwt>
</event>
<event>
 5    1  0.3434846E-002  0.1250048E+03  0.7818608E-02  0.1235062E+00
         -4   -1    0    0    0  501 -0.00000000000E+00  0.00000000000E+00  0.48576815084E+02  0.48593413790E+02  0.12700000000E+01 0. -1.
          4   -1    0    0  501    0  0.00000000000E+00 -0.00000000000E+00 -0.80384727350E+02  0.80394759103E+02  0.12700000000E+01 0. -1.
         25    2    1    2    0    0  0.00000000000E+00  0.00000000000E+00 -0.31807912266E+02  0.12898817289E+03  0.12500482176E+03 0.  0.
    9000005    1    3    3    0    0 -0.58794435048E+01  0.26476094835E+01  0.48237705327E+02  0.48677036754E+02  0.10000000000E+01 0.  0.
    9000005    1    3    3    0    0  0.58794435048E+01 -0.26476094835E+01 -0.80045617593E+02  0.80311136138E+02  0.10000000000E+01 0.  0.
<mgrwt>
<rscale>  0 0.12500482E+03</rscale>
<asrwt>0</asrwt>
<pdfrwt beam="2">  1        4 0.12368930E-01 0.12500482E+03</pdfrwt>
<pdfrwt beam="1">  1       -4 0.74754046E-02 0.12500482E+03</pdfrwt>
<totfact> 0.10365073E+04</totfact>
</mgrwt>
</event>
<event>
 5    1  0.3434846E-002  0.1250162E+03  0.7818608E-02  0.1235044E+00
          4   -1    0    0  501    0  0.00000000000E+00  0.00000000000E+00  0.16188207471E+01  0.20575423717E+01  0.12700000000E+01 0.  1.
         -4   -1    0    0    0  501 -0.00000000000E+00 -0.00000000000E+00 -0.21251728524E+04  0.21251732319E+04  0.12700000000E+01 0.  1.
         25    2    1    2    0    0  0.00000000000E+00  0.00000000000E+00 -0.21235540317E+04  0.21272307742E+04  0.12501616517E+03 0.  0.
    9000005    1    3    3    0    0  0.31646376346E+02  0.73761891821E+01 -0.15333288790E+03  0.15674142979E+03  0.10000000000E+01 0.  0.
    9000005    1    3    3    0    0 -0.31646376346E+02 -0.73761891821E+01 -0.19702211438E+04  0.19704893445E+04  0.10000000000E+01 0.  0.
<mgrwt>
<rscale>  0 0.12501617E+03</rscale>
<asrwt>0</asrwt>
<pdfrwt beam="1">  1        4 0.28282805E-03 0.12501617E+03</pdfrwt>
<pdfrwt beam="2">  1       -4 0.32698148E+00 0.12501617E+03</pdfrwt>
<totfact> 0.82878542E+02</totfact>
</mgrwt>
</event>
<event>
 5    1  0.3434846E-002  0.1249996E+03  0.7818608E-02  0.1235070E+00
          4   -1    0    0  501    0  0.00000000000E+00  0.00000000000E+00  0.29086636030E+02  0.29114348619E+02  0.12700000000E+01 0.  1.
         -4   -1    0    0    0  501 -0.00000000000E+00 -0.00000000000E+00 -0.13420146690E+03  0.13420747602E+03  0.12700000000E+01 0.  1.
         25    2    1    2    0    0  0.00000000000E+00  0.00000000000E+00 -0.10511483087E+03  0.16332182463E+03  0.12499956293E+03 0.  0.
    9000005    1    3    3    0    0 -0.62042136608E+01 -0.58207374058E+02 -0.23972520261E+02  0.63263515469E+02  0.10000000000E+01 0.  0.
    9000005    1    3    3    0    0  0.62042136608E+01  0.58207374058E+02 -0.81142310611E+02  0.10005830917E+03  0.10000000000E+01 0.  0.
<mgrwt>
<rscale>  0 0.12499956E+03</rscale>
<asrwt>0</asrwt>
<pdfrwt beam="1">  1        4 0.44774611E-02 0.12499956E+03</pdfrwt>
<pdfrwt beam="2">  1       -4 0.20648973E-01 0.12499956E+03</pdfrwt>
<totfact> 0.96707109E+03</totfact>
</mgrwt>
</event>
<event>
 5    1  0.3434846E-002  0.1249984E+03  0.7818608E-02  0.1235072E+00
          4   -1    0    0  501    0  0.00000000000E+00  0.00000000000E+00  0.22093795513E+03  0.22094160522E+03  0.12700000000E+01 0.  1.
         -4   -1    0    0    0  501 -0.00000000000E+00 -0.00000000000E+00 -0.17653247168E+02  0.17698871025E+02  0.12700000000E+01 0.  1.
         25    2    1    2    0    0  0.00000000000E+00  0.00000000000E+00  0.20328470797E+03  0.23864047625E+03  0.12499841764E+03 0.  0.
    9000005    1    3    3    0    0  0.12545172510E+02  0.18095800288E+02  0.21329587899E+03  0.21443174050E+03  0.10000000000E+01 0.  0.
    9000005    1    3    3    0    0 -0.12545172510E+02 -0.18095800288E+02 -0.10011171020E+02  0.24208735749E+02  0.10000000000E+01 0.  0.
<mgrwt>
<rscale>  0 0.12499842E+03</rscale>
<asrwt>0</asrwt>
<pdfrwt beam="1">  1        4 0.33994245E-01 0.12499842E+03</pdfrwt>
<pdfrwt beam="2">  1       -4 0.27196745E-02 0.12499842E+03</pdfrwt>
<totfact> 0.84003224E+03</totfact>
</mgrwt>
</event>
<event>
 5    1  0.3434846E-002  0.1250003E+03  0.7818608E-02  0.1235069E+00
         -4   -1    0    0    0  501 -0.00000000000E+00  0.00000000000E+00  0.36517786927E+01  0.38663144751E+01  0.12700000000E+01 0.  1.
          4   -1    0    0  501    0  0.00000000000E+00 -0.00000000000E+00 -0.10389493306E+04  0.10389501069E+04  0.12700000000E+01 0.  1.
         25    2    1    2    0    0  0.00000000000E+00  0.00000000000E+00 -0.10352975519E+04  0.10428164213E+04  0.12500027012E+03 0.  0.
    9000005    1    3    3    0    0 -0.60328016250E+01 -0.35383144444E+02 -0.90881696015E+02  0.97718188055E+02  0.10000000000E+01 0.  0.
    9000005    1    3    3    0    0  0.60328016250E+01  0.35383144444E+02 -0.94441585593E+03  0.94509823327E+03  0.10000000000E+01 0.  0.
<mgrwt>
<rscale>  0 0.12500027E+03</rscale>
<asrwt>0</asrwt>
<pdfrwt beam="2">  1        4 0.15985469E+00 0.12500027E+03</pdfrwt>
<pdfrwt beam="1">  1       -4 0.57837540E-03 0.12500027E+03</pdfrwt>
<totfact> 0.29220004E+03</totfact>
</mgrwt>
</event>
<event>
 5    1  0.3434846E-002  0.1250072E+03  0.7818608E-02  0.1235058E+00
          4   -1    0    0  501    0  0.00000000000E+00  0.00000000000E+00  0.17662228109E+03  0.17662684699E+03  0.12700000000E+01 0.  1.
         -4   -1    0    0    0  501 -0.00000000000E+00 -0.00000000000E+00 -0.22095854200E+02  0.22132321903E+02  0.12700000000E+01 0.  1.
         25    2    1    2    0    0  0.00000000000E+00  0.00000000000E+00  0.15452642689E+03  0.19875916890E+03  0.12500716224E+03 0.  0.
    9000005    1    3    3    0    0 -0.27438879443E+01 -0.62435161655E+02  0.77484220906E+02  0.99551407933E+02  0.10000000000E+01 0.  0.
    9000005    1    3    3    0    0  0.27438879443E+01  0.62435161655E+02  0.77042205987E+02  0.99207760963E+02  0.10000000000E+01 0.  0.
<mgrwt>
<rscale>  0 0.12500716E+03</rscale>
<asrwt>0</asrwt>
<pdfrwt beam="1">  1        4 0.27175815E-01 0.12500716E+03</pdfrwt>
<pdfrwt beam="2">  1       -4 0.34025187E-02 0.12500716E+03</pdfrwt>
<totfact> 0.90330708E+03</totfact>
</mgrwt>
</event>
<event>
 5    1  0.3434846E-002  0.1249983E+03  0.7818608E-02  0.1235072E+00
          4   -1    0    0  501    0  0.00000000000E+00  0.00000000000E+00  0.14457390739E+03  0.14457948540E+03  0.12700000000E+01 0.  1.
         -4   -1    0    0    0  501 -0.00000000000E+00 -0.00000000000E+00 -0.26997281642E+02  0.27027136660E+02  0.12700000000E+01 0.  1.
         25    2    1    2    0    0  0.00000000000E+00  0.00000000000E+00  0.11757662575E+03  0.17160662206E+03  0.12499827924E+03 0.  0.
    9000005    1    3    3    0    0 -0.12508661313E+02  0.58257062091E+02  0.32929056182E+02  0.68085788770E+02  0.10000000000E+01 0.  0.
    9000005    1    3    3    0    0  0.12508661313E+02 -0.58257062091E+02  0.84647569564E+02  0.10352083329E+03  0.10000000000E+01 0.  0.
<mgrwt>
<rscale>  0 0.12499828E+03</rscale>
<asrwt>0</asrwt>
<pdfrwt beam="1">  1        4 0.22244865E-01 0.12499828E+03</pdfrwt>
<pdfrwt beam="2">  1       -4 0.41561536E-02 0.12499828E+03</pdfrwt>
<totfact> 0.95153704E+03</totfact>
</mgrwt>
</event>
<event>
 5    1  0.3434846E-002  0.1250099E+03  0.7818608E-02  0.1235054E+00
          4   -1    0    0  501    0  0.00000000000E+00  0.00000000000E+00  0.67726336941E+02  0.67738243374E+02  0.12700000000E+01 0. -1.
         -4   -1    0    0    0  501 -0.00000000000E+00 -0.00000000000E+00 -0.57662179392E+02  0.57676163466E+02  0.12700000000E+01 0. -1.
         25    2    1    2    0    0  0.00000000000E+00  0.00000000000E+00  0.10064157549E+02  0.12541440684E+03  0.12500994431E+03 0.  0.
    9000005    1    3    3    0    0 -0.27646665243E+02 -0.50050498990E+02 -0.20278121824E+02  0.60676130174E+02  0.10000000000E+01 0.  0.
    9000005    1    3    3    0    0  0.27646665243E+02  0.50050498990E+02  0.30342279374E+02  0.64738276666E+02  0.10000000000E+01 0.  0.
<mgrwt>
<rscale>  0 0.12500994E+03</rscale>
<asrwt>0</asrwt>
<pdfrwt beam="1">  1        4 0.10421428E-01 0.12500994E+03</pdfrwt>
<pdfrwt beam="2">  1       -4 0.88730961E-02 0.12500994E+03</pdfrwt>
<totfact> 0.10441506E+04</totfact>
</mgrwt>
</event>
<event>
 5    1  0.3434846E-002  0.1249994E+03  0.7818608E-02  0.1235070E+00
         -4   -1    0    0    0  501 -0.00000000000E+00  0.00000000000E+00  0.63914550495E+02  0.63927166877E+02  0.12700000000E+01 0. -1.
          4   -1    0    0  501    0  0.00000000000E+00 -0.00000000000E+00 -0.61090898293E+02  0.61104097687E+02  0.12700000000E+01 0. -1.
         25    2    1    2    0    0  0.00000000000E+00  0.00000000000E+00  0.28236522024E+01  0.12503126456E+03  0.12499937643E+03 0.  0.
    9000005    1    3    3    0    0 -0.48603732569E+02 -0.29922959574E+02  0.26864431169E+02  0.63090442948E+02  0.10000000000E+01 0.  0.
    9000005    1    3    3    0    0  0.48603732569E+02  0.29922959574E+02 -0.24040778966E+02  0.61940821617E+02  0.10000000000E+01 0.  0.
<mgrwt>
<rscale>  0 0.12499938E+03</rscale>
<asrwt>0</asrwt>
<pdfrwt beam="2">  1        4 0.94005855E-02 0.12499938E+03</pdfrwt>
<pdfrwt beam="1">  1       -4 0.98349937E-02 0.12499938E+03</pdfrwt>
<totfact> 0.10452331E+04</totfact>
</mgrwt>
</event>
<event>
 5    1  0.3434846E-002  0.1250009E+03  0.7818608E-02  0.1235068E+00
         -4   -1    0    0    0  501 -0.00000000000E+00  0.00000000000E+00  0.11160699811E+02  0.11232725416E+02  0.12700000000E+01 0.  1.
          4   -1    0    0  501    0  0.00000000000E+00 -0.00000000000E+00 -0.34880666651E+03  0.34880897852E+03  0.12700000000E+01 0.  1.
         25    2    1    2    0    0  0.00000000000E+00  0.00000000000E+00 -0.33764596670E+03  0.36004170394E+03  0.12500091900E+03 0.  0.
    9000005    1    3    3    0    0 -0.50002686759E+02  0.33875910598E+02 -0.12260662778E+03  0.13667930047E+03  0.10000000000E+01 0.  0.
    9000005    1    3    3    0    0  0.50002686759E+02 -0.33875910598E+02 -0.21503933891E+03  0.22336240347E+03  0.10000000000E+01 0.  0.
<mgrwt>
<rscale>  0 0.12500092E+03</rscale>
<asrwt>0</asrwt>
<pdfrwt beam="2">  1        4 0.53668274E-01 0.12500092E+03</pdfrwt>
<pdfrwt beam="1">  1       -4 0.17227493E-02 0.12500092E+03</pdfrwt>
<totfact> 0.68632400E+03</totfact>
</mgrwt>
</event>
<event>
 5    1  0.3434846E-002  0.1249993E+03  0.7818608E-02  0.1235070E+00
          4   -1    0    0  501    0  0.00000000000E+00  0.00000000000E+00  0.20947035925E+02  0.20985500091E+02  0.12700000000E+01 0.  1.
         -4   -1    0    0    0  501 -0.00000000000E+00 -0.00000000000E+00 -0.18626835628E+03  0.18627268574E+03  0.12700000000E+01 0.  1.
         25    2    1    2    0    0  0.00000000000E+00  0.00000000000E+00 -0.16532132035E+03  0.20725818583E+03  0.12499926651E+03 0.  0.
    9000005    1    3    3    0    0 -0.16940046600E+02  0.19938969194E+02 -0.17675809384E+03  0.17868674100E+03  0.10000000000E+01 0.  0.
    9000005    1    3    3    0    0  0.16940046600E+02 -0.19938969194E+02  0.11436773490E+02  0.28571444822E+02  0.10000000000E+01 0.  0.
<mgrwt>
<rscale>  0 0.12499927E+03</rscale>
<asrwt>0</asrwt>
<pdfrwt beam="1">  1        4 0.32259129E-02 0.12499927E+03</pdfrwt>
<pdfrwt beam="2">  1       -4 0.28659961E-01 0.12499927E+03</pdfrwt>
<totfact> 0.88927081E+03</totfact>
</mgrwt>
</event>
<event>
 5    1  0.3434846E-002  0.1249977E+03  0.7818608E-02  0.1235073E+00
          4   -1    0    0  501    0  0.00000000000E+00  0.00000000000E+00  0.69596012443E+02  0.69607599068E+02  0.12700000000E+01 0. -1.
         -4   -1    0    0    0  501 -0.00000000000E+00 -0.00000000000E+00 -0.56102029387E+02  0.56116402248E+02  0.12700000000E+01 0. -1.
         25    2    1    2    0    0  0.00000000000E+00  0.00000000000E+00  0.13493983056E+02  0.12572400132E+03  0.12499774769E+03 0.  0.
    9000005    1    3    3    0    0  0.49792231825E+02 -0.19631003037E+02 -0.25696686215E+02  0.59379814018E+02  0.10000000000E+01 0.  0.
    9000005    1    3    3    0    0 -0.49792231825E+02  0.19631003037E+02  0.39190669271E+02  0.66344187298E+02  0.10000000000E+01 0.  0.
<mgrwt>
<rscale>  0 0.12499775E+03</rscale>
<asrwt>0</asrwt>
<pdfrwt beam="1">  1        4 0.10709076E-01 0.12499775E+03</pdfrwt>
<pdfrwt beam="2">  1       -4 0.86330783E-02 0.12499775E+03</pdfrwt>
<totfact> 0.10437547E+04</totfact>
</mgrwt>
</event>
<event>
 5    1  0.3434846E-002  0.1250003E+03  0.7818608E-02  0.1235069E+00
         -4   -1    0    0    0  501 -0.00000000000E+00  0.00000000000E+00  0.99395664389E+02  0.99403777590E+02  0.12700000000E+01 0. -1.
          4   -1    0    0  501    0  0.00000000000E+00 -0.00000000000E+00 -0.39280204589E+02  0.39300729924E+02  0.12700000000E+01 0. -1.
         25    2    1    2    0    0  0.00000000000E+00  0.00000000000E+00  0.60115459799E+02  0.13870450751E+03  0.12500028759E+03 0.  0.
    9000005    1    3    3    0    0 -0.14651164448E+02 -0.59125780433E+02  0.14572340365E+02  0.62640782524E+02  0.10000000000E+01 0.  0.
    9000005    1    3    3    0    0  0.14651164448E+02  0.59125780433E+02  0.45543119435E+02  0.76063724990E+02  0.10000000000E+01 0.  0.
<mgrwt>
<rscale>  0 0.12500029E+03</rscale>
<asrwt>0</asrwt>
<pdfrwt beam="2">  1        4 0.60453113E-02 0.12500029E+03</pdfrwt>
<pdfrwt beam="1">  1       -4 0.15293844E-01 0.12500029E+03</pdfrwt>
<totfact> 0.10160440E+04</totfact>
</mgrwt>
</event>
<event>
 5    1  0.3434846E-002  0.1249951E+03  0.7818608E-02  0.1235077E+00
         -4   -1    0    0    0  501 -0.00000000000E+00  0.00000000000E+00  0.65359316033E+02  0.65371653584E+02  0.12700000000E+01 0.  1.
          4   -1    0    0  501    0  0.00000000000E+00 -0.00000000000E+00 -0.59736398472E+02  0.59749897091E+02  0.12700000000E+01 0.  1.
         25    2    1    2    0    0  0.00000000000E+00  0.00000000000E+00  0.56229175611E+01  0.12512155068E+03  0.12499514087E+03 0.  0.
    9000005    1    3    3    0    0  0.11366135954E+02  0.16762870451E+02 -0.56364851048E+02  0.59901413222E+02  0.10000000000E+01 0.  0.
    9000005    1    3    3    0    0 -0.11366135954E+02 -0.16762870451E+02  0.61987768609E+02  0.65220137453E+02  0.10000000000E+01 0.  0.
<mgrwt>
<rscale>  0 0.12499514E+03</rscale>
<asrwt>0</asrwt>
<pdfrwt beam="2">  1        4 0.91922026E-02 0.12499514E+03</pdfrwt>
<pdfrwt beam="1">  1       -4 0.10057267E-01 0.12499514E+03</pdfrwt>
<totfact> 0.10451371E+04</totfact>
</mgrwt>
</event>
<event>
 5    1  0.3434846E-002  0.1250014E+03  0.7818608E-02  0.1235067E+00
         -4   -1    0    0    0  501 -0.00000000000E+00  0.00000000000E+00  0.40169713963E+03  0.40169914723E+03  0.12700000000E+01 0. -1.
          4   -1    0    0  501    0  0.00000000000E+00 -0.00000000000E+00 -0.96810818148E+01  0.97640281188E+01  0.12700000000E+01 0. -1.
         25    2    1    2    0    0  0.00000000000E+00  0.00000000000E+00  0.39201605782E+03  0.41146317535E+03  0.12500142033E+03 0.  0.
    9000005    1    3    3    0    0  0.14715799241E+02 -0.30771964192E+02  0.36836921531E+03  0.36994641141E+03  0.10000000000E+01 0.  0.
    9000005    1    3    3    0    0 -0.14715799241E+02  0.30771964192E+02  0.23646842503E+02  0.41516763938E+02  0.10000000000E+01 0.  0.
<mgrwt>
<rscale>  0 0.12500142E+03</rscale>
<asrwt>0</asrwt>
<pdfrwt beam="2">  1        4 0.14959321E-02 0.12500142E+03</pdfrwt>
<pdfrwt beam="1">  1       -4 0.61806096E-01 0.12500142E+03</pdfrwt>
<totfact> 0.63450966E+03</totfact>
</mgrwt>
</event>
<event>
 5    1  0.3434846E-002  0.1249978E+03  0.7818608E-02  0.1235073E+00
         -4   -1    0    0    0  501 -0.00000000000E+00  0.00000000000E+00  0.69246422686E+02  0.69258067796E+02  0.12700000000E+01 0.  1.
          4   -1    0    0  501    0  0.00000000000E+00 -0.00000000000E+00 -0.56385361177E+02  0.56399661835E+02  0.12700000000E+01 0.  1.
         25    2    1    2    0    0  0.00000000000E+00  0.00000000000E+00  0.12861061509E+02  0.12565772963E+03  0.12499783243E+03 0.  0.
    9000005    1    3    3    0    0  0.28114207461E+02  0.23489088238E+02  0.57323567946E+02  0.68037764289E+02  0.10000000000E+01 0.  0.
    9000005    1    3    3    0    0 -0.28114207461E+02 -0.23489088238E+02 -0.44462506437E+02  0.57619965342E+02  0.10000000000E+01 0.  0.
<mgrwt>
<rscale>  0 0.12499783E+03</rscale>
<asrwt>0</asrwt>
<pdfrwt beam="2">  1        4 0.86766668E-02 0.12499783E+03</pdfrwt>
<pdfrwt beam="1">  1       -4 0.10655292E-01 0.12499783E+03</pdfrwt>
<totfact> 0.10438985E+04</totfact>
</mgrwt>
</event>
<event>
 5    1  0.3434846E-002  0.1250001E+03  0.7818608E-02  0.1235069E+00
         -4   -1    0    0    0  501 -0.00000000000E+00  0.00000000000E+00  0.10651966716E+03  0.10652723779E+03  0.12700000000E+01 0.  1.
          4   -1    0    0  501    0  0.00000000000E+00 -0.00000000000E+00 -0.36651815549E+02  0.36673811951E+02  0.12700000000E+01 0.  1.
         25    2    1    2    0    0  0.00000000000E+00  0.00000000000E+00  0.69867851610E+02  0.14320104974E+03  0.12500009584E+03 0.  0.
    9000005    1    3    3    0    0  0.48415702377E+02 -0.27129864383E+02  0.67841912321E+02  0.87656345152E+02  0.10000000000E+01 0.  0.
    9000005    1    3    3    0    0 -0.48415702377E+02  0.27129864383E+02  0.20259392895E+01  0.55544704591E+02  0.10000000000E+01 0.  0.
<mgrwt>
<rscale>  0 0.12500010E+03</rscale>
<asrwt>0</asrwt>
<pdfrwt beam="2">  1        4 0.56410153E-02 0.12500010E+03</pdfrwt>
<pdfrwt beam="1">  1       -4 0.16389915E-01 0.12500010E+03</pdfrwt>
<totfact> 0.10067646E+04</totfact>
</mgrwt>
</event>
<event>
 5    1  0.3434846E-002  0.1250043E+03  0.7818608E-02  0.1235063E+00
         -4   -1    0    0    0  501 -0.00000000000E+00  0.00000000000E+00  0.47702095588E+02  0.47718998559E+02  0.12700000000E+01 0. -1.
          4   -1    0    0  501    0  0.00000000000E+00 -0.00000000000E+00 -0.81857684227E+02  0.81867535489E+02  0.12700000000E+01 0. -1.
         25    2    1    2    0    0  0.00000000000E+00  0.00000000000E+00 -0.34155588639E+02  0.12958653405E+03  0.12500426221E+03 0.  0.
    9000005    1    3    3    0    0 -0.29780976889E+02  0.51772888217E+00 -0.74031142386E+02  0.79804665719E+02  0.10000000000E+01 0.  0.
    9000005    1    3    3    0    0  0.29780976889E+02 -0.51772888217E+00  0.39875553747E+02  0.49781868329E+02  0.10000000000E+01 0.  0.
<mgrwt>
<rscale>  0 0.12500426E+03</rscale>
<asrwt>0</asrwt>
<pdfrwt beam="2">  1        4 0.12595548E-01 0.12500426E+03</pdfrwt>
<pdfrwt beam="1">  1       -4 0.73408420E-02 0.12500426E+03</pdfrwt>
<totfact> 0.10352364E+04</totfact>
</mgrwt>
</event>
<event>
 5    1  0.3434846E-002  0.1250008E+03  0.7818608E-02  0.1235068E+00
         -4   -1    0    0    0  501 -0.00000000000E+00  0.00000000000E+00  0.16346665956E+02  0.16395925954E+02  0.12700000000E+01 0. -1.
          4   -1    0    0  501    0  0.00000000000E+00 -0.00000000000E+00 -0.23855588029E+03  0.23855926082E+03  0.12700000000E+01 0. -1.
         25    2    1    2    0    0  0.00000000000E+00  0.00000000000E+00 -0.22220921434E+03  0.25495518677E+03  0.12500084930E+03 0.  0.
    9000005    1    3    3    0    0 -0.33488366472E+02 -0.46236819461E+02 -0.59264794686E+02  0.82295990498E+02  0.10000000000E+01 0.  0.
    9000005    1    3    3    0    0  0.33488366472E+02  0.46236819461E+02 -0.16294441965E+03  0.17265919628E+03  0.10000000000E+01 0.  0.
<mgrwt>
<rscale>  0 0.12500085E+03</rscale>
<asrwt>0</asrwt>
<pdfrwt beam="2">  1        4 0.36704951E-01 0.12500085E+03</pdfrwt>
<pdfrwt beam="1">  1       -4 0.25189211E-02 0.12500085E+03</pdfrwt>
<totfact> 0.81617740E+03</totfact>
</mgrwt>
</event>
<event>
 5    1  0.3434846E-002  0.1249986E+03  0.7818608E-02  0.1235072E+00
         -4   -1    0    0    0  501 -0.00000000000E+00  0.00000000000E+00  0.77563673197E+02  0.77574069765E+02  0.12700000000E+01 0. -1.
          4   -1    0    0  501    0  0.00000000000E+00 -0.00000000000E+00 -0.50338900298E+02  0.50354918163E+02  0.12700000000E+01 0. -1.
         25    2    1    2    0    0  0.00000000000E+00  0.00000000000E+00  0.27224772899E+02  0.12792898793E+03  0.12499855076E+03 0.  0.
    9000005    1    3    3    0    0 -0.29153508289E+02  0.52260937112E+02 -0.48103641247E+01  0.60043918896E+02  0.10000000000E+01 0.  0.
    9000005    1    3    3    0    0  0.29153508289E+02 -0.52260937112E+02  0.32035137024E+02  0.67885069032E+02  0.10000000000E+01 0.  0.
<mgrwt>
<rscale>  0 0.12499855E+03</rscale>
<asrwt>0</asrwt>
<pdfrwt beam="2">  1        4 0.77464782E-02 0.12499855E+03</pdfrwt>
<pdfrwt beam="1">  1       -4 0.11934905E-01 0.12499855E+03</pdfrwt>
<totfact> 0.10389361E+04</totfact>
</mgrwt>
</event>
<event>
 5    1  0.3434846E-002  0.1249747E+03  0.7818608E-02  0.1235109E+00
         -4   -1    0    0    0  501 -0.00000000000E+00  0.00000000000E+00  0.35602654502E+03  0.35602881015E+03  0.12700000000E+01 0.  1.
          4   -1    0    0  501    0  0.00000000000E+00 -0.00000000000E+00 -0.10928285442E+02  0.11001832697E+02  0.12700000000E+01 0.  1.
         25    2    1    2    0    0  0.00000000000E+00  0.00000000000E+00  0.34509825958E+03  0.36703064285E+03  0.12497473355E+03 0.  0.
    9000005    1    3    3    0    0 -0.39387805073E+02 -0.27595596025E+01  0.31475572280E+03  0.31722417845E+03  0.10000000000E+01 0.  0.
    9000005    1    3    3    0    0  0.39387805073E+02  0.27595596025E+01  0.30342536772E+02  0.49806464394E+02  0.10000000000E+01 0.  0.
<mgrwt>
<rscale>  0 0.12497473E+03</rscale>
<asrwt>0</asrwt>
<pdfrwt beam="2">  1        4 0.16871066E-02 0.12497473E+03</pdfrwt>
<pdfrwt beam="1">  1       -4 0.54779139E-01 0.12497473E+03</pdfrwt>
<totfact> 0.67928681E+03</totfact>
</mgrwt>
</event>
<event>
 5    1  0.3434846E-002  0.1249995E+03  0.7818608E-02  0.1235070E+00
         -4   -1    0    0    0  501 -0.00000000000E+00  0.00000000000E+00  0.26131241431E+02  0.26162084755E+02  0.12700000000E+01 0. -1.
          4   -1    0    0  501    0  0.00000000000E+00 -0.00000000000E+00 -0.14936287659E+03  0.14936827576E+03  0.12700000000E+01 0. -1.
         25    2    1    2    0    0  0.00000000000E+00  0.00000000000E+00 -0.12323163516E+03  0.17553036051E+03  0.12499948623E+03 0.  0.
    9000005    1    3    3    0    0  0.36372333842E+02 -0.43327505184E+02 -0.98901158455E+02  0.11394146970E+03  0.10000000000E+01 0.  0.
    9000005    1    3    3    0    0 -0.36372333842E+02  0.43327505184E+02 -0.24330476703E+02  0.61588890810E+02  0.10000000000E+01 0.  0.
<mgrwt>
<rscale>  0 0.12499949E+03</rscale>
<asrwt>0</asrwt>
<pdfrwt beam="2">  1        4 0.22981692E-01 0.12499949E+03</pdfrwt>
<pdfrwt beam="1">  1       -4 0.40229789E-02 0.12499949E+03</pdfrwt>
<totfact> 0.94428884E+03</totfact>
</mgrwt>
</event>
<event>
 5    1  0.3434846E-002  0.1249974E+03  0.7818608E-02  0.1235073E+00
         -4   -1    0    0    0  501 -0.00000000000E+00  0.00000000000E+00  0.41616138009E+03  0.41616331792E+03  0.12700000000E+01 0. -1.
          4   -1    0    0  501    0  0.00000000000E+00 -0.00000000000E+00 -0.93410653901E+01  0.94270039049E+01  0.12700000000E+01 0. -1.
         25    2    1    2    0    0  0.00000000000E+00  0.00000000000E+00  0.40682031470E+03  0.42559032182E+03  0.12499741427E+03 0.  0.
    9000005    1    3    3    0    0 -0.32260742990E+02 -0.14399101188E+02  0.37891390245E+03  0.38055858304E+03  0.10000000000E+01 0.  0.
    9000005    1    3    3    0    0  0.32260742990E+02  0.14399101188E+02  0.27906412253E+02  0.45031738787E+02  0.10000000000E+01 0.  0.
<mgrwt>
<rscale>  0 0.12499741E+03</rscale>
<asrwt>0</asrwt>
<pdfrwt beam="2">  1        4 0.14438470E-02 0.12499741E+03</pdfrwt>
<pdfrwt beam="1">  1       -4 0.64031574E-01 0.12499741E+03</pdfrwt>
<totfact> 0.62141294E+03</totfact>
</mgrwt>
</event>
<event>
 5    1  0.3434846E-002  0.1249955E+03  0.7818608E-02  0.1235076E+00
          4   -1    0    0  501    0  0.00000000000E+00  0.00000000000E+00  0.16532243462E+03  0.16532731259E+03  0.12700000000E+01 0. -1.
         -4   -1    0    0    0  501 -0.00000000000E+00 -0.00000000000E+00 -0.23604090029E+02  0.23638231027E+02  0.12700000000E+01 0. -1.
         25    2    1    2    0    0  0.00000000000E+00  0.00000000000E+00  0.14171834459E+03  0.18896554361E+03  0.12499554984E+03 0.  0.
    9000005    1    3    3    0    0  0.10116892809E+02  0.39106511515E+02  0.14293946667E+03  0.14854077519E+03  0.10000000000E+01 0.  0.
    9000005    1    3    3    0    0 -0.10116892809E+02 -0.39106511515E+02 -0.12211220797E+01  0.40424768424E+02  0.10000000000E+01 0.  0.
<mgrwt>
<rscale>  0 0.12499555E+03</rscale>
<asrwt>0</asrwt>
<pdfrwt beam="1">  1        4 0.25437221E-01 0.12499555E+03</pdfrwt>
<pdfrwt beam="2">  1       -4 0.36344001E-02 0.12499555E+03</pdfrwt>
<totfact> 0.92036794E+03</totfact>
</mgrwt>
</event>
<event>
 5    1  0.3434846E-002  0.1250121E+03  0.7818608E-02  0.1235050E+00
         -4   -1    0    0    0  501 -0.00000000000E+00  0.00000000000E+00  0.16374621748E+02  0.16423797898E+02  0.12700000000E+01 0.  1.
          4   -1    0    0  501    0  0.00000000000E+00 -0.00000000000E+00 -0.23819251707E+03  0.23819590275E+03  0.12700000000E+01 0.  1.
         25    2    1    2    0    0  0.00000000000E+00  0.00000000000E+00 -0.22181789532E+03  0.25461970065E+03  0.12501205252E+03 0.  0.
    9000005    1    3    3    0    0  0.14807500881E+02  0.57142788530E+02 -0.15272177325E+03  0.16373606929E+03  0.10000000000E+01 0.  0.
    9000005    1    3    3    0    0 -0.14807500881E+02 -0.57142788530E+02 -0.69096122076E+02  0.90883631361E+02  0.10000000000E+01 0.  0.
<mgrwt>
<rscale>  0 0.12501205E+03</rscale>
<asrwt>0</asrwt>
<pdfrwt beam="2">  1        4 0.36649043E-01 0.12501205E+03</pdfrwt>
<pdfrwt beam="1">  1       -4 0.25232160E-02 0.12501205E+03</pdfrwt>
<totfact> 0.81645175E+03</totfact>
</mgrwt>
</event>
<event>
 4    1  0.3434846E-002  0.1248994E+03  0.7818608E-02  0.1235227E+00
          4   -1    0    0  501    0  0.00000000000E+00  0.00000000000E+00  0.54817857433E+02  0.54832566906E+02  0.12700000000E+01 0. -1.
         -4   -1    0    0    0  501 -0.00000000000E+00 -0.00000000000E+00 -0.71114101178E+02  0.71125440500E+02  0.12700000000E+01 0. -1.
    9000005    1    1    2    0    0 -0.32177706673E+02 -0.29997209875E+02  0.36541424234E+02  0.57197142342E+02  0.10000000000E+01 0.  0.
    9000005    1    1    2    0    0  0.32177706673E+02  0.29997209875E+02 -0.52837667979E+02  0.68760865065E+02  0.10000000000E+01 0.  0.
<mgrwt>
<rscale>  0 0.12489937E+03</rscale>
<asrwt>0</asrwt>
<pdfrwt beam="1">  1        4 0.84355203E-02 0.12489937E+03</pdfrwt>
<pdfrwt beam="2">  1       -4 0.10942635E-01 0.12489937E+03</pdfrwt>
<totfact> 0.10455603E+04</totfact>
</mgrwt>
</event>
<event>
 5    1  0.3434846E-002  0.1249999E+03  0.7818608E-02  0.1235070E+00
          4   -1    0    0  501    0  0.00000000000E+00  0.00000000000E+00  0.35640656287E+03  0.35640882559E+03  0.12700000000E+01 0. -1.
         -4   -1    0    0    0  501 -0.00000000000E+00 -0.00000000000E+00 -0.10920975326E+02  0.10994571482E+02  0.12700000000E+01 0. -1.
         25    2    1    2    0    0  0.00000000000E+00  0.00000000000E+00  0.34548558754E+03  0.36740339707E+03  0.12499985991E+03 0.  0.
    9000005    1    3    3    0    0  0.39129198217E+02 -0.32838421502E+01  0.29853759616E+02  0.49336849672E+02  0.10000000000E+01 0.  0.
    9000005    1    3    3    0    0 -0.39129198217E+02  0.32838421502E+01  0.31563182793E+03  0.31806654740E+03  0.10000000000E+01 0.  0.
<mgrwt>
<rscale>  0 0.12499986E+03</rscale>
<asrwt>0</asrwt>
<pdfrwt beam="1">  1        4 0.54837602E-01 0.12499986E+03</pdfrwt>
<pdfrwt beam="2">  1       -4 0.16859857E-02 0.12499986E+03</pdfrwt>
<totfact> 0.67851684E+03</totfact>
</mgrwt>
</event>
<event>
 5    1  0.3434846E-002  0.1250004E+03  0.7818608E-02  0.1235069E+00
          4   -1    0    0  501    0  0.00000000000E+00  0.00000000000E+00  0.19188690819E+03  0.19189111088E+03  0.12700000000E+01 0.  1.
         -4   -1    0    0    0  501 -0.00000000000E+00 -0.00000000000E+00 -0.20332925806E+02  0.20372549468E+02  0.12700000000E+01 0.  1.
         25    2    1    2    0    0  0.00000000000E+00  0.00000000000E+00  0.17155398238E+03  0.21226366034E+03  0.12500037053E+03 0.  0.
    9000005    1    3    3    0    0  0.39192696037E+02 -0.26715492281E+02  0.15486893235E+03  0.16197274819E+03  0.10000000000E+01 0.  0.
    9000005    1    3    3    0    0 -0.39192696037E+02  0.26715492281E+02  0.16685050033E+02  0.50290912152E+02  0.10000000000E+01 0.  0.
<mgrwt>
<rscale>  0 0.12500037E+03</rscale>
<asrwt>0</asrwt>
<pdfrwt beam="1">  1        4 0.29524433E-01 0.12500037E+03</pdfrwt>
<pdfrwt beam="2">  1       -4 0.31315138E-02 0.12500037E+03</pdfrwt>
<totfact> 0.88106795E+03</totfact>
</mgrwt>
</event>
<event>
 5    1  0.3434846E-002  0.1250019E+03  0.7818608E-02  0.1235066E+00
          4   -1    0    0  501    0  0.00000000000E+00  0.00000000000E+00  0.37207144118E+02  0.37228812410E+02  0.12700000000E+01 0. -1.
         -4   -1    0    0    0  501 -0.00000000000E+00 -0.00000000000E+00 -0.10493374679E+03  0.10494143184E+03  0.12700000000E+01 0. -1.
         25    2    1    2    0    0  0.00000000000E+00  0.00000000000E+00 -0.67726602676E+02  0.14217024425E+03  0.12500194254E+03 0.  0.
    9000005    1    3    3    0    0  0.24628273627E+02  0.22231446803E+02 -0.94095129282E+02  0.99778166166E+02  0.10000000000E+01 0.  0.
    9000005    1    3    3    0    0 -0.24628273627E+02 -0.22231446803E+02  0.26368526606E+02  0.42392078083E+02  0.10000000000E+01 0.  0.
<mgrwt>
<rscale>  0 0.12500194E+03</rscale>
<asrwt>0</asrwt>
<pdfrwt beam="1">  1        4 0.57264340E-02 0.12500194E+03</pdfrwt>
<pdfrwt beam="2">  1       -4 0.16145911E-01 0.12500194E+03</pdfrwt>
<totfact> 0.10088361E+04</totfact>
</mgrwt>
</event>
<event>
 5    1  0.3434846E-002  0.1249986E+03  0.7818608E-02  0.1235071E+00
         -4   -1    0    0    0  501 -0.00000000000E+00  0.00000000000E+00  0.45594264917E+03  0.45594441792E+03  0.12700000000E+01 0.  1.
          4   -1    0    0  501    0  0.00000000000E+00 -0.00000000000E+00 -0.85183636995E+01  0.86125153189E+01  0.12700000000E+01 0.  1.
         25    2    1    2    0    0  0.00000000000E+00  0.00000000000E+00  0.44742428547E+03  0.46455693324E+03  0.12499861196E+03 0.  0.
    9000005    1    3    3    0    0  0.32564577607E+02 -0.51998854290E+02  0.17960769356E+03  0.18980056941E+03  0.10000000000E+01 0.  0.
    9000005    1    3    3    0    0 -0.32564577607E+02  0.51998854290E+02  0.26781659191E+03  0.27475636383E+03  0.10000000000E+01 0.  0.
<mgrwt>
<rscale>  0 0.12499861E+03</rscale>
<asrwt>0</asrwt>
<pdfrwt beam="2">  1        4 0.13178961E-02 0.12499861E+03</pdfrwt>
<pdfrwt beam="1">  1       -4 0.70152393E-01 0.12499861E+03</pdfrwt>
<totfact> 0.58724948E+03</totfact>
</mgrwt>
</event>
<event>
 5    1  0.3434846E-002  0.1250006E+03  0.7818608E-02  0.1235068E+00
         -4   -1    0    0    0  501 -0.00000000000E+00  0.00000000000E+00  0.13599428128E+03  0.13600021118E+03  0.12700000000E+01 0. -1.
          4   -1    0    0  501    0  0.00000000000E+00 -0.00000000000E+00 -0.28703299541E+02  0.28731381876E+02  0.12700000000E+01 0. -1.
         25    2    1    2    0    0  0.00000000000E+00  0.00000000000E+00  0.10729098174E+03  0.16473159305E+03  0.12500057195E+03 0.  0.
    9000005    1    3    3    0    0  0.38071920368E+02  0.40492910761E+01 -0.11443568961E+02  0.39972780105E+02  0.10000000000E+01 0.  0.
    9000005    1    3    3    0    0 -0.38071920368E+02 -0.40492910761E+01  0.11873455070E+03  0.12475881295E+03  0.10000000000E+01 0.  0.
<mgrwt>
<rscale>  0 0.12500057E+03</rscale>
<asrwt>0</asrwt>
<pdfrwt beam="2">  1        4 0.44185085E-02 0.12500057E+03</pdfrwt>
<pdfrwt beam="1">  1       -4 0.20924814E-01 0.12500057E+03</pdfrwt>
<totfact> 0.96437009E+03</totfact>
</mgrwt>
</event>
<event>
 5    1  0.3434846E-002  0.1250039E+03  0.7818608E-02  0.1235063E+00
         -4   -1    0    0    0  501 -0.00000000000E+00  0.00000000000E+00  0.49941913887E+01  0.51531395893E+01  0.12700000000E+01 0. -1.
          4   -1    0    0  501    0  0.00000000000E+00 -0.00000000000E+00 -0.76979545128E+03  0.76979649889E+03  0.12700000000E+01 0. -1.
         25    2    1    2    0    0  0.00000000000E+00  0.00000000000E+00 -0.76480125989E+03  0.77494963848E+03  0.12500390016E+03 0.  0.
    9000005    1    3    3    0    0  0.13849052447E+02 -0.10129376826E+01 -0.76014080467E+03  0.76026828503E+03  0.10000000000E+01 0.  0.
    9000005    1    3    3    0    0 -0.13849052447E+02  0.10129376826E+01 -0.46604552211E+01  0.14681353455E+02  0.10000000000E+01 0.  0.
<mgrwt>
<rscale>  0 0.12500390E+03</rscale>
<asrwt>0</asrwt>
<pdfrwt beam="2">  1        4 0.11844228E+00 0.12500390E+03</pdfrwt>
<pdfrwt beam="1">  1       -4 0.78064512E-03 0.12500390E+03</pdfrwt>
<totfact> 0.39404446E+03</totfact>
</mgrwt>
</event>
<event>
 5    1  0.3434846E-002  0.1249975E+03  0.7818608E-02  0.1235073E+00
         -4   -1    0    0    0  501 -0.00000000000E+00  0.00000000000E+00  0.19927765220E+02  0.19968192875E+02  0.12700000000E+01 0. -1.
          4   -1    0    0  501    0  0.00000000000E+00 -0.00000000000E+00 -0.19577159439E+03  0.19577571369E+03  0.12700000000E+01 0. -1.
         25    2    1    2    0    0  0.00000000000E+00  0.00000000000E+00 -0.17584382917E+03  0.21574390656E+03  0.12499752382E+03 0.  0.
    9000005    1    3    3    0    0  0.21485149263E+02  0.29335310961E+02 -0.20307668395E+00  0.36375999617E+02  0.10000000000E+01 0.  0.
    9000005    1    3    3    0    0 -0.21485149263E+02 -0.29335310961E+02 -0.17564075249E+03  0.17936790695E+03  0.10000000000E+01 0.  0.
<mgrwt>
<rscale>  0 0.12499752E+03</rscale>
<asrwt>0</asrwt>
<pdfrwt beam="2">  1        4 0.30122132E-01 0.12499752E+03</pdfrwt>
<pdfrwt beam="1">  1       -4 0.30692369E-02 0.12499752E+03</pdfrwt>
<totfact> 0.87551178E+03</totfact>
</mgrwt>
</event>
<event>
 5    1  0.3434846E-002  0.1249960E+03  0.7818608E-02  0.1235076E+00
          4   -1    0    0  501    0  0.00000000000E+00  0.00000000000E+00  0.35136009751E+03  0.35136239272E+03  0.12700000000E+01 0.  1.
         -4   -1    0    0    0  501 -0.00000000000E+00 -0.00000000000E+00 -0.11078183835E+02  0.11150742445E+02  0.12700000000E+01 0.  1.
         25    2    1    2    0    0  0.00000000000E+00  0.00000000000E+00  0.34028191367E+03  0.36251313517E+03  0.12499596952E+03 0.  0.
    9000005    1    3    3    0    0  0.11340320926E+02 -0.14837082277E+01 -0.80312002696E+01  0.14010868874E+02  0.10000000000E+01 0.  0.
    9000005    1    3    3    0    0 -0.11340320926E+02  0.14837082277E+01  0.34831311394E+03  0.34850226629E+03  0.10000000000E+01 0.  0.
<mgrwt>
<rscale>  0 0.12499597E+03</rscale>
<asrwt>0</asrwt>
<pdfrwt beam="1">  1        4 0.54061160E-01 0.12499597E+03</pdfrwt>
<pdfrwt beam="2">  1       -4 0.17100939E-02 0.12499597E+03</pdfrwt>
<totfact> 0.68375636E+03</totfact>
</mgrwt>
</event>
<event>
 5    1  0.3434846E-002  0.1250025E+03  0.7818608E-02  0.1235065E+00
          4   -1    0    0  501    0  0.00000000000E+00  0.00000000000E+00  0.90384488419E+02  0.90393410416E+02  0.12700000000E+01 0. -1.
         -4   -1    0    0    0  501 -0.00000000000E+00 -0.00000000000E+00 -0.43199506504E+02  0.43218170509E+02  0.12700000000E+01 0. -1.
         25    2    1    2    0    0  0.00000000000E+00  0.00000000000E+00  0.47184981915E+02  0.13361158093E+03  0.12500252813E+03 0.  0.
    9000005    1    3    3    0    0 -0.58522239569E+02 -0.18254599632E+02  0.10618797091E+02  0.62224125414E+02  0.10000000000E+01 0.  0.
    9000005    1    3    3    0    0  0.58522239569E+02  0.18254599632E+02  0.36566184824E+02  0.71387455512E+02  0.10000000000E+01 0.  0.
<mgrwt>
<rscale>  0 0.12500253E+03</rscale>
<asrwt>0</asrwt>
<pdfrwt beam="1">  1        4 0.13907428E-01 0.12500253E+03</pdfrwt>
<pdfrwt beam="2">  1       -4 0.66481999E-02 0.12500253E+03</pdfrwt>
<totfact> 0.10266833E+04</totfact>
</mgrwt>
</event>
<event>
 5    1  0.3434846E-002  0.1249993E+03  0.7818608E-02  0.1235070E+00
          4   -1    0    0  501    0  0.00000000000E+00  0.00000000000E+00  0.98451243936E+01  0.99267000723E+01  0.12700000000E+01 0.  1.
         -4   -1    0    0    0  501 -0.00000000000E+00 -0.00000000000E+00 -0.39504573673E+03  0.39504777814E+03  0.12700000000E+01 0.  1.
         25    2    1    2    0    0  0.00000000000E+00  0.00000000000E+00 -0.38520061234E+03  0.40497447821E+03  0.12499926501E+03 0.  0.
    9000005    1    3    3    0    0  0.33754597206E+02  0.52589169180E+02 -0.19408679867E+03  0.20390114999E+03  0.10000000000E+01 0.  0.
    9000005    1    3    3    0    0 -0.33754597206E+02 -0.52589169180E+02 -0.19111381367E+03  0.20107332822E+03  0.10000000000E+01 0.  0.
<mgrwt>
<rscale>  0 0.12499927E+03</rscale>
<asrwt>0</asrwt>
<pdfrwt beam="1">  1        4 0.15210669E-02 0.12499927E+03</pdfrwt>
<pdfrwt beam="2">  1       -4 0.60782687E-01 0.12499927E+03</pdfrwt>
<totfact> 0.64072881E+03</totfact>
</mgrwt>
</event>
<event>
 5    1  0.3434846E-002  0.1249983E+03  0.7818608E-02  0.1235072E+00
         -4   -1    0    0    0  501 -0.00000000000E+00  0.00000000000E+00  0.37826641101E+02  0.37847954727E+02  0.12700000000E+01 0. -1.
          4   -1    0    0  501    0  0.00000000000E+00 -0.00000000000E+00 -0.10320998857E+03  0.10321780195E+03  0.12700000000E+01 0. -1.
         25    2    1    2    0    0  0.00000000000E+00  0.00000000000E+00 -0.65383347466E+02  0.14106575668E+03  0.12499826232E+03 0.  0.
    9000005    1    3    3    0    0  0.36358719492E+02  0.39881491811E+02 -0.68247930504E+02  0.87013044369E+02  0.10000000000E+01 0.  0.
    9000005    1    3    3    0    0 -0.36358719492E+02 -0.39881491811E+02  0.28645830384E+01  0.54052712311E+02  0.10000000000E+01 0.  0.
<mgrwt>
<rscale>  0 0.12499826E+03</rscale>
<asrwt>0</asrwt>
<pdfrwt beam="2">  1        4 0.15880700E-01 0.12499826E+03</pdfrwt>
<pdfrwt beam="1">  1       -4 0.58217238E-02 0.12499826E+03</pdfrwt>
<totfact> 0.10111941E+04</totfact>
</mgrwt>
</event>
<event>
 5    1  0.3434846E-002  0.1250001E+03  0.7818608E-02  0.1235069E+00
          4   -1    0    0  501    0  0.00000000000E+00  0.00000000000E+00  0.12561932688E+02  0.12625967403E+02  0.12700000000E+01 0.  1.
         -4   -1    0    0    0  501 -0.00000000000E+00 -0.00000000000E+00 -0.31010415163E+03  0.31010675220E+03  0.12700000000E+01 0.  1.
         25    2    1    2    0    0  0.00000000000E+00  0.00000000000E+00 -0.29754221894E+03  0.32273271960E+03  0.12500014499E+03 0.  0.
    9000005    1    3    3    0    0 -0.21481238381E+02 -0.20053604328E+02 -0.63781833135E+01  0.30087736228E+02  0.10000000000E+01 0.  0.
    9000005    1    3    3    0    0  0.21481238381E+02  0.20053604328E+02 -0.29116403563E+03  0.29264498337E+03  0.10000000000E+01 0.  0.
<mgrwt>
<rscale>  0 0.12500014E+03</rscale>
<asrwt>0</asrwt>
<pdfrwt beam="1">  1        4 0.19377311E-02 0.12500014E+03</pdfrwt>
<pdfrwt beam="2">  1       -4 0.47713451E-01 0.12500014E+03</pdfrwt>
<totfact> 0.72832047E+03</totfact>
</mgrwt>
</event>
<event>
 5    1  0.3434846E-002  0.1249883E+03  0.7818608E-02  0.1235087E+00
          4   -1    0    0  501    0  0.00000000000E+00  0.00000000000E+00  0.44136892596E+01  0.45927718080E+01  0.12700000000E+01 0.  1.
         -4   -1    0    0    0  501 -0.00000000000E+00 -0.00000000000E+00 -0.86709150559E+03  0.86709243565E+03  0.12700000000E+01 0.  1.
         25    2    1    2    0    0  0.00000000000E+00  0.00000000000E+00 -0.86267781633E+03  0.87168520746E+03  0.12498834393E+03 0.  0.
    9000005    1    3    3    0    0 -0.19910567192E+02  0.20650647450E+02 -0.81849065807E+03  0.81899379562E+03  0.10000000000E+01 0.  0.
    9000005    1    3    3    0    0  0.19910567192E+02 -0.20650647450E+02 -0.44187158260E+02  0.52691411834E+02  0.10000000000E+01 0.  0.
<mgrwt>
<rscale>  0 0.12498834E+03</rscale>
<asrwt>0</asrwt>
<pdfrwt beam="1">  1        4 0.69287693E-03 0.12498834E+03</pdfrwt>
<pdfrwt beam="2">  1       -4 0.13341241E+00 0.12498834E+03</pdfrwt>
<totfact> 0.35265013E+03</totfact>
</mgrwt>
</event>
<event>
 5    1  0.3434846E-002  0.1250007E+03  0.7818608E-02  0.1235068E+00
          4   -1    0    0  501    0  0.00000000000E+00  0.00000000000E+00  0.81919666430E+01  0.82898261429E+01  0.12700000000E+01 0. -1.
         -4   -1    0    0    0  501 -0.00000000000E+00 -0.00000000000E+00 -0.47391424763E+03  0.47391594930E+03  0.12700000000E+01 0. -1.
         25    2    1    2    0    0  0.00000000000E+00  0.00000000000E+00 -0.46572228098E+03  0.48220577545E+03  0.12500066747E+03 0.  0.
    9000005    1    3    3    0    0  0.43923284094E+02  0.21804503000E+02 -0.83426041289E+02  0.96776007367E+02  0.10000000000E+01 0.  0.
    9000005    1    3    3    0    0 -0.43923284094E+02 -0.21804503000E+02 -0.38229623969E+03  0.38542976808E+03  0.10000000000E+01 0.  0.
<mgrwt>
<rscale>  0 0.12500067E+03</rscale>
<asrwt>0</asrwt>
<pdfrwt beam="1">  1        4 0.12679615E-02 0.12500067E+03</pdfrwt>
<pdfrwt beam="2">  1       -4 0.72917521E-01 0.12500067E+03</pdfrwt>
<totfact> 0.57271071E+03</totfact>
</mgrwt>
</event>
<event>
 5    1  0.3434846E-002  0.1250001E+03  0.7818608E-02  0.1235069E+00
          4   -1    0    0  501    0  0.00000000000E+00  0.00000000000E+00  0.62718117123E+02  0.62730974131E+02  0.12700000000E+01 0. -1.
         -4   -1    0    0    0  501 -0.00000000000E+00 -0.00000000000E+00 -0.62256980751E+02  0.62269932971E+02  0.12700000000E+01 0. -1.
         25    2    1    2    0    0  0.00000000000E+00  0.00000000000E+00  0.46113637184E+00  0.12500090710E+03  0.12500005652E+03 0.  0.
    9000005    1    3    3    0    0  0.38491971732E+02 -0.47509588428E+02  0.13132619085E+02  0.62548050045E+02  0.10000000000E+01 0.  0.
    9000005    1    3    3    0    0 -0.38491971732E+02  0.47509588428E+02 -0.12671482713E+02  0.62452857057E+02  0.10000000000E+01 0.  0.
<mgrwt>
<rscale>  0 0.12500006E+03</rscale>
<asrwt>0</asrwt>
<pdfrwt beam="1">  1        4 0.96509264E-02 0.12500006E+03</pdfrwt>
<pdfrwt beam="2">  1       -4 0.95799824E-02 0.12500006E+03</pdfrwt>
<totfact> 0.10452829E+04</totfact>
</mgrwt>
</event>
<event>
 5    1  0.3434846E-002  0.1250180E+03  0.7818608E-02  0.1235041E+00
         -4   -1    0    0    0  501 -0.00000000000E+00  0.00000000000E+00  0.54086806856E+02  0.54101715092E+02  0.12700000000E+01 0.  1.
          4   -1    0    0  501    0  0.00000000000E+00 -0.00000000000E+00 -0.72212255398E+02  0.72223422306E+02  0.12700000000E+01 0.  1.
         25    2    1    2    0    0  0.00000000000E+00  0.00000000000E+00 -0.18125448542E+02  0.12632513740E+03  0.12501803251E+03 0.  0.
    9000005    1    3    3    0    0  0.39524362808E+02  0.12531720821E+00  0.39860285542E+02  0.56142972163E+02  0.10000000000E+01 0.  0.
    9000005    1    3    3    0    0 -0.39524362808E+02 -0.12531720821E+00 -0.57985734084E+02  0.70182165235E+02  0.10000000000E+01 0.  0.
<mgrwt>
<rscale>  0 0.12501803E+03</rscale>
<asrwt>0</asrwt>
<pdfrwt beam="2">  1        4 0.11111584E-01 0.12501803E+03</pdfrwt>
<pdfrwt beam="1">  1       -4 0.83230530E-02 0.12501803E+03</pdfrwt>
<totfact> 0.10419603E+04</totfact>
</mgrwt>
</event>
<event>
 5    1  0.3434846E-002  0.1249822E+03  0.7818608E-02  0.1235097E+00
         -4   -1    0    0    0  501 -0.00000000000E+00  0.00000000000E+00  0.78879694889E+02  0.78889918024E+02  0.12700000000E+01 0. -1.
          4   -1    0    0  501    0  0.00000000000E+00 -0.00000000000E+00 -0.49485905459E+02  0.49502199336E+02  0.12700000000E+01 0. -1.
         25    2    1    2    0    0  0.00000000000E+00  0.00000000000E+00  0.29393789430E+02  0.12839211736E+03  0.12498216250E+03 0.  0.
    9000005    1    3    3    0    0  0.17742246296E+02  0.56213301724E+02 -0.65907561564E+01  0.59322513948E+02  0.10000000000E+01 0.  0.
    9000005    1    3    3    0    0 -0.17742246296E+02 -0.56213301724E+02  0.35984545587E+02  0.69069603412E+02  0.10000000000E+01 0.  0.
<mgrwt>
<rscale>  0 0.12498216E+03</rscale>
<asrwt>0</asrwt>
<pdfrwt beam="2">  1        4 0.76152560E-02 0.12498216E+03</pdfrwt>
<pdfrwt beam="1">  1       -4 0.12137377E-01 0.12498216E+03</pdfrwt>
<totfact> 0.10383209E+04</totfact>
</mgrwt>
</event>
<event>
 5    1  0.3434846E-002  0.1250004E+03  0.7818608E-02  0.1235069E+00
         -4   -1    0    0    0  501 -0.00000000000E+00  0.00000000000E+00  0.68096125961E+03  0.68096244389E+03  0.12700000000E+01 0. -1.
          4   -1    0    0  501    0  0.00000000000E+00 -0.00000000000E+00 -0.56649206626E+01  0.58055340938E+01  0.12700000000E+01 0. -1.
         25    2    1    2    0    0  0.00000000000E+00  0.00000000000E+00  0.67529633895E+03  0.68676797798E+03  0.12500044076E+03 0.  0.
    9000005    1    3    3    0    0 -0.28908409263E+02  0.36765296737E+02  0.10993050455E+03  0.11947007575E+03  0.10000000000E+01 0.  0.
    9000005    1    3    3    0    0  0.28908409263E+02 -0.36765296737E+02  0.56536583440E+03  0.56729790223E+03  0.10000000000E+01 0.  0.
<mgrwt>
<rscale>  0 0.12500044E+03</rscale>
<asrwt>0</asrwt>
<pdfrwt beam="2">  1        4 0.88243422E-03 0.12500044E+03</pdfrwt>
<pdfrwt beam="1">  1       -4 0.10477412E+00 0.12500044E+03</pdfrwt>
<totfact> 0.43794054E+03</totfact>
</mgrwt>
</event>
<event>
 5    1  0.3434846E-002  0.1250002E+03  0.7818608E-02  0.1235069E+00
          4   -1    0    0  501    0  0.00000000000E+00  0.00000000000E+00  0.27790477118E+03  0.27790767306E+03  0.12700000000E+01 0. -1.
         -4   -1    0    0    0  501 -0.00000000000E+00 -0.00000000000E+00 -0.14024443906E+02  0.14081829670E+02  0.12700000000E+01 0. -1.
         25    2    1    2    0    0  0.00000000000E+00  0.00000000000E+00  0.26388032728E+03  0.29198950273E+03  0.12500017033E+03 0.  0.
    9000005    1    3    3    0    0  0.32723698753E+02 -0.37466163481E+02  0.22029533046E+03  0.22584416417E+03  0.10000000000E+01 0.  0.
    9000005    1    3    3    0    0 -0.32723698753E+02  0.37466163481E+02  0.43584996815E+02  0.66145338562E+02  0.10000000000E+01 0.  0.
<mgrwt>
<rscale>  0 0.12500017E+03</rscale>
<asrwt>0</asrwt>
<pdfrwt beam="1">  1        4 0.42759215E-01 0.12500017E+03</pdfrwt>
<pdfrwt beam="2">  1       -4 0.21622444E-02 0.12500017E+03</pdfrwt>
<totfact> 0.76614485E+03</totfact>
</mgrwt>
</event>
<event>
 5    1  0.3434846E-002  0.1250495E+03  0.7818608E-02  0.1234992E+00
          4   -1    0    0  501    0  0.00000000000E+00  0.00000000000E+00  0.36404322716E+02  0.36426468570E+02  0.12700000000E+01 0. -1.
         -4   -1    0    0    0  501 -0.00000000000E+00 -0.00000000000E+00 -0.10732832887E+03  0.10733584246E+03  0.12700000000E+01 0. -1.
         25    2    1    2    0    0  0.00000000000E+00  0.00000000000E+00 -0.70924006150E+02  0.14376231103E+03  0.12504953988E+03 0.  0.
    9000005    1    3    3    0    0 -0.11443089723E+02 -0.59172964542E+02 -0.54560018315E+02  0.81303011221E+02  0.10000000000E+01 0.  0.
    9000005    1    3    3    0    0  0.11443089723E+02  0.59172964542E+02 -0.16363987835E+02  0.62459299812E+02  0.10000000000E+01 0.  0.
<mgrwt>
<rscale>  0 0.12504954E+03</rscale>
<asrwt>0</asrwt>
<pdfrwt beam="1">  1        4 0.56029466E-02 0.12504954E+03</pdfrwt>
<pdfrwt beam="2">  1       -4 0.16514332E-01 0.12504954E+03</pdfrwt>
<totfact> 0.10044985E+04</totfact>
</mgrwt>
</event>
<event>
 5    1  0.3434846E-002  0.1249989E+03  0.7818608E-02  0.1235071E+00
          4   -1    0    0  501    0  0.00000000000E+00  0.00000000000E+00  0.14514263625E+02  0.14569720264E+02  0.12700000000E+01 0. -1.
         -4   -1    0    0    0  501 -0.00000000000E+00 -0.00000000000E+00 -0.26855686570E+03  0.26855986859E+03  0.12700000000E+01 0. -1.
         25    2    1    2    0    0  0.00000000000E+00  0.00000000000E+00 -0.25404260208E+03  0.28312958885E+03  0.12499888165E+03 0.  0.
    9000005    1    3    3    0    0  0.22541961351E+02 -0.33851482366E+02 -0.19553543644E+02  0.45137611246E+02  0.10000000000E+01 0.  0.
    9000005    1    3    3    0    0 -0.22541961351E+02  0.33851482366E+02 -0.23448905843E+03  0.23799197761E+03  0.10000000000E+01 0.  0.
<mgrwt>
<rscale>  0 0.12499888E+03</rscale>
<asrwt>0</asrwt>
<pdfrwt beam="1">  1        4 0.22374607E-02 0.12499888E+03</pdfrwt>
<pdfrwt beam="2">  1       -4 0.41320934E-01 0.12499888E+03</pdfrwt>
<totfact> 0.77766901E+03</totfact>
</mgrwt>
</event>
<event>
 5    1  0.3434846E-002  0.1249984E+03  0.7818608E-02  0.1235072E+00
         -4   -1    0    0    0  501 -0.00000000000E+00  0.00000000000E+00  0.14141303529E+03  0.14141873797E+03  0.12700000000E+01 0.  1.
          4   -1    0    0  501    0  0.00000000000E+00 -0.00000000000E+00 -0.27601406226E+02  0.27630608493E+02  0.12700000000E+01 0.  1.
         25    2    1    2    0    0  0.00000000000E+00  0.00000000000E+00  0.11381162906E+03  0.16904934646E+03  0.12499837851E+03 0.  0.
    9000005    1    3    3    0    0  0.13359912739E+02 -0.53913431104E+02  0.18178540698E+02  0.58451729348E+02  0.10000000000E+01 0.  0.
    9000005    1    3    3    0    0 -0.13359912739E+02  0.53913431104E+02  0.95633088363E+02  0.11059761712E+03  0.10000000000E+01 0.  0.
<mgrwt>
<rscale>  0 0.12499838E+03</rscale>
<asrwt>0</asrwt>
<pdfrwt beam="2">  1        4 0.42490552E-02 0.12499838E+03</pdfrwt>
<pdfrwt beam="1">  1       -4 0.21758536E-01 0.12499838E+03</pdfrwt>
<totfact> 0.95629440E+03</totfact>
</mgrwt>
</event>
<event>
 5    1  0.3434846E-002  0.1249941E+03  0.7818608E-02  0.1235078E+00
          4   -1    0    0  501    0  0.00000000000E+00  0.00000000000E+00  0.15481487404E+03  0.15482008308E+03  0.12700000000E+01 0.  1.
         -4   -1    0    0    0  501 -0.00000000000E+00 -0.00000000000E+00 -0.25207755717E+02  0.25239727580E+02  0.12700000000E+01 0.  1.
         25    2    1    2    0    0  0.00000000000E+00  0.00000000000E+00  0.12960711832E+03  0.18005981066E+03  0.12499412104E+03 0.  0.
    9000005    1    3    3    0    0 -0.45763327612E+02 -0.13201608188E+01  0.35361675640E+01  0.45929614191E+02  0.10000000000E+01 0.  0.
    9000005    1    3    3    0    0  0.45763327612E+02  0.13201608188E+01  0.12607095076E+03  0.13413019647E+03  0.10000000000E+01 0.  0.
<mgrwt>
<rscale>  0 0.12499412E+03</rscale>
<asrwt>0</asrwt>
<pdfrwt beam="1">  1        4 0.23820533E-01 0.12499412E+03</pdfrwt>
<pdfrwt beam="2">  1       -4 0.38809763E-02 0.12499412E+03</pdfrwt>
<totfact> 0.93618578E+03</totfact>
</mgrwt>
</event>
<event>
 5    1  0.3434846E-002  0.1249995E+03  0.7818608E-02  0.1235070E+00
         -4   -1    0    0    0  501 -0.00000000000E+00  0.00000000000E+00  0.44147072217E+03  0.44147254890E+03  0.12700000000E+01 0.  1.
          4   -1    0    0  501    0  0.00000000000E+00 -0.00000000000E+00 -0.88007623396E+01  0.88919243001E+01  0.12700000000E+01 0.  1.
         25    2    1    2    0    0  0.00000000000E+00  0.00000000000E+00  0.43266995983E+03  0.45036447320E+03  0.12499945833E+03 0.  0.
    9000005    1    3    3    0    0  0.54622305182E+02  0.15351063681E+02  0.12197085918E+03  0.13452561789E+03  0.10000000000E+01 0.  0.
    9000005    1    3    3    0    0 -0.54622305182E+02 -0.15351063681E+02  0.31069910065E+03  0.31583885531E+03  0.10000000000E+01 0.  0.
<mgrwt>
<rscale>  0 0.12499946E+03</rscale>
<asrwt>0</asrwt>
<pdfrwt beam="2">  1        4 0.13611163E-02 0.12499946E+03</pdfrwt>
<pdfrwt beam="1">  1       -4 0.67925730E-01 0.12499946E+03</pdfrwt>
<totfact> 0.59932944E+03</totfact>
</mgrwt>
</event>
<event>
 5    1  0.3434846E-002  0.1249961E+03  0.7818608E-02  0.1235075E+00
          4   -1    0    0  501    0  0.00000000000E+00  0.00000000000E+00  0.11124717095E+01  0.16883403995E+01  0.12700000000E+01 0. -1.
         -4   -1    0    0    0  501 -0.00000000000E+00 -0.00000000000E+00 -0.27886199069E+04  0.27886201960E+04  0.12700000000E+01 0. -1.
         25    2    1    2    0    0  0.00000000000E+00  0.00000000000E+00 -0.27875074351E+04  0.27903085364E+04  0.12499611027E+03 0.  0.
    9000005    1    3    3    0    0  0.35330711377E+01  0.38220531421E+02 -0.24945630209E+04  0.24948585044E+04  0.10000000000E+01 0.  0.
    9000005    1    3    3    0    0 -0.35330711377E+01 -0.38220531421E+02 -0.29294441425E+03  0.29545003207E+03  0.10000000000E+01 0.  0.
<mgrwt>
<rscale>  0 0.12499611E+03</rscale>
<asrwt>0</asrwt>
<pdfrwt beam="1">  1        4 0.21547156E-03 0.12499611E+03</pdfrwt>
<pdfrwt beam="2">  1       -4 0.42905832E+00 0.12499611E+03</pdfrwt>
<totfact> 0.27692746E+02</totfact>
</mgrwt>
</event>
<event>
 5    1  0.3434846E-002  0.1249923E+03  0.7818608E-02  0.1235081E+00
          4   -1    0    0  501    0  0.00000000000E+00  0.00000000000E+00  0.32695136250E+02  0.32719792701E+02  0.12700000000E+01 0.  1.
         -4   -1    0    0    0  501 -0.00000000000E+00 -0.00000000000E+00 -0.11938719990E+03  0.11939395462E+03  0.12700000000E+01 0.  1.
         25    2    1    2    0    0  0.00000000000E+00  0.00000000000E+00 -0.86692063648E+02  0.15211374732E+03  0.12499231266E+03 0.  0.
    9000005    1    3    3    0    0  0.48325192688E+02 -0.38378072428E+02 -0.31386787898E+02  0.69241108787E+02  0.10000000000E+01 0.  0.
    9000005    1    3    3    0    0 -0.48325192688E+02  0.38378072428E+02 -0.55305275750E+02  0.82872638532E+02  0.10000000000E+01 0.  0.
<mgrwt>
<rscale>  0 0.12499231E+03</rscale>
<asrwt>0</asrwt>
<pdfrwt beam="1">  1        4 0.50324373E-02 0.12499231E+03</pdfrwt>
<pdfrwt beam="2">  1       -4 0.18369678E-01 0.12499231E+03</pdfrwt>
<totfact> 0.98901117E+03</totfact>
</mgrwt>
</event>
<event>
 5    1  0.3434846E-002  0.1249903E+03  0.7818608E-02  0.1235084E+00
          4   -1    0    0  501    0  0.00000000000E+00  0.00000000000E+00  0.20885963380E+02  0.20924539811E+02  0.12700000000E+01 0. -1.
         -4   -1    0    0    0  501 -0.00000000000E+00 -0.00000000000E+00 -0.18678523872E+03  0.18678955619E+03  0.12700000000E+01 0. -1.
         25    2    1    2    0    0  0.00000000000E+00  0.00000000000E+00 -0.16589927534E+03  0.20771409601E+03  0.12499030411E+03 0.  0.
    9000005    1    3    3    0    0  0.61249234807E+02  0.39475390092E+01 -0.10244299102E+03  0.11942620415E+03  0.10000000000E+01 0.  0.
    9000005    1    3    3    0    0 -0.61249234807E+02 -0.39475390092E+01 -0.63456284322E+02  0.88287891857E+02  0.10000000000E+01 0.  0.
<mgrwt>
<rscale>  0 0.12499030E+03</rscale>
<asrwt>0</asrwt>
<pdfrwt beam="1">  1        4 0.32165248E-02 0.12499030E+03</pdfrwt>
<pdfrwt beam="2">  1       -4 0.28739489E-01 0.12499030E+03</pdfrwt>
<totfact> 0.88869832E+03</totfact>
</mgrwt>
</event>
<event>
 5    1  0.3434846E-002  0.1250024E+03  0.7818608E-02  0.1235065E+00
         -4   -1    0    0    0  501 -0.00000000000E+00  0.00000000000E+00  0.52488089062E+02  0.52503451252E+02  0.12700000000E+01 0.  1.
          4   -1    0    0  501    0  0.00000000000E+00 -0.00000000000E+00 -0.74392872407E+02  0.74403712038E+02  0.12700000000E+01 0.  1.
         25    2    1    2    0    0  0.00000000000E+00  0.00000000000E+00 -0.21904783345E+02  0.12690716329E+03  0.12500243422E+03 0.  0.
    9000005    1    3    3    0    0 -0.51713922108E+02  0.17464073699E+02  0.19942848399E+02  0.58120915446E+02  0.10000000000E+01 0.  0.
    9000005    1    3    3    0    0  0.51713922108E+02 -0.17464073699E+02 -0.41847631744E+02  0.68786247845E+02  0.10000000000E+01 0.  0.
<mgrwt>
<rscale>  0 0.12500243E+03</rscale>
<asrwt>0</asrwt>
<pdfrwt beam="2">  1        4 0.11447073E-01 0.12500243E+03</pdfrwt>
<pdfrwt beam="1">  1       -4 0.80771061E-02 0.12500243E+03</pdfrwt>
<totfact> 0.10410591E+04</totfact>
</mgrwt>
</event>
<event>
 5    1  0.3434846E-002  0.1250179E+03  0.7818608E-02  0.1235041E+00
          4   -1    0    0  501    0  0.00000000000E+00  0.00000000000E+00  0.25404159505E+03  0.25404476951E+03  0.12700000000E+01 0.  1.
         -4   -1    0    0    0  501 -0.00000000000E+00 -0.00000000000E+00 -0.15351334557E+02  0.15403777870E+02  0.12700000000E+01 0.  1.
         25    2    1    2    0    0  0.00000000000E+00  0.00000000000E+00  0.23869026049E+03  0.26944854738E+03  0.12501791564E+03 0.  0.
    9000005    1    3    3    0    0 -0.50628225597E+02 -0.33704897787E+02  0.15036412072E+03  0.16220236176E+03  0.10000000000E+01 0.  0.
    9000005    1    3    3    0    0  0.50628225597E+02  0.33704897787E+02  0.88326139774E+02  0.10724618562E+03  0.10000000000E+01 0.  0.
<mgrwt>
<rscale>  0 0.12501792E+03</rscale>
<asrwt>0</asrwt>
<pdfrwt beam="1">  1        4 0.39087600E-01 0.12501792E+03</pdfrwt>
<pdfrwt beam="2">  1       -4 0.23660221E-02 0.12501792E+03</pdfrwt>
<totfact> 0.79566393E+03</totfact>
</mgrwt>
</event>
<event>
 5    1  0.3434846E-002  0.1249899E+03  0.7818608E-02  0.1235085E+00
          4   -1    0    0  501    0  0.00000000000E+00  0.00000000000E+00  0.21917246327E+02  0.21954010717E+02  0.12700000000E+01 0.  1.
         -4   -1    0    0    0  501 -0.00000000000E+00 -0.00000000000E+00 -0.17800997694E+03  0.17801450725E+03  0.12700000000E+01 0.  1.
         25    2    1    2    0    0  0.00000000000E+00  0.00000000000E+00 -0.15609273061E+03  0.19996851796E+03  0.12498987010E+03 0.  0.
    9000005    1    3    3    0    0 -0.59515096389E+02 -0.27082052403E+01 -0.10820038365E+03  0.12352207938E+03  0.10000000000E+01 0.  0.
    9000005    1    3    3    0    0  0.59515096389E+02  0.27082052403E+01 -0.47892346966E+02  0.76446438581E+02  0.10000000000E+01 0.  0.
<mgrwt>
<rscale>  0 0.12498987E+03</rscale>
<asrwt>0</asrwt>
<pdfrwt beam="1">  1        4 0.33750607E-02 0.12498987E+03</pdfrwt>
<pdfrwt beam="2">  1       -4 0.27389326E-01 0.12498987E+03</pdfrwt>
<totfact> 0.90161253E+03</totfact>
</mgrwt>
</event>
<event>
 5    1  0.3434846E-002  0.1249595E+03  0.7818608E-02  0.1235133E+00
          4   -1    0    0  501    0  0.00000000000E+00  0.00000000000E+00  0.24116172697E+02  0.24149589759E+02  0.12700000000E+01 0. -1.
         -4   -1    0    0    0  501 -0.00000000000E+00 -0.00000000000E+00 -0.16172346056E+03  0.16172844708E+03  0.12700000000E+01 0. -1.
         25    2    1    2    0    0  0.00000000000E+00  0.00000000000E+00 -0.13760728786E+03  0.18587803684E+03  0.12495950907E+03 0.  0.
    9000005    1    3    3    0    0 -0.19866530204E+02  0.53534972500E+02 -0.10649504839E+03  0.12084232551E+03  0.10000000000E+01 0.  0.
    9000005    1    3    3    0    0  0.19866530204E+02 -0.53534972500E+02 -0.31112239465E+02  0.65035711324E+02  0.10000000000E+01 0.  0.
<mgrwt>
<rscale>  0 0.12495951E+03</rscale>
<asrwt>0</asrwt>
<pdfrwt beam="1">  1        4 0.37131346E-02 0.12495951E+03</pdfrwt>
<pdfrwt beam="2">  1       -4 0.24883486E-01 0.12495951E+03</pdfrwt>
<totfact> 0.92653554E+03</totfact>
</mgrwt>
</event>
<event>
 5    1  0.3434846E-002  0.1249979E+03  0.7818608E-02  0.1235072E+00
         -4   -1    0    0    0  501 -0.00000000000E+00  0.00000000000E+00  0.27407624933E+02  0.27437033448E+02  0.12700000000E+01 0.  1.
          4   -1    0    0  501    0  0.00000000000E+00 -0.00000000000E+00 -0.14241085034E+03  0.14241651307E+03  0.12700000000E+01 0.  1.
         25    2    1    2    0    0  0.00000000000E+00  0.00000000000E+00 -0.11500322541E+03  0.16985354652E+03  0.12499794162E+03 0.  0.
    9000005    1    3    3    0    0  0.60978719176E+02 -0.94071720232E+01 -0.70968795401E+02  0.94045037075E+02  0.10000000000E+01 0.  0.
    9000005    1    3    3    0    0 -0.60978719176E+02  0.94071720232E+01 -0.44034430008E+02  0.75808509443E+02  0.10000000000E+01 0.  0.
<mgrwt>
<rscale>  0 0.12499794E+03</rscale>
<asrwt>0</asrwt>
<pdfrwt beam="2">  1        4 0.21912059E-01 0.12499794E+03</pdfrwt>
<pdfrwt beam="1">  1       -4 0.42192556E-02 0.12499794E+03</pdfrwt>
<totfact> 0.95480352E+03</totfact>
</mgrwt>
</event>
<event>
 5    1  0.3434846E-002  0.1249915E+03  0.7818608E-02  0.1235083E+00
          4   -1    0    0  501    0  0.00000000000E+00  0.00000000000E+00  0.12880970330E+02  0.12943426773E+02  0.12700000000E+01 0.  1.
         -4   -1    0    0    0  501 -0.00000000000E+00 -0.00000000000E+00 -0.30241883078E+03  0.30242149744E+03  0.12700000000E+01 0.  1.
         25    2    1    2    0    0  0.00000000000E+00  0.00000000000E+00 -0.28953786045E+03  0.31536492421E+03  0.12499145085E+03 0.  0.
    9000005    1    3    3    0    0 -0.21688939345E+02 -0.58266157027E+02 -0.16059830165E+03  0.17221547444E+03  0.10000000000E+01 0.  0.
    9000005    1    3    3    0    0  0.21688939345E+02  0.58266157027E+02 -0.12893955881E+03  0.14314944977E+03  0.10000000000E+01 0.  0.
<mgrwt>
<rscale>  0 0.12499145E+03</rscale>
<asrwt>0</asrwt>
<pdfrwt beam="1">  1        4 0.19866974E-02 0.12499145E+03</pdfrwt>
<pdfrwt beam="2">  1       -4 0.46530978E-01 0.12499145E+03</pdfrwt>
<totfact> 0.73724795E+03</totfact>
</mgrwt>
</event>
<event>
 5    1  0.3434846E-002  0.1249990E+03  0.7818608E-02  0.1235071E+00
         -4   -1    0    0    0  501 -0.00000000000E+00  0.00000000000E+00  0.25223281234E+03  0.25223600957E+03  0.12700000000E+01 0.  1.
          4   -1    0    0  501    0  0.00000000000E+00 -0.00000000000E+00 -0.15457097666E+02  0.15509183352E+02  0.12700000000E+01 0.  1.
         25    2    1    2    0    0  0.00000000000E+00  0.00000000000E+00  0.23677571468E+03  0.26774519292E+03  0.12499899708E+03 0.  0.
    9000005    1    3    3    0    0  0.47361683685E+01 -0.21974386123E+02 -0.65077316041E+01  0.23423396571E+02  0.10000000000E+01 0.  0.
    9000005    1    3    3    0    0 -0.47361683685E+01  0.21974386123E+02  0.24328344628E+03  0.24432179635E+03  0.10000000000E+01 0.  0.
<mgrwt>
<rscale>  0 0.12499900E+03</rscale>
<asrwt>0</asrwt>
<pdfrwt beam="2">  1        4 0.23822676E-02 0.12499900E+03</pdfrwt>
<pdfrwt beam="1">  1       -4 0.38809300E-01 0.12499900E+03</pdfrwt>
<totfact> 0.79833053E+03</totfact>
</mgrwt>
</event>
<event>
 5    1  0.3434846E-002  0.1249996E+03  0.7818608E-02  0.1235070E+00
         -4   -1    0    0    0  501 -0.00000000000E+00  0.00000000000E+00  0.51871315614E+02  0.51886860413E+02  0.12700000000E+01 0. -1.
          4   -1    0    0  501    0  0.00000000000E+00 -0.00000000000E+00 -0.75273860527E+02  0.75284573311E+02  0.12700000000E+01 0. -1.
         25    2    1    2    0    0  0.00000000000E+00  0.00000000000E+00 -0.23402544913E+02  0.12717143372E+03  0.12499957779E+03 0.  0.
    9000005    1    3    3    0    0  0.49078364744E+02 -0.33876793764E+02 -0.30704696572E+02  0.67082795359E+02  0.10000000000E+01 0.  0.
    9000005    1    3    3    0    0 -0.49078364744E+02  0.33876793764E+02  0.73021516589E+01  0.60088638365E+02  0.10000000000E+01 0.  0.
<mgrwt>
<rscale>  0 0.12499958E+03</rscale>
<asrwt>0</asrwt>
<pdfrwt beam="2">  1        4 0.11582614E-01 0.12499958E+03</pdfrwt>
<pdfrwt beam="1">  1       -4 0.79822222E-02 0.12499958E+03</pdfrwt>
<totfact> 0.10405522E+04</totfact>
</mgrwt>
</event>
<event>
 5    1  0.3434846E-002  0.1250202E+03  0.7818608E-02  0.1235038E+00
          4   -1    0    0  501    0  0.00000000000E+00  0.00000000000E+00  0.27500890142E+01  0.30291730862E+01  0.12700000000E+01 0.  1.
         -4   -1    0    0    0  501 -0.00000000000E+00 -0.00000000000E+00 -0.13519728100E+04  0.13519734065E+04  0.12700000000E+01 0.  1.
         25    2    1    2    0    0  0.00000000000E+00  0.00000000000E+00 -0.13492227210E+04  0.13550025796E+04  0.12502015780E+03 0.  0.
    9000005    1    3    3    0    0 -0.57078318546E+02  0.17571168738E+02 -0.47481358594E+03  0.47855576667E+03  0.10000000000E+01 0.  0.
    9000005    1    3    3    0    0  0.57078318546E+02 -0.17571168738E+02 -0.87440913507E+03  0.87644681294E+03  0.10000000000E+01 0.  0.
<mgrwt>
<rscale>  0 0.12502016E+03</rscale>
<asrwt>0</asrwt>
<pdfrwt beam="1">  1        4 0.44460559E-03 0.12502016E+03</pdfrwt>
<pdfrwt beam="2">  1       -4 0.20801683E+00 0.12502016E+03</pdfrwt>
<totfact> 0.20957174E+03</totfact>
</mgrwt>
</event>
<event>
 5    1  0.3434846E-002  0.1249973E+03  0.7818608E-02  0.1235073E+00
         -4   -1    0    0    0  501 -0.00000000000E+00  0.00000000000E+00  0.19371277394E+03  0.19371693702E+03  0.12700000000E+01 0. -1.
          4   -1    0    0  501    0  0.00000000000E+00 -0.00000000000E+00 -0.20139920579E+02  0.20179923214E+02  0.12700000000E+01 0. -1.
         25    2    1    2    0    0  0.00000000000E+00  0.00000000000E+00  0.17357285337E+03  0.21389686024E+03  0.12499732554E+03 0.  0.
    9000005    1    3    3    0    0  0.68590627463E+01  0.32541366668E+02  0.17732060235E+03  0.18041503070E+03  0.10000000000E+01 0.  0.
    9000005    1    3    3    0    0 -0.68590627463E+01 -0.32541366668E+02 -0.37477489829E+01  0.33481829532E+02  0.10000000000E+01 0.  0.
<mgrwt>
<rscale>  0 0.12499733E+03</rscale>
<asrwt>0</asrwt>
<pdfrwt beam="2">  1        4 0.31018468E-02 0.12499733E+03</pdfrwt>
<pdfrwt beam="1">  1       -4 0.29805362E-01 0.12499733E+03</pdfrwt>
<totfact> 0.87848652E+03</totfact>
</mgrwt>
</event>
<event>
 5    1  0.3434846E-002  0.1249997E+03  0.7818608E-02  0.1235070E+00
          4   -1    0    0  501    0  0.00000000000E+00  0.00000000000E+00  0.11638319218E+03  0.11639012124E+03  0.12700000000E+01 0.  1.
         -4   -1    0    0    0  501 -0.00000000000E+00 -0.00000000000E+00 -0.33543605259E+02  0.33567638490E+02  0.12700000000E+01 0.  1.
         25    2    1    2    0    0  0.00000000000E+00  0.00000000000E+00  0.82839586918E+02  0.14995775973E+03  0.12499973016E+03 0.  0.
    9000005    1    3    3    0    0 -0.32424181218E+02 -0.20440552379E+01  0.10546129865E+03  0.11035665455E+03  0.10000000000E+01 0.  0.
    9000005    1    3    3    0    0  0.32424181218E+02  0.20440552379E+01 -0.22621711735E+02  0.39601105178E+02  0.10000000000E+01 0.  0.
<mgrwt>
<rscale>  0 0.12499973E+03</rscale>
<asrwt>0</asrwt>
<pdfrwt beam="1">  1        4 0.17907488E-01 0.12499973E+03</pdfrwt>
<pdfrwt beam="2">  1       -4 0.51629363E-02 0.12499973E+03</pdfrwt>
<totfact> 0.99312721E+03</totfact>
</mgrwt>
</event>
<event>
 5    1  0.3434846E-002  0.1249975E+03  0.7818608E-02  0.1235073E+00
         -4   -1    0    0    0  501 -0.00000000000E+00  0.00000000000E+00  0.31942614344E+02  0.31967851212E+02  0.12700000000E+01 0. -1.
          4   -1    0    0  501    0  0.00000000000E+00 -0.00000000000E+00 -0.12220788749E+03  0.12221448631E+03  0.12700000000E+01 0. -1.
         25    2    1    2    0    0  0.00000000000E+00  0.00000000000E+00 -0.90265273141E+02  0.15418233752E+03  0.12499749465E+03 0.  0.
    9000005    1    3    3    0    0  0.10606203406E+02 -0.33480674150E+02 -0.10888889170E+03  0.11441694729E+03  0.10000000000E+01 0.  0.
    9000005    1    3    3    0    0 -0.10606203406E+02  0.33480674150E+02  0.18623618554E+02  0.39765390232E+02  0.10000000000E+01 0.  0.
<mgrwt>
<rscale>  0 0.12499749E+03</rscale>
<asrwt>0</asrwt>
<pdfrwt beam="2">  1        4 0.18803662E-01 0.12499749E+03</pdfrwt>
<pdfrwt beam="1">  1       -4 0.49166973E-02 0.12499749E+03</pdfrwt>
<totfact> 0.98481805E+03</totfact>
</mgrwt>
</event>
<event>
 5    1  0.3434846E-002  0.1249819E+03  0.7818608E-02  0.1235098E+00
          4   -1    0    0  501    0  0.00000000000E+00  0.00000000000E+00  0.60823177419E+02  0.60836434900E+02  0.12700000000E+01 0. -1.
         -4   -1    0    0    0  501 -0.00000000000E+00 -0.00000000000E+00 -0.64177866660E+02  0.64190431289E+02  0.12700000000E+01 0. -1.
         25    2    1    2    0    0  0.00000000000E+00  0.00000000000E+00 -0.33546892412E+01  0.12502686619E+03  0.12498185200E+03 0.  0.
    9000005    1    3    3    0    0  0.61860411158E+02  0.87859486909E+01 -0.21384545804E+01  0.62525805480E+02  0.10000000000E+01 0.  0.
    9000005    1    3    3    0    0 -0.61860411158E+02 -0.87859486909E+01 -0.12162346608E+01  0.62501060709E+02  0.10000000000E+01 0.  0.
<mgrwt>
<rscale>  0 0.12498185E+03</rscale>
<asrwt>0</asrwt>
<pdfrwt beam="1">  1        4 0.93593982E-02 0.12498185E+03</pdfrwt>
<pdfrwt beam="2">  1       -4 0.98755043E-02 0.12498185E+03</pdfrwt>
<totfact> 0.10456567E+04</totfact>
</mgrwt>
</event>
<event>
 5    1  0.3434846E-002  0.1249999E+03  0.7818608E-02  0.1235069E+00
         -4   -1    0    0    0  501 -0.00000000000E+00  0.00000000000E+00  0.46141877767E+03  0.46142052543E+03  0.12700000000E+01 0. -1.
          4   -1    0    0  501    0  0.00000000000E+00 -0.00000000000E+00 -0.84163207708E+01  0.85116012193E+01  0.12700000000E+01 0. -1.
         25    2    1    2    0    0  0.00000000000E+00  0.00000000000E+00  0.45300245690E+03  0.46993212665E+03  0.12499991080E+03 0.  0.
    9000005    1    3    3    0    0  0.30302073987E+02  0.59012541768E+01  0.22234040264E+02  0.38057759198E+02  0.10000000000E+01 0.  0.
    9000005    1    3    3    0    0 -0.30302073987E+02 -0.59012541768E+01  0.43076841664E+03  0.43187436745E+03  0.10000000000E+01 0.  0.
<mgrwt>
<rscale>  0 0.12499991E+03</rscale>
<asrwt>0</asrwt>
<pdfrwt beam="2">  1        4 0.13022819E-02 0.12499991E+03</pdfrwt>
<pdfrwt beam="1">  1       -4 0.70994991E-01 0.12499991E+03</pdfrwt>
<totfact> 0.58275244E+03</totfact>
</mgrwt>
</event>
<event>
 5    1  0.3434846E-002  0.1249998E+03  0.7818608E-02  0.1235070E+00
         -4   -1    0    0    0  501 -0.00000000000E+00  0.00000000000E+00  0.68599208990E+02  0.68610963950E+02  0.12700000000E+01 0. -1.
          4   -1    0    0  501    0  0.00000000000E+00 -0.00000000000E+00 -0.56919190805E+02  0.56933357374E+02  0.12700000000E+01 0. -1.
         25    2    1    2    0    0  0.00000000000E+00  0.00000000000E+00  0.11680018185E+02  0.12554432132E+03  0.12499981517E+03 0.  0.
    9000005    1    3    3    0    0 -0.24244236378E+02 -0.57533593420E+02  0.85612540629E+01  0.63025331737E+02  0.10000000000E+01 0.  0.
    9000005    1    3    3    0    0  0.24244236378E+02  0.57533593420E+02  0.31187641224E+01  0.62518989587E+02  0.10000000000E+01 0.  0.
<mgrwt>
<rscale>  0 0.12499982E+03</rscale>
<asrwt>0</asrwt>
<pdfrwt beam="2">  1        4 0.87587926E-02 0.12499982E+03</pdfrwt>
<pdfrwt beam="1">  1       -4 0.10555718E-01 0.12499982E+03</pdfrwt>
<totfact> 0.10441019E+04</totfact>
</mgrwt>
</event>
<event>
 5    1  0.3434846E-002  0.1249981E+03  0.7818608E-02  0.1235072E+00
         -4   -1    0    0    0  501 -0.00000000000E+00  0.00000000000E+00  0.10586443692E+02  0.10662349181E+02  0.12700000000E+01 0.  1.
          4   -1    0    0  501    0  0.00000000000E+00 -0.00000000000E+00 -0.36757978349E+03  0.36758197742E+03  0.12700000000E+01 0.  1.
         25    2    1    2    0    0  0.00000000000E+00  0.00000000000E+00 -0.35699333979E+03  0.37824432661E+03  0.12499810380E+03 0.  0.
    9000005    1    3    3    0    0  0.20927114898E+02  0.50803188147E+02 -0.88414132587E+02  0.10410075362E+03  0.10000000000E+01 0.  0.
    9000005    1    3    3    0    0 -0.20927114898E+02 -0.50803188147E+02 -0.26857920721E+03  0.27414357298E+03  0.10000000000E+01 0.  0.
<mgrwt>
<rscale>  0 0.12499810E+03</rscale>
<asrwt>0</asrwt>
<pdfrwt beam="2">  1        4 0.56556734E-01 0.12499810E+03</pdfrwt>
<pdfrwt beam="1">  1       -4 0.16346916E-02 0.12499810E+03</pdfrwt>
<totfact> 0.66727957E+03</totfact>
</mgrwt>
</event>
<event>
 5    1  0.3434846E-002  0.1249897E+03  0.7818608E-02  0.1235085E+00
         -4   -1    0    0    0  501 -0.00000000000E+00  0.00000000000E+00  0.71097909606E+03  0.71098023034E+03  0.12700000000E+01 0.  1.
          4   -1    0    0  501    0  0.00000000000E+00 -0.00000000000E+00 -0.54187246885E+01  0.55655617192E+01  0.12700000000E+01 0.  1.
         25    2    1    2    0    0  0.00000000000E+00  0.00000000000E+00  0.70556037137E+03  0.71654579206E+03  0.12498973745E+03 0.  0.
    9000005    1    3    3    0    0  0.31944901242E+02 -0.53658633521E+02  0.34011210727E+03  0.34579903293E+03  0.10000000000E+01 0.  0.
    9000005    1    3    3    0    0 -0.31944901242E+02  0.53658633521E+02  0.36544826411E+03  0.37074675913E+03  0.10000000000E+01 0.  0.
<mgrwt>
<rscale>  0 0.12498974E+03</rscale>
<asrwt>0</asrwt>
<pdfrwt beam="2">  1        4 0.84503245E-03 0.12498974E+03</pdfrwt>
<pdfrwt beam="1">  1       -4 0.10939277E+00 0.12498974E+03</pdfrwt>
<totfact> 0.42237019E+03</totfact>
</mgrwt>
</event>
<event>
 5    1  0.3434846E-002  0.1250018E+03  0.7818608E-02  0.1235066E+00
         -4   -1    0    0    0  501 -0.00000000000E+00  0.00000000000E+00  0.69207700405E+03  0.69207816931E+03  0.12700000000E+01 0.  1.
          4   -1    0    0  501    0  0.00000000000E+00 -0.00000000000E+00 -0.55717850742E+01  0.57146906227E+01  0.12700000000E+01 0.  1.
         25    2    1    2    0    0  0.00000000000E+00  0.00000000000E+00  0.68650521898E+03  0.69779285993E+03  0.12500183875E+03 0.  0.
    9000005    1    3    3    0    0  0.51770801341E+02  0.13467748748E+02  0.16290421757E+03  0.17146539077E+03  0.10000000000E+01 0.  0.
    9000005    1    3    3    0    0 -0.51770801341E+02 -0.13467748748E+02  0.52360100140E+03  0.52632746917E+03  0.10000000000E+01 0.  0.
<mgrwt>
<rscale>  0 0.12500184E+03</rscale>
<asrwt>0</asrwt>
<pdfrwt beam="2">  1        4 0.86828099E-03 0.12500184E+03</pdfrwt>
<pdfrwt beam="1">  1       -4 0.10648436E+00 0.12500184E+03</pdfrwt>
<totfact> 0.43201756E+03</totfact>
</mgrwt>
</event>
<event>
 5    1  0.3434846E-002  0.1250000E+03  0.7818608E-02  0.1235069E+00
         -4   -1    0    0    0  501 -0.00000000000E+00  0.00000000000E+00  0.10132404285E+03  0.10133200166E+03  0.12700000000E+01 0.  1.
          4   -1    0    0  501    0  0.00000000000E+00 -0.00000000000E+00 -0.38532113672E+02  0.38553037287E+02  0.12700000000E+01 0.  1.
         25    2    1    2    0    0  0.00000000000E+00  0.00000000000E+00  0.62791929180E+02  0.13988503894E+03  0.12499999100E+03 0.  0.
    9000005    1    3    3    0    0 -0.44596060345E+02  0.31636241651E+01 -0.17466119023E+02  0.48009191098E+02  0.10000000000E+01 0.  0.
    9000005    1    3    3    0    0  0.44596060345E+02 -0.31636241651E+01  0.80258048202E+02  0.91875847846E+02  0.10000000000E+01 0.  0.
<mgrwt>
<rscale>  0 0.12499999E+03</rscale>
<asrwt>0</asrwt>
<pdfrwt beam="2">  1        4 0.59302393E-02 0.12499999E+03</pdfrwt>
<pdfrwt beam="1">  1       -4 0.15590536E-01 0.12499999E+03</pdfrwt>
<totfact> 0.10135971E+04</totfact>
</mgrwt>
</event>
<event>
 5    1  0.3434846E-002  0.1250003E+03  0.7818608E-02  0.1235069E+00
         -4   -1    0    0    0  501 -0.00000000000E+00  0.00000000000E+00  0.35460980183E+03  0.35461207601E+03  0.12700000000E+01 0.  1.
          4   -1    0    0  501    0  0.00000000000E+00 -0.00000000000E+00 -0.10976761226E+02  0.11049985838E+02  0.12700000000E+01 0.  1.
         25    2    1    2    0    0  0.00000000000E+00  0.00000000000E+00  0.34363304060E+03  0.36566206185E+03  0.12500030753E+03 0.  0.
    9000005    1    3    3    0    0 -0.52184764920E+02  0.32304750986E+02  0.20623346507E+03  0.21517455412E+03  0.10000000000E+01 0.  0.
    9000005    1    3    3    0    0  0.52184764920E+02 -0.32304750986E+02  0.13739957553E+03  0.15048750773E+03  0.10000000000E+01 0.  0.
<mgrwt>
<rscale>  0 0.12500031E+03</rscale>
<asrwt>0</asrwt>
<pdfrwt beam="2">  1        4 0.16945400E-02 0.12500031E+03</pdfrwt>
<pdfrwt beam="1">  1       -4 0.54561165E-01 0.12500031E+03</pdfrwt>
<totfact> 0.68034755E+03</totfact>
</mgrwt>
</event>
<event>
 5    1  0.3434846E-002  0.1249980E+03  0.7818608E-02  0.1235072E+00
          4   -1    0    0  501    0  0.00000000000E+00  0.00000000000E+00  0.69646541927E+02  0.69658120146E+02  0.12700000000E+01 0.  1.
         -4   -1    0    0    0  501 -0.00000000000E+00 -0.00000000000E+00 -0.56061508318E+02  0.56075891565E+02  0.12700000000E+01 0.  1.
         25    2    1    2    0    0  0.00000000000E+00  0.00000000000E+00  0.13585033609E+02  0.12573401171E+03  0.12499795424E+03 0.  0.
    9000005    1    3    3    0    0  0.47120098331E+02  0.38588557257E+02  0.20865675030E+02  0.64387551688E+02  0.10000000000E+01 0.  0.
    9000005    1    3    3    0    0 -0.47120098331E+02 -0.38588557257E+02 -0.72806414209E+01  0.61346460024E+02  0.10000000000E+01 0.  0.
<mgrwt>
<rscale>  0 0.12499795E+03</rscale>
<asrwt>0</asrwt>
<pdfrwt beam="1">  1        4 0.10716850E-01 0.12499795E+03</pdfrwt>
<pdfrwt beam="2">  1       -4 0.86268446E-02 0.12499795E+03</pdfrwt>
<totfact> 0.10437278E+04</totfact>
</mgrwt>
</event>
<event>
 5    1  0.3434846E-002  0.1250003E+03  0.7818608E-02  0.1235069E+00
         -4   -1    0    0    0  501 -0.00000000000E+00  0.00000000000E+00  0.12587882885E+03  0.12588523525E+03  0.12700000000E+01 0.  1.
          4   -1    0    0  501    0  0.00000000000E+00 -0.00000000000E+00 -0.31011796534E+02  0.31037790261E+02  0.12700000000E+01 0.  1.
         25    2    1    2    0    0  0.00000000000E+00  0.00000000000E+00  0.94867032316E+02  0.15692302551E+03  0.12500032845E+03 0.  0.
    9000005    1    3    3    0    0 -0.31871916175E+02 -0.46095025596E+02  0.12718202543E+02  0.57474543072E+02  0.10000000000E+01 0.  0.
    9000005    1    3    3    0    0  0.31871916175E+02  0.46095025596E+02  0.82148829773E+02  0.99448482434E+02  0.10000000000E+01 0.  0.
<mgrwt>
<rscale>  0 0.12500033E+03</rscale>
<asrwt>0</asrwt>
<pdfrwt beam="2">  1        4 0.47735379E-02 0.12500033E+03</pdfrwt>
<pdfrwt beam="1">  1       -4 0.19368466E-01 0.12500033E+03</pdfrwt>
<totfact> 0.97938579E+03</totfact>
</mgrwt>
</event>
<event>
 5    1  0.3434846E-002  0.1249987E+03  0.7818608E-02  0.1235071E+00
          4   -1    0    0  501    0  0.00000000000E+00  0.00000000000E+00  0.70867161916E+02  0.70878540744E+02  0.12700000000E+01 0.  1.
         -4   -1    0    0    0  501 -0.00000000000E+00 -0.00000000000E+00 -0.55096433189E+02  0.55111068308E+02  0.12700000000E+01 0.  1.
         25    2    1    2    0    0  0.00000000000E+00  0.00000000000E+00  0.15770728727E+02  0.12598960905E+03  0.12499866281E+03 0.  0.
    9000005    1    3    3    0    0  0.12055952305E+02 -0.46239674250E+02 -0.32704383693E+02  0.57913989445E+02  0.10000000000E+01 0.  0.
    9000005    1    3    3    0    0 -0.12055952305E+02  0.46239674250E+02  0.48475112421E+02  0.68075619607E+02  0.10000000000E+01 0.  0.
<mgrwt>
<rscale>  0 0.12499866E+03</rscale>
<asrwt>0</asrwt>
<pdfrwt beam="1">  1        4 0.10904641E-01 0.12499866E+03</pdfrwt>
<pdfrwt beam="2">  1       -4 0.84783754E-02 0.12499866E+03</pdfrwt>
<totfact> 0.10431499E+04</totfact>
</mgrwt>
</event>
<event>
 5    1  0.3434846E-002  0.1249978E+03  0.7818608E-02  0.1235073E+00
         -4   -1    0    0    0  501 -0.00000000000E+00  0.00000000000E+00  0.37999299703E+02  0.38020516540E+02  0.12700000000E+01 0. -1.
          4   -1    0    0  501    0  0.00000000000E+00 -0.00000000000E+00 -0.10274043187E+03  0.10274828096E+03  0.12700000000E+01 0. -1.
         25    2    1    2    0    0  0.00000000000E+00  0.00000000000E+00 -0.64741132168E+02  0.14076879750E+03  0.12499776061E+03 0.  0.
    9000005    1    3    3    0    0 -0.19441354419E+02  0.52744013066E+02 -0.16277009706E+01  0.56245413914E+02  0.10000000000E+01 0.  0.
    9000005    1    3    3    0    0  0.19441354419E+02 -0.52744013066E+02 -0.63113431198E+02  0.84523383590E+02  0.10000000000E+01 0.  0.
<mgrwt>
<rscale>  0 0.12499776E+03</rscale>
<asrwt>0</asrwt>
<pdfrwt beam="2">  1        4 0.15808456E-01 0.12499776E+03</pdfrwt>
<pdfrwt beam="1">  1       -4 0.58482820E-02 0.12499776E+03</pdfrwt>
<totfact> 0.10118187E+04</totfact>
</mgrwt>
</event>
<event>
 5    1  0.3434846E-002  0.1249814E+03  0.7818608E-02  0.1235098E+00
         -4   -1    0    0    0  501 -0.00000000000E+00  0.00000000000E+00  0.43921515680E+02  0.43939873005E+02  0.12700000000E+01 0.  1.
          4   -1    0    0  501    0  0.00000000000E+00 -0.00000000000E+00 -0.88869053898E+02  0.88878128022E+02  0.12700000000E+01 0.  1.
         25    2    1    2    0    0  0.00000000000E+00  0.00000000000E+00 -0.44947538218E+02  0.13281800103E+03  0.12498135943E+03 0.  0.
    9000005    1    3    3    0    0 -0.32972140808E+02  0.39886807197E+02 -0.59683012256E+02  0.79001148155E+02  0.10000000000E+01 0.  0.
    9000005    1    3    3    0    0  0.32972140808E+02 -0.39886807197E+02  0.14735474038E+02  0.53816852872E+02  0.10000000000E+01 0.  0.
<mgrwt>
<rscale>  0 0.12498136E+03</rscale>
<asrwt>0</asrwt>
<pdfrwt beam="2">  1        4 0.13674272E-01 0.12498136E+03</pdfrwt>
<pdfrwt beam="1">  1       -4 0.67592664E-02 0.12498136E+03</pdfrwt>
<totfact> 0.10288595E+04</totfact>
</mgrwt>
</event>
<event>
 5    1  0.3434846E-002  0.1250001E+03  0.7818608E-02  0.1235069E+00
         -4   -1    0    0    0  501 -0.00000000000E+00  0.00000000000E+00  0.26341061319E+02  0.26371659246E+02  0.12700000000E+01 0. -1.
          4   -1    0    0  501    0  0.00000000000E+00 -0.00000000000E+00 -0.14817582407E+03  0.14818126649E+03  0.12700000000E+01 0. -1.
         25    2    1    2    0    0  0.00000000000E+00  0.00000000000E+00 -0.12183476275E+03  0.17455292573E+03  0.12500005787E+03 0.  0.
    9000005    1    3    3    0    0 -0.30618545069E+01  0.59996999745E+02 -0.36882731241E+02  0.70500714856E+02  0.10000000000E+01 0.  0.
    9000005    1    3    3    0    0  0.30618545069E+01 -0.59996999745E+02 -0.84952031508E+02  0.10405221088E+03  0.10000000000E+01 0.  0.
<mgrwt>
<rscale>  0 0.12500006E+03</rscale>
<asrwt>0</asrwt>
<pdfrwt beam="2">  1        4 0.22799052E-01 0.12500006E+03</pdfrwt>
<pdfrwt beam="1">  1       -4 0.40552434E-02 0.12500006E+03</pdfrwt>
<totfact> 0.94606662E+03</totfact>
</mgrwt>
</event>
<event>
 5    1  0.3434846E-002  0.1249991E+03  0.7818608E-02  0.1235071E+00
         -4   -1    0    0    0  501 -0.00000000000E+00  0.00000000000E+00  0.14499273432E+02  0.14554787187E+02  0.12700000000E+01 0.  1.
          4   -1    0    0  501    0  0.00000000000E+00 -0.00000000000E+00 -0.26883424106E+03  0.26883724085E+03  0.12700000000E+01 0.  1.
         25    2    1    2    0    0  0.00000000000E+00  0.00000000000E+00 -0.25433496763E+03  0.28339202804E+03  0.12499906318E+03 0.  0.
    9000005    1    3    3    0    0  0.54796483393E+02  0.88128103716E+01 -0.19228141995E+03  0.20013361705E+03  0.10000000000E+01 0.  0.
    9000005    1    3    3    0    0 -0.54796483393E+02 -0.88128103716E+01 -0.62053547684E+02  0.83258410981E+02  0.10000000000E+01 0.  0.
<mgrwt>
<rscale>  0 0.12499906E+03</rscale>
<asrwt>0</asrwt>
<pdfrwt beam="2">  1        4 0.41363611E-01 0.12499906E+03</pdfrwt>
<pdfrwt beam="1">  1       -4 0.22351587E-02 0.12499906E+03</pdfrwt>
<totfact> 0.77732106E+03</totfact>
</mgrwt>
</event>
<event>
 5    1  0.3434846E-002  0.1250007E+03  0.7818608E-02  0.1235068E+00
         -4   -1    0    0    0  501 -0.00000000000E+00  0.00000000000E+00  0.70751467870E+02  0.70762865302E+02  0.12700000000E+01 0.  1.
          4   -1    0    0  501    0  0.00000000000E+00 -0.00000000000E+00 -0.55188375285E+02  0.55202986029E+02  0.12700000000E+01 0.  1.
         25    2    1    2    0    0  0.00000000000E+00  0.00000000000E+00  0.15563092585E+02  0.12596585133E+03  0.12500074340E+03 0.  0.
    9000005    1    3    3    0    0  0.44260134816E+02 -0.25604933142E+02 -0.28422488883E+02  0.58509913770E+02  0.10000000000E+01 0.  0.
    9000005    1    3    3    0    0 -0.44260134816E+02  0.25604933142E+02  0.43985581468E+02  0.67455937561E+02  0.10000000000E+01 0.  0.
<mgrwt>
<rscale>  0 0.12500074E+03</rscale>
<asrwt>0</asrwt>
<pdfrwt beam="2">  1        4 0.84925199E-02 0.12500074E+03</pdfrwt>
<pdfrwt beam="1">  1       -4 0.10886842E-01 0.12500074E+03</pdfrwt>
<totfact> 0.10431530E+04</totfact>
</mgrwt>
</event>
<event>
 5    1  0.3434846E-002  0.1250011E+03  0.7818608E-02  0.1235068E+00
         -4   -1    0    0    0  501 -0.00000000000E+00  0.00000000000E+00  0.36153472080E+01  0.38319232031E+01  0.12700000000E+01 0.  1.
          4   -1    0    0  501    0  0.00000000000E+00 -0.00000000000E+00 -0.10488441275E+04  0.10488448964E+04  0.12700000000E+01 0.  1.
         25    2    1    2    0    0  0.00000000000E+00  0.00000000000E+00 -0.10452287803E+04  0.10526768196E+04  0.12500113346E+03 0.  0.
    9000005    1    3    3    0    0 -0.13065755788E+02  0.68778389527E+01 -0.10339846594E+04  0.10340905640E+04  0.10000000000E+01 0.  0.
    9000005    1    3    3    0    0  0.13065755788E+02 -0.68778389527E+01 -0.11244120881E+02  0.18586255604E+02  0.10000000000E+01 0.  0.
<mgrwt>
<rscale>  0 0.12500113E+03</rscale>
<asrwt>0</asrwt>
<pdfrwt beam="2">  1        4 0.16137712E+00 0.12500113E+03</pdfrwt>
<pdfrwt beam="1">  1       -4 0.57292694E-03 0.12500113E+03</pdfrwt>
<totfact> 0.28910666E+03</totfact>
</mgrwt>
</event>
<event>
 5    1  0.3434846E-002  0.1249979E+03  0.7818608E-02  0.1235073E+00
         -4   -1    0    0    0  501 -0.00000000000E+00  0.00000000000E+00  0.41986412419E+03  0.41986604493E+03  0.12700000000E+01 0.  1.
          4   -1    0    0  501    0  0.00000000000E+00 -0.00000000000E+00 -0.92580033456E+01  0.93447057710E+01  0.12700000000E+01 0.  1.
         25    2    1    2    0    0  0.00000000000E+00  0.00000000000E+00  0.41060612085E+03  0.42921075070E+03  0.12499792814E+03 0.  0.
    9000005    1    3    3    0    0 -0.42844700020E+02 -0.13320194832E+02  0.55944139864E+02  0.71720587667E+02  0.10000000000E+01 0.  0.
    9000005    1    3    3    0    0  0.42844700020E+02  0.13320194832E+02  0.35466198098E+03  0.35749016303E+03  0.10000000000E+01 0.  0.
<mgrwt>
<rscale>  0 0.12499793E+03</rscale>
<asrwt>0</asrwt>
<pdfrwt beam="2">  1        4 0.14311251E-02 0.12499793E+03</pdfrwt>
<pdfrwt beam="1">  1       -4 0.64601312E-01 0.12499793E+03</pdfrwt>
<totfact> 0.61810411E+03</totfact>
</mgrwt>
</event>
<event>
 5    1  0.3434846E-002  0.1249979E+03  0.7818608E-02  0.1235073E+00
          4   -1    0    0  501    0  0.00000000000E+00  0.00000000000E+00  0.23497983807E+03  0.23498327004E+03  0.12700000000E+01 0.  1.
         -4   -1    0    0    0  501 -0.00000000000E+00 -0.00000000000E+00 -0.16595390122E+02  0.16643914001E+02  0.12700000000E+01 0.  1.
         25    2    1    2    0    0  0.00000000000E+00  0.00000000000E+00  0.21838444795E+03  0.25162718405E+03  0.12499789056E+03 0.  0.
    9000005    1    3    3    0    0  0.13670284240E+02  0.44111984054E+02  0.24443610459E+02  0.52261208373E+02  0.10000000000E+01 0.  0.
    9000005    1    3    3    0    0 -0.13670284240E+02 -0.44111984054E+02  0.19394083749E+03  0.19936597567E+03  0.10000000000E+01 0.  0.
<mgrwt>
<rscale>  0 0.12499789E+03</rscale>
<asrwt>0</asrwt>
<pdfrwt beam="1">  1        4 0.36154741E-01 0.12499789E+03</pdfrwt>
<pdfrwt beam="2">  1       -4 0.25571336E-02 0.12499789E+03</pdfrwt>
<totfact> 0.82099473E+03</totfact>
</mgrwt>
</event>
<event>
 5    1  0.3434846E-002  0.1249996E+03  0.7818608E-02  0.1235070E+00
         -4   -1    0    0    0  501 -0.00000000000E+00  0.00000000000E+00  0.17151921689E+03  0.17152391863E+03  0.12700000000E+01 0. -1.
          4   -1    0    0  501    0  0.00000000000E+00 -0.00000000000E+00 -0.22751543953E+02  0.22786962331E+02  0.12700000000E+01 0. -1.
         25    2    1    2    0    0  0.00000000000E+00  0.00000000000E+00  0.14876767294E+03  0.19431088096E+03  0.12499959180E+03 0.  0.
    9000005    1    3    3    0    0 -0.45683597830E+02  0.38395224127E+02  0.45550620537E+02  0.75080246255E+02  0.10000000000E+01 0.  0.
    9000005    1    3    3    0    0  0.45683597830E+02 -0.38395224127E+02  0.10321705240E+03  0.11923063471E+03  0.10000000000E+01 0.  0.
<mgrwt>
<rscale>  0 0.12499959E+03</rscale>
<asrwt>0</asrwt>
<pdfrwt beam="2">  1        4 0.35033235E-02 0.12499959E+03</pdfrwt>
<pdfrwt beam="1">  1       -4 0.26390660E-01 0.12499959E+03</pdfrwt>
<totfact> 0.91103430E+03</totfact>
</mgrwt>
</event>
<event>
 5    1  0.3434846E-002  0.1250048E+03  0.7818608E-02  0.1235062E+00
         -4   -1    0    0    0  501 -0.00000000000E+00  0.00000000000E+00  0.59400055463E+03  0.59400191228E+03  0.12700000000E+01 0.  1.
          4   -1    0    0  501    0  0.00000000000E+00 -0.00000000000E+00 -0.65139918168E+01  0.66366399171E+01  0.12700000000E+01 0.  1.
         25    2    1    2    0    0  0.00000000000E+00  0.00000000000E+00  0.58748656281E+03  0.60063855220E+03  0.12500483554E+03 0.  0.
    9000005    1    3    3    0    0  0.46263857464E+02  0.38830597353E+02  0.21665572576E+03  0.22491968189E+03  0.10000000000E+01 0.  0.
    9000005    1    3    3    0    0 -0.46263857464E+02 -0.38830597353E+02  0.37083083705E+03  0.37571887031E+03  0.10000000000E+01 0.  0.
<mgrwt>
<rscale>  0 0.12500484E+03</rscale>
<asrwt>0</asrwt>
<pdfrwt beam="2">  1        4 0.10116915E-02 0.12500484E+03</pdfrwt>
<pdfrwt beam="1">  1       -4 0.91394235E-01 0.12500484E+03</pdfrwt>
<totfact> 0.48822153E+03</totfact>
</mgrwt>
</event>
<event>
 5    1  0.3434846E-002  0.1250088E+03  0.7818608E-02  0.1235056E+00
         -4   -1    0    0    0  501 -0.00000000000E+00  0.00000000000E+00  0.59578577213E+03  0.59578712572E+03  0.12700000000E+01 0.  1.
          4   -1    0    0  501    0  0.00000000000E+00 -0.00000000000E+00 -0.64945249024E+01  0.66175338086E+01  0.12700000000E+01 0.  1.
         25    2    1    2    0    0  0.00000000000E+00  0.00000000000E+00  0.58929124723E+03  0.60240465953E+03  0.12500879874E+03 0.  0.
    9000005    1    3    3    0    0  0.50795583936E+02 -0.13776651403E+02  0.45705124466E+03  0.46007263309E+03  0.10000000000E+01 0.  0.
    9000005    1    3    3    0    0 -0.50795583936E+02  0.13776651403E+02  0.13224000257E+03  0.14233202644E+03  0.10000000000E+01 0.  0.
<mgrwt>
<rscale>  0 0.12500880E+03</rscale>
<asrwt>0</asrwt>
<pdfrwt beam="2">  1        4 0.10087244E-02 0.12500880E+03</pdfrwt>
<pdfrwt beam="1">  1       -4 0.91668882E-01 0.12500880E+03</pdfrwt>
<totfact> 0.48706788E+03</totfact>
</mgrwt>
</event>
<event>
 5    1  0.3434846E-002  0.1250013E+03  0.7818608E-02  0.1235067E+00
          4   -1    0    0  501    0  0.00000000000E+00  0.00000000000E+00  0.32633574454E+03  0.32633821575E+03  0.12700000000E+01 0. -1.
         -4   -1    0    0    0  501 -0.00000000000E+00 -0.00000000000E+00 -0.11934072352E+02  0.12001457532E+02  0.12700000000E+01 0. -1.
         25    2    1    2    0    0  0.00000000000E+00  0.00000000000E+00  0.31440167218E+03  0.33833967329E+03  0.12500129218E+03 0.  0.
    9000005    1    3    3    0    0  0.34091567709E+01  0.28939548457E+02  0.30683476753E+03  0.30821695992E+03  0.10000000000E+01 0.  0.
    9000005    1    3    3    0    0 -0.34091567709E+01 -0.28939548457E+02  0.75669046546E+01  0.30122713371E+02  0.10000000000E+01 0.  0.
<mgrwt>
<rscale>  0 0.12500129E+03</rscale>
<asrwt>0</asrwt>
<pdfrwt beam="1">  1        4 0.50210869E-01 0.12500129E+03</pdfrwt>
<pdfrwt beam="2">  1       -4 0.18413848E-02 0.12500129E+03</pdfrwt>
<totfact> 0.71024643E+03</totfact>
</mgrwt>
</event>
<event>
 5    1  0.3434846E-002  0.1249878E+03  0.7818608E-02  0.1235088E+00
         -4   -1    0    0    0  501 -0.00000000000E+00  0.00000000000E+00  0.78567332276E+02  0.78577596050E+02  0.12700000000E+01 0. -1.
          4   -1    0    0  501    0  0.00000000000E+00 -0.00000000000E+00 -0.49687195958E+02  0.49703423848E+02  0.12700000000E+01 0. -1.
         25    2    1    2    0    0  0.00000000000E+00  0.00000000000E+00  0.28880136317E+02  0.12828101990E+03  0.12498783058E+03 0.  0.
    9000005    1    3    3    0    0 -0.18717867181E+02  0.23142801574E+02 -0.41948784626E+02  0.51445586284E+02  0.10000000000E+01 0.  0.
    9000005    1    3    3    0    0  0.18717867181E+02 -0.23142801574E+02  0.70828920944E+02  0.76835433613E+02  0.10000000000E+01 0.  0.
<mgrwt>
<rscale>  0 0.12498783E+03</rscale>
<asrwt>0</asrwt>
<pdfrwt beam="2">  1        4 0.76462219E-02 0.12498783E+03</pdfrwt>
<pdfrwt beam="1">  1       -4 0.12089320E-01 0.12498783E+03</pdfrwt>
<totfact> 0.10384276E+04</totfact>
</mgrwt>
</event>
<event>
 5    1  0.3434846E-002  0.1249950E+03  0.7818608E-02  0.1235077E+00
          4   -1    0    0  501    0  0.00000000000E+00  0.00000000000E+00  0.64513908496E+02  0.64526407690E+02  0.12700000000E+01 0. -1.
         -4   -1    0    0    0  501 -0.00000000000E+00 -0.00000000000E+00 -0.60519076737E+02  0.60532400821E+02  0.12700000000E+01 0. -1.
         25    2    1    2    0    0  0.00000000000E+00  0.00000000000E+00  0.39948317586E+01  0.12505880851E+03  0.12499498752E+03 0.  0.
    9000005    1    3    3    0    0  0.12668922212E+02  0.37546222505E+02  0.50340989172E+02  0.64073673261E+02  0.10000000000E+01 0.  0.
    9000005    1    3    3    0    0 -0.12668922212E+02 -0.37546222505E+02 -0.46346157413E+02  0.60985135249E+02  0.10000000000E+01 0.  0.
<mgrwt>
<rscale>  0 0.12499499E+03</rscale>
<asrwt>0</asrwt>
<pdfrwt beam="1">  1        4 0.99272031E-02 0.12499499E+03</pdfrwt>
<pdfrwt beam="2">  1       -4 0.93126136E-02 0.12499499E+03</pdfrwt>
<totfact> 0.10452769E+04</totfact>
</mgrwt>
</event>
<event>
 5    1  0.3434846E-002  0.1249973E+03  0.7818608E-02  0.1235074E+00
          4   -1    0    0  501    0  0.00000000000E+00  0.00000000000E+00  0.49410263390E+01  0.51016312374E+01  0.12700000000E+01 0.  1.
         -4   -1    0    0    0  501 -0.00000000000E+00 -0.00000000000E+00 -0.77773622292E+03  0.77773725984E+03  0.12700000000E+01 0.  1.
         25    2    1    2    0    0  0.00000000000E+00  0.00000000000E+00 -0.77279519658E+03  0.78283889108E+03  0.12499725406E+03 0.  0.
    9000005    1    3    3    0    0 -0.11316569698E+02 -0.52366493806E+02 -0.58785933204E+03  0.59029645831E+03  0.10000000000E+01 0.  0.
    9000005    1    3    3    0    0  0.11316569698E+02  0.52366493806E+02 -0.18493586454E+03  0.19254243277E+03  0.10000000000E+01 0.  0.
<mgrwt>
<rscale>  0 0.12499725E+03</rscale>
<asrwt>0</asrwt>
<pdfrwt beam="1">  1        4 0.77259250E-03 0.12499725E+03</pdfrwt>
<pdfrwt beam="2">  1       -4 0.11966407E+00 0.12499725E+03</pdfrwt>
<totfact> 0.39044789E+03</totfact>
</mgrwt>
</event>
<event>
 5    1  0.3434846E-002  0.1249981E+03  0.7818608E-02  0.1235072E+00
          4   -1    0    0  501    0  0.00000000000E+00  0.00000000000E+00  0.60577275233E+03  0.60577408360E+03  0.12700000000E+01 0. -1.
         -4   -1    0    0    0  501 -0.00000000000E+00 -0.00000000000E+00 -0.63842961289E+01  0.65093883785E+01  0.12700000000E+01 0. -1.
         25    2    1    2    0    0  0.00000000000E+00  0.00000000000E+00  0.59938845620E+03  0.61228347198E+03  0.12499811453E+03 0.  0.
    9000005    1    3    3    0    0  0.39604396262E+02  0.33224311049E+02  0.47167898069E+03  0.47450439816E+03  0.10000000000E+01 0.  0.
    9000005    1    3    3    0    0 -0.39604396262E+02 -0.33224311049E+02  0.12770947551E+03  0.13777907382E+03  0.10000000000E+01 0.  0.
<mgrwt>
<rscale>  0 0.12499811E+03</rscale>
<asrwt>0</asrwt>
<pdfrwt beam="1">  1        4 0.93205537E-01 0.12499811E+03</pdfrwt>
<pdfrwt beam="2">  1       -4 0.99192425E-03 0.12499811E+03</pdfrwt>
<totfact> 0.48103296E+03</totfact>
</mgrwt>
</event>
<event>
 5    1  0.3434846E-002  0.1249984E+03  0.7818608E-02  0.1235072E+00
          4   -1    0    0  501    0  0.00000000000E+00  0.00000000000E+00  0.10236870947E+04  0.10236878825E+04  0.12700000000E+01 0.  1.
         -4   -1    0    0    0  501 -0.00000000000E+00 -0.00000000000E+00 -0.37092789514E+01  0.39206696290E+01  0.12700000000E+01 0.  1.
         25    2    1    2    0    0  0.00000000000E+00  0.00000000000E+00  0.10199778158E+04  0.10276085521E+04  0.12499836706E+03 0.  0.
    9000005    1    3    3    0    0  0.74096280910E+01  0.12504072832E+02  0.10096385220E+04  0.10097436306E+04  0.10000000000E+01 0.  0.
    9000005    1    3    3    0    0 -0.74096280910E+01 -0.12504072832E+02  0.10339293756E+02  0.17864921528E+02  0.10000000000E+01 0.  0.
<mgrwt>
<rscale>  0 0.12499837E+03</rscale>
<asrwt>0</asrwt>
<pdfrwt beam="1">  1        4 0.15750691E+00 0.12499837E+03</pdfrwt>
<pdfrwt beam="2">  1       -4 0.58697874E-03 0.12499837E+03</pdfrwt>
<totfact> 0.29705343E+03</totfact>
</mgrwt>
</event>
<event>
 5    1  0.3434846E-002  0.1249968E+03  0.7818608E-02  0.1235074E+00
          4   -1    0    0  501    0  0.00000000000E+00  0.00000000000E+00  0.16046650935E+02  0.16096829074E+02  0.12700000000E+01 0.  1.
         -4   -1    0    0    0  501 -0.00000000000E+00 -0.00000000000E+00 -0.24298645472E+03  0.24298977361E+03  0.12700000000E+01 0.  1.
         25    2    1    2    0    0  0.00000000000E+00  0.00000000000E+00 -0.22693980379E+03  0.25908660268E+03  0.12499677255E+03 0.  0.
    9000005    1    3    3    0    0 -0.20956621168E+02  0.48223430970E+02 -0.18346519915E+03  0.19085376225E+03  0.10000000000E+01 0.  0.
    9000005    1    3    3    0    0  0.20956621168E+02 -0.48223430970E+02 -0.43474604635E+02  0.68232840432E+02  0.10000000000E+01 0.  0.
<mgrwt>
<rscale>  0 0.12499677E+03</rscale>
<asrwt>0</asrwt>
<pdfrwt beam="1">  1        4 0.24728309E-02 0.12499677E+03</pdfrwt>
<pdfrwt beam="2">  1       -4 0.37386644E-01 0.12499677E+03</pdfrwt>
<totfact> 0.81040238E+03</totfact>
</mgrwt>
</event>
<event>
 5    1  0.3434846E-002  0.1250020E+03  0.7818608E-02  0.1235066E+00
         -4   -1    0    0    0  501 -0.00000000000E+00  0.00000000000E+00  0.56880943409E+02  0.56895119502E+02  0.12700000000E+01 0. -1.
          4   -1    0    0  501    0  0.00000000000E+00 -0.00000000000E+00 -0.68647785110E+02  0.68659531753E+02  0.12700000000E+01 0. -1.
         25    2    1    2    0    0  0.00000000000E+00  0.00000000000E+00 -0.11766841701E+02  0.12555465125E+03  0.12500204754E+03 0.  0.
    9000005    1    3    3    0    0 -0.20315065280E+02 -0.35590952992E+02 -0.53272074781E+02  0.67218537352E+02  0.10000000000E+01 0.  0.
    9000005    1    3    3    0    0  0.20315065280E+02  0.35590952992E+02  0.41505233081E+02  0.58336113903E+02  0.10000000000E+01 0.  0.
<mgrwt>
<rscale>  0 0.12500205E+03</rscale>
<asrwt>0</asrwt>
<pdfrwt beam="2">  1        4 0.10563192E-01 0.12500205E+03</pdfrwt>
<pdfrwt beam="1">  1       -4 0.87529084E-02 0.12500205E+03</pdfrwt>
<totfact> 0.10440265E+04</totfact>
</mgrwt>
</event>
<event>
 5    1  0.3434846E-002  0.1250001E+03  0.7818608E-02  0.1235069E+00
         -4   -1    0    0    0  501 -0.00000000000E+00  0.00000000000E+00  0.16844122771E+02  0.16891932155E+02  0.12700000000E+01 0. -1.
          4   -1    0    0  501    0  0.00000000000E+00 -0.00000000000E+00 -0.23152807136E+03  0.23153155450E+03  0.12700000000E+01 0. -1.
         25    2    1    2    0    0  0.00000000000E+00  0.00000000000E+00 -0.21468394859E+03  0.24842348665E+03  0.12500012375E+03 0.  0.
    9000005    1    3    3    0    0  0.35457877628E+02  0.87160869593E+01 -0.65513982354E+01  0.37109999685E+02  0.10000000000E+01 0.  0.
    9000005    1    3    3    0    0 -0.35457877628E+02 -0.87160869593E+01 -0.20813255035E+03  0.21131348697E+03  0.10000000000E+01 0.  0.
<mgrwt>
<rscale>  0 0.12500012E+03</rscale>
<asrwt>0</asrwt>
<pdfrwt beam="2">  1        4 0.35623647E-01 0.12500012E+03</pdfrwt>
<pdfrwt beam="1">  1       -4 0.25953492E-02 0.12500012E+03</pdfrwt>
<totfact> 0.82558392E+03</totfact>
</mgrwt>
</event>
<event>
 5    1  0.3434846E-002  0.1249988E+03  0.7818608E-02  0.1235071E+00
         -4   -1    0    0    0  501 -0.00000000000E+00  0.00000000000E+00  0.76161658498E+02  0.76172246423E+02  0.12700000000E+01 0.  1.
          4   -1    0    0  501    0  0.00000000000E+00 -0.00000000000E+00 -0.51265915731E+02  0.51281644043E+02  0.12700000000E+01 0.  1.
         25    2    1    2    0    0  0.00000000000E+00  0.00000000000E+00  0.24895742766E+02  0.12745389047E+03  0.12499878474E+03 0.  0.
    9000005    1    3    3    0    0  0.17940704419E+02  0.33511333664E+02 -0.38127718706E+02  0.53847946040E+02  0.10000000000E+01 0.  0.
    9000005    1    3    3    0    0 -0.17940704419E+02 -0.33511333664E+02  0.63023461472E+02  0.73605944426E+02  0.10000000000E+01 0.  0.
<mgrwt>
<rscale>  0 0.12499878E+03</rscale>
<asrwt>0</asrwt>
<pdfrwt beam="2">  1        4 0.78890883E-02 0.12499878E+03</pdfrwt>
<pdfrwt beam="1">  1       -4 0.11719203E-01 0.12499878E+03</pdfrwt>
<totfact> 0.10399584E+04</totfact>
</mgrwt>
</event>
<event>
 5    1  0.3434846E-002  0.1249821E+03  0.7818608E-02  0.1235097E+00
         -4   -1    0    0    0  501 -0.00000000000E+00  0.00000000000E+00  0.82072875662E+02  0.82082701098E+02  0.12700000000E+01 0. -1.
          4   -1    0    0  501    0  0.00000000000E+00 -0.00000000000E+00 -0.47560146699E+02  0.47577100102E+02  0.12700000000E+01 0. -1.
         25    2    1    2    0    0  0.00000000000E+00  0.00000000000E+00  0.34512728963E+02  0.12965980120E+03  0.12498214107E+03 0.  0.
    9000005    1    3    3    0    0 -0.19011223343E+02  0.58196265299E+02  0.30209747847E+02  0.68277820503E+02  0.10000000000E+01 0.  0.
    9000005    1    3    3    0    0  0.19011223343E+02 -0.58196265299E+02  0.43029811155E+01  0.61381980696E+02  0.10000000000E+01 0.  0.
<mgrwt>
<rscale>  0 0.12498214E+03</rscale>
<asrwt>0</asrwt>
<pdfrwt beam="2">  1        4 0.73190056E-02 0.12498214E+03</pdfrwt>
<pdfrwt beam="1">  1       -4 0.12628656E-01 0.12498214E+03</pdfrwt>
<totfact> 0.10355965E+04</totfact>
</mgrwt>
</event>
<event>
 5    1  0.3434846E-002  0.1249987E+03  0.7818608E-02  0.1235071E+00
         -4   -1    0    0    0  501 -0.00000000000E+00  0.00000000000E+00  0.23402002394E+02  0.23436437785E+02  0.12700000000E+01 0.  1.
          4   -1    0    0  501    0  0.00000000000E+00 -0.00000000000E+00 -0.16675648451E+03  0.16676132053E+03  0.12700000000E+01 0.  1.
         25    2    1    2    0    0  0.00000000000E+00  0.00000000000E+00 -0.14335448212E+03  0.19019775832E+03  0.12499871890E+03 0.  0.
    9000005    1    3    3    0    0 -0.42070911032E+02  0.26160850159E+01 -0.14795491511E+01  0.42189981294E+02  0.10000000000E+01 0.  0.
    9000005    1    3    3    0    0  0.42070911032E+02 -0.26160850159E+01 -0.14187493296E+03  0.14800777702E+03  0.10000000000E+01 0.  0.
<mgrwt>
<rscale>  0 0.12499872E+03</rscale>
<asrwt>0</asrwt>
<pdfrwt beam="2">  1        4 0.25657864E-01 0.12499872E+03</pdfrwt>
<pdfrwt beam="1">  1       -4 0.36033290E-02 0.12499872E+03</pdfrwt>
<totfact> 0.91815552E+03</totfact>
</mgrwt>
</event>
<event>
 5    1  0.3434846E-002  0.1250014E+03  0.7818608E-02  0.1235067E+00
          4   -1    0    0  501    0  0.00000000000E+00  0.00000000000E+00  0.30604904712E+02  0.30631243730E+02  0.12700000000E+01 0. -1.
         -4   -1    0    0    0  501 -0.00000000000E+00 -0.00000000000E+00 -0.12755317674E+03  0.12755949905E+03  0.12700000000E+01 0. -1.
         25    2    1    2    0    0  0.00000000000E+00  0.00000000000E+00 -0.96948272031E+02  0.15819074278E+03  0.12500137459E+03 0.  0.
    9000005    1    3    3    0    0  0.49885021069E+02  0.57996390399E+01 -0.95540036915E+02  0.10794002869E+03  0.10000000000E+01 0.  0.
    9000005    1    3    3    0    0 -0.49885021069E+02 -0.57996390399E+01 -0.14082351159E+01  0.50250714086E+02  0.10000000000E+01 0.  0.
<mgrwt>
<rscale>  0 0.12500137E+03</rscale>
<asrwt>0</asrwt>
<pdfrwt beam="1">  1        4 0.47109594E-02 0.12500137E+03</pdfrwt>
<pdfrwt beam="2">  1       -4 0.19626078E-01 0.12500137E+03</pdfrwt>
<totfact> 0.97689715E+03</totfact>
</mgrwt>
</event>
<event>
 5    1  0.3434846E-002  0.1250062E+03  0.7818608E-02  0.1235060E+00
         -4   -1    0    0    0  501 -0.00000000000E+00  0.00000000000E+00  0.13868416653E+02  0.13926445364E+02  0.12700000000E+01 0. -1.
          4   -1    0    0  501    0  0.00000000000E+00 -0.00000000000E+00 -0.28104546379E+03  0.28104833324E+03  0.12700000000E+01 0. -1.
         25    2    1    2    0    0  0.00000000000E+00  0.00000000000E+00 -0.26717704713E+03  0.29497477860E+03  0.12500618183E+03 0.  0.
    9000005    1    3    3    0    0  0.14176644830E+02  0.57748785270E+02 -0.88215282755E+02  0.10639001631E+03  0.10000000000E+01 0.  0.
    9000005    1    3    3    0    0 -0.14176644830E+02 -0.57748785270E+02 -0.17896176438E+03  0.18858476229E+03  0.10000000000E+01 0.  0.
<mgrwt>
<rscale>  0 0.12500618E+03</rscale>
<asrwt>0</asrwt>
<pdfrwt beam="2">  1        4 0.43242444E-01 0.12500618E+03</pdfrwt>
<pdfrwt beam="1">  1       -4 0.21382872E-02 0.12500618E+03</pdfrwt>
<totfact> 0.76223086E+03</totfact>
</mgrwt>
</event>
<event>
 5    1  0.3434846E-002  0.1249984E+03  0.7818608E-02  0.1235072E+00
          4   -1    0    0  501    0  0.00000000000E+00  0.00000000000E+00  0.35717205217E+03  0.35717431003E+03  0.12700000000E+01 0. -1.
         -4   -1    0    0    0  501 -0.00000000000E+00 -0.00000000000E+00 -0.10897151111E+02  0.10970907088E+02  0.12700000000E+01 0. -1.
         25    2    1    2    0    0  0.00000000000E+00  0.00000000000E+00  0.34627490105E+03  0.36814521712E+03  0.12499837515E+03 0.  0.
    9000005    1    3    3    0    0 -0.53932916682E+02 -0.56450027927E+01  0.81669054365E+02  0.98038053833E+02  0.10000000000E+01 0.  0.
    9000005    1    3    3    0    0  0.53932916682E+02  0.56450027927E+01  0.26460584669E+03  0.27010716329E+03  0.10000000000E+01 0.  0.
<mgrwt>
<rscale>  0 0.12499838E+03</rscale>
<asrwt>0</asrwt>
<pdfrwt beam="1">  1        4 0.54955400E-01 0.12499838E+03</pdfrwt>
<pdfrwt beam="2">  1       -4 0.16823318E-02 0.12499838E+03</pdfrwt>
<totfact> 0.67775858E+03</totfact>
</mgrwt>
</event>
<event>
 4    1  0.3434846E-002  0.1245574E+03  0.7818608E-02  0.1235763E+00
         -4   -1    0    0    0  501 -0.00000000000E+00  0.00000000000E+00  0.12871091815E+04  0.12871098080E+04  0.12700000000E+01 0. -1.
          4   -1    0    0  501    0  0.00000000000E+00 -0.00000000000E+00 -0.28789825965E+01  0.31466554929E+01  0.12700000000E+01 0. -1.
    9000005    1    1    2    0    0 -0.25813351440E+02 -0.85273208251E+01  0.12224436347E+04  0.12227462878E+04  0.10000000000E+01 0.  0.
    9000005    1    1    2    0    0  0.25813351440E+02  0.85273208251E+01  0.61786564131E+02  0.67510175678E+02  0.10000000000E+01 0.  0.
<mgrwt>
<rscale>  0 0.12455737E+03</rscale>
<asrwt>0</asrwt>
<pdfrwt beam="2">  1        4 0.46356046E-03 0.12455737E+03</pdfrwt>
<pdfrwt beam="1">  1       -4 0.19803674E+00 0.12455737E+03</pdfrwt>
<totfact> 0.22678116E+03</totfact>
</mgrwt>
</event>
<event>
 5    1  0.3434846E-002  0.1250043E+03  0.7818608E-02  0.1235062E+00
         -4   -1    0    0    0  501 -0.00000000000E+00  0.00000000000E+00  0.16972579399E+03  0.16973054541E+03  0.12700000000E+01 0. -1.
          4   -1    0    0  501    0  0.00000000000E+00 -0.00000000000E+00 -0.22994065329E+02  0.23029110716E+02  0.12700000000E+01 0. -1.
         25    2    1    2    0    0  0.00000000000E+00  0.00000000000E+00  0.14673172866E+03  0.19275965613E+03  0.12500433926E+03 0.  0.
    9000005    1    3    3    0    0  0.74673856898E+01  0.33403768788E+02 -0.72621838092E+01  0.35004470171E+02  0.10000000000E+01 0.  0.
    9000005    1    3    3    0    0 -0.74673856898E+01 -0.33403768788E+02  0.15399391247E+03  0.15775518596E+03  0.10000000000E+01 0.  0.
<mgrwt>
<rscale>  0 0.12500434E+03</rscale>
<asrwt>0</asrwt>
<pdfrwt beam="2">  1        4 0.35406099E-02 0.12500434E+03</pdfrwt>
<pdfrwt beam="1">  1       -4 0.26114722E-01 0.12500434E+03</pdfrwt>
<totfact> 0.91360471E+03</totfact>
</mgrwt>
</event>
<event>
 5    1  0.3434846E-002  0.1249995E+03  0.7818608E-02  0.1235070E+00
          4   -1    0    0  501    0  0.00000000000E+00  0.00000000000E+00  0.98203693978E+02  0.98211905648E+02  0.12700000000E+01 0.  1.
         -4   -1    0    0    0  501 -0.00000000000E+00 -0.00000000000E+00 -0.39756686518E+02  0.39776965984E+02  0.12700000000E+01 0.  1.
         25    2    1    2    0    0  0.00000000000E+00  0.00000000000E+00  0.58447007460E+02  0.13798887163E+03  0.12499950405E+03 0.  0.
    9000005    1    3    3    0    0 -0.57895095595E+02  0.10235557315E+02  0.52604896749E+02  0.78897933366E+02  0.10000000000E+01 0.  0.
    9000005    1    3    3    0    0  0.57895095595E+02 -0.10235557315E+02  0.58421107116E+01  0.59090938265E+02  0.10000000000E+01 0.  0.
<mgrwt>
<rscale>  0 0.12499950E+03</rscale>
<asrwt>0</asrwt>
<pdfrwt beam="1">  1        4 0.15110452E-01 0.12499950E+03</pdfrwt>
<pdfrwt beam="2">  1       -4 0.61186050E-02 0.12499950E+03</pdfrwt>
<totfact> 0.10175552E+04</totfact>
</mgrwt>
</event>
<event>
 5    1  0.3434846E-002  0.1249965E+03  0.7818608E-02  0.1235075E+00
         -4   -1    0    0    0  501 -0.00000000000E+00  0.00000000000E+00  0.41259345388E+02  0.41278886635E+02  0.12700000000E+01 0. -1.
          4   -1    0    0  501    0  0.00000000000E+00 -0.00000000000E+00 -0.94623971239E+02  0.94632493537E+02  0.12700000000E+01 0. -1.
         25    2    1    2    0    0  0.00000000000E+00  0.00000000000E+00 -0.53364625851E+02  0.13591138017E+03  0.12499647982E+03 0.  0.
    9000005    1    3    3    0    0  0.22715440430E+02 -0.34656725640E+02  0.24177733151E+02  0.47985858816E+02  0.10000000000E+01 0.  0.
    9000005    1    3    3    0    0 -0.22715440430E+02  0.34656725640E+02 -0.77542359003E+02  0.87925521356E+02  0.10000000000E+01 0.  0.
<mgrwt>
<rscale>  0 0.12499648E+03</rscale>
<asrwt>0</asrwt>
<pdfrwt beam="2">  1        4 0.14559693E-01 0.12499648E+03</pdfrwt>
<pdfrwt beam="1">  1       -4 0.63497504E-02 0.12499648E+03</pdfrwt>
<totfact> 0.10219708E+04</totfact>
</mgrwt>
</event>
<event>
 5    1  0.3434846E-002  0.1250017E+03  0.7818608E-02  0.1235067E+00
         -4   -1    0    0    0  501 -0.00000000000E+00  0.00000000000E+00  0.78057414598E+01  0.79083816131E+01  0.12700000000E+01 0. -1.
          4   -1    0    0  501    0  0.00000000000E+00 -0.00000000000E+00 -0.49707436429E+03  0.49707598668E+03  0.12700000000E+01 0. -1.
         25    2    1    2    0    0  0.00000000000E+00  0.00000000000E+00 -0.48926862283E+03  0.50498436830E+03  0.12500170773E+03 0.  0.
    9000005    1    3    3    0    0  0.57378316141E+02  0.22940802194E+02 -0.28227302507E+03  0.28895953393E+03  0.10000000000E+01 0.  0.
    9000005    1    3    3    0    0 -0.57378316141E+02 -0.22940802194E+02 -0.20699559777E+03  0.21602483437E+03  0.10000000000E+01 0.  0.
<mgrwt>
<rscale>  0 0.12500171E+03</rscale>
<asrwt>0</asrwt>
<pdfrwt beam="2">  1        4 0.76480975E-01 0.12500171E+03</pdfrwt>
<pdfrwt beam="1">  1       -4 0.12089039E-02 0.12500171E+03</pdfrwt>
<totfact> 0.55477632E+03</totfact>
</mgrwt>
</event>
<event>
 5    1  0.3434846E-002  0.1250005E+03  0.7818608E-02  0.1235068E+00
          4   -1    0    0  501    0  0.00000000000E+00  0.00000000000E+00  0.32439275806E+03  0.32439524408E+03  0.12700000000E+01 0. -1.
         -4   -1    0    0    0  501 -0.00000000000E+00 -0.00000000000E+00 -0.12005802107E+02  0.12072786929E+02  0.12700000000E+01 0. -1.
         25    2    1    2    0    0  0.00000000000E+00  0.00000000000E+00  0.31238695596E+03  0.33646803101E+03  0.12500050257E+03 0.  0.
    9000005    1    3    3    0    0 -0.22632752499E+02 -0.36023461253E+02  0.32979393957E+02  0.53838384746E+02  0.10000000000E+01 0.  0.
    9000005    1    3    3    0    0  0.22632752499E+02  0.36023461253E+02  0.27940756200E+03  0.28262964627E+03  0.10000000000E+01 0.  0.
<mgrwt>
<rscale>  0 0.12500050E+03</rscale>
<asrwt>0</asrwt>
<pdfrwt beam="1">  1        4 0.49911927E-01 0.12500050E+03</pdfrwt>
<pdfrwt beam="2">  1       -4 0.18523902E-02 0.12500050E+03</pdfrwt>
<totfact> 0.71238552E+03</totfact>
</mgrwt>
</event>
<event>
 5    1  0.3434846E-002  0.1249987E+03  0.7818608E-02  0.1235071E+00
         -4   -1    0    0    0  501 -0.00000000000E+00  0.00000000000E+00  0.31467712342E+02  0.31493329771E+02  0.12700000000E+01 0. -1.
          4   -1    0    0  501    0  0.00000000000E+00 -0.00000000000E+00 -0.12405316951E+03  0.12405967018E+03  0.12700000000E+01 0. -1.
         25    2    1    2    0    0  0.00000000000E+00  0.00000000000E+00 -0.92585457166E+02  0.15555299995E+03  0.12499867565E+03 0.  0.
    9000005    1    3    3    0    0  0.14717076799E+01 -0.61354339068E+02 -0.60945752253E+02  0.86498009016E+02  0.10000000000E+01 0.  0.
    9000005    1    3    3    0    0 -0.14717076799E+01  0.61354339068E+02 -0.31639704912E+02  0.69054990934E+02  0.10000000000E+01 0.  0.
<mgrwt>
<rscale>  0 0.12499868E+03</rscale>
<asrwt>0</asrwt>
<pdfrwt beam="2">  1        4 0.19087573E-01 0.12499868E+03</pdfrwt>
<pdfrwt beam="1">  1       -4 0.48436572E-02 0.12499868E+03</pdfrwt>
<totfact> 0.98209972E+03</totfact>
</mgrwt>
</event>
<event>
 5    1  0.3434846E-002  0.1250086E+03  0.7818608E-02  0.1235056E+00
         -4   -1    0    0    0  501 -0.00000000000E+00  0.00000000000E+00  0.10327240432E+03  0.10328021298E+03  0.12700000000E+01 0. -1.
          4   -1    0    0  501    0  0.00000000000E+00 -0.00000000000E+00 -0.37810007251E+02  0.37831330247E+02  0.12700000000E+01 0. -1.
         25    2    1    2    0    0  0.00000000000E+00  0.00000000000E+00  0.65462397067E+02  0.14111154323E+03  0.12500856852E+03 0.  0.
    9000005    1    3    3    0    0 -0.56546563335E+02 -0.73773751215E+00  0.27011671917E+01  0.56624680007E+02  0.10000000000E+01 0.  0.
    9000005    1    3    3    0    0  0.56546563335E+02  0.73773751215E+00  0.62761229875E+02  0.84486863222E+02  0.10000000000E+01 0.  0.
<mgrwt>
<rscale>  0 0.12500857E+03</rscale>
<asrwt>0</asrwt>
<pdfrwt beam="2">  1        4 0.58191652E-02 0.12500857E+03</pdfrwt>
<pdfrwt beam="1">  1       -4 0.15890303E-01 0.12500857E+03</pdfrwt>
<totfact> 0.10108649E+04</totfact>
</mgrwt>
</event>
<event>
 5    1  0.3434846E-002  0.1250381E+03  0.7818608E-02  0.1235010E+00
         -4   -1    0    0    0  501 -0.00000000000E+00  0.00000000000E+00  0.27257667254E+03  0.27257963115E+03  0.12700000000E+01 0.  1.
          4   -1    0    0  501    0  0.00000000000E+00 -0.00000000000E+00 -0.14308400263E+02  0.14364651687E+02  0.12700000000E+01 0.  1.
         25    2    1    2    0    0  0.00000000000E+00  0.00000000000E+00  0.25826827228E+03  0.28694428283E+03  0.12503807813E+03 0.  0.
    9000005    1    3    3    0    0 -0.49617058398E+02 -0.15771430517E+02  0.49736134693E+02  0.72008843893E+02  0.10000000000E+01 0.  0.
    9000005    1    3    3    0    0  0.49617058398E+02  0.15771430517E+02  0.20853213759E+03  0.21493543894E+03  0.10000000000E+01 0.  0.
<mgrwt>
<rscale>  0 0.12503808E+03</rscale>
<asrwt>0</asrwt>
<pdfrwt beam="2">  1        4 0.22058469E-02 0.12503808E+03</pdfrwt>
<pdfrwt beam="1">  1       -4 0.41939429E-01 0.12503808E+03</pdfrwt>
<totfact> 0.77200927E+03</totfact>
</mgrwt>
</event>
<event>
 5    1  0.3434846E-002  0.1249970E+03  0.7818608E-02  0.1235074E+00
          4   -1    0    0  501    0  0.00000000000E+00  0.00000000000E+00  0.17240715720E+04  0.17240720397E+04  0.12700000000E+01 0.  1.
         -4   -1    0    0    0  501 -0.00000000000E+00 -0.00000000000E+00 -0.20871211906E+01  0.24431485555E+01  0.12700000000E+01 0.  1.
         25    2    1    2    0    0  0.00000000000E+00  0.00000000000E+00  0.17219844508E+04  0.17265151883E+04  0.12499698657E+03 0.  0.
    9000005    1    3    3    0    0 -0.17672691970E+02 -0.71512269317E+00  0.16888442198E+04  0.16889371315E+04  0.10000000000E+01 0.  0.
    9000005    1    3    3    0    0  0.17672691970E+02  0.71512269317E+00  0.33140231022E+02  0.37578056817E+02  0.10000000000E+01 0.  0.
<mgrwt>
<rscale>  0 0.12499699E+03</rscale>
<asrwt>0</asrwt>
<pdfrwt beam="1">  1        4 0.26526985E+00 0.12499699E+03</pdfrwt>
<pdfrwt beam="2">  1       -4 0.34851742E-03 0.12499699E+03</pdfrwt>
<totfact> 0.13871116E+03</totfact>
</mgrwt>
</event>
<event>
 5    1  0.3434846E-002  0.1249981E+03  0.7818608E-02  0.1235072E+00
          4   -1    0    0  501    0  0.00000000000E+00  0.00000000000E+00  0.33759815021E+02  0.33783694443E+02  0.12700000000E+01 0.  1.
         -4   -1    0    0    0  501 -0.00000000000E+00 -0.00000000000E+00 -0.11563531662E+03  0.11564229049E+03  0.12700000000E+01 0.  1.
         25    2    1    2    0    0  0.00000000000E+00  0.00000000000E+00 -0.81875501596E+02  0.14942598493E+03  0.12499810883E+03 0.  0.
    9000005    1    3    3    0    0 -0.18694094861E+02  0.47804578396E+02 -0.83545672110E+02  0.98059299542E+02  0.10000000000E+01 0.  0.
    9000005    1    3    3    0    0  0.18694094861E+02 -0.47804578396E+02  0.16701705146E+01  0.51366685388E+02  0.10000000000E+01 0.  0.
<mgrwt>
<rscale>  0 0.12499811E+03</rscale>
<asrwt>0</asrwt>
<pdfrwt beam="1">  1        4 0.51961911E-02 0.12499811E+03</pdfrwt>
<pdfrwt beam="2">  1       -4 0.17792422E-01 0.12499811E+03</pdfrwt>
<totfact> 0.99422474E+03</totfact>
</mgrwt>
</event>
<event>
 5    1  0.3434846E-002  0.1250004E+03  0.7818608E-02  0.1235069E+00
          4   -1    0    0  501    0  0.00000000000E+00  0.00000000000E+00  0.99476790604E+01  0.10028420548E+02  0.12700000000E+01 0.  1.
         -4   -1    0    0    0  501 -0.00000000000E+00 -0.00000000000E+00 -0.39101298958E+03  0.39101505203E+03  0.12700000000E+01 0.  1.
         25    2    1    2    0    0  0.00000000000E+00  0.00000000000E+00 -0.38106531052E+03  0.40104347258E+03  0.12500038409E+03 0.  0.
    9000005    1    3    3    0    0 -0.58918441128E+02 -0.13524916439E+02 -0.24135904052E+03  0.24881618217E+03  0.10000000000E+01 0.  0.
    9000005    1    3    3    0    0  0.58918441128E+02  0.13524916439E+02 -0.13970626999E+03  0.15222729041E+03  0.10000000000E+01 0.  0.
<mgrwt>
<rscale>  0 0.12500038E+03</rscale>
<asrwt>0</asrwt>
<pdfrwt beam="1">  1        4 0.15367820E-02 0.12500038E+03</pdfrwt>
<pdfrwt beam="2">  1       -4 0.60162202E-01 0.12500038E+03</pdfrwt>
<totfact> 0.64450888E+03</totfact>
</mgrwt>
</event>
<event>
 5    1  0.3434846E-002  0.1250121E+03  0.7818608E-02  0.1235050E+00
         -4   -1    0    0    0  501 -0.00000000000E+00  0.00000000000E+00  0.34928176862E+03  0.34928407749E+03  0.12700000000E+01 0. -1.
          4   -1    0    0  501    0  0.00000000000E+00 -0.00000000000E+00 -0.11147430959E+02  0.11219541745E+02  0.12700000000E+01 0. -1.
         25    2    1    2    0    0  0.00000000000E+00  0.00000000000E+00  0.33813433766E+03  0.36050361924E+03  0.12501211613E+03 0.  0.
    9000005    1    3    3    0    0  0.11967439940E+02  0.61328468973E+02  0.16541200163E+03  0.17682344587E+03  0.10000000000E+01 0.  0.
    9000005    1    3    3    0    0 -0.11967439940E+02 -0.61328468973E+02  0.17272233603E+03  0.18368017337E+03  0.10000000000E+01 0.  0.
<mgrwt>
<rscale>  0 0.12501212E+03</rscale>
<asrwt>0</asrwt>
<pdfrwt beam="2">  1        4 0.17207142E-02 0.12501212E+03</pdfrwt>
<pdfrwt beam="1">  1       -4 0.53741376E-01 0.12501212E+03</pdfrwt>
<totfact> 0.68565904E+03</totfact>
</mgrwt>
</event>
<event>
 5    1  0.3434846E-002  0.1249900E+03  0.7818608E-02  0.1235085E+00
         -4   -1    0    0    0  501 -0.00000000000E+00  0.00000000000E+00  0.12441383865E+02  0.12506035842E+02  0.12700000000E+01 0.  1.
          4   -1    0    0  501    0  0.00000000000E+00 -0.00000000000E+00 -0.31304253644E+03  0.31304511259E+03  0.12700000000E+01 0.  1.
         25    2    1    2    0    0  0.00000000000E+00  0.00000000000E+00 -0.30060115257E+03  0.32555114844E+03  0.12498998888E+03 0.  0.
    9000005    1    3    3    0    0 -0.42835830119E+02 -0.23902477816E+00 -0.26879376461E+03  0.27218753346E+03  0.10000000000E+01 0.  0.
    9000005    1    3    3    0    0  0.42835830119E+02  0.23902477816E+00 -0.31807387958E+02  0.53363614978E+02  0.10000000000E+01 0.  0.
<mgrwt>
<rscale>  0 0.12498999E+03</rscale>
<asrwt>0</asrwt>
<pdfrwt beam="2">  1        4 0.48165555E-01 0.12498999E+03</pdfrwt>
<pdfrwt beam="1">  1       -4 0.19192307E-02 0.12498999E+03</pdfrwt>
<totfact> 0.72516807E+03</totfact>
</mgrwt>
</event>
<event>
 5    1  0.3434846E-002  0.1250015E+03  0.7818608E-02  0.1235067E+00
         -4   -1    0    0    0  501 -0.00000000000E+00  0.00000000000E+00  0.24623602394E+02  0.24656331739E+02  0.12700000000E+01 0.  1.
          4   -1    0    0  501    0  0.00000000000E+00 -0.00000000000E+00 -0.15850159558E+03  0.15850668346E+03  0.12700000000E+01 0.  1.
         25    2    1    2    0    0  0.00000000000E+00  0.00000000000E+00 -0.13387799318E+03  0.18316301519E+03  0.12500149230E+03 0.  0.
    9000005    1    3    3    0    0 -0.17911673614E+02  0.34261997039E+02  0.50039025379E+01  0.38996814400E+02  0.10000000000E+01 0.  0.
    9000005    1    3    3    0    0  0.17911673614E+02 -0.34261997039E+02 -0.13888189572E+03  0.14416620079E+03  0.10000000000E+01 0.  0.
<mgrwt>
<rscale>  0 0.12500149E+03</rscale>
<asrwt>0</asrwt>
<pdfrwt beam="2">  1        4 0.24387769E-01 0.12500149E+03</pdfrwt>
<pdfrwt beam="1">  1       -4 0.37911556E-02 0.12500149E+03</pdfrwt>
<totfact> 0.93047617E+03</totfact>
</mgrwt>
</event>
<event>
 5    1  0.3434846E-002  0.1250003E+03  0.7818608E-02  0.1235069E+00
         -4   -1    0    0    0  501 -0.00000000000E+00  0.00000000000E+00  0.51187614355E+02  0.51203366718E+02  0.12700000000E+01 0.  1.
          4   -1    0    0  501    0  0.00000000000E+00 -0.00000000000E+00 -0.76279990388E+02  0.76290561891E+02  0.12700000000E+01 0.  1.
         25    2    1    2    0    0  0.00000000000E+00  0.00000000000E+00 -0.25092376034E+02  0.12749392861E+03  0.12500029799E+03 0.  0.
    9000005    1    3    3    0    0  0.34481124741E+02  0.31713971339E+02  0.29637608853E+02  0.55444673324E+02  0.10000000000E+01 0.  0.
    9000005    1    3    3    0    0 -0.34481124741E+02 -0.31713971339E+02 -0.54729984886E+02  0.72049255285E+02  0.10000000000E+01 0.  0.
<mgrwt>
<rscale>  0 0.12500030E+03</rscale>
<asrwt>0</asrwt>
<pdfrwt beam="2">  1        4 0.11737408E-01 0.12500030E+03</pdfrwt>
<pdfrwt beam="1">  1       -4 0.78770425E-02 0.12500030E+03</pdfrwt>
<totfact> 0.10398362E+04</totfact>
</mgrwt>
</event>
<event>
 5    1  0.3434846E-002  0.1250040E+03  0.7818608E-02  0.1235063E+00
          4   -1    0    0  501    0  0.00000000000E+00  0.00000000000E+00  0.37299202591E+03  0.37299418801E+03  0.12700000000E+01 0.  1.
         -4   -1    0    0    0  501 -0.00000000000E+00 -0.00000000000E+00 -0.10432716512E+02  0.10509732338E+02  0.12700000000E+01 0.  1.
         25    2    1    2    0    0  0.00000000000E+00  0.00000000000E+00  0.36255930939E+03  0.38350392035E+03  0.12500401631E+03 0.  0.
    9000005    1    3    3    0    0 -0.24167602202E+02  0.51771273631E+02  0.10359590986E+03  0.11831082076E+03  0.10000000000E+01 0.  0.
    9000005    1    3    3    0    0  0.24167602202E+02 -0.51771273631E+02  0.25896339954E+03  0.26519309959E+03  0.10000000000E+01 0.  0.
<mgrwt>
<rscale>  0 0.12500402E+03</rscale>
<asrwt>0</asrwt>
<pdfrwt beam="1">  1        4 0.57389466E-01 0.12500402E+03</pdfrwt>
<pdfrwt beam="2">  1       -4 0.16111243E-02 0.12500402E+03</pdfrwt>
<totfact> 0.66183568E+03</totfact>
</mgrwt>
</event>
<event>
 5    1  0.3434846E-002  0.1249984E+03  0.7818608E-02  0.1235072E+00
          4   -1    0    0  501    0  0.00000000000E+00  0.00000000000E+00  0.13295170411E+02  0.13355690033E+02  0.12700000000E+01 0. -1.
         -4   -1    0    0    0  501 -0.00000000000E+00 -0.00000000000E+00 -0.29307300090E+03  0.29307575259E+03  0.12700000000E+01 0. -1.
         25    2    1    2    0    0  0.00000000000E+00  0.00000000000E+00 -0.27977783049E+03  0.30643144262E+03  0.12499837837E+03 0.  0.
    9000005    1    3    3    0    0 -0.12518761232E+02 -0.48120242147E+02 -0.23268562513E+03  0.23794091122E+03  0.10000000000E+01 0.  0.
    9000005    1    3    3    0    0  0.12518761232E+02  0.48120242147E+02 -0.47092205357E+02  0.68490531407E+02  0.10000000000E+01 0.  0.
<mgrwt>
<rscale>  0 0.12499838E+03</rscale>
<asrwt>0</asrwt>
<pdfrwt beam="1">  1        4 0.20502781E-02 0.12499838E+03</pdfrwt>
<pdfrwt beam="2">  1       -4 0.45093016E-01 0.12499838E+03</pdfrwt>
<totfact> 0.74801802E+03</totfact>
</mgrwt>
</event>
<event>
 5    1  0.3434846E-002  0.1249985E+03  0.7818608E-02  0.1235072E+00
          4   -1    0    0  501    0  0.00000000000E+00  0.00000000000E+00  0.24564373029E+03  0.24564701327E+03  0.12700000000E+01 0. -1.
         -4   -1    0    0    0  501 -0.00000000000E+00 -0.00000000000E+00 -0.15872953775E+02  0.15923679271E+02  0.12700000000E+01 0. -1.
         25    2    1    2    0    0  0.00000000000E+00  0.00000000000E+00  0.22977077651E+03  0.26157069254E+03  0.12499846982E+03 0.  0.
    9000005    1    3    3    0    0 -0.30480104826E+02 -0.39477300917E+02  0.36095502203E+02  0.61574177681E+02  0.10000000000E+01 0.  0.
    9000005    1    3    3    0    0  0.30480104826E+02  0.39477300917E+02  0.19367527431E+03  0.19999651486E+03  0.10000000000E+01 0.  0.
<mgrwt>
<rscale>  0 0.12499847E+03</rscale>
<asrwt>0</asrwt>
<pdfrwt beam="1">  1        4 0.37795496E-01 0.12499847E+03</pdfrwt>
<pdfrwt beam="2">  1       -4 0.24461475E-02 0.12499847E+03</pdfrwt>
<totfact> 0.80688889E+03</totfact>
</mgrwt>
</event>
<event>
 5    1  0.3434846E-002  0.1250004E+03  0.7818608E-02  0.1235069E+00
          4   -1    0    0  501    0  0.00000000000E+00  0.00000000000E+00  0.29642902203E+03  0.29643174257E+03  0.12700000000E+01 0. -1.
         -4   -1    0    0    0  501 -0.00000000000E+00 -0.00000000000E+00 -0.13144395821E+02  0.13205606442E+02  0.12700000000E+01 0. -1.
         25    2    1    2    0    0  0.00000000000E+00  0.00000000000E+00  0.28328462621E+03  0.30963734901E+03  0.12500043382E+03 0.  0.
    9000005    1    3    3    0    0  0.56396338526E+02 -0.22076555648E+02  0.10347937969E+03  0.11990372525E+03  0.10000000000E+01 0.  0.
    9000005    1    3    3    0    0 -0.56396338526E+02  0.22076555648E+02  0.17980524652E+03  0.18973362376E+03  0.10000000000E+01 0.  0.
<mgrwt>
<rscale>  0 0.12500043E+03</rscale>
<asrwt>0</asrwt>
<pdfrwt beam="1">  1        4 0.45609379E-01 0.12500043E+03</pdfrwt>
<pdfrwt beam="2">  1       -4 0.20271327E-02 0.12500043E+03</pdfrwt>
<totfact> 0.74404919E+03</totfact>
</mgrwt>
</event>
<event>
 5    1  0.3434846E-002  0.1250010E+03  0.7818608E-02  0.1235068E+00
         -4   -1    0    0    0  501 -0.00000000000E+00  0.00000000000E+00  0.14059431878E+03  0.14060005467E+03  0.12700000000E+01 0. -1.
          4   -1    0    0  501    0  0.00000000000E+00 -0.00000000000E+00 -0.27763470874E+02  0.27792502856E+02  0.12700000000E+01 0. -1.
         25    2    1    2    0    0  0.00000000000E+00  0.00000000000E+00  0.11283084790E+03  0.16839255752E+03  0.12500101276E+03 0.  0.
    9000005    1    3    3    0    0  0.37489014800E+02 -0.23115314781E+02  0.11614006391E+03  0.12421456618E+03  0.10000000000E+01 0.  0.
    9000005    1    3    3    0    0 -0.37489014800E+02  0.23115314781E+02 -0.33092160047E+01  0.44177991338E+02  0.10000000000E+01 0.  0.
<mgrwt>
<rscale>  0 0.12500101E+03</rscale>
<asrwt>0</asrwt>
<pdfrwt beam="2">  1        4 0.42739776E-02 0.12500101E+03</pdfrwt>
<pdfrwt beam="1">  1       -4 0.21632570E-01 0.12500101E+03</pdfrwt>
<totfact> 0.95746548E+03</totfact>
</mgrwt>
</event>
<event>
 5    1  0.3434846E-002  0.1250009E+03  0.7818608E-02  0.1235068E+00
         -4   -1    0    0    0  501 -0.00000000000E+00  0.00000000000E+00  0.37825402331E+02  0.37846716654E+02  0.12700000000E+01 0.  1.
          4   -1    0    0  501    0  0.00000000000E+00 -0.00000000000E+00 -0.10321777206E+03  0.10322558486E+03  0.12700000000E+01 0.  1.
         25    2    1    2    0    0  0.00000000000E+00  0.00000000000E+00 -0.65392369728E+02  0.14107230151E+03  0.12500092894E+03 0.  0.
    9000005    1    3    3    0    0  0.21252606472E+02 -0.16709242314E+02 -0.96282227792E+02  0.10001069667E+03  0.10000000000E+01 0.  0.
    9000005    1    3    3    0    0 -0.21252606472E+02  0.16709242314E+02  0.30889858064E+02  0.41061604837E+02  0.10000000000E+01 0.  0.
<mgrwt>
<rscale>  0 0.12500093E+03</rscale>
<asrwt>0</asrwt>
<pdfrwt beam="2">  1        4 0.15881898E-01 0.12500093E+03</pdfrwt>
<pdfrwt beam="1">  1       -4 0.58215332E-02 0.12500093E+03</pdfrwt>
<totfact> 0.10111198E+04</totfact>
</mgrwt>
</event>
<event>
 5    1  0.3434846E-002  0.1250163E+03  0.7818608E-02  0.1235044E+00
         -4   -1    0    0    0  501 -0.00000000000E+00  0.00000000000E+00  0.14554464939E+02  0.14609768980E+02  0.12700000000E+01 0. -1.
          4   -1    0    0  501    0  0.00000000000E+00 -0.00000000000E+00 -0.26789241859E+03  0.26789542892E+03  0.12700000000E+01 0. -1.
         25    2    1    2    0    0  0.00000000000E+00  0.00000000000E+00 -0.25333795365E+03  0.28250519790E+03  0.12501627127E+03 0.  0.
    9000005    1    3    3    0    0  0.59814605665E+02 -0.17960058057E+02 -0.13216545388E+03  0.14618159233E+03  0.10000000000E+01 0.  0.
    9000005    1    3    3    0    0 -0.59814605665E+02  0.17960058057E+02 -0.12117249976E+03  0.13632360557E+03  0.10000000000E+01 0.  0.
<mgrwt>
<rscale>  0 0.12501627E+03</rscale>
<asrwt>0</asrwt>
<pdfrwt beam="2">  1        4 0.41218700E-01 0.12501627E+03</pdfrwt>
<pdfrwt beam="1">  1       -4 0.22436344E-02 0.12501627E+03</pdfrwt>
<totfact> 0.77818960E+03</totfact>
</mgrwt>
</event>
<event>
 5    1  0.3434846E-002  0.1250032E+03  0.7818608E-02  0.1235064E+00
          4   -1    0    0  501    0  0.00000000000E+00  0.00000000000E+00  0.10808969864E+02  0.10883323460E+02  0.12700000000E+01 0. -1.
         -4   -1    0    0    0  501 -0.00000000000E+00 -0.00000000000E+00 -0.36009401617E+03  0.36009625572E+03  0.12700000000E+01 0. -1.
         25    2    1    2    0    0  0.00000000000E+00  0.00000000000E+00 -0.34928504631E+03  0.37097957918E+03  0.12500321833E+03 0.  0.
    9000005    1    3    3    0    0 -0.10712988048E+02 -0.57993052689E+02 -0.23600335216E+03  0.24326229569E+03  0.10000000000E+01 0.  0.
    9000005    1    3    3    0    0  0.10712988048E+02  0.57993052689E+02 -0.11328169414E+03  0.12771728349E+03  0.10000000000E+01 0.  0.
<mgrwt>
<rscale>  0 0.12500322E+03</rscale>
<asrwt>0</asrwt>
<pdfrwt beam="1">  1        4 0.16688105E-02 0.12500322E+03</pdfrwt>
<pdfrwt beam="2">  1       -4 0.55404962E-01 0.12500322E+03</pdfrwt>
<totfact> 0.67471783E+03</totfact>
</mgrwt>
</event>
<event>
 5    1  0.3434846E-002  0.1250045E+03  0.7818608E-02  0.1235062E+00
          4   -1    0    0  501    0  0.00000000000E+00  0.00000000000E+00  0.91974341555E+03  0.91974429237E+03  0.12700000000E+01 0. -1.
         -4   -1    0    0    0  501 -0.00000000000E+00 -0.00000000000E+00 -0.41515792964E+01  0.43414871477E+01  0.12700000000E+01 0. -1.
         25    2    1    2    0    0  0.00000000000E+00  0.00000000000E+00  0.91559183625E+03  0.92408577952E+03  0.12500446909E+03 0.  0.
    9000005    1    3    3    0    0 -0.50170434136E+02 -0.37100721998E+02  0.43219497891E+03  0.43667726736E+03  0.10000000000E+01 0.  0.
    9000005    1    3    3    0    0  0.50170434136E+02  0.37100721998E+02  0.48339685734E+03  0.48740851215E+03  0.10000000000E+01 0.  0.
<mgrwt>
<rscale>  0 0.12500447E+03</rscale>
<asrwt>0</asrwt>
<pdfrwt beam="1">  1        4 0.14151373E+00 0.12500447E+03</pdfrwt>
<pdfrwt beam="2">  1       -4 0.65337995E-03 0.12500447E+03</pdfrwt>
<totfact> 0.33250992E+03</totfact>
</mgrwt>
</event>
<event>
 5    1  0.3434846E-002  0.1250009E+03  0.7818608E-02  0.1235068E+00
         -4   -1    0    0    0  501 -0.00000000000E+00  0.00000000000E+00  0.28708383048E+03  0.28708663957E+03  0.12700000000E+01 0.  1.
          4   -1    0    0  501    0  0.00000000000E+00 -0.00000000000E+00 -0.13574339862E+02  0.13633620307E+02  0.12700000000E+01 0.  1.
         25    2    1    2    0    0  0.00000000000E+00  0.00000000000E+00  0.27350949062E+03  0.30072025988E+03  0.12500093298E+03 0.  0.
    9000005    1    3    3    0    0  0.59911638258E+02 -0.13066228891E+01  0.17939798664E+03  0.18914478389E+03  0.10000000000E+01 0.  0.
    9000005    1    3    3    0    0 -0.59911638258E+02  0.13066228891E+01  0.94111503973E+02  0.11157547599E+03  0.10000000000E+01 0.  0.
<mgrwt>
<rscale>  0 0.12500093E+03</rscale>
<asrwt>0</asrwt>
<pdfrwt beam="2">  1        4 0.20931363E-02 0.12500093E+03</pdfrwt>
<pdfrwt beam="1">  1       -4 0.44171515E-01 0.12500093E+03</pdfrwt>
<totfact> 0.75507017E+03</totfact>
</mgrwt>
</event>
<event>
 5    1  0.3434846E-002  0.1249996E+03  0.7818608E-02  0.1235070E+00
         -4   -1    0    0    0  501 -0.00000000000E+00  0.00000000000E+00  0.82818963675E+02  0.82828700606E+02  0.12700000000E+01 0. -1.
          4   -1    0    0  501    0  0.00000000000E+00 -0.00000000000E+00 -0.47144739260E+02  0.47161841990E+02  0.12700000000E+01 0. -1.
         25    2    1    2    0    0  0.00000000000E+00  0.00000000000E+00  0.35674224415E+02  0.12999054260E+03  0.12499956351E+03 0.  0.
    9000005    1    3    3    0    0  0.61904193623E+02  0.91038030691E+00  0.89968228895E+01  0.62569168147E+02  0.10000000000E+01 0.  0.
    9000005    1    3    3    0    0 -0.61904193623E+02 -0.91038030691E+00  0.26677401526E+02  0.67421374449E+02  0.10000000000E+01 0.  0.
<mgrwt>
<rscale>  0 0.12499956E+03</rscale>
<asrwt>0</asrwt>
<pdfrwt beam="2">  1        4 0.72551015E-02 0.12499956E+03</pdfrwt>
<pdfrwt beam="1">  1       -4 0.12743443E-01 0.12499956E+03</pdfrwt>
<totfact> 0.10344812E+04</totfact>
</mgrwt>
</event>
<event>
 5    1  0.3434846E-002  0.1250010E+03  0.7818608E-02  0.1235068E+00
         -4   -1    0    0    0  501 -0.00000000000E+00  0.00000000000E+00  0.12598777025E+03  0.12599417110E+03  0.12700000000E+01 0.  1.
          4   -1    0    0  501    0  0.00000000000E+00 -0.00000000000E+00 -0.30985306029E+02  0.31011321960E+02  0.12700000000E+01 0.  1.
         25    2    1    2    0    0  0.00000000000E+00  0.00000000000E+00  0.95002464217E+02  0.15700549306E+03  0.12500102657E+03 0.  0.
    9000005    1    3    3    0    0  0.17108735809E+02  0.32864125116E+02  0.11071048775E+03  0.11675003922E+03  0.10000000000E+01 0.  0.
    9000005    1    3    3    0    0 -0.17108735809E+02 -0.32864125116E+02 -0.15708023532E+02  0.40255453841E+02  0.10000000000E+01 0.  0.
<mgrwt>
<rscale>  0 0.12500103E+03</rscale>
<asrwt>0</asrwt>
<pdfrwt beam="2">  1        4 0.47694637E-02 0.12500103E+03</pdfrwt>
<pdfrwt beam="1">  1       -4 0.19385228E-01 0.12500103E+03</pdfrwt>
<totfact> 0.97920968E+03</totfact>
</mgrwt>
</event>
<event>
 5    1  0.3434846E-002  0.1249993E+03  0.7818608E-02  0.1235070E+00
          4   -1    0    0  501    0  0.00000000000E+00  0.00000000000E+00  0.17412188980E+02  0.17458442802E+02  0.12700000000E+01 0.  1.
         -4   -1    0    0    0  501 -0.00000000000E+00 -0.00000000000E+00 -0.22399186593E+03  0.22399546625E+03  0.12700000000E+01 0.  1.
         25    2    1    2    0    0  0.00000000000E+00  0.00000000000E+00 -0.20657967695E+03  0.24145390905E+03  0.12499930908E+03 0.  0.
    9000005    1    3    3    0    0  0.36333290099E+02  0.50801442840E+02 -0.99278597356E+02  0.11729507431E+03  0.10000000000E+01 0.  0.
    9000005    1    3    3    0    0 -0.36333290099E+02 -0.50801442840E+02 -0.10730107959E+03  0.12415883475E+03  0.10000000000E+01 0.  0.
<mgrwt>
<rscale>  0 0.12499931E+03</rscale>
<asrwt>0</asrwt>
<pdfrwt beam="1">  1        4 0.26826334E-02 0.12499931E+03</pdfrwt>
<pdfrwt beam="2">  1       -4 0.34464120E-01 0.12499931E+03</pdfrwt>
<totfact> 0.83582597E+03</totfact>
</mgrwt>
</event>
<event>
 5    1  0.3434846E-002  0.1250091E+03  0.7818608E-02  0.1235055E+00
         -4   -1    0    0    0  501 -0.00000000000E+00  0.00000000000E+00  0.96647333126E+01  0.97478187305E+01  0.12700000000E+01 0.  1.
          4   -1    0    0  501    0  0.00000000000E+00 -0.00000000000E+00 -0.40242007723E+03  0.40242208122E+03  0.12700000000E+01 0.  1.
         25    2    1    2    0    0  0.00000000000E+00  0.00000000000E+00 -0.39275534392E+03  0.41216989995E+03  0.12500906469E+03 0.  0.
    9000005    1    3    3    0    0  0.37563140162E+02 -0.25047034070E+02 -0.33886031087E+03  0.34185618862E+03  0.10000000000E+01 0.  0.
    9000005    1    3    3    0    0 -0.37563140162E+02  0.25047034070E+02 -0.53895033042E+02  0.70313711331E+02  0.10000000000E+01 0.  0.
<mgrwt>
<rscale>  0 0.12500906E+03</rscale>
<asrwt>0</asrwt>
<pdfrwt beam="2">  1        4 0.61917314E-01 0.12500906E+03</pdfrwt>
<pdfrwt beam="1">  1       -4 0.14934277E-02 0.12500906E+03</pdfrwt>
<totfact> 0.63373453E+03</totfact>
</mgrwt>
</event>
<event>
 5    1  0.3434846E-002  0.1249957E+03  0.7818608E-02  0.1235076E+00
         -4   -1    0    0    0  501 -0.00000000000E+00  0.00000000000E+00  0.11178811964E+03  0.11179533351E+03  0.12700000000E+01 0. -1.
          4   -1    0    0  501    0  0.00000000000E+00 -0.00000000000E+00 -0.34921071528E+02  0.34944157404E+02  0.12700000000E+01 0. -1.
         25    2    1    2    0    0  0.00000000000E+00  0.00000000000E+00  0.76867048116E+02  0.14673949091E+03  0.12499574035E+03 0.  0.
    9000005    1    3    3    0    0  0.27603800869E+02 -0.12644291778E+02 -0.25685707620E+02  0.39781949586E+02  0.10000000000E+01 0.  0.
    9000005    1    3    3    0    0 -0.27603800869E+02  0.12644291778E+02  0.10255275574E+03  0.10695754132E+03  0.10000000000E+01 0.  0.
<mgrwt>
<rscale>  0 0.12499574E+03</rscale>
<asrwt>0</asrwt>
<pdfrwt beam="2">  1        4 0.53748032E-02 0.12499574E+03</pdfrwt>
<pdfrwt beam="1">  1       -4 0.17200503E-01 0.12499574E+03</pdfrwt>
<totfact> 0.99967235E+03</totfact>
</mgrwt>
</event>
<event>
 5    1  0.3434846E-002  0.1249964E+03  0.7818608E-02  0.1235075E+00
          4   -1    0    0  501    0  0.00000000000E+00  0.00000000000E+00  0.10606748400E+03  0.10607508691E+03  0.12700000000E+01 0. -1.
         -4   -1    0    0    0  501 -0.00000000000E+00 -0.00000000000E+00 -0.36805943689E+02  0.36827848034E+02  0.12700000000E+01 0. -1.
         25    2    1    2    0    0  0.00000000000E+00  0.00000000000E+00  0.69261540312E+02  0.14290293494E+03  0.12499635134E+03 0.  0.
    9000005    1    3    3    0    0 -0.10738968483E+01 -0.62473000083E+02  0.33491539894E+02  0.70899310563E+02  0.10000000000E+01 0.  0.
    9000005    1    3    3    0    0  0.10738968483E+01  0.62473000083E+02  0.35770000419E+02  0.72003624379E+02  0.10000000000E+01 0.  0.
<mgrwt>
<rscale>  0 0.12499635E+03</rscale>
<asrwt>0</asrwt>
<pdfrwt beam="1">  1        4 0.16320344E-01 0.12499635E+03</pdfrwt>
<pdfrwt beam="2">  1       -4 0.56647227E-02 0.12499635E+03</pdfrwt>
<totfact> 0.10074599E+04</totfact>
</mgrwt>
</event>
<event>
 5    1  0.3434846E-002  0.1249995E+03  0.7818608E-02  0.1235070E+00
         -4   -1    0    0    0  501 -0.00000000000E+00  0.00000000000E+00  0.29912914633E+02  0.29939862422E+02  0.12700000000E+01 0. -1.
          4   -1    0    0  501    0  0.00000000000E+00 -0.00000000000E+00 -0.13049760455E+03  0.13050378421E+03  0.12700000000E+01 0. -1.
         25    2    1    2    0    0  0.00000000000E+00  0.00000000000E+00 -0.10058468992E+03  0.16044364663E+03  0.12499953560E+03 0.  0.
    9000005    1    3    3    0    0 -0.39371188517E+02  0.44437149995E+02 -0.25255797332E+02  0.64526010908E+02  0.10000000000E+01 0.  0.
    9000005    1    3    3    0    0  0.39371188517E+02 -0.44437149995E+02 -0.75328892585E+02  0.95917635724E+02  0.10000000000E+01 0.  0.
<mgrwt>
<rscale>  0 0.12499954E+03</rscale>
<asrwt>0</asrwt>
<pdfrwt beam="2">  1        4 0.20079102E-01 0.12499954E+03</pdfrwt>
<pdfrwt beam="1">  1       -4 0.46045352E-02 0.12499954E+03</pdfrwt>
<totfact> 0.97258337E+03</totfact>
</mgrwt>
</event>
<event>
 5    1  0.3434846E-002  0.1249997E+03  0.7818608E-02  0.1235070E+00
          4   -1    0    0  501    0  0.00000000000E+00  0.00000000000E+00  0.12117698252E+03  0.12118363748E+03  0.12700000000E+01 0.  1.
         -4   -1    0    0    0  501 -0.00000000000E+00 -0.00000000000E+00 -0.32215700988E+02  0.32240724095E+02  0.12700000000E+01 0.  1.
         25    2    1    2    0    0  0.00000000000E+00  0.00000000000E+00  0.88961281536E+02  0.15342436158E+03  0.12499970045E+03 0.  0.
    9000005    1    3    3    0    0  0.25503919082E+02  0.55503443973E+02  0.28283216209E+02  0.67320297835E+02  0.10000000000E+01 0.  0.
    9000005    1    3    3    0    0 -0.25503919082E+02 -0.55503443973E+02  0.60678065327E+02  0.86104063744E+02  0.10000000000E+01 0.  0.
<mgrwt>
<rscale>  0 0.12499970E+03</rscale>
<asrwt>0</asrwt>
<pdfrwt beam="1">  1        4 0.18645049E-01 0.12499970E+03</pdfrwt>
<pdfrwt beam="2">  1       -4 0.49586986E-02 0.12499970E+03</pdfrwt>
<totfact> 0.98626095E+03</totfact>
</mgrwt>
</event>
<event>
 5    1  0.3434846E-002  0.1249944E+03  0.7818608E-02  0.1235078E+00
         -4   -1    0    0    0  501 -0.00000000000E+00  0.00000000000E+00  0.52678967383E+02  0.52694273926E+02  0.12700000000E+01 0. -1.
          4   -1    0    0  501    0  0.00000000000E+00 -0.00000000000E+00 -0.74113793554E+02  0.74124673996E+02  0.12700000000E+01 0. -1.
         25    2    1    2    0    0  0.00000000000E+00  0.00000000000E+00 -0.21434826171E+02  0.12681894792E+03  0.12499437499E+03 0.  0.
    9000005    1    3    3    0    0  0.34499758595E+02 -0.40804648628E+02 -0.43588574800E+02  0.68965328578E+02  0.10000000000E+01 0.  0.
    9000005    1    3    3    0    0 -0.34499758595E+02  0.40804648628E+02  0.22153748629E+02  0.57853619343E+02  0.10000000000E+01 0.  0.
<mgrwt>
<rscale>  0 0.12499437E+03</rscale>
<asrwt>0</asrwt>
<pdfrwt beam="2">  1        4 0.11404137E-01 0.12499437E+03</pdfrwt>
<pdfrwt beam="1">  1       -4 0.81064708E-02 0.12499437E+03</pdfrwt>
<totfact> 0.10414404E+04</totfact>
</mgrwt>
</event>
<event>
 5    1  0.3434846E-002  0.1250195E+03  0.7818608E-02  0.1235039E+00
         -4   -1    0    0    0  501 -0.00000000000E+00  0.00000000000E+00  0.14623913692E+03  0.14624465141E+03  0.12700000000E+01 0. -1.
          4   -1    0    0  501    0  0.00000000000E+00 -0.00000000000E+00 -0.26698600575E+02  0.26728789211E+02  0.12700000000E+01 0. -1.
         25    2    1    2    0    0  0.00000000000E+00  0.00000000000E+00  0.11954053634E+03  0.17297344062E+03  0.12501948381E+03 0.  0.
    9000005    1    3    3    0    0  0.17685987673E+02  0.42487308177E+02  0.12580616055E+01  0.46049410801E+02  0.10000000000E+01 0.  0.
    9000005    1    3    3    0    0 -0.17685987673E+02 -0.42487308177E+02  0.11828247473E+03  0.12692402982E+03  0.10000000000E+01 0.  0.
<mgrwt>
<rscale>  0 0.12501948E+03</rscale>
<asrwt>0</asrwt>
<pdfrwt beam="2">  1        4 0.41102234E-02 0.12501948E+03</pdfrwt>
<pdfrwt beam="1">  1       -4 0.22501075E-01 0.12501948E+03</pdfrwt>
<totfact> 0.94855841E+03</totfact>
</mgrwt>
</event>
<event>
 5    1  0.3434846E-002  0.1249965E+03  0.7818608E-02  0.1235075E+00
         -4   -1    0    0    0  501 -0.00000000000E+00  0.00000000000E+00  0.83211032843E+01  0.84174616047E+01  0.12700000000E+01 0. -1.
          4   -1    0    0  501    0  0.00000000000E+00 -0.00000000000E+00 -0.46661294207E+03  0.46661467037E+03  0.12700000000E+01 0. -1.
         25    2    1    2    0    0  0.00000000000E+00  0.00000000000E+00 -0.45829183879E+03  0.47503213198E+03  0.12499646760E+03 0.  0.
    9000005    1    3    3    0    0  0.46847452129E+02  0.41150432480E+02 -0.21348243983E+03  0.22240457275E+03  0.10000000000E+01 0.  0.
    9000005    1    3    3    0    0 -0.46847452129E+02 -0.41150432480E+02 -0.24480939895E+03  0.25262755923E+03  0.10000000000E+01 0.  0.
<mgrwt>
<rscale>  0 0.12499647E+03</rscale>
<asrwt>0</asrwt>
<pdfrwt beam="2">  1        4 0.71794131E-01 0.12499647E+03</pdfrwt>
<pdfrwt beam="1">  1       -4 0.12877152E-02 0.12499647E+03</pdfrwt>
<totfact> 0.57859483E+03</totfact>
</mgrwt>
</event>
<event>
 5    1  0.3434846E-002  0.1250023E+03  0.7818608E-02  0.1235066E+00
         -4   -1    0    0    0  501 -0.00000000000E+00  0.00000000000E+00  0.77242691839E+01  0.78279776715E+01  0.12700000000E+01 0.  1.
          4   -1    0    0  501    0  0.00000000000E+00 -0.00000000000E+00 -0.50225282192E+03  0.50225442759E+03  0.12700000000E+01 0.  1.
         25    2    1    2    0    0  0.00000000000E+00  0.00000000000E+00 -0.49452855274E+03  0.51008240526E+03  0.12500228269E+03 0.  0.
    9000005    1    3    3    0    0  0.42354768836E+02 -0.34870977343E+02 -0.36937410659E+03  0.37342755940E+03  0.10000000000E+01 0.  0.
    9000005    1    3    3    0    0 -0.42354768836E+02  0.34870977343E+02 -0.12515444615E+03  0.13665484585E+03  0.10000000000E+01 0.  0.
<mgrwt>
<rscale>  0 0.12500228E+03</rscale>
<asrwt>0</asrwt>
<pdfrwt beam="2">  1        4 0.77277741E-01 0.12500228E+03</pdfrwt>
<pdfrwt beam="1">  1       -4 0.11964506E-02 0.12500228E+03</pdfrwt>
<totfact> 0.55087741E+03</totfact>
</mgrwt>
</event>
<event>
 5    1  0.3434846E-002  0.1250023E+03  0.7818608E-02  0.1235066E+00
          4   -1    0    0  501    0  0.00000000000E+00  0.00000000000E+00  0.39510497213E+03  0.39510701322E+03  0.12700000000E+01 0.  1.
         -4   -1    0    0    0  501 -0.00000000000E+00 -0.00000000000E+00 -0.98441250842E+01  0.99257089758E+01  0.12700000000E+01 0.  1.
         25    2    1    2    0    0  0.00000000000E+00  0.00000000000E+00  0.38526084704E+03  0.40503272220E+03  0.12500234313E+03 0.  0.
    9000005    1    3    3    0    0  0.32590549259E+02  0.33350150078E+02  0.32744070156E+03  0.33074580791E+03  0.10000000000E+01 0.  0.
    9000005    1    3    3    0    0 -0.32590549259E+02 -0.33350150078E+02  0.57820145478E+02  0.74286914287E+02  0.10000000000E+01 0.  0.
<mgrwt>
<rscale>  0 0.12500234E+03</rscale>
<asrwt>0</asrwt>
<pdfrwt beam="1">  1        4 0.60791810E-01 0.12500234E+03</pdfrwt>
<pdfrwt beam="2">  1       -4 0.15209135E-02 0.12500234E+03</pdfrwt>
<totfact> 0.64062925E+03</totfact>
</mgrwt>
</event>
<event>
 5    1  0.3434846E-002  0.1249994E+03  0.7818608E-02  0.1235070E+00
          4   -1    0    0  501    0  0.00000000000E+00  0.00000000000E+00  0.32438253887E+02  0.32463105447E+02  0.12700000000E+01 0. -1.
         -4   -1    0    0    0  501 -0.00000000000E+00 -0.00000000000E+00 -0.12034563960E+03  0.12035234053E+03  0.12700000000E+01 0. -1.
         25    2    1    2    0    0  0.00000000000E+00  0.00000000000E+00 -0.87907385714E+02  0.15281544598E+03  0.12499940826E+03 0.  0.
    9000005    1    3    3    0    0 -0.10929206228E+01  0.62466709428E+02 -0.45651536707E+02  0.77384411001E+02  0.10000000000E+01 0.  0.
    9000005    1    3    3    0    0  0.10929206228E+01 -0.62466709428E+02 -0.42255849007E+02  0.75431034976E+02  0.10000000000E+01 0.  0.
<mgrwt>
<rscale>  0 0.12499941E+03</rscale>
<asrwt>0</asrwt>
<pdfrwt beam="1">  1        4 0.49929278E-02 0.12499941E+03</pdfrwt>
<pdfrwt beam="2">  1       -4 0.18517141E-01 0.12499941E+03</pdfrwt>
<totfact> 0.98746728E+03</totfact>
</mgrwt>
</event>
<event>
 5    1  0.3434846E-002  0.1250158E+03  0.7818608E-02  0.1235045E+00
         -4   -1    0    0    0  501 -0.00000000000E+00  0.00000000000E+00  0.83025960684E+02  0.83035673343E+02  0.12700000000E+01 0.  1.
          4   -1    0    0  501    0  0.00000000000E+00 -0.00000000000E+00 -0.47039376806E+02  0.47056517831E+02  0.12700000000E+01 0.  1.
         25    2    1    2    0    0  0.00000000000E+00  0.00000000000E+00  0.35986583877E+02  0.13009219117E+03  0.12501577494E+03 0.  0.
    9000005    1    3    3    0    0  0.79617689265E+01  0.61664524075E+02  0.11384606624E+02  0.63217976572E+02  0.10000000000E+01 0.  0.
    9000005    1    3    3    0    0 -0.79617689265E+01 -0.61664524075E+02  0.24601977253E+02  0.66874214602E+02  0.10000000000E+01 0.  0.
<mgrwt>
<rscale>  0 0.12501577E+03</rscale>
<asrwt>0</asrwt>
<pdfrwt beam="2">  1        4 0.72388930E-02 0.12501577E+03</pdfrwt>
<pdfrwt beam="1">  1       -4 0.12775290E-01 0.12501577E+03</pdfrwt>
<totfact> 0.10338854E+04</totfact>
</mgrwt>
</event>
<event>
 5    1  0.3434846E-002  0.1249900E+03  0.7818608E-02  0.1235085E+00
          4   -1    0    0  501    0  0.00000000000E+00  0.00000000000E+00  0.97326964304E+02  0.97335249939E+02  0.12700000000E+01 0.  1.
         -4   -1    0    0    0  501 -0.00000000000E+00 -0.00000000000E+00 -0.40108874010E+02  0.40128975496E+02  0.12700000000E+01 0.  1.
         25    2    1    2    0    0  0.00000000000E+00  0.00000000000E+00  0.57218090293E+02  0.13746422543E+03  0.12499001327E+03 0.  0.
    9000005    1    3    3    0    0  0.21156162065E+02  0.51203537316E+02 -0.31758020998E+01  0.55501992270E+02  0.10000000000E+01 0.  0.
    9000005    1    3    3    0    0 -0.21156162065E+02 -0.51203537316E+02  0.60393892393E+02  0.81962233165E+02  0.10000000000E+01 0.  0.
<mgrwt>
<rscale>  0 0.12499001E+03</rscale>
<asrwt>0</asrwt>
<pdfrwt beam="1">  1        4 0.14975563E-01 0.12499001E+03</pdfrwt>
<pdfrwt beam="2">  1       -4 0.61727796E-02 0.12499001E+03</pdfrwt>
<totfact> 0.10188682E+04</totfact>
</mgrwt>
</event>
<event>
 5    1  0.3434846E-002  0.1250008E+03  0.7818608E-02  0.1235068E+00
          4   -1    0    0  501    0  0.00000000000E+00  0.00000000000E+00  0.28603711898E+03  0.28603993836E+03  0.12700000000E+01 0.  1.
         -4   -1    0    0    0  501 -0.00000000000E+00 -0.00000000000E+00 -0.13624202839E+02  0.13683267264E+02  0.12700000000E+01 0.  1.
         25    2    1    2    0    0  0.00000000000E+00  0.00000000000E+00  0.27241291614E+03  0.29972320562E+03  0.12500081242E+03 0.  0.
    9000005    1    3    3    0    0 -0.15719293400E+02 -0.60295929072E+02  0.12480619508E+03  0.13950011318E+03  0.10000000000E+01 0.  0.
    9000005    1    3    3    0    0  0.15719293400E+02  0.60295929072E+02  0.14760672106E+03  0.16022309244E+03  0.10000000000E+01 0.  0.
<mgrwt>
<rscale>  0 0.12500081E+03</rscale>
<asrwt>0</asrwt>
<pdfrwt beam="1">  1        4 0.44010468E-01 0.12500081E+03</pdfrwt>
<pdfrwt beam="2">  1       -4 0.21007917E-02 0.12500081E+03</pdfrwt>
<totfact> 0.75632209E+03</totfact>
</mgrwt>
</event>
<event>
 5    1  0.3434846E-002  0.1249988E+03  0.7818608E-02  0.1235071E+00
         -4   -1    0    0    0  501 -0.00000000000E+00  0.00000000000E+00  0.28063378642E+01  0.30803298862E+01  0.12700000000E+01 0. -1.
          4   -1    0    0  501    0  0.00000000000E+00 -0.00000000000E+00 -0.13268517498E+04  0.13268523576E+04  0.12700000000E+01 0. -1.
         25    2    1    2    0    0  0.00000000000E+00  0.00000000000E+00 -0.13240454119E+04  0.13299326874E+04  0.12499880141E+03 0.  0.
    9000005    1    3    3    0    0 -0.34461906775E+02  0.40068693265E+02 -0.30722047825E+03  0.31173473572E+03  0.10000000000E+01 0.  0.
    9000005    1    3    3    0    0  0.34461906775E+02 -0.40068693265E+02 -0.10168249336E+04  0.10181979517E+04  0.10000000000E+01 0.  0.
<mgrwt>
<rscale>  0 0.12499880E+03</rscale>
<asrwt>0</asrwt>
<pdfrwt beam="2">  1        4 0.20415168E+00 0.12499880E+03</pdfrwt>
<pdfrwt beam="1">  1       -4 0.45286841E-03 0.12499880E+03</pdfrwt>
<totfact> 0.21533526E+03</totfact>
</mgrwt>
</event>
<event>
 5    1  0.3434846E-002  0.1249888E+03  0.7818608E-02  0.1235087E+00
          4   -1    0    0  501    0  0.00000000000E+00  0.00000000000E+00  0.45240355888E+02  0.45258178276E+02  0.12700000000E+01 0. -1.
         -4   -1    0    0    0  501 -0.00000000000E+00 -0.00000000000E+00 -0.86289346553E+02  0.86298691929E+02  0.12700000000E+01 0. -1.
         25    2    1    2    0    0  0.00000000000E+00  0.00000000000E+00 -0.41048990666E+02  0.13155687020E+03  0.12498876135E+03 0.  0.
    9000005    1    3    3    0    0  0.19082996899E+02 -0.38708488423E+02 -0.68088089691E+02  0.80619450534E+02  0.10000000000E+01 0.  0.
    9000005    1    3    3    0    0 -0.19082996899E+02  0.38708488423E+02  0.27039099025E+02  0.50937419671E+02  0.10000000000E+01 0.  0.
<mgrwt>
<rscale>  0 0.12498876E+03</rscale>
<asrwt>0</asrwt>
<pdfrwt beam="1">  1        4 0.69621446E-02 0.12498876E+03</pdfrwt>
<pdfrwt beam="2">  1       -4 0.13277374E-01 0.12498876E+03</pdfrwt>
<totfact> 0.10313780E+04</totfact>
</mgrwt>
</event>
<event>
 5    1  0.3434846E-002  0.1249978E+03  0.7818608E-02  0.1235073E+00
          4   -1    0    0  501    0  0.00000000000E+00  0.00000000000E+00  0.13499502277E+02  0.13559109917E+02  0.12700000000E+01 0.  1.
         -4   -1    0    0    0  501 -0.00000000000E+00 -0.00000000000E+00 -0.28865384783E+03  0.28865664165E+03  0.12700000000E+01 0.  1.
         25    2    1    2    0    0  0.00000000000E+00  0.00000000000E+00 -0.27515434555E+03  0.30221575156E+03  0.12499778645E+03 0.  0.
    9000005    1    3    3    0    0 -0.13911179521E+02 -0.37197367653E+02 -0.20922731265E+02  0.44899061901E+02  0.10000000000E+01 0.  0.
    9000005    1    3    3    0    0  0.13911179521E+02  0.37197367653E+02 -0.25423161429E+03  0.25731668966E+03  0.10000000000E+01 0.  0.
<mgrwt>
<rscale>  0 0.12499779E+03</rscale>
<asrwt>0</asrwt>
<pdfrwt beam="1">  1        4 0.20816468E-02 0.12499779E+03</pdfrwt>
<pdfrwt beam="2">  1       -4 0.44413080E-01 0.12499779E+03</pdfrwt>
<totfact> 0.75325440E+03</totfact>
</mgrwt>
</event>
<event>
 5    1  0.3434846E-002  0.1250000E+03  0.7818608E-02  0.1235069E+00
          4   -1    0    0  501    0  0.00000000000E+00  0.00000000000E+00  0.55216074477E+02  0.55230677894E+02  0.12700000000E+01 0. -1.
         -4   -1    0    0    0  501 -0.00000000000E+00 -0.00000000000E+00 -0.70715169717E+02  0.70726572999E+02  0.12700000000E+01 0. -1.
         25    2    1    2    0    0  0.00000000000E+00  0.00000000000E+00 -0.15499095240E+02  0.12595725089E+03  0.12500002840E+03 0.  0.
    9000005    1    3    3    0    0  0.20584907676E+02  0.70368506505E+01  0.51282310483E+02  0.55714729287E+02  0.10000000000E+01 0.  0.
    9000005    1    3    3    0    0 -0.20584907676E+02 -0.70368506505E+01 -0.66781405723E+02  0.70242521605E+02  0.10000000000E+01 0.  0.
<mgrwt>
<rscale>  0 0.12500003E+03</rscale>
<asrwt>0</asrwt>
<pdfrwt beam="1">  1        4 0.84967812E-02 0.12500003E+03</pdfrwt>
<pdfrwt beam="2">  1       -4 0.10881257E-01 0.12500003E+03</pdfrwt>
<totfact> 0.10431887E+04</totfact>
</mgrwt>
</event>
<event>
 5    1  0.3434846E-002  0.1250013E+03  0.7818608E-02  0.1235067E+00
         -4   -1    0    0    0  501 -0.00000000000E+00  0.00000000000E+00  0.15142474853E+03  0.15143007419E+03  0.12700000000E+01 0. -1.
          4   -1    0    0  501    0  0.00000000000E+00 -0.00000000000E+00 -0.25775777298E+02  0.25807045459E+02  0.12700000000E+01 0. -1.
         25    2    1    2    0    0  0.00000000000E+00  0.00000000000E+00  0.12564897124E+03  0.17723711965E+03  0.12500133042E+03 0.  0.
    9000005    1    3    3    0    0 -0.35342211080E+02 -0.51057701438E+02  0.72787302128E+02  0.95681513947E+02  0.10000000000E+01 0.  0.
    9000005    1    3    3    0    0  0.35342211080E+02  0.51057701438E+02  0.52861669107E+02  0.81555605699E+02  0.10000000000E+01 0.  0.
<mgrwt>
<rscale>  0 0.12500133E+03</rscale>
<asrwt>0</asrwt>
<pdfrwt beam="2">  1        4 0.39683192E-02 0.12500133E+03</pdfrwt>
<pdfrwt beam="1">  1       -4 0.23298930E-01 0.12500133E+03</pdfrwt>
<totfact> 0.94113900E+03</totfact>
</mgrwt>
</event>
<event>
 5    1  0.3434846E-002  0.1249823E+03  0.7818608E-02  0.1235097E+00
         -4   -1    0    0    0  501 -0.00000000000E+00  0.00000000000E+00  0.17993863996E+02  0.18038626375E+02  0.12700000000E+01 0.  1.
          4   -1    0    0  501    0  0.00000000000E+00 -0.00000000000E+00 -0.21671031219E+03  0.21671403349E+03  0.12700000000E+01 0.  1.
         25    2    1    2    0    0  0.00000000000E+00  0.00000000000E+00 -0.19871644819E+03  0.23475265986E+03  0.12498233687E+03 0.  0.
    9000005    1    3    3    0    0  0.59055977219E+02  0.32344654443E+01 -0.61508257581E+02  0.85336603885E+02  0.10000000000E+01 0.  0.
    9000005    1    3    3    0    0 -0.59055977219E+02 -0.32344654443E+01 -0.13720819061E+03  0.14941605598E+03  0.10000000000E+01 0.  0.
<mgrwt>
<rscale>  0 0.12498234E+03</rscale>
<asrwt>0</asrwt>
<pdfrwt beam="2">  1        4 0.33343776E-01 0.12498234E+03</pdfrwt>
<pdfrwt beam="1">  1       -4 0.27720164E-02 0.12498234E+03</pdfrwt>
<totfact> 0.84618455E+03</totfact>
</mgrwt>
</event>
<event>
 5    1  0.3434846E-002  0.1250016E+03  0.7818608E-02  0.1235067E+00
         -4   -1    0    0    0  501 -0.00000000000E+00  0.00000000000E+00  0.73544277208E+01  0.74632772359E+01  0.12700000000E+01 0.  1.
          4   -1    0    0  501    0  0.00000000000E+00 -0.00000000000E+00 -0.52714514288E+03  0.52714667272E+03  0.12700000000E+01 0.  1.
         25    2    1    2    0    0  0.00000000000E+00  0.00000000000E+00 -0.51979071516E+03  0.53460994996E+03  0.12500164410E+03 0.  0.
    9000005    1    3    3    0    0  0.49652409578E+02 -0.24063143023E+02 -0.13440457633E+03  0.14529276227E+03  0.10000000000E+01 0.  0.
    9000005    1    3    3    0    0 -0.49652409578E+02  0.24063143023E+02 -0.38538613882E+03  0.38931718768E+03  0.10000000000E+01 0.  0.
<mgrwt>
<rscale>  0 0.12500164E+03</rscale>
<asrwt>0</asrwt>
<pdfrwt beam="2">  1        4 0.81107714E-01 0.12500164E+03</pdfrwt>
<pdfrwt beam="1">  1       -4 0.11399415E-02 0.12500164E+03</pdfrwt>
<totfact> 0.53273707E+03</totfact>
</mgrwt>
</event>
<event>
 5    1  0.3434846E-002  0.1249997E+03  0.7818608E-02  0.1235070E+00
          4   -1    0    0  501    0  0.00000000000E+00  0.00000000000E+00  0.75006610200E+02  0.75017361149E+02  0.12700000000E+01 0.  1.
         -4   -1    0    0    0  501 -0.00000000000E+00 -0.00000000000E+00 -0.52056251987E+02  0.52071741578E+02  0.12700000000E+01 0.  1.
         25    2    1    2    0    0  0.00000000000E+00  0.00000000000E+00  0.22950358213E+02  0.12708910273E+03  0.12499968436E+03 0.  0.
    9000005    1    3    3    0    0 -0.85449866041E+01  0.37973572983E+02 -0.38231923256E+02  0.54568205001E+02  0.10000000000E+01 0.  0.
    9000005    1    3    3    0    0  0.85449866041E+01 -0.37973572983E+02  0.61182281469E+02  0.72520897725E+02  0.10000000000E+01 0.  0.
<mgrwt>
<rscale>  0 0.12499968E+03</rscale>
<asrwt>0</asrwt>
<pdfrwt beam="1">  1        4 0.11541497E-01 0.12499968E+03</pdfrwt>
<pdfrwt beam="2">  1       -4 0.80106727E-02 0.12499968E+03</pdfrwt>
<totfact> 0.10407285E+04</totfact>
</mgrwt>
</event>
<event>
 5    1  0.3434846E-002  0.1249991E+03  0.7818608E-02  0.1235071E+00
          4   -1    0    0  501    0  0.00000000000E+00  0.00000000000E+00  0.13122706879E+02  0.13184018198E+02  0.12700000000E+01 0. -1.
         -4   -1    0    0    0  501 -0.00000000000E+00 -0.00000000000E+00 -0.29691053083E+03  0.29691324696E+03  0.12700000000E+01 0. -1.
         25    2    1    2    0    0  0.00000000000E+00  0.00000000000E+00 -0.28378782396E+03  0.31009726516E+03  0.12499913933E+03 0.  0.
    9000005    1    3    3    0    0  0.29446376796E+01  0.11144119079E+02 -0.29426268774E+03  0.29449005361E+03  0.10000000000E+01 0.  0.
    9000005    1    3    3    0    0 -0.29446376796E+01 -0.11144119079E+02  0.10474863780E+02  0.15607211549E+02  0.10000000000E+01 0.  0.
<mgrwt>
<rscale>  0 0.12499914E+03</rscale>
<asrwt>0</asrwt>
<pdfrwt beam="1">  1        4 0.20238034E-02 0.12499914E+03</pdfrwt>
<pdfrwt beam="2">  1       -4 0.45683463E-01 0.12499914E+03</pdfrwt>
<totfact> 0.74350886E+03</totfact>
</mgrwt>
</event>
<event>
 5    1  0.3434846E-002  0.1250015E+03  0.7818608E-02  0.1235067E+00
         -4   -1    0    0    0  501 -0.00000000000E+00  0.00000000000E+00  0.33646317469E+03  0.33646557152E+03  0.12700000000E+01 0.  1.
          4   -1    0    0  501    0  0.00000000000E+00 -0.00000000000E+00 -0.11572835040E+02  0.11642311233E+02  0.12700000000E+01 0.  1.
         25    2    1    2    0    0  0.00000000000E+00  0.00000000000E+00  0.32489033965E+03  0.34810788276E+03  0.12500146096E+03 0.  0.
    9000005    1    3    3    0    0 -0.15417813473E+02  0.48728959891E+02  0.26258764436E+03  0.26751727322E+03  0.10000000000E+01 0.  0.
    9000005    1    3    3    0    0  0.15417813473E+02 -0.48728959891E+02  0.62302695291E+02  0.80590609533E+02  0.10000000000E+01 0.  0.
<mgrwt>
<rscale>  0 0.12500146E+03</rscale>
<asrwt>0</asrwt>
<pdfrwt beam="2">  1        4 0.17859649E-02 0.12500146E+03</pdfrwt>
<pdfrwt beam="1">  1       -4 0.51769094E-01 0.12500146E+03</pdfrwt>
<totfact> 0.69930952E+03</totfact>
</mgrwt>
</event>
<event>
 5    1  0.3434846E-002  0.1249986E+03  0.7818608E-02  0.1235071E+00
          4   -1    0    0  501    0  0.00000000000E+00  0.00000000000E+00  0.75341076003E+02  0.75351779231E+02  0.12700000000E+01 0. -1.
         -4   -1    0    0    0  501 -0.00000000000E+00 -0.00000000000E+00 -0.51824222431E+02  0.51839781351E+02  0.12700000000E+01 0. -1.
         25    2    1    2    0    0  0.00000000000E+00  0.00000000000E+00  0.23516853572E+02  0.12719156058E+03  0.12499860272E+03 0.  0.
    9000005    1    3    3    0    0  0.76644770583E+01 -0.58656300923E+02  0.32257751923E+02  0.67385965940E+02  0.10000000000E+01 0.  0.
    9000005    1    3    3    0    0 -0.76644770583E+01  0.58656300923E+02 -0.87408983509E+01  0.59805594642E+02  0.10000000000E+01 0.  0.
<mgrwt>
<rscale>  0 0.12499860E+03</rscale>
<asrwt>0</asrwt>
<pdfrwt beam="1">  1        4 0.11592955E-01 0.12499860E+03</pdfrwt>
<pdfrwt beam="2">  1       -4 0.79749775E-02 0.12499860E+03</pdfrwt>
<totfact> 0.10405315E+04</totfact>
</mgrwt>
</event>
<event>
 5    1  0.3434846E-002  0.1249976E+03  0.7818608E-02  0.1235073E+00
         -4   -1    0    0    0  501 -0.00000000000E+00  0.00000000000E+00  0.55750448655E+02  0.55764912134E+02  0.12700000000E+01 0. -1.
          4   -1    0    0  501    0  0.00000000000E+00 -0.00000000000E+00 -0.70034713043E+02  0.70046227100E+02  0.12700000000E+01 0. -1.
         25    2    1    2    0    0  0.00000000000E+00  0.00000000000E+00 -0.14284264387E+02  0.12581113923E+03  0.12499761016E+03 0.  0.
    9000005    1    3    3    0    0 -0.19185711086E+02 -0.10322860372E+02  0.51809086167E+02  0.56212404019E+02  0.10000000000E+01 0.  0.
    9000005    1    3    3    0    0  0.19185711086E+02  0.10322860372E+02 -0.66093350554E+02  0.69598735215E+02  0.10000000000E+01 0.  0.
<mgrwt>
<rscale>  0 0.12499761E+03</rscale>
<asrwt>0</asrwt>
<pdfrwt beam="2">  1        4 0.10776570E-01 0.12499761E+03</pdfrwt>
<pdfrwt beam="1">  1       -4 0.85789903E-02 0.12499761E+03</pdfrwt>
<totfact> 0.10435663E+04</totfact>
</mgrwt>
</event>
<event>
 5    1  0.3434846E-002  0.1249998E+03  0.7818608E-02  0.1235070E+00
         -4   -1    0    0    0  501 -0.00000000000E+00  0.00000000000E+00  0.63920006604E+02  0.63932621910E+02  0.12700000000E+01 0.  1.
          4   -1    0    0  501    0  0.00000000000E+00 -0.00000000000E+00 -0.61086118134E+02  0.61099318562E+02  0.12700000000E+01 0.  1.
         25    2    1    2    0    0  0.00000000000E+00  0.00000000000E+00  0.28338884699E+01  0.12503194047E+03  0.12499982086E+03 0.  0.
    9000005    1    3    3    0    0 -0.37788400187E+02 -0.40716185909E+02  0.30050648335E+02  0.63164962194E+02  0.10000000000E+01 0.  0.
    9000005    1    3    3    0    0  0.37788400187E+02  0.40716185909E+02 -0.27216759865E+02  0.61866978277E+02  0.10000000000E+01 0.  0.
<mgrwt>
<rscale>  0 0.12499982E+03</rscale>
<asrwt>0</asrwt>
<pdfrwt beam="2">  1        4 0.93998501E-02 0.12499982E+03</pdfrwt>
<pdfrwt beam="1">  1       -4 0.98358331E-02 0.12499982E+03</pdfrwt>
<totfact> 0.10452211E+04</totfact>
</mgrwt>
</event>
<event>
 5    1  0.3434846E-002  0.1249987E+03  0.7818608E-02  0.1235071E+00
          4   -1    0    0  501    0  0.00000000000E+00  0.00000000000E+00  0.36623255080E+02  0.36645268626E+02  0.12700000000E+01 0.  1.
         -4   -1    0    0    0  501 -0.00000000000E+00 -0.00000000000E+00 -0.10660036685E+03  0.10660793175E+03  0.12700000000E+01 0.  1.
         25    2    1    2    0    0  0.00000000000E+00  0.00000000000E+00 -0.69977111767E+02  0.14325320038E+03  0.12499873298E+03 0.  0.
    9000005    1    3    3    0    0  0.32338373773E+02 -0.35393465936E+02 -0.80925967358E+02  0.94066359778E+02  0.10000000000E+01 0.  0.
    9000005    1    3    3    0    0 -0.32338373773E+02  0.35393465936E+02  0.10948855590E+02  0.49186840597E+02  0.10000000000E+01 0.  0.
<mgrwt>
<rscale>  0 0.12499873E+03</rscale>
<asrwt>0</asrwt>
<pdfrwt beam="1">  1        4 0.56366222E-02 0.12499873E+03</pdfrwt>
<pdfrwt beam="2">  1       -4 0.16402332E-01 0.12499873E+03</pdfrwt>
<totfact> 0.10066888E+04</totfact>
</mgrwt>
</event>
<event>
 5    1  0.3434846E-002  0.1249919E+03  0.7818608E-02  0.1235082E+00
          4   -1    0    0  501    0  0.00000000000E+00  0.00000000000E+00  0.12077636321E+02  0.12144224928E+02  0.12700000000E+01 0. -1.
         -4   -1    0    0    0  501 -0.00000000000E+00 -0.00000000000E+00 -0.32242956589E+03  0.32243206705E+03  0.12700000000E+01 0. -1.
         25    2    1    2    0    0  0.00000000000E+00  0.00000000000E+00 -0.31035192957E+03  0.33457629197E+03  0.12499189959E+03 0.  0.
    9000005    1    3    3    0    0  0.98755427976E+01 -0.61127495173E+02 -0.17767476325E+03  0.18815796158E+03  0.10000000000E+01 0.  0.
    9000005    1    3    3    0    0 -0.98755427976E+01  0.61127495173E+02 -0.13267716632E+03  0.14641833039E+03  0.10000000000E+01 0.  0.
<mgrwt>
<rscale>  0 0.12499190E+03</rscale>
<asrwt>0</asrwt>
<pdfrwt beam="1">  1        4 0.18634127E-02 0.12499190E+03</pdfrwt>
<pdfrwt beam="2">  1       -4 0.49609857E-01 0.12499190E+03</pdfrwt>
<totfact> 0.71468185E+03</totfact>
</mgrwt>
</event>
<event>
 5    1  0.3434846E-002  0.1249966E+03  0.7818608E-02  0.1235075E+00
         -4   -1    0    0    0  501 -0.00000000000E+00  0.00000000000E+00  0.63343679219E+01  0.64604269959E+01  0.12700000000E+01 0. -1.
          4   -1    0    0  501    0  0.00000000000E+00 -0.00000000000E+00 -0.61043980911E+03  0.61044113020E+03  0.12700000000E+01 0. -1.
         25    2    1    2    0    0  0.00000000000E+00  0.00000000000E+00 -0.60410544119E+03  0.61690155720E+03  0.12499658877E+03 0.  0.
    9000005    1    3    3    0    0  0.94890848395E+01 -0.33301376615E+02 -0.45319188670E+02  0.57042556721E+02  0.10000000000E+01 0.  0.
    9000005    1    3    3    0    0 -0.94890848395E+01  0.33301376615E+02 -0.55878625251E+03  0.55985900048E+03  0.10000000000E+01 0.  0.
<mgrwt>
<rscale>  0 0.12499659E+03</rscale>
<asrwt>0</asrwt>
<pdfrwt beam="2">  1        4 0.93923569E-01 0.12499659E+03</pdfrwt>
<pdfrwt beam="1">  1       -4 0.98431710E-03 0.12499659E+03</pdfrwt>
<totfact> 0.47821417E+03</totfact>
</mgrwt>
</event>
<event>
 5    1  0.3434846E-002  0.1250012E+03  0.7818608E-02  0.1235067E+00
         -4   -1    0    0    0  501 -0.00000000000E+00  0.00000000000E+00  0.59799603970E+02  0.59813088325E+02  0.12700000000E+01 0. -1.
          4   -1    0    0  501    0  0.00000000000E+00 -0.00000000000E+00 -0.65296594302E+02  0.65308943702E+02  0.12700000000E+01 0. -1.
         25    2    1    2    0    0  0.00000000000E+00  0.00000000000E+00 -0.54969903328E+01  0.12512203203E+03  0.12500122398E+03 0.  0.
    9000005    1    3    3    0    0 -0.41424886869E+02 -0.29912118794E+02 -0.38763407261E+02  0.64143260327E+02  0.10000000000E+01 0.  0.
    9000005    1    3    3    0    0  0.41424886869E+02  0.29912118794E+02  0.33266416928E+02  0.60978771700E+02  0.10000000000E+01 0.  0.
<mgrwt>
<rscale>  0 0.12500122E+03</rscale>
<asrwt>0</asrwt>
<pdfrwt beam="2">  1        4 0.10047617E-01 0.12500122E+03</pdfrwt>
<pdfrwt beam="1">  1       -4 0.92019263E-02 0.12500122E+03</pdfrwt>
<totfact> 0.10449924E+04</totfact>
</mgrwt>
</event>
<event>
 5    1  0.3434846E-002  0.1250050E+03  0.7818608E-02  0.1235062E+00
         -4   -1    0    0    0  501 -0.00000000000E+00  0.00000000000E+00  0.30325103820E+02  0.30351685648E+02  0.12700000000E+01 0.  1.
          4   -1    0    0  501    0  0.00000000000E+00 -0.00000000000E+00 -0.12873652256E+03  0.12874278675E+03  0.12700000000E+01 0.  1.
         25    2    1    2    0    0  0.00000000000E+00  0.00000000000E+00 -0.98411418740E+02  0.15909447240E+03  0.12500497514E+03 0.  0.
    9000005    1    3    3    0    0 -0.52551518891E+02  0.32157751851E+02 -0.35870953317E+02  0.71298726733E+02  0.10000000000E+01 0.  0.
    9000005    1    3    3    0    0  0.52551518891E+02 -0.32157751851E+02 -0.62540465423E+02  0.87795745667E+02  0.10000000000E+01 0.  0.
<mgrwt>
<rscale>  0 0.12500498E+03</rscale>
<asrwt>0</asrwt>
<pdfrwt beam="2">  1        4 0.19808145E-01 0.12500498E+03</pdfrwt>
<pdfrwt beam="1">  1       -4 0.46679273E-02 0.12500498E+03</pdfrwt>
<totfact> 0.97506743E+03</totfact>
</mgrwt>
</event>
<event>
 5    1  0.3434846E-002  0.1249963E+03  0.7818608E-02  0.1235075E+00
         -4   -1    0    0    0  501 -0.00000000000E+00  0.00000000000E+00  0.11267487715E+04  0.11267494872E+04  0.12700000000E+01 0. -1.
          4   -1    0    0  501    0  0.00000000000E+00 -0.00000000000E+00 -0.33495680792E+01  0.35822487793E+01  0.12700000000E+01 0. -1.
         25    2    1    2    0    0  0.00000000000E+00  0.00000000000E+00  0.11233992034E+04  0.11303317360E+04  0.12499625269E+03 0.  0.
    9000005    1    3    3    0    0 -0.20149795562E+02 -0.29092780038E+02  0.10274419914E+04  0.10280517739E+04  0.10000000000E+01 0.  0.
    9000005    1    3    3    0    0  0.20149795562E+02  0.29092780038E+02  0.95957211973E+02  0.10227996207E+03  0.10000000000E+01 0.  0.
<mgrwt>
<rscale>  0 0.12499625E+03</rscale>
<asrwt>0</asrwt>
<pdfrwt beam="2">  1        4 0.53327169E-03 0.12499625E+03</pdfrwt>
<pdfrwt beam="1">  1       -4 0.17336393E+00 0.12499625E+03</pdfrwt>
<totfact> 0.26614350E+03</totfact>
</mgrwt>
</event>
<event>
 5    1  0.3434846E-002  0.1249981E+03  0.7818608E-02  0.1235072E+00
         -4   -1    0    0    0  501 -0.00000000000E+00  0.00000000000E+00  0.67874445378E+03  0.67874564193E+03  0.12700000000E+01 0. -1.
          4   -1    0    0  501    0  0.00000000000E+00 -0.00000000000E+00 -0.56836640615E+01  0.58238249600E+01  0.12700000000E+01 0. -1.
         25    2    1    2    0    0  0.00000000000E+00  0.00000000000E+00  0.67306078972E+03  0.68456946689E+03  0.12499811334E+03 0.  0.
    9000005    1    3    3    0    0  0.98701543486E+01 -0.13032081334E+02  0.62079593321E+01  0.17515531674E+02  0.10000000000E+01 0.  0.
    9000005    1    3    3    0    0 -0.98701543486E+01  0.13032081334E+02  0.66685283038E+03  0.66705393521E+03  0.10000000000E+01 0.  0.
<mgrwt>
<rscale>  0 0.12499811E+03</rscale>
<asrwt>0</asrwt>
<pdfrwt beam="2">  1        4 0.88528341E-03 0.12499811E+03</pdfrwt>
<pdfrwt beam="1">  1       -4 0.10443303E+00 0.12499811E+03</pdfrwt>
<totfact> 0.43915701E+03</totfact>
</mgrwt>
</event>
<event>
 5    1  0.3434846E-002  0.1249992E+03  0.7818608E-02  0.1235071E+00
          4   -1    0    0  501    0  0.00000000000E+00  0.00000000000E+00  0.17740370882E+02  0.17785771252E+02  0.12700000000E+01 0.  1.
         -4   -1    0    0    0  501 -0.00000000000E+00 -0.00000000000E+00 -0.21985827202E+03  0.21986194003E+03  0.12700000000E+01 0.  1.
         25    2    1    2    0    0  0.00000000000E+00  0.00000000000E+00 -0.20211790113E+03  0.23764771128E+03  0.12499915487E+03 0.  0.
    9000005    1    3    3    0    0 -0.10180172155E+02  0.39650639032E+02 -0.19082650600E+03  0.19517060351E+03  0.10000000000E+01 0.  0.
    9000005    1    3    3    0    0  0.10180172155E+02 -0.39650639032E+02 -0.11291395132E+02  0.42477107773E+02  0.10000000000E+01 0.  0.
<mgrwt>
<rscale>  0 0.12499915E+03</rscale>
<asrwt>0</asrwt>
<pdfrwt beam="1">  1        4 0.27330625E-02 0.12499915E+03</pdfrwt>
<pdfrwt beam="2">  1       -4 0.33828122E-01 0.12499915E+03</pdfrwt>
<totfact> 0.84150537E+03</totfact>
</mgrwt>
</event>
<event>
 5    1  0.3434846E-002  0.1249977E+03  0.7818608E-02  0.1235073E+00
         -4   -1    0    0    0  501 -0.00000000000E+00  0.00000000000E+00  0.12401229275E+03  0.12401879557E+03  0.12700000000E+01 0.  1.
          4   -1    0    0  501    0  0.00000000000E+00 -0.00000000000E+00 -0.31477600636E+02  0.31503210023E+02  0.12700000000E+01 0.  1.
         25    2    1    2    0    0  0.00000000000E+00  0.00000000000E+00  0.92534692118E+02  0.15552200559E+03  0.12499769989E+03 0.  0.
    9000005    1    3    3    0    0 -0.45729575908E+02 -0.70732106967E+01 -0.59872589149E+01  0.46669815637E+02  0.10000000000E+01 0.  0.
    9000005    1    3    3    0    0  0.45729575908E+02  0.70732106967E+01  0.98521951033E+02  0.10885218995E+03  0.10000000000E+01 0.  0.
<mgrwt>
<rscale>  0 0.12499770E+03</rscale>
<asrwt>0</asrwt>
<pdfrwt beam="2">  1        4 0.48451780E-02 0.12499770E+03</pdfrwt>
<pdfrwt beam="1">  1       -4 0.19081284E-01 0.12499770E+03</pdfrwt>
<totfact> 0.98218200E+03</totfact>
</mgrwt>
</event>
<event>
 5    1  0.3434846E-002  0.1250018E+03  0.7818608E-02  0.1235067E+00
          4   -1    0    0  501    0  0.00000000000E+00  0.00000000000E+00  0.12010068647E+02  0.12077029805E+02  0.12700000000E+01 0. -1.
         -4   -1    0    0    0  501 -0.00000000000E+00 -0.00000000000E+00 -0.32428471038E+03  0.32428719723E+03  0.12700000000E+01 0. -1.
         25    2    1    2    0    0  0.00000000000E+00  0.00000000000E+00 -0.31227464173E+03  0.33636422703E+03  0.12500176542E+03 0.  0.
    9000005    1    3    3    0    0 -0.35458046104E+02 -0.17680254063E+01 -0.29452687925E+03  0.29666054936E+03  0.10000000000E+01 0.  0.
    9000005    1    3    3    0    0  0.35458046104E+02  0.17680254063E+01 -0.17747762483E+02  0.39703677670E+02  0.10000000000E+01 0.  0.
<mgrwt>
<rscale>  0 0.12500177E+03</rscale>
<asrwt>0</asrwt>
<pdfrwt beam="1">  1        4 0.18530453E-02 0.12500177E+03</pdfrwt>
<pdfrwt beam="2">  1       -4 0.49895291E-01 0.12500177E+03</pdfrwt>
<totfact> 0.71248393E+03</totfact>
</mgrwt>
</event>
<event>
 5    1  0.3434846E-002  0.1250018E+03  0.7818608E-02  0.1235067E+00
          4   -1    0    0  501    0  0.00000000000E+00  0.00000000000E+00  0.61731131002E+01  0.63023983806E+01  0.12700000000E+01 0.  1.
         -4   -1    0    0    0  501 -0.00000000000E+00 -0.00000000000E+00 -0.62611453684E+03  0.62611582487E+03  0.12700000000E+01 0.  1.
         25    2    1    2    0    0  0.00000000000E+00  0.00000000000E+00 -0.61994142374E+03  0.63241822325E+03  0.12500176087E+03 0.  0.
    9000005    1    3    3    0    0 -0.55616742833E+02 -0.54005384764E+01 -0.45153750814E+03  0.45498297677E+03  0.10000000000E+01 0.  0.
    9000005    1    3    3    0    0  0.55616742833E+02  0.54005384764E+01 -0.16840391561E+03  0.17743524647E+03  0.10000000000E+01 0.  0.
<mgrwt>
<rscale>  0 0.12500176E+03</rscale>
<asrwt>0</asrwt>
<pdfrwt beam="1">  1        4 0.95975430E-03 0.12500176E+03</pdfrwt>
<pdfrwt beam="2">  1       -4 0.96335308E-01 0.12500176E+03</pdfrwt>
<totfact> 0.46881409E+03</totfact>
</mgrwt>
</event>
<event>
 5    1  0.3434846E-002  0.1249991E+03  0.7818608E-02  0.1235071E+00
          4   -1    0    0  501    0  0.00000000000E+00  0.00000000000E+00  0.54651842511E+03  0.54651990072E+03  0.12700000000E+01 0. -1.
         -4   -1    0    0    0  501 -0.00000000000E+00 -0.00000000000E+00 -0.70894972947E+01  0.72023518306E+01  0.12700000000E+01 0. -1.
         25    2    1    2    0    0  0.00000000000E+00  0.00000000000E+00  0.53942892782E+03  0.55372225255E+03  0.12499905923E+03 0.  0.
    9000005    1    3    3    0    0 -0.39372997906E+02  0.28147830474E+02  0.94601948979E+02  0.10626881986E+03  0.10000000000E+01 0.  0.
    9000005    1    3    3    0    0  0.39372997906E+02 -0.28147830474E+02  0.44482697884E+03  0.44745343269E+03  0.10000000000E+01 0.  0.
<mgrwt>
<rscale>  0 0.12499906E+03</rscale>
<asrwt>0</asrwt>
<pdfrwt beam="1">  1        4 0.84088557E-01 0.12499906E+03</pdfrwt>
<pdfrwt beam="2">  1       -4 0.10994865E-02 0.12499906E+03</pdfrwt>
<totfact> 0.51926538E+03</totfact>
</mgrwt>
</event>
<event>
 5    1  0.3434846E-002  0.1250062E+03  0.7818608E-02  0.1235060E+00
         -4   -1    0    0    0  501 -0.00000000000E+00  0.00000000000E+00  0.44741740974E+02  0.44759761900E+02  0.12700000000E+01 0. -1.
          4   -1    0    0  501    0  0.00000000000E+00 -0.00000000000E+00 -0.87275021462E+02  0.87284261303E+02  0.12700000000E+01 0. -1.
         25    2    1    2    0    0  0.00000000000E+00  0.00000000000E+00 -0.42533280489E+02  0.13204402320E+03  0.12500617631E+03 0.  0.
    9000005    1    3    3    0    0  0.20203252669E+02 -0.54678510939E+02 -0.45067989291E+02  0.73688768721E+02  0.10000000000E+01 0.  0.
    9000005    1    3    3    0    0 -0.20203252669E+02  0.54678510939E+02  0.25347088022E+01  0.58355254482E+02  0.10000000000E+01 0.  0.
<mgrwt>
<rscale>  0 0.12500618E+03</rscale>
<asrwt>0</asrwt>
<pdfrwt beam="2">  1        4 0.13429023E-01 0.12500618E+03</pdfrwt>
<pdfrwt beam="1">  1       -4 0.68854417E-02 0.12500618E+03</pdfrwt>
<totfact> 0.10299324E+04</totfact>
</mgrwt>
</event>
<event>
 5    1  0.3434846E-002  0.1250008E+03  0.7818608E-02  0.1235068E+00
          4   -1    0    0  501    0  0.00000000000E+00  0.00000000000E+00  0.75218334298E+03  0.75218441512E+03  0.12700000000E+01 0.  1.
         -4   -1    0    0    0  501 -0.00000000000E+00 -0.00000000000E+00 -0.51145484122E+01  0.52698676891E+01  0.12700000000E+01 0.  1.
         25    2    1    2    0    0  0.00000000000E+00  0.00000000000E+00  0.74706879457E+03  0.75745428281E+03  0.12500082694E+03 0.  0.
    9000005    1    3    3    0    0  0.44035612040E+02  0.40714158165E+02  0.47997024721E+03  0.48370364481E+03  0.10000000000E+01 0.  0.
    9000005    1    3    3    0    0 -0.44035612040E+02 -0.40714158165E+02  0.26709854736E+03  0.27375063800E+03  0.10000000000E+01 0.  0.
<mgrwt>
<rscale>  0 0.12500083E+03</rscale>
<asrwt>0</asrwt>
<pdfrwt beam="1">  1        4 0.11573244E+00 0.12500083E+03</pdfrwt>
<pdfrwt beam="2">  1       -4 0.79888442E-03 0.12500083E+03</pdfrwt>
<totfact> 0.40219416E+03</totfact>
</mgrwt>
</event>
<event>
 5    1  0.3434846E-002  0.1250020E+03  0.7818608E-02  0.1235066E+00
         -4   -1    0    0    0  501 -0.00000000000E+00  0.00000000000E+00  0.17750983136E+01  0.21826300701E+01  0.12700000000E+01 0. -1.
          4   -1    0    0  501    0  0.00000000000E+00 -0.00000000000E+00 -0.19736399178E+04  0.19736403264E+04  0.12700000000E+01 0. -1.
         25    2    1    2    0    0  0.00000000000E+00  0.00000000000E+00 -0.19718648194E+04  0.19758229564E+04  0.12500195609E+03 0.  0.
    9000005    1    3    3    0    0 -0.51795667399E+02 -0.92705955817E+01 -0.15188280188E+04  0.15197395453E+04  0.10000000000E+01 0.  0.
    9000005    1    3    3    0    0  0.51795667399E+02  0.92705955817E+01 -0.45303680067E+03  0.45608341109E+03  0.10000000000E+01 0.  0.
<mgrwt>
<rscale>  0 0.12500196E+03</rscale>
<asrwt>0</asrwt>
<pdfrwt beam="2">  1        4 0.30366672E+00 0.12500196E+03</pdfrwt>
<pdfrwt beam="1">  1       -4 0.30447366E-03 0.12500196E+03</pdfrwt>
<totfact> 0.10179854E+03</totfact>
</mgrwt>
</event>
<event>
 5    1  0.3434846E-002  0.1249986E+03  0.7818608E-02  0.1235072E+00
          4   -1    0    0  501    0  0.00000000000E+00  0.00000000000E+00  0.14578579203E+02  0.14633792112E+02  0.12700000000E+01 0. -1.
         -4   -1    0    0    0  501 -0.00000000000E+00 -0.00000000000E+00 -0.26737517855E+03  0.26737819471E+03  0.12700000000E+01 0. -1.
         25    2    1    2    0    0  0.00000000000E+00  0.00000000000E+00 -0.25279659935E+03  0.28201198682E+03  0.12499856026E+03 0.  0.
    9000005    1    3    3    0    0 -0.40266839178E+01 -0.39687171282E+02 -0.17872639656E+02  0.43723186023E+02  0.10000000000E+01 0.  0.
    9000005    1    3    3    0    0  0.40266839178E+01  0.39687171282E+02 -0.23492395969E+03  0.23828880079E+03  0.10000000000E+01 0.  0.
<mgrwt>
<rscale>  0 0.12499856E+03</rscale>
<asrwt>0</asrwt>
<pdfrwt beam="1">  1        4 0.22473377E-02 0.12499856E+03</pdfrwt>
<pdfrwt beam="2">  1       -4 0.41139118E-01 0.12499856E+03</pdfrwt>
<totfact> 0.77914579E+03</totfact>
</mgrwt>
</event>
<event>
 5    1  0.3434846E-002  0.1250025E+03  0.7818608E-02  0.1235065E+00
         -4   -1    0    0    0  501 -0.00000000000E+00  0.00000000000E+00  0.60046148161E+02  0.60059577163E+02  0.12700000000E+01 0.  1.
          4   -1    0    0  501    0  0.00000000000E+00 -0.00000000000E+00 -0.65029801191E+02  0.65042201246E+02  0.12700000000E+01 0.  1.
         25    2    1    2    0    0  0.00000000000E+00  0.00000000000E+00 -0.49836530302E+01  0.12510177841E+03  0.12500247263E+03 0.  0.
    9000005    1    3    3    0    0 -0.42715426125E+02  0.41858059380E+02  0.15652655909E+02  0.61828071304E+02  0.10000000000E+01 0.  0.
    9000005    1    3    3    0    0  0.42715426125E+02 -0.41858059380E+02 -0.20636308939E+02  0.63273707105E+02  0.10000000000E+01 0.  0.
<mgrwt>
<rscale>  0 0.12500247E+03</rscale>
<asrwt>0</asrwt>
<pdfrwt beam="2">  1        4 0.10006572E-01 0.12500247E+03</pdfrwt>
<pdfrwt beam="1">  1       -4 0.92398557E-02 0.12500247E+03</pdfrwt>
<totfact> 0.10450068E+04</totfact>
</mgrwt>
</event>
<event>
 5    1  0.3434846E-002  0.1249942E+03  0.7818608E-02  0.1235078E+00
          4   -1    0    0  501    0  0.00000000000E+00  0.00000000000E+00  0.13802539089E+03  0.13803123354E+03  0.12700000000E+01 0.  1.
         -4   -1    0    0    0  501 -0.00000000000E+00 -0.00000000000E+00 -0.28277646366E+02  0.28306150993E+02  0.12700000000E+01 0.  1.
         25    2    1    2    0    0  0.00000000000E+00  0.00000000000E+00  0.10974774453E+03  0.16633738453E+03  0.12499423212E+03 0.  0.
    9000005    1    3    3    0    0  0.45409528548E+02  0.30904804260E+02  0.94524222075E+02  0.10932959695E+03  0.10000000000E+01 0.  0.
    9000005    1    3    3    0    0 -0.45409528548E+02 -0.30904804260E+02  0.15223522452E+02  0.57007787583E+02  0.10000000000E+01 0.  0.
<mgrwt>
<rscale>  0 0.12499423E+03</rscale>
<asrwt>0</asrwt>
<pdfrwt beam="1">  1        4 0.21237318E-01 0.12499423E+03</pdfrwt>
<pdfrwt beam="2">  1       -4 0.43530492E-02 0.12499423E+03</pdfrwt>
<totfact> 0.96147166E+03</totfact>
</mgrwt>
</event>
<event>
 5    1  0.3434846E-002  0.1250122E+03  0.7818608E-02  0.1235050E+00
          4   -1    0    0  501    0  0.00000000000E+00  0.00000000000E+00  0.30459733743E+02  0.30486198184E+02  0.12700000000E+01 0.  1.
         -4   -1    0    0    0  501 -0.00000000000E+00 -0.00000000000E+00 -0.12818286825E+03  0.12818915950E+03  0.12700000000E+01 0.  1.
         25    2    1    2    0    0  0.00000000000E+00  0.00000000000E+00 -0.97723134509E+02  0.15867535768E+03  0.12501223187E+03 0.  0.
    9000005    1    3    3    0    0  0.31491575037E+02  0.25460673340E+02 -0.10928308892E+03  0.11654938314E+03  0.10000000000E+01 0.  0.
    9000005    1    3    3    0    0 -0.31491575037E+02 -0.25460673340E+02  0.11559954415E+02  0.42125974545E+02  0.10000000000E+01 0.  0.
<mgrwt>
<rscale>  0 0.12501223E+03</rscale>
<asrwt>0</asrwt>
<pdfrwt beam="1">  1        4 0.46886326E-02 0.12501223E+03</pdfrwt>
<pdfrwt beam="2">  1       -4 0.19722961E-01 0.12501223E+03</pdfrwt>
<totfact> 0.97571942E+03</totfact>
</mgrwt>
</event>
<event>
 5    1  0.3434846E-002  0.1249557E+03  0.7818608E-02  0.1235138E+00
         -4   -1    0    0    0  501 -0.00000000000E+00  0.00000000000E+00  0.63838735422E+02  0.63851366785E+02  0.12700000000E+01 0.  1.
          4   -1    0    0  501    0  0.00000000000E+00 -0.00000000000E+00 -0.61120721906E+02  0.61133914862E+02  0.12700000000E+01 0.  1.
         25    2    1    2    0    0  0.00000000000E+00  0.00000000000E+00  0.27180135163E+01  0.12498528165E+03  0.12495572428E+03 0.  0.
    9000005    1    3    3    0    0  0.95292449404E+00 -0.62136362415E+02 -0.50180529488E+01  0.62353961018E+02  0.10000000000E+01 0.  0.
    9000005    1    3    3    0    0 -0.95292449404E+00  0.62136362415E+02  0.77360664651E+01  0.62631320628E+02  0.10000000000E+01 0.  0.
<mgrwt>
<rscale>  0 0.12495572E+03</rscale>
<asrwt>0</asrwt>
<pdfrwt beam="2">  1        4 0.94051745E-02 0.12495572E+03</pdfrwt>
<pdfrwt beam="1">  1       -4 0.98233304E-02 0.12495572E+03</pdfrwt>
<totfact> 0.10463649E+04</totfact>
</mgrwt>
</event>
<event>
 5    1  0.3434846E-002  0.1249989E+03  0.7818608E-02  0.1235071E+00
          4   -1    0    0  501    0  0.00000000000E+00  0.00000000000E+00  0.12082332399E+02  0.12148895267E+02  0.12700000000E+01 0. -1.
         -4   -1    0    0    0  501 -0.00000000000E+00 -0.00000000000E+00 -0.32234096342E+03  0.32234346526E+03  0.12700000000E+01 0. -1.
         25    2    1    2    0    0  0.00000000000E+00  0.00000000000E+00 -0.31025863102E+03  0.33449236053E+03  0.12499888452E+03 0.  0.
    9000005    1    3    3    0    0  0.59628885329E+02  0.14310474509E+02 -0.12293017306E+03  0.13737984239E+03  0.10000000000E+01 0.  0.
    9000005    1    3    3    0    0 -0.59628885329E+02 -0.14310474509E+02 -0.18732845796E+03  0.19711251814E+03  0.10000000000E+01 0.  0.
<mgrwt>
<rscale>  0 0.12499888E+03</rscale>
<asrwt>0</asrwt>
<pdfrwt beam="1">  1        4 0.18641333E-02 0.12499888E+03</pdfrwt>
<pdfrwt beam="2">  1       -4 0.49596224E-01 0.12499888E+03</pdfrwt>
<totfact> 0.71466738E+03</totfact>
</mgrwt>
</event>
<event>
 5    1  0.3434846E-002  0.1250169E+03  0.7818608E-02  0.1235043E+00
          4   -1    0    0  501    0  0.00000000000E+00  0.00000000000E+00  0.39912413112E+03  0.39912615167E+03  0.12700000000E+01 0. -1.
         -4   -1    0    0    0  501 -0.00000000000E+00 -0.00000000000E+00 -0.97464617202E+01  0.98288562947E+01  0.12700000000E+01 0. -1.
         25    2    1    2    0    0  0.00000000000E+00  0.00000000000E+00  0.38937766940E+03  0.40895500796E+03  0.12501691529E+03 0.  0.
    9000005    1    3    3    0    0 -0.58859560603E+02 -0.76812795256E+01  0.25869550644E+03  0.26542007268E+03  0.10000000000E+01 0.  0.
    9000005    1    3    3    0    0  0.58859560603E+02  0.76812795256E+01  0.13068216296E+03  0.14353493528E+03  0.10000000000E+01 0.  0.
<mgrwt>
<rscale>  0 0.12501692E+03</rscale>
<asrwt>0</asrwt>
<pdfrwt beam="1">  1        4 0.61410204E-01 0.12501692E+03</pdfrwt>
<pdfrwt beam="2">  1       -4 0.15059492E-02 0.12501692E+03</pdfrwt>
<totfact> 0.63667286E+03</totfact>
</mgrwt>
</event>
<event>
 5    1  0.3434846E-002  0.1250004E+03  0.7818608E-02  0.1235069E+00
          4   -1    0    0  501    0  0.00000000000E+00  0.00000000000E+00  0.51273680207E+02  0.51289406138E+02  0.12700000000E+01 0. -1.
         -4   -1    0    0    0  501 -0.00000000000E+00 -0.00000000000E+00 -0.76152136791E+02  0.76162726040E+02  0.12700000000E+01 0. -1.
         25    2    1    2    0    0  0.00000000000E+00  0.00000000000E+00 -0.24878456584E+02  0.12745213218E+03  0.12500043358E+03 0.  0.
    9000005    1    3    3    0    0  0.55268628357E+01  0.35700489166E+02 -0.64431579846E+02  0.73874891681E+02  0.10000000000E+01 0.  0.
    9000005    1    3    3    0    0 -0.55268628357E+01 -0.35700489166E+02  0.39553123262E+02  0.53577240496E+02  0.10000000000E+01 0.  0.
<mgrwt>
<rscale>  0 0.12500043E+03</rscale>
<asrwt>0</asrwt>
<pdfrwt beam="1">  1        4 0.78902827E-02 0.12500043E+03</pdfrwt>
<pdfrwt beam="2">  1       -4 0.11717738E-01 0.12500043E+03</pdfrwt>
<totfact> 0.10399235E+04</totfact>
</mgrwt>
</event>
<event>
 5    1  0.3434846E-002  0.1250000E+03  0.7818608E-02  0.1235069E+00
         -4   -1    0    0    0  501 -0.00000000000E+00  0.00000000000E+00  0.39005755855E+02  0.39026425533E+02  0.12700000000E+01 0.  1.
          4   -1    0    0  501    0  0.00000000000E+00 -0.00000000000E+00 -0.10009418348E+03  0.10010224007E+03  0.12700000000E+01 0.  1.
         25    2    1    2    0    0  0.00000000000E+00  0.00000000000E+00 -0.61088427623E+02  0.13912866560E+03  0.12499995841E+03 0.  0.
    9000005    1    3    3    0    0  0.54209120557E+02 -0.30391049366E+02 -0.23245355156E+02  0.66359559744E+02  0.10000000000E+01 0.  0.
    9000005    1    3    3    0    0 -0.54209120557E+02  0.30391049366E+02 -0.37843072467E+02  0.72769105854E+02  0.10000000000E+01 0.  0.
<mgrwt>
<rscale>  0 0.12499996E+03</rscale>
<asrwt>0</asrwt>
<pdfrwt beam="2">  1        4 0.15401315E-01 0.12499996E+03</pdfrwt>
<pdfrwt beam="1">  1       -4 0.60030953E-02 0.12499996E+03</pdfrwt>
<totfact> 0.10151686E+04</totfact>
</mgrwt>
</event>
<event>
 4    1  0.3434846E-002  0.1250823E+03  0.7818608E-02  0.1234941E+00
         -4   -1    0    0    0  501 -0.00000000000E+00  0.00000000000E+00  0.38118405756E+02  0.38139556334E+02  0.12700000000E+01 0.  1.
          4   -1    0    0  501    0  0.00000000000E+00 -0.00000000000E+00 -0.10255822876E+03  0.10256609180E+03  0.12700000000E+01 0.  1.
    9000005    1    1    2    0    0 -0.52932356636E+02  0.37592750999E+01 -0.69434198006E+02  0.87396077606E+02  0.10000000000E+01 0.  0.
    9000005    1    1    2    0    0  0.52932356636E+02 -0.37592750999E+01  0.49943749965E+01  0.53309570528E+02  0.10000000000E+01 0.  0.
<mgrwt>
<rscale>  0 0.12508233E+03</rscale>
<asrwt>0</asrwt>
<pdfrwt beam="2">  1        4 0.15780421E-01 0.12508233E+03</pdfrwt>
<pdfrwt beam="1">  1       -4 0.58666020E-02 0.12508233E+03</pdfrwt>
<totfact> 0.10100237E+04</totfact>
</mgrwt>
</event>
<event>
 5    1  0.3434846E-002  0.1250099E+03  0.7818608E-02  0.1235054E+00
          4   -1    0    0  501    0  0.00000000000E+00  0.00000000000E+00  0.44966952658E+02  0.44984883364E+02  0.12700000000E+01 0. -1.
         -4   -1    0    0    0  501 -0.00000000000E+00 -0.00000000000E+00 -0.86843284887E+02  0.86852570659E+02  0.12700000000E+01 0. -1.
         25    2    1    2    0    0  0.00000000000E+00  0.00000000000E+00 -0.41876332230E+02  0.13183745402E+03  0.12500994793E+03 0.  0.
    9000005    1    3    3    0    0  0.73729047850E+01  0.25754244850E+02 -0.80486431855E+02  0.84833404774E+02  0.10000000000E+01 0.  0.
    9000005    1    3    3    0    0 -0.73729047850E+01 -0.25754244850E+02  0.38610099625E+02  0.47004049249E+02  0.10000000000E+01 0.  0.
<mgrwt>
<rscale>  0 0.12500995E+03</rscale>
<asrwt>0</asrwt>
<pdfrwt beam="1">  1        4 0.69200863E-02 0.12500995E+03</pdfrwt>
<pdfrwt beam="2">  1       -4 0.13362599E-01 0.12500995E+03</pdfrwt>
<totfact> 0.10302857E+04</totfact>
</mgrwt>
</event>
<event>
 5    1  0.3434846E-002  0.1250030E+03  0.7818608E-02  0.1235065E+00
          4   -1    0    0  501    0  0.00000000000E+00  0.00000000000E+00  0.15773192778E+04  0.15773197891E+04  0.12700000000E+01 0. -1.
         -4   -1    0    0    0  501 -0.00000000000E+00 -0.00000000000E+00 -0.23132736802E+01  0.26389647817E+01  0.12700000000E+01 0. -1.
         25    2    1    2    0    0  0.00000000000E+00  0.00000000000E+00  0.15750060042E+04  0.15799587539E+04  0.12500300351E+03 0.  0.
    9000005    1    3    3    0    0  0.41397312352E+02  0.12073118118E+02  0.13592076927E+04  0.13598919257E+04  0.10000000000E+01 0.  0.
    9000005    1    3    3    0    0 -0.41397312352E+02 -0.12073118118E+02  0.21579831141E+03  0.22006682817E+03  0.10000000000E+01 0.  0.
<mgrwt>
<rscale>  0 0.12500300E+03</rscale>
<asrwt>0</asrwt>
<pdfrwt beam="1">  1        4 0.24268982E+00 0.12500300E+03</pdfrwt>
<pdfrwt beam="2">  1       -4 0.38098039E-03 0.12500300E+03</pdfrwt>
<totfact> 0.16409983E+03</totfact>
</mgrwt>
</event>
<event>
 5    1  0.3434846E-002  0.1250014E+03  0.7818608E-02  0.1235067E+00
         -4   -1    0    0    0  501 -0.00000000000E+00  0.00000000000E+00  0.14636960451E+03  0.14637511409E+03  0.12700000000E+01 0. -1.
          4   -1    0    0  501    0  0.00000000000E+00 -0.00000000000E+00 -0.26667032259E+02  0.26697256591E+02  0.12700000000E+01 0. -1.
         25    2    1    2    0    0  0.00000000000E+00  0.00000000000E+00  0.11970257225E+03  0.17307237068E+03  0.12500135875E+03 0.  0.
    9000005    1    3    3    0    0 -0.80971655347E+01  0.41015730594E+02 -0.44598920775E+01  0.42056448770E+02  0.10000000000E+01 0.  0.
    9000005    1    3    3    0    0  0.80971655347E+01 -0.41015730594E+02  0.12416246433E+03  0.13101592191E+03  0.10000000000E+01 0.  0.
<mgrwt>
<rscale>  0 0.12500136E+03</rscale>
<asrwt>0</asrwt>
<pdfrwt beam="2">  1        4 0.41053691E-02 0.12500136E+03</pdfrwt>
<pdfrwt beam="1">  1       -4 0.22521150E-01 0.12500136E+03</pdfrwt>
<totfact> 0.94876179E+03</totfact>
</mgrwt>
</event>
<event>
 5    1  0.3434846E-002  0.1250020E+03  0.7818608E-02  0.1235066E+00
         -4   -1    0    0    0  501 -0.00000000000E+00  0.00000000000E+00  0.19542865736E+03  0.19543278389E+03  0.12700000000E+01 0.  1.
          4   -1    0    0  501    0  0.00000000000E+00 -0.00000000000E+00 -0.19964239734E+02  0.20004593677E+02  0.12700000000E+01 0.  1.
         25    2    1    2    0    0  0.00000000000E+00  0.00000000000E+00  0.17546441763E+03  0.21543737756E+03  0.12500200718E+03 0.  0.
    9000005    1    3    3    0    0 -0.31031557662E+02 -0.15334658987E+02 -0.19424103376E+01  0.34682593546E+02  0.10000000000E+01 0.  0.
    9000005    1    3    3    0    0  0.31031557662E+02  0.15334658987E+02  0.17740682796E+03  0.18075478402E+03  0.10000000000E+01 0.  0.
<mgrwt>
<rscale>  0 0.12500201E+03</rscale>
<asrwt>0</asrwt>
<pdfrwt beam="2">  1        4 0.30748431E-02 0.12500201E+03</pdfrwt>
<pdfrwt beam="1">  1       -4 0.30069368E-01 0.12500201E+03</pdfrwt>
<totfact> 0.87591585E+03</totfact>
</mgrwt>
</event>
<event>
 5    1  0.3434846E-002  0.1250044E+03  0.7818608E-02  0.1235062E+00
         -4   -1    0    0    0  501 -0.00000000000E+00  0.00000000000E+00  0.14801451543E+03  0.14801996378E+03  0.12700000000E+01 0.  1.
          4   -1    0    0  501    0  0.00000000000E+00 -0.00000000000E+00 -0.26371626296E+02  0.26402188801E+02  0.12700000000E+01 0.  1.
         25    2    1    2    0    0  0.00000000000E+00  0.00000000000E+00  0.12164288913E+03  0.17442215258E+03  0.12500437926E+03 0.  0.
    9000005    1    3    3    0    0  0.26877293126E+02  0.45016994677E+02  0.13367868157E+02  0.54116712710E+02  0.10000000000E+01 0.  0.
    9000005    1    3    3    0    0 -0.26877293126E+02 -0.45016994677E+02  0.10827502098E+03  0.12030543987E+03  0.10000000000E+01 0.  0.
<mgrwt>
<rscale>  0 0.12500438E+03</rscale>
<asrwt>0</asrwt>
<pdfrwt beam="2">  1        4 0.40599433E-02 0.12500438E+03</pdfrwt>
<pdfrwt beam="1">  1       -4 0.22774234E-01 0.12500438E+03</pdfrwt>
<totfact> 0.94621481E+03</totfact>
</mgrwt>
</event>
<event>
 5    1  0.3434846E-002  0.1250085E+03  0.7818608E-02  0.1235056E+00
          4   -1    0    0  501    0  0.00000000000E+00  0.00000000000E+00  0.24921830164E+02  0.24954168364E+02  0.12700000000E+01 0.  1.
         -4   -1    0    0    0  501 -0.00000000000E+00 -0.00000000000E+00 -0.15662495243E+03  0.15663010127E+03  0.12700000000E+01 0.  1.
         25    2    1    2    0    0  0.00000000000E+00  0.00000000000E+00 -0.13170312227E+03  0.18158426964E+03  0.12500853797E+03 0.  0.
    9000005    1    3    3    0    0 -0.27246901606E+02  0.56229209021E+02 -0.63976643704E+02  0.89432256674E+02  0.10000000000E+01 0.  0.
    9000005    1    3    3    0    0  0.27246901606E+02 -0.56229209021E+02 -0.67726478566E+02  0.92152012963E+02  0.10000000000E+01 0.  0.
<mgrwt>
<rscale>  0 0.12500854E+03</rscale>
<asrwt>0</asrwt>
<pdfrwt beam="1">  1        4 0.38370114E-02 0.12500854E+03</pdfrwt>
<pdfrwt beam="2">  1       -4 0.24099030E-01 0.12500854E+03</pdfrwt>
<totfact> 0.93314742E+03</totfact>
</mgrwt>
</event>
<event>
 5    1  0.3434846E-002  0.1249971E+03  0.7818608E-02  0.1235074E+00
          4   -1    0    0  501    0  0.00000000000E+00  0.00000000000E+00  0.37282420548E+02  0.37304045114E+02  0.12700000000E+01 0. -1.
         -4   -1    0    0    0  501 -0.00000000000E+00 -0.00000000000E+00 -0.10471387389E+03  0.10472157507E+03  0.12700000000E+01 0. -1.
         25    2    1    2    0    0  0.00000000000E+00  0.00000000000E+00 -0.67431453340E+02  0.14202562018E+03  0.12499710352E+03 0.  0.
    9000005    1    3    3    0    0  0.13013421164E+02 -0.60725820222E+02 -0.25835931952E+02  0.67271611783E+02  0.10000000000E+01 0.  0.
    9000005    1    3    3    0    0 -0.13013421164E+02  0.60725820222E+02 -0.41595521388E+02  0.74754008398E+02  0.10000000000E+01 0.  0.
<mgrwt>
<rscale>  0 0.12499710E+03</rscale>
<asrwt>0</asrwt>
<pdfrwt beam="1">  1        4 0.57380129E-02 0.12499710E+03</pdfrwt>
<pdfrwt beam="2">  1       -4 0.16112082E-01 0.12499710E+03</pdfrwt>
<totfact> 0.10092433E+04</totfact>
</mgrwt>
</event>
<event>
 5    1  0.3434846E-002  0.1250003E+03  0.7818608E-02  0.1235069E+00
         -4   -1    0    0    0  501 -0.00000000000E+00  0.00000000000E+00  0.15334606245E+04  0.15334611504E+04  0.12700000000E+01 0. -1.
          4   -1    0    0  501    0  0.00000000000E+00 -0.00000000000E+00 -0.23885025851E+01  0.27051514928E+01  0.12700000000E+01 0. -1.
         25    2    1    2    0    0  0.00000000000E+00  0.00000000000E+00  0.15310721220E+04  0.15361663019E+04  0.12500025829E+03 0.  0.
    9000005    1    3    3    0    0  0.46660343686E+02 -0.14534123983E+02  0.12441627172E+04  0.12451226025E+04  0.10000000000E+01 0.  0.
    9000005    1    3    3    0    0 -0.46660343686E+02  0.14534123983E+02  0.28690940475E+03  0.29104369941E+03  0.10000000000E+01 0.  0.
<mgrwt>
<rscale>  0 0.12500026E+03</rscale>
<asrwt>0</asrwt>
<pdfrwt beam="2">  1        4 0.39185990E-03 0.12500026E+03</pdfrwt>
<pdfrwt beam="1">  1       -4 0.23594147E+00 0.12500026E+03</pdfrwt>
<totfact> 0.17230223E+03</totfact>
</mgrwt>
</event>
<event>
 5    1  0.3434846E-002  0.1250059E+03  0.7818608E-02  0.1235060E+00
         -4   -1    0    0    0  501 -0.00000000000E+00  0.00000000000E+00  0.20762749759E+02  0.20801554691E+02  0.12700000000E+01 0.  1.
          4   -1    0    0  501    0  0.00000000000E+00 -0.00000000000E+00 -0.18793856490E+03  0.18794285588E+03  0.12700000000E+01 0.  1.
         25    2    1    2    0    0  0.00000000000E+00  0.00000000000E+00 -0.16717581514E+03  0.20874441058E+03  0.12500590297E+03 0.  0.
    9000005    1    3    3    0    0 -0.43623074881E+02  0.32498279503E+02 -0.32213538184E+02  0.63228339177E+02  0.10000000000E+01 0.  0.
    9000005    1    3    3    0    0  0.43623074881E+02 -0.32498279503E+02 -0.13496227696E+03  0.14551607140E+03  0.10000000000E+01 0.  0.
<mgrwt>
<rscale>  0 0.12500590E+03</rscale>
<asrwt>0</asrwt>
<pdfrwt beam="2">  1        4 0.28916939E-01 0.12500590E+03</pdfrwt>
<pdfrwt beam="1">  1       -4 0.31975844E-02 0.12500590E+03</pdfrwt>
<totfact> 0.88669643E+03</totfact>
</mgrwt>
</event>
<event>
 5    1  0.3434846E-002  0.1249984E+03  0.7818608E-02  0.1235072E+00
         -4   -1    0    0    0  501 -0.00000000000E+00  0.00000000000E+00  0.17342942230E+03  0.17343407226E+03  0.12700000000E+01 0. -1.
          4   -1    0    0  501    0  0.00000000000E+00 -0.00000000000E+00 -0.22500121548E+02  0.22535935075E+02  0.12700000000E+01 0. -1.
         25    2    1    2    0    0  0.00000000000E+00  0.00000000000E+00  0.15092930076E+03  0.19597000734E+03  0.12499835978E+03 0.  0.
    9000005    1    3    3    0    0  0.58425535831E+01 -0.60483708790E+02  0.98331311365E+02  0.11559611263E+03  0.10000000000E+01 0.  0.
    9000005    1    3    3    0    0 -0.58425535831E+01  0.60483708790E+02  0.52597989391E+02  0.80373894701E+02  0.10000000000E+01 0.  0.
<mgrwt>
<rscale>  0 0.12499836E+03</rscale>
<asrwt>0</asrwt>
<pdfrwt beam="2">  1        4 0.34646697E-02 0.12499836E+03</pdfrwt>
<pdfrwt beam="1">  1       -4 0.26684562E-01 0.12499836E+03</pdfrwt>
<totfact> 0.90822138E+03</totfact>
</mgrwt>
</event>
<event>
 5    1  0.3434846E-002  0.1249982E+03  0.7818608E-02  0.1235072E+00
          4   -1    0    0  501    0  0.00000000000E+00  0.00000000000E+00  0.66769737598E+02  0.66781814583E+02  0.12700000000E+01 0.  1.
         -4   -1    0    0    0  501 -0.00000000000E+00 -0.00000000000E+00 -0.58477366249E+02  0.58491155429E+02  0.12700000000E+01 0.  1.
         25    2    1    2    0    0  0.00000000000E+00  0.00000000000E+00  0.82923713493E+01  0.12527297001E+03  0.12499821436E+03 0.  0.
    9000005    1    3    3    0    0 -0.16433820152E+02  0.54263894455E+02 -0.22188897047E+02  0.60893249530E+02  0.10000000000E+01 0.  0.
    9000005    1    3    3    0    0  0.16433820152E+02 -0.54263894455E+02  0.30481268396E+02  0.64379720481E+02  0.10000000000E+01 0.  0.
<mgrwt>
<rscale>  0 0.12499821E+03</rscale>
<asrwt>0</asrwt>
<pdfrwt beam="1">  1        4 0.10274257E-01 0.12499821E+03</pdfrwt>
<pdfrwt beam="2">  1       -4 0.89985076E-02 0.12499821E+03</pdfrwt>
<totfact> 0.10447358E+04</totfact>
</mgrwt>
</event>
<event>
 5    1  0.3434846E-002  0.1250002E+03  0.7818608E-02  0.1235069E+00
         -4   -1    0    0    0  501 -0.00000000000E+00  0.00000000000E+00  0.16396570403E+02  0.16445680922E+02  0.12700000000E+01 0. -1.
          4   -1    0    0  501    0  0.00000000000E+00 -0.00000000000E+00 -0.23782965913E+03  0.23783304998E+03  0.12700000000E+01 0. -1.
         25    2    1    2    0    0  0.00000000000E+00  0.00000000000E+00 -0.22143308872E+03  0.25427873090E+03  0.12500024082E+03 0.  0.
    9000005    1    3    3    0    0  0.22489911323E+02  0.25071166435E+02 -0.21779695970E+03  0.22038801046E+03  0.10000000000E+01 0.  0.
    9000005    1    3    3    0    0 -0.22489911323E+02 -0.25071166435E+02 -0.36361290225E+01  0.33890720440E+02  0.10000000000E+01 0.  0.
<mgrwt>
<rscale>  0 0.12500024E+03</rscale>
<asrwt>0</asrwt>
<pdfrwt beam="2">  1        4 0.36593214E-01 0.12500024E+03</pdfrwt>
<pdfrwt beam="1">  1       -4 0.25265880E-02 0.12500024E+03</pdfrwt>
<totfact> 0.81715287E+03</totfact>
</mgrwt>
</event>
<event>
 5    1  0.3434846E-002  0.1249989E+03  0.7818608E-02  0.1235071E+00
         -4   -1    0    0    0  501 -0.00000000000E+00  0.00000000000E+00  0.17584153604E+04  0.17584158191E+04  0.12700000000E+01 0.  1.
          4   -1    0    0  501    0  0.00000000000E+00 -0.00000000000E+00 -0.20394099602E+01  0.24025180511E+01  0.12700000000E+01 0.  1.
         25    2    1    2    0    0  0.00000000000E+00  0.00000000000E+00  0.17563759505E+04  0.17608183371E+04  0.12499894757E+03 0.  0.
    9000005    1    3    3    0    0 -0.30289371667E+02 -0.53504068638E+02  0.10357149571E+04  0.10375387240E+04  0.10000000000E+01 0.  0.
    9000005    1    3    3    0    0  0.30289371667E+02  0.53504068638E+02  0.72066099339E+03  0.72327961314E+03  0.10000000000E+01 0.  0.
<mgrwt>
<rscale>  0 0.12499895E+03</rscale>
<asrwt>0</asrwt>
<pdfrwt beam="2">  1        4 0.34171997E-03 0.12499895E+03</pdfrwt>
<pdfrwt beam="1">  1       -4 0.27055506E+00 0.12499895E+03</pdfrwt>
<totfact> 0.13317052E+03</totfact>
</mgrwt>
</event>
<event>
 5    1  0.3434846E-002  0.1250114E+03  0.7818608E-02  0.1235052E+00
          4   -1    0    0  501    0  0.00000000000E+00  0.00000000000E+00  0.40661849267E+01  0.42599013907E+01  0.12700000000E+01 0. -1.
         -4   -1    0    0    0  501 -0.00000000000E+00 -0.00000000000E+00 -0.93829257129E+03  0.93829343078E+03  0.12700000000E+01 0. -1.
         25    2    1    2    0    0  0.00000000000E+00  0.00000000000E+00 -0.93422638636E+03  0.94255333217E+03  0.12501137149E+03 0.  0.
    9000005    1    3    3    0    0 -0.20817197143E+02 -0.53578842559E+02 -0.65209250558E+03  0.65462178691E+03  0.10000000000E+01 0.  0.
    9000005    1    3    3    0    0  0.20817197143E+02  0.53578842559E+02 -0.28213388079E+03  0.28793154526E+03  0.10000000000E+01 0.  0.
<mgrwt>
<rscale>  0 0.12501137E+03</rscale>
<asrwt>0</asrwt>
<pdfrwt beam="1">  1        4 0.64053504E-03 0.12501137E+03</pdfrwt>
<pdfrwt beam="2">  1       -4 0.14436750E+00 0.12501137E+03</pdfrwt>
<totfact> 0.32573798E+03</totfact>
</mgrwt>
</event>
<event>
 5    1  0.3434846E-002  0.1249978E+03  0.7818608E-02  0.1235073E+00
         -4   -1    0    0    0  501 -0.00000000000E+00  0.00000000000E+00  0.31360679411E+03  0.31360936563E+03  0.12700000000E+01 0.  1.
          4   -1    0    0  501    0  0.00000000000E+00 -0.00000000000E+00 -0.12420433186E+02  0.12485193652E+02  0.12700000000E+01 0.  1.
         25    2    1    2    0    0  0.00000000000E+00  0.00000000000E+00  0.30118636093E+03  0.32609455929E+03  0.12499775033E+03 0.  0.
    9000005    1    3    3    0    0 -0.12539013535E+02 -0.23698963132E+02  0.33345647822E+01  0.27036771927E+02  0.10000000000E+01 0.  0.
    9000005    1    3    3    0    0  0.12539013535E+02  0.23698963132E+02  0.29785179614E+03  0.29905778736E+03  0.10000000000E+01 0.  0.
<mgrwt>
<rscale>  0 0.12499775E+03</rscale>
<asrwt>0</asrwt>
<pdfrwt beam="2">  1        4 0.19160153E-02 0.12499775E+03</pdfrwt>
<pdfrwt beam="1">  1       -4 0.48252376E-01 0.12499775E+03</pdfrwt>
<totfact> 0.72440685E+03</totfact>
</mgrwt>
</event>
<event>
 5    1  0.3434846E-002  0.1250005E+03  0.7818608E-02  0.1235069E+00
         -4   -1    0    0    0  501 -0.00000000000E+00  0.00000000000E+00  0.58058723015E+02  0.58072611601E+02  0.12700000000E+01 0. -1.
          4   -1    0    0  501    0  0.00000000000E+00 -0.00000000000E+00 -0.67253612691E+02  0.67265602799E+02  0.12700000000E+01 0. -1.
         25    2    1    2    0    0  0.00000000000E+00  0.00000000000E+00 -0.91948896757E+01  0.12533821440E+03  0.12500048797E+03 0.  0.
    9000005    1    3    3    0    0  0.12501416026E+02  0.37504156197E+02  0.43932010545E+02  0.59108956049E+02  0.10000000000E+01 0.  0.
    9000005    1    3    3    0    0 -0.12501416026E+02 -0.37504156197E+02 -0.53126900220E+02  0.66229258351E+02  0.10000000000E+01 0.  0.
<mgrwt>
<rscale>  0 0.12500049E+03</rscale>
<asrwt>0</asrwt>
<pdfrwt beam="2">  1        4 0.10348700E-01 0.12500049E+03</pdfrwt>
<pdfrwt beam="1">  1       -4 0.89341019E-02 0.12500049E+03</pdfrwt>
<totfact> 0.10445406E+04</totfact>
</mgrwt>
</event>
<event>
 5    1  0.3434846E-002  0.1249986E+03  0.7818608E-02  0.1235071E+00
         -4   -1    0    0    0  501 -0.00000000000E+00  0.00000000000E+00  0.14052685971E+02  0.14109956875E+02  0.12700000000E+01 0. -1.
          4   -1    0    0  501    0  0.00000000000E+00 -0.00000000000E+00 -0.27734159660E+03  0.27734450437E+03  0.12700000000E+01 0. -1.
         25    2    1    2    0    0  0.00000000000E+00  0.00000000000E+00 -0.26328891063E+03  0.29145446125E+03  0.12499861007E+03 0.  0.
    9000005    1    3    3    0    0 -0.25818817019E+02 -0.37092869592E+01 -0.26405313203E+03  0.26534020927E+03  0.10000000000E+01 0.  0.
    9000005    1    3    3    0    0  0.25818817019E+02  0.37092869592E+01  0.76422139705E+00  0.26114251977E+02  0.10000000000E+01 0.  0.
<mgrwt>
<rscale>  0 0.12499861E+03</rscale>
<asrwt>0</asrwt>
<pdfrwt beam="2">  1        4 0.42672563E-01 0.12499861E+03</pdfrwt>
<pdfrwt beam="1">  1       -4 0.21665810E-02 0.12499861E+03</pdfrwt>
<totfact> 0.76685802E+03</totfact>
</mgrwt>
</event>
<event>
 5    1  0.3434846E-002  0.1249967E+03  0.7818608E-02  0.1235074E+00
          4   -1    0    0  501    0  0.00000000000E+00  0.00000000000E+00  0.13891887450E+02  0.13949818526E+02  0.12700000000E+01 0. -1.
         -4   -1    0    0    0  501 -0.00000000000E+00 -0.00000000000E+00 -0.28052989299E+03  0.28053276771E+03  0.12700000000E+01 0. -1.
         25    2    1    2    0    0  0.00000000000E+00  0.00000000000E+00 -0.26663800554E+03  0.29448258624E+03  0.12499667036E+03 0.  0.
    9000005    1    3    3    0    0 -0.10257469657E+02 -0.60151887791E+02 -0.16506515742E+03  0.17598571386E+03  0.10000000000E+01 0.  0.
    9000005    1    3    3    0    0  0.10257469657E+02  0.60151887791E+02 -0.10157284811E+03  0.11849687237E+03  0.10000000000E+01 0.  0.
<mgrwt>
<rscale>  0 0.12499667E+03</rscale>
<asrwt>0</asrwt>
<pdfrwt beam="1">  1        4 0.21418910E-02 0.12499667E+03</pdfrwt>
<pdfrwt beam="2">  1       -4 0.43163118E-01 0.12499667E+03</pdfrwt>
<totfact> 0.76301830E+03</totfact>
</mgrwt>
</event>
<event>
 5    1  0.3434846E-002  0.1249996E+03  0.7818608E-02  0.1235070E+00
          4   -1    0    0  501    0  0.00000000000E+00  0.00000000000E+00  0.17085135471E+03  0.17085607483E+03  0.12700000000E+01 0. -1.
         -4   -1    0    0    0  501 -0.00000000000E+00 -0.00000000000E+00 -0.22840632677E+02  0.22875913121E+02  0.12700000000E+01 0. -1.
         25    2    1    2    0    0  0.00000000000E+00  0.00000000000E+00  0.14801072203E+03  0.19373198795E+03  0.12499963727E+03 0.  0.
    9000005    1    3    3    0    0 -0.16221090958E+02  0.26207603116E+02  0.15825941429E+03  0.16123586593E+03  0.10000000000E+01 0.  0.
    9000005    1    3    3    0    0  0.16221090958E+02 -0.26207603116E+02 -0.10248692257E+02  0.32496122014E+02  0.10000000000E+01 0.  0.
<mgrwt>
<rscale>  0 0.12499964E+03</rscale>
<asrwt>0</asrwt>
<pdfrwt beam="1">  1        4 0.26287902E-01 0.12499964E+03</pdfrwt>
<pdfrwt beam="2">  1       -4 0.35170203E-02 0.12499964E+03</pdfrwt>
<totfact> 0.91202725E+03</totfact>
</mgrwt>
</event>
<event>
 5    1  0.3434846E-002  0.1250002E+03  0.7818608E-02  0.1235069E+00
          4   -1    0    0  501    0  0.00000000000E+00  0.00000000000E+00  0.21147463141E+03  0.21147844483E+03  0.12700000000E+01 0.  1.
         -4   -1    0    0    0  501 -0.00000000000E+00 -0.00000000000E+00 -0.18445723651E+02  0.18489392121E+02  0.12700000000E+01 0.  1.
         25    2    1    2    0    0  0.00000000000E+00  0.00000000000E+00  0.19302890776E+03  0.22996783695E+03  0.12500018721E+03 0.  0.
    9000005    1    3    3    0    0 -0.42917672234E+01  0.12833013961E+02  0.20875602400E+03  0.20919651782E+03  0.10000000000E+01 0.  0.
    9000005    1    3    3    0    0  0.42917672234E+01 -0.12833013961E+02 -0.15727116241E+02  0.20771319132E+02  0.10000000000E+01 0.  0.
<mgrwt>
<rscale>  0 0.12500019E+03</rscale>
<asrwt>0</asrwt>
<pdfrwt beam="1">  1        4 0.32538210E-01 0.12500019E+03</pdfrwt>
<pdfrwt beam="2">  1       -4 0.28414562E-02 0.12500019E+03</pdfrwt>
<totfact> 0.85314180E+03</totfact>
</mgrwt>
</event>
<event>
 4    1  0.3434846E-002  0.1248830E+03  0.7818608E-02  0.1235252E+00
         -4   -1    0    0    0  501 -0.00000000000E+00  0.00000000000E+00  0.20485294322E+03  0.20485687991E+03  0.12700000000E+01 0.  1.
          4   -1    0    0  501    0  0.00000000000E+00 -0.00000000000E+00 -0.19007555704E+02  0.19049936321E+02  0.12700000000E+01 0.  1.
    9000005    1    1    2    0    0 -0.38455744732E+02  0.12851515049E+02  0.17804328025E+03  0.18260453276E+03  0.10000000000E+01 0.  0.
    9000005    1    1    2    0    0  0.38455744732E+02 -0.12851515049E+02  0.78021072649E+01  0.41302283469E+02  0.10000000000E+01 0.  0.
<mgrwt>
<rscale>  0 0.12488296E+03</rscale>
<asrwt>0</asrwt>
<pdfrwt beam="2">  1        4 0.29278023E-02 0.12488296E+03</pdfrwt>
<pdfrwt beam="1">  1       -4 0.31519399E-01 0.12488296E+03</pdfrwt>
<totfact> 0.86479696E+03</totfact>
</mgrwt>
</event>
<event>
 5    1  0.3434846E-002  0.1249904E+03  0.7818608E-02  0.1235084E+00
         -4   -1    0    0    0  501 -0.00000000000E+00  0.00000000000E+00  0.25832536017E+02  0.25863735559E+02  0.12700000000E+01 0.  1.
          4   -1    0    0  501    0  0.00000000000E+00 -0.00000000000E+00 -0.15106607384E+03  0.15107141214E+03  0.12700000000E+01 0.  1.
         25    2    1    2    0    0  0.00000000000E+00  0.00000000000E+00 -0.12523353782E+03  0.17693514770E+03  0.12499042961E+03 0.  0.
    9000005    1    3    3    0    0  0.21234226173E+02 -0.50406628482E+02 -0.10538845836E+03  0.11874109530E+03  0.10000000000E+01 0.  0.
    9000005    1    3    3    0    0 -0.21234226173E+02  0.50406628482E+02 -0.19845079460E+02  0.58194052401E+02  0.10000000000E+01 0.  0.
<mgrwt>
<rscale>  0 0.12499043E+03</rscale>
<asrwt>0</asrwt>
<pdfrwt beam="2">  1        4 0.23243745E-01 0.12499043E+03</pdfrwt>
<pdfrwt beam="1">  1       -4 0.39770470E-02 0.12499043E+03</pdfrwt>
<totfact> 0.94191831E+03</totfact>
</mgrwt>
</event>
<event>
 5    1  0.3434846E-002  0.1250010E+03  0.7818608E-02  0.1235068E+00
         -4   -1    0    0    0  501 -0.00000000000E+00  0.00000000000E+00  0.92254304812E+02  0.92263045995E+02  0.12700000000E+01 0. -1.
          4   -1    0    0  501    0  0.00000000000E+00 -0.00000000000E+00 -0.42322635905E+02  0.42341686433E+02  0.12700000000E+01 0. -1.
         25    2    1    2    0    0  0.00000000000E+00  0.00000000000E+00  0.49931668907E+02  0.13460473243E+03  0.12500104972E+03 0.  0.
    9000005    1    3    3    0    0 -0.49566183863E+02  0.28242577001E+02 -0.25063009394E+01  0.57111568730E+02  0.10000000000E+01 0.  0.
    9000005    1    3    3    0    0  0.49566183863E+02 -0.28242577001E+02  0.52437969846E+02  0.77493163698E+02  0.10000000000E+01 0.  0.
<mgrwt>
<rscale>  0 0.12500105E+03</rscale>
<asrwt>0</asrwt>
<pdfrwt beam="2">  1        4 0.65133126E-02 0.12500105E+03</pdfrwt>
<pdfrwt beam="1">  1       -4 0.14195108E-01 0.12500105E+03</pdfrwt>
<totfact> 0.10246166E+04</totfact>
</mgrwt>
</event>
<event>
 5    1  0.3434846E-002  0.1249987E+03  0.7818608E-02  0.1235071E+00
          4   -1    0    0  501    0  0.00000000000E+00  0.00000000000E+00  0.17600935146E+02  0.17646694252E+02  0.12700000000E+01 0.  1.
         -4   -1    0    0    0  501 -0.00000000000E+00 -0.00000000000E+00 -0.22159390580E+03  0.22159754508E+03  0.12700000000E+01 0.  1.
         25    2    1    2    0    0  0.00000000000E+00  0.00000000000E+00 -0.20399297065E+03  0.23924423934E+03  0.12499869591E+03 0.  0.
    9000005    1    3    3    0    0 -0.26205662631E+02  0.40681623622E+02 -0.17767563322E+03  0.18415037848E+03  0.10000000000E+01 0.  0.
    9000005    1    3    3    0    0  0.26205662631E+02 -0.40681623622E+02 -0.26317337434E+02  0.55093860857E+02  0.10000000000E+01 0.  0.
<mgrwt>
<rscale>  0 0.12499870E+03</rscale>
<asrwt>0</asrwt>
<pdfrwt beam="1">  1        4 0.27116362E-02 0.12499870E+03</pdfrwt>
<pdfrwt beam="2">  1       -4 0.34095168E-01 0.12499870E+03</pdfrwt>
<totfact> 0.83912494E+03</totfact>
</mgrwt>
</event>
<event>
 5    1  0.3434846E-002  0.1250024E+03  0.7818608E-02  0.1235065E+00
         -4   -1    0    0    0  501 -0.00000000000E+00  0.00000000000E+00  0.91681540532E+02  0.91690336319E+02  0.12700000000E+01 0. -1.
          4   -1    0    0  501    0  0.00000000000E+00 -0.00000000000E+00 -0.42588071764E+02  0.42607003609E+02  0.12700000000E+01 0. -1.
         25    2    1    2    0    0  0.00000000000E+00  0.00000000000E+00  0.49093468769E+02  0.13429733993E+03  0.12500242732E+03 0.  0.
    9000005    1    3    3    0    0  0.38284518448E+02  0.31108184217E+02 -0.16672475043E+02  0.52080657659E+02  0.10000000000E+01 0.  0.
    9000005    1    3    3    0    0 -0.38284518448E+02 -0.31108184217E+02  0.65765943811E+02  0.82216682270E+02  0.10000000000E+01 0.  0.
<mgrwt>
<rscale>  0 0.12500243E+03</rscale>
<asrwt>0</asrwt>
<pdfrwt beam="2">  1        4 0.65541440E-02 0.12500243E+03</pdfrwt>
<pdfrwt beam="1">  1       -4 0.14106985E-01 0.12500243E+03</pdfrwt>
<totfact> 0.10252341E+04</totfact>
</mgrwt>
</event>
<event>
 5    1  0.3434846E-002  0.1250047E+03  0.7818608E-02  0.1235062E+00
         -4   -1    0    0    0  501 -0.00000000000E+00  0.00000000000E+00  0.11392926356E+03  0.11393634185E+03  0.12700000000E+01 0.  1.
          4   -1    0    0  501    0  0.00000000000E+00 -0.00000000000E+00 -0.34269288550E+02  0.34292813208E+02  0.12700000000E+01 0.  1.
         25    2    1    2    0    0  0.00000000000E+00  0.00000000000E+00  0.79659975006E+02  0.14822915506E+03  0.12500468308E+03 0.  0.
    9000005    1    3    3    0    0  0.59699500386E+02  0.15657492696E+02  0.51469776163E+02  0.80369927722E+02  0.10000000000E+01 0.  0.
    9000005    1    3    3    0    0 -0.59699500386E+02 -0.15657492696E+02  0.28190198843E+02  0.67859227337E+02  0.10000000000E+01 0.  0.
<mgrwt>
<rscale>  0 0.12500468E+03</rscale>
<asrwt>0</asrwt>
<pdfrwt beam="2">  1        4 0.52745524E-02 0.12500468E+03</pdfrwt>
<pdfrwt beam="1">  1       -4 0.17529933E-01 0.12500468E+03</pdfrwt>
<totfact> 0.99647363E+03</totfact>
</mgrwt>
</event>
<event>
 5    1  0.3434846E-002  0.1249996E+03  0.7818608E-02  0.1235070E+00
          4   -1    0    0  501    0  0.00000000000E+00  0.00000000000E+00  0.46048174056E+01  0.47767398233E+01  0.12700000000E+01 0. -1.
         -4   -1    0    0    0  501 -0.00000000000E+00 -0.00000000000E+00 -0.83257327625E+03  0.83257424488E+03  0.12700000000E+01 0. -1.
         25    2    1    2    0    0  0.00000000000E+00  0.00000000000E+00 -0.82796845885E+03  0.83735098470E+03  0.12499961092E+03 0.  0.
    9000005    1    3    3    0    0 -0.58725379338E+02 -0.22949068962E-01 -0.27084937020E+03  0.27714446060E+03  0.10000000000E+01 0.  0.
    9000005    1    3    3    0    0  0.58725379338E+02  0.22949068962E-01 -0.55711908865E+03  0.56020652409E+03  0.10000000000E+01 0.  0.
<mgrwt>
<rscale>  0 0.12499961E+03</rscale>
<asrwt>0</asrwt>
<pdfrwt beam="1">  1        4 0.72173342E-03 0.12499961E+03</pdfrwt>
<pdfrwt beam="2">  1       -4 0.12810138E+00 0.12499961E+03</pdfrwt>
<totfact> 0.36650940E+03</totfact>
</mgrwt>
</event>
<event>
 5    1  0.3434846E-002  0.1250000E+03  0.7818608E-02  0.1235069E+00
          4   -1    0    0  501    0  0.00000000000E+00  0.00000000000E+00  0.27940003953E+01  0.30690940372E+01  0.12700000000E+01 0. -1.
         -4   -1    0    0    0  501 -0.00000000000E+00 -0.00000000000E+00 -0.13322113082E+04  0.13322119135E+04  0.12700000000E+01 0. -1.
         25    2    1    2    0    0  0.00000000000E+00  0.00000000000E+00 -0.13294173078E+04  0.13352810076E+04  0.12499996370E+03 0.  0.
    9000005    1    3    3    0    0  0.27562481937E+02  0.55444768495E+02 -0.57442311197E+03  0.57775143819E+03  0.10000000000E+01 0.  0.
    9000005    1    3    3    0    0 -0.27562481937E+02 -0.55444768495E+02 -0.75499419583E+03  0.75752956939E+03  0.10000000000E+01 0.  0.
<mgrwt>
<rscale>  0 0.12499996E+03</rscale>
<asrwt>0</asrwt>
<pdfrwt beam="1">  1        4 0.45105489E-03 0.12499996E+03</pdfrwt>
<pdfrwt beam="2">  1       -4 0.20497631E+00 0.12499996E+03</pdfrwt>
<totfact> 0.21410910E+03</totfact>
</mgrwt>
</event>
<event>
 5    1  0.3434846E-002  0.1249997E+03  0.7818608E-02  0.1235070E+00
         -4   -1    0    0    0  501 -0.00000000000E+00  0.00000000000E+00  0.41127298917E+03  0.41127495003E+03  0.12700000000E+01 0.  1.
          4   -1    0    0  501    0  0.00000000000E+00 -0.00000000000E+00 -0.94534638404E+01  0.95383897269E+01  0.12700000000E+01 0.  1.
         25    2    1    2    0    0  0.00000000000E+00  0.00000000000E+00  0.40181952533E+03  0.42081333975E+03  0.12499974392E+03 0.  0.
    9000005    1    3    3    0    0 -0.49292457275E+02 -0.15597676673E+02  0.31908350822E+03  0.32324652988E+03  0.10000000000E+01 0.  0.
    9000005    1    3    3    0    0  0.49292457275E+02  0.15597676673E+02  0.82736017104E+02  0.97566809869E+02  0.10000000000E+01 0.  0.
<mgrwt>
<rscale>  0 0.12499974E+03</rscale>
<asrwt>0</asrwt>
<pdfrwt beam="2">  1        4 0.14610625E-02 0.12499974E+03</pdfrwt>
<pdfrwt beam="1">  1       -4 0.63279458E-01 0.12499974E+03</pdfrwt>
<totfact> 0.62577973E+03</totfact>
</mgrwt>
</event>
<event>
 5    1  0.3434846E-002  0.1249982E+03  0.7818608E-02  0.1235072E+00
         -4   -1    0    0    0  501 -0.00000000000E+00  0.00000000000E+00  0.53136305652E+02  0.53151480491E+02  0.12700000000E+01 0. -1.
          4   -1    0    0  501    0  0.00000000000E+00 -0.00000000000E+00 -0.73480492797E+02  0.73491466999E+02  0.12700000000E+01 0. -1.
         25    2    1    2    0    0  0.00000000000E+00  0.00000000000E+00 -0.20344187145E+02  0.12664294749E+03  0.12499820078E+03 0.  0.
    9000005    1    3    3    0    0 -0.30900091161E+02  0.89964910871E+01  0.44099386365E+02  0.54603190048E+02  0.10000000000E+01 0.  0.
    9000005    1    3    3    0    0  0.30900091161E+02 -0.89964910871E+01 -0.64443573510E+02  0.72039757442E+02  0.10000000000E+01 0.  0.
<mgrwt>
<rscale>  0 0.12499820E+03</rscale>
<asrwt>0</asrwt>
<pdfrwt beam="2">  1        4 0.11306703E-01 0.12499820E+03</pdfrwt>
<pdfrwt beam="1">  1       -4 0.81768277E-02 0.12499820E+03</pdfrwt>
<totfact> 0.10417336E+04</totfact>
</mgrwt>
</event>
<event>
 5    1  0.3434846E-002  0.1250018E+03  0.7818608E-02  0.1235066E+00
         -4   -1    0    0    0  501 -0.00000000000E+00  0.00000000000E+00  0.61379536354E+02  0.61392673692E+02  0.12700000000E+01 0. -1.
          4   -1    0    0  501    0  0.00000000000E+00 -0.00000000000E+00 -0.63616498786E+02  0.63629174266E+02  0.12700000000E+01 0. -1.
         25    2    1    2    0    0  0.00000000000E+00  0.00000000000E+00 -0.22369624319E+01  0.12502184796E+03  0.12500183385E+03 0.  0.
    9000005    1    3    3    0    0  0.57175268089E+02  0.14889223383E+02  0.19248088387E+02  0.62146513664E+02  0.10000000000E+01 0.  0.
    9000005    1    3    3    0    0 -0.57175268089E+02 -0.14889223383E+02 -0.21485050819E+02  0.62875334295E+02  0.10000000000E+01 0.  0.
<mgrwt>
<rscale>  0 0.12500183E+03</rscale>
<asrwt>0</asrwt>
<pdfrwt beam="2">  1        4 0.97891393E-02 0.12500183E+03</pdfrwt>
<pdfrwt beam="1">  1       -4 0.94449912E-02 0.12500183E+03</pdfrwt>
<totfact> 0.10451955E+04</totfact>
</mgrwt>
</event>
<event>
 5    1  0.3434846E-002  0.1249954E+03  0.7818608E-02  0.1235076E+00
         -4   -1    0    0    0  501 -0.00000000000E+00  0.00000000000E+00  0.18984579769E+03  0.18985004556E+03  0.12700000000E+01 0.  1.
          4   -1    0    0  501    0  0.00000000000E+00 -0.00000000000E+00 -0.20550312487E+02  0.20589517802E+02  0.12700000000E+01 0.  1.
         25    2    1    2    0    0  0.00000000000E+00  0.00000000000E+00  0.16929548520E+03  0.21043956336E+03  0.12499539399E+03 0.  0.
    9000005    1    3    3    0    0  0.23460307989E+02  0.57916537867E+02  0.83804741516E+02  0.10454159990E+03  0.10000000000E+01 0.  0.
    9000005    1    3    3    0    0 -0.23460307989E+02 -0.57916537867E+02  0.85490743684E+02  0.10589796346E+03  0.10000000000E+01 0.  0.
<mgrwt>
<rscale>  0 0.12499539E+03</rscale>
<asrwt>0</asrwt>
<pdfrwt beam="2">  1        4 0.31649291E-02 0.12499539E+03</pdfrwt>
<pdfrwt beam="1">  1       -4 0.29210388E-01 0.12499539E+03</pdfrwt>
<totfact> 0.88413248E+03</totfact>
</mgrwt>
</event>
<event>
 5    1  0.3434846E-002  0.1249999E+03  0.7818608E-02  0.1235070E+00
          4   -1    0    0  501    0  0.00000000000E+00  0.00000000000E+00  0.99893540921E+02  0.99901613690E+02  0.12700000000E+01 0. -1.
         -4   -1    0    0    0  501 -0.00000000000E+00 -0.00000000000E+00 -0.39084072301E+02  0.39104700582E+02  0.12700000000E+01 0. -1.
         25    2    1    2    0    0  0.00000000000E+00  0.00000000000E+00  0.60809468621E+02  0.13900631427E+03  0.12499985573E+03 0.  0.
    9000005    1    3    3    0    0  0.33578460269E+02  0.46590003891E+02  0.57805011964E+02  0.81489636548E+02  0.10000000000E+01 0.  0.
    9000005    1    3    3    0    0 -0.33578460269E+02 -0.46590003891E+02  0.30044566566E+01  0.57516677724E+02  0.10000000000E+01 0.  0.
<mgrwt>
<rscale>  0 0.12499986E+03</rscale>
<asrwt>0</asrwt>
<pdfrwt beam="1">  1        4 0.15370445E-01 0.12499986E+03</pdfrwt>
<pdfrwt beam="2">  1       -4 0.60151420E-02 0.12499986E+03</pdfrwt>
<totfact> 0.10154255E+04</totfact>
</mgrwt>
</event>
<event>
 5    1  0.3434846E-002  0.1249998E+03  0.7818608E-02  0.1235070E+00
         -4   -1    0    0    0  501 -0.00000000000E+00  0.00000000000E+00  0.23236894577E+02  0.23271574282E+02  0.12700000000E+01 0. -1.
          4   -1    0    0  501    0  0.00000000000E+00 -0.00000000000E+00 -0.16794259436E+03  0.16794739623E+03  0.12700000000E+01 0. -1.
         25    2    1    2    0    0  0.00000000000E+00  0.00000000000E+00 -0.14470569979E+03  0.19121897051E+03  0.12499982054E+03 0.  0.
    9000005    1    3    3    0    0  0.61906168895E+02  0.69279628946E+01 -0.79981456406E+02  0.10138246291E+03  0.10000000000E+01 0.  0.
    9000005    1    3    3    0    0 -0.61906168895E+02 -0.69279628946E+01 -0.64724243380E+02  0.89836507603E+02  0.10000000000E+01 0.  0.
<mgrwt>
<rscale>  0 0.12499982E+03</rscale>
<asrwt>0</asrwt>
<pdfrwt beam="2">  1        4 0.25840359E-01 0.12499982E+03</pdfrwt>
<pdfrwt beam="1">  1       -4 0.35779440E-02 0.12499982E+03</pdfrwt>
<totfact> 0.91636018E+03</totfact>
</mgrwt>
</event>
<event>
 5    1  0.3434846E-002  0.1249965E+03  0.7818608E-02  0.1235075E+00
         -4   -1    0    0    0  501 -0.00000000000E+00  0.00000000000E+00  0.36015499870E+02  0.36037884662E+02  0.12700000000E+01 0. -1.
          4   -1    0    0  501    0  0.00000000000E+00 -0.00000000000E+00 -0.10839441354E+03  0.10840185325E+03  0.12700000000E+01 0. -1.
         25    2    1    2    0    0  0.00000000000E+00  0.00000000000E+00 -0.72378913672E+02  0.14443973791E+03  0.12499652292E+03 0.  0.
    9000005    1    3    3    0    0 -0.60270301393E+02  0.12386558845E+02 -0.23578777880E+02  0.65900643672E+02  0.10000000000E+01 0.  0.
    9000005    1    3    3    0    0  0.60270301393E+02 -0.12386558845E+02 -0.48800135793E+02  0.78539094236E+02  0.10000000000E+01 0.  0.
<mgrwt>
<rscale>  0 0.12499652E+03</rscale>
<asrwt>0</asrwt>
<pdfrwt beam="2">  1        4 0.16678358E-01 0.12499652E+03</pdfrwt>
<pdfrwt beam="1">  1       -4 0.55431404E-02 0.12499652E+03</pdfrwt>
<totfact> 0.10043170E+04</totfact>
</mgrwt>
</event>
<event>
 5    1  0.3434846E-002  0.1250004E+03  0.7818608E-02  0.1235069E+00
         -4   -1    0    0    0  501 -0.00000000000E+00  0.00000000000E+00  0.56004329376E+01  0.57426256267E+01  0.12700000000E+01 0.  1.
          4   -1    0    0  501    0  0.00000000000E+00 -0.00000000000E+00 -0.68860834635E+03  0.68860951748E+03  0.12700000000E+01 0.  1.
         25    2    1    2    0    0  0.00000000000E+00  0.00000000000E+00 -0.68300791341E+03  0.69435214311E+03  0.12500035541E+03 0.  0.
    9000005    1    3    3    0    0  0.24027186968E+02 -0.42086679661E+02 -0.56066729734E+03  0.56275875171E+03  0.10000000000E+01 0.  0.
    9000005    1    3    3    0    0 -0.24027186968E+02  0.42086679661E+02 -0.12234061608E+03  0.13159339140E+03  0.10000000000E+01 0.  0.
<mgrwt>
<rscale>  0 0.12500036E+03</rscale>
<asrwt>0</asrwt>
<pdfrwt beam="2">  1        4 0.10595071E+00 0.12500036E+03</pdfrwt>
<pdfrwt beam="1">  1       -4 0.87263360E-03 0.12500036E+03</pdfrwt>
<totfact> 0.43386197E+03</totfact>
</mgrwt>
</event>
<event>
 5    1  0.3434846E-002  0.1249760E+03  0.7818608E-02  0.1235107E+00
         -4   -1    0    0    0  501 -0.00000000000E+00  0.00000000000E+00  0.12429036962E+02  0.12493752832E+02  0.12700000000E+01 0.  1.
          4   -1    0    0  501    0  0.00000000000E+00 -0.00000000000E+00 -0.31328165563E+03  0.31328422982E+03  0.12700000000E+01 0.  1.
         25    2    1    2    0    0  0.00000000000E+00  0.00000000000E+00 -0.30085261867E+03  0.32577798266E+03  0.12497598098E+03 0.  0.
    9000005    1    3    3    0    0 -0.59703538962E+02  0.33748829121E+01 -0.19762505839E+03  0.20647655097E+03  0.10000000000E+01 0.  0.
    9000005    1    3    3    0    0  0.59703538962E+02 -0.33748829121E+01 -0.10322756028E+03  0.11930143168E+03  0.10000000000E+01 0.  0.
<mgrwt>
<rscale>  0 0.12497598E+03</rscale>
<asrwt>0</asrwt>
<pdfrwt beam="2">  1        4 0.48202348E-01 0.12497598E+03</pdfrwt>
<pdfrwt beam="1">  1       -4 0.19173359E-02 0.12497598E+03</pdfrwt>
<totfact> 0.72512731E+03</totfact>
</mgrwt>
</event>
<event>
 5    1  0.3434846E-002  0.1249895E+03  0.7818608E-02  0.1235086E+00
         -4   -1    0    0    0  501 -0.00000000000E+00  0.00000000000E+00  0.27399626870E+03  0.27399921198E+03  0.12700000000E+01 0. -1.
          4   -1    0    0  501    0  0.00000000000E+00 -0.00000000000E+00 -0.14222875798E+02  0.14279464135E+02  0.12700000000E+01 0. -1.
         25    2    1    2    0    0  0.00000000000E+00  0.00000000000E+00  0.25977339291E+03  0.28827867611E+03  0.12498951731E+03 0.  0.
    9000005    1    3    3    0    0 -0.59157423346E+02  0.55599726209E+01  0.85277782205E+02  0.10394139777E+03  0.10000000000E+01 0.  0.
    9000005    1    3    3    0    0  0.59157423346E+02 -0.55599726209E+01  0.17449561070E+03  0.18433727834E+03  0.10000000000E+01 0.  0.
<mgrwt>
<rscale>  0 0.12498952E+03</rscale>
<asrwt>0</asrwt>
<pdfrwt beam="2">  1        4 0.21927142E-02 0.12498952E+03</pdfrwt>
<pdfrwt beam="1">  1       -4 0.42157850E-01 0.12498952E+03</pdfrwt>
<totfact> 0.77111020E+03</totfact>
</mgrwt>
</event>
<event>
 4    1  0.3434846E-002  0.1251167E+03  0.7818608E-02  0.1234887E+00
         -4   -1    0    0    0  501 -0.00000000000E+00  0.00000000000E+00  0.63974965819E+02  0.63987570290E+02  0.12700000000E+01 0.  1.
          4   -1    0    0  501    0  0.00000000000E+00 -0.00000000000E+00 -0.61147908302E+02  0.61161095393E+02  0.12700000000E+01 0.  1.
    9000005    1    1    2    0    0 -0.43372493707E+02 -0.44872130609E+02  0.56416339621E+01  0.62669844020E+02  0.10000000000E+01 0.  0.
    9000005    1    1    2    0    0  0.43372493707E+02  0.44872130609E+02 -0.28145764443E+01  0.62478821662E+02  0.10000000000E+01 0.  0.
<mgrwt>
<rscale>  0 0.12511673E+03</rscale>
<asrwt>0</asrwt>
<pdfrwt beam="2">  1        4 0.94093545E-02 0.12511673E+03</pdfrwt>
<pdfrwt beam="1">  1       -4 0.98442864E-02 0.12511673E+03</pdfrwt>
<totfact> 0.10422115E+04</totfact>
</mgrwt>
</event>
<event>
 5    1  0.3434846E-002  0.1249969E+03  0.7818608E-02  0.1235074E+00
          4   -1    0    0  501    0  0.00000000000E+00  0.00000000000E+00  0.42761002690E+03  0.42761191284E+03  0.12700000000E+01 0. -1.
         -4   -1    0    0    0  501 -0.00000000000E+00 -0.00000000000E+00 -0.90885716263E+01  0.91768749696E+01  0.12700000000E+01 0. -1.
         25    2    1    2    0    0  0.00000000000E+00  0.00000000000E+00  0.41852145527E+03  0.43678878781E+03  0.12499694650E+03 0.  0.
    9000005    1    3    3    0    0 -0.17228564099E+02  0.59888021800E+02  0.22552397035E+03  0.23397747708E+03  0.10000000000E+01 0.  0.
    9000005    1    3    3    0    0  0.17228564099E+02 -0.59888021800E+02  0.19299748492E+03  0.20281131073E+03  0.10000000000E+01 0.  0.
<mgrwt>
<rscale>  0 0.12499695E+03</rscale>
<asrwt>0</asrwt>
<pdfrwt beam="1">  1        4 0.65793092E-01 0.12499695E+03</pdfrwt>
<pdfrwt beam="2">  1       -4 0.14051795E-02 0.12499695E+03</pdfrwt>
<totfact> 0.61129528E+03</totfact>
</mgrwt>
</event>
<event>
 5    1  0.3434846E-002  0.1249992E+03  0.7818608E-02  0.1235071E+00
         -4   -1    0    0    0  501 -0.00000000000E+00  0.00000000000E+00  0.11864656186E+02  0.11932433382E+02  0.12700000000E+01 0.  1.
          4   -1    0    0  501    0  0.00000000000E+00 -0.00000000000E+00 -0.32822307767E+03  0.32822553468E+03  0.12700000000E+01 0.  1.
         25    2    1    2    0    0  0.00000000000E+00  0.00000000000E+00 -0.31635842149E+03  0.34015796806E+03  0.12499916956E+03 0.  0.
    9000005    1    3    3    0    0 -0.57826857622E+02 -0.15804588580E+02 -0.11015281782E+03  0.12541281336E+03  0.10000000000E+01 0.  0.
    9000005    1    3    3    0    0  0.57826857622E+02  0.15804588580E+02 -0.20620560367E+03  0.21474515470E+03  0.10000000000E+01 0.  0.
<mgrwt>
<rscale>  0 0.12499917E+03</rscale>
<asrwt>0</asrwt>
<pdfrwt beam="2">  1        4 0.50501254E-01 0.12499917E+03</pdfrwt>
<pdfrwt beam="1">  1       -4 0.18307346E-02 0.12499917E+03</pdfrwt>
<totfact> 0.70822351E+03</totfact>
</mgrwt>
</event>
<event>
 4    1  0.3434846E-002  0.1249374E+03  0.7818608E-02  0.1235167E+00
          4   -1    0    0  501    0  0.00000000000E+00  0.00000000000E+00  0.33801862453E+02  0.33825712192E+02  0.12700000000E+01 0.  1.
         -4   -1    0    0    0  501 -0.00000000000E+00 -0.00000000000E+00 -0.11537929217E+03  0.11538628151E+03  0.12700000000E+01 0.  1.
    9000005    1    1    2    0    0  0.49839377674E+02 -0.25507792160E+02 -0.73858479139E+02  0.92685953459E+02  0.10000000000E+01 0.  0.
    9000005    1    1    2    0    0 -0.49839377674E+02  0.25507792160E+02 -0.77189505769E+01  0.56526040246E+02  0.10000000000E+01 0.  0.
<mgrwt>
<rscale>  0 0.12493735E+03</rscale>
<asrwt>0</asrwt>
<pdfrwt beam="1">  1        4 0.52026588E-02 0.12493735E+03</pdfrwt>
<pdfrwt beam="2">  1       -4 0.17753032E-01 0.12493735E+03</pdfrwt>
<totfact> 0.99601382E+03</totfact>
</mgrwt>
</event>
<event>
 5    1  0.3434846E-002  0.1249921E+03  0.7818608E-02  0.1235082E+00
          4   -1    0    0  501    0  0.00000000000E+00  0.00000000000E+00  0.11511136610E+02  0.11580982948E+02  0.12700000000E+01 0.  1.
         -4   -1    0    0    0  501 -0.00000000000E+00 -0.00000000000E+00 -0.33820512326E+03  0.33820750775E+03  0.12700000000E+01 0.  1.
         25    2    1    2    0    0  0.00000000000E+00  0.00000000000E+00 -0.32669398665E+03  0.34978849070E+03  0.12499210900E+03 0.  0.
    9000005    1    3    3    0    0 -0.14566497861E+01  0.46053221337E+02 -0.45221244900E+02  0.64567654552E+02  0.10000000000E+01 0.  0.
    9000005    1    3    3    0    0  0.14566497861E+01 -0.46053221337E+02 -0.28147274175E+03  0.28522083615E+03  0.10000000000E+01 0.  0.
<mgrwt>
<rscale>  0 0.12499211E+03</rscale>
<asrwt>0</asrwt>
<pdfrwt beam="1">  1        4 0.17765006E-02 0.12499211E+03</pdfrwt>
<pdfrwt beam="2">  1       -4 0.52037106E-01 0.12499211E+03</pdfrwt>
<totfact> 0.69760016E+03</totfact>
</mgrwt>
</event>
<event>
 5    1  0.3434846E-002  0.1249989E+03  0.7818608E-02  0.1235071E+00
         -4   -1    0    0    0  501 -0.00000000000E+00  0.00000000000E+00  0.49557253836E+02  0.49573524262E+02  0.12700000000E+01 0. -1.
          4   -1    0    0  501    0  0.00000000000E+00 -0.00000000000E+00 -0.78787314440E+02  0.78797549560E+02  0.12700000000E+01 0. -1.
         25    2    1    2    0    0  0.00000000000E+00  0.00000000000E+00 -0.29230060604E+02  0.12837107382E+03  0.12499894460E+03 0.  0.
    9000005    1    3    3    0    0 -0.34672048290E+02  0.50282324964E+02 -0.28189824643E+02  0.67276514103E+02  0.10000000000E+01 0.  0.
    9000005    1    3    3    0    0  0.34672048290E+02 -0.50282324964E+02 -0.10402359609E+01  0.61094559719E+02  0.10000000000E+01 0.  0.
<mgrwt>
<rscale>  0 0.12499894E+03</rscale>
<asrwt>0</asrwt>
<pdfrwt beam="2">  1        4 0.12123164E-01 0.12499894E+03</pdfrwt>
<pdfrwt beam="1">  1       -4 0.76262318E-02 0.12499894E+03</pdfrwt>
<totfact> 0.10379729E+04</totfact>
</mgrwt>
</event>
<event>
 5    1  0.3434846E-002  0.1249984E+03  0.7818608E-02  0.1235072E+00
          4   -1    0    0  501    0  0.00000000000E+00  0.00000000000E+00  0.45219191779E+02  0.45237022505E+02  0.12700000000E+01 0. -1.
         -4   -1    0    0    0  501 -0.00000000000E+00 -0.00000000000E+00 -0.86342982482E+02  0.86352322053E+02  0.12700000000E+01 0. -1.
         25    2    1    2    0    0  0.00000000000E+00  0.00000000000E+00 -0.41123790704E+02  0.13158934456E+03  0.12499835775E+03 0.  0.
    9000005    1    3    3    0    0 -0.41470270272E+02  0.89477665413E+01 -0.68864835685E+02  0.80890119523E+02  0.10000000000E+01 0.  0.
    9000005    1    3    3    0    0  0.41470270272E+02 -0.89477665413E+01  0.27741044982E+02  0.50699225035E+02  0.10000000000E+01 0.  0.
<mgrwt>
<rscale>  0 0.12499836E+03</rscale>
<asrwt>0</asrwt>
<pdfrwt beam="1">  1        4 0.69588888E-02 0.12499836E+03</pdfrwt>
<pdfrwt beam="2">  1       -4 0.13285626E-01 0.12499836E+03</pdfrwt>
<totfact> 0.10310853E+04</totfact>
</mgrwt>
</event>
<event>
 5    1  0.3434846E-002  0.1250014E+03  0.7818608E-02  0.1235067E+00
          4   -1    0    0  501    0  0.00000000000E+00  0.00000000000E+00  0.12845397326E+03  0.12846025123E+03  0.12700000000E+01 0. -1.
         -4   -1    0    0    0  501 -0.00000000000E+00 -0.00000000000E+00 -0.30390144609E+02  0.30416669596E+02  0.12700000000E+01 0. -1.
         25    2    1    2    0    0  0.00000000000E+00  0.00000000000E+00  0.98063828648E+02  0.15887692082E+03  0.12500144592E+03 0.  0.
    9000005    1    3    3    0    0  0.51928737613E+02 -0.25356158192E+02  0.18798876579E+02  0.60777679365E+02  0.10000000000E+01 0.  0.
    9000005    1    3    3    0    0 -0.51928737613E+02  0.25356158192E+02  0.79264952068E+02  0.98099241458E+02  0.10000000000E+01 0.  0.
<mgrwt>
<rscale>  0 0.12500145E+03</rscale>
<asrwt>0</asrwt>
<pdfrwt beam="1">  1        4 0.19764673E-01 0.12500145E+03</pdfrwt>
<pdfrwt beam="2">  1       -4 0.46779302E-02 0.12500145E+03</pdfrwt>
<totfact> 0.97556573E+03</totfact>
</mgrwt>
</event>
<event>
 5    1  0.3434846E-002  0.1250284E+03  0.7818608E-02  0.1235025E+00
          4   -1    0    0  501    0  0.00000000000E+00  0.00000000000E+00  0.15274974888E+02  0.15327679466E+02  0.12700000000E+01 0. -1.
         -4   -1    0    0    0  501 -0.00000000000E+00 -0.00000000000E+00 -0.25535021436E+03  0.25535337255E+03  0.12700000000E+01 0. -1.
         25    2    1    2    0    0  0.00000000000E+00  0.00000000000E+00 -0.24007523947E+03  0.27068105202E+03  0.12502844202E+03 0.  0.
    9000005    1    3    3    0    0 -0.60025123192E+02  0.83473542898E+00 -0.15774240156E+03  0.16878204125E+03  0.10000000000E+01 0.  0.
    9000005    1    3    3    0    0  0.60025123192E+02 -0.83473542898E+00 -0.82332837907E+02  0.10189901077E+03  0.10000000000E+01 0.  0.
<mgrwt>
<rscale>  0 0.12502844E+03</rscale>
<asrwt>0</asrwt>
<pdfrwt beam="1">  1        4 0.23542935E-02 0.12502844E+03</pdfrwt>
<pdfrwt beam="2">  1       -4 0.39288942E-01 0.12502844E+03</pdfrwt>
<totfact> 0.79379879E+03</totfact>
</mgrwt>
</event>
<event>
 5    1  0.3434846E-002  0.1250016E+03  0.7818608E-02  0.1235067E+00
          4   -1    0    0  501    0  0.00000000000E+00  0.00000000000E+00  0.19889789379E+02  0.19930294066E+02  0.12700000000E+01 0.  1.
         -4   -1    0    0    0  501 -0.00000000000E+00 -0.00000000000E+00 -0.19615732815E+03  0.19616143935E+03  0.12700000000E+01 0.  1.
         25    2    1    2    0    0  0.00000000000E+00  0.00000000000E+00 -0.17626753877E+03  0.21609173342E+03  0.12500156809E+03 0.  0.
    9000005    1    3    3    0    0 -0.17001178051E+02  0.35883367583E+02 -0.17155540619E+03  0.17609347948E+03  0.10000000000E+01 0.  0.
    9000005    1    3    3    0    0  0.17001178051E+02 -0.35883367583E+02 -0.47121325865E+01  0.39998253933E+02  0.10000000000E+01 0.  0.
<mgrwt>
<rscale>  0 0.12500157E+03</rscale>
<asrwt>0</asrwt>
<pdfrwt beam="1">  1        4 0.30633997E-02 0.12500157E+03</pdfrwt>
<pdfrwt beam="2">  1       -4 0.30181481E-01 0.12500157E+03</pdfrwt>
<totfact> 0.87487520E+03</totfact>
</mgrwt>
</event>
<event>
 5    1  0.3434846E-002  0.1249983E+03  0.7818608E-02  0.1235072E+00
          4   -1    0    0  501    0  0.00000000000E+00  0.00000000000E+00  0.50593968523E+02  0.50609905659E+02  0.12700000000E+01 0.  1.
         -4   -1    0    0    0  501 -0.00000000000E+00 -0.00000000000E+00 -0.77172398662E+02  0.77182847934E+02  0.12700000000E+01 0.  1.
         25    2    1    2    0    0  0.00000000000E+00  0.00000000000E+00 -0.26578430139E+02  0.12779275359E+03  0.12499829968E+03 0.  0.
    9000005    1    3    3    0    0  0.39439027778E+02  0.19969230915E+02 -0.58446071874E+02  0.73288132824E+02  0.10000000000E+01 0.  0.
    9000005    1    3    3    0    0 -0.39439027778E+02 -0.19969230915E+02  0.31867641734E+02  0.54504620769E+02  0.10000000000E+01 0.  0.
<mgrwt>
<rscale>  0 0.12499830E+03</rscale>
<asrwt>0</asrwt>
<pdfrwt beam="1">  1        4 0.77857172E-02 0.12499830E+03</pdfrwt>
<pdfrwt beam="2">  1       -4 0.11874706E-01 0.12499830E+03</pdfrwt>
<totfact> 0.10392365E+04</totfact>
</mgrwt>
</event>
<event>
 5    1  0.3434846E-002  0.1249994E+03  0.7818608E-02  0.1235070E+00
          4   -1    0    0  501    0  0.00000000000E+00  0.00000000000E+00  0.48308178651E+02  0.48324869628E+02  0.12700000000E+01 0.  1.
         -4   -1    0    0    0  501 -0.00000000000E+00 -0.00000000000E+00 -0.80824622169E+02  0.80834599329E+02  0.12700000000E+01 0.  1.
         25    2    1    2    0    0  0.00000000000E+00  0.00000000000E+00 -0.32516443518E+02  0.12915946896E+03  0.12499939729E+03 0.  0.
    9000005    1    3    3    0    0 -0.10585692376E+02  0.45179733516E+02 -0.59507496530E+02  0.75467922636E+02  0.10000000000E+01 0.  0.
    9000005    1    3    3    0    0  0.10585692376E+02 -0.45179733516E+02  0.26991053012E+02  0.53691546321E+02  0.10000000000E+01 0.  0.
<mgrwt>
<rscale>  0 0.12499940E+03</rscale>
<asrwt>0</asrwt>
<pdfrwt beam="1">  1        4 0.74340789E-02 0.12499940E+03</pdfrwt>
<pdfrwt beam="2">  1       -4 0.12436609E-01 0.12499940E+03</pdfrwt>
<totfact> 0.10362662E+04</totfact>
</mgrwt>
</event>
<event>
 5    1  0.3434846E-002  0.1250008E+03  0.7818608E-02  0.1235068E+00
          4   -1    0    0  501    0  0.00000000000E+00  0.00000000000E+00  0.88433491958E+02  0.88442610770E+02  0.12700000000E+01 0. -1.
         -4   -1    0    0    0  501 -0.00000000000E+00 -0.00000000000E+00 -0.44151681956E+02  0.44169943621E+02  0.12700000000E+01 0. -1.
         25    2    1    2    0    0  0.00000000000E+00  0.00000000000E+00  0.44281810002E+02  0.13261255439E+03  0.12500084354E+03 0.  0.
    9000005    1    3    3    0    0 -0.61834378546E+02  0.89898578742E+01  0.21082770137E+02  0.65952946192E+02  0.10000000000E+01 0.  0.
    9000005    1    3    3    0    0  0.61834378546E+02 -0.89898578742E+01  0.23199039865E+02  0.66659608200E+02  0.10000000000E+01 0.  0.
<mgrwt>
<rscale>  0 0.12500084E+03</rscale>
<asrwt>0</asrwt>
<pdfrwt beam="1">  1        4 0.13607259E-01 0.12500084E+03</pdfrwt>
<pdfrwt beam="2">  1       -4 0.67946727E-02 0.12500084E+03</pdfrwt>
<totfact> 0.10288445E+04</totfact>
</mgrwt>
</event>
<event>
 5    1  0.3434846E-002  0.1249785E+03  0.7818608E-02  0.1235103E+00
          4   -1    0    0  501    0  0.00000000000E+00  0.00000000000E+00  0.39630190926E+02  0.39650535089E+02  0.12700000000E+01 0.  1.
         -4   -1    0    0    0  501 -0.00000000000E+00 -0.00000000000E+00 -0.98483843630E+02  0.98492031943E+02  0.12700000000E+01 0.  1.
         25    2    1    2    0    0  0.00000000000E+00  0.00000000000E+00 -0.58853652704E+02  0.13814256703E+03  0.12497846370E+03 0.  0.
    9000005    1    3    3    0    0 -0.34011620189E+02  0.47080129556E+02 -0.39663919341E+01  0.58224231828E+02  0.10000000000E+01 0.  0.
    9000005    1    3    3    0    0  0.34011620189E+02 -0.47080129556E+02 -0.54887260770E+02  0.79918335204E+02  0.10000000000E+01 0.  0.
<mgrwt>
<rscale>  0 0.12497846E+03</rscale>
<asrwt>0</asrwt>
<pdfrwt beam="1">  1        4 0.60991473E-02 0.12497846E+03</pdfrwt>
<pdfrwt beam="2">  1       -4 0.15153555E-01 0.12497846E+03</pdfrwt>
<totfact> 0.10177166E+04</totfact>
</mgrwt>
</event>
<event>
 5    1  0.3434846E-002  0.1249984E+03  0.7818608E-02  0.1235072E+00
          4   -1    0    0  501    0  0.00000000000E+00  0.00000000000E+00  0.52332072087E+02  0.52347480063E+02  0.12700000000E+01 0. -1.
         -4   -1    0    0    0  501 -0.00000000000E+00 -0.00000000000E+00 -0.74609795238E+02  0.74620603358E+02  0.12700000000E+01 0. -1.
         25    2    1    2    0    0  0.00000000000E+00  0.00000000000E+00 -0.22277723151E+02  0.12696808342E+03  0.12499838902E+03 0.  0.
    9000005    1    3    3    0    0 -0.36614809275E+02 -0.35211937882E+02  0.25830039211E+02  0.56997506553E+02  0.10000000000E+01 0.  0.
    9000005    1    3    3    0    0  0.36614809275E+02  0.35211937882E+02 -0.48107762362E+02  0.69970576867E+02  0.10000000000E+01 0.  0.
<mgrwt>
<rscale>  0 0.12499839E+03</rscale>
<asrwt>0</asrwt>
<pdfrwt beam="1">  1        4 0.80531046E-02 0.12499839E+03</pdfrwt>
<pdfrwt beam="2">  1       -4 0.11480447E-01 0.12499839E+03</pdfrwt>
<totfact> 0.10410218E+04</totfact>
</mgrwt>
</event>
<event>
 5    1  0.3434846E-002  0.1250017E+03  0.7818608E-02  0.1235067E+00
         -4   -1    0    0    0  501 -0.00000000000E+00  0.00000000000E+00  0.50348514904E+02  0.50364529711E+02  0.12700000000E+01 0. -1.
          4   -1    0    0  501    0  0.00000000000E+00 -0.00000000000E+00 -0.77552749402E+02  0.77563147433E+02  0.12700000000E+01 0. -1.
         25    2    1    2    0    0  0.00000000000E+00  0.00000000000E+00 -0.27204234498E+02  0.12792767714E+03  0.12500168081E+03 0.  0.
    9000005    1    3    3    0    0 -0.26580833297E+02 -0.40487242556E+02  0.26814032001E+02  0.55369213654E+02  0.10000000000E+01 0.  0.
    9000005    1    3    3    0    0  0.26580833297E+02  0.40487242556E+02 -0.54018266498E+02  0.72558463490E+02  0.10000000000E+01 0.  0.
<mgrwt>
<rscale>  0 0.12500168E+03</rscale>
<asrwt>0</asrwt>
<pdfrwt beam="2">  1        4 0.11933224E-01 0.12500168E+03</pdfrwt>
<pdfrwt beam="1">  1       -4 0.77479572E-02 0.12500168E+03</pdfrwt>
<totfact> 0.10388656E+04</totfact>
</mgrwt>
</event>
<event>
 5    1  0.3434846E-002  0.1249988E+03  0.7818608E-02  0.1235071E+00
          4   -1    0    0  501    0  0.00000000000E+00  0.00000000000E+00  0.58567918530E+02  0.58581686396E+02  0.12700000000E+01 0.  1.
         -4   -1    0    0    0  501 -0.00000000000E+00 -0.00000000000E+00 -0.66667098703E+02  0.66679194278E+02  0.12700000000E+01 0.  1.
         25    2    1    2    0    0  0.00000000000E+00  0.00000000000E+00 -0.80991801732E+01  0.12526088067E+03  0.12499876602E+03 0.  0.
    9000005    1    3    3    0    0 -0.24239173806E+02  0.57571697512E+02 -0.58238891423E+01  0.62745163845E+02  0.10000000000E+01 0.  0.
    9000005    1    3    3    0    0  0.24239173806E+02 -0.57571697512E+02 -0.22752910309E+01  0.62515716828E+02  0.10000000000E+01 0.  0.
<mgrwt>
<rscale>  0 0.12499877E+03</rscale>
<asrwt>0</asrwt>
<pdfrwt beam="1">  1        4 0.90124385E-02 0.12499877E+03</pdfrwt>
<pdfrwt beam="2">  1       -4 0.10258466E-01 0.12499877E+03</pdfrwt>
<totfact> 0.10447490E+04</totfact>
</mgrwt>
</event>
<event>
 5    1  0.3434846E-002  0.1250015E+03  0.7818608E-02  0.1235067E+00
          4   -1    0    0  501    0  0.00000000000E+00  0.00000000000E+00  0.92783788038E+02  0.92792479343E+02  0.12700000000E+01 0.  1.
         -4   -1    0    0    0  501 -0.00000000000E+00 -0.00000000000E+00 -0.42081333406E+02  0.42100493123E+02  0.12700000000E+01 0.  1.
         25    2    1    2    0    0  0.00000000000E+00  0.00000000000E+00  0.50702454632E+02  0.13489297247E+03  0.12500150045E+03 0.  0.
    9000005    1    3    3    0    0 -0.49905906021E+02  0.15785137673E+02 -0.11490838838E+02  0.53598595171E+02  0.10000000000E+01 0.  0.
    9000005    1    3    3    0    0  0.49905906021E+02 -0.15785137673E+02  0.62193293470E+02  0.81294377295E+02  0.10000000000E+01 0.  0.
<mgrwt>
<rscale>  0 0.12500150E+03</rscale>
<asrwt>0</asrwt>
<pdfrwt beam="1">  1        4 0.14276571E-01 0.12500150E+03</pdfrwt>
<pdfrwt beam="2">  1       -4 0.64761937E-02 0.12500150E+03</pdfrwt>
<totfact> 0.10239981E+04</totfact>
</mgrwt>
</event>
<event>
 5    1  0.3434846E-002  0.1249986E+03  0.7818608E-02  0.1235072E+00
         -4   -1    0    0    0  501 -0.00000000000E+00  0.00000000000E+00  0.41922749770E+01  0.43804188707E+01  0.12700000000E+01 0.  1.
          4   -1    0    0  501    0  0.00000000000E+00 -0.00000000000E+00 -0.91111408381E+03  0.91111496894E+03  0.12700000000E+01 0.  1.
         25    2    1    2    0    0  0.00000000000E+00  0.00000000000E+00 -0.90692180883E+03  0.91549538781E+03  0.12499855102E+03 0.  0.
    9000005    1    3    3    0    0 -0.47157404674E+01 -0.61669946840E+02 -0.51886218748E+03  0.52253649647E+03  0.10000000000E+01 0.  0.
    9000005    1    3    3    0    0  0.47157404674E+01  0.61669946840E+02 -0.38805962136E+03  0.39295889133E+03  0.10000000000E+01 0.  0.
<mgrwt>
<rscale>  0 0.12499855E+03</rscale>
<asrwt>0</asrwt>
<pdfrwt beam="2">  1        4 0.14018578E+00 0.12499855E+03</pdfrwt>
<pdfrwt beam="1">  1       -4 0.65950680E-03 0.12499855E+03</pdfrwt>
<totfact> 0.33574593E+03</totfact>
</mgrwt>
</event>
<event>
 5    1  0.3434846E-002  0.1250078E+03  0.7818608E-02  0.1235057E+00
          4   -1    0    0  501    0  0.00000000000E+00  0.00000000000E+00  0.34743747761E+02  0.34766951383E+02  0.12700000000E+01 0.  1.
         -4   -1    0    0    0  501 -0.00000000000E+00 -0.00000000000E+00 -0.11238008184E+03  0.11238725770E+03  0.12700000000E+01 0.  1.
         25    2    1    2    0    0  0.00000000000E+00  0.00000000000E+00 -0.77636334079E+02  0.14715420909E+03  0.12500784329E+03 0.  0.
    9000005    1    3    3    0    0  0.31824575974E+01  0.33794128888E+01  0.34546298361E+02  0.34871122699E+02  0.10000000000E+01 0.  0.
    9000005    1    3    3    0    0 -0.31824575974E+01 -0.33794128888E+01 -0.11218263244E+03  0.11228308639E+03  0.10000000000E+01 0.  0.
<mgrwt>
<rscale>  0 0.12500784E+03</rscale>
<asrwt>0</asrwt>
<pdfrwt beam="1">  1        4 0.53475289E-02 0.12500784E+03</pdfrwt>
<pdfrwt beam="2">  1       -4 0.17291580E-01 0.12500784E+03</pdfrwt>
<totfact> 0.99856386E+03</totfact>
</mgrwt>
</event>
<event>
 5    1  0.3434846E-002  0.1250012E+03  0.7818608E-02  0.1235067E+00
          4   -1    0    0  501    0  0.00000000000E+00  0.00000000000E+00  0.10264761338E+02  0.10343027861E+02  0.12700000000E+01 0.  1.
         -4   -1    0    0    0  501 -0.00000000000E+00 -0.00000000000E+00 -0.37903224109E+03  0.37903436874E+03  0.12700000000E+01 0.  1.
         25    2    1    2    0    0  0.00000000000E+00  0.00000000000E+00 -0.36876747975E+03  0.38937739660E+03  0.12500121144E+03 0.  0.
    9000005    1    3    3    0    0 -0.66923090739E+01 -0.47672791793E+02 -0.30850906002E+03  0.31224401066E+03  0.10000000000E+01 0.  0.
    9000005    1    3    3    0    0  0.66923090739E+01  0.47672791793E+02 -0.60258419730E+02  0.77133385939E+02  0.10000000000E+01 0.  0.
<mgrwt>
<rscale>  0 0.12500121E+03</rscale>
<asrwt>0</asrwt>
<pdfrwt beam="1">  1        4 0.15853785E-02 0.12500121E+03</pdfrwt>
<pdfrwt beam="2">  1       -4 0.58318826E-01 0.12500121E+03</pdfrwt>
<totfact> 0.65597461E+03</totfact>
</mgrwt>
</event>
<event>
 5    1  0.3434846E-002  0.1249937E+03  0.7818608E-02  0.1235079E+00
         -4   -1    0    0    0  501 -0.00000000000E+00  0.00000000000E+00  0.22349722885E+03  0.22350083714E+03  0.12700000000E+01 0.  1.
          4   -1    0    0  501    0  0.00000000000E+00 -0.00000000000E+00 -0.17449244488E+02  0.17495400344E+02  0.12700000000E+01 0.  1.
         25    2    1    2    0    0  0.00000000000E+00  0.00000000000E+00  0.20604798436E+03  0.24099623749E+03  0.12499365833E+03 0.  0.
    9000005    1    3    3    0    0 -0.35549458740E+02  0.95166357863E+01  0.20039662866E+03  0.20375018811E+03  0.10000000000E+01 0.  0.
    9000005    1    3    3    0    0  0.35549458740E+02 -0.95166357863E+01  0.56513556996E+01  0.37246049383E+02  0.10000000000E+01 0.  0.
<mgrwt>
<rscale>  0 0.12499366E+03</rscale>
<asrwt>0</asrwt>
<pdfrwt beam="2">  1        4 0.26883274E-02 0.12499366E+03</pdfrwt>
<pdfrwt beam="1">  1       -4 0.34388015E-01 0.12499366E+03</pdfrwt>
<totfact> 0.83661047E+03</totfact>
</mgrwt>
</event>
<event>
 5    1  0.3434846E-002  0.1249982E+03  0.7818608E-02  0.1235072E+00
          4   -1    0    0  501    0  0.00000000000E+00  0.00000000000E+00  0.30736264972E+03  0.30736527349E+03  0.12700000000E+01 0. -1.
         -4   -1    0    0    0  501 -0.00000000000E+00 -0.00000000000E+00 -0.12674149698E+02  0.12737620286E+02  0.12700000000E+01 0. -1.
         25    2    1    2    0    0  0.00000000000E+00  0.00000000000E+00  0.29468850003E+03  0.32010289377E+03  0.12499820220E+03 0.  0.
    9000005    1    3    3    0    0  0.27216933845E+02  0.49634911088E+02  0.21513460834E+03  0.22245962689E+03  0.10000000000E+01 0.  0.
    9000005    1    3    3    0    0 -0.27216933845E+02 -0.49634911088E+02  0.79553891682E+02  0.97643266887E+02  0.10000000000E+01 0.  0.
<mgrwt>
<rscale>  0 0.12499820E+03</rscale>
<asrwt>0</asrwt>
<pdfrwt beam="1">  1        4 0.47291649E-01 0.12499820E+03</pdfrwt>
<pdfrwt beam="2">  1       -4 0.19549532E-02 0.12499820E+03</pdfrwt>
<totfact> 0.73146800E+03</totfact>
</mgrwt>
</event>
<event>
 5    1  0.3434846E-002  0.1249951E+03  0.7818608E-02  0.1235077E+00
         -4   -1    0    0    0  501 -0.00000000000E+00  0.00000000000E+00  0.91990595877E+02  0.91999362116E+02  0.12700000000E+01 0.  1.
          4   -1    0    0  501    0  0.00000000000E+00 -0.00000000000E+00 -0.42439995134E+02  0.42458993005E+02  0.12700000000E+01 0.  1.
         25    2    1    2    0    0  0.00000000000E+00  0.00000000000E+00  0.49550600743E+02  0.13445835512E+03  0.12499514882E+03 0.  0.
    9000005    1    3    3    0    0  0.59713207338E+02 -0.29216449674E+01  0.44338523340E+02  0.74438617612E+02  0.10000000000E+01 0.  0.
    9000005    1    3    3    0    0 -0.59713207338E+02  0.29216449674E+01  0.52120774024E+01  0.60019737510E+02  0.10000000000E+01 0.  0.
<mgrwt>
<rscale>  0 0.12499515E+03</rscale>
<asrwt>0</asrwt>
<pdfrwt beam="2">  1        4 0.65313658E-02 0.12499515E+03</pdfrwt>
<pdfrwt beam="1">  1       -4 0.14154535E-01 0.12499515E+03</pdfrwt>
<totfact> 0.10250622E+04</totfact>
</mgrwt>
</event>
<event>
 5    1  0.3434846E-002  0.1249994E+03  0.7818608E-02  0.1235070E+00
          4   -1    0    0  501    0  0.00000000000E+00  0.00000000000E+00  0.19741572491E+03  0.19741980990E+03  0.12700000000E+01 0. -1.
         -4   -1    0    0    0  501 -0.00000000000E+00 -0.00000000000E+00 -0.19762067667E+02  0.19802833597E+02  0.12700000000E+01 0. -1.
         25    2    1    2    0    0  0.00000000000E+00  0.00000000000E+00  0.17765365724E+03  0.21722264350E+03  0.12499941967E+03 0.  0.
    9000005    1    3    3    0    0  0.48934850802E+02 -0.38848222384E+02  0.86763520347E+02  0.10692386295E+03  0.10000000000E+01 0.  0.
    9000005    1    3    3    0    0 -0.48934850802E+02  0.38848222384E+02  0.90890136896E+02  0.11029878055E+03  0.10000000000E+01 0.  0.
<mgrwt>
<rscale>  0 0.12499942E+03</rscale>
<asrwt>0</asrwt>
<pdfrwt beam="1">  1        4 0.30375100E-01 0.12499942E+03</pdfrwt>
<pdfrwt beam="2">  1       -4 0.30437682E-02 0.12499942E+03</pdfrwt>
<totfact> 0.87310878E+03</totfact>
</mgrwt>
</event>
<event>
 5    1  0.3434846E-002  0.1250000E+03  0.7818608E-02  0.1235069E+00
          4   -1    0    0  501    0  0.00000000000E+00  0.00000000000E+00  0.50245962733E+02  0.50262010216E+02  0.12700000000E+01 0. -1.
         -4   -1    0    0    0  501 -0.00000000000E+00 -0.00000000000E+00 -0.77708961521E+02  0.77719338653E+02  0.12700000000E+01 0. -1.
         25    2    1    2    0    0  0.00000000000E+00  0.00000000000E+00 -0.27462998788E+02  0.12798134887E+03  0.12500003742E+03 0.  0.
    9000005    1    3    3    0    0  0.18630944488E+02  0.41406430479E+01 -0.74657015467E+02  0.77064433923E+02  0.10000000000E+01 0.  0.
    9000005    1    3    3    0    0 -0.18630944488E+02 -0.41406430479E+01  0.47194016679E+02  0.50916914946E+02  0.10000000000E+01 0.  0.
<mgrwt>
<rscale>  0 0.12500004E+03</rscale>
<asrwt>0</asrwt>
<pdfrwt beam="1">  1        4 0.77321808E-02 0.12500004E+03</pdfrwt>
<pdfrwt beam="2">  1       -4 0.11957258E-01 0.12500004E+03</pdfrwt>
<totfact> 0.10387882E+04</totfact>
</mgrwt>
</event>
<event>
 5    1  0.3434846E-002  0.1250007E+03  0.7818608E-02  0.1235068E+00
         -4   -1    0    0    0  501 -0.00000000000E+00  0.00000000000E+00  0.50770094929E+03  0.50770253772E+03  0.12700000000E+01 0.  1.
          4   -1    0    0  501    0  0.00000000000E+00 -0.00000000000E+00 -0.76400615748E+01  0.77448977312E+01  0.12700000000E+01 0.  1.
         25    2    1    2    0    0  0.00000000000E+00  0.00000000000E+00  0.50006088771E+03  0.51544743545E+03  0.12500066917E+03 0.  0.
    9000005    1    3    3    0    0  0.37352114185E+02  0.48446790968E+02  0.30267970352E+03  0.30880135186E+03  0.10000000000E+01 0.  0.
    9000005    1    3    3    0    0 -0.37352114185E+02 -0.48446790968E+02  0.19738118419E+03  0.20664608359E+03  0.10000000000E+01 0.  0.
<mgrwt>
<rscale>  0 0.12500067E+03</rscale>
<asrwt>0</asrwt>
<pdfrwt beam="2">  1        4 0.11835805E-02 0.12500067E+03</pdfrwt>
<pdfrwt beam="1">  1       -4 0.78116029E-01 0.12500067E+03</pdfrwt>
<totfact> 0.54684636E+03</totfact>
</mgrwt>
</event>
<event>
 5    1  0.3434846E-002  0.1250019E+03  0.7818608E-02  0.1235066E+00
         -4   -1    0    0    0  501 -0.00000000000E+00  0.00000000000E+00  0.18499150341E+03  0.18499586275E+03  0.12700000000E+01 0.  1.
          4   -1    0    0  501    0  0.00000000000E+00 -0.00000000000E+00 -0.21092766046E+02  0.21130964945E+02  0.12700000000E+01 0.  1.
         25    2    1    2    0    0  0.00000000000E+00  0.00000000000E+00  0.16389873737E+03  0.20612682769E+03  0.12500189193E+03 0.  0.
    9000005    1    3    3    0    0  0.29992654971E+02  0.10937914586E+02  0.17053819675E+03  0.17350352699E+03  0.10000000000E+01 0.  0.
    9000005    1    3    3    0    0 -0.29992654971E+02 -0.10937914586E+02 -0.66394593871E+01  0.32623300701E+02  0.10000000000E+01 0.  0.
<mgrwt>
<rscale>  0 0.12500189E+03</rscale>
<asrwt>0</asrwt>
<pdfrwt beam="2">  1        4 0.32483145E-02 0.12500189E+03</pdfrwt>
<pdfrwt beam="1">  1       -4 0.28463506E-01 0.12500189E+03</pdfrwt>
<totfact> 0.89108581E+03</totfact>
</mgrwt>
</event>
<event>
 5    1  0.3434846E-002  0.1250003E+03  0.7818608E-02  0.1235069E+00
         -4   -1    0    0    0  501 -0.00000000000E+00  0.00000000000E+00  0.10013289411E+03  0.10014094759E+03  0.12700000000E+01 0. -1.
          4   -1    0    0  501    0  0.00000000000E+00 -0.00000000000E+00 -0.38990876395E+02  0.39011553955E+02  0.12700000000E+01 0. -1.
         25    2    1    2    0    0  0.00000000000E+00  0.00000000000E+00  0.61142017718E+02  0.13915250154E+03  0.12500028942E+03 0.  0.
    9000005    1    3    3    0    0  0.25653075237E+02  0.33359268753E+01 -0.32755893158E+02  0.41751134281E+02  0.10000000000E+01 0.  0.
    9000005    1    3    3    0    0 -0.25653075237E+02 -0.33359268753E+01  0.93897910875E+02  0.97401367259E+02  0.10000000000E+01 0.  0.
<mgrwt>
<rscale>  0 0.12500029E+03</rscale>
<asrwt>0</asrwt>
<pdfrwt beam="2">  1        4 0.60008064E-02 0.12500029E+03</pdfrwt>
<pdfrwt beam="1">  1       -4 0.15407271E-01 0.12500029E+03</pdfrwt>
<totfact> 0.10151115E+04</totfact>
</mgrwt>
</event>
<event>
 5    1  0.3434846E-002  0.1250016E+03  0.7818608E-02  0.1235067E+00
          4   -1    0    0  501    0  0.00000000000E+00  0.00000000000E+00  0.17441791306E+02  0.17487966833E+02  0.12700000000E+01 0.  1.
         -4   -1    0    0    0  501 -0.00000000000E+00 -0.00000000000E+00 -0.22362094126E+03  0.22362454755E+03  0.12700000000E+01 0.  1.
         25    2    1    2    0    0  0.00000000000E+00  0.00000000000E+00 -0.20617914995E+03  0.24111251439E+03  0.12500161087E+03 0.  0.
    9000005    1    3    3    0    0 -0.28641515538E+02 -0.49292673624E+02 -0.53714640925E+02  0.78334964959E+02  0.10000000000E+01 0.  0.
    9000005    1    3    3    0    0  0.28641515538E+02  0.49292673624E+02 -0.15246450902E+03  0.16277754943E+03  0.10000000000E+01 0.  0.
<mgrwt>
<rscale>  0 0.12500161E+03</rscale>
<asrwt>0</asrwt>
<pdfrwt beam="1">  1        4 0.26871820E-02 0.12500161E+03</pdfrwt>
<pdfrwt beam="2">  1       -4 0.34407049E-01 0.12500161E+03</pdfrwt>
<totfact> 0.83628955E+03</totfact>
</mgrwt>
</event>
<event>
 5    1  0.3434846E-002  0.1250102E+03  0.7818608E-02  0.1235053E+00
          4   -1    0    0  501    0  0.00000000000E+00  0.00000000000E+00  0.82594602855E+01  0.83565294356E+01  0.12700000000E+01 0.  1.
         -4   -1    0    0    0  501 -0.00000000000E+00 -0.00000000000E+00 -0.47015839407E+03  0.47016010934E+03  0.12700000000E+01 0.  1.
         25    2    1    2    0    0  0.00000000000E+00  0.00000000000E+00 -0.46189893378E+03  0.47851663877E+03  0.12501019380E+03 0.  0.
    9000005    1    3    3    0    0 -0.30450503090E+02 -0.54277705495E+02 -0.25279981632E+03  0.26034985997E+03  0.10000000000E+01 0.  0.
    9000005    1    3    3    0    0  0.30450503090E+02  0.54277705495E+02 -0.20909911746E+03  0.21816677881E+03  0.10000000000E+01 0.  0.
<mgrwt>
<rscale>  0 0.12501019E+03</rscale>
<asrwt>0</asrwt>
<pdfrwt beam="1">  1        4 0.12782854E-02 0.12501019E+03</pdfrwt>
<pdfrwt beam="2">  1       -4 0.72339639E-01 0.12501019E+03</pdfrwt>
<totfact> 0.57557706E+03</totfact>
</mgrwt>
</event>
<event>
 5    1  0.3434846E-002  0.1249970E+03  0.7818608E-02  0.1235074E+00
          4   -1    0    0  501    0  0.00000000000E+00  0.00000000000E+00  0.39569581873E+02  0.39589957182E+02  0.12700000000E+01 0.  1.
         -4   -1    0    0    0  501 -0.00000000000E+00 -0.00000000000E+00 -0.98663970401E+02  0.98672143766E+02  0.12700000000E+01 0.  1.
         25    2    1    2    0    0  0.00000000000E+00  0.00000000000E+00 -0.59094388528E+02  0.13826210095E+03  0.12499704718E+03 0.  0.
    9000005    1    3    3    0    0  0.30081112470E+02 -0.40386297614E+02  0.11381433392E+02  0.51637809679E+02  0.10000000000E+01 0.  0.
    9000005    1    3    3    0    0 -0.30081112470E+02  0.40386297614E+02 -0.70475821920E+02  0.86624291268E+02  0.10000000000E+01 0.  0.
<mgrwt>
<rscale>  0 0.12499705E+03</rscale>
<asrwt>0</asrwt>
<pdfrwt beam="1">  1        4 0.60898241E-02 0.12499705E+03</pdfrwt>
<pdfrwt beam="2">  1       -4 0.15181268E-01 0.12499705E+03</pdfrwt>
<totfact> 0.10170409E+04</totfact>
</mgrwt>
</event>
<event>
 5    1  0.3434846E-002  0.1250018E+03  0.7818608E-02  0.1235066E+00
          4   -1    0    0  501    0  0.00000000000E+00  0.00000000000E+00  0.23104354587E+01  0.26364771967E+01  0.12700000000E+01 0. -1.
         -4   -1    0    0    0  501 -0.00000000000E+00 -0.00000000000E+00 -0.15789872722E+04  0.15789877830E+04  0.12700000000E+01 0. -1.
         25    2    1    2    0    0  0.00000000000E+00  0.00000000000E+00 -0.15766768368E+04  0.15816242602E+04  0.12500181092E+03 0.  0.
    9000005    1    3    3    0    0 -0.59845489196E+02  0.16563397909E+02 -0.69928702665E+03  0.70203929688E+03  0.10000000000E+01 0.  0.
    9000005    1    3    3    0    0  0.59845489196E+02 -0.16563397909E+02 -0.87738981013E+03  0.87958496329E+03  0.10000000000E+01 0.  0.
<mgrwt>
<rscale>  0 0.12500181E+03</rscale>
<asrwt>0</asrwt>
<pdfrwt beam="1">  1        4 0.38057229E-03 0.12500181E+03</pdfrwt>
<pdfrwt beam="2">  1       -4 0.24294543E+00 0.12500181E+03</pdfrwt>
<totfact> 0.16379972E+03</totfact>
</mgrwt>
</event>
<event>
 5    1  0.3434846E-002  0.1249993E+03  0.7818608E-02  0.1235070E+00
          4   -1    0    0  501    0  0.00000000000E+00  0.00000000000E+00  0.11745178193E+02  0.11813640877E+02  0.12700000000E+01 0. -1.
         -4   -1    0    0    0  501 -0.00000000000E+00 -0.00000000000E+00 -0.33154332013E+03  0.33154575254E+03  0.12700000000E+01 0. -1.
         25    2    1    2    0    0  0.00000000000E+00  0.00000000000E+00 -0.31979814194E+03  0.34335939341E+03  0.12499928582E+03 0.  0.
    9000005    1    3    3    0    0  0.44261397672E+02  0.19283344056E+02 -0.26888823266E+03  0.27319004437E+03  0.10000000000E+01 0.  0.
    9000005    1    3    3    0    0 -0.44261397672E+02 -0.19283344056E+02 -0.50909909284E+02  0.70169349043E+02  0.10000000000E+01 0.  0.
<mgrwt>
<rscale>  0 0.12499929E+03</rscale>
<asrwt>0</asrwt>
<pdfrwt beam="1">  1        4 0.18124042E-02 0.12499929E+03</pdfrwt>
<pdfrwt beam="2">  1       -4 0.51012111E-01 0.12499929E+03</pdfrwt>
<totfact> 0.70462452E+03</totfact>
</mgrwt>
</event>
<event>
 5    1  0.3434846E-002  0.1249997E+03  0.7818608E-02  0.1235070E+00
         -4   -1    0    0    0  501 -0.00000000000E+00  0.00000000000E+00  0.29108176328E+03  0.29108453379E+03  0.12700000000E+01 0. -1.
          4   -1    0    0  501    0  0.00000000000E+00 -0.00000000000E+00 -0.13386811731E+02  0.13446918916E+02  0.12700000000E+01 0. -1.
         25    2    1    2    0    0  0.00000000000E+00  0.00000000000E+00  0.27769495155E+03  0.30453145271E+03  0.12499967829E+03 0.  0.
    9000005    1    3    3    0    0  0.49751806772E+02 -0.28075410734E+02  0.20056510267E+03  0.20854455489E+03  0.10000000000E+01 0.  0.
    9000005    1    3    3    0    0 -0.49751806772E+02  0.28075410734E+02  0.77129848876E+02  0.95986897818E+02  0.10000000000E+01 0.  0.
<mgrwt>
<rscale>  0 0.12499968E+03</rscale>
<asrwt>0</asrwt>
<pdfrwt beam="2">  1        4 0.20643465E-02 0.12499968E+03</pdfrwt>
<pdfrwt beam="1">  1       -4 0.44786641E-01 0.12499968E+03</pdfrwt>
<totfact> 0.75034453E+03</totfact>
</mgrwt>
</event>
<event>
 5    1  0.3434846E-002  0.1250209E+03  0.7818608E-02  0.1235037E+00
          4   -1    0    0  501    0  0.00000000000E+00  0.00000000000E+00  0.10563204755E+02  0.10639276042E+02  0.12700000000E+01 0.  1.
         -4   -1    0    0    0  501 -0.00000000000E+00 -0.00000000000E+00 -0.36851721931E+03  0.36851940767E+03  0.12700000000E+01 0.  1.
         25    2    1    2    0    0  0.00000000000E+00  0.00000000000E+00 -0.35795401456E+03  0.37915868371E+03  0.12502092183E+03 0.  0.
    9000005    1    3    3    0    0  0.31521105230E+02 -0.50610800457E+02 -0.23583822103E+03  0.24326055927E+03  0.10000000000E+01 0.  0.
    9000005    1    3    3    0    0 -0.31521105230E+02  0.50610800457E+02 -0.12211579353E+03  0.13589812444E+03  0.10000000000E+01 0.  0.
<mgrwt>
<rscale>  0 0.12502092E+03</rscale>
<asrwt>0</asrwt>
<pdfrwt beam="1">  1        4 0.16311287E-02 0.12502092E+03</pdfrwt>
<pdfrwt beam="2">  1       -4 0.56700967E-01 0.12502092E+03</pdfrwt>
<totfact> 0.66600737E+03</totfact>
</mgrwt>
</event>
<event>
 5    1  0.3434846E-002  0.1249983E+03  0.7818608E-02  0.1235072E+00
         -4   -1    0    0    0  501 -0.00000000000E+00  0.00000000000E+00  0.42766575289E+02  0.42785428150E+02  0.12700000000E+01 0. -1.
          4   -1    0    0  501    0  0.00000000000E+00 -0.00000000000E+00 -0.91293028270E+02  0.91301861485E+02  0.12700000000E+01 0. -1.
         25    2    1    2    0    0  0.00000000000E+00  0.00000000000E+00 -0.48526452980E+02  0.13408728964E+03  0.12499833840E+03 0.  0.
    9000005    1    3    3    0    0 -0.11519865423E+02  0.49376242286E+02  0.14922738534E+02  0.52862167256E+02  0.10000000000E+01 0.  0.
    9000005    1    3    3    0    0  0.11519865423E+02 -0.49376242286E+02 -0.63449191515E+02  0.81225122379E+02  0.10000000000E+01 0.  0.
<mgrwt>
<rscale>  0 0.12499834E+03</rscale>
<asrwt>0</asrwt>
<pdfrwt beam="2">  1        4 0.14047211E-01 0.12499834E+03</pdfrwt>
<pdfrwt beam="1">  1       -4 0.65816028E-02 0.12499834E+03</pdfrwt>
<totfact> 0.10257729E+04</totfact>
</mgrwt>
</event>
<event>
 5    1  0.3434846E-002  0.1249960E+03  0.7818608E-02  0.1235075E+00
         -4   -1    0    0    0  501 -0.00000000000E+00  0.00000000000E+00  0.77386054633E+02  0.77396475060E+02  0.12700000000E+01 0. -1.
          4   -1    0    0  501    0  0.00000000000E+00 -0.00000000000E+00 -0.50452439455E+02  0.50468421285E+02  0.12700000000E+01 0. -1.
         25    2    1    2    0    0  0.00000000000E+00  0.00000000000E+00  0.26933615178E+02  0.12786489634E+03  0.12499604830E+03 0.  0.
    9000005    1    3    3    0    0  0.23385876355E+02  0.43290551311E+02 -0.25940492147E+02  0.55631647275E+02  0.10000000000E+01 0.  0.
    9000005    1    3    3    0    0 -0.23385876355E+02 -0.43290551311E+02  0.52874107324E+02  0.72233249069E+02  0.10000000000E+01 0.  0.
<mgrwt>
<rscale>  0 0.12499605E+03</rscale>
<asrwt>0</asrwt>
<pdfrwt beam="2">  1        4 0.77639448E-02 0.12499605E+03</pdfrwt>
<pdfrwt beam="1">  1       -4 0.11907578E-01 0.12499605E+03</pdfrwt>
<totfact> 0.10391333E+04</totfact>
</mgrwt>
</event>
<event>
 5    1  0.3434846E-002  0.1250011E+03  0.7818608E-02  0.1235068E+00
          4   -1    0    0  501    0  0.00000000000E+00  0.00000000000E+00  0.17605684047E+03  0.17606142103E+03  0.12700000000E+01 0.  1.
         -4   -1    0    0    0  501 -0.00000000000E+00 -0.00000000000E+00 -0.22164779509E+02  0.22201133995E+02  0.12700000000E+01 0.  1.
         25    2    1    2    0    0  0.00000000000E+00  0.00000000000E+00  0.15389206096E+03  0.19826255503E+03  0.12500109719E+03 0.  0.
    9000005    1    3    3    0    0  0.23949453853E+02  0.53752491010E+02  0.43584935556E+02  0.73236283611E+02  0.10000000000E+01 0.  0.
    9000005    1    3    3    0    0 -0.23949453853E+02 -0.53752491010E+02  0.11030712540E+03  0.12502627142E+03  0.10000000000E+01 0.  0.
<mgrwt>
<rscale>  0 0.12500110E+03</rscale>
<asrwt>0</asrwt>
<pdfrwt beam="1">  1        4 0.27088816E-01 0.12500110E+03</pdfrwt>
<pdfrwt beam="2">  1       -4 0.34131150E-02 0.12500110E+03</pdfrwt>
<totfact> 0.90426980E+03</totfact>
</mgrwt>
</event>
<event>
 5    1  0.3434846E-002  0.1250019E+03  0.7818608E-02  0.1235066E+00
         -4   -1    0    0    0  501 -0.00000000000E+00  0.00000000000E+00  0.59563189883E+02  0.59576727747E+02  0.12700000000E+01 0. -1.
          4   -1    0    0  501    0  0.00000000000E+00 -0.00000000000E+00 -0.65556465453E+02  0.65568765908E+02  0.12700000000E+01 0. -1.
         25    2    1    2    0    0  0.00000000000E+00  0.00000000000E+00 -0.59932755701E+01  0.12514549366E+03  0.12500190091E+03 0.  0.
    9000005    1    3    3    0    0  0.10724603847E+01 -0.26083781688E+02  0.53847586774E+02  0.59850450623E+02  0.10000000000E+01 0.  0.
    9000005    1    3    3    0    0 -0.10724603847E+01  0.26083781688E+02 -0.59840862344E+02  0.65295043032E+02  0.10000000000E+01 0.  0.
<mgrwt>
<rscale>  0 0.12500190E+03</rscale>
<asrwt>0</asrwt>
<pdfrwt beam="2">  1        4 0.10087598E-01 0.12500190E+03</pdfrwt>
<pdfrwt beam="1">  1       -4 0.91655552E-02 0.12500190E+03</pdfrwt>
<totfact> 0.10449254E+04</totfact>
</mgrwt>
</event>
<event>
 5    1  0.3434846E-002  0.1250020E+03  0.7818608E-02  0.1235066E+00
         -4   -1    0    0    0  501 -0.00000000000E+00  0.00000000000E+00  0.25823313193E+02  0.25854523864E+02  0.12700000000E+01 0. -1.
          4   -1    0    0  501    0  0.00000000000E+00 -0.00000000000E+00 -0.15114802236E+03  0.15115335777E+03  0.12700000000E+01 0. -1.
         25    2    1    2    0    0  0.00000000000E+00  0.00000000000E+00 -0.12532470917E+03  0.17700788163E+03  0.12500202971E+03 0.  0.
    9000005    1    3    3    0    0  0.50277205936E+02 -0.10407088424E+02 -0.12213317901E+02  0.52785131053E+02  0.10000000000E+01 0.  0.
    9000005    1    3    3    0    0 -0.50277205936E+02  0.10407088424E+02 -0.11311139127E+03  0.12422275058E+03  0.10000000000E+01 0.  0.
<mgrwt>
<rscale>  0 0.12500203E+03</rscale>
<asrwt>0</asrwt>
<pdfrwt beam="2">  1        4 0.23256353E-01 0.12500203E+03</pdfrwt>
<pdfrwt beam="1">  1       -4 0.39756287E-02 0.12500203E+03</pdfrwt>
<totfact> 0.94154097E+03</totfact>
</mgrwt>
</event>
<event>
 5    1  0.3434846E-002  0.1250003E+03  0.7818608E-02  0.1235069E+00
         -4   -1    0    0    0  501 -0.00000000000E+00  0.00000000000E+00  0.87294543453E+03  0.87294635835E+03  0.12700000000E+01 0. -1.
          4   -1    0    0  501    0  0.00000000000E+00 -0.00000000000E+00 -0.43837582232E+01  0.45640153549E+01  0.12700000000E+01 0. -1.
         25    2    1    2    0    0  0.00000000000E+00  0.00000000000E+00  0.86856167630E+03  0.87751037371E+03  0.12500028168E+03 0.  0.
    9000005    1    3    3    0    0 -0.12333361209E+02 -0.26852840060E-01  0.42104678927E+01  0.13070599055E+02  0.10000000000E+01 0.  0.
    9000005    1    3    3    0    0  0.12333361209E+02  0.26852840060E-01  0.86435120841E+03  0.86443977465E+03  0.10000000000E+01 0.  0.
<mgrwt>
<rscale>  0 0.12500028E+03</rscale>
<asrwt>0</asrwt>
<pdfrwt beam="2">  1        4 0.68836084E-03 0.12500028E+03</pdfrwt>
<pdfrwt beam="1">  1       -4 0.13431333E+00 0.12500028E+03</pdfrwt>
<totfact> 0.35027010E+03</totfact>
</mgrwt>
</event>
<event>
 5    1  0.3434846E-002  0.1249988E+03  0.7818608E-02  0.1235071E+00
         -4   -1    0    0    0  501 -0.00000000000E+00  0.00000000000E+00  0.35246628982E+02  0.35269501763E+02  0.12700000000E+01 0. -1.
          4   -1    0    0  501    0  0.00000000000E+00 -0.00000000000E+00 -0.11076168484E+03  0.11076896555E+03  0.12700000000E+01 0. -1.
         25    2    1    2    0    0  0.00000000000E+00  0.00000000000E+00 -0.75515055861E+02  0.14603846731E+03  0.12499884109E+03 0.  0.
    9000005    1    3    3    0    0 -0.39012296437E+02 -0.20204534597E+02  0.14163620328E+02  0.46171318288E+02  0.10000000000E+01 0.  0.
    9000005    1    3    3    0    0  0.39012296437E+02  0.20204534597E+02 -0.89678676190E+02  0.99867149027E+02  0.10000000000E+01 0.  0.
<mgrwt>
<rscale>  0 0.12499884E+03</rscale>
<asrwt>0</asrwt>
<pdfrwt beam="2">  1        4 0.17042579E-01 0.12499884E+03</pdfrwt>
<pdfrwt beam="1">  1       -4 0.54248779E-02 0.12499884E+03</pdfrwt>
<totfact> 0.10010193E+04</totfact>
</mgrwt>
</event>
<event>
 5    1  0.3434846E-002  0.1249981E+03  0.7818608E-02  0.1235072E+00
         -4   -1    0    0    0  501 -0.00000000000E+00  0.00000000000E+00  0.25062366089E+02  0.25094523187E+02  0.12700000000E+01 0.  1.
          4   -1    0    0  501    0  0.00000000000E+00 -0.00000000000E+00 -0.15572182115E+03  0.15572699985E+03  0.12700000000E+01 0.  1.
         25    2    1    2    0    0  0.00000000000E+00  0.00000000000E+00 -0.13065945506E+03  0.18082152304E+03  0.12499811997E+03 0.  0.
    9000005    1    3    3    0    0 -0.45020127375E+02  0.21691726159E+02 -0.11960668879E+03  0.12963064011E+03  0.10000000000E+01 0.  0.
    9000005    1    3    3    0    0  0.45020127375E+02 -0.21691726159E+02 -0.11052766275E+02  0.51190882928E+02  0.10000000000E+01 0.  0.
<mgrwt>
<rscale>  0 0.12499812E+03</rscale>
<asrwt>0</asrwt>
<pdfrwt beam="2">  1        4 0.23960075E-01 0.12499812E+03</pdfrwt>
<pdfrwt beam="1">  1       -4 0.38586207E-02 0.12499812E+03</pdfrwt>
<totfact> 0.93473275E+03</totfact>
</mgrwt>
</event>
<event>
 5    1  0.3434846E-002  0.1250000E+03  0.7818608E-02  0.1235069E+00
          4   -1    0    0  501    0  0.00000000000E+00  0.00000000000E+00  0.18807397518E+02  0.18850228153E+02  0.12700000000E+01 0.  1.
         -4   -1    0    0    0  501 -0.00000000000E+00 -0.00000000000E+00 -0.20741641948E+03  0.20742030751E+03  0.12700000000E+01 0.  1.
         25    2    1    2    0    0  0.00000000000E+00  0.00000000000E+00 -0.18860902196E+03  0.22627053566E+03  0.12499996858E+03 0.  0.
    9000005    1    3    3    0    0  0.32426985886E+02 -0.35920169831E+01 -0.19078537529E+03  0.19355741118E+03  0.10000000000E+01 0.  0.
    9000005    1    3    3    0    0 -0.32426985886E+02  0.35920169831E+01  0.21763533292E+01  0.32713124483E+02  0.10000000000E+01 0.  0.
<mgrwt>
<rscale>  0 0.12499997E+03</rscale>
<asrwt>0</asrwt>
<pdfrwt beam="1">  1        4 0.28970397E-02 0.12499997E+03</pdfrwt>
<pdfrwt beam="2">  1       -4 0.31913811E-01 0.12499997E+03</pdfrwt>
<totfact> 0.85885630E+03</totfact>
</mgrwt>
</event>
<event>
 5    1  0.3434846E-002  0.1249992E+03  0.7818608E-02  0.1235070E+00
         -4   -1    0    0    0  501 -0.00000000000E+00  0.00000000000E+00  0.40900208209E+03  0.40900405384E+03  0.12700000000E+01 0. -1.
          4   -1    0    0  501    0  0.00000000000E+00 -0.00000000000E+00 -0.95063438612E+01  0.95908015102E+01  0.12700000000E+01 0. -1.
         25    2    1    2    0    0  0.00000000000E+00  0.00000000000E+00  0.39949573823E+03  0.41859485535E+03  0.12499923223E+03 0.  0.
    9000005    1    3    3    0    0  0.24187546932E+02  0.42144438023E+02  0.68161250685E+02  0.83714677194E+02  0.10000000000E+01 0.  0.
    9000005    1    3    3    0    0 -0.24187546932E+02 -0.42144438023E+02  0.33133448754E+03  0.33488017815E+03  0.10000000000E+01 0.  0.
<mgrwt>
<rscale>  0 0.12499923E+03</rscale>
<asrwt>0</asrwt>
<pdfrwt beam="2">  1        4 0.14691630E-02 0.12499923E+03</pdfrwt>
<pdfrwt beam="1">  1       -4 0.62930038E-01 0.12499923E+03</pdfrwt>
<totfact> 0.62784647E+03</totfact>
</mgrwt>
</event>
<event>
 5    1  0.3434846E-002  0.1249946E+03  0.7818608E-02  0.1235078E+00
          4   -1    0    0  501    0  0.00000000000E+00  0.00000000000E+00  0.94866796563E+02  0.94875297049E+02  0.12700000000E+01 0. -1.
         -4   -1    0    0    0  501 -0.00000000000E+00 -0.00000000000E+00 -0.41152425266E+02  0.41172017261E+02  0.12700000000E+01 0. -1.
         25    2    1    2    0    0  0.00000000000E+00  0.00000000000E+00  0.53714371296E+02  0.13604731431E+03  0.12499455207E+03 0.  0.
    9000005    1    3    3    0    0 -0.54070636912E+02  0.86383108102E+01 -0.59161009546E+01  0.55084067027E+02  0.10000000000E+01 0.  0.
    9000005    1    3    3    0    0  0.54070636912E+02 -0.86383108102E+01  0.59630472251E+02  0.80963247283E+02  0.10000000000E+01 0.  0.
<mgrwt>
<rscale>  0 0.12499455E+03</rscale>
<asrwt>0</asrwt>
<pdfrwt beam="1">  1        4 0.14597052E-01 0.12499455E+03</pdfrwt>
<pdfrwt beam="2">  1       -4 0.63333034E-02 0.12499455E+03</pdfrwt>
<totfact> 0.10217298E+04</totfact>
</mgrwt>
</event>
<event>
 5    1  0.3434846E-002  0.1249947E+03  0.7818608E-02  0.1235078E+00
         -4   -1    0    0    0  501 -0.00000000000E+00  0.00000000000E+00  0.29866059967E+02  0.29893049994E+02  0.12700000000E+01 0. -1.
          4   -1    0    0  501    0  0.00000000000E+00 -0.00000000000E+00 -0.13069198148E+03  0.13069815195E+03  0.12700000000E+01 0. -1.
         25    2    1    2    0    0  0.00000000000E+00  0.00000000000E+00 -0.10082592151E+03  0.16059120194E+03  0.12499467066E+03 0.  0.
    9000005    1    3    3    0    0 -0.20288983652E+02 -0.39384321935E+02  0.62072592939E+01  0.44747041688E+02  0.10000000000E+01 0.  0.
    9000005    1    3    3    0    0  0.20288983652E+02  0.39384321935E+02 -0.10703318080E+03  0.11584416025E+03  0.10000000000E+01 0.  0.
<mgrwt>
<rscale>  0 0.12499467E+03</rscale>
<asrwt>0</asrwt>
<pdfrwt beam="2">  1        4 0.20109009E-01 0.12499467E+03</pdfrwt>
<pdfrwt beam="1">  1       -4 0.45973293E-02 0.12499467E+03</pdfrwt>
<totfact> 0.97240574E+03</totfact>
</mgrwt>
</event>
<event>
 5    1  0.3434846E-002  0.1249695E+03  0.7818608E-02  0.1235117E+00
         -4   -1    0    0    0  501 -0.00000000000E+00  0.00000000000E+00  0.69075016506E+02  0.69086690508E+02  0.12700000000E+01 0. -1.
          4   -1    0    0  501    0  0.00000000000E+00 -0.00000000000E+00 -0.56499664542E+02  0.56513936275E+02  0.12700000000E+01 0. -1.
         25    2    1    2    0    0  0.00000000000E+00  0.00000000000E+00  0.12575351965E+02  0.12560062678E+03  0.12496950817E+03 0.  0.
    9000005    1    3    3    0    0  0.53094173579E+02  0.56558098482E+01 -0.26316329096E+02  0.59535944018E+02  0.10000000000E+01 0.  0.
    9000005    1    3    3    0    0 -0.53094173579E+02 -0.56558098482E+01  0.38891681061E+02  0.66064682765E+02  0.10000000000E+01 0.  0.
<mgrwt>
<rscale>  0 0.12496951E+03</rscale>
<asrwt>0</asrwt>
<pdfrwt beam="2">  1        4 0.86942520E-02 0.12496951E+03</pdfrwt>
<pdfrwt beam="1">  1       -4 0.10628921E-01 0.12496951E+03</pdfrwt>
<totfact> 0.10446917E+04</totfact>
</mgrwt>
</event>
<event>
 5    1  0.3434846E-002  0.1249977E+03  0.7818608E-02  0.1235073E+00
          4   -1    0    0  501    0  0.00000000000E+00  0.00000000000E+00  0.73764595418E+02  0.73775527359E+02  0.12700000000E+01 0.  1.
         -4   -1    0    0    0  501 -0.00000000000E+00 -0.00000000000E+00 -0.52931233630E+02  0.52946467243E+02  0.12700000000E+01 0.  1.
         25    2    1    2    0    0  0.00000000000E+00  0.00000000000E+00  0.20833361788E+02  0.12672199460E+03  0.12499773979E+03 0.  0.
    9000005    1    3    3    0    0  0.29509813000E+02 -0.87982700123E+01  0.65543884664E+02  0.72424025264E+02  0.10000000000E+01 0.  0.
    9000005    1    3    3    0    0 -0.29509813000E+02  0.87982700123E+01 -0.44710522876E+02  0.54297969339E+02  0.10000000000E+01 0.  0.
<mgrwt>
<rscale>  0 0.12499774E+03</rscale>
<asrwt>0</asrwt>
<pdfrwt beam="1">  1        4 0.11350412E-01 0.12499774E+03</pdfrwt>
<pdfrwt beam="2">  1       -4 0.81452794E-02 0.12499774E+03</pdfrwt>
<totfact> 0.10415723E+04</totfact>
</mgrwt>
</event>
<event>
 5    1  0.3434846E-002  0.1249951E+03  0.7818608E-02  0.1235077E+00
          4   -1    0    0  501    0  0.00000000000E+00  0.00000000000E+00  0.16838299400E+02  0.16886125272E+02  0.12700000000E+01 0. -1.
         -4   -1    0    0    0  501 -0.00000000000E+00 -0.00000000000E+00 -0.23158918133E+03  0.23159266354E+03  0.12700000000E+01 0. -1.
         25    2    1    2    0    0  0.00000000000E+00  0.00000000000E+00 -0.21475088193E+03  0.24847878882E+03  0.12499506872E+03 0.  0.
    9000005    1    3    3    0    0 -0.11544797696E+02  0.45073980933E+02 -0.24453295899E+02  0.52572899781E+02  0.10000000000E+01 0.  0.
    9000005    1    3    3    0    0  0.11544797696E+02 -0.45073980933E+02 -0.19029758603E+03  0.19590588904E+03  0.10000000000E+01 0.  0.
<mgrwt>
<rscale>  0 0.12499507E+03</rscale>
<asrwt>0</asrwt>
<pdfrwt beam="1">  1        4 0.25944545E-02 0.12499507E+03</pdfrwt>
<pdfrwt beam="2">  1       -4 0.35633049E-01 0.12499507E+03</pdfrwt>
<totfact> 0.82559659E+03</totfact>
</mgrwt>
</event>
<event>
 5    1  0.3434846E-002  0.1250000E+03  0.7818608E-02  0.1235069E+00
          4   -1    0    0  501    0  0.00000000000E+00  0.00000000000E+00  0.76626129381E+03  0.76626234626E+03  0.12700000000E+01 0.  1.
         -4   -1    0    0    0  501 -0.00000000000E+00 -0.00000000000E+00 -0.50176310796E+01  0.51758595084E+01  0.12700000000E+01 0.  1.
         25    2    1    2    0    0  0.00000000000E+00  0.00000000000E+00  0.76124366273E+03  0.77143820576E+03  0.12499996507E+03 0.  0.
    9000005    1    3    3    0    0  0.52281039868E+02 -0.33383324295E+02  0.42741730225E+03  0.43189617240E+03  0.10000000000E+01 0.  0.
    9000005    1    3    3    0    0 -0.52281039868E+02  0.33383324295E+02  0.33382636048E+03  0.33954203337E+03  0.10000000000E+01 0.  0.
<mgrwt>
<rscale>  0 0.12499997E+03</rscale>
<asrwt>0</asrwt>
<pdfrwt beam="1">  1        4 0.11789854E+00 0.12499997E+03</pdfrwt>
<pdfrwt beam="2">  1       -4 0.78419607E-03 0.12499997E+03</pdfrwt>
<totfact> 0.39569170E+03</totfact>
</mgrwt>
</event>
<event>
 5    1  0.3434846E-002  0.1249989E+03  0.7818608E-02  0.1235071E+00
          4   -1    0    0  501    0  0.00000000000E+00  0.00000000000E+00  0.11828109401E+04  0.11828116219E+04  0.12700000000E+01 0. -1.
         -4   -1    0    0    0  501 -0.00000000000E+00 -0.00000000000E+00 -0.31796502592E+01  0.34238977454E+01  0.12700000000E+01 0. -1.
         25    2    1    2    0    0  0.00000000000E+00  0.00000000000E+00  0.11796312899E+04  0.11862355197E+04  0.12499891246E+03 0.  0.
    9000005    1    3    3    0    0 -0.27021834660E+02 -0.36105084009E+02  0.17927992697E+03  0.18486765227E+03  0.10000000000E+01 0.  0.
    9000005    1    3    3    0    0  0.27021834660E+02  0.36105084009E+02  0.10003513629E+04  0.10013678674E+04  0.10000000000E+01 0.  0.
<mgrwt>
<rscale>  0 0.12499891E+03</rscale>
<asrwt>0</asrwt>
<pdfrwt beam="1">  1        4 0.18199007E+00 0.12499891E+03</pdfrwt>
<pdfrwt beam="2">  1       -4 0.50801681E-03 0.12499891E+03</pdfrwt>
<totfact> 0.25076443E+03</totfact>
</mgrwt>
</event>
<event>
 5    1  0.3434846E-002  0.1249999E+03  0.7818608E-02  0.1235069E+00
         -4   -1    0    0    0  501 -0.00000000000E+00  0.00000000000E+00  0.20981968156E+03  0.20982352507E+03  0.12700000000E+01 0. -1.
          4   -1    0    0  501    0  0.00000000000E+00 -0.00000000000E+00 -0.18591457551E+02  0.18634784514E+02  0.12700000000E+01 0. -1.
         25    2    1    2    0    0  0.00000000000E+00  0.00000000000E+00  0.19122822401E+03  0.22845830958E+03  0.12499986223E+03 0.  0.
    9000005    1    3    3    0    0  0.81299960955E+01  0.40059843256E+02  0.92221438641E+01  0.41915818204E+02  0.10000000000E+01 0.  0.
    9000005    1    3    3    0    0 -0.81299960955E+01 -0.40059843256E+02  0.18200608015E+03  0.18654249138E+03  0.10000000000E+01 0.  0.
<mgrwt>
<rscale>  0 0.12499986E+03</rscale>
<asrwt>0</asrwt>
<pdfrwt beam="2">  1        4 0.28638526E-02 0.12499986E+03</pdfrwt>
<pdfrwt beam="1">  1       -4 0.32283581E-01 0.12499986E+03</pdfrwt>
<totfact> 0.85547149E+03</totfact>
</mgrwt>
</event>
<event>
 5    1  0.3434846E-002  0.1249907E+03  0.7818608E-02  0.1235084E+00
          4   -1    0    0  501    0  0.00000000000E+00  0.00000000000E+00  0.23727017295E+02  0.23760981665E+02  0.12700000000E+01 0.  1.
         -4   -1    0    0    0  501 -0.00000000000E+00 -0.00000000000E+00 -0.16445428233E+03  0.16445918605E+03  0.12700000000E+01 0.  1.
         25    2    1    2    0    0  0.00000000000E+00  0.00000000000E+00 -0.14072726503E+03  0.18822016772E+03  0.12499067330E+03 0.  0.
    9000005    1    3    3    0    0  0.33967272740E+02  0.14081796338E+02  0.57179369351E+01  0.37225897012E+02  0.10000000000E+01 0.  0.
    9000005    1    3    3    0    0 -0.33967272740E+02 -0.14081796338E+02 -0.14644520197E+03  0.15099427070E+03  0.10000000000E+01 0.  0.
<mgrwt>
<rscale>  0 0.12499067E+03</rscale>
<asrwt>0</asrwt>
<pdfrwt beam="1">  1        4 0.36533003E-02 0.12499067E+03</pdfrwt>
<pdfrwt beam="2">  1       -4 0.25303648E-01 0.12499067E+03</pdfrwt>
<totfact> 0.92177184E+03</totfact>
</mgrwt>
</event>
<event>
 5    1  0.3434846E-002  0.1249980E+03  0.7818608E-02  0.1235072E+00
         -4   -1    0    0    0  501 -0.00000000000E+00  0.00000000000E+00  0.47894642199E+02  0.47911477241E+02  0.12700000000E+01 0. -1.
          4   -1    0    0  501    0  0.00000000000E+00 -0.00000000000E+00 -0.81520503456E+02  0.81530395460E+02  0.12700000000E+01 0. -1.
         25    2    1    2    0    0  0.00000000000E+00  0.00000000000E+00 -0.33625861257E+02  0.12944187270E+03  0.12499799944E+03 0.  0.
    9000005    1    3    3    0    0  0.18570950568E+02  0.47149968679E+01 -0.78408783373E+02  0.80722046000E+02  0.10000000000E+01 0.  0.
    9000005    1    3    3    0    0 -0.18570950568E+02 -0.47149968679E+01  0.44782922115E+02  0.48719826700E+02  0.10000000000E+01 0.  0.
<mgrwt>
<rscale>  0 0.12499800E+03</rscale>
<asrwt>0</asrwt>
<pdfrwt beam="2">  1        4 0.12543672E-01 0.12499800E+03</pdfrwt>
<pdfrwt beam="1">  1       -4 0.73704624E-02 0.12499800E+03</pdfrwt>
<totfact> 0.10356929E+04</totfact>
</mgrwt>
</event>
<event>
 5    1  0.3434846E-002  0.1250001E+03  0.7818608E-02  0.1235069E+00
         -4   -1    0    0    0  501 -0.00000000000E+00  0.00000000000E+00  0.44973618732E+02  0.44991546782E+02  0.12700000000E+01 0.  1.
          4   -1    0    0  501    0  0.00000000000E+00 -0.00000000000E+00 -0.86816780331E+02  0.86826068937E+02  0.12700000000E+01 0.  1.
         25    2    1    2    0    0  0.00000000000E+00  0.00000000000E+00 -0.41843161599E+02  0.13181761572E+03  0.12500013457E+03 0.  0.
    9000005    1    3    3    0    0 -0.45241513227E+02 -0.39554120911E+01  0.24347769929E+02  0.51538856259E+02  0.10000000000E+01 0.  0.
    9000005    1    3    3    0    0  0.45241513227E+02  0.39554120911E+01 -0.66190931529E+02  0.80278759461E+02  0.10000000000E+01 0.  0.
<mgrwt>
<rscale>  0 0.12500013E+03</rscale>
<asrwt>0</asrwt>
<pdfrwt beam="2">  1        4 0.13358521E-01 0.12500013E+03</pdfrwt>
<pdfrwt beam="1">  1       -4 0.69211119E-02 0.12500013E+03</pdfrwt>
<totfact> 0.10305561E+04</totfact>
</mgrwt>
</event>
<event>
 5    1  0.3434846E-002  0.1249998E+03  0.7818608E-02  0.1235070E+00
         -4   -1    0    0    0  501 -0.00000000000E+00  0.00000000000E+00  0.14109379046E+02  0.14166420757E+02  0.12700000000E+01 0.  1.
          4   -1    0    0  501    0  0.00000000000E+00 -0.00000000000E+00 -0.27623687181E+03  0.27623979120E+03  0.12700000000E+01 0.  1.
         25    2    1    2    0    0  0.00000000000E+00  0.00000000000E+00 -0.26212749276E+03  0.29040621196E+03  0.12499978194E+03 0.  0.
    9000005    1    3    3    0    0  0.42538776075E+02  0.11198589769E+02 -0.27939526818E+02  0.52120754423E+02  0.10000000000E+01 0.  0.
    9000005    1    3    3    0    0 -0.42538776075E+02 -0.11198589769E+02 -0.23418796594E+03  0.23828545754E+03  0.10000000000E+01 0.  0.
<mgrwt>
<rscale>  0 0.12499978E+03</rscale>
<asrwt>0</asrwt>
<pdfrwt beam="2">  1        4 0.42502589E-01 0.12499978E+03</pdfrwt>
<pdfrwt beam="1">  1       -4 0.21752863E-02 0.12499978E+03</pdfrwt>
<totfact> 0.76818617E+03</totfact>
</mgrwt>
</event>
<event>
 5    1  0.3434846E-002  0.1249976E+03  0.7818608E-02  0.1235073E+00
         -4   -1    0    0    0  501 -0.00000000000E+00  0.00000000000E+00  0.24938923870E+03  0.24939247238E+03  0.12700000000E+01 0.  1.
          4   -1    0    0  501    0  0.00000000000E+00 -0.00000000000E+00 -0.15633567102E+02  0.15685066794E+02  0.12700000000E+01 0.  1.
         25    2    1    2    0    0  0.00000000000E+00  0.00000000000E+00  0.23375567160E+03  0.26507753917E+03  0.12499755105E+03 0.  0.
    9000005    1    3    3    0    0 -0.23151257097E+02 -0.38527201843E+02  0.20894414135E+03  0.21372641436E+03  0.10000000000E+01 0.  0.
    9000005    1    3    3    0    0  0.23151257097E+02  0.38527201843E+02  0.24811530245E+02  0.51351124818E+02  0.10000000000E+01 0.  0.
<mgrwt>
<rscale>  0 0.12499755E+03</rscale>
<asrwt>0</asrwt>
<pdfrwt beam="2">  1        4 0.24093745E-02 0.12499755E+03</pdfrwt>
<pdfrwt beam="1">  1       -4 0.38371784E-01 0.12499755E+03</pdfrwt>
<totfact> 0.80203109E+03</totfact>
</mgrwt>
</event>
<event>
 5    1  0.3434846E-002  0.1250177E+03  0.7818608E-02  0.1235042E+00
         -4   -1    0    0    0  501 -0.00000000000E+00  0.00000000000E+00  0.63945228337E+02  0.63957838668E+02  0.12700000000E+01 0. -1.
          4   -1    0    0  501    0  0.00000000000E+00 -0.00000000000E+00 -0.61079527710E+02  0.61092729562E+02  0.12700000000E+01 0. -1.
         25    2    1    2    0    0  0.00000000000E+00  0.00000000000E+00  0.28657006274E+01  0.12505056823E+03  0.12501772824E+03 0.  0.
    9000005    1    3    3    0    0 -0.40219857623E+02  0.32952201240E+02  0.36124428699E+02  0.63320287923E+02  0.10000000000E+01 0.  0.
    9000005    1    3    3    0    0  0.40219857623E+02 -0.32952201240E+02 -0.33258728072E+02  0.61730280307E+02  0.10000000000E+01 0.  0.
<mgrwt>
<rscale>  0 0.12501773E+03</rscale>
<asrwt>0</asrwt>
<pdfrwt beam="2">  1        4 0.93988360E-02 0.12501773E+03</pdfrwt>
<pdfrwt beam="1">  1       -4 0.98397130E-02 0.12501773E+03</pdfrwt>
<totfact> 0.10447578E+04</totfact>
</mgrwt>
</event>
<event>
 5    1  0.3434846E-002  0.1249980E+03  0.7818608E-02  0.1235072E+00
          4   -1    0    0  501    0  0.00000000000E+00  0.00000000000E+00  0.91000849240E+01  0.91882776201E+01  0.12700000000E+01 0. -1.
         -4   -1    0    0    0  501 -0.00000000000E+00 -0.00000000000E+00 -0.42708175013E+03  0.42708363841E+03  0.12700000000E+01 0. -1.
         25    2    1    2    0    0  0.00000000000E+00  0.00000000000E+00 -0.41798166521E+03  0.43627191603E+03  0.12499804904E+03 0.  0.
    9000005    1    3    3    0    0  0.31278059629E+02  0.45925633130E+02 -0.10918934401E+03  0.12251854406E+03  0.10000000000E+01 0.  0.
    9000005    1    3    3    0    0 -0.31278059629E+02 -0.45925633130E+02 -0.30879232119E+03  0.31375337197E+03  0.10000000000E+01 0.  0.
<mgrwt>
<rscale>  0 0.12499805E+03</rscale>
<asrwt>0</asrwt>
<pdfrwt beam="1">  1        4 0.14069427E-02 0.12499805E+03</pdfrwt>
<pdfrwt beam="2">  1       -4 0.65711799E-01 0.12499805E+03</pdfrwt>
<totfact> 0.61174204E+03</totfact>
</mgrwt>
</event>
<event>
 5    1  0.3434846E-002  0.1250012E+03  0.7818608E-02  0.1235067E+00
         -4   -1    0    0    0  501 -0.00000000000E+00  0.00000000000E+00  0.14060185114E+03  0.14060758673E+03  0.12700000000E+01 0.  1.
          4   -1    0    0  501    0  0.00000000000E+00 -0.00000000000E+00 -0.27762079755E+02  0.27791113190E+02  0.12700000000E+01 0.  1.
         25    2    1    2    0    0  0.00000000000E+00  0.00000000000E+00  0.11283977139E+03  0.16839869992E+03  0.12500123250E+03 0.  0.
    9000005    1    3    3    0    0  0.82467755934E+00 -0.44849031930E+02 -0.21971672826E+01  0.44921523819E+02  0.10000000000E+01 0.  0.
    9000005    1    3    3    0    0 -0.82467755934E+00  0.44849031930E+02  0.11503693867E+03  0.12347717610E+03  0.10000000000E+01 0.  0.
<mgrwt>
<rscale>  0 0.12500123E+03</rscale>
<asrwt>0</asrwt>
<pdfrwt beam="2">  1        4 0.42737638E-02 0.12500123E+03</pdfrwt>
<pdfrwt beam="1">  1       -4 0.21633728E-01 0.12500123E+03</pdfrwt>
<totfact> 0.95744926E+03</totfact>
</mgrwt>
</event>
<event>
 5    1  0.3434846E-002  0.1249965E+03  0.7818608E-02  0.1235075E+00
         -4   -1    0    0    0  501 -0.00000000000E+00  0.00000000000E+00  0.13600632267E+03  0.13601225204E+03  0.12700000000E+01 0. -1.
          4   -1    0    0  501    0  0.00000000000E+00 -0.00000000000E+00 -0.28698904724E+02  0.28726991356E+02  0.12700000000E+01 0. -1.
         25    2    1    2    0    0  0.00000000000E+00  0.00000000000E+00  0.10730741794E+03  0.16473924340E+03  0.12499654543E+03 0.  0.
    9000005    1    3    3    0    0  0.38775601080E+02 -0.33572049830E+02  0.10070295571E+03  0.11301643711E+03  0.10000000000E+01 0.  0.
    9000005    1    3    3    0    0 -0.38775601080E+02  0.33572049830E+02  0.66044622371E+01  0.51722806288E+02  0.10000000000E+01 0.  0.
<mgrwt>
<rscale>  0 0.12499655E+03</rscale>
<asrwt>0</asrwt>
<pdfrwt beam="2">  1        4 0.44178326E-02 0.12499655E+03</pdfrwt>
<pdfrwt beam="1">  1       -4 0.20926667E-01 0.12499655E+03</pdfrwt>
<totfact> 0.96444282E+03</totfact>
</mgrwt>
</event>
<event>
 5    1  0.3434846E-002  0.1250027E+03  0.7818608E-02  0.1235065E+00
         -4   -1    0    0    0  501 -0.00000000000E+00  0.00000000000E+00  0.21423275784E+03  0.21423652217E+03  0.12700000000E+01 0. -1.
          4   -1    0    0  501    0  0.00000000000E+00 -0.00000000000E+00 -0.18208420738E+02  0.18252656951E+02  0.12700000000E+01 0. -1.
         25    2    1    2    0    0  0.00000000000E+00  0.00000000000E+00  0.19602433710E+03  0.23248917912E+03  0.12500271066E+03 0.  0.
    9000005    1    3    3    0    0  0.47766788015E+02  0.29752147725E+02  0.47467295247E+02  0.73627443590E+02  0.10000000000E+01 0.  0.
    9000005    1    3    3    0    0 -0.47766788015E+02 -0.29752147725E+02  0.14855704185E+03  0.15886173553E+03  0.10000000000E+01 0.  0.
<mgrwt>
<rscale>  0 0.12500271E+03</rscale>
<asrwt>0</asrwt>
<pdfrwt beam="2">  1        4 0.28049879E-02 0.12500271E+03</pdfrwt>
<pdfrwt beam="1">  1       -4 0.32962578E-01 0.12500271E+03</pdfrwt>
<totfact> 0.84923705E+03</totfact>
</mgrwt>
</event>
<event>
 5    1  0.3434846E-002  0.1250549E+03  0.7818608E-02  0.1234984E+00
          4   -1    0    0  501    0  0.00000000000E+00  0.00000000000E+00  0.10237413696E+03  0.10238201413E+03  0.12700000000E+01 0.  1.
         -4   -1    0    0    0  501 -0.00000000000E+00 -0.00000000000E+00 -0.38170213275E+02  0.38191335162E+02  0.12700000000E+01 0.  1.
         25    2    1    2    0    0  0.00000000000E+00  0.00000000000E+00  0.64203923682E+02  0.14057334929E+03  0.12505487881E+03 0.  0.
    9000005    1    3    3    0    0  0.84577800369E+01  0.23187460110E+02 -0.32467274644E+02  0.40796032556E+02  0.10000000000E+01 0.  0.
    9000005    1    3    3    0    0 -0.84577800369E+01 -0.23187460110E+02  0.96671198326E+02  0.99777316737E+02  0.10000000000E+01 0.  0.
<mgrwt>
<rscale>  0 0.12505488E+03</rscale>
<asrwt>0</asrwt>
<pdfrwt beam="1">  1        4 0.15752098E-01 0.12505488E+03</pdfrwt>
<pdfrwt beam="2">  1       -4 0.58745712E-02 0.12505488E+03</pdfrwt>
<totfact> 0.10109213E+04</totfact>
</mgrwt>
</event>
<event>
 5    1  0.3434846E-002  0.1249928E+03  0.7818608E-02  0.1235081E+00
         -4   -1    0    0    0  501 -0.00000000000E+00  0.00000000000E+00  0.29970367773E+03  0.29970636854E+03  0.12700000000E+01 0. -1.
          4   -1    0    0  501    0  0.00000000000E+00 -0.00000000000E+00 -0.12998511642E+02  0.13060406001E+02  0.12700000000E+01 0. -1.
         25    2    1    2    0    0  0.00000000000E+00  0.00000000000E+00  0.28670516608E+03  0.31276677454E+03  0.12499281178E+03 0.  0.
    9000005    1    3    3    0    0 -0.72186374394E+01  0.22264100753E+02 -0.16285078438E+01  0.23482992710E+02  0.10000000000E+01 0.  0.
    9000005    1    3    3    0    0  0.72186374394E+01 -0.22264100753E+02  0.28833367393E+03  0.28928378183E+03  0.10000000000E+01 0.  0.
<mgrwt>
<rscale>  0 0.12499281E+03</rscale>
<asrwt>0</asrwt>
<pdfrwt beam="2">  1        4 0.20047392E-02 0.12499281E+03</pdfrwt>
<pdfrwt beam="1">  1       -4 0.46113224E-01 0.12499281E+03</pdfrwt>
<totfact> 0.74036563E+03</totfact>
</mgrwt>
</event>
<event>
 5    1  0.3434846E-002  0.1249950E+03  0.7818608E-02  0.1235077E+00
         -4   -1    0    0    0  501 -0.00000000000E+00  0.00000000000E+00  0.77398995104E+02  0.77409413789E+02  0.12700000000E+01 0. -1.
          4   -1    0    0  501    0  0.00000000000E+00 -0.00000000000E+00 -0.50443128357E+02  0.50459113136E+02  0.12700000000E+01 0. -1.
         25    2    1    2    0    0  0.00000000000E+00  0.00000000000E+00  0.26955866747E+02  0.12786852693E+03  0.12499496560E+03 0.  0.
    9000005    1    3    3    0    0  0.60877177101E+02  0.64931164592E+01  0.67036312729E+00  0.61234309336E+02  0.10000000000E+01 0.  0.
    9000005    1    3    3    0    0 -0.60877177101E+02 -0.64931164592E+01  0.26285503620E+02  0.66634217589E+02  0.10000000000E+01 0.  0.
<mgrwt>
<rscale>  0 0.12499497E+03</rscale>
<asrwt>0</asrwt>
<pdfrwt beam="2">  1        4 0.77625124E-02 0.12499497E+03</pdfrwt>
<pdfrwt beam="1">  1       -4 0.11909569E-01 0.12499497E+03</pdfrwt>
<totfact> 0.10391509E+04</totfact>
</mgrwt>
</event>
<event>
 5    1  0.3434846E-002  0.1249958E+03  0.7818608E-02  0.1235076E+00
         -4   -1    0    0    0  501 -0.00000000000E+00  0.00000000000E+00  0.15438207834E+02  0.15490357037E+02  0.12700000000E+01 0. -1.
          4   -1    0    0  501    0  0.00000000000E+00 -0.00000000000E+00 -0.25252729743E+03  0.25253049093E+03  0.12700000000E+01 0. -1.
         25    2    1    2    0    0  0.00000000000E+00  0.00000000000E+00 -0.23708908960E+03  0.26802084796E+03  0.12499575408E+03 0.  0.
    9000005    1    3    3    0    0  0.55968109938E+02  0.25307264994E+02 -0.93899997218E+02  0.11221005512E+03  0.10000000000E+01 0.  0.
    9000005    1    3    3    0    0 -0.55968109938E+02 -0.25307264994E+02 -0.14318909238E+03  0.15581079285E+03  0.10000000000E+01 0.  0.
<mgrwt>
<rscale>  0 0.12499575E+03</rscale>
<asrwt>0</asrwt>
<pdfrwt beam="2">  1        4 0.38854608E-01 0.12499575E+03</pdfrwt>
<pdfrwt beam="1">  1       -4 0.23793662E-02 0.12499575E+03</pdfrwt>
<totfact> 0.79801000E+03</totfact>
</mgrwt>
</event>
<event>
 5    1  0.3434846E-002  0.1249982E+03  0.7818608E-02  0.1235072E+00
         -4   -1    0    0    0  501 -0.00000000000E+00  0.00000000000E+00  0.17132206559E+04  0.17132211266E+04  0.12700000000E+01 0. -1.
          4   -1    0    0  501    0  0.00000000000E+00 -0.00000000000E+00 -0.21026354932E+01  0.24564152779E+01  0.12700000000E+01 0. -1.
         25    2    1    2    0    0  0.00000000000E+00  0.00000000000E+00  0.17111180204E+04  0.17156775419E+04  0.12499819206E+03 0.  0.
    9000005    1    3    3    0    0  0.14762840089E+02  0.43813661943E+01  0.16868375142E+04  0.16869080998E+04  0.10000000000E+01 0.  0.
    9000005    1    3    3    0    0 -0.14762840089E+02 -0.43813661943E+01  0.24280506146E+02  0.28769442051E+02  0.10000000000E+01 0.  0.
<mgrwt>
<rscale>  0 0.12499819E+03</rscale>
<asrwt>0</asrwt>
<pdfrwt beam="2">  1        4 0.35073289E-03 0.12499819E+03</pdfrwt>
<pdfrwt beam="1">  1       -4 0.26359931E+00 0.12499819E+03</pdfrwt>
<totfact> 0.14048607E+03</totfact>
</mgrwt>
</event>
<event>
 5    1  0.3434846E-002  0.1250018E+03  0.7818608E-02  0.1235066E+00
         -4   -1    0    0    0  501 -0.00000000000E+00  0.00000000000E+00  0.31546079096E+03  0.31546334737E+03  0.12700000000E+01 0.  1.
          4   -1    0    0  501    0  0.00000000000E+00 -0.00000000000E+00 -0.12347859662E+02  0.12412998761E+02  0.12700000000E+01 0.  1.
         25    2    1    2    0    0  0.00000000000E+00  0.00000000000E+00  0.30311293130E+03  0.32787634613E+03  0.12500179691E+03 0.  0.
    9000005    1    3    3    0    0 -0.97864911743E+01  0.19173933679E+02  0.30544133861E+03  0.30620063108E+03  0.10000000000E+01 0.  0.
    9000005    1    3    3    0    0  0.97864911743E+01 -0.19173933679E+02 -0.23284073135E+01  0.21675715048E+02  0.10000000000E+01 0.  0.
<mgrwt>
<rscale>  0 0.12500180E+03</rscale>
<asrwt>0</asrwt>
<pdfrwt beam="2">  1        4 0.19048781E-02 0.12500180E+03</pdfrwt>
<pdfrwt beam="1">  1       -4 0.48537636E-01 0.12500180E+03</pdfrwt>
<totfact> 0.72226152E+03</totfact>
</mgrwt>
</event>
<event>
 5    1  0.3434846E-002  0.1250007E+03  0.7818608E-02  0.1235068E+00
         -4   -1    0    0    0  501 -0.00000000000E+00  0.00000000000E+00  0.48389977609E+03  0.48390144265E+03  0.12700000000E+01 0.  1.
          4   -1    0    0  501    0  0.00000000000E+00 -0.00000000000E+00 -0.80208813282E+01  0.81208027486E+01  0.12700000000E+01 0.  1.
         25    2    1    2    0    0  0.00000000000E+00  0.00000000000E+00  0.47587889476E+03  0.49202224540E+03  0.12500066995E+03 0.  0.
    9000005    1    3    3    0    0 -0.16975516858E+02 -0.57701137136E+02  0.30470373129E+03  0.31058485678E+03  0.10000000000E+01 0.  0.
    9000005    1    3    3    0    0  0.16975516858E+02  0.57701137136E+02  0.17117516347E+03  0.18143738862E+03  0.10000000000E+01 0.  0.
<mgrwt>
<rscale>  0 0.12500067E+03</rscale>
<asrwt>0</asrwt>
<pdfrwt beam="2">  1        4 0.12417961E-02 0.12500067E+03</pdfrwt>
<pdfrwt beam="1">  1       -4 0.74453943E-01 0.12500067E+03</pdfrwt>
<totfact> 0.56487860E+03</totfact>
</mgrwt>
</event>
<event>
 5    1  0.3434846E-002  0.1249938E+03  0.7818608E-02  0.1235079E+00
         -4   -1    0    0    0  501 -0.00000000000E+00  0.00000000000E+00  0.13604372123E+03  0.13604964897E+03  0.12700000000E+01 0.  1.
          4   -1    0    0  501    0  0.00000000000E+00 -0.00000000000E+00 -0.28689734984E+02  0.28717830584E+02  0.12700000000E+01 0.  1.
         25    2    1    2    0    0  0.00000000000E+00  0.00000000000E+00  0.10735398624E+03  0.16476747956E+03  0.12499377567E+03 0.  0.
    9000005    1    3    3    0    0  0.34007513621E+02 -0.40986904551E+02  0.10589139550E+02  0.54309918098E+02  0.10000000000E+01 0.  0.
    9000005    1    3    3    0    0 -0.34007513621E+02  0.40986904551E+02  0.96764846695E+02  0.11045756146E+03  0.10000000000E+01 0.  0.
<mgrwt>
<rscale>  0 0.12499378E+03</rscale>
<asrwt>0</asrwt>
<pdfrwt beam="2">  1        4 0.44164226E-02 0.12499378E+03</pdfrwt>
<pdfrwt beam="1">  1       -4 0.20932420E-01 0.12499378E+03</pdfrwt>
<totfact> 0.96444931E+03</totfact>
</mgrwt>
</event>
<event>
 5    1  0.3434846E-002  0.1249960E+03  0.7818608E-02  0.1235076E+00
          4   -1    0    0  501    0  0.00000000000E+00  0.00000000000E+00  0.16997447200E+03  0.16997921647E+03  0.12700000000E+01 0.  1.
         -4   -1    0    0    0  501 -0.00000000000E+00 -0.00000000000E+00 -0.22957293330E+02  0.22992394766E+02  0.12700000000E+01 0.  1.
         25    2    1    2    0    0  0.00000000000E+00  0.00000000000E+00  0.14701717867E+03  0.19297161123E+03  0.12499596761E+03 0.  0.
    9000005    1    3    3    0    0 -0.62090793223E+01  0.88415945615E+01 -0.21512054702E+02  0.24093462971E+02  0.10000000000E+01 0.  0.
    9000005    1    3    3    0    0  0.62090793223E+01 -0.88415945615E+01  0.16852923337E+03  0.16887814826E+03  0.10000000000E+01 0.  0.
<mgrwt>
<rscale>  0 0.12499597E+03</rscale>
<asrwt>0</asrwt>
<pdfrwt beam="1">  1        4 0.26152984E-01 0.12499597E+03</pdfrwt>
<pdfrwt beam="2">  1       -4 0.35349564E-02 0.12499597E+03</pdfrwt>
<totfact> 0.91341067E+03</totfact>
</mgrwt>
</event>
<event>
 5    1  0.3434846E-002  0.1249953E+03  0.7818608E-02  0.1235077E+00
          4   -1    0    0  501    0  0.00000000000E+00  0.00000000000E+00  0.10745220693E+02  0.10820012372E+02  0.12700000000E+01 0.  1.
         -4   -1    0    0    0  501 -0.00000000000E+00 -0.00000000000E+00 -0.36216992170E+03  0.36217214841E+03  0.12700000000E+01 0.  1.
         25    2    1    2    0    0  0.00000000000E+00  0.00000000000E+00 -0.35142470100E+03  0.37299216078E+03  0.12499532602E+03 0.  0.
    9000005    1    3    3    0    0  0.39754976078E+02 -0.37165754953E+02 -0.26735746205E+03  0.27284201285E+03  0.10000000000E+01 0.  0.
    9000005    1    3    3    0    0 -0.39754976078E+02  0.37165754953E+02 -0.84067238952E+02  0.10015014792E+03  0.10000000000E+01 0.  0.
<mgrwt>
<rscale>  0 0.12499533E+03</rscale>
<asrwt>0</asrwt>
<pdfrwt beam="1">  1        4 0.16590356E-02 0.12499533E+03</pdfrwt>
<pdfrwt beam="2">  1       -4 0.55724365E-01 0.12499533E+03</pdfrwt>
<totfact> 0.67274013E+03</totfact>
</mgrwt>
</event>
<event>
 5    1  0.3434846E-002  0.1250012E+03  0.7818608E-02  0.1235067E+00
         -4   -1    0    0    0  501 -0.00000000000E+00  0.00000000000E+00  0.48240217059E+01  0.49883950744E+01  0.12700000000E+01 0.  1.
          4   -1    0    0  501    0  0.00000000000E+00 -0.00000000000E+00 -0.79603495287E+03  0.79603596596E+03  0.12700000000E+01 0.  1.
         25    2    1    2    0    0  0.00000000000E+00  0.00000000000E+00 -0.79121093117E+03  0.80102436103E+03  0.12500115746E+03 0.  0.
    9000005    1    3    3    0    0  0.10928683015E+02  0.59199930584E+02 -0.50307401563E+03  0.50666412256E+03  0.10000000000E+01 0.  0.
    9000005    1    3    3    0    0 -0.10928683015E+02 -0.59199930584E+02 -0.28813691554E+03  0.29436023847E+03  0.10000000000E+01 0.  0.
<mgrwt>
<rscale>  0 0.12500116E+03</rscale>
<asrwt>0</asrwt>
<pdfrwt beam="2">  1        4 0.12247954E+00 0.12500116E+03</pdfrwt>
<pdfrwt beam="1">  1       -4 0.75487985E-03 0.12500116E+03</pdfrwt>
<totfact> 0.38218097E+03</totfact>
</mgrwt>
</event>
<event>
 5    1  0.3434846E-002  0.1249975E+03  0.7818608E-02  0.1235073E+00
          4   -1    0    0  501    0  0.00000000000E+00  0.00000000000E+00  0.71954992493E+01  0.73067167351E+01  0.12700000000E+01 0.  1.
         -4   -1    0    0    0  501 -0.00000000000E+00 -0.00000000000E+00 -0.53857750098E+03  0.53857899835E+03  0.12700000000E+01 0.  1.
         25    2    1    2    0    0  0.00000000000E+00  0.00000000000E+00 -0.53138200173E+03  0.54588571509E+03  0.12499752865E+03 0.  0.
    9000005    1    3    3    0    0 -0.68472378944E+00  0.46345279963E+02 -0.82647522176E+02  0.94762686451E+02  0.10000000000E+01 0.  0.
    9000005    1    3    3    0    0  0.68472378944E+00 -0.46345279963E+02 -0.44873447956E+03  0.45112302864E+03  0.10000000000E+01 0.  0.
<mgrwt>
<rscale>  0 0.12499753E+03</rscale>
<asrwt>0</asrwt>
<pdfrwt beam="1">  1        4 0.11156707E-02 0.12499753E+03</pdfrwt>
<pdfrwt beam="2">  1       -4 0.82866716E-01 0.12499753E+03</pdfrwt>
<totfact> 0.52474911E+03</totfact>
</mgrwt>
</event>
<event>
 5    1  0.3434846E-002  0.1249997E+03  0.7818608E-02  0.1235070E+00
         -4   -1    0    0    0  501 -0.00000000000E+00  0.00000000000E+00  0.22338382278E+03  0.22338743290E+03  0.12700000000E+01 0. -1.
          4   -1    0    0  501    0  0.00000000000E+00 -0.00000000000E+00 -0.17459815191E+02  0.17505943177E+02  0.12700000000E+01 0. -1.
         25    2    1    2    0    0  0.00000000000E+00  0.00000000000E+00  0.20592400759E+03  0.24089337608E+03  0.12499968695E+03 0.  0.
    9000005    1    3    3    0    0 -0.21404479888E+01 -0.58529265054E+02  0.60961850653E+02  0.84543501349E+02  0.10000000000E+01 0.  0.
    9000005    1    3    3    0    0  0.21404479888E+01  0.58529265054E+02  0.14496215693E+03  0.15634987473E+03  0.10000000000E+01 0.  0.
<mgrwt>
<rscale>  0 0.12499969E+03</rscale>
<asrwt>0</asrwt>
<pdfrwt beam="2">  1        4 0.26899516E-02 0.12499969E+03</pdfrwt>
<pdfrwt beam="1">  1       -4 0.34370566E-01 0.12499969E+03</pdfrwt>
<totfact> 0.83665080E+03</totfact>
</mgrwt>
</event>
<event>
 5    1  0.3434846E-002  0.1250530E+03  0.7818608E-02  0.1234986E+00
          4   -1    0    0  501    0  0.00000000000E+00  0.00000000000E+00  0.14783976424E+02  0.14838425082E+02  0.12700000000E+01 0.  1.
         -4   -1    0    0    0  501 -0.00000000000E+00 -0.00000000000E+00 -0.26390408732E+03  0.26390714314E+03  0.12700000000E+01 0.  1.
         25    2    1    2    0    0  0.00000000000E+00  0.00000000000E+00 -0.24912011089E+03  0.27874556823E+03  0.12505303737E+03 0.  0.
    9000005    1    3    3    0    0  0.38975492787E+02 -0.13383982117E+02 -0.19764271506E+02  0.45714838329E+02  0.10000000000E+01 0.  0.
    9000005    1    3    3    0    0 -0.38975492787E+02  0.13383982117E+02 -0.22935583939E+03  0.23303072990E+03  0.10000000000E+01 0.  0.
<mgrwt>
<rscale>  0 0.12505304E+03</rscale>
<asrwt>0</asrwt>
<pdfrwt beam="1">  1        4 0.22788815E-02 0.12505304E+03</pdfrwt>
<pdfrwt beam="2">  1       -4 0.40605049E-01 0.12505304E+03</pdfrwt>
<totfact> 0.78252430E+03</totfact>
</mgrwt>
</event>
<event>
 5    1  0.3434846E-002  0.1250105E+03  0.7818608E-02  0.1235053E+00
          4   -1    0    0  501    0  0.00000000000E+00  0.00000000000E+00  0.34308593292E+03  0.34308828349E+03  0.12700000000E+01 0.  1.
         -4   -1    0    0    0  501 -0.00000000000E+00 -0.00000000000E+00 -0.11349745677E+02  0.11420579097E+02  0.12700000000E+01 0.  1.
         25    2    1    2    0    0  0.00000000000E+00  0.00000000000E+00  0.33173618724E+03  0.35450886258E+03  0.12501054246E+03 0.  0.
    9000005    1    3    3    0    0  0.40771374735E+02  0.25194600534E+02  0.27961415042E+03  0.28369375391E+03  0.10000000000E+01 0.  0.
    9000005    1    3    3    0    0 -0.40771374735E+02 -0.25194600534E+02  0.52122036820E+02  0.70815108671E+02  0.10000000000E+01 0.  0.
<mgrwt>
<rscale>  0 0.12501054E+03</rscale>
<asrwt>0</asrwt>
<pdfrwt beam="1">  1        4 0.52788080E-01 0.12501054E+03</pdfrwt>
<pdfrwt beam="2">  1       -4 0.17517443E-02 0.12501054E+03</pdfrwt>
<totfact> 0.69215211E+03</totfact>
</mgrwt>
</event>
<event>
 5    1  0.3434846E-002  0.1250029E+03  0.7818608E-02  0.1235065E+00
          4   -1    0    0  501    0  0.00000000000E+00  0.00000000000E+00  0.71073373255E+01  0.72199130091E+01  0.12700000000E+01 0.  1.
         -4   -1    0    0    0  501 -0.00000000000E+00 -0.00000000000E+00 -0.54520112470E+03  0.54520260387E+03  0.12700000000E+01 0.  1.
         25    2    1    2    0    0  0.00000000000E+00  0.00000000000E+00 -0.53809378737E+03  0.55242251688E+03  0.12500285257E+03 0.  0.
    9000005    1    3    3    0    0 -0.38005436210E+02  0.27917288111E+02 -0.87821947313E+02  0.99686922848E+02  0.10000000000E+01 0.  0.
    9000005    1    3    3    0    0  0.38005436210E+02 -0.27917288111E+02 -0.45027184006E+03  0.45273559403E+03  0.10000000000E+01 0.  0.
<mgrwt>
<rscale>  0 0.12500285E+03</rscale>
<asrwt>0</asrwt>
<pdfrwt beam="1">  1        4 0.11022104E-02 0.12500285E+03</pdfrwt>
<pdfrwt beam="2">  1       -4 0.83885837E-01 0.12500285E+03</pdfrwt>
<totfact> 0.52012252E+03</totfact>
</mgrwt>
</event>
<event>
 4    1  0.3434846E-002  0.1248366E+03  0.7818608E-02  0.1235325E+00
         -4   -1    0    0    0  501 -0.00000000000E+00  0.00000000000E+00  0.44535385636E+01  0.46310804072E+01  0.12700000000E+01 0.  1.
          4   -1    0    0  501    0  0.00000000000E+00 -0.00000000000E+00 -0.85754452726E+03  0.85754546768E+03  0.12700000000E+01 0.  1.
    9000005    1    1    2    0    0  0.53638646253E+02  0.31783760138E+02 -0.40734423182E+03  0.41208935315E+03  0.10000000000E+01 0.  0.
    9000005    1    1    2    0    0 -0.53638646253E+02 -0.31783760138E+02 -0.44574675688E+03  0.45008719494E+03  0.10000000000E+01 0.  0.
<mgrwt>
<rscale>  0 0.12483655E+03</rscale>
<asrwt>0</asrwt>
<pdfrwt beam="2">  1        4 0.13194353E+00 0.12483655E+03</pdfrwt>
<pdfrwt beam="1">  1       -4 0.69888987E-03 0.12483655E+03</pdfrwt>
<totfact> 0.35761667E+03</totfact>
</mgrwt>
</event>
<event>
 5    1  0.3434846E-002  0.1249958E+03  0.7818608E-02  0.1235076E+00
          4   -1    0    0  501    0  0.00000000000E+00  0.00000000000E+00  0.61021167295E+03  0.61021299454E+03  0.12700000000E+01 0. -1.
         -4   -1    0    0    0  501 -0.00000000000E+00 -0.00000000000E+00 -0.63367015715E+01  0.64627151265E+01  0.12700000000E+01 0. -1.
         25    2    1    2    0    0  0.00000000000E+00  0.00000000000E+00  0.60387497138E+03  0.61667570967E+03  0.12499579927E+03 0.  0.
    9000005    1    3    3    0    0 -0.44892993154E+02 -0.26014139373E+02  0.13011944508E+03  0.14008635290E+03  0.10000000000E+01 0.  0.
    9000005    1    3    3    0    0  0.44892993154E+02  0.26014139373E+02  0.47375552630E+03  0.47658935676E+03  0.10000000000E+01 0.  0.
<mgrwt>
<rscale>  0 0.12499580E+03</rscale>
<asrwt>0</asrwt>
<pdfrwt beam="1">  1        4 0.93888484E-01 0.12499580E+03</pdfrwt>
<pdfrwt beam="2">  1       -4 0.98467249E-03 0.12499580E+03</pdfrwt>
<totfact> 0.47836046E+03</totfact>
</mgrwt>
</event>
<event>
 5    1  0.3434846E-002  0.1249983E+03  0.7818608E-02  0.1235072E+00
         -4   -1    0    0    0  501 -0.00000000000E+00  0.00000000000E+00  0.23844333441E+03  0.23844671653E+03  0.12700000000E+01 0. -1.
          4   -1    0    0  501    0  0.00000000000E+00 -0.00000000000E+00 -0.16353722639E+02  0.16402961445E+02  0.12700000000E+01 0. -1.
         25    2    1    2    0    0  0.00000000000E+00  0.00000000000E+00  0.22208961177E+03  0.25484967797E+03  0.12499825082E+03 0.  0.
    9000005    1    3    3    0    0 -0.52735513427E+02 -0.33456848978E+02  0.10660336644E+03  0.12355433159E+03  0.10000000000E+01 0.  0.
    9000005    1    3    3    0    0  0.52735513427E+02  0.33456848978E+02  0.11548624533E+03  0.13129534638E+03  0.10000000000E+01 0.  0.
<mgrwt>
<rscale>  0 0.12499825E+03</rscale>
<asrwt>0</asrwt>
<pdfrwt beam="2">  1        4 0.25200051E-02 0.12499825E+03</pdfrwt>
<pdfrwt beam="1">  1       -4 0.36687637E-01 0.12499825E+03</pdfrwt>
<totfact> 0.81637492E+03</totfact>
</mgrwt>
</event>
<event>
 5    1  0.3434846E-002  0.1250086E+03  0.7818608E-02  0.1235056E+00
          4   -1    0    0  501    0  0.00000000000E+00  0.00000000000E+00  0.23097243677E+02  0.23132132748E+02  0.12700000000E+01 0. -1.
         -4   -1    0    0    0  501 -0.00000000000E+00 -0.00000000000E+00 -0.16898025242E+03  0.16898502481E+03  0.12700000000E+01 0. -1.
         25    2    1    2    0    0  0.00000000000E+00  0.00000000000E+00 -0.14588300875E+03  0.19211715755E+03  0.12500859965E+03 0.  0.
    9000005    1    3    3    0    0 -0.53061561379E+02 -0.28377571369E+02 -0.98884915978E+02  0.11575855243E+03  0.10000000000E+01 0.  0.
    9000005    1    3    3    0    0  0.53061561379E+02  0.28377571369E+02 -0.46998092768E+02  0.76358605125E+02  0.10000000000E+01 0.  0.
<mgrwt>
<rscale>  0 0.12500860E+03</rscale>
<asrwt>0</asrwt>
<pdfrwt beam="1">  1        4 0.35564731E-02 0.12500860E+03</pdfrwt>
<pdfrwt beam="2">  1       -4 0.26000012E-01 0.12500860E+03</pdfrwt>
<totfact> 0.91462620E+03</totfact>
</mgrwt>
</event>
<event>
 5    1  0.3434846E-002  0.1250014E+03  0.7818608E-02  0.1235067E+00
         -4   -1    0    0    0  501 -0.00000000000E+00  0.00000000000E+00  0.71436424548E+03  0.71436537438E+03  0.12700000000E+01 0. -1.
          4   -1    0    0  501    0  0.00000000000E+00 -0.00000000000E+00 -0.53933826153E+01  0.55408912672E+01  0.12700000000E+01 0. -1.
         25    2    1    2    0    0  0.00000000000E+00  0.00000000000E+00  0.70897086286E+03  0.71990626565E+03  0.12500138773E+03 0.  0.
    9000005    1    3    3    0    0 -0.20921178398E+02 -0.54067077642E+02  0.48885998777E+03  0.49228653468E+03  0.10000000000E+01 0.  0.
    9000005    1    3    3    0    0  0.20921178398E+02  0.54067077642E+02  0.22011087509E+03  0.22761973097E+03  0.10000000000E+01 0.  0.
<mgrwt>
<rscale>  0 0.12500139E+03</rscale>
<asrwt>0</asrwt>
<pdfrwt beam="2">  1        4 0.84118525E-03 0.12500139E+03</pdfrwt>
<pdfrwt beam="1">  1       -4 0.10991357E+00 0.12500139E+03</pdfrwt>
<totfact> 0.42055218E+03</totfact>
</mgrwt>
</event>
<event>
 5    1  0.3434846E-002  0.1250016E+03  0.7818608E-02  0.1235067E+00
          4   -1    0    0  501    0  0.00000000000E+00  0.00000000000E+00  0.19079288567E+02  0.19121510197E+02  0.12700000000E+01 0.  1.
         -4   -1    0    0    0  501 -0.00000000000E+00 -0.00000000000E+00 -0.20447259753E+03  0.20447654154E+03  0.12700000000E+01 0.  1.
         25    2    1    2    0    0  0.00000000000E+00  0.00000000000E+00 -0.18539330896E+03  0.22359805174E+03  0.12500163892E+03 0.  0.
    9000005    1    3    3    0    0 -0.52651194206E+02 -0.33471720700E+02 -0.86284976787E+02  0.10648286978E+03  0.10000000000E+01 0.  0.
    9000005    1    3    3    0    0  0.52651194206E+02  0.33471720700E+02 -0.99108332177E+02  0.11711518196E+03  0.10000000000E+01 0.  0.
<mgrwt>
<rscale>  0 0.12500164E+03</rscale>
<asrwt>0</asrwt>
<pdfrwt beam="1">  1        4 0.29388265E-02 0.12500164E+03</pdfrwt>
<pdfrwt beam="2">  1       -4 0.31460872E-01 0.12500164E+03</pdfrwt>
<totfact> 0.86299030E+03</totfact>
</mgrwt>
</event>
<event>
 5    1  0.3434846E-002  0.1249943E+03  0.7818608E-02  0.1235078E+00
         -4   -1    0    0    0  501 -0.00000000000E+00  0.00000000000E+00  0.80463177853E+02  0.80473199826E+02  0.12700000000E+01 0. -1.
          4   -1    0    0  501    0  0.00000000000E+00 -0.00000000000E+00 -0.48521255989E+02  0.48537873694E+02  0.12700000000E+01 0. -1.
         25    2    1    2    0    0  0.00000000000E+00  0.00000000000E+00  0.31941921865E+02  0.12901107352E+03  0.12499428274E+03 0.  0.
    9000005    1    3    3    0    0  0.25660588887E+02 -0.23128934227E+02  0.69716198098E+02  0.77812349263E+02  0.10000000000E+01 0.  0.
    9000005    1    3    3    0    0 -0.25660588887E+02  0.23128934227E+02 -0.37774276234E+02  0.51198724257E+02  0.10000000000E+01 0.  0.
<mgrwt>
<rscale>  0 0.12499428E+03</rscale>
<asrwt>0</asrwt>
<pdfrwt beam="2">  1        4 0.74668579E-02 0.12499428E+03</pdfrwt>
<pdfrwt beam="1">  1       -4 0.12381000E-01 0.12499428E+03</pdfrwt>
<totfact> 0.10367047E+04</totfact>
</mgrwt>
</event>
<event>
 5    1  0.3434846E-002  0.1250018E+03  0.7818608E-02  0.1235066E+00
         -4   -1    0    0    0  501 -0.00000000000E+00  0.00000000000E+00  0.12579887748E+02  0.12643831530E+02  0.12700000000E+01 0. -1.
          4   -1    0    0  501    0  0.00000000000E+00 -0.00000000000E+00 -0.30967191074E+03  0.30967451493E+03  0.12700000000E+01 0. -1.
         25    2    1    2    0    0  0.00000000000E+00  0.00000000000E+00 -0.29709202299E+03  0.32231834646E+03  0.12500178536E+03 0.  0.
    9000005    1    3    3    0    0  0.56287089521E+02 -0.15647733398E+02 -0.91335994877E+02  0.10842671243E+03  0.10000000000E+01 0.  0.
    9000005    1    3    3    0    0 -0.56287089521E+02  0.15647733398E+02 -0.20575602811E+03  0.21389163404E+03  0.10000000000E+01 0.  0.
<mgrwt>
<rscale>  0 0.12500179E+03</rscale>
<asrwt>0</asrwt>
<pdfrwt beam="2">  1        4 0.47646946E-01 0.12500179E+03</pdfrwt>
<pdfrwt beam="1">  1       -4 0.19404867E-02 0.12500179E+03</pdfrwt>
<totfact> 0.72878353E+03</totfact>
</mgrwt>
</event>
<event>
 5    1  0.3434846E-002  0.1250007E+03  0.7818608E-02  0.1235068E+00
          4   -1    0    0  501    0  0.00000000000E+00  0.00000000000E+00  0.15049646896E+02  0.15103137809E+02  0.12700000000E+01 0.  1.
         -4   -1    0    0    0  501 -0.00000000000E+00 -0.00000000000E+00 -0.25904484078E+03  0.25904795393E+03  0.12700000000E+01 0.  1.
         25    2    1    2    0    0  0.00000000000E+00  0.00000000000E+00 -0.24399519389E+03  0.27415109174E+03  0.12500066585E+03 0.  0.
    9000005    1    3    3    0    0  0.31251957810E+02 -0.38647423847E+02 -0.20507847707E+03  0.21101774806E+03  0.10000000000E+01 0.  0.
    9000005    1    3    3    0    0 -0.31251957810E+02  0.38647423847E+02 -0.38916716814E+02  0.63133343682E+02  0.10000000000E+01 0.  0.
<mgrwt>
<rscale>  0 0.12500067E+03</rscale>
<asrwt>0</asrwt>
<pdfrwt beam="1">  1        4 0.23196846E-02 0.12500067E+03</pdfrwt>
<pdfrwt beam="2">  1       -4 0.39857403E-01 0.12500067E+03</pdfrwt>
<totfact> 0.78958907E+03</totfact>
</mgrwt>
</event>
<event>
 5    1  0.3434846E-002  0.1249905E+03  0.7818608E-02  0.1235084E+00
         -4   -1    0    0    0  501 -0.00000000000E+00  0.00000000000E+00  0.45875562546E+02  0.45893138255E+02  0.12700000000E+01 0. -1.
          4   -1    0    0  501    0  0.00000000000E+00 -0.00000000000E+00 -0.85097212865E+02  0.85106689146E+02  0.12700000000E+01 0. -1.
         25    2    1    2    0    0  0.00000000000E+00  0.00000000000E+00 -0.39221650319E+02  0.13099982740E+03  0.12499046734E+03 0.  0.
    9000005    1    3    3    0    0  0.79606117192E+01 -0.61182533688E+02 -0.29985239217E+02  0.68606037186E+02  0.10000000000E+01 0.  0.
    9000005    1    3    3    0    0 -0.79606117192E+01  0.61182533688E+02 -0.92364111021E+01  0.62393790215E+02  0.10000000000E+01 0.  0.
<mgrwt>
<rscale>  0 0.12499047E+03</rscale>
<asrwt>0</asrwt>
<pdfrwt beam="2">  1        4 0.13093960E-01 0.12499047E+03</pdfrwt>
<pdfrwt beam="1">  1       -4 0.70598598E-02 0.12499047E+03</pdfrwt>
<totfact> 0.10325313E+04</totfact>
</mgrwt>
</event>
<event>
 5    1  0.3434846E-002  0.1249980E+03  0.7818608E-02  0.1235072E+00
          4   -1    0    0  501    0  0.00000000000E+00  0.00000000000E+00  0.96035869258E+02  0.96044266274E+02  0.12700000000E+01 0.  1.
         -4   -1    0    0    0  501 -0.00000000000E+00 -0.00000000000E+00 -0.40653494956E+02  0.40673327281E+02  0.12700000000E+01 0.  1.
         25    2    1    2    0    0  0.00000000000E+00  0.00000000000E+00  0.55382374302E+02  0.13671759355E+03  0.12499797200E+03 0.  0.
    9000005    1    3    3    0    0 -0.43259806705E+02  0.34576669325E+01 -0.21488516461E+02  0.48436790526E+02  0.10000000000E+01 0.  0.
    9000005    1    3    3    0    0  0.43259806705E+02 -0.34576669325E+01  0.76870890763E+02  0.88280803029E+02  0.10000000000E+01 0.  0.
<mgrwt>
<rscale>  0 0.12499797E+03</rscale>
<asrwt>0</asrwt>
<pdfrwt beam="1">  1        4 0.14776921E-01 0.12499797E+03</pdfrwt>
<pdfrwt beam="2">  1       -4 0.62565554E-02 0.12499797E+03</pdfrwt>
<totfact> 0.10202460E+04</totfact>
</mgrwt>
</event>
<event>
 5    1  0.3434846E-002  0.1250034E+03  0.7818608E-02  0.1235064E+00
         -4   -1    0    0    0  501 -0.00000000000E+00  0.00000000000E+00  0.12262907766E+04  0.12262914342E+04  0.12700000000E+01 0.  1.
          4   -1    0    0  501    0  0.00000000000E+00 -0.00000000000E+00 -0.30583312170E+01  0.33115388919E+01  0.12700000000E+01 0.  1.
         25    2    1    2    0    0  0.00000000000E+00  0.00000000000E+00  0.12232324454E+04  0.12296029731E+04  0.12500342428E+03 0.  0.
    9000005    1    3    3    0    0 -0.61947687987E+01 -0.58769345619E+02  0.41165262745E+03  0.41587389535E+03  0.10000000000E+01 0.  0.
    9000005    1    3    3    0    0  0.61947687987E+01  0.58769345619E+02  0.81157981791E+03  0.81372907775E+03  0.10000000000E+01 0.  0.
<mgrwt>
<rscale>  0 0.12500342E+03</rscale>
<asrwt>0</asrwt>
<pdfrwt beam="2">  1        4 0.49004010E-03 0.12500342E+03</pdfrwt>
<pdfrwt beam="1">  1       -4 0.18867984E+00 0.12500342E+03</pdfrwt>
<totfact> 0.23948964E+03</totfact>
</mgrwt>
</event>
<event>
 5    1  0.3434846E-002  0.1249981E+03  0.7818608E-02  0.1235072E+00
          4   -1    0    0  501    0  0.00000000000E+00  0.00000000000E+00  0.62433114866E+02  0.62446030554E+02  0.12700000000E+01 0.  1.
         -4   -1    0    0    0  501 -0.00000000000E+00 -0.00000000000E+00 -0.62539235119E+02  0.62552128895E+02  0.12700000000E+01 0.  1.
         25    2    1    2    0    0  0.00000000000E+00  0.00000000000E+00 -0.10612025285E+00  0.12499815945E+03  0.12499811440E+03 0.  0.
    9000005    1    3    3    0    0  0.24422020715E+02  0.34991381443E+02  0.45601093925E+02  0.62460320511E+02  0.10000000000E+01 0.  0.
    9000005    1    3    3    0    0 -0.24422020715E+02 -0.34991381443E+02 -0.45707214178E+02  0.62537838938E+02  0.10000000000E+01 0.  0.
<mgrwt>
<rscale>  0 0.12499811E+03</rscale>
<asrwt>0</asrwt>
<pdfrwt beam="1">  1        4 0.96070799E-02 0.12499811E+03</pdfrwt>
<pdfrwt beam="2">  1       -4 0.96234062E-02 0.12499811E+03</pdfrwt>
<totfact> 0.10453348E+04</totfact>
</mgrwt>
</event>
<event>
 5    1  0.3434846E-002  0.1249901E+03  0.7818608E-02  0.1235085E+00
         -4   -1    0    0    0  501 -0.00000000000E+00  0.00000000000E+00  0.46218238117E+03  0.46218412604E+03  0.12700000000E+01 0.  1.
          4   -1    0    0  501    0  0.00000000000E+00 -0.00000000000E+00 -0.84009243442E+01  0.84963774537E+01  0.12700000000E+01 0.  1.
         25    2    1    2    0    0  0.00000000000E+00  0.00000000000E+00  0.45378145683E+03  0.47068050350E+03  0.12499010285E+03 0.  0.
    9000005    1    3    3    0    0 -0.11710218306E+02 -0.22786742503E+02  0.12267651092E+02  0.28422880044E+02  0.10000000000E+01 0.  0.
    9000005    1    3    3    0    0  0.11710218306E+02  0.22786742503E+02  0.44151380574E+03  0.44225762345E+03  0.10000000000E+01 0.  0.
<mgrwt>
<rscale>  0 0.12499010E+03</rscale>
<asrwt>0</asrwt>
<pdfrwt beam="2">  1        4 0.12999271E-02 0.12499010E+03</pdfrwt>
<pdfrwt beam="1">  1       -4 0.71112435E-01 0.12499010E+03</pdfrwt>
<totfact> 0.58225884E+03</totfact>
</mgrwt>
</event>
<event>
 5    1  0.3434846E-002  0.1250020E+03  0.7818608E-02  0.1235066E+00
          4   -1    0    0  501    0  0.00000000000E+00  0.00000000000E+00  0.25101615749E+03  0.25101937021E+03  0.12700000000E+01 0. -1.
         -4   -1    0    0    0  501 -0.00000000000E+00 -0.00000000000E+00 -0.15533004657E+02  0.15584836658E+02  0.12700000000E+01 0. -1.
         25    2    1    2    0    0  0.00000000000E+00  0.00000000000E+00  0.23548315284E+03  0.26660420687E+03  0.12500195139E+03 0.  0.
    9000005    1    3    3    0    0 -0.22308791693E+02 -0.31855676832E-01  0.24224467676E+03  0.24327179578E+03  0.10000000000E+01 0.  0.
    9000005    1    3    3    0    0  0.22308791693E+02  0.31855676832E-01 -0.67615239271E+01  0.23332411092E+02  0.10000000000E+01 0.  0.
<mgrwt>
<rscale>  0 0.12500195E+03</rscale>
<asrwt>0</asrwt>
<pdfrwt beam="1">  1        4 0.38622099E-01 0.12500195E+03</pdfrwt>
<pdfrwt beam="2">  1       -4 0.23939276E-02 0.12500195E+03</pdfrwt>
<totfact> 0.79984627E+03</totfact>
</mgrwt>
</event>
<event>
 5    1  0.3434846E-002  0.1249980E+03  0.7818608E-02  0.1235072E+00
         -4   -1    0    0    0  501 -0.00000000000E+00  0.00000000000E+00  0.88862765427E+03  0.88862856179E+03  0.12700000000E+01 0.  1.
          4   -1    0    0  501    0  0.00000000000E+00 -0.00000000000E+00 -0.43030200862E+01  0.44865222458E+01  0.12700000000E+01 0.  1.
         25    2    1    2    0    0  0.00000000000E+00  0.00000000000E+00  0.88432463418E+03  0.89311508404E+03  0.12499797883E+03 0.  0.
    9000005    1    3    3    0    0 -0.16497068313E+02  0.98976979506E+01  0.17347642215E+02  0.25924088760E+02  0.10000000000E+01 0.  0.
    9000005    1    3    3    0    0  0.16497068313E+02 -0.98976979506E+01  0.86697699197E+03  0.86719099528E+03  0.10000000000E+01 0.  0.
<mgrwt>
<rscale>  0 0.12499798E+03</rscale>
<asrwt>0</asrwt>
<pdfrwt beam="2">  1        4 0.67618770E-03 0.12499798E+03</pdfrwt>
<pdfrwt beam="1">  1       -4 0.13672628E+00 0.12499798E+03</pdfrwt>
<totfact> 0.34426372E+03</totfact>
</mgrwt>
</event>
<event>
 5    1  0.3434846E-002  0.1250010E+03  0.7818608E-02  0.1235068E+00
         -4   -1    0    0    0  501 -0.00000000000E+00  0.00000000000E+00  0.12798922098E+02  0.12861776972E+02  0.12700000000E+01 0. -1.
          4   -1    0    0  501    0  0.00000000000E+00 -0.00000000000E+00 -0.30439458537E+03  0.30439723472E+03  0.12700000000E+01 0. -1.
         25    2    1    2    0    0  0.00000000000E+00  0.00000000000E+00 -0.29159566327E+03  0.31725901169E+03  0.12500099863E+03 0.  0.
    9000005    1    3    3    0    0 -0.26526780892E+02 -0.30568146779E+02 -0.24947362009E+02  0.47554732396E+02  0.10000000000E+01 0.  0.
    9000005    1    3    3    0    0  0.26526780892E+02  0.30568146779E+02 -0.26664830127E+03  0.26970427929E+03  0.10000000000E+01 0.  0.
<mgrwt>
<rscale>  0 0.12500100E+03</rscale>
<asrwt>0</asrwt>
<pdfrwt beam="2">  1        4 0.46834970E-01 0.12500100E+03</pdfrwt>
<pdfrwt beam="1">  1       -4 0.19741039E-02 0.12500100E+03</pdfrwt>
<totfact> 0.73481695E+03</totfact>
</mgrwt>
</event>
<event>
 5    1  0.3434846E-002  0.1249987E+03  0.7818608E-02  0.1235071E+00
          4   -1    0    0  501    0  0.00000000000E+00  0.00000000000E+00  0.11557855784E+03  0.11558553514E+03  0.12700000000E+01 0.  1.
         -4   -1    0    0    0  501 -0.00000000000E+00 -0.00000000000E+00 -0.33776739332E+02  0.33800606798E+02  0.12700000000E+01 0.  1.
         25    2    1    2    0    0  0.00000000000E+00  0.00000000000E+00  0.81801818509E+02  0.14938614193E+03  0.12499872756E+03 0.  0.
    9000005    1    3    3    0    0  0.21427811123E+02 -0.54760275778E+02  0.66177558302E+02  0.88534220026E+02  0.10000000000E+01 0.  0.
    9000005    1    3    3    0    0 -0.21427811123E+02  0.54760275778E+02  0.15624260207E+02  0.60851921908E+02  0.10000000000E+01 0.  0.
<mgrwt>
<rscale>  0 0.12499873E+03</rscale>
<asrwt>0</asrwt>
<pdfrwt beam="1">  1        4 0.17783689E-01 0.12499873E+03</pdfrwt>
<pdfrwt beam="2">  1       -4 0.51987942E-02 0.12499873E+03</pdfrwt>
<totfact> 0.99429050E+03</totfact>
</mgrwt>
</event>
<event>
 5    1  0.3434846E-002  0.1250005E+03  0.7818608E-02  0.1235068E+00
          4   -1    0    0  501    0  0.00000000000E+00  0.00000000000E+00  0.22073935535E+02  0.22110439390E+02  0.12700000000E+01 0.  1.
         -4   -1    0    0    0  501 -0.00000000000E+00 -0.00000000000E+00 -0.17677864429E+03  0.17678320615E+03  0.12700000000E+01 0.  1.
         25    2    1    2    0    0  0.00000000000E+00  0.00000000000E+00 -0.15470470876E+03  0.19889364554E+03  0.12500054130E+03 0.  0.
    9000005    1    3    3    0    0 -0.67608456012E+01  0.57682942340E+02 -0.11406097432E+03  0.12799975286E+03  0.10000000000E+01 0.  0.
    9000005    1    3    3    0    0  0.67608456012E+01 -0.57682942340E+02 -0.40643734437E+02  0.70893892679E+02  0.10000000000E+01 0.  0.
<mgrwt>
<rscale>  0 0.12500054E+03</rscale>
<asrwt>0</asrwt>
<pdfrwt beam="1">  1        4 0.33991491E-02 0.12500054E+03</pdfrwt>
<pdfrwt beam="2">  1       -4 0.27199873E-01 0.12500054E+03</pdfrwt>
<totfact> 0.90321344E+03</totfact>
</mgrwt>
</event>
<event>
 5    1  0.3434846E-002  0.1249982E+03  0.7818608E-02  0.1235072E+00
          4   -1    0    0  501    0  0.00000000000E+00  0.00000000000E+00  0.21242398830E+03  0.21242778468E+03  0.12700000000E+01 0. -1.
         -4   -1    0    0    0  501 -0.00000000000E+00 -0.00000000000E+00 -0.18362511347E+02  0.18406377237E+02  0.12700000000E+01 0. -1.
         25    2    1    2    0    0  0.00000000000E+00  0.00000000000E+00  0.19406147695E+03  0.23083416192E+03  0.12499821388E+03 0.  0.
    9000005    1    3    3    0    0  0.34769789935E+02  0.89337176207E+00  0.11551495335E+01  0.34814806846E+02  0.10000000000E+01 0.  0.
    9000005    1    3    3    0    0 -0.34769789935E+02 -0.89337176207E+00  0.19290632742E+03  0.19601935507E+03  0.10000000000E+01 0.  0.
<mgrwt>
<rscale>  0 0.12499821E+03</rscale>
<asrwt>0</asrwt>
<pdfrwt beam="1">  1        4 0.32684282E-01 0.12499821E+03</pdfrwt>
<pdfrwt beam="2">  1       -4 0.28286679E-02 0.12499821E+03</pdfrwt>
<totfact> 0.85185067E+03</totfact>
</mgrwt>
</event>
<event>
 5    1  0.3434846E-002  0.1249998E+03  0.7818608E-02  0.1235070E+00
         -4   -1    0    0    0  501 -0.00000000000E+00  0.00000000000E+00  0.39838592031E+02  0.39858829824E+02  0.12700000000E+01 0.  1.
          4   -1    0    0  501    0  0.00000000000E+00 -0.00000000000E+00 -0.98002288644E+02  0.98010517188E+02  0.12700000000E+01 0.  1.
         25    2    1    2    0    0  0.00000000000E+00  0.00000000000E+00 -0.58163696613E+02  0.13786934701E+03  0.12499976497E+03 0.  0.
    9000005    1    3    3    0    0  0.60415051936E+02  0.48083625435E+01 -0.12277170100E+02  0.61845191862E+02  0.10000000000E+01 0.  0.
    9000005    1    3    3    0    0 -0.60415051936E+02 -0.48083625435E+01 -0.45886526513E+02  0.76024155150E+02  0.10000000000E+01 0.  0.
<mgrwt>
<rscale>  0 0.12499976E+03</rscale>
<asrwt>0</asrwt>
<pdfrwt beam="2">  1        4 0.15079465E-01 0.12499976E+03</pdfrwt>
<pdfrwt beam="1">  1       -4 0.61312039E-02 0.12499976E+03</pdfrwt>
<totfact> 0.10177991E+04</totfact>
</mgrwt>
</event>
<event>
 5    1  0.3434846E-002  0.1250021E+03  0.7818608E-02  0.1235066E+00
         -4   -1    0    0    0  501 -0.00000000000E+00  0.00000000000E+00  0.33871811541E+03  0.33872049629E+03  0.12700000000E+01 0. -1.
          4   -1    0    0  501    0  0.00000000000E+00 -0.00000000000E+00 -0.11495446337E+02  0.11565387433E+02  0.12700000000E+01 0. -1.
         25    2    1    2    0    0  0.00000000000E+00  0.00000000000E+00  0.32722266908E+03  0.35028588373E+03  0.12500210070E+03 0.  0.
    9000005    1    3    3    0    0 -0.25253028856E+01 -0.47381069405E+02  0.49644596349E+02  0.68679901276E+02  0.10000000000E+01 0.  0.
    9000005    1    3    3    0    0  0.25253028856E+01  0.47381069405E+02  0.27757807273E+03  0.28160598245E+03  0.10000000000E+01 0.  0.
<mgrwt>
<rscale>  0 0.12500210E+03</rscale>
<asrwt>0</asrwt>
<pdfrwt beam="2">  1        4 0.17740935E-02 0.12500210E+03</pdfrwt>
<pdfrwt beam="1">  1       -4 0.52116041E-01 0.12500210E+03</pdfrwt>
<totfact> 0.69689876E+03</totfact>
</mgrwt>
</event>
<event>
 5    1  0.3434846E-002  0.1249997E+03  0.7818608E-02  0.1235070E+00
         -4   -1    0    0    0  501 -0.00000000000E+00  0.00000000000E+00  0.66137315523E+02  0.66149507970E+02  0.12700000000E+01 0.  1.
          4   -1    0    0  501    0  0.00000000000E+00 -0.00000000000E+00 -0.59037957752E+02  0.59051616028E+02  0.12700000000E+01 0.  1.
         25    2    1    2    0    0  0.00000000000E+00  0.00000000000E+00  0.70993577708E+01  0.12520112400E+03  0.12499968228E+03 0.  0.
    9000005    1    3    3    0    0 -0.16523817818E+02  0.50201274725E+02  0.36950466807E+02  0.64494507802E+02  0.10000000000E+01 0.  0.
    9000005    1    3    3    0    0  0.16523817818E+02 -0.50201274725E+02 -0.29851109036E+02  0.60706616196E+02  0.10000000000E+01 0.  0.
<mgrwt>
<rscale>  0 0.12499968E+03</rscale>
<asrwt>0</asrwt>
<pdfrwt beam="2">  1        4 0.90847513E-02 0.12499968E+03</pdfrwt>
<pdfrwt beam="1">  1       -4 0.10176960E-01 0.12499968E+03</pdfrwt>
<totfact> 0.10448571E+04</totfact>
</mgrwt>
</event>
<event>
 5    1  0.3434846E-002  0.1250072E+03  0.7818608E-02  0.1235058E+00
          4   -1    0    0  501    0  0.00000000000E+00  0.00000000000E+00  0.20313652861E+03  0.20314049856E+03  0.12700000000E+01 0. -1.
         -4   -1    0    0    0  501 -0.00000000000E+00 -0.00000000000E+00 -0.19206757248E+02  0.19248699281E+02  0.12700000000E+01 0. -1.
         25    2    1    2    0    0  0.00000000000E+00  0.00000000000E+00  0.18392977136E+03  0.22238919784E+03  0.12500717789E+03 0.  0.
    9000005    1    3    3    0    0  0.45862999322E+01  0.25210338396E+02  0.19337014935E+03  0.19506309227E+03  0.10000000000E+01 0.  0.
    9000005    1    3    3    0    0 -0.45862999322E+01 -0.25210338396E+02 -0.94403779837E+01  0.27326105569E+02  0.10000000000E+01 0.  0.
<mgrwt>
<rscale>  0 0.12500718E+03</rscale>
<asrwt>0</asrwt>
<pdfrwt beam="1">  1        4 0.31255306E-01 0.12500718E+03</pdfrwt>
<pdfrwt beam="2">  1       -4 0.29584174E-02 0.12500718E+03</pdfrwt>
<totfact> 0.86477833E+03</totfact>
</mgrwt>
</event>
<event>
 5    1  0.3434846E-002  0.1250019E+03  0.7818608E-02  0.1235066E+00
          4   -1    0    0  501    0  0.00000000000E+00  0.00000000000E+00  0.12301668955E+03  0.12302324499E+03  0.12700000000E+01 0. -1.
         -4   -1    0    0    0  501 -0.00000000000E+00 -0.00000000000E+00 -0.31734684766E+02  0.31760086857E+02  0.12700000000E+01 0. -1.
         25    2    1    2    0    0  0.00000000000E+00  0.00000000000E+00  0.91282004787E+02  0.15478333185E+03  0.12500190167E+03 0.  0.
    9000005    1    3    3    0    0  0.61545755583E+02  0.44014132213E+01  0.33375697637E+02  0.70158318548E+02  0.10000000000E+01 0.  0.
    9000005    1    3    3    0    0 -0.61545755583E+02 -0.44014132213E+01  0.57906307150E+02  0.84625013302E+02  0.10000000000E+01 0.  0.
<mgrwt>
<rscale>  0 0.12500190E+03</rscale>
<asrwt>0</asrwt>
<pdfrwt beam="1">  1        4 0.18928103E-01 0.12500190E+03</pdfrwt>
<pdfrwt beam="2">  1       -4 0.48847175E-02 0.12500190E+03</pdfrwt>
<totfact> 0.98353844E+03</totfact>
</mgrwt>
</event>
<event>
 4    1  0.3434846E-002  0.1260463E+03  0.7818608E-02  0.1233443E+00
          4   -1    0    0  501    0  0.00000000000E+00  0.00000000000E+00  0.48683080574E+02  0.48699643060E+02  0.12700000000E+01 0. -1.
         -4   -1    0    0    0  501 -0.00000000000E+00 -0.00000000000E+00 -0.81551891633E+02  0.81561779830E+02  0.12700000000E+01 0. -1.
    9000005    1    1    2    0    0  0.42911639699E+02  0.38732310772E+02  0.94907315939E+01  0.58589032298E+02  0.10000000000E+01 0.  0.
    9000005    1    1    2    0    0 -0.42911639699E+02 -0.38732310772E+02 -0.42359542653E+02  0.71672390592E+02  0.10000000000E+01 0.  0.
<mgrwt>
<rscale>  0 0.12604634E+03</rscale>
<asrwt>0</asrwt>
<pdfrwt beam="1">  1        4 0.74917394E-02 0.12604634E+03</pdfrwt>
<pdfrwt beam="2">  1       -4 0.12548480E-01 0.12604634E+03</pdfrwt>
<totfact> 0.10098478E+04</totfact>
</mgrwt>
</event>
<event>
 5    1  0.3434846E-002  0.1250057E+03  0.7818608E-02  0.1235060E+00
         -4   -1    0    0    0  501 -0.00000000000E+00  0.00000000000E+00  0.46019693941E+02  0.46037214625E+02  0.12700000000E+01 0. -1.
          4   -1    0    0  501    0  0.00000000000E+00 -0.00000000000E+00 -0.84851393521E+02  0.84860897252E+02  0.12700000000E+01 0. -1.
         25    2    1    2    0    0  0.00000000000E+00  0.00000000000E+00 -0.38831699580E+02  0.13089811188E+03  0.12500565907E+03 0.  0.
    9000005    1    3    3    0    0 -0.56441250807E+01 -0.38826034278E+02 -0.70353321101E+02  0.80559958265E+02  0.10000000000E+01 0.  0.
    9000005    1    3    3    0    0  0.56441250807E+01  0.38826034278E+02  0.31521621521E+02  0.50338153612E+02  0.10000000000E+01 0.  0.
<mgrwt>
<rscale>  0 0.12500566E+03</rscale>
<asrwt>0</asrwt>
<pdfrwt beam="2">  1        4 0.13056139E-01 0.12500566E+03</pdfrwt>
<pdfrwt beam="1">  1       -4 0.70820318E-02 0.12500566E+03</pdfrwt>
<totfact> 0.10323956E+04</totfact>
</mgrwt>
</event>
<event>
 5    1  0.3434846E-002  0.1250026E+03  0.7818608E-02  0.1235065E+00
          4   -1    0    0  501    0  0.00000000000E+00  0.00000000000E+00  0.86136983633E+02  0.86146345537E+02  0.12700000000E+01 0. -1.
         -4   -1    0    0    0  501 -0.00000000000E+00 -0.00000000000E+00 -0.45330466579E+02  0.45348253552E+02  0.12700000000E+01 0. -1.
         25    2    1    2    0    0  0.00000000000E+00  0.00000000000E+00  0.40806517054E+02  0.13149459909E+03  0.12500263099E+03 0.  0.
    9000005    1    3    3    0    0 -0.48921301711E+02 -0.36547292987E+02  0.34375233921E+02  0.70083201218E+02  0.10000000000E+01 0.  0.
    9000005    1    3    3    0    0  0.48921301711E+02  0.36547292987E+02  0.64312831332E+01  0.61411397872E+02  0.10000000000E+01 0.  0.
<mgrwt>
<rscale>  0 0.12500263E+03</rscale>
<asrwt>0</asrwt>
<pdfrwt beam="1">  1        4 0.13253932E-01 0.12500263E+03</pdfrwt>
<pdfrwt beam="2">  1       -4 0.69760063E-02 0.12500263E+03</pdfrwt>
<totfact> 0.10311886E+04</totfact>
</mgrwt>
</event>
<event>
 5    1  0.3434846E-002  0.1249981E+03  0.7818608E-02  0.1235072E+00
          4   -1    0    0  501    0  0.00000000000E+00  0.00000000000E+00  0.26346542444E+03  0.26346848536E+03  0.12700000000E+01 0.  1.
         -4   -1    0    0    0  501 -0.00000000000E+00 -0.00000000000E+00 -0.14795618658E+02  0.14850024628E+02  0.12700000000E+01 0.  1.
         25    2    1    2    0    0  0.00000000000E+00  0.00000000000E+00  0.24866980578E+03  0.27831850998E+03  0.12499808275E+03 0.  0.
    9000005    1    3    3    0    0 -0.42739786299E+01  0.58696467915E+02  0.77545517774E+02  0.97354247806E+02  0.10000000000E+01 0.  0.
    9000005    1    3    3    0    0  0.42739786299E+01 -0.58696467915E+02  0.17112428801E+03  0.18096426218E+03  0.10000000000E+01 0.  0.
<mgrwt>
<rscale>  0 0.12499808E+03</rscale>
<asrwt>0</asrwt>
<pdfrwt beam="1">  1        4 0.40537565E-01 0.12499808E+03</pdfrwt>
<pdfrwt beam="2">  1       -4 0.22806694E-02 0.12499808E+03</pdfrwt>
<totfact> 0.78404927E+03</totfact>
</mgrwt>
</event>
<event>
 5    1  0.3434846E-002  0.1249977E+03  0.7818608E-02  0.1235073E+00
         -4   -1    0    0    0  501 -0.00000000000E+00  0.00000000000E+00  0.19693328339E+03  0.19693737839E+03  0.12700000000E+01 0. -1.
          4   -1    0    0  501    0  0.00000000000E+00 -0.00000000000E+00 -0.19810019795E+02  0.19850687250E+02  0.12700000000E+01 0. -1.
         25    2    1    2    0    0  0.00000000000E+00  0.00000000000E+00  0.17712326359E+03  0.21678806564E+03  0.12499765957E+03 0.  0.
    9000005    1    3    3    0    0 -0.30198582990E+02  0.47832815073E+02  0.42506212015E+02  0.70765179802E+02  0.10000000000E+01 0.  0.
    9000005    1    3    3    0    0  0.30198582990E+02 -0.47832815073E+02  0.13461705158E+03  0.14602288584E+03  0.10000000000E+01 0.  0.
<mgrwt>
<rscale>  0 0.12499766E+03</rscale>
<asrwt>0</asrwt>
<pdfrwt beam="2">  1        4 0.30511385E-02 0.12499766E+03</pdfrwt>
<pdfrwt beam="1">  1       -4 0.30300873E-01 0.12499766E+03</pdfrwt>
<totfact> 0.87383729E+03</totfact>
</mgrwt>
</event>
<event>
 5    1  0.3434846E-002  0.1250035E+03  0.7818608E-02  0.1235064E+00
          4   -1    0    0  501    0  0.00000000000E+00  0.00000000000E+00  0.17354295856E+02  0.17400703568E+02  0.12700000000E+01 0.  1.
         -4   -1    0    0    0  501 -0.00000000000E+00 -0.00000000000E+00 -0.22475201279E+03  0.22475560094E+03  0.12700000000E+01 0.  1.
         25    2    1    2    0    0  0.00000000000E+00  0.00000000000E+00 -0.20739771693E+03  0.24215630451E+03  0.12500345124E+03 0.  0.
    9000005    1    3    3    0    0 -0.36121101038E+02  0.18357437235E+01 -0.20242678179E+03  0.20563488488E+03  0.10000000000E+01 0.  0.
    9000005    1    3    3    0    0  0.36121101038E+02 -0.18357437235E+01 -0.49709351463E+01  0.36521419626E+02  0.10000000000E+01 0.  0.
<mgrwt>
<rscale>  0 0.12500345E+03</rscale>
<asrwt>0</asrwt>
<pdfrwt beam="1">  1        4 0.26737377E-02 0.12500345E+03</pdfrwt>
<pdfrwt beam="2">  1       -4 0.34581077E-01 0.12500345E+03</pdfrwt>
<totfact> 0.83470848E+03</totfact>
</mgrwt>
</event>
<event>
 5    1  0.3434846E-002  0.1249452E+03  0.7818608E-02  0.1235155E+00
         -4   -1    0    0    0  501 -0.00000000000E+00  0.00000000000E+00  0.52311379137E+03  0.52311533300E+03  0.12700000000E+01 0. -1.
          4   -1    0    0  501    0  0.00000000000E+00 -0.00000000000E+00 -0.74051529400E+01  0.75132676024E+01  0.12700000000E+01 0. -1.
         25    2    1    2    0    0  0.00000000000E+00  0.00000000000E+00  0.51570863843E+03  0.53062860060E+03  0.12494523611E+03 0.  0.
    9000005    1    3    3    0    0  0.32229210786E+02 -0.32027493536E+02  0.43989413344E+03  0.44223560576E+03  0.10000000000E+01 0.  0.
    9000005    1    3    3    0    0 -0.32229210786E+02  0.32027493536E+02  0.75814504992E+02  0.88392994842E+02  0.10000000000E+01 0.  0.
<mgrwt>
<rscale>  0 0.12494524E+03</rscale>
<asrwt>0</asrwt>
<pdfrwt beam="2">  1        4 0.11476891E-02 0.12494524E+03</pdfrwt>
<pdfrwt beam="1">  1       -4 0.80487503E-01 0.12494524E+03</pdfrwt>
<totfact> 0.53628362E+03</totfact>
</mgrwt>
</event>
<event>
 5    1  0.3434846E-002  0.1250003E+03  0.7818608E-02  0.1235069E+00
         -4   -1    0    0    0  501 -0.00000000000E+00  0.00000000000E+00  0.87155445188E+02  0.87164697704E+02  0.12700000000E+01 0. -1.
          4   -1    0    0  501    0  0.00000000000E+00 -0.00000000000E+00 -0.44798961886E+02  0.44816959804E+02  0.12700000000E+01 0. -1.
         25    2    1    2    0    0  0.00000000000E+00  0.00000000000E+00  0.42356483301E+02  0.13198165751E+03  0.12500034496E+03 0.  0.
    9000005    1    3    3    0    0  0.50281541006E+02 -0.17059657788E+02  0.55973377232E+02  0.77157528787E+02  0.10000000000E+01 0.  0.
    9000005    1    3    3    0    0 -0.50281541006E+02  0.17059657788E+02 -0.13616893931E+02  0.54824128721E+02  0.10000000000E+01 0.  0.
<mgrwt>
<rscale>  0 0.12500034E+03</rscale>
<asrwt>0</asrwt>
<pdfrwt beam="2">  1        4 0.68942442E-02 0.12500034E+03</pdfrwt>
<pdfrwt beam="1">  1       -4 0.13410626E-01 0.12500034E+03</pdfrwt>
<totfact> 0.10302010E+04</totfact>
</mgrwt>
</event>
<event>
 5    1  0.3434846E-002  0.1249774E+03  0.7818608E-02  0.1235105E+00
         -4   -1    0    0    0  501 -0.00000000000E+00  0.00000000000E+00  0.42281717096E+02  0.42300786051E+02  0.12700000000E+01 0. -1.
          4   -1    0    0  501    0  0.00000000000E+00 -0.00000000000E+00 -0.92308630040E+02  0.92317366080E+02  0.12700000000E+01 0. -1.
         25    2    1    2    0    0  0.00000000000E+00  0.00000000000E+00 -0.50026912945E+02  0.13461815213E+03  0.12497741742E+03 0.  0.
    9000005    1    3    3    0    0  0.62157617708E+01 -0.58824366398E+02 -0.46687718825E+02  0.75363683997E+02  0.10000000000E+01 0.  0.
    9000005    1    3    3    0    0 -0.62157617708E+01  0.58824366398E+02 -0.33391941196E+01  0.59254468134E+02  0.10000000000E+01 0.  0.
<mgrwt>
<rscale>  0 0.12497742E+03</rscale>
<asrwt>0</asrwt>
<pdfrwt beam="2">  1        4 0.14203466E-01 0.12497742E+03</pdfrwt>
<pdfrwt beam="1">  1       -4 0.65070184E-02 0.12497742E+03</pdfrwt>
<totfact> 0.10251346E+04</totfact>
</mgrwt>
</event>
<event>
 5    1  0.3434846E-002  0.1249992E+03  0.7818608E-02  0.1235071E+00
          4   -1    0    0  501    0  0.00000000000E+00  0.00000000000E+00  0.79477643233E+02  0.79487789464E+02  0.12700000000E+01 0. -1.
         -4   -1    0    0    0  501 -0.00000000000E+00 -0.00000000000E+00 -0.49126907304E+02  0.49143320210E+02  0.12700000000E+01 0. -1.
         25    2    1    2    0    0  0.00000000000E+00  0.00000000000E+00  0.30350735929E+02  0.12863110967E+03  0.12499918082E+03 0.  0.
    9000005    1    3    3    0    0 -0.22082765004E+01 -0.94360666558E+01  0.78704722966E+02  0.79305417572E+02  0.10000000000E+01 0.  0.
    9000005    1    3    3    0    0  0.22082765004E+01  0.94360666558E+01 -0.48353987037E+02  0.49325692103E+02  0.10000000000E+01 0.  0.
<mgrwt>
<rscale>  0 0.12499918E+03</rscale>
<asrwt>0</asrwt>
<pdfrwt beam="1">  1        4 0.12229373E-01 0.12499918E+03</pdfrwt>
<pdfrwt beam="2">  1       -4 0.75600289E-02 0.12499918E+03</pdfrwt>
<totfact> 0.10374072E+04</totfact>
</mgrwt>
</event>
<event>
 5    1  0.3434846E-002  0.1250009E+03  0.7818608E-02  0.1235068E+00
          4   -1    0    0  501    0  0.00000000000E+00  0.00000000000E+00  0.14254013747E+02  0.14310478954E+02  0.12700000000E+01 0.  1.
         -4   -1    0    0    0  501 -0.00000000000E+00 -0.00000000000E+00 -0.27345004347E+03  0.27345299262E+03  0.12700000000E+01 0.  1.
         25    2    1    2    0    0  0.00000000000E+00  0.00000000000E+00 -0.25919602972E+03  0.28776347157E+03  0.12500093499E+03 0.  0.
    9000005    1    3    3    0    0 -0.61842393280E+02  0.18104170735E+01 -0.14987069283E+03  0.16214186315E+03  0.10000000000E+01 0.  0.
    9000005    1    3    3    0    0  0.61842393280E+02 -0.18104170735E+01 -0.10932533689E+03  0.12562160842E+03  0.10000000000E+01 0.  0.
<mgrwt>
<rscale>  0 0.12500093E+03</rscale>
<asrwt>0</asrwt>
<pdfrwt beam="1">  1        4 0.21974957E-02 0.12500093E+03</pdfrwt>
<pdfrwt beam="2">  1       -4 0.42073804E-01 0.12500093E+03</pdfrwt>
<totfact> 0.77158258E+03</totfact>
</mgrwt>
</event>
<event>
 5    1  0.3434846E-002  0.1250016E+03  0.7818608E-02  0.1235067E+00
          4   -1    0    0  501    0  0.00000000000E+00  0.00000000000E+00  0.14216165417E+02  0.14272780359E+02  0.12700000000E+01 0. -1.
         -4   -1    0    0    0  501 -0.00000000000E+00 -0.00000000000E+00 -0.27417794112E+03  0.27418088244E+03  0.12700000000E+01 0. -1.
         25    2    1    2    0    0  0.00000000000E+00  0.00000000000E+00 -0.25996177570E+03  0.28845366280E+03  0.12500156302E+03 0.  0.
    9000005    1    3    3    0    0 -0.55942477108E+02 -0.12370933699E+02 -0.72394953613E+02  0.92328923173E+02  0.10000000000E+01 0.  0.
    9000005    1    3    3    0    0  0.55942477108E+02  0.12370933699E+02 -0.18756682209E+03  0.19612473963E+03  0.10000000000E+01 0.  0.
<mgrwt>
<rscale>  0 0.12500156E+03</rscale>
<asrwt>0</asrwt>
<pdfrwt beam="1">  1        4 0.21916838E-02 0.12500156E+03</pdfrwt>
<pdfrwt beam="2">  1       -4 0.42185799E-01 0.12500156E+03</pdfrwt>
<totfact> 0.77067724E+03</totfact>
</mgrwt>
</event>
<event>
 5    1  0.3434846E-002  0.1250011E+03  0.7818608E-02  0.1235067E+00
         -4   -1    0    0    0  501 -0.00000000000E+00  0.00000000000E+00  0.59938622920E+02  0.59952076007E+02  0.12700000000E+01 0. -1.
          4   -1    0    0  501    0  0.00000000000E+00 -0.00000000000E+00 -0.65145066395E+02  0.65157444515E+02  0.12700000000E+01 0. -1.
         25    2    1    2    0    0  0.00000000000E+00  0.00000000000E+00 -0.52064434750E+01  0.12510952052E+03  0.12500114028E+03 0.  0.
    9000005    1    3    3    0    0  0.20346684162E+02  0.49817412429E+02 -0.34404330737E+02  0.63878166152E+02  0.10000000000E+01 0.  0.
    9000005    1    3    3    0    0 -0.20346684162E+02 -0.49817412429E+02  0.29197887262E+02  0.61231354370E+02  0.10000000000E+01 0.  0.
<mgrwt>
<rscale>  0 0.12500114E+03</rscale>
<asrwt>0</asrwt>
<pdfrwt beam="2">  1        4 0.10024305E-01 0.12500114E+03</pdfrwt>
<pdfrwt beam="1">  1       -4 0.92233136E-02 0.12500114E+03</pdfrwt>
<totfact> 0.10450215E+04</totfact>
</mgrwt>
</event>
<event>
 5    1  0.3434846E-002  0.1249970E+03  0.7818608E-02  0.1235074E+00
         -4   -1    0    0    0  501 -0.00000000000E+00  0.00000000000E+00  0.67865155147E+03  0.67865273979E+03  0.12700000000E+01 0.  1.
          4   -1    0    0  501    0  0.00000000000E+00 -0.00000000000E+00 -0.56843531532E+01  0.58244974694E+01  0.12700000000E+01 0.  1.
         25    2    1    2    0    0  0.00000000000E+00  0.00000000000E+00  0.67296719832E+03  0.68447723726E+03  0.12499695318E+03 0.  0.
    9000005    1    3    3    0    0  0.42283192244E+00  0.42731938276E+02  0.86810105532E+02  0.96763586943E+02  0.10000000000E+01 0.  0.
    9000005    1    3    3    0    0 -0.42283192244E+00 -0.42731938276E+02  0.58615709279E+03  0.58771365031E+03  0.10000000000E+01 0.  0.
<mgrwt>
<rscale>  0 0.12499695E+03</rscale>
<asrwt>0</asrwt>
<pdfrwt beam="2">  1        4 0.88538713E-03 0.12499695E+03</pdfrwt>
<pdfrwt beam="1">  1       -4 0.10441886E+00 0.12499695E+03</pdfrwt>
<totfact> 0.43921794E+03</totfact>
</mgrwt>
</event>
<event>
 5    1  0.3434846E-002  0.1250013E+03  0.7818608E-02  0.1235067E+00
          4   -1    0    0  501    0  0.00000000000E+00  0.00000000000E+00  0.46581779158E+01  0.48282006478E+01  0.12700000000E+01 0. -1.
         -4   -1    0    0    0  501 -0.00000000000E+00 -0.00000000000E+00 -0.82339535993E+03  0.82339633935E+03  0.12700000000E+01 0. -1.
         25    2    1    2    0    0  0.00000000000E+00  0.00000000000E+00 -0.81873718202E+03  0.82822454000E+03  0.12500126176E+03 0.  0.
    9000005    1    3    3    0    0 -0.42583907986E+02 -0.45651217972E+02 -0.42799848643E+03  0.43252875894E+03  0.10000000000E+01 0.  0.
    9000005    1    3    3    0    0  0.42583907986E+02  0.45651217972E+02 -0.39073869559E+03  0.39569578106E+03  0.10000000000E+01 0.  0.
<mgrwt>
<rscale>  0 0.12500126E+03</rscale>
<asrwt>0</asrwt>
<pdfrwt beam="1">  1        4 0.72979742E-03 0.12500126E+03</pdfrwt>
<pdfrwt beam="2">  1       -4 0.12668925E+00 0.12500126E+03</pdfrwt>
<totfact> 0.37034337E+03</totfact>
</mgrwt>
</event>
<event>
 5    1  0.3434846E-002  0.1250006E+03  0.7818608E-02  0.1235068E+00
         -4   -1    0    0    0  501 -0.00000000000E+00  0.00000000000E+00  0.63526902874E+02  0.63539596228E+02  0.12700000000E+01 0. -1.
          4   -1    0    0  501    0  0.00000000000E+00 -0.00000000000E+00 -0.61464855029E+02  0.61477974135E+02  0.12700000000E+01 0. -1.
         25    2    1    2    0    0  0.00000000000E+00  0.00000000000E+00  0.20620478454E+01  0.12501757036E+03  0.12500056343E+03 0.  0.
    9000005    1    3    3    0    0  0.52046117383E+02 -0.33570741046E+02 -0.73063099571E+01  0.62371268660E+02  0.10000000000E+01 0.  0.
    9000005    1    3    3    0    0 -0.52046117383E+02  0.33570741046E+02  0.93683578024E+01  0.62646301702E+02  0.10000000000E+01 0.  0.
<mgrwt>
<rscale>  0 0.12500056E+03</rscale>
<asrwt>0</asrwt>
<pdfrwt beam="2">  1        4 0.94581171E-02 0.12500056E+03</pdfrwt>
<pdfrwt beam="1">  1       -4 0.97753553E-02 0.12500056E+03</pdfrwt>
<totfact> 0.10452348E+04</totfact>
</mgrwt>
</event>
<event>
 5    1  0.3434846E-002  0.1249981E+03  0.7818608E-02  0.1235072E+00
         -4   -1    0    0    0  501 -0.00000000000E+00  0.00000000000E+00  0.10696694145E+03  0.10697448043E+03  0.12700000000E+01 0.  1.
          4   -1    0    0  501    0  0.00000000000E+00 -0.00000000000E+00 -0.36497309999E+02  0.36519399463E+02  0.12700000000E+01 0.  1.
         25    2    1    2    0    0  0.00000000000E+00  0.00000000000E+00  0.70469631450E+02  0.14349387989E+03  0.12499809842E+03 0.  0.
    9000005    1    3    3    0    0  0.56463227608E+02 -0.21674716707E+02  0.17184248054E+02  0.62882332952E+02  0.10000000000E+01 0.  0.
    9000005    1    3    3    0    0 -0.56463227608E+02  0.21674716707E+02  0.53285383396E+02  0.80611546939E+02  0.10000000000E+01 0.  0.
<mgrwt>
<rscale>  0 0.12499810E+03</rscale>
<asrwt>0</asrwt>
<pdfrwt beam="2">  1        4 0.56172499E-02 0.12499810E+03</pdfrwt>
<pdfrwt beam="1">  1       -4 0.16458731E-01 0.12499810E+03</pdfrwt>
<totfact> 0.10062110E+04</totfact>
</mgrwt>
</event>
<event>
 5    1  0.3434846E-002  0.1250016E+03  0.7818608E-02  0.1235067E+00
         -4   -1    0    0    0  501 -0.00000000000E+00  0.00000000000E+00  0.32618076427E+02  0.32642791084E+02  0.12700000000E+01 0.  1.
          4   -1    0    0  501    0  0.00000000000E+00 -0.00000000000E+00 -0.11968681913E+03  0.11969355694E+03  0.12700000000E+01 0.  1.
         25    2    1    2    0    0  0.00000000000E+00  0.00000000000E+00 -0.87068742701E+02  0.15233634802E+03  0.12500158789E+03 0.  0.
    9000005    1    3    3    0    0  0.10830642419E+02  0.55069829874E+02 -0.10040520804E+02  0.57024565194E+02  0.10000000000E+01 0.  0.
    9000005    1    3    3    0    0 -0.10830642419E+02 -0.55069829874E+02 -0.77028221898E+02  0.95311782830E+02  0.10000000000E+01 0.  0.
<mgrwt>
<rscale>  0 0.12500159E+03</rscale>
<asrwt>0</asrwt>
<pdfrwt beam="2">  1        4 0.18415776E-01 0.12500159E+03</pdfrwt>
<pdfrwt beam="1">  1       -4 0.50205851E-02 0.12500159E+03</pdfrwt>
<totfact> 0.98836474E+03</totfact>
</mgrwt>
</event>
<event>
 5    1  0.3434846E-002  0.1249950E+03  0.7818608E-02  0.1235077E+00
          4   -1    0    0  501    0  0.00000000000E+00  0.00000000000E+00  0.66287158767E+02  0.66299323657E+02  0.12700000000E+01 0. -1.
         -4   -1    0    0    0  501 -0.00000000000E+00 -0.00000000000E+00 -0.58900102322E+02  0.58913792557E+02  0.12700000000E+01 0. -1.
         25    2    1    2    0    0  0.00000000000E+00  0.00000000000E+00  0.73870564454E+01  0.12521311621E+03  0.12499502338E+03 0.  0.
    9000005    1    3    3    0    0 -0.17036083607E+02 -0.11598212172E+02 -0.55402558414E+02  0.59120133195E+02  0.10000000000E+01 0.  0.
    9000005    1    3    3    0    0  0.17036083607E+02  0.11598212172E+02  0.62789614859E+02  0.66092983019E+02  0.10000000000E+01 0.  0.
<mgrwt>
<rscale>  0 0.12499502E+03</rscale>
<asrwt>0</asrwt>
<pdfrwt beam="1">  1        4 0.10200013E-01 0.12499502E+03</pdfrwt>
<pdfrwt beam="2">  1       -4 0.90635431E-02 0.12499502E+03</pdfrwt>
<totfact> 0.10449411E+04</totfact>
</mgrwt>
</event>
<event>
 5    1  0.3434846E-002  0.1249975E+03  0.7818608E-02  0.1235073E+00
          4   -1    0    0  501    0  0.00000000000E+00  0.00000000000E+00  0.64240948806E+02  0.64253501099E+02  0.12700000000E+01 0. -1.
         -4   -1    0    0    0  501 -0.00000000000E+00 -0.00000000000E+00 -0.60778714146E+02  0.60791981323E+02  0.12700000000E+01 0. -1.
         25    2    1    2    0    0  0.00000000000E+00  0.00000000000E+00  0.34622346605E+01  0.12504548242E+03  0.12499754240E+03 0.  0.
    9000005    1    3    3    0    0  0.37350833172E+02  0.43938943472E+02  0.25810681524E+02  0.63189451437E+02  0.10000000000E+01 0.  0.
    9000005    1    3    3    0    0 -0.37350833172E+02 -0.43938943472E+02 -0.22348446864E+02  0.61856030986E+02  0.10000000000E+01 0.  0.
<mgrwt>
<rscale>  0 0.12499754E+03</rscale>
<asrwt>0</asrwt>
<pdfrwt beam="1">  1        4 0.98852089E-02 0.12499754E+03</pdfrwt>
<pdfrwt beam="2">  1       -4 0.93525576E-02 0.12499754E+03</pdfrwt>
<totfact> 0.10452455E+04</totfact>
</mgrwt>
</event>
<event>
 5    1  0.3434846E-002  0.1249990E+03  0.7818608E-02  0.1235071E+00
         -4   -1    0    0    0  501 -0.00000000000E+00  0.00000000000E+00  0.10270964439E+02  0.10349184050E+02  0.12700000000E+01 0. -1.
          4   -1    0    0  501    0  0.00000000000E+00 -0.00000000000E+00 -0.37879174014E+03  0.37879386914E+03  0.12700000000E+01 0. -1.
         25    2    1    2    0    0  0.00000000000E+00  0.00000000000E+00 -0.36852077570E+03  0.38914305319E+03  0.12499901489E+03 0.  0.
    9000005    1    3    3    0    0  0.48167340529E+01  0.22777396255E+02 -0.37186574914E+01  0.23597438858E+02  0.10000000000E+01 0.  0.
    9000005    1    3    3    0    0 -0.48167340529E+01 -0.22777396255E+02 -0.36480211821E+03  0.36554561434E+03  0.10000000000E+01 0.  0.
<mgrwt>
<rscale>  0 0.12499901E+03</rscale>
<asrwt>0</asrwt>
<pdfrwt beam="2">  1        4 0.58281822E-01 0.12499901E+03</pdfrwt>
<pdfrwt beam="1">  1       -4 0.15863293E-02 0.12499901E+03</pdfrwt>
<totfact> 0.65624032E+03</totfact>
</mgrwt>
</event>
<event>
 5    1  0.3434846E-002  0.1250030E+03  0.7818608E-02  0.1235065E+00
          4   -1    0    0  501    0  0.00000000000E+00  0.00000000000E+00  0.36815547780E+03  0.36815766831E+03  0.12700000000E+01 0. -1.
         -4   -1    0    0    0  501 -0.00000000000E+00 -0.00000000000E+00 -0.10570603876E+02  0.10646622296E+02  0.12700000000E+01 0. -1.
         25    2    1    2    0    0  0.00000000000E+00  0.00000000000E+00  0.35758487393E+03  0.37880429061E+03  0.12500299405E+03 0.  0.
    9000005    1    3    3    0    0  0.11301106462E+02 -0.35973751495E+02  0.32981307129E+03  0.33196308198E+03  0.10000000000E+01 0.  0.
    9000005    1    3    3    0    0 -0.11301106462E+02  0.35973751495E+02  0.27771802635E+02  0.46841208625E+02  0.10000000000E+01 0.  0.
<mgrwt>
<rscale>  0 0.12500299E+03</rscale>
<asrwt>0</asrwt>
<pdfrwt beam="1">  1        4 0.56645321E-01 0.12500299E+03</pdfrwt>
<pdfrwt beam="2">  1       -4 0.16322628E-02 0.12500299E+03</pdfrwt>
<totfact> 0.66663379E+03</totfact>
</mgrwt>
</event>
<event>
 5    1  0.3434846E-002  0.1249944E+03  0.7818608E-02  0.1235078E+00
          4   -1    0    0  501    0  0.00000000000E+00  0.00000000000E+00  0.79864645933E+02  0.79874743005E+02  0.12700000000E+01 0.  1.
         -4   -1    0    0    0  501 -0.00000000000E+00 -0.00000000000E+00 -0.48885063192E+02  0.48901557269E+02  0.12700000000E+01 0.  1.
         25    2    1    2    0    0  0.00000000000E+00  0.00000000000E+00  0.30979582741E+02  0.12877630027E+03  0.12499440374E+03 0.  0.
    9000005    1    3    3    0    0 -0.60401480772E+02  0.10775709781E+02  0.27699328419E+02  0.67325385967E+02  0.10000000000E+01 0.  0.
    9000005    1    3    3    0    0  0.60401480772E+02 -0.10775709781E+02  0.32802543223E+01  0.61450914307E+02  0.10000000000E+01 0.  0.
<mgrwt>
<rscale>  0 0.12499440E+03</rscale>
<asrwt>0</asrwt>
<pdfrwt beam="1">  1        4 0.12288914E-01 0.12499440E+03</pdfrwt>
<pdfrwt beam="2">  1       -4 0.75228245E-02 0.12499440E+03</pdfrwt>
<totfact> 0.10372066E+04</totfact>
</mgrwt>
</event>
<event>
 5    1  0.3434846E-002  0.1250008E+03  0.7818608E-02  0.1235068E+00
         -4   -1    0    0    0  501 -0.00000000000E+00  0.00000000000E+00  0.13788686146E+02  0.13847048987E+02  0.12700000000E+01 0.  1.
          4   -1    0    0  501    0  0.00000000000E+00 -0.00000000000E+00 -0.28263922851E+03  0.28264208178E+03  0.12700000000E+01 0.  1.
         25    2    1    2    0    0  0.00000000000E+00  0.00000000000E+00 -0.26885054237E+03  0.29648913077E+03  0.12500076213E+03 0.  0.
    9000005    1    3    3    0    0 -0.42799499619E+02  0.27640043832E+02 -0.48592411172E+02  0.70413007422E+02  0.10000000000E+01 0.  0.
    9000005    1    3    3    0    0  0.42799499619E+02 -0.27640043832E+02 -0.22025813119E+03  0.22607612335E+03  0.10000000000E+01 0.  0.
<mgrwt>
<rscale>  0 0.12500076E+03</rscale>
<asrwt>0</asrwt>
<pdfrwt beam="2">  1        4 0.43487663E-01 0.12500076E+03</pdfrwt>
<pdfrwt beam="1">  1       -4 0.21260455E-02 0.12500076E+03</pdfrwt>
<totfact> 0.76040072E+03</totfact>
</mgrwt>
</event>
<event>
 5    1  0.3434846E-002  0.1250017E+03  0.7818608E-02  0.1235067E+00
          4   -1    0    0  501    0  0.00000000000E+00  0.00000000000E+00  0.43344352960E+03  0.43344539016E+03  0.12700000000E+01 0. -1.
         -4   -1    0    0    0  501 -0.00000000000E+00 -0.00000000000E+00 -0.89657473888E+01  0.90552485466E+01  0.12700000000E+01 0. -1.
         25    2    1    2    0    0  0.00000000000E+00  0.00000000000E+00  0.42447778221E+03  0.44250063870E+03  0.12500171065E+03 0.  0.
    9000005    1    3    3    0    0  0.61206634694E+01  0.41784989500E+02  0.49173675952E+02  0.64826678732E+02  0.10000000000E+01 0.  0.
    9000005    1    3    3    0    0 -0.61206634694E+01 -0.41784989500E+02  0.37530410625E+03  0.37767395997E+03  0.10000000000E+01 0.  0.
<mgrwt>
<rscale>  0 0.12500171E+03</rscale>
<asrwt>0</asrwt>
<pdfrwt beam="1">  1        4 0.66690649E-01 0.12500171E+03</pdfrwt>
<pdfrwt beam="2">  1       -4 0.13863735E-02 0.12500171E+03</pdfrwt>
<totfact> 0.60616713E+03</totfact>
</mgrwt>
</event>
<event>
 5    1  0.3434846E-002  0.1250002E+03  0.7818608E-02  0.1235069E+00
          4   -1    0    0  501    0  0.00000000000E+00  0.00000000000E+00  0.52530979771E+02  0.52546329422E+02  0.12700000000E+01 0. -1.
         -4   -1    0    0    0  501 -0.00000000000E+00 -0.00000000000E+00 -0.74329466197E+02  0.74340315073E+02  0.12700000000E+01 0. -1.
         25    2    1    2    0    0  0.00000000000E+00  0.00000000000E+00 -0.21798486426E+02  0.12688664449E+03  0.12500018616E+03 0.  0.
    9000005    1    3    3    0    0 -0.95446513391E+01 -0.58722590866E+02 -0.30314276407E+02  0.66778727161E+02  0.10000000000E+01 0.  0.
    9000005    1    3    3    0    0  0.95446513391E+01  0.58722590866E+02  0.85157899808E+01  0.60107917333E+02  0.10000000000E+01 0.  0.
<mgrwt>
<rscale>  0 0.12500019E+03</rscale>
<asrwt>0</asrwt>
<pdfrwt beam="1">  1        4 0.80837045E-02 0.12500019E+03</pdfrwt>
<pdfrwt beam="2">  1       -4 0.11437318E-01 0.12500019E+03</pdfrwt>
<totfact> 0.10411566E+04</totfact>
</mgrwt>
</event>
<event>
 5    1  0.3434846E-002  0.1249996E+03  0.7818608E-02  0.1235070E+00
          4   -1    0    0  501    0  0.00000000000E+00  0.00000000000E+00  0.97901108621E+02  0.97909345669E+02  0.12700000000E+01 0.  1.
         -4   -1    0    0    0  501 -0.00000000000E+00 -0.00000000000E+00 -0.39879683953E+02  0.39899900905E+02  0.12700000000E+01 0.  1.
         25    2    1    2    0    0  0.00000000000E+00  0.00000000000E+00  0.58021424668E+02  0.13780924657E+03  0.12499961088E+03 0.  0.
    9000005    1    3    3    0    0  0.44350042953E+02 -0.34344665650E+02 -0.13573537054E+01  0.56118845120E+02  0.10000000000E+01 0.  0.
    9000005    1    3    3    0    0 -0.44350042953E+02  0.34344665650E+02  0.59378778373E+02  0.81690401454E+02  0.10000000000E+01 0.  0.
<mgrwt>
<rscale>  0 0.12499961E+03</rscale>
<asrwt>0</asrwt>
<pdfrwt beam="1">  1        4 0.15063898E-01 0.12499961E+03</pdfrwt>
<pdfrwt beam="2">  1       -4 0.61375249E-02 0.12499961E+03</pdfrwt>
<totfact> 0.10179282E+04</totfact>
</mgrwt>
</event>
<event>
 5    1  0.3434846E-002  0.1249913E+03  0.7818608E-02  0.1235083E+00
         -4   -1    0    0    0  501 -0.00000000000E+00  0.00000000000E+00  0.45201541385E+01  0.46951776788E+01  0.12700000000E+01 0. -1.
          4   -1    0    0  501    0  0.00000000000E+00 -0.00000000000E+00 -0.84747891304E+03  0.84747986463E+03  0.12700000000E+01 0. -1.
         25    2    1    2    0    0  0.00000000000E+00  0.00000000000E+00 -0.84295875890E+03  0.85217504230E+03  0.12499133378E+03 0.  0.
    9000005    1    3    3    0    0 -0.19729990849E+02 -0.17675743890E+02 -0.80733749897E+03  0.80777258043E+03  0.10000000000E+01 0.  0.
    9000005    1    3    3    0    0  0.19729990849E+02  0.17675743890E+02 -0.35621259932E+02  0.44402461870E+02  0.10000000000E+01 0.  0.
<mgrwt>
<rscale>  0 0.12499133E+03</rscale>
<asrwt>0</asrwt>
<pdfrwt beam="2">  1        4 0.13039478E+00 0.12499133E+03</pdfrwt>
<pdfrwt beam="1">  1       -4 0.70894555E-03 0.12499133E+03</pdfrwt>
<totfact> 0.36045335E+03</totfact>
</mgrwt>
</event>
<event>
 5    1  0.3434846E-002  0.1250019E+03  0.7818608E-02  0.1235066E+00
         -4   -1    0    0    0  501 -0.00000000000E+00  0.00000000000E+00  0.29281224562E+02  0.29308753161E+02  0.12700000000E+01 0.  1.
          4   -1    0    0  501    0  0.00000000000E+00 -0.00000000000E+00 -0.13331534682E+03  0.13332139588E+03  0.12700000000E+01 0.  1.
         25    2    1    2    0    0  0.00000000000E+00  0.00000000000E+00 -0.10403412226E+03  0.16263014904E+03  0.12500186711E+03 0.  0.
    9000005    1    3    3    0    0 -0.37837148815E+02 -0.41079716729E+02 -0.88496136874E+02  0.10465065312E+03  0.10000000000E+01 0.  0.
    9000005    1    3    3    0    0  0.37837148815E+02  0.41079716729E+02 -0.15537985387E+02  0.57979495918E+02  0.10000000000E+01 0.  0.
<mgrwt>
<rscale>  0 0.12500187E+03</rscale>
<asrwt>0</asrwt>
<pdfrwt beam="2">  1        4 0.20512636E-01 0.12500187E+03</pdfrwt>
<pdfrwt beam="1">  1       -4 0.45073867E-02 0.12500187E+03</pdfrwt>
<totfact> 0.96834034E+03</totfact>
</mgrwt>
</event>
<event>
 5    1  0.3434846E-002  0.1249971E+03  0.7818608E-02  0.1235074E+00
         -4   -1    0    0    0  501 -0.00000000000E+00  0.00000000000E+00  0.38858744494E+03  0.38858952027E+03  0.12700000000E+01 0. -1.
          4   -1    0    0  501    0  0.00000000000E+00 -0.00000000000E+00 -0.10009749183E+02  0.10089993989E+02  0.12700000000E+01 0. -1.
         25    2    1    2    0    0  0.00000000000E+00  0.00000000000E+00  0.37857769576E+03  0.39867951426E+03  0.12499713343E+03 0.  0.
    9000005    1    3    3    0    0  0.56311756489E+02  0.22588675022E+02  0.23700466147E+03  0.24464969184E+03  0.10000000000E+01 0.  0.
    9000005    1    3    3    0    0 -0.56311756489E+02 -0.22588675022E+02  0.14157303429E+03  0.15402982242E+03  0.10000000000E+01 0.  0.
<mgrwt>
<rscale>  0 0.12499713E+03</rscale>
<asrwt>0</asrwt>
<pdfrwt beam="2">  1        4 0.15462934E-02 0.12499713E+03</pdfrwt>
<pdfrwt beam="1">  1       -4 0.59789028E-01 0.12499713E+03</pdfrwt>
<totfact> 0.64685506E+03</totfact>
</mgrwt>
</event>
<event>
 5    1  0.3434846E-002  0.1250044E+03  0.7818608E-02  0.1235062E+00
         -4   -1    0    0    0  501 -0.00000000000E+00  0.00000000000E+00  0.71141360952E+01  0.72266058687E+01  0.12700000000E+01 0.  1.
          4   -1    0    0  501    0  0.00000000000E+00 -0.00000000000E+00 -0.54470161532E+03  0.54470309585E+03  0.12700000000E+01 0.  1.
         25    2    1    2    0    0  0.00000000000E+00  0.00000000000E+00 -0.53758747922E+03  0.55192970172E+03  0.12500439122E+03 0.  0.
    9000005    1    3    3    0    0  0.15324223834E+02  0.58836324307E+02 -0.33262161724E+03  0.33813412302E+03  0.10000000000E+01 0.  0.
    9000005    1    3    3    0    0 -0.15324223834E+02 -0.58836324307E+02 -0.20496586198E+03  0.21379557870E+03  0.10000000000E+01 0.  0.
<mgrwt>
<rscale>  0 0.12500439E+03</rscale>
<asrwt>0</asrwt>
<pdfrwt beam="2">  1        4 0.83808982E-01 0.12500439E+03</pdfrwt>
<pdfrwt beam="1">  1       -4 0.11032483E-02 0.12500439E+03</pdfrwt>
<totfact> 0.52044688E+03</totfact>
</mgrwt>
</event>
<event>
 5    1  0.3434846E-002  0.1250002E+03  0.7818608E-02  0.1235069E+00
          4   -1    0    0  501    0  0.00000000000E+00  0.00000000000E+00  0.55336246614E+02  0.55350818326E+02  0.12700000000E+01 0.  1.
         -4   -1    0    0    0  501 -0.00000000000E+00 -0.00000000000E+00 -0.70561812589E+02  0.70573240650E+02  0.12700000000E+01 0.  1.
         25    2    1    2    0    0  0.00000000000E+00  0.00000000000E+00 -0.15225565975E+02  0.12592405898E+03  0.12500020308E+03 0.  0.
    9000005    1    3    3    0    0 -0.45307750619E+01 -0.48433676269E+02  0.31906143506E+02  0.58183768467E+02  0.10000000000E+01 0.  0.
    9000005    1    3    3    0    0  0.45307750619E+01  0.48433676269E+02 -0.47131709481E+02  0.67740290509E+02  0.10000000000E+01 0.  0.
<mgrwt>
<rscale>  0 0.12500020E+03</rscale>
<asrwt>0</asrwt>
<pdfrwt beam="1">  1        4 0.85152687E-02 0.12500020E+03</pdfrwt>
<pdfrwt beam="2">  1       -4 0.10857663E-01 0.12500020E+03</pdfrwt>
<totfact> 0.10432574E+04</totfact>
</mgrwt>
</event>
<event>
 5    1  0.3434846E-002  0.1250026E+03  0.7818608E-02  0.1235065E+00
         -4   -1    0    0    0  501 -0.00000000000E+00  0.00000000000E+00  0.57323980261E+01  0.58713956714E+01  0.12700000000E+01 0. -1.
          4   -1    0    0  501    0  0.00000000000E+00 -0.00000000000E+00 -0.67315981154E+03  0.67316100954E+03  0.12700000000E+01 0. -1.
         25    2    1    2    0    0  0.00000000000E+00  0.00000000000E+00 -0.66742741351E+03  0.67903240521E+03  0.12500262007E+03 0.  0.
    9000005    1    3    3    0    0  0.18722045266E+02  0.43542602789E+02 -0.11246191728E+03  0.12204571306E+03  0.10000000000E+01 0.  0.
    9000005    1    3    3    0    0 -0.18722045266E+02 -0.43542602789E+02 -0.55496549623E+03  0.55698669216E+03  0.10000000000E+01 0.  0.
<mgrwt>
<rscale>  0 0.12500262E+03</rscale>
<asrwt>0</asrwt>
<pdfrwt beam="2">  1        4 0.10357377E+00 0.12500262E+03</pdfrwt>
<pdfrwt beam="1">  1       -4 0.89269220E-03 0.12500262E+03</pdfrwt>
<totfact> 0.44214389E+03</totfact>
</mgrwt>
</event>
<event>
 5    1  0.3434846E-002  0.1249990E+03  0.7818608E-02  0.1235071E+00
          4   -1    0    0  501    0  0.00000000000E+00  0.00000000000E+00  0.31679050277E+02  0.31704496944E+02  0.12700000000E+01 0. -1.
         -4   -1    0    0    0  501 -0.00000000000E+00 -0.00000000000E+00 -0.12322688775E+03  0.12323343201E+03  0.12700000000E+01 0. -1.
         25    2    1    2    0    0  0.00000000000E+00  0.00000000000E+00 -0.91547837475E+02  0.15493792895E+03  0.12499902113E+03 0.  0.
    9000005    1    3    3    0    0  0.22540686746E+02 -0.27253611217E+02  0.18086237666E+02  0.39736052600E+02  0.10000000000E+01 0.  0.
    9000005    1    3    3    0    0 -0.22540686746E+02  0.27253611217E+02 -0.10963407514E+03  0.11520187635E+03  0.10000000000E+01 0.  0.
<mgrwt>
<rscale>  0 0.12499902E+03</rscale>
<asrwt>0</asrwt>
<pdfrwt beam="1">  1        4 0.48761609E-02 0.12499902E+03</pdfrwt>
<pdfrwt beam="2">  1       -4 0.18960443E-01 0.12499902E+03</pdfrwt>
<totfact> 0.98329850E+03</totfact>
</mgrwt>
</event>
<event>
 5    1  0.3434846E-002  0.1250046E+03  0.7818608E-02  0.1235062E+00
         -4   -1    0    0    0  501 -0.00000000000E+00  0.00000000000E+00  0.23681598001E+03  0.23681938537E+03  0.12700000000E+01 0. -1.
          4   -1    0    0  501    0  0.00000000000E+00 -0.00000000000E+00 -0.16468126890E+02  0.16517024650E+02  0.12700000000E+01 0. -1.
         25    2    1    2    0    0  0.00000000000E+00  0.00000000000E+00  0.22034785312E+03  0.25333641002E+03  0.12500464099E+03 0.  0.
    9000005    1    3    3    0    0  0.73996665887E+01 -0.49107538555E+02  0.33289694795E+02  0.59795561609E+02  0.10000000000E+01 0.  0.
    9000005    1    3    3    0    0 -0.73996665887E+01  0.49107538555E+02  0.18705815832E+03  0.19354084841E+03  0.10000000000E+01 0.  0.
<mgrwt>
<rscale>  0 0.12500464E+03</rscale>
<asrwt>0</asrwt>
<pdfrwt beam="2">  1        4 0.25375813E-02 0.12500464E+03</pdfrwt>
<pdfrwt beam="1">  1       -4 0.36437252E-01 0.12500464E+03</pdfrwt>
<totfact> 0.81841931E+03</totfact>
</mgrwt>
</event>
<event>
 5    1  0.3434846E-002  0.1250014E+03  0.7818608E-02  0.1235067E+00
          4   -1    0    0  501    0  0.00000000000E+00  0.00000000000E+00  0.13960345057E+02  0.14017993227E+02  0.12700000000E+01 0. -1.
         -4   -1    0    0    0  501 -0.00000000000E+00 -0.00000000000E+00 -0.27918105472E+03  0.27918394334E+03  0.12700000000E+01 0. -1.
         25    2    1    2    0    0  0.00000000000E+00  0.00000000000E+00 -0.26522070967E+03  0.29320193656E+03  0.12500140307E+03 0.  0.
    9000005    1    3    3    0    0  0.40365033023E+02 -0.68133724807E+01 -0.24336538329E+03  0.24678627944E+03  0.10000000000E+01 0.  0.
    9000005    1    3    3    0    0 -0.40365033023E+02  0.68133724807E+01 -0.21855326382E+02  0.46415657129E+02  0.10000000000E+01 0.  0.
<mgrwt>
<rscale>  0 0.12500140E+03</rscale>
<asrwt>0</asrwt>
<pdfrwt beam="1">  1        4 0.21524023E-02 0.12500140E+03</pdfrwt>
<pdfrwt beam="2">  1       -4 0.42955584E-01 0.12500140E+03</pdfrwt>
<totfact> 0.76457185E+03</totfact>
</mgrwt>
</event>
<event>
 5    1  0.3434846E-002  0.1249961E+03  0.7818608E-02  0.1235075E+00
          4   -1    0    0  501    0  0.00000000000E+00  0.00000000000E+00  0.50496756012E+02  0.50512723820E+02  0.12700000000E+01 0. -1.
         -4   -1    0    0    0  501 -0.00000000000E+00 -0.00000000000E+00 -0.77318214178E+02  0.77328643746E+02  0.12700000000E+01 0. -1.
         25    2    1    2    0    0  0.00000000000E+00  0.00000000000E+00 -0.26821458166E+02  0.12784136757E+03  0.12499609851E+03 0.  0.
    9000005    1    3    3    0    0  0.30858479641E+02 -0.42160475408E+01  0.41997965474E+02  0.52295792628E+02  0.10000000000E+01 0.  0.
    9000005    1    3    3    0    0 -0.30858479641E+02  0.42160475408E+01 -0.68819423640E+02  0.75545574938E+02  0.10000000000E+01 0.  0.
<mgrwt>
<rscale>  0 0.12499610E+03</rscale>
<asrwt>0</asrwt>
<pdfrwt beam="1">  1        4 0.77707622E-02 0.12499610E+03</pdfrwt>
<pdfrwt beam="2">  1       -4 0.11897141E-01 0.12499610E+03</pdfrwt>
<totfact> 0.10391830E+04</totfact>
</mgrwt>
</event>
<event>
 5    1  0.3434846E-002  0.1250014E+03  0.7818608E-02  0.1235067E+00
         -4   -1    0    0    0  501 -0.00000000000E+00  0.00000000000E+00  0.18963201139E+03  0.18963626405E+03  0.12700000000E+01 0. -1.
          4   -1    0    0  501    0  0.00000000000E+00 -0.00000000000E+00 -0.20575515235E+02  0.20614672619E+02  0.12700000000E+01 0. -1.
         25    2    1    2    0    0  0.00000000000E+00  0.00000000000E+00  0.16905649615E+03  0.21025093667E+03  0.12500142991E+03 0.  0.
    9000005    1    3    3    0    0 -0.17534557749E+02 -0.12412441842E+02  0.18323401926E+03  0.18449182975E+03  0.10000000000E+01 0.  0.
    9000005    1    3    3    0    0  0.17534557749E+02  0.12412441842E+02 -0.14177523110E+02  0.25759106923E+02  0.10000000000E+01 0.  0.
<mgrwt>
<rscale>  0 0.12500143E+03</rscale>
<asrwt>0</asrwt>
<pdfrwt beam="2">  1        4 0.31688032E-02 0.12500143E+03</pdfrwt>
<pdfrwt beam="1">  1       -4 0.29177494E-01 0.12500143E+03</pdfrwt>
<totfact> 0.88432090E+03</totfact>
</mgrwt>
</event>
<event>
 5    1  0.3434846E-002  0.1250001E+03  0.7818608E-02  0.1235069E+00
          4   -1    0    0  501    0  0.00000000000E+00  0.00000000000E+00  0.30562565857E+02  0.30588941331E+02  0.12700000000E+01 0.  1.
         -4   -1    0    0    0  501 -0.00000000000E+00 -0.00000000000E+00 -0.12772721715E+03  0.12773353084E+03  0.12700000000E+01 0.  1.
         25    2    1    2    0    0  0.00000000000E+00  0.00000000000E+00 -0.97164651295E+02  0.15832247217E+03  0.12500014294E+03 0.  0.
    9000005    1    3    3    0    0 -0.11754011132E+02 -0.22878666347E+02  0.23553383167E+02  0.34890571937E+02  0.10000000000E+01 0.  0.
    9000005    1    3    3    0    0  0.11754011132E+02  0.22878666347E+02 -0.12071803446E+03  0.12343190024E+03  0.10000000000E+01 0.  0.
<mgrwt>
<rscale>  0 0.12500014E+03</rscale>
<asrwt>0</asrwt>
<pdfrwt beam="1">  1        4 0.47044478E-02 0.12500014E+03</pdfrwt>
<pdfrwt beam="2">  1       -4 0.19652855E-01 0.12500014E+03</pdfrwt>
<totfact> 0.97666863E+03</totfact>
</mgrwt>
</event>
<event>
 5    1  0.3434846E-002  0.1249969E+03  0.7818608E-02  0.1235074E+00
          4   -1    0    0  501    0  0.00000000000E+00  0.00000000000E+00  0.63648334375E+02  0.63661003517E+02  0.12700000000E+01 0. -1.
         -4   -1    0    0    0  501 -0.00000000000E+00 -0.00000000000E+00 -0.61343977995E+02  0.61357122946E+02  0.12700000000E+01 0. -1.
         25    2    1    2    0    0  0.00000000000E+00  0.00000000000E+00  0.23043563807E+01  0.12501812646E+03  0.12499688750E+03 0.  0.
    9000005    1    3    3    0    0 -0.61879178219E+02  0.17009975124E+01  0.97052031329E+01  0.62666714111E+02  0.10000000000E+01 0.  0.
    9000005    1    3    3    0    0  0.61879178219E+02 -0.17009975124E+01 -0.74008467522E+01  0.62351412352E+02  0.10000000000E+01 0.  0.
<mgrwt>
<rscale>  0 0.12499689E+03</rscale>
<asrwt>0</asrwt>
<pdfrwt beam="1">  1        4 0.97940371E-02 0.12499689E+03</pdfrwt>
<pdfrwt beam="2">  1       -4 0.94395208E-02 0.12499689E+03</pdfrwt>
<totfact> 0.10453204E+04</totfact>
</mgrwt>
</event>
<event>
 5    1  0.3434846E-002  0.1249985E+03  0.7818608E-02  0.1235072E+00
          4   -1    0    0  501    0  0.00000000000E+00  0.00000000000E+00  0.43951330149E+02  0.43969675025E+02  0.12700000000E+01 0. -1.
         -4   -1    0    0    0  501 -0.00000000000E+00 -0.00000000000E+00 -0.88833167398E+02  0.88842245188E+02  0.12700000000E+01 0. -1.
         25    2    1    2    0    0  0.00000000000E+00  0.00000000000E+00 -0.44881837250E+02  0.13281192021E+03  0.12499850733E+03 0.  0.
    9000005    1    3    3    0    0  0.61911073836E+02  0.15060563009E+01 -0.31324619516E+02  0.69408076309E+02  0.10000000000E+01 0.  0.
    9000005    1    3    3    0    0 -0.61911073836E+02 -0.15060563009E+01 -0.13557217734E+02  0.63403843904E+02  0.10000000000E+01 0.  0.
<mgrwt>
<rscale>  0 0.12499851E+03</rscale>
<asrwt>0</asrwt>
<pdfrwt beam="1">  1        4 0.67638526E-02 0.12499851E+03</pdfrwt>
<pdfrwt beam="2">  1       -4 0.13668750E-01 0.12499851E+03</pdfrwt>
<totfact> 0.10284745E+04</totfact>
</mgrwt>
</event>
<event>
 5    1  0.3434846E-002  0.1249991E+03  0.7818608E-02  0.1235071E+00
         -4   -1    0    0    0  501 -0.00000000000E+00  0.00000000000E+00  0.27365437902E+02  0.27394891706E+02  0.12700000000E+01 0. -1.
          4   -1    0    0  501    0  0.00000000000E+00 -0.00000000000E+00 -0.14263277457E+03  0.14263842849E+03  0.12700000000E+01 0. -1.
         25    2    1    2    0    0  0.00000000000E+00  0.00000000000E+00 -0.11526733667E+03  0.17003332019E+03  0.12499908429E+03 0.  0.
    9000005    1    3    3    0    0 -0.37021707571E+02 -0.25943194591E+02 -0.11632351737E+03  0.12480311243E+03  0.10000000000E+01 0.  0.
    9000005    1    3    3    0    0  0.37021707571E+02  0.25943194591E+02  0.10561807060E+01  0.45230207768E+02  0.10000000000E+01 0.  0.
<mgrwt>
<rscale>  0 0.12499908E+03</rscale>
<asrwt>0</asrwt>
<pdfrwt beam="2">  1        4 0.21946204E-01 0.12499908E+03</pdfrwt>
<pdfrwt beam="1">  1       -4 0.42127680E-02 0.12499908E+03</pdfrwt>
<totfact> 0.95444388E+03</totfact>
</mgrwt>
</event>
<event>
 5    1  0.3434846E-002  0.1249978E+03  0.7818608E-02  0.1235073E+00
          4   -1    0    0  501    0  0.00000000000E+00  0.00000000000E+00  0.15970053300E+02  0.16020471354E+02  0.12700000000E+01 0.  1.
         -4   -1    0    0    0  501 -0.00000000000E+00 -0.00000000000E+00 -0.24415246364E+03  0.24415576668E+03  0.12700000000E+01 0.  1.
         25    2    1    2    0    0  0.00000000000E+00  0.00000000000E+00 -0.22818241034E+03  0.26017623803E+03  0.12499784977E+03 0.  0.
    9000005    1    3    3    0    0 -0.46140278188E+01 -0.31444470914E+02 -0.22608520166E+03  0.22831023282E+03  0.10000000000E+01 0.  0.
    9000005    1    3    3    0    0  0.46140278188E+01  0.31444470914E+02 -0.20972086854E+01  0.31866005210E+02  0.10000000000E+01 0.  0.
<mgrwt>
<rscale>  0 0.12499785E+03</rscale>
<asrwt>0</asrwt>
<pdfrwt beam="1">  1        4 0.24610638E-02 0.12499785E+03</pdfrwt>
<pdfrwt beam="2">  1       -4 0.37566047E-01 0.12499785E+03</pdfrwt>
<totfact> 0.80885207E+03</totfact>
</mgrwt>
</event>
<event>
 5    1  0.3434846E-002  0.1249879E+03  0.7818608E-02  0.1235088E+00
          4   -1    0    0  501    0  0.00000000000E+00  0.00000000000E+00  0.27662586489E+02  0.27691724238E+02  0.12700000000E+01 0. -1.
         -4   -1    0    0    0  501 -0.00000000000E+00 -0.00000000000E+00 -0.14107688733E+03  0.14108260360E+03  0.12700000000E+01 0. -1.
         25    2    1    2    0    0  0.00000000000E+00  0.00000000000E+00 -0.11341430084E+03  0.16877432784E+03  0.12498787982E+03 0.  0.
    9000005    1    3    3    0    0 -0.44884830349E+02  0.35231126453E+02 -0.22317238602E+02  0.61277560374E+02  0.10000000000E+01 0.  0.
    9000005    1    3    3    0    0  0.44884830349E+02 -0.35231126453E+02 -0.91097062241E+02  0.10749676747E+03  0.10000000000E+01 0.  0.
<mgrwt>
<rscale>  0 0.12498788E+03</rscale>
<asrwt>0</asrwt>
<pdfrwt beam="1">  1        4 0.42584637E-02 0.12498788E+03</pdfrwt>
<pdfrwt beam="2">  1       -4 0.21706817E-01 0.12498788E+03</pdfrwt>
<totfact> 0.95703375E+03</totfact>
</mgrwt>
</event>
<event>
 5    1  0.3434846E-002  0.1250129E+03  0.7818608E-02  0.1235049E+00
         -4   -1    0    0    0  501 -0.00000000000E+00  0.00000000000E+00  0.68326738592E+01  0.69497001422E+01  0.12700000000E+01 0. -1.
          4   -1    0    0  501    0  0.00000000000E+00 -0.00000000000E+00 -0.56684645750E+03  0.56684788020E+03  0.12700000000E+01 0. -1.
         25    2    1    2    0    0  0.00000000000E+00  0.00000000000E+00 -0.56001378364E+03  0.57379758034E+03  0.12501290066E+03 0.  0.
    9000005    1    3    3    0    0  0.41469152210E+02  0.13645887751E+02 -0.48528174975E+03  0.48724252429E+03  0.10000000000E+01 0.  0.
    9000005    1    3    3    0    0 -0.41469152210E+02 -0.13645887751E+02 -0.74732033897E+02  0.86555056051E+02  0.10000000000E+01 0.  0.
<mgrwt>
<rscale>  0 0.12501290E+03</rscale>
<asrwt>0</asrwt>
<pdfrwt beam="2">  1        4 0.87216222E-01 0.12501290E+03</pdfrwt>
<pdfrwt beam="1">  1       -4 0.10602925E-02 0.12501290E+03</pdfrwt>
<totfact> 0.50550190E+03</totfact>
</mgrwt>
</event>
<event>
 5    1  0.3434846E-002  0.1250246E+03  0.7818608E-02  0.1235031E+00
         -4   -1    0    0    0  501 -0.00000000000E+00  0.00000000000E+00  0.76681974622E+02  0.76692490714E+02  0.12700000000E+01 0. -1.
          4   -1    0    0  501    0  0.00000000000E+00 -0.00000000000E+00 -0.50939081467E+02  0.50954910663E+02  0.12700000000E+01 0. -1.
         25    2    1    2    0    0  0.00000000000E+00  0.00000000000E+00  0.25742893155E+02  0.12764740138E+03  0.12502464769E+03 0.  0.
    9000005    1    3    3    0    0  0.33684980567E+02  0.52567861181E+02  0.98543424292E+01  0.63215235582E+02  0.10000000000E+01 0.  0.
    9000005    1    3    3    0    0 -0.33684980567E+02 -0.52567861181E+02  0.15888550726E+02  0.64432165796E+02  0.10000000000E+01 0.  0.
<mgrwt>
<rscale>  0 0.12502465E+03</rscale>
<asrwt>0</asrwt>
<pdfrwt beam="2">  1        4 0.78388084E-02 0.12502465E+03</pdfrwt>
<pdfrwt beam="1">  1       -4 0.11799253E-01 0.12502465E+03</pdfrwt>
<totfact> 0.10389328E+04</totfact>
</mgrwt>
</event>
<event>
 5    1  0.3434846E-002  0.1249999E+03  0.7818608E-02  0.1235069E+00
          4   -1    0    0  501    0  0.00000000000E+00  0.00000000000E+00  0.26819494865E+03  0.26819795559E+03  0.12700000000E+01 0.  1.
         -4   -1    0    0    0  501 -0.00000000000E+00 -0.00000000000E+00 -0.14534167068E+02  0.14589548052E+02  0.12700000000E+01 0.  1.
         25    2    1    2    0    0  0.00000000000E+00  0.00000000000E+00  0.25366078158E+03  0.28278750364E+03  0.12499992041E+03 0.  0.
    9000005    1    3    3    0    0 -0.22371751325E+02  0.17728812068E+02  0.10651678920E+01  0.28582173069E+02  0.10000000000E+01 0.  0.
    9000005    1    3    3    0    0  0.22371751325E+02 -0.17728812068E+02  0.25259561369E+03  0.25420533057E+03  0.10000000000E+01 0.  0.
<mgrwt>
<rscale>  0 0.12499992E+03</rscale>
<asrwt>0</asrwt>
<pdfrwt beam="1">  1        4 0.41265251E-01 0.12499992E+03</pdfrwt>
<pdfrwt beam="2">  1       -4 0.22405172E-02 0.12499992E+03</pdfrwt>
<totfact> 0.77810086E+03</totfact>
</mgrwt>
</event>
<event>
 5    1  0.3434846E-002  0.1250344E+03  0.7818608E-02  0.1235016E+00
          4   -1    0    0  501    0  0.00000000000E+00  0.00000000000E+00  0.13192568469E+02  0.13253556610E+02  0.12700000000E+01 0. -1.
         -4   -1    0    0    0  501 -0.00000000000E+00 -0.00000000000E+00 -0.29551198413E+03  0.29551471311E+03  0.12700000000E+01 0. -1.
         25    2    1    2    0    0  0.00000000000E+00  0.00000000000E+00 -0.28231941566E+03  0.30876826972E+03  0.12503436298E+03 0.  0.
    9000005    1    3    3    0    0  0.19032731115E+02  0.38633850795E+02 -0.25303989577E+03  0.25668075139E+03  0.10000000000E+01 0.  0.
    9000005    1    3    3    0    0 -0.19032731115E+02 -0.38633850795E+02 -0.29279519887E+02  0.52087518330E+02  0.10000000000E+01 0.  0.
<mgrwt>
<rscale>  0 0.12503436E+03</rscale>
<asrwt>0</asrwt>
<pdfrwt beam="1">  1        4 0.20345275E-02 0.12503436E+03</pdfrwt>
<pdfrwt beam="2">  1       -4 0.45468278E-01 0.12503436E+03</pdfrwt>
<totfact> 0.74455186E+03</totfact>
</mgrwt>
</event>
<event>
 5    1  0.3434846E-002  0.1250005E+03  0.7818608E-02  0.1235069E+00
          4   -1    0    0  501    0  0.00000000000E+00  0.00000000000E+00  0.30941449922E+02  0.30967502697E+02  0.12700000000E+01 0.  1.
         -4   -1    0    0    0  501 -0.00000000000E+00 -0.00000000000E+00 -0.12616506738E+03  0.12617145924E+03  0.12700000000E+01 0.  1.
         25    2    1    2    0    0  0.00000000000E+00  0.00000000000E+00 -0.95223617456E+02  0.15713896194E+03  0.12500046415E+03 0.  0.
    9000005    1    3    3    0    0  0.34299460413E+02  0.50383500242E+02 -0.64954825936E+02  0.89079063161E+02  0.10000000000E+01 0.  0.
    9000005    1    3    3    0    0 -0.34299460413E+02 -0.50383500242E+02 -0.30268791519E+02  0.68059898775E+02  0.10000000000E+01 0.  0.
<mgrwt>
<rscale>  0 0.12500046E+03</rscale>
<asrwt>0</asrwt>
<pdfrwt beam="1">  1        4 0.47627189E-02 0.12500046E+03</pdfrwt>
<pdfrwt beam="2">  1       -4 0.19412506E-01 0.12500046E+03</pdfrwt>
<totfact> 0.97896202E+03</totfact>
</mgrwt>
</event>
<event>
 5    1  0.3434846E-002  0.1249990E+03  0.7818608E-02  0.1235071E+00
          4   -1    0    0  501    0  0.00000000000E+00  0.00000000000E+00  0.12865598434E+02  0.12928129140E+02  0.12700000000E+01 0. -1.
         -4   -1    0    0    0  501 -0.00000000000E+00 -0.00000000000E+00 -0.30281477716E+03  0.30281744032E+03  0.12700000000E+01 0. -1.
         25    2    1    2    0    0  0.00000000000E+00  0.00000000000E+00 -0.28994917872E+03  0.31574556946E+03  0.12499895357E+03 0.  0.
    9000005    1    3    3    0    0 -0.32992704417E+02  0.51392537919E+02 -0.17843537720E+03  0.18859982857E+03  0.10000000000E+01 0.  0.
    9000005    1    3    3    0    0  0.32992704417E+02 -0.51392537919E+02 -0.11151380152E+03  0.12714574090E+03  0.10000000000E+01 0.  0.
<mgrwt>
<rscale>  0 0.12499895E+03</rscale>
<asrwt>0</asrwt>
<pdfrwt beam="1">  1        4 0.19843380E-02 0.12499895E+03</pdfrwt>
<pdfrwt beam="2">  1       -4 0.46591898E-01 0.12499895E+03</pdfrwt>
<totfact> 0.73666718E+03</totfact>
</mgrwt>
</event>
<event>
 5    1  0.3434846E-002  0.1249754E+03  0.7818608E-02  0.1235108E+00
         -4   -1    0    0    0  501 -0.00000000000E+00  0.00000000000E+00  0.75521677402E+02  0.75532355038E+02  0.12700000000E+01 0. -1.
          4   -1    0    0  501    0  0.00000000000E+00 -0.00000000000E+00 -0.51681090128E+02  0.51696692127E+02  0.12700000000E+01 0. -1.
         25    2    1    2    0    0  0.00000000000E+00  0.00000000000E+00  0.23840587273E+02  0.12722904716E+03  0.12497542495E+03 0.  0.
    9000005    1    3    3    0    0 -0.44676997251E+02  0.25035163595E+02  0.48355629428E+02  0.70441893763E+02  0.10000000000E+01 0.  0.
    9000005    1    3    3    0    0  0.44676997251E+02 -0.25035163595E+02 -0.24515042155E+02  0.56787153401E+02  0.10000000000E+01 0.  0.
<mgrwt>
<rscale>  0 0.12497542E+03</rscale>
<asrwt>0</asrwt>
<pdfrwt beam="2">  1        4 0.79529585E-02 0.12497542E+03</pdfrwt>
<pdfrwt beam="1">  1       -4 0.11620741E-01 0.12497542E+03</pdfrwt>
<totfact> 0.10409947E+04</totfact>
</mgrwt>
</event>
<event>
 5    1  0.3434846E-002  0.1249922E+03  0.7818608E-02  0.1235081E+00
          4   -1    0    0  501    0  0.00000000000E+00  0.00000000000E+00  0.47918654204E+03  0.47918822499E+03  0.12700000000E+01 0.  1.
         -4   -1    0    0    0  501 -0.00000000000E+00 -0.00000000000E+00 -0.80996383650E+01  0.81985999807E+01  0.12700000000E+01 0.  1.
         25    2    1    2    0    0  0.00000000000E+00  0.00000000000E+00  0.47108690367E+03  0.48738682497E+03  0.12499218513E+03 0.  0.
    9000005    1    3    3    0    0 -0.60729289049E+02  0.89307571616E+01  0.18991009363E+03  0.19958619349E+03  0.10000000000E+01 0.  0.
    9000005    1    3    3    0    0  0.60729289049E+02 -0.89307571616E+01  0.28117681005E+03  0.28780063148E+03  0.10000000000E+01 0.  0.
<mgrwt>
<rscale>  0 0.12499219E+03</rscale>
<asrwt>0</asrwt>
<pdfrwt beam="1">  1        4 0.73728753E-01 0.12499219E+03</pdfrwt>
<pdfrwt beam="2">  1       -4 0.12538400E-02 0.12499219E+03</pdfrwt>
<totfact> 0.56866219E+03</totfact>
</mgrwt>
</event>
<event>
 5    1  0.3434846E-002  0.1249998E+03  0.7818608E-02  0.1235070E+00
         -4   -1    0    0    0  501 -0.00000000000E+00  0.00000000000E+00  0.34661026847E+03  0.34661259514E+03  0.12700000000E+01 0. -1.
          4   -1    0    0  501    0  0.00000000000E+00 -0.00000000000E+00 -0.11231666060E+02  0.11303239468E+02  0.12700000000E+01 0. -1.
         25    2    1    2    0    0  0.00000000000E+00  0.00000000000E+00  0.33537860242E+03  0.35791583461E+03  0.12499975083E+03 0.  0.
    9000005    1    3    3    0    0  0.36214679449E+02  0.38342153716E+02  0.71709534030E+02  0.89021800870E+02  0.10000000000E+01 0.  0.
    9000005    1    3    3    0    0 -0.36214679449E+02 -0.38342153716E+02  0.26366906838E+03  0.26889403374E+03  0.10000000000E+01 0.  0.
<mgrwt>
<rscale>  0 0.12499975E+03</rscale>
<asrwt>0</asrwt>
<pdfrwt beam="2">  1        4 0.17336333E-02 0.12499975E+03</pdfrwt>
<pdfrwt beam="1">  1       -4 0.53330341E-01 0.12499975E+03</pdfrwt>
<totfact> 0.68862785E+03</totfact>
</mgrwt>
</event>
<event>
 5    1  0.3434846E-002  0.1250002E+03  0.7818608E-02  0.1235069E+00
         -4   -1    0    0    0  501 -0.00000000000E+00  0.00000000000E+00  0.25148489651E+03  0.25148810324E+03  0.12700000000E+01 0. -1.
          4   -1    0    0  501    0  0.00000000000E+00 -0.00000000000E+00 -0.15503528203E+02  0.15555458422E+02  0.12700000000E+01 0. -1.
         25    2    1    2    0    0  0.00000000000E+00  0.00000000000E+00  0.23598136831E+03  0.26704356167E+03  0.12500023056E+03 0.  0.
    9000005    1    3    3    0    0 -0.24375871581E+02  0.57406431346E+02  0.12642395250E+03  0.14097410132E+03  0.10000000000E+01 0.  0.
    9000005    1    3    3    0    0  0.24375871581E+02 -0.57406431346E+02  0.10955741581E+03  0.12606946035E+03  0.10000000000E+01 0.  0.
<mgrwt>
<rscale>  0 0.12500023E+03</rscale>
<asrwt>0</asrwt>
<pdfrwt beam="2">  1        4 0.23893996E-02 0.12500023E+03</pdfrwt>
<pdfrwt beam="1">  1       -4 0.38694223E-01 0.12500023E+03</pdfrwt>
<totfact> 0.79927238E+03</totfact>
</mgrwt>
</event>
<event>
 5    1  0.3434846E-002  0.1249946E+03  0.7818608E-02  0.1235078E+00
          4   -1    0    0  501    0  0.00000000000E+00  0.00000000000E+00  0.10689026569E+02  0.10764208702E+02  0.12700000000E+01 0. -1.
         -4   -1    0    0    0  501 -0.00000000000E+00 -0.00000000000E+00 -0.36405664132E+03  0.36405885649E+03  0.12700000000E+01 0. -1.
         25    2    1    2    0    0  0.00000000000E+00  0.00000000000E+00 -0.35336761475E+03  0.37482306520E+03  0.12499463607E+03 0.  0.
    9000005    1    3    3    0    0  0.39084481946E+02  0.41920301687E+02 -0.10201606913E+03  0.11701789087E+03  0.10000000000E+01 0.  0.
    9000005    1    3    3    0    0 -0.39084481946E+02 -0.41920301687E+02 -0.25135154562E+03  0.25780517433E+03  0.10000000000E+01 0.  0.
<mgrwt>
<rscale>  0 0.12499464E+03</rscale>
<asrwt>0</asrwt>
<pdfrwt beam="1">  1        4 0.16504195E-02 0.12499464E+03</pdfrwt>
<pdfrwt beam="2">  1       -4 0.56014658E-01 0.12499464E+03</pdfrwt>
<totfact> 0.67085312E+03</totfact>
</mgrwt>
</event>
<event>
 5    1  0.3434846E-002  0.1250196E+03  0.7818608E-02  0.1235039E+00
          4   -1    0    0  501    0  0.00000000000E+00  0.00000000000E+00  0.81086709384E+01  0.82075236453E+01  0.12700000000E+01 0. -1.
         -4   -1    0    0    0  501 -0.00000000000E+00 -0.00000000000E+00 -0.47886895234E+03  0.47887063641E+03  0.12700000000E+01 0. -1.
         25    2    1    2    0    0  0.00000000000E+00  0.00000000000E+00 -0.47076028141E+03  0.48707816006E+03  0.12501956430E+03 0.  0.
    9000005    1    3    3    0    0 -0.39344837872E+02  0.48539213674E+02 -0.24141749790E+03  0.24937417634E+03  0.10000000000E+01 0.  0.
    9000005    1    3    3    0    0  0.39344837872E+02 -0.48539213674E+02 -0.22934278351E+03  0.23770398372E+03  0.10000000000E+01 0.  0.
<mgrwt>
<rscale>  0 0.12501956E+03</rscale>
<asrwt>0</asrwt>
<pdfrwt beam="1">  1        4 0.12552218E-02 0.12501956E+03</pdfrwt>
<pdfrwt beam="2">  1       -4 0.73679858E-01 0.12501956E+03</pdfrwt>
<totfact> 0.56856604E+03</totfact>
</mgrwt>
</event>
<event>
 5    1  0.3434846E-002  0.1249855E+03  0.7818608E-02  0.1235092E+00
         -4   -1    0    0    0  501 -0.00000000000E+00  0.00000000000E+00  0.61643589924E+02  0.61656671000E+02  0.12700000000E+01 0. -1.
          4   -1    0    0  501    0  0.00000000000E+00 -0.00000000000E+00 -0.63327403210E+02  0.63340136544E+02  0.12700000000E+01 0. -1.
         25    2    1    2    0    0  0.00000000000E+00  0.00000000000E+00 -0.16838132859E+01  0.12499680754E+03  0.12498546583E+03 0.  0.
    9000005    1    3    3    0    0 -0.13305286310E+02 -0.54756809016E+02 -0.27844410257E+02  0.62862150456E+02  0.10000000000E+01 0.  0.
    9000005    1    3    3    0    0  0.13305286310E+02  0.54756809016E+02  0.26160596971E+02  0.62134657087E+02  0.10000000000E+01 0.  0.
<mgrwt>
<rscale>  0 0.12498547E+03</rscale>
<asrwt>0</asrwt>
<pdfrwt beam="2">  1        4 0.97446632E-02 0.12498547E+03</pdfrwt>
<pdfrwt beam="1">  1       -4 0.94856149E-02 0.12498547E+03</pdfrwt>
<totfact> 0.10456366E+04</totfact>
</mgrwt>
</event>
<event>
 5    1  0.3434846E-002  0.1250071E+03  0.7818608E-02  0.1235058E+00
          4   -1    0    0  501    0  0.00000000000E+00  0.00000000000E+00  0.28887375547E+02  0.28915279110E+02  0.12700000000E+01 0.  1.
         -4   -1    0    0    0  501 -0.00000000000E+00 -0.00000000000E+00 -0.13514257228E+03  0.13514853955E+03  0.12700000000E+01 0.  1.
         25    2    1    2    0    0  0.00000000000E+00  0.00000000000E+00 -0.10625519673E+03  0.16406381866E+03  0.12500707884E+03 0.  0.
    9000005    1    3    3    0    0  0.21953223067E+02 -0.29737291340E+02  0.13009837441E+02  0.39198295492E+02  0.10000000000E+01 0.  0.
    9000005    1    3    3    0    0 -0.21953223067E+02  0.29737291340E+02 -0.11926503417E+03  0.12486552316E+03  0.10000000000E+01 0.  0.
<mgrwt>
<rscale>  0 0.12500708E+03</rscale>
<asrwt>0</asrwt>
<pdfrwt beam="1">  1        4 0.44468171E-02 0.12500708E+03</pdfrwt>
<pdfrwt beam="2">  1       -4 0.20793770E-01 0.12500708E+03</pdfrwt>
<totfact> 0.96549628E+03</totfact>
</mgrwt>
</event>
<event>
 5    1  0.3434846E-002  0.1250054E+03  0.7818608E-02  0.1235061E+00
          4   -1    0    0  501    0  0.00000000000E+00  0.00000000000E+00  0.33279313496E+03  0.33279555823E+03  0.12700000000E+01 0. -1.
         -4   -1    0    0    0  501 -0.00000000000E+00 -0.00000000000E+00 -0.11701960122E+02  0.11770674182E+02  0.12700000000E+01 0. -1.
         25    2    1    2    0    0  0.00000000000E+00  0.00000000000E+00  0.32109117484E+03  0.34456623241E+03  0.12500538372E+03 0.  0.
    9000005    1    3    3    0    0  0.25400102317E+02  0.56364976421E+02  0.18571974493E+03  0.19574217588E+03  0.10000000000E+01 0.  0.
    9000005    1    3    3    0    0 -0.25400102317E+02 -0.56364976421E+02  0.13537142992E+03  0.14882405653E+03  0.10000000000E+01 0.  0.
<mgrwt>
<rscale>  0 0.12500538E+03</rscale>
<asrwt>0</asrwt>
<pdfrwt beam="1">  1        4 0.51204420E-01 0.12500538E+03</pdfrwt>
<pdfrwt beam="2">  1       -4 0.18057735E-02 0.12500538E+03</pdfrwt>
<totfact> 0.70318117E+03</totfact>
</mgrwt>
</event>
<event>
 5    1  0.3434846E-002  0.1250139E+03  0.7818608E-02  0.1235048E+00
          4   -1    0    0  501    0  0.00000000000E+00  0.00000000000E+00  0.12679561921E+02  0.12743005553E+02  0.12700000000E+01 0. -1.
         -4   -1    0    0    0  501 -0.00000000000E+00 -0.00000000000E+00 -0.30730941302E+03  0.30731203724E+03  0.12700000000E+01 0. -1.
         25    2    1    2    0    0  0.00000000000E+00  0.00000000000E+00 -0.29462985110E+03  0.32005504279E+03  0.12501392425E+03 0.  0.
    9000005    1    3    3    0    0 -0.27548112227E+02 -0.55967049098E+02 -0.15720098455E+03  0.16912823128E+03  0.10000000000E+01 0.  0.
    9000005    1    3    3    0    0  0.27548112227E+02  0.55967049098E+02 -0.13742886654E+03  0.15092681151E+03  0.10000000000E+01 0.  0.
<mgrwt>
<rscale>  0 0.12501392E+03</rscale>
<asrwt>0</asrwt>
<pdfrwt beam="1">  1        4 0.19557842E-02 0.12501392E+03</pdfrwt>
<pdfrwt beam="2">  1       -4 0.47283448E-01 0.12501392E+03</pdfrwt>
<totfact> 0.73127008E+03</totfact>
</mgrwt>
</event>
<event>
 5    1  0.3434846E-002  0.1250010E+03  0.7818608E-02  0.1235068E+00
          4   -1    0    0  501    0  0.00000000000E+00  0.00000000000E+00  0.12411140479E+03  0.12411790241E+03  0.12700000000E+01 0. -1.
         -4   -1    0    0    0  501 -0.00000000000E+00 -0.00000000000E+00 -0.31454113691E+02  0.31479742186E+02  0.12700000000E+01 0. -1.
         25    2    1    2    0    0  0.00000000000E+00  0.00000000000E+00  0.92657291099E+02  0.15559764460E+03  0.12500101364E+03 0.  0.
    9000005    1    3    3    0    0  0.29106961604E+02  0.12573572506E+02 -0.20704367102E+02  0.37881139852E+02  0.10000000000E+01 0.  0.
    9000005    1    3    3    0    0 -0.29106961604E+02 -0.12573572506E+02  0.11336165820E+03  0.11771650475E+03  0.10000000000E+01 0.  0.
<mgrwt>
<rscale>  0 0.12500101E+03</rscale>
<asrwt>0</asrwt>
<pdfrwt beam="1">  1        4 0.19096534E-01 0.12500101E+03</pdfrwt>
<pdfrwt beam="2">  1       -4 0.48415656E-02 0.12500101E+03</pdfrwt>
<totfact> 0.98196063E+03</totfact>
</mgrwt>
</event>
<event>
 5    1  0.3434846E-002  0.1250022E+03  0.7818608E-02  0.1235066E+00
         -4   -1    0    0    0  501 -0.00000000000E+00  0.00000000000E+00  0.24658219338E+02  0.24690902797E+02  0.12700000000E+01 0. -1.
          4   -1    0    0  501    0  0.00000000000E+00 -0.00000000000E+00 -0.15828114577E+03  0.15828624073E+03  0.12700000000E+01 0. -1.
         25    2    1    2    0    0  0.00000000000E+00  0.00000000000E+00 -0.13362292643E+03  0.18297714353E+03  0.12500219433E+03 0.  0.
    9000005    1    3    3    0    0  0.47496029723E+02 -0.36971456364E+02 -0.91419957915E+02  0.10945944514E+03  0.10000000000E+01 0.  0.
    9000005    1    3    3    0    0 -0.47496029723E+02  0.36971456364E+02 -0.42202968514E+02  0.73517698390E+02  0.10000000000E+01 0.  0.
<mgrwt>
<rscale>  0 0.12500219E+03</rscale>
<asrwt>0</asrwt>
<pdfrwt beam="2">  1        4 0.24353851E-01 0.12500219E+03</pdfrwt>
<pdfrwt beam="1">  1       -4 0.37964783E-02 0.12500219E+03</pdfrwt>
<totfact> 0.93079258E+03</totfact>
</mgrwt>
</event>
<event>
 5    1  0.3434846E-002  0.1250022E+03  0.7818608E-02  0.1235066E+00
          4   -1    0    0  501    0  0.00000000000E+00  0.00000000000E+00  0.41105293649E+02  0.41124908097E+02  0.12700000000E+01 0. -1.
         -4   -1    0    0    0  501 -0.00000000000E+00 -0.00000000000E+00 -0.94987203788E+02  0.94995693500E+02  0.12700000000E+01 0. -1.
         25    2    1    2    0    0  0.00000000000E+00  0.00000000000E+00 -0.53881910139E+02  0.13612060160E+03  0.12500223174E+03 0.  0.
    9000005    1    3    3    0    0  0.92375416896E+01  0.29601761177E+02  0.32141662844E+02  0.44673067184E+02  0.10000000000E+01 0.  0.
    9000005    1    3    3    0    0 -0.92375416896E+01 -0.29601761177E+02 -0.86023572983E+02  0.91447534412E+02  0.10000000000E+01 0.  0.
<mgrwt>
<rscale>  0 0.12500223E+03</rscale>
<asrwt>0</asrwt>
<pdfrwt beam="1">  1        4 0.63260532E-02 0.12500223E+03</pdfrwt>
<pdfrwt beam="2">  1       -4 0.14615578E-01 0.12500223E+03</pdfrwt>
<totfact> 0.10213991E+04</totfact>
</mgrwt>
</event>
<event>
 4    1  0.3434846E-002  0.1250824E+03  0.7818608E-02  0.1234940E+00
         -4   -1    0    0    0  501 -0.00000000000E+00  0.00000000000E+00  0.27723767326E+03  0.27724058212E+03  0.12700000000E+01 0. -1.
          4   -1    0    0  501    0  0.00000000000E+00 -0.00000000000E+00 -0.14076918529E+02  0.14134091243E+02  0.12700000000E+01 0. -1.
    9000005    1    1    2    0    0 -0.14915599090E+02 -0.54163193590E+02  0.67603787444E+02  0.87905623898E+02  0.10000000000E+01 0.  0.
    9000005    1    1    2    0    0  0.14915599090E+02  0.54163193590E+02  0.19555696729E+03  0.20346904947E+03  0.10000000000E+01 0.  0.
<mgrwt>
<rscale>  0 0.12508244E+03</rscale>
<asrwt>0</asrwt>
<pdfrwt beam="2">  1        4 0.21703014E-02 0.12508244E+03</pdfrwt>
<pdfrwt beam="1">  1       -4 0.42656573E-01 0.12508244E+03</pdfrwt>
<totfact> 0.76553407E+03</totfact>
</mgrwt>
</event>
<event>
 5    1  0.3434846E-002  0.1250044E+03  0.7818608E-02  0.1235062E+00
         -4   -1    0    0    0  501 -0.00000000000E+00  0.00000000000E+00  0.50288898034E+02  0.50304931821E+02  0.12700000000E+01 0.  1.
          4   -1    0    0  501    0  0.00000000000E+00 -0.00000000000E+00 -0.77648064980E+02  0.77658450249E+02  0.12700000000E+01 0.  1.
         25    2    1    2    0    0  0.00000000000E+00  0.00000000000E+00 -0.27359166946E+02  0.12796338207E+03  0.12500441246E+03 0.  0.
    9000005    1    3    3    0    0 -0.10228622697E+02  0.19607260118E+02  0.46154453972E+02  0.51188895213E+02  0.10000000000E+01 0.  0.
    9000005    1    3    3    0    0  0.10228622697E+02 -0.19607260118E+02 -0.73513620918E+02  0.76774486857E+02  0.10000000000E+01 0.  0.
<mgrwt>
<rscale>  0 0.12500441E+03</rscale>
<asrwt>0</asrwt>
<pdfrwt beam="2">  1        4 0.11947888E-01 0.12500441E+03</pdfrwt>
<pdfrwt beam="1">  1       -4 0.77387858E-02 0.12500441E+03</pdfrwt>
<totfact> 0.10387244E+04</totfact>
</mgrwt>
</event>
<event>
 4    1  0.3434846E-002  0.1249118E+03  0.7818608E-02  0.1235207E+00
         -4   -1    0    0    0  501 -0.00000000000E+00  0.00000000000E+00  0.39270105392E+02  0.39290636002E+02  0.12700000000E+01 0. -1.
          4   -1    0    0  501    0  0.00000000000E+00 -0.00000000000E+00 -0.99280446471E+02  0.99288569088E+02  0.12700000000E+01 0. -1.
    9000005    1    1    2    0    0 -0.48033521311E+02  0.30600075562E+02 -0.15868866883E+01  0.56983348474E+02  0.10000000000E+01 0.  0.
    9000005    1    1    2    0    0  0.48033521311E+02 -0.30600075562E+02 -0.58423454391E+02  0.81595856616E+02  0.10000000000E+01 0.  0.
<mgrwt>
<rscale>  0 0.12491179E+03</rscale>
<asrwt>0</asrwt>
<pdfrwt beam="2">  1        4 0.15276119E-01 0.12491179E+03</pdfrwt>
<pdfrwt beam="1">  1       -4 0.60437588E-02 0.12491179E+03</pdfrwt>
<totfact> 0.10183345E+04</totfact>
</mgrwt>
</event>
<event>
 5    1  0.3434846E-002  0.1249977E+03  0.7818608E-02  0.1235073E+00
          4   -1    0    0  501    0  0.00000000000E+00  0.00000000000E+00  0.32996700102E+02  0.33021131380E+02  0.12700000000E+01 0.  1.
         -4   -1    0    0    0  501 -0.00000000000E+00 -0.00000000000E+00 -0.11830709610E+03  0.11831391249E+03  0.12700000000E+01 0.  1.
         25    2    1    2    0    0  0.00000000000E+00  0.00000000000E+00 -0.85310395999E+02  0.15133504387E+03  0.12499772732E+03 0.  0.
    9000005    1    3    3    0    0 -0.64108206481E+01  0.43677278285E+02  0.10894329015E+02  0.45480651540E+02  0.10000000000E+01 0.  0.
    9000005    1    3    3    0    0  0.64108206481E+01 -0.43677278285E+02 -0.96204725014E+02  0.10585439233E+03  0.10000000000E+01 0.  0.
<mgrwt>
<rscale>  0 0.12499773E+03</rscale>
<asrwt>0</asrwt>
<pdfrwt beam="1">  1        4 0.50788191E-02 0.12499773E+03</pdfrwt>
<pdfrwt beam="2">  1       -4 0.18203495E-01 0.12499773E+03</pdfrwt>
<totfact> 0.99043305E+03</totfact>
</mgrwt>
</event>
<event>
 5    1  0.3434846E-002  0.1249986E+03  0.7818608E-02  0.1235072E+00
          4   -1    0    0  501    0  0.00000000000E+00  0.00000000000E+00  0.62670104134E+01  0.63943975105E+01  0.12700000000E+01 0.  1.
         -4   -1    0    0    0  501 -0.00000000000E+00 -0.00000000000E+00 -0.61689019056E+03  0.61689149784E+03  0.12700000000E+01 0.  1.
         25    2    1    2    0    0  0.00000000000E+00  0.00000000000E+00 -0.61062318014E+03  0.62328589535E+03  0.12499855684E+03 0.  0.
    9000005    1    3    3    0    0  0.62863358960E+01 -0.45407262024E+02 -0.51708877972E+03  0.51911765871E+03  0.10000000000E+01 0.  0.
    9000005    1    3    3    0    0 -0.62863358960E+01  0.45407262024E+02 -0.93534400417E+02  0.10416823664E+03  0.10000000000E+01 0.  0.
<mgrwt>
<rscale>  0 0.12499856E+03</rscale>
<asrwt>0</asrwt>
<pdfrwt beam="1">  1        4 0.97405551E-03 0.12499856E+03</pdfrwt>
<pdfrwt beam="2">  1       -4 0.94916035E-01 0.12499856E+03</pdfrwt>
<totfact> 0.47431490E+03</totfact>
</mgrwt>
</event>
<event>
 5    1  0.3434846E-002  0.1250001E+03  0.7818608E-02  0.1235069E+00
          4   -1    0    0  501    0  0.00000000000E+00  0.00000000000E+00  0.14855986709E+02  0.14910172403E+02  0.12700000000E+01 0.  1.
         -4   -1    0    0    0  501 -0.00000000000E+00 -0.00000000000E+00 -0.26240714187E+03  0.26241021513E+03  0.12700000000E+01 0.  1.
         25    2    1    2    0    0  0.00000000000E+00  0.00000000000E+00 -0.24755115516E+03  0.27732038754E+03  0.12500009168E+03 0.  0.
    9000005    1    3    3    0    0  0.38360868744E+02 -0.33503007584E+02 -0.43438897598E+02  0.66947334469E+02  0.10000000000E+01 0.  0.
    9000005    1    3    3    0    0 -0.38360868744E+02  0.33503007584E+02 -0.20411225757E+03  0.21037305307E+03  0.10000000000E+01 0.  0.
<mgrwt>
<rscale>  0 0.12500009E+03</rscale>
<asrwt>0</asrwt>
<pdfrwt beam="1">  1        4 0.22899411E-02 0.12500009E+03</pdfrwt>
<pdfrwt beam="2">  1       -4 0.40374731E-01 0.12500009E+03</pdfrwt>
<totfact> 0.78534590E+03</totfact>
</mgrwt>
</event>
<event>
 5    1  0.3434846E-002  0.1249979E+03  0.7818608E-02  0.1235073E+00
         -4   -1    0    0    0  501 -0.00000000000E+00  0.00000000000E+00  0.24833758153E+03  0.24834082891E+03  0.12700000000E+01 0. -1.
          4   -1    0    0  501    0  0.00000000000E+00 -0.00000000000E+00 -0.15700071592E+02  0.15751353846E+02  0.12700000000E+01 0. -1.
         25    2    1    2    0    0  0.00000000000E+00  0.00000000000E+00  0.23263750994E+03  0.26409218275E+03  0.12499787982E+03 0.  0.
    9000005    1    3    3    0    0  0.45155649076E+02  0.52795617160E+01  0.25734943899E+02  0.52251255993E+02  0.10000000000E+01 0.  0.
    9000005    1    3    3    0    0 -0.45155649076E+02 -0.52795617160E+01  0.20690256604E+03  0.21184092676E+03  0.10000000000E+01 0.  0.
<mgrwt>
<rscale>  0 0.12499788E+03</rscale>
<asrwt>0</asrwt>
<pdfrwt beam="2">  1        4 0.24195903E-02 0.12499788E+03</pdfrwt>
<pdfrwt beam="1">  1       -4 0.38209974E-01 0.12499788E+03</pdfrwt>
<totfact> 0.80338980E+03</totfact>
</mgrwt>
</event>
<event>
 5    1  0.3434846E-002  0.1250009E+03  0.7818608E-02  0.1235068E+00
         -4   -1    0    0    0  501 -0.00000000000E+00  0.00000000000E+00  0.30307286587E+01  0.32860639377E+01  0.12700000000E+01 0.  1.
          4   -1    0    0  501    0  0.00000000000E+00 -0.00000000000E+00 -0.12365455541E+04  0.12365462063E+04  0.12700000000E+01 0.  1.
         25    2    1    2    0    0  0.00000000000E+00  0.00000000000E+00 -0.12335148254E+04  0.12398322702E+04  0.12500093475E+03 0.  0.
    9000005    1    3    3    0    0 -0.46216136329E+01 -0.44618890830E+02 -0.10483131318E+04  0.10492729040E+04  0.10000000000E+01 0.  0.
    9000005    1    3    3    0    0  0.46216136329E+01  0.44618890830E+02 -0.18520169363E+03  0.19055936623E+03  0.10000000000E+01 0.  0.
<mgrwt>
<rscale>  0 0.12500093E+03</rscale>
<asrwt>0</asrwt>
<pdfrwt beam="2">  1        4 0.19025708E+00 0.12500093E+03</pdfrwt>
<pdfrwt beam="1">  1       -4 0.48595828E-03 0.12500093E+03</pdfrwt>
<totfact> 0.23692875E+03</totfact>
</mgrwt>
</event>
<event>
 4    1  0.3434846E-002  0.1245317E+03  0.7818608E-02  0.1235803E+00
         -4   -1    0    0    0  501 -0.00000000000E+00  0.00000000000E+00  0.27060309254E+03  0.27060607272E+03  0.12700000000E+01 0. -1.
          4   -1    0    0  501    0  0.00000000000E+00 -0.00000000000E+00 -0.14296176657E+02  0.14352475989E+02  0.12700000000E+01 0. -1.
    9000005    1    1    2    0    0 -0.11746232210E+01 -0.28521346318E+02  0.15496299950E+01  0.28605039567E+02  0.10000000000E+01 0.  0.
    9000005    1    1    2    0    0  0.11746232210E+01  0.28521346318E+02  0.25475728589E+03  0.25635350914E+03  0.10000000000E+01 0.  0.
<mgrwt>
<rscale>  0 0.12453168E+03</rscale>
<asrwt>0</asrwt>
<pdfrwt beam="2">  1        4 0.22039721E-02 0.12453168E+03</pdfrwt>
<pdfrwt beam="1">  1       -4 0.41635799E-01 0.12453168E+03</pdfrwt>
<totfact> 0.78337533E+03</totfact>
</mgrwt>
</event>
<event>
 5    1  0.3434846E-002  0.1250016E+03  0.7818608E-02  0.1235067E+00
          4   -1    0    0  501    0  0.00000000000E+00  0.00000000000E+00  0.19180721737E+03  0.19181142181E+03  0.12700000000E+01 0. -1.
         -4   -1    0    0    0  501 -0.00000000000E+00 -0.00000000000E+00 -0.20341806531E+02  0.20381412928E+02  0.12700000000E+01 0. -1.
         25    2    1    2    0    0  0.00000000000E+00  0.00000000000E+00  0.17146541084E+03  0.21219283474E+03  0.12500164798E+03 0.  0.
    9000005    1    3    3    0    0  0.53849911946E+02  0.26665998661E+02  0.11486209925E+03  0.12963483461E+03  0.10000000000E+01 0.  0.
    9000005    1    3    3    0    0 -0.53849911946E+02 -0.26665998661E+02  0.56603311591E+02  0.82558000123E+02  0.10000000000E+01 0.  0.
<mgrwt>
<rscale>  0 0.12500165E+03</rscale>
<asrwt>0</asrwt>
<pdfrwt beam="1">  1        4 0.29512172E-01 0.12500165E+03</pdfrwt>
<pdfrwt beam="2">  1       -4 0.31328788E-02 0.12500165E+03</pdfrwt>
<totfact> 0.88115764E+03</totfact>
</mgrwt>
</event>
<event>
 4    1  0.3434846E-002  0.1249245E+03  0.7818608E-02  0.1235187E+00
         -4   -1    0    0    0  501 -0.00000000000E+00  0.00000000000E+00  0.15517740612E+02  0.15569623429E+02  0.12700000000E+01 0.  1.
          4   -1    0    0  501    0  0.00000000000E+00 -0.00000000000E+00 -0.25095103646E+03  0.25095425002E+03  0.12700000000E+01 0.  1.
    9000005    1    1    2    0    0  0.53668387829E+02 -0.22603932458E+02 -0.16586435839E+03  0.17579311420E+03  0.10000000000E+01 0.  0.
    9000005    1    1    2    0    0 -0.53668387829E+02  0.22603932458E+02 -0.69568937462E+02  0.90730759251E+02  0.10000000000E+01 0.  0.
<mgrwt>
<rscale>  0 0.12492453E+03</rscale>
<asrwt>0</asrwt>
<pdfrwt beam="2">  1        4 0.38612087E-01 0.12492453E+03</pdfrwt>
<pdfrwt beam="1">  1       -4 0.23915831E-02 0.12492453E+03</pdfrwt>
<totfact> 0.80133637E+03</totfact>
</mgrwt>
</event>
<event>
 5    1  0.3434846E-002  0.1250007E+03  0.7818608E-02  0.1235068E+00
          4   -1    0    0  501    0  0.00000000000E+00  0.00000000000E+00  0.46603293979E+01  0.48302763996E+01  0.12700000000E+01 0.  1.
         -4   -1    0    0    0  501 -0.00000000000E+00 -0.00000000000E+00 -0.82302124596E+03  0.82302222582E+03  0.12700000000E+01 0.  1.
         25    2    1    2    0    0  0.00000000000E+00  0.00000000000E+00 -0.81836091656E+03  0.82785250222E+03  0.12500070273E+03 0.  0.
    9000005    1    3    3    0    0 -0.36008556662E+02 -0.14265599932E+02 -0.84382389081E+02  0.92852092498E+02  0.10000000000E+01 0.  0.
    9000005    1    3    3    0    0  0.36008556662E+02  0.14265599932E+02 -0.73397852748E+03  0.73500040972E+03  0.10000000000E+01 0.  0.
<mgrwt>
<rscale>  0 0.12500070E+03</rscale>
<asrwt>0</asrwt>
<pdfrwt beam="1">  1        4 0.73012263E-03 0.12500070E+03</pdfrwt>
<pdfrwt beam="2">  1       -4 0.12663169E+00 0.12500070E+03</pdfrwt>
<totfact> 0.37050602E+03</totfact>
</mgrwt>
</event>
<event>
 5    1  0.3434846E-002  0.1249928E+03  0.7818608E-02  0.1235080E+00
          4   -1    0    0  501    0  0.00000000000E+00  0.00000000000E+00  0.55630762376E+02  0.55645256963E+02  0.12700000000E+01 0.  1.
         -4   -1    0    0    0  501 -0.00000000000E+00 -0.00000000000E+00 -0.70180024975E+02  0.70191515196E+02  0.12700000000E+01 0.  1.
         25    2    1    2    0    0  0.00000000000E+00  0.00000000000E+00 -0.14549262600E+02  0.12583677216E+03  0.12499284854E+03 0.  0.
    9000005    1    3    3    0    0  0.20587060626E+02 -0.42903250609E+02 -0.48048538918E+02  0.67632670140E+02  0.10000000000E+01 0.  0.
    9000005    1    3    3    0    0 -0.20587060626E+02  0.42903250609E+02  0.33499276318E+02  0.58204102020E+02  0.10000000000E+01 0.  0.
<mgrwt>
<rscale>  0 0.12499285E+03</rscale>
<asrwt>0</asrwt>
<pdfrwt beam="1">  1        4 0.85605776E-02 0.12499285E+03</pdfrwt>
<pdfrwt beam="2">  1       -4 0.10798926E-01 0.12499285E+03</pdfrwt>
<totfact> 0.10436222E+04</totfact>
</mgrwt>
</event>
<event>
 5    1  0.3434846E-002  0.1249953E+03  0.7818608E-02  0.1235077E+00
         -4   -1    0    0    0  501 -0.00000000000E+00  0.00000000000E+00  0.39246909952E+01  0.41250575036E+01  0.12700000000E+01 0. -1.
          4   -1    0    0  501    0  0.00000000000E+00 -0.00000000000E+00 -0.97025379385E+03  0.97025462502E+03  0.12700000000E+01 0. -1.
         25    2    1    2    0    0  0.00000000000E+00  0.00000000000E+00 -0.96632910286E+03  0.97437968253E+03  0.12499532271E+03 0.  0.
    9000005    1    3    3    0    0 -0.33859294710E+02  0.38586160488E+02 -0.20540415823E+03  0.21172437705E+03  0.10000000000E+01 0.  0.
    9000005    1    3    3    0    0  0.33859294710E+02 -0.38586160488E+02 -0.76092494462E+03  0.76265530548E+03  0.10000000000E+01 0.  0.
<mgrwt>
<rscale>  0 0.12499532E+03</rscale>
<asrwt>0</asrwt>
<pdfrwt beam="2">  1        4 0.14928511E+00 0.12499532E+03</pdfrwt>
<pdfrwt beam="1">  1       -4 0.61927613E-03 0.12499532E+03</pdfrwt>
<totfact> 0.31469155E+03</totfact>
</mgrwt>
</event>
<event>
 5    1  0.3434846E-002  0.1249982E+03  0.7818608E-02  0.1235072E+00
          4   -1    0    0  501    0  0.00000000000E+00  0.00000000000E+00  0.85262398008E+03  0.85262492592E+03  0.12700000000E+01 0. -1.
         -4   -1    0    0    0  501 -0.00000000000E+00 -0.00000000000E+00 -0.44923311210E+01  0.46683978944E+01  0.12700000000E+01 0. -1.
         25    2    1    2    0    0  0.00000000000E+00  0.00000000000E+00  0.84813164895E+03  0.85729332381E+03  0.12499819638E+03 0.  0.
    9000005    1    3    3    0    0 -0.20959211193E+02  0.95120155251E+01  0.82252736305E+03  0.82284994375E+03  0.10000000000E+01 0.  0.
    9000005    1    3    3    0    0  0.20959211193E+02 -0.95120155251E+01  0.25604285907E+02  0.34443380060E+02  0.10000000000E+01 0.  0.
<mgrwt>
<rscale>  0 0.12499820E+03</rscale>
<asrwt>0</asrwt>
<pdfrwt beam="1">  1        4 0.13118655E+00 0.12499820E+03</pdfrwt>
<pdfrwt beam="2">  1       -4 0.70474414E-03 0.12499820E+03</pdfrwt>
<totfact> 0.35832125E+03</totfact>
</mgrwt>
</event>
<event>
 5    1  0.3434846E-002  0.1250066E+03  0.7818608E-02  0.1235059E+00
         -4   -1    0    0    0  501 -0.00000000000E+00  0.00000000000E+00  0.15899358666E+02  0.15950000188E+02  0.12700000000E+01 0.  1.
          4   -1    0    0  501    0  0.00000000000E+00 -0.00000000000E+00 -0.24526894159E+03  0.24527222959E+03  0.12700000000E+01 0.  1.
         25    2    1    2    0    0  0.00000000000E+00  0.00000000000E+00 -0.22936958292E+03  0.26122222978E+03  0.12500659087E+03 0.  0.
    9000005    1    3    3    0    0 -0.39923460216E+02  0.31370991145E+02 -0.19082558775E+03  0.19746753329E+03  0.10000000000E+01 0.  0.
    9000005    1    3    3    0    0  0.39923460216E+02 -0.31370991145E+02 -0.38543995169E+02  0.63754696491E+02  0.10000000000E+01 0.  0.
<mgrwt>
<rscale>  0 0.12500659E+03</rscale>
<asrwt>0</asrwt>
<pdfrwt beam="2">  1        4 0.37737829E-01 0.12500659E+03</pdfrwt>
<pdfrwt beam="1">  1       -4 0.24502038E-02 0.12500659E+03</pdfrwt>
<totfact> 0.80723002E+03</totfact>
</mgrwt>
</event>
<event>
 5    1  0.3434846E-002  0.1250134E+03  0.7818608E-02  0.1235048E+00
          4   -1    0    0  501    0  0.00000000000E+00  0.00000000000E+00  0.12834628372E+02  0.12897309232E+02  0.12700000000E+01 0. -1.
         -4   -1    0    0    0  501 -0.00000000000E+00 -0.00000000000E+00 -0.30361195497E+03  0.30361461114E+03  0.12700000000E+01 0. -1.
         25    2    1    2    0    0  0.00000000000E+00  0.00000000000E+00 -0.29077732660E+03  0.31651192038E+03  0.12501336759E+03 0.  0.
    9000005    1    3    3    0    0  0.50377499755E+02  0.40087149098E+01 -0.23848696438E+03  0.24378472974E+03  0.10000000000E+01 0.  0.
    9000005    1    3    3    0    0 -0.50377499755E+02 -0.40087149098E+01 -0.52290362222E+02  0.72727190638E+02  0.10000000000E+01 0.  0.
<mgrwt>
<rscale>  0 0.12501337E+03</rscale>
<asrwt>0</asrwt>
<pdfrwt beam="1">  1        4 0.19795844E-02 0.12501337E+03</pdfrwt>
<pdfrwt beam="2">  1       -4 0.46714552E-01 0.12501337E+03</pdfrwt>
<totfact> 0.73551116E+03</totfact>
</mgrwt>
</event>
<event>
 5    1  0.3434846E-002  0.1250103E+03  0.7818608E-02  0.1235053E+00
          4   -1    0    0  501    0  0.00000000000E+00  0.00000000000E+00  0.46253259004E+02  0.46270691247E+02  0.12700000000E+01 0.  1.
         -4   -1    0    0    0  501 -0.00000000000E+00 -0.00000000000E+00 -0.84429312227E+02  0.84438863464E+02  0.12700000000E+01 0.  1.
         25    2    1    2    0    0  0.00000000000E+00  0.00000000000E+00 -0.38176053223E+02  0.13070955471E+03  0.12501030619E+03 0.  0.
    9000005    1    3    3    0    0 -0.51418429203E+02  0.34326805983E+02 -0.28654445414E+02  0.68148820332E+02  0.10000000000E+01 0.  0.
    9000005    1    3    3    0    0  0.51418429203E+02 -0.34326805983E+02 -0.95216078092E+01  0.62560734379E+02  0.10000000000E+01 0.  0.
<mgrwt>
<rscale>  0 0.12501031E+03</rscale>
<asrwt>0</asrwt>
<pdfrwt beam="1">  1        4 0.71179617E-02 0.12501031E+03</pdfrwt>
<pdfrwt beam="2">  1       -4 0.12991201E-01 0.12501031E+03</pdfrwt>
<totfact> 0.10326919E+04</totfact>
</mgrwt>
</event>
<event>
 5    1  0.3434846E-002  0.1250021E+03  0.7818608E-02  0.1235066E+00
          4   -1    0    0  501    0  0.00000000000E+00  0.00000000000E+00  0.22358678739E+03  0.22359039424E+03  0.12700000000E+01 0.  1.
         -4   -1    0    0    0  501 -0.00000000000E+00 -0.00000000000E+00 -0.17444598836E+02  0.17490766951E+02  0.12700000000E+01 0.  1.
         25    2    1    2    0    0  0.00000000000E+00  0.00000000000E+00  0.20614218855E+03  0.24108116119E+03  0.12500209750E+03 0.  0.
    9000005    1    3    3    0    0 -0.20665431760E+02 -0.19317424477E+02 -0.43990508684E+01  0.28645673439E+02  0.10000000000E+01 0.  0.
    9000005    1    3    3    0    0  0.20665431760E+02  0.19317424477E+02  0.21054123942E+03  0.21243548775E+03  0.10000000000E+01 0.  0.
<mgrwt>
<rscale>  0 0.12500210E+03</rscale>
<asrwt>0</asrwt>
<pdfrwt beam="1">  1        4 0.34401794E-01 0.12500210E+03</pdfrwt>
<pdfrwt beam="2">  1       -4 0.26876134E-02 0.12500210E+03</pdfrwt>
<totfact> 0.83632701E+03</totfact>
</mgrwt>
</event>
<event>
 5    1  0.3434846E-002  0.1249981E+03  0.7818608E-02  0.1235072E+00
          4   -1    0    0  501    0  0.00000000000E+00  0.00000000000E+00  0.41010870460E+02  0.41030530046E+02  0.12700000000E+01 0. -1.
         -4   -1    0    0    0  501 -0.00000000000E+00 -0.00000000000E+00 -0.95199560109E+02  0.95208030884E+02  0.12700000000E+01 0. -1.
         25    2    1    2    0    0  0.00000000000E+00  0.00000000000E+00 -0.54188689649E+02  0.13623856093E+03  0.12499812558E+03 0.  0.
    9000005    1    3    3    0    0  0.59048313329E+02  0.12557068855E+02 -0.44694169551E+02  0.75119585177E+02  0.10000000000E+01 0.  0.
    9000005    1    3    3    0    0 -0.59048313329E+02 -0.12557068855E+02 -0.94945200979E+01  0.61118975753E+02  0.10000000000E+01 0.  0.
<mgrwt>
<rscale>  0 0.12499813E+03</rscale>
<asrwt>0</asrwt>
<pdfrwt beam="1">  1        4 0.63115286E-02 0.12499813E+03</pdfrwt>
<pdfrwt beam="2">  1       -4 0.14648250E-01 0.12499813E+03</pdfrwt>
<totfact> 0.10212462E+04</totfact>
</mgrwt>
</event>
<event>
 5    1  0.3434846E-002  0.1250007E+03  0.7818608E-02  0.1235068E+00
         -4   -1    0    0    0  501 -0.00000000000E+00  0.00000000000E+00  0.10640304542E+02  0.10715828514E+02  0.12700000000E+01 0.  1.
          4   -1    0    0  501    0  0.00000000000E+00 -0.00000000000E+00 -0.36574734764E+03  0.36574955257E+03  0.12700000000E+01 0.  1.
         25    2    1    2    0    0  0.00000000000E+00  0.00000000000E+00 -0.35510704309E+03  0.37646538108E+03  0.12500068439E+03 0.  0.
    9000005    1    3    3    0    0 -0.43407479974E+02  0.13626864295E+02 -0.48527568665E+02  0.66526879295E+02  0.10000000000E+01 0.  0.
    9000005    1    3    3    0    0  0.43407479974E+02 -0.13626864295E+02 -0.30657947443E+03  0.30993850179E+03  0.10000000000E+01 0.  0.
<mgrwt>
<rscale>  0 0.12500068E+03</rscale>
<asrwt>0</asrwt>
<pdfrwt beam="2">  1        4 0.56274792E-01 0.12500068E+03</pdfrwt>
<pdfrwt beam="1">  1       -4 0.16429494E-02 0.12500068E+03</pdfrwt>
<totfact> 0.66906910E+03</totfact>
</mgrwt>
</event>
<event>
 4    1  0.3434846E-002  0.1254116E+03  0.7818608E-02  0.1234427E+00
         -4   -1    0    0    0  501 -0.00000000000E+00  0.00000000000E+00  0.62862067109E+03  0.62862195398E+03  0.12700000000E+01 0. -1.
          4   -1    0    0  501    0  0.00000000000E+00 -0.00000000000E+00 -0.61892263667E+01  0.63181819393E+01  0.12700000000E+01 0. -1.
    9000005    1    1    2    0    0 -0.50206036188E+02  0.28636025513E+02  0.18820304413E+03  0.19688081127E+03  0.10000000000E+01 0.  0.
    9000005    1    1    2    0    0  0.50206036188E+02 -0.28636025513E+02  0.43422840059E+03  0.43805932464E+03  0.10000000000E+01 0.  0.
<mgrwt>
<rscale>  0 0.12541161E+03</rscale>
<asrwt>0</asrwt>
<pdfrwt beam="2">  1        4 0.96220666E-03 0.12541161E+03</pdfrwt>
<pdfrwt beam="1">  1       -4 0.96720926E-01 0.12541161E+03</pdfrwt>
<totfact> 0.46314872E+03</totfact>
</mgrwt>
</event>
<event>
 5    1  0.3434846E-002  0.1249972E+03  0.7818608E-02  0.1235074E+00
         -4   -1    0    0    0  501 -0.00000000000E+00  0.00000000000E+00  0.19375857825E+01  0.23167085843E+01  0.12700000000E+01 0. -1.
          4   -1    0    0  501    0  0.00000000000E+00 -0.00000000000E+00 -0.18359191541E+04  0.18359195934E+04  0.12700000000E+01 0. -1.
         25    2    1    2    0    0  0.00000000000E+00  0.00000000000E+00 -0.18339815683E+04  0.18382363020E+04  0.12499723543E+03 0.  0.
    9000005    1    3    3    0    0 -0.34295555653E+02 -0.31865950980E+02 -0.15257381010E+04  0.15264564773E+04  0.10000000000E+01 0.  0.
    9000005    1    3    3    0    0  0.34295555653E+02  0.31865950980E+02 -0.30824346728E+03  0.31177982470E+03  0.10000000000E+01 0.  0.
<mgrwt>
<rscale>  0 0.12499724E+03</rscale>
<asrwt>0</asrwt>
<pdfrwt beam="2">  1        4 0.28247703E+00 0.12499724E+03</pdfrwt>
<pdfrwt beam="1">  1       -4 0.32728867E-03 0.12499724E+03</pdfrwt>
<totfact> 0.12124424E+03</totfact>
</mgrwt>
</event>
<event>
 4    1  0.3434846E-002  0.1249238E+03  0.7818608E-02  0.1235188E+00
          4   -1    0    0  501    0  0.00000000000E+00  0.00000000000E+00  0.73666363025E+02  0.73677309541E+02  0.12700000000E+01 0. -1.
         -4   -1    0    0    0  501 -0.00000000000E+00 -0.00000000000E+00 -0.52939088262E+02  0.52954319616E+02  0.12700000000E+01 0. -1.
    9000005    1    1    2    0    0  0.10117220332E+02  0.13680317727E+02  0.71276572272E+02  0.73286144634E+02  0.10000000000E+01 0.  0.
    9000005    1    1    2    0    0 -0.10117220332E+02 -0.13680317727E+02 -0.50549297510E+02  0.53345484524E+02  0.10000000000E+01 0.  0.
<mgrwt>
<rscale>  0 0.12492378E+03</rscale>
<asrwt>0</asrwt>
<pdfrwt beam="1">  1        4 0.11335300E-01 0.12492378E+03</pdfrwt>
<pdfrwt beam="2">  1       -4 0.81464888E-02 0.12492378E+03</pdfrwt>
<totfact> 0.10435103E+04</totfact>
</mgrwt>
</event>
<event>
 4    1  0.3434846E-002  0.1249068E+03  0.7818608E-02  0.1235215E+00
          4   -1    0    0  501    0  0.00000000000E+00  0.00000000000E+00  0.45307372709E+01  0.47053671714E+01  0.12700000000E+01 0. -1.
         -4   -1    0    0    0  501 -0.00000000000E+00 -0.00000000000E+00 -0.84442941626E+03  0.84443037128E+03  0.12700000000E+01 0. -1.
    9000005    1    1    2    0    0 -0.38660941856E+02  0.48962437646E+02 -0.40140755317E+03  0.40622778397E+03  0.10000000000E+01 0.  0.
    9000005    1    1    2    0    0  0.38660941856E+02 -0.48962437646E+02 -0.43849112582E+03  0.44290795449E+03  0.10000000000E+01 0.  0.
<mgrwt>
<rscale>  0 0.12490681E+03</rscale>
<asrwt>0</asrwt>
<pdfrwt beam="1">  1        4 0.71054371E-03 0.12490681E+03</pdfrwt>
<pdfrwt beam="2">  1       -4 0.12992560E+00 0.12490681E+03</pdfrwt>
<totfact> 0.36236434E+03</totfact>
</mgrwt>
</event>
<event>
 5    1  0.3434846E-002  0.1250006E+03  0.7818608E-02  0.1235068E+00
          4   -1    0    0  501    0  0.00000000000E+00  0.00000000000E+00  0.15715804837E+02  0.15767035920E+02  0.12700000000E+01 0.  1.
         -4   -1    0    0    0  501 -0.00000000000E+00 -0.00000000000E+00 -0.24810042833E+03  0.24810367881E+03  0.12700000000E+01 0.  1.
         25    2    1    2    0    0  0.00000000000E+00  0.00000000000E+00 -0.23238462349E+03  0.26387071473E+03  0.12500056342E+03 0.  0.
    9000005    1    3    3    0    0  0.10231283378E+02  0.13698740085E+02 -0.24307729687E+03  0.24367992714E+03  0.10000000000E+01 0.  0.
    9000005    1    3    3    0    0 -0.10231283378E+02 -0.13698740085E+02  0.10692673374E+02  0.20190787586E+02  0.10000000000E+01 0.  0.
<mgrwt>
<rscale>  0 0.12500056E+03</rscale>
<asrwt>0</asrwt>
<pdfrwt beam="1">  1        4 0.24220072E-02 0.12500056E+03</pdfrwt>
<pdfrwt beam="2">  1       -4 0.38173485E-01 0.12500056E+03</pdfrwt>
<totfact> 0.80364905E+03</totfact>
</mgrwt>
</event>
<event>
 5    1  0.3434846E-002  0.1250030E+03  0.7818608E-02  0.1235065E+00
         -4   -1    0    0    0  501 -0.00000000000E+00  0.00000000000E+00  0.25988993448E+03  0.25989303750E+03  0.12700000000E+01 0. -1.
          4   -1    0    0  501    0  0.00000000000E+00 -0.00000000000E+00 -0.15001092616E+02  0.15054756049E+02  0.12700000000E+01 0. -1.
         25    2    1    2    0    0  0.00000000000E+00  0.00000000000E+00  0.24488884186E+03  0.27494779355E+03  0.12500297721E+03 0.  0.
    9000005    1    3    3    0    0  0.61954103975E+02 -0.81197707814E+01  0.12004058435E+03  0.13533286211E+03  0.10000000000E+01 0.  0.
    9000005    1    3    3    0    0 -0.61954103975E+02  0.81197707814E+01  0.12484825751E+03  0.13961493144E+03  0.10000000000E+01 0.  0.
<mgrwt>
<rscale>  0 0.12500298E+03</rscale>
<asrwt>0</asrwt>
<pdfrwt beam="2">  1        4 0.23122271E-02 0.12500298E+03</pdfrwt>
<pdfrwt beam="1">  1       -4 0.39987433E-01 0.12500298E+03</pdfrwt>
<totfact> 0.78847574E+03</totfact>
</mgrwt>
</event>
<event>
 5    1  0.3434846E-002  0.1250144E+03  0.7818608E-02  0.1235047E+00
          4   -1    0    0  501    0  0.00000000000E+00  0.00000000000E+00  0.71928083515E+02  0.71939294534E+02  0.12700000000E+01 0. -1.
         -4   -1    0    0    0  501 -0.00000000000E+00 -0.00000000000E+00 -0.54297398455E+02  0.54312248885E+02  0.12700000000E+01 0. -1.
         25    2    1    2    0    0  0.00000000000E+00  0.00000000000E+00  0.17630685060E+02  0.12625154342E+03  0.12501444381E+03 0.  0.
    9000005    1    3    3    0    0  0.21777487433E+02 -0.49553458746E+02 -0.22740439496E+02  0.58719092475E+02  0.10000000000E+01 0.  0.
    9000005    1    3    3    0    0 -0.21777487433E+02  0.49553458746E+02  0.40371124556E+02  0.67532450944E+02  0.10000000000E+01 0.  0.
<mgrwt>
<rscale>  0 0.12501444E+03</rscale>
<asrwt>0</asrwt>
<pdfrwt beam="1">  1        4 0.11067864E-01 0.12501444E+03</pdfrwt>
<pdfrwt beam="2">  1       -4 0.83554506E-02 0.12501444E+03</pdfrwt>
<totfact> 0.10422054E+04</totfact>
</mgrwt>
</event>
<event>
 5    1  0.3434846E-002  0.1250024E+03  0.7818608E-02  0.1235065E+00
          4   -1    0    0  501    0  0.00000000000E+00  0.00000000000E+00  0.35403524211E+02  0.35426295693E+02  0.12700000000E+01 0. -1.
         -4   -1    0    0    0  501 -0.00000000000E+00 -0.00000000000E+00 -0.11027746775E+03  0.11028478042E+03  0.12700000000E+01 0. -1.
         25    2    1    2    0    0  0.00000000000E+00  0.00000000000E+00 -0.74873943537E+02  0.14571107612E+03  0.12500244110E+03 0.  0.
    9000005    1    3    3    0    0 -0.46724927979E+02 -0.37315542891E+02 -0.58603805281E+02  0.83732160066E+02  0.10000000000E+01 0.  0.
    9000005    1    3    3    0    0  0.46724927979E+02  0.37315542891E+02 -0.16270138256E+02  0.61978916050E+02  0.10000000000E+01 0.  0.
<mgrwt>
<rscale>  0 0.12500244E+03</rscale>
<asrwt>0</asrwt>
<pdfrwt beam="1">  1        4 0.54490102E-02 0.12500244E+03</pdfrwt>
<pdfrwt beam="2">  1       -4 0.16968078E-01 0.12500244E+03</pdfrwt>
<totfact> 0.10016010E+04</totfact>
</mgrwt>
</event>
<event>
 5    1  0.3434846E-002  0.1250089E+03  0.7818608E-02  0.1235055E+00
          4   -1    0    0  501    0  0.00000000000E+00  0.00000000000E+00  0.66704541697E+02  0.66716630483E+02  0.12700000000E+01 0.  1.
         -4   -1    0    0    0  501 -0.00000000000E+00 -0.00000000000E+00 -0.58544563807E+02  0.58558337164E+02  0.12700000000E+01 0.  1.
         25    2    1    2    0    0  0.00000000000E+00  0.00000000000E+00  0.81599778895E+01  0.12527496765E+03  0.12500892880E+03 0.  0.
    9000005    1    3    3    0    0 -0.40377492144E+02 -0.23150908485E+02  0.45876081872E+02  0.65359936685E+02  0.10000000000E+01 0.  0.
    9000005    1    3    3    0    0  0.40377492144E+02  0.23150908485E+02 -0.37716103983E+02  0.59915030962E+02  0.10000000000E+01 0.  0.
<mgrwt>
<rscale>  0 0.12500893E+03</rscale>
<asrwt>0</asrwt>
<pdfrwt beam="1">  1        4 0.10264227E-01 0.12500893E+03</pdfrwt>
<pdfrwt beam="2">  1       -4 0.90088454E-02 0.12500893E+03</pdfrwt>
<totfact> 0.10444785E+04</totfact>
</mgrwt>
</event>
<event>
 4    1  0.3434846E-002  0.1249291E+03  0.7818608E-02  0.1235180E+00
          4   -1    0    0  501    0  0.00000000000E+00  0.00000000000E+00  0.23417884677E+03  0.23418229048E+03  0.12700000000E+01 0.  1.
         -4   -1    0    0    0  501 -0.00000000000E+00 -0.00000000000E+00 -0.16633929614E+02  0.16682341394E+02  0.12700000000E+01 0.  1.
    9000005    1    1    2    0    0  0.15727415013E+02 -0.53748463796E+02  0.53248000708E+02  0.77282588743E+02  0.10000000000E+01 0.  0.
    9000005    1    1    2    0    0 -0.15727415013E+02  0.53748463796E+02  0.16429691645E+03  0.17358204314E+03  0.10000000000E+01 0.  0.
<mgrwt>
<rscale>  0 0.12492907E+03</rscale>
<asrwt>0</asrwt>
<pdfrwt beam="1">  1        4 0.36031502E-01 0.12492907E+03</pdfrwt>
<pdfrwt beam="2">  1       -4 0.25630551E-02 0.12492907E+03</pdfrwt>
<totfact> 0.82335439E+03</totfact>
</mgrwt>
</event>
<event>
 5    1  0.3434846E-002  0.1249960E+03  0.7818608E-02  0.1235075E+00
         -4   -1    0    0    0  501 -0.00000000000E+00  0.00000000000E+00  0.46089142352E+02  0.46106636645E+02  0.12700000000E+01 0. -1.
          4   -1    0    0  501    0  0.00000000000E+00 -0.00000000000E+00 -0.84710513041E+02  0.84720032576E+02  0.12700000000E+01 0. -1.
         25    2    1    2    0    0  0.00000000000E+00  0.00000000000E+00 -0.38621370690E+02  0.13082666922E+03  0.12499602836E+03 0.  0.
    9000005    1    3    3    0    0  0.52563796859E+02  0.30348293515E+02 -0.37501047457E+01  0.60819692083E+02  0.10000000000E+01 0.  0.
    9000005    1    3    3    0    0 -0.52563796859E+02 -0.30348293515E+02 -0.34871265944E+02  0.70006977138E+02  0.10000000000E+01 0.  0.
<mgrwt>
<rscale>  0 0.12499603E+03</rscale>
<asrwt>0</asrwt>
<pdfrwt beam="2">  1        4 0.13034465E-01 0.12499603E+03</pdfrwt>
<pdfrwt beam="1">  1       -4 0.70927153E-02 0.12499603E+03</pdfrwt>
<totfact> 0.10327732E+04</totfact>
</mgrwt>
</event>
<event>
 5    1  0.3434846E-002  0.1250013E+03  0.7818608E-02  0.1235067E+00
         -4   -1    0    0    0  501 -0.00000000000E+00  0.00000000000E+00  0.21534444300E+02  0.21571861100E+02  0.12700000000E+01 0. -1.
          4   -1    0    0  501    0  0.00000000000E+00 -0.00000000000E+00 -0.18120217251E+03  0.18120662301E+03  0.12700000000E+01 0. -1.
         25    2    1    2    0    0  0.00000000000E+00  0.00000000000E+00 -0.15966772821E+03  0.20277848411E+03  0.12500132074E+03 0.  0.
    9000005    1    3    3    0    0  0.52065782139E+02  0.33837707293E+02 -0.68421010133E+02  0.92402763661E+02  0.10000000000E+01 0.  0.
    9000005    1    3    3    0    0 -0.52065782139E+02 -0.33837707293E+02 -0.91246718078E+02  0.11037572045E+03  0.10000000000E+01 0.  0.
<mgrwt>
<rscale>  0 0.12500132E+03</rscale>
<asrwt>0</asrwt>
<pdfrwt beam="2">  1        4 0.27880477E-01 0.12500132E+03</pdfrwt>
<pdfrwt beam="1">  1       -4 0.33162121E-02 0.12500132E+03</pdfrwt>
<totfact> 0.89666350E+03</totfact>
</mgrwt>
</event>
<event>
 5    1  0.3434846E-002  0.1250046E+03  0.7818608E-02  0.1235062E+00
          4   -1    0    0  501    0  0.00000000000E+00  0.00000000000E+00  0.40099649480E+03  0.40099850591E+03  0.12700000000E+01 0. -1.
         -4   -1    0    0    0  501 -0.00000000000E+00 -0.00000000000E+00 -0.96986422505E+01  0.97814396437E+01  0.12700000000E+01 0. -1.
         25    2    1    2    0    0  0.00000000000E+00  0.00000000000E+00  0.39129785255E+03  0.41077994555E+03  0.12500461695E+03 0.  0.
    9000005    1    3    3    0    0 -0.21660588028E+02  0.10494610125E+02  0.38517052316E+03  0.38592311388E+03  0.10000000000E+01 0.  0.
    9000005    1    3    3    0    0  0.21660588028E+02 -0.10494610125E+02  0.61273293888E+01  0.24856831673E+02  0.10000000000E+01 0.  0.
<mgrwt>
<rscale>  0 0.12500462E+03</rscale>
<asrwt>0</asrwt>
<pdfrwt beam="1">  1        4 0.61698283E-01 0.12500462E+03</pdfrwt>
<pdfrwt beam="2">  1       -4 0.14986228E-02 0.12500462E+03</pdfrwt>
<totfact> 0.63511209E+03</totfact>
</mgrwt>
</event>
<event>
 5    1  0.3434846E-002  0.1250004E+03  0.7818608E-02  0.1235069E+00
         -4   -1    0    0    0  501 -0.00000000000E+00  0.00000000000E+00  0.78748983239E+02  0.78759223340E+02  0.12700000000E+01 0.  1.
          4   -1    0    0  501    0  0.00000000000E+00 -0.00000000000E+00 -0.49582519386E+02  0.49598781524E+02  0.12700000000E+01 0.  1.
         25    2    1    2    0    0  0.00000000000E+00  0.00000000000E+00  0.29166463853E+02  0.12835800486E+03  0.12500037920E+03 0.  0.
    9000005    1    3    3    0    0 -0.47631792961E+02  0.35048254379E+02  0.35327496611E+02  0.68892669077E+02  0.10000000000E+01 0.  0.
    9000005    1    3    3    0    0  0.47631792961E+02 -0.35048254379E+02 -0.61610327577E+01  0.59465335788E+02  0.10000000000E+01 0.  0.
<mgrwt>
<rscale>  0 0.12500038E+03</rscale>
<asrwt>0</asrwt>
<pdfrwt beam="2">  1        4 0.76301185E-02 0.12500038E+03</pdfrwt>
<pdfrwt beam="1">  1       -4 0.12117267E-01 0.12500038E+03</pdfrwt>
<totfact> 0.10379675E+04</totfact>
</mgrwt>
</event>
<event>
 5    1  0.3434846E-002  0.1250028E+03  0.7818608E-02  0.1235065E+00
          4   -1    0    0  501    0  0.00000000000E+00  0.00000000000E+00  0.35735832286E+02  0.35758392151E+02  0.12700000000E+01 0. -1.
         -4   -1    0    0    0  501 -0.00000000000E+00 -0.00000000000E+00 -0.10925316656E+03  0.10926054779E+03  0.12700000000E+01 0. -1.
         25    2    1    2    0    0  0.00000000000E+00  0.00000000000E+00 -0.73517334273E+02  0.14501893994E+03  0.12500277798E+03 0.  0.
    9000005    1    3    3    0    0 -0.38995756777E+02  0.48166350223E+02 -0.46094420692E+02  0.77242229119E+02  0.10000000000E+01 0.  0.
    9000005    1    3    3    0    0  0.38995756777E+02 -0.48166350223E+02 -0.27422913580E+02  0.67776710820E+02  0.10000000000E+01 0.  0.
<mgrwt>
<rscale>  0 0.12500278E+03</rscale>
<asrwt>0</asrwt>
<pdfrwt beam="1">  1        4 0.55001236E-02 0.12500278E+03</pdfrwt>
<pdfrwt beam="2">  1       -4 0.16810482E-01 0.12500278E+03</pdfrwt>
<totfact> 0.10029976E+04</totfact>
</mgrwt>
</event>
<event>
 5    1  0.3434846E-002  0.1250013E+03  0.7818608E-02  0.1235067E+00
          4   -1    0    0  501    0  0.00000000000E+00  0.00000000000E+00  0.29538070962E+03  0.29538343981E+03  0.12700000000E+01 0. -1.
         -4   -1    0    0    0  501 -0.00000000000E+00 -0.00000000000E+00 -0.13191448455E+02  0.13252441750E+02  0.12700000000E+01 0. -1.
         25    2    1    2    0    0  0.00000000000E+00  0.00000000000E+00  0.28218926116E+03  0.30863588156E+03  0.12500131308E+03 0.  0.
    9000005    1    3    3    0    0  0.52029041873E+02  0.26719449041E+02  0.19543540194E+03  0.20400231980E+03  0.10000000000E+01 0.  0.
    9000005    1    3    3    0    0 -0.52029041873E+02 -0.26719449041E+02  0.86753859225E+02  0.10463356176E+03  0.10000000000E+01 0.  0.
<mgrwt>
<rscale>  0 0.12500131E+03</rscale>
<asrwt>0</asrwt>
<pdfrwt beam="1">  1        4 0.45448086E-01 0.12500131E+03</pdfrwt>
<pdfrwt beam="2">  1       -4 0.20343555E-02 0.12500131E+03</pdfrwt>
<totfact> 0.74526012E+03</totfact>
</mgrwt>
</event>
<event>
 5    1  0.3434846E-002  0.1250001E+03  0.7818608E-02  0.1235069E+00
         -4   -1    0    0    0  501 -0.00000000000E+00  0.00000000000E+00  0.29480855592E+02  0.29508197953E+02  0.12700000000E+01 0. -1.
          4   -1    0    0  501    0  0.00000000000E+00 -0.00000000000E+00 -0.13240972373E+03  0.13241581416E+03  0.12700000000E+01 0. -1.
         25    2    1    2    0    0  0.00000000000E+00  0.00000000000E+00 -0.10292886814E+03  0.16192401211E+03  0.12500013520E+03 0.  0.
    9000005    1    3    3    0    0  0.92330194311E+01 -0.54291669700E+02 -0.13202697612E+02  0.56640491442E+02  0.10000000000E+01 0.  0.
    9000005    1    3    3    0    0 -0.92330194311E+01  0.54291669700E+02 -0.89726170527E+02  0.10528352067E+03  0.10000000000E+01 0.  0.
<mgrwt>
<rscale>  0 0.12500014E+03</rscale>
<asrwt>0</asrwt>
<pdfrwt beam="2">  1        4 0.20373298E-01 0.12500014E+03</pdfrwt>
<pdfrwt beam="1">  1       -4 0.45380881E-02 0.12500014E+03</pdfrwt>
<totfact> 0.96972834E+03</totfact>
</mgrwt>
</event>
<event>
 5    1  0.3434846E-002  0.1250314E+03  0.7818608E-02  0.1235020E+00
         -4   -1    0    0    0  501 -0.00000000000E+00  0.00000000000E+00  0.14853402182E+03  0.14853945112E+03  0.12700000000E+01 0. -1.
          4   -1    0    0  501    0  0.00000000000E+00 -0.00000000000E+00 -0.26290658756E+02  0.26321315275E+02  0.12700000000E+01 0. -1.
         25    2    1    2    0    0  0.00000000000E+00  0.00000000000E+00  0.12224336306E+03  0.17486076639E+03  0.12503138730E+03 0.  0.
    9000005    1    3    3    0    0 -0.66776590902E+01 -0.16403596719E+02  0.14495849069E+03  0.14603983408E+03  0.10000000000E+01 0.  0.
    9000005    1    3    3    0    0  0.66776590902E+01  0.16403596719E+02 -0.22715127624E+02  0.28820932310E+02  0.10000000000E+01 0.  0.
<mgrwt>
<rscale>  0 0.12503139E+03</rscale>
<asrwt>0</asrwt>
<pdfrwt beam="2">  1        4 0.40474926E-02 0.12503139E+03</pdfrwt>
<pdfrwt beam="1">  1       -4 0.22854164E-01 0.12503139E+03</pdfrwt>
<totfact> 0.94483802E+03</totfact>
</mgrwt>
</event>
<event>
 5    1  0.3434846E-002  0.1249968E+03  0.7818608E-02  0.1235074E+00
         -4   -1    0    0    0  501 -0.00000000000E+00  0.00000000000E+00  0.25209185552E+02  0.25241155604E+02  0.12700000000E+01 0. -1.
          4   -1    0    0  501    0  0.00000000000E+00 -0.00000000000E+00 -0.15481264979E+03  0.15481785890E+03  0.12700000000E+01 0. -1.
         25    2    1    2    0    0  0.00000000000E+00  0.00000000000E+00 -0.12960346424E+03  0.18005901450E+03  0.12499676301E+03 0.  0.
    9000005    1    3    3    0    0  0.46468940223E+02  0.38604339027E+02 -0.87822419964E+02  0.10659941297E+03  0.10000000000E+01 0.  0.
    9000005    1    3    3    0    0 -0.46468940223E+02 -0.38604339027E+02 -0.41781044272E+02  0.73459601534E+02  0.10000000000E+01 0.  0.
<mgrwt>
<rscale>  0 0.12499676E+03</rscale>
<asrwt>0</asrwt>
<pdfrwt beam="2">  1        4 0.23820190E-01 0.12499676E+03</pdfrwt>
<pdfrwt beam="1">  1       -4 0.38811963E-02 0.12499676E+03</pdfrwt>
<totfact> 0.93613176E+03</totfact>
</mgrwt>
</event>
<event>
 5    1  0.3434846E-002  0.1250002E+03  0.7818608E-02  0.1235069E+00
         -4   -1    0    0    0  501 -0.00000000000E+00  0.00000000000E+00  0.23147143671E+03  0.23147492070E+03  0.12700000000E+01 0.  1.
          4   -1    0    0  501    0  0.00000000000E+00 -0.00000000000E+00 -0.16848266016E+02  0.16896063676E+02  0.12700000000E+01 0.  1.
         25    2    1    2    0    0  0.00000000000E+00  0.00000000000E+00  0.21462317069E+03  0.24837098437E+03  0.12500016192E+03 0.  0.
    9000005    1    3    3    0    0  0.50481026077E+02  0.17255446811E+02  0.42645840627E+02  0.68306311284E+02  0.10000000000E+01 0.  0.
    9000005    1    3    3    0    0 -0.50481026077E+02 -0.17255446811E+02  0.17197733006E+03  0.18006467309E+03  0.10000000000E+01 0.  0.
<mgrwt>
<rscale>  0 0.12500016E+03</rscale>
<asrwt>0</asrwt>
<pdfrwt beam="2">  1        4 0.25959857E-02 0.12500016E+03</pdfrwt>
<pdfrwt beam="1">  1       -4 0.35614935E-01 0.12500016E+03</pdfrwt>
<totfact> 0.82565944E+03</totfact>
</mgrwt>
</event>
<event>
 5    1  0.3434846E-002  0.1249970E+03  0.7818608E-02  0.1235074E+00
         -4   -1    0    0    0  501 -0.00000000000E+00  0.00000000000E+00  0.30666861581E+03  0.30667124551E+03  0.12700000000E+01 0.  1.
          4   -1    0    0  501    0  0.00000000000E+00 -0.00000000000E+00 -0.12702730250E+02  0.12766058742E+02  0.12700000000E+01 0.  1.
         25    2    1    2    0    0  0.00000000000E+00  0.00000000000E+00  0.29396588556E+03  0.31943730425E+03  0.12499699786E+03 0.  0.
    9000005    1    3    3    0    0  0.51334230720E+02 -0.55215848638E+00  0.23803959540E+03  0.24351459320E+03  0.10000000000E+01 0.  0.
    9000005    1    3    3    0    0 -0.51334230720E+02  0.55215848638E+00  0.55926290161E+02  0.75922711054E+02  0.10000000000E+01 0.  0.
<mgrwt>
<rscale>  0 0.12499700E+03</rscale>
<asrwt>0</asrwt>
<pdfrwt beam="2">  1        4 0.19593399E-02 0.12499700E+03</pdfrwt>
<pdfrwt beam="1">  1       -4 0.47184861E-01 0.12499700E+03</pdfrwt>
<totfact> 0.73227972E+03</totfact>
</mgrwt>
</event>
<event>
 5    1  0.3434846E-002  0.1249986E+03  0.7818608E-02  0.1235071E+00
          4   -1    0    0  501    0  0.00000000000E+00  0.00000000000E+00  0.71570275935E+01  0.72688337424E+01  0.12700000000E+01 0. -1.
         -4   -1    0    0    0  501 -0.00000000000E+00 -0.00000000000E+00 -0.54143727275E+03  0.54143876221E+03  0.12700000000E+01 0. -1.
         25    2    1    2    0    0  0.00000000000E+00  0.00000000000E+00 -0.53428024516E+03  0.54870759595E+03  0.12499858196E+03 0.  0.
    9000005    1    3    3    0    0  0.59089288452E+01 -0.60056012569E+02 -0.19588046395E+03  0.20496779319E+03  0.10000000000E+01 0.  0.
    9000005    1    3    3    0    0 -0.59089288452E+01  0.60056012569E+02 -0.33839978120E+03  0.34373980277E+03  0.10000000000E+01 0.  0.
<mgrwt>
<rscale>  0 0.12499858E+03</rscale>
<asrwt>0</asrwt>
<pdfrwt beam="1">  1        4 0.11097966E-02 0.12499858E+03</pdfrwt>
<pdfrwt beam="2">  1       -4 0.83306725E-01 0.12499858E+03</pdfrwt>
<totfact> 0.52275770E+03</totfact>
</mgrwt>
</event>
<event>
 5    1  0.3434846E-002  0.1250041E+03  0.7818608E-02  0.1235063E+00
         -4   -1    0    0    0  501 -0.00000000000E+00  0.00000000000E+00  0.67483772523E+02  0.67495721745E+02  0.12700000000E+01 0.  1.
          4   -1    0    0  501    0  0.00000000000E+00 -0.00000000000E+00 -0.57864045693E+02  0.57877980994E+02  0.12700000000E+01 0.  1.
         25    2    1    2    0    0  0.00000000000E+00  0.00000000000E+00  0.96197268295E+01  0.12537370274E+03  0.12500410471E+03 0.  0.
    9000005    1    3    3    0    0 -0.43279271379E+01 -0.57848772330E+02  0.28122838895E+02  0.64475619276E+02  0.10000000000E+01 0.  0.
    9000005    1    3    3    0    0  0.43279271379E+01  0.57848772330E+02 -0.18503112066E+02  0.60898083464E+02  0.10000000000E+01 0.  0.
<mgrwt>
<rscale>  0 0.12500410E+03</rscale>
<asrwt>0</asrwt>
<pdfrwt beam="2">  1        4 0.89041520E-02 0.12500410E+03</pdfrwt>
<pdfrwt beam="1">  1       -4 0.10384110E-01 0.12500410E+03</pdfrwt>
<totfact> 0.10443782E+04</totfact>
</mgrwt>
</event>
<event>
 5    1  0.3434846E-002  0.1249707E+03  0.7818608E-02  0.1235115E+00
         -4   -1    0    0    0  501 -0.00000000000E+00  0.00000000000E+00  0.20144934396E+02  0.20184927094E+02  0.12700000000E+01 0.  1.
          4   -1    0    0  501    0  0.00000000000E+00 -0.00000000000E+00 -0.19358229282E+03  0.19358645871E+03  0.12700000000E+01 0.  1.
         25    2    1    2    0    0  0.00000000000E+00  0.00000000000E+00 -0.17343735843E+03  0.21377138580E+03  0.12497074893E+03 0.  0.
    9000005    1    3    3    0    0  0.49266512112E+02 -0.23720902249E+02 -0.35016631737E+02  0.64938701230E+02  0.10000000000E+01 0.  0.
    9000005    1    3    3    0    0 -0.49266512112E+02  0.23720902249E+02 -0.13842072669E+03  0.14883268457E+03  0.10000000000E+01 0.  0.
<mgrwt>
<rscale>  0 0.12497075E+03</rscale>
<asrwt>0</asrwt>
<pdfrwt beam="2">  1        4 0.29785287E-01 0.12497075E+03</pdfrwt>
<pdfrwt beam="1">  1       -4 0.31026176E-02 0.12497075E+03</pdfrwt>
<totfact> 0.87921109E+03</totfact>
</mgrwt>
</event>
<event>
 5    1  0.3434846E-002  0.1249985E+03  0.7818608E-02  0.1235072E+00
         -4   -1    0    0    0  501 -0.00000000000E+00  0.00000000000E+00  0.23100670864E+03  0.23101019963E+03  0.12700000000E+01 0. -1.
          4   -1    0    0  501    0  0.00000000000E+00 -0.00000000000E+00 -0.16881818667E+02  0.16929521597E+02  0.12700000000E+01 0. -1.
         25    2    1    2    0    0  0.00000000000E+00  0.00000000000E+00  0.21412488997E+03  0.24793972123E+03  0.12499854743E+03 0.  0.
    9000005    1    3    3    0    0  0.41124530797E+02  0.22776276921E+02  0.18872974651E+03  0.19449910807E+03  0.10000000000E+01 0.  0.
    9000005    1    3    3    0    0 -0.41124530797E+02 -0.22776276921E+02  0.25395143463E+02  0.53440613162E+02  0.10000000000E+01 0.  0.
<mgrwt>
<rscale>  0 0.12499855E+03</rscale>
<asrwt>0</asrwt>
<pdfrwt beam="2">  1        4 0.26011411E-02 0.12499855E+03</pdfrwt>
<pdfrwt beam="1">  1       -4 0.35543429E-01 0.12499855E+03</pdfrwt>
<totfact> 0.82631592E+03</totfact>
</mgrwt>
</event>
<event>
 5    1  0.3434846E-002  0.1250013E+03  0.7818608E-02  0.1235067E+00
          4   -1    0    0  501    0  0.00000000000E+00  0.00000000000E+00  0.88876928038E+01  0.89779721193E+01  0.12700000000E+01 0.  1.
         -4   -1    0    0    0  501 -0.00000000000E+00 -0.00000000000E+00 -0.43720895350E+03  0.43721079804E+03  0.12700000000E+01 0.  1.
         25    2    1    2    0    0  0.00000000000E+00  0.00000000000E+00 -0.42832126070E+03  0.44618877016E+03  0.12500126499E+03 0.  0.
    9000005    1    3    3    0    0 -0.21791904696E+02 -0.17061877349E+02 -0.41415741321E+03  0.41508235049E+03  0.10000000000E+01 0.  0.
    9000005    1    3    3    0    0  0.21791904696E+02  0.17061877349E+02 -0.14163847483E+02  0.31106419667E+02  0.10000000000E+01 0.  0.
<mgrwt>
<rscale>  0 0.12500126E+03</rscale>
<asrwt>0</asrwt>
<pdfrwt beam="1">  1        4 0.13744241E-02 0.12500126E+03</pdfrwt>
<pdfrwt beam="2">  1       -4 0.67269986E-01 0.12500126E+03</pdfrwt>
<totfact> 0.60293716E+03</totfact>
</mgrwt>
</event>
<event>
 5    1  0.3434846E-002  0.1249996E+03  0.7818608E-02  0.1235070E+00
          4   -1    0    0  501    0  0.00000000000E+00  0.00000000000E+00  0.69767784787E+02  0.69779342890E+02  0.12700000000E+01 0.  1.
         -4   -1    0    0    0  501 -0.00000000000E+00 -0.00000000000E+00 -0.55965526655E+02  0.55979934564E+02  0.12700000000E+01 0.  1.
         25    2    1    2    0    0  0.00000000000E+00  0.00000000000E+00  0.13802258132E+02  0.12575927745E+03  0.12499957414E+03 0.  0.
    9000005    1    3    3    0    0 -0.34982784790E+02  0.45255154949E+02 -0.18419251102E+02  0.60100691279E+02  0.10000000000E+01 0.  0.
    9000005    1    3    3    0    0  0.34982784790E+02 -0.45255154949E+02  0.32221509234E+02  0.65658586174E+02  0.10000000000E+01 0.  0.
<mgrwt>
<rscale>  0 0.12499957E+03</rscale>
<asrwt>0</asrwt>
<pdfrwt beam="1">  1        4 0.10735503E-01 0.12499957E+03</pdfrwt>
<pdfrwt beam="2">  1       -4 0.86120784E-02 0.12499957E+03</pdfrwt>
<totfact> 0.10436341E+04</totfact>
</mgrwt>
</event>
<event>
 4    1  0.3434846E-002  0.1248031E+03  0.7818608E-02  0.1235377E+00
         -4   -1    0    0    0  501 -0.00000000000E+00  0.00000000000E+00  0.90656834410E+01  0.91542075710E+01  0.12700000000E+01 0. -1.
          4   -1    0    0  501    0  0.00000000000E+00 -0.00000000000E+00 -0.42735053196E+03  0.42735241905E+03  0.12700000000E+01 0. -1.
    9000005    1    1    2    0    0  0.33104292116E+02 -0.38079210656E+02 -0.80775018134E+02  0.95244548376E+02  0.10000000000E+01 0.  0.
    9000005    1    1    2    0    0 -0.33104292116E+02  0.38079210656E+02 -0.33750983039E+03  0.34126207825E+03  0.10000000000E+01 0.  0.
<mgrwt>
<rscale>  0 0.12480313E+03</rscale>
<asrwt>0</asrwt>
<pdfrwt beam="2">  1        4 0.65753175E-01 0.12480313E+03</pdfrwt>
<pdfrwt beam="1">  1       -4 0.14016756E-02 0.12480313E+03</pdfrwt>
<totfact> 0.61416740E+03</totfact>
</mgrwt>
</event>
<event>
 5    1  0.3434846E-002  0.1250006E+03  0.7818608E-02  0.1235068E+00
          4   -1    0    0  501    0  0.00000000000E+00  0.00000000000E+00  0.17988928137E+02  0.18033702768E+02  0.12700000000E+01 0.  1.
         -4   -1    0    0    0  501 -0.00000000000E+00 -0.00000000000E+00 -0.21683292506E+03  0.21683664425E+03  0.12700000000E+01 0.  1.
         25    2    1    2    0    0  0.00000000000E+00  0.00000000000E+00 -0.19884399692E+03  0.23487034702E+03  0.12500057918E+03 0.  0.
    9000005    1    3    3    0    0 -0.13506833404E+02  0.47076465397E+00  0.15219301602E+02  0.20378501152E+02  0.10000000000E+01 0.  0.
    9000005    1    3    3    0    0  0.13506833404E+02 -0.47076465397E+00 -0.21406329852E+03  0.21449184587E+03  0.10000000000E+01 0.  0.
<mgrwt>
<rscale>  0 0.12500058E+03</rscale>
<asrwt>0</asrwt>
<pdfrwt beam="1">  1        4 0.27712579E-02 0.12500058E+03</pdfrwt>
<pdfrwt beam="2">  1       -4 0.33362640E-01 0.12500058E+03</pdfrwt>
<totfact> 0.84566227E+03</totfact>
</mgrwt>
</event>
<event>
 5    1  0.3434846E-002  0.1249986E+03  0.7818608E-02  0.1235071E+00
          4   -1    0    0  501    0  0.00000000000E+00  0.00000000000E+00  0.14132804816E+03  0.14133375427E+03  0.12700000000E+01 0. -1.
         -4   -1    0    0    0  501 -0.00000000000E+00 -0.00000000000E+00 -0.27618115475E+02  0.27647300093E+02  0.12700000000E+01 0. -1.
         25    2    1    2    0    0  0.00000000000E+00  0.00000000000E+00  0.11370993268E+03  0.16898105436E+03  0.12499859176E+03 0.  0.
    9000005    1    3    3    0    0  0.56352934284E+01 -0.52949810691E+02  0.10106985772E+03  0.11424340297E+03  0.10000000000E+01 0.  0.
    9000005    1    3    3    0    0 -0.56352934284E+01  0.52949810691E+02  0.12640074965E+02  0.54737651387E+02  0.10000000000E+01 0.  0.
<mgrwt>
<rscale>  0 0.12499859E+03</rscale>
<asrwt>0</asrwt>
<pdfrwt beam="1">  1        4 0.21745461E-01 0.12499859E+03</pdfrwt>
<pdfrwt beam="2">  1       -4 0.42516247E-02 0.12499859E+03</pdfrwt>
<totfact> 0.95641735E+03</totfact>
</mgrwt>
</event>
<event>
 5    1  0.3434846E-002  0.1249984E+03  0.7818608E-02  0.1235072E+00
          4   -1    0    0  501    0  0.00000000000E+00  0.00000000000E+00  0.18402236959E+03  0.18402675188E+03  0.12700000000E+01 0.  1.
         -4   -1    0    0    0  501 -0.00000000000E+00 -0.00000000000E+00 -0.21202869732E+02  0.21240870624E+02  0.12700000000E+01 0.  1.
         25    2    1    2    0    0  0.00000000000E+00  0.00000000000E+00  0.16281949985E+03  0.20526762251E+03  0.12499842926E+03 0.  0.
    9000005    1    3    3    0    0 -0.44757829798E+02  0.15231506878E+02  0.14851550840E+03  0.15586249826E+03  0.10000000000E+01 0.  0.
    9000005    1    3    3    0    0  0.44757829798E+02 -0.15231506878E+02  0.14303991457E+02  0.49405124244E+02  0.10000000000E+01 0.  0.
<mgrwt>
<rscale>  0 0.12499843E+03</rscale>
<asrwt>0</asrwt>
<pdfrwt beam="1">  1        4 0.28314396E-01 0.12499843E+03</pdfrwt>
<pdfrwt beam="2">  1       -4 0.32652400E-02 0.12499843E+03</pdfrwt>
<totfact> 0.89257753E+03</totfact>
</mgrwt>
</event>
<event>
 5    1  0.3434846E-002  0.1250009E+03  0.7818608E-02  0.1235068E+00
         -4   -1    0    0    0  501 -0.00000000000E+00  0.00000000000E+00  0.65238861600E+02  0.65251221926E+02  0.12700000000E+01 0. -1.
          4   -1    0    0  501    0  0.00000000000E+00 -0.00000000000E+00 -0.59852237017E+02  0.59865709517E+02  0.12700000000E+01 0. -1.
         25    2    1    2    0    0  0.00000000000E+00  0.00000000000E+00  0.53866245822E+01  0.12511693144E+03  0.12500092323E+03 0.  0.
    9000005    1    3    3    0    0  0.47567741143E+02 -0.37457948091E+02 -0.12797478939E+02  0.61891544979E+02  0.10000000000E+01 0.  0.
    9000005    1    3    3    0    0 -0.47567741143E+02  0.37457948091E+02  0.18184103521E+02  0.63225386464E+02  0.10000000000E+01 0.  0.
<mgrwt>
<rscale>  0 0.12500092E+03</rscale>
<asrwt>0</asrwt>
<pdfrwt beam="2">  1        4 0.92100236E-02 0.12500092E+03</pdfrwt>
<pdfrwt beam="1">  1       -4 0.10038735E-01 0.12500092E+03</pdfrwt>
<totfact> 0.10450105E+04</totfact>
</mgrwt>
</event>
<event>
 5    1  0.3434846E-002  0.1249972E+03  0.7818608E-02  0.1235074E+00
          4   -1    0    0  501    0  0.00000000000E+00  0.00000000000E+00  0.11848096297E+03  0.11848776935E+03  0.12700000000E+01 0.  1.
         -4   -1    0    0    0  501 -0.00000000000E+00 -0.00000000000E+00 -0.32947968218E+02  0.32972435605E+02  0.12700000000E+01 0.  1.
         25    2    1    2    0    0  0.00000000000E+00  0.00000000000E+00  0.85532994748E+02  0.15146020495E+03  0.12499720195E+03 0.  0.
    9000005    1    3    3    0    0  0.48534348231E+02  0.14104461581E+01  0.90433074994E+02  0.10264849424E+03  0.10000000000E+01 0.  0.
    9000005    1    3    3    0    0 -0.48534348231E+02 -0.14104461581E+01 -0.49000802459E+01  0.48811710716E+02  0.10000000000E+01 0.  0.
<mgrwt>
<rscale>  0 0.12499720E+03</rscale>
<asrwt>0</asrwt>
<pdfrwt beam="1">  1        4 0.18230247E-01 0.12499720E+03</pdfrwt>
<pdfrwt beam="2">  1       -4 0.50713237E-02 0.12499720E+03</pdfrwt>
<totfact> 0.99019655E+03</totfact>
</mgrwt>
</event>
<event>
 5    1  0.3434846E-002  0.1250031E+03  0.7818608E-02  0.1235064E+00
         -4   -1    0    0    0  501 -0.00000000000E+00  0.00000000000E+00  0.23493412424E+02  0.23527714027E+02  0.12700000000E+01 0. -1.
          4   -1    0    0  501    0  0.00000000000E+00 -0.00000000000E+00 -0.16612020423E+03  0.16612505878E+03  0.12700000000E+01 0. -1.
         25    2    1    2    0    0  0.00000000000E+00  0.00000000000E+00 -0.14262679181E+03  0.18965277281E+03  0.12500308993E+03 0.  0.
    9000005    1    3    3    0    0  0.16014732696E+02 -0.72162686474E+00 -0.16295500163E+03  0.16374469447E+03  0.10000000000E+01 0.  0.
    9000005    1    3    3    0    0 -0.16014732696E+02  0.72162686474E+00  0.20328209824E+02  0.25908078340E+02  0.10000000000E+01 0.  0.
<mgrwt>
<rscale>  0 0.12500309E+03</rscale>
<asrwt>0</asrwt>
<pdfrwt beam="2">  1        4 0.25559966E-01 0.12500309E+03</pdfrwt>
<pdfrwt beam="1">  1       -4 0.36173833E-02 0.12500309E+03</pdfrwt>
<totfact> 0.91901405E+03</totfact>
</mgrwt>
</event>
<event>
 5    1  0.3434846E-002  0.1249991E+03  0.7818608E-02  0.1235071E+00
          4   -1    0    0  501    0  0.00000000000E+00  0.00000000000E+00  0.16280932871E+02  0.16330391151E+02  0.12700000000E+01 0. -1.
         -4   -1    0    0    0  501 -0.00000000000E+00 -0.00000000000E+00 -0.23950941835E+03  0.23951278542E+03  0.12700000000E+01 0. -1.
         25    2    1    2    0    0  0.00000000000E+00  0.00000000000E+00 -0.22322848548E+03  0.25584317657E+03  0.12499909707E+03 0.  0.
    9000005    1    3    3    0    0 -0.96936668993E+01  0.18864853679E+02  0.86987661656E+01  0.22945989085E+02  0.10000000000E+01 0.  0.
    9000005    1    3    3    0    0  0.96936668993E+01 -0.18864853679E+02 -0.23192725164E+03  0.23289718748E+03  0.10000000000E+01 0.  0.
<mgrwt>
<rscale>  0 0.12499910E+03</rscale>
<asrwt>0</asrwt>
<pdfrwt beam="1">  1        4 0.25088226E-02 0.12499910E+03</pdfrwt>
<pdfrwt beam="2">  1       -4 0.36851664E-01 0.12499910E+03</pdfrwt>
<totfact> 0.81494614E+03</totfact>
</mgrwt>
</event>
<event>
 5    1  0.3434846E-002  0.1250013E+03  0.7818608E-02  0.1235067E+00
         -4   -1    0    0    0  501 -0.00000000000E+00  0.00000000000E+00  0.16206513415E+02  0.16256198112E+02  0.12700000000E+01 0.  1.
          4   -1    0    0  501    0  0.00000000000E+00 -0.00000000000E+00 -0.24061421689E+03  0.24061756850E+03  0.12700000000E+01 0.  1.
         25    2    1    2    0    0  0.00000000000E+00  0.00000000000E+00 -0.22440770348E+03  0.25687376661E+03  0.12500125837E+03 0.  0.
    9000005    1    3    3    0    0 -0.35359700150E+02 -0.21832586081E+02 -0.16292493743E+02  0.44647682605E+02  0.10000000000E+01 0.  0.
    9000005    1    3    3    0    0  0.35359700150E+02  0.21832586081E+02 -0.20811520974E+03  0.21222608401E+03  0.10000000000E+01 0.  0.
<mgrwt>
<rscale>  0 0.12500126E+03</rscale>
<asrwt>0</asrwt>
<pdfrwt beam="2">  1        4 0.37021649E-01 0.12500126E+03</pdfrwt>
<pdfrwt beam="1">  1       -4 0.24973897E-02 0.12500126E+03</pdfrwt>
<totfact> 0.81344517E+03</totfact>
</mgrwt>
</event>
<event>
 5    1  0.3434846E-002  0.1249945E+03  0.7818608E-02  0.1235078E+00
          4   -1    0    0  501    0  0.00000000000E+00  0.00000000000E+00  0.24600938758E+02  0.24633698215E+02  0.12700000000E+01 0. -1.
         -4   -1    0    0    0  501 -0.00000000000E+00 -0.00000000000E+00 -0.15862964347E+03  0.15863472724E+03  0.12700000000E+01 0. -1.
         25    2    1    2    0    0  0.00000000000E+00  0.00000000000E+00 -0.13402870471E+03  0.18326842546E+03  0.12499448821E+03 0.  0.
    9000005    1    3    3    0    0  0.31244000500E+02 -0.54110827208E+02 -0.65756198572E+02  0.90714093939E+02  0.10000000000E+01 0.  0.
    9000005    1    3    3    0    0 -0.31244000500E+02  0.54110827208E+02 -0.68272506139E+02  0.92554331519E+02  0.10000000000E+01 0.  0.
<mgrwt>
<rscale>  0 0.12499449E+03</rscale>
<asrwt>0</asrwt>
<pdfrwt beam="1">  1        4 0.37876709E-02 0.12499449E+03</pdfrwt>
<pdfrwt beam="2">  1       -4 0.24407471E-01 0.12499449E+03</pdfrwt>
<totfact> 0.93043457E+03</totfact>
</mgrwt>
</event>
<event>
 5    1  0.3434846E-002  0.1250033E+03  0.7818608E-02  0.1235064E+00
         -4   -1    0    0    0  501 -0.00000000000E+00  0.00000000000E+00  0.94958377572E+01  0.95803880251E+01  0.12700000000E+01 0. -1.
          4   -1    0    0  501    0  0.00000000000E+00 -0.00000000000E+00 -0.40947722503E+03  0.40947919449E+03  0.12700000000E+01 0. -1.
         25    2    1    2    0    0  0.00000000000E+00  0.00000000000E+00 -0.39998138727E+03  0.41905958251E+03  0.12500329408E+03 0.  0.
    9000005    1    3    3    0    0  0.11857378417E+02 -0.61197980157E+02 -0.18512418963E+03  0.19534010286E+03  0.10000000000E+01 0.  0.
    9000005    1    3    3    0    0 -0.11857378417E+02  0.61197980157E+02 -0.21485719764E+03  0.22371947965E+03  0.10000000000E+01 0.  0.
<mgrwt>
<rscale>  0 0.12500329E+03</rscale>
<asrwt>0</asrwt>
<pdfrwt beam="2">  1        4 0.63003138E-01 0.12500329E+03</pdfrwt>
<pdfrwt beam="1">  1       -4 0.14675538E-02 0.12500329E+03</pdfrwt>
<totfact> 0.62735797E+03</totfact>
</mgrwt>
</event>
<event>
 5    1  0.3434846E-002  0.1250012E+03  0.7818608E-02  0.1235067E+00
         -4   -1    0    0    0  501 -0.00000000000E+00  0.00000000000E+00  0.53920387521E+02  0.53935341757E+02  0.12700000000E+01 0. -1.
          4   -1    0    0  501    0  0.00000000000E+00 -0.00000000000E+00 -0.72415616395E+02  0.72426751949E+02  0.12700000000E+01 0. -1.
         25    2    1    2    0    0  0.00000000000E+00  0.00000000000E+00 -0.18495228874E+02  0.12636209371E+03  0.12500122093E+03 0.  0.
    9000005    1    3    3    0    0  0.23566627653E+02 -0.30877963999E+01  0.49177850643E+02  0.54629492213E+02  0.10000000000E+01 0.  0.
    9000005    1    3    3    0    0 -0.23566627653E+02  0.30877963999E+01 -0.67673079518E+02  0.71732601493E+02  0.10000000000E+01 0.  0.
<mgrwt>
<rscale>  0 0.12500122E+03</rscale>
<asrwt>0</asrwt>
<pdfrwt beam="2">  1        4 0.11142871E-01 0.12500122E+03</pdfrwt>
<pdfrwt beam="1">  1       -4 0.82974511E-02 0.12500122E+03</pdfrwt>
<totfact> 0.10422750E+04</totfact>
</mgrwt>
</event>
<event>
 5    1  0.3434846E-002  0.1249982E+03  0.7818608E-02  0.1235072E+00
          4   -1    0    0  501    0  0.00000000000E+00  0.00000000000E+00  0.15128593344E+04  0.15128598674E+04  0.12700000000E+01 0.  1.
         -4   -1    0    0    0  501 -0.00000000000E+00 -0.00000000000E+00 -0.24252222716E+01  0.27376272695E+01  0.12700000000E+01 0.  1.
         25    2    1    2    0    0  0.00000000000E+00  0.00000000000E+00  0.15104341121E+04  0.15155974947E+04  0.12499823582E+03 0.  0.
    9000005    1    3    3    0    0  0.21513850659E+02 -0.33418226141E+02  0.17050819789E+03  0.17508189271E+03  0.10000000000E+01 0.  0.
    9000005    1    3    3    0    0 -0.21513850659E+02  0.33418226141E+02  0.13399259142E+04  0.13405156020E+04  0.10000000000E+01 0.  0.
<mgrwt>
<rscale>  0 0.12499824E+03</rscale>
<asrwt>0</asrwt>
<pdfrwt beam="1">  1        4 0.23277171E+00 0.12499824E+03</pdfrwt>
<pdfrwt beam="2">  1       -4 0.39718320E-03 0.12499824E+03</pdfrwt>
<totfact> 0.17626499E+03</totfact>
</mgrwt>
</event>
<event>
 5    1  0.3434846E-002  0.1249978E+03  0.7818608E-02  0.1235073E+00
          4   -1    0    0  501    0  0.00000000000E+00  0.00000000000E+00  0.26619555643E+02  0.26649833820E+02  0.12700000000E+01 0. -1.
         -4   -1    0    0    0  501 -0.00000000000E+00 -0.00000000000E+00 -0.14662209947E+03  0.14662759956E+03  0.12700000000E+01 0. -1.
         25    2    1    2    0    0  0.00000000000E+00  0.00000000000E+00 -0.12000254383E+03  0.17327743338E+03  0.12499783356E+03 0.  0.
    9000005    1    3    3    0    0  0.58098908091E+02 -0.76818118040E+01 -0.29928373688E+02  0.65811859915E+02  0.10000000000E+01 0.  0.
    9000005    1    3    3    0    0 -0.58098908091E+02  0.76818118040E+01 -0.90074170138E+02  0.10746557346E+03  0.10000000000E+01 0.  0.
<mgrwt>
<rscale>  0 0.12499783E+03</rscale>
<asrwt>0</asrwt>
<pdfrwt beam="1">  1        4 0.40980685E-02 0.12499783E+03</pdfrwt>
<pdfrwt beam="2">  1       -4 0.22559998E-01 0.12499783E+03</pdfrwt>
<totfact> 0.94845885E+03</totfact>
</mgrwt>
</event>
<event>
 5    1  0.3434846E-002  0.1250027E+03  0.7818608E-02  0.1235065E+00
         -4   -1    0    0    0  501 -0.00000000000E+00  0.00000000000E+00  0.25707096308E+03  0.25707410013E+03  0.12700000000E+01 0. -1.
          4   -1    0    0  501    0  0.00000000000E+00 -0.00000000000E+00 -0.15166113566E+02  0.15219195140E+02  0.12700000000E+01 0. -1.
         25    2    1    2    0    0  0.00000000000E+00  0.00000000000E+00  0.24190484951E+03  0.27229329527E+03  0.12500272970E+03 0.  0.
    9000005    1    3    3    0    0  0.58609078214E+02 -0.19812375317E+02  0.10173070060E+03  0.11907010418E+03  0.10000000000E+01 0.  0.
    9000005    1    3    3    0    0 -0.58609078214E+02  0.19812375317E+02  0.14017414891E+03  0.15322319109E+03  0.10000000000E+01 0.  0.
<mgrwt>
<rscale>  0 0.12500273E+03</rscale>
<asrwt>0</asrwt>
<pdfrwt beam="2">  1        4 0.23375727E-02 0.12500273E+03</pdfrwt>
<pdfrwt beam="1">  1       -4 0.39553705E-01 0.12500273E+03</pdfrwt>
<totfact> 0.79206371E+03</totfact>
</mgrwt>
</event>
<event>
 5    1  0.3434846E-002  0.1249995E+03  0.7818608E-02  0.1235070E+00
          4   -1    0    0  501    0  0.00000000000E+00  0.00000000000E+00  0.14385369781E+03  0.14385930375E+03  0.12700000000E+01 0. -1.
         -4   -1    0    0    0  501 -0.00000000000E+00 -0.00000000000E+00 -0.27133138941E+02  0.27162844638E+02  0.12700000000E+01 0. -1.
         25    2    1    2    0    0  0.00000000000E+00  0.00000000000E+00  0.11672055887E+03  0.17102214839E+03  0.12499954550E+03 0.  0.
    9000005    1    3    3    0    0 -0.13052461176E+02 -0.51024733013E+02  0.12341101309E+02  0.54103538732E+02  0.10000000000E+01 0.  0.
    9000005    1    3    3    0    0  0.13052461176E+02  0.51024733013E+02  0.10437945756E+03  0.11691860965E+03  0.10000000000E+01 0.  0.
<mgrwt>
<rscale>  0 0.12499955E+03</rscale>
<asrwt>0</asrwt>
<pdfrwt beam="1">  1        4 0.22134054E-01 0.12499955E+03</pdfrwt>
<pdfrwt beam="2">  1       -4 0.41770454E-02 0.12499955E+03</pdfrwt>
<totfact> 0.95259436E+03</totfact>
</mgrwt>
</event>
<event>
 5    1  0.3434846E-002  0.1249798E+03  0.7818608E-02  0.1235101E+00
          4   -1    0    0  501    0  0.00000000000E+00  0.00000000000E+00  0.14115768467E+04  0.14115774181E+04  0.12700000000E+01 0. -1.
         -4   -1    0    0    0  501 -0.00000000000E+00 -0.00000000000E+00 -0.26200397982E+01  0.29116161396E+01  0.12700000000E+01 0. -1.
         25    2    1    2    0    0  0.00000000000E+00  0.00000000000E+00  0.14089568069E+04  0.14144890342E+04  0.12497977444E+03 0.  0.
    9000005    1    3    3    0    0 -0.13616320522E+02  0.42386908642E+02  0.20831030872E+03  0.21301699211E+03  0.10000000000E+01 0.  0.
    9000005    1    3    3    0    0  0.13616320522E+02 -0.42386908642E+02  0.12006464982E+04  0.12014720421E+04  0.10000000000E+01 0.  0.
<mgrwt>
<rscale>  0 0.12497977E+03</rscale>
<asrwt>0</asrwt>
<pdfrwt beam="1">  1        4 0.21718810E+00 0.12497977E+03</pdfrwt>
<pdfrwt beam="2">  1       -4 0.42555602E-03 0.12497977E+03</pdfrwt>
<totfact> 0.19680815E+03</totfact>
</mgrwt>
</event>
<event>
 5    1  0.3434846E-002  0.1250033E+03  0.7818608E-02  0.1235064E+00
         -4   -1    0    0    0  501 -0.00000000000E+00  0.00000000000E+00  0.43642007259E+01  0.45452335447E+01  0.12700000000E+01 0. -1.
          4   -1    0    0  501    0  0.00000000000E+00 -0.00000000000E+00 -0.87674467353E+03  0.87674559335E+03  0.12700000000E+01 0. -1.
         25    2    1    2    0    0  0.00000000000E+00  0.00000000000E+00 -0.87238047280E+03  0.88129082690E+03  0.12500332893E+03 0.  0.
    9000005    1    3    3    0    0 -0.10300678323E+02 -0.26966181954E+02 -0.82695998671E+03  0.82746425817E+03  0.10000000000E+01 0.  0.
    9000005    1    3    3    0    0  0.10300678323E+02  0.26966181954E+02 -0.45420486097E+02  0.53826568722E+02  0.10000000000E+01 0.  0.
<mgrwt>
<rscale>  0 0.12500333E+03</rscale>
<asrwt>0</asrwt>
<pdfrwt beam="2">  1        4 0.13489766E+00 0.12500333E+03</pdfrwt>
<pdfrwt beam="1">  1       -4 0.68541255E-03 0.12500333E+03</pdfrwt>
<totfact> 0.34877444E+03</totfact>
</mgrwt>
</event>
<event>
 5    1  0.3434846E-002  0.1250004E+03  0.7818608E-02  0.1235069E+00
         -4   -1    0    0    0  501 -0.00000000000E+00  0.00000000000E+00  0.64846938734E+02  0.64859373749E+02  0.12700000000E+01 0. -1.
          4   -1    0    0  501    0  0.00000000000E+00 -0.00000000000E+00 -0.60213515381E+02  0.60226907064E+02  0.12700000000E+01 0. -1.
         25    2    1    2    0    0  0.00000000000E+00  0.00000000000E+00  0.46334233533E+01  0.12508628081E+03  0.12500043614E+03 0.  0.
    9000005    1    3    3    0    0 -0.38256941602E+02  0.21324310770E+02  0.46922624865E+02  0.64195424562E+02  0.10000000000E+01 0.  0.
    9000005    1    3    3    0    0  0.38256941602E+02 -0.21324310770E+02 -0.42289201512E+02  0.60890856251E+02  0.10000000000E+01 0.  0.
<mgrwt>
<rscale>  0 0.12500044E+03</rscale>
<asrwt>0</asrwt>
<pdfrwt beam="2">  1        4 0.92656045E-02 0.12500044E+03</pdfrwt>
<pdfrwt beam="1">  1       -4 0.99784387E-02 0.12500044E+03</pdfrwt>
<totfact> 0.10450886E+04</totfact>
</mgrwt>
</event>
<event>
 5    1  0.3434846E-002  0.1249983E+03  0.7818608E-02  0.1235072E+00
         -4   -1    0    0    0  501 -0.00000000000E+00  0.00000000000E+00  0.86862218535E+02  0.86871502283E+02  0.12700000000E+01 0. -1.
          4   -1    0    0  501    0  0.00000000000E+00 -0.00000000000E+00 -0.44948746828E+02  0.44966684794E+02  0.12700000000E+01 0. -1.
         25    2    1    2    0    0  0.00000000000E+00  0.00000000000E+00  0.41913471707E+02  0.13183818708E+03  0.12499827383E+03 0.  0.
    9000005    1    3    3    0    0  0.41911550137E+01 -0.60909145144E+02  0.68987625906E+01  0.61449838631E+02  0.10000000000E+01 0.  0.
    9000005    1    3    3    0    0 -0.41911550137E+01  0.60909145144E+02  0.35014709117E+02  0.70388348446E+02  0.10000000000E+01 0.  0.
<mgrwt>
<rscale>  0 0.12499827E+03</rscale>
<asrwt>0</asrwt>
<pdfrwt beam="2">  1        4 0.69172858E-02 0.12499827E+03</pdfrwt>
<pdfrwt beam="1">  1       -4 0.13365512E-01 0.12499827E+03</pdfrwt>
<totfact> 0.10305555E+04</totfact>
</mgrwt>
</event>
<event>
 5    1  0.3434846E-002  0.1249983E+03  0.7818608E-02  0.1235072E+00
          4   -1    0    0  501    0  0.00000000000E+00  0.00000000000E+00  0.57306984162E+01  0.58697363090E+01  0.12700000000E+01 0.  1.
         -4   -1    0    0    0  501 -0.00000000000E+00 -0.00000000000E+00 -0.67330765944E+03  0.67330885718E+03  0.12700000000E+01 0.  1.
         25    2    1    2    0    0  0.00000000000E+00  0.00000000000E+00 -0.66757696103E+03  0.67917859349E+03  0.12499825186E+03 0.  0.
    9000005    1    3    3    0    0  0.13641412566E+02  0.28162189493E+02 -0.39879381291E+02  0.50700711099E+02  0.10000000000E+01 0.  0.
    9000005    1    3    3    0    0 -0.13641412566E+02 -0.28162189493E+02 -0.62769757973E+03  0.62847788239E+03  0.10000000000E+01 0.  0.
<mgrwt>
<rscale>  0 0.12499825E+03</rscale>
<asrwt>0</asrwt>
<pdfrwt beam="1">  1        4 0.89243380E-03 0.12499825E+03</pdfrwt>
<pdfrwt beam="2">  1       -4 0.10359652E+00 0.12499825E+03</pdfrwt>
<totfact> 0.44210573E+03</totfact>
</mgrwt>
</event>
<event>
 5    1  0.3434846E-002  0.1249963E+03  0.7818608E-02  0.1235075E+00
         -4   -1    0    0    0  501 -0.00000000000E+00  0.00000000000E+00  0.33558945491E+02  0.33582967744E+02  0.12700000000E+01 0.  1.
          4   -1    0    0  501    0  0.00000000000E+00 -0.00000000000E+00 -0.11632365799E+03  0.11633059060E+03  0.12700000000E+01 0.  1.
         25    2    1    2    0    0  0.00000000000E+00  0.00000000000E+00 -0.82764712499E+02  0.14991355834E+03  0.12499630930E+03 0.  0.
    9000005    1    3    3    0    0  0.13483112453E+02 -0.56243028425E+02 -0.69762663529E+02  0.90625061603E+02  0.10000000000E+01 0.  0.
    9000005    1    3    3    0    0 -0.13483112453E+02  0.56243028425E+02 -0.13002048970E+02  0.59288496737E+02  0.10000000000E+01 0.  0.
<mgrwt>
<rscale>  0 0.12499631E+03</rscale>
<asrwt>0</asrwt>
<pdfrwt beam="2">  1        4 0.17898328E-01 0.12499631E+03</pdfrwt>
<pdfrwt beam="1">  1       -4 0.51652959E-02 0.12499631E+03</pdfrwt>
<totfact> 0.99329182E+03</totfact>
</mgrwt>
</event>
<event>
 5    1  0.3434846E-002  0.1249967E+03  0.7818608E-02  0.1235074E+00
          4   -1    0    0  501    0  0.00000000000E+00  0.00000000000E+00  0.20599549249E+02  0.20638661034E+02  0.12700000000E+01 0. -1.
         -4   -1    0    0    0  501 -0.00000000000E+00 -0.00000000000E+00 -0.18939677697E+03  0.18940103491E+03  0.12700000000E+01 0. -1.
         25    2    1    2    0    0  0.00000000000E+00  0.00000000000E+00 -0.16879722772E+03  0.21003969594E+03  0.12499667910E+03 0.  0.
    9000005    1    3    3    0    0  0.61112887520E+02  0.13042628823E+02 -0.83753785497E+02  0.10450163526E+03  0.10000000000E+01 0.  0.
    9000005    1    3    3    0    0 -0.61112887520E+02 -0.13042628823E+02 -0.85043442219E+02  0.10553806068E+03  0.10000000000E+01 0.  0.
<mgrwt>
<rscale>  0 0.12499668E+03</rscale>
<asrwt>0</asrwt>
<pdfrwt beam="1">  1        4 0.31724977E-02 0.12499668E+03</pdfrwt>
<pdfrwt beam="2">  1       -4 0.29141301E-01 0.12499668E+03</pdfrwt>
<totfact> 0.88475968E+03</totfact>
</mgrwt>
</event>
<event>
 5    1  0.3434846E-002  0.1249988E+03  0.7818608E-02  0.1235071E+00
         -4   -1    0    0    0  501 -0.00000000000E+00  0.00000000000E+00  0.14936888726E+02  0.14990781995E+02  0.12700000000E+01 0.  1.
          4   -1    0    0  501    0  0.00000000000E+00 -0.00000000000E+00 -0.26098575877E+03  0.26098884876E+03  0.12700000000E+01 0.  1.
         25    2    1    2    0    0  0.00000000000E+00  0.00000000000E+00 -0.24604887004E+03  0.27597963076E+03  0.12499884058E+03 0.  0.
    9000005    1    3    3    0    0 -0.18903863201E+02  0.46329356503E+02 -0.20567655441E+03  0.21167808189E+03  0.10000000000E+01 0.  0.
    9000005    1    3    3    0    0  0.18903863201E+02 -0.46329356503E+02 -0.40372315633E+02  0.64301548873E+02  0.10000000000E+01 0.  0.
<mgrwt>
<rscale>  0 0.12499884E+03</rscale>
<asrwt>0</asrwt>
<pdfrwt beam="2">  1        4 0.40156035E-01 0.12499884E+03</pdfrwt>
<pdfrwt beam="1">  1       -4 0.23023664E-02 0.12499884E+03</pdfrwt>
<totfact> 0.78716245E+03</totfact>
</mgrwt>
</event>
<event>
 5    1  0.3434846E-002  0.1250027E+03  0.7818608E-02  0.1235065E+00
          4   -1    0    0  501    0  0.00000000000E+00  0.00000000000E+00  0.23410997578E+03  0.23411342051E+03  0.12700000000E+01 0.  1.
         -4   -1    0    0    0  501 -0.00000000000E+00 -0.00000000000E+00 -0.16658509796E+02  0.16706850350E+02  0.12700000000E+01 0.  1.
         25    2    1    2    0    0  0.00000000000E+00  0.00000000000E+00  0.21745146599E+03  0.25082027086E+03  0.12500267282E+03 0.  0.
    9000005    1    3    3    0    0 -0.14117594840E+01  0.52586146824E+02  0.17641776956E+03  0.18409651088E+03  0.10000000000E+01 0.  0.
    9000005    1    3    3    0    0  0.14117594840E+01 -0.52586146824E+02  0.41033696429E+02  0.66723759976E+02  0.10000000000E+01 0.  0.
<mgrwt>
<rscale>  0 0.12500267E+03</rscale>
<asrwt>0</asrwt>
<pdfrwt beam="1">  1        4 0.36020903E-01 0.12500267E+03</pdfrwt>
<pdfrwt beam="2">  1       -4 0.25668312E-02 0.12500267E+03</pdfrwt>
<totfact> 0.82206922E+03</totfact>
</mgrwt>
</event>
<event>
 5    1  0.3434846E-002  0.1249995E+03  0.7818608E-02  0.1235070E+00
          4   -1    0    0  501    0  0.00000000000E+00  0.00000000000E+00  0.69872615823E+01  0.71017409429E+01  0.12700000000E+01 0.  1.
         -4   -1    0    0    0  501 -0.00000000000E+00 -0.00000000000E+00 -0.55439115009E+03  0.55439260475E+03  0.12700000000E+01 0.  1.
         25    2    1    2    0    0  0.00000000000E+00  0.00000000000E+00 -0.54740388851E+03  0.56149434569E+03  0.12499953235E+03 0.  0.
    9000005    1    3    3    0    0  0.35514339727E+01  0.57287727625E+02 -0.38471130911E+03  0.38897080582E+03  0.10000000000E+01 0.  0.
    9000005    1    3    3    0    0 -0.35514339727E+01 -0.57287727625E+02 -0.16269257940E+03  0.17252353988E+03  0.10000000000E+01 0.  0.
<mgrwt>
<rscale>  0 0.12499953E+03</rscale>
<asrwt>0</asrwt>
<pdfrwt beam="1">  1        4 0.10838818E-02 0.12499953E+03</pdfrwt>
<pdfrwt beam="2">  1       -4 0.85299830E-01 0.12499953E+03</pdfrwt>
<totfact> 0.51392588E+03</totfact>
</mgrwt>
</event>
<event>
 5    1  0.3434846E-002  0.1250046E+03  0.7818608E-02  0.1235062E+00
          4   -1    0    0  501    0  0.00000000000E+00  0.00000000000E+00  0.16084361813E+02  0.16134422672E+02  0.12700000000E+01 0. -1.
         -4   -1    0    0    0  501 -0.00000000000E+00 -0.00000000000E+00 -0.24244899251E+03  0.24245231875E+03  0.12700000000E+01 0. -1.
         25    2    1    2    0    0  0.00000000000E+00  0.00000000000E+00 -0.22636463070E+03  0.25858674142E+03  0.12500462716E+03 0.  0.
    9000005    1    3    3    0    0  0.36094689385E+02  0.48010174329E+02 -0.77488278696E+02  0.98047115084E+02  0.10000000000E+01 0.  0.
    9000005    1    3    3    0    0 -0.36094689385E+02 -0.48010174329E+02 -0.14887635200E+03  0.16053962634E+03  0.10000000000E+01 0.  0.
<mgrwt>
<rscale>  0 0.12500463E+03</rscale>
<asrwt>0</asrwt>
<pdfrwt beam="1">  1        4 0.24786241E-02 0.12500463E+03</pdfrwt>
<pdfrwt beam="2">  1       -4 0.37303949E-01 0.12500463E+03</pdfrwt>
<totfact> 0.81096449E+03</totfact>
</mgrwt>
</event>
<event>
 5    1  0.3434846E-002  0.1250058E+03  0.7818608E-02  0.1235060E+00
         -4   -1    0    0    0  501 -0.00000000000E+00  0.00000000000E+00  0.22770581182E+03  0.22770935342E+03  0.12700000000E+01 0. -1.
          4   -1    0    0  501    0  0.00000000000E+00 -0.00000000000E+00 -0.17129224766E+02  0.17176240598E+02  0.12700000000E+01 0. -1.
         25    2    1    2    0    0  0.00000000000E+00  0.00000000000E+00  0.21057658705E+03  0.24488559402E+03  0.12500582044E+03 0.  0.
    9000005    1    3    3    0    0  0.26262546486E+02 -0.44912466601E+02  0.37461759005E+02  0.64118908224E+02  0.10000000000E+01 0.  0.
    9000005    1    3    3    0    0 -0.26262546486E+02  0.44912466601E+02  0.17311482805E+03  0.18076668580E+03  0.10000000000E+01 0.  0.
<mgrwt>
<rscale>  0 0.12500582E+03</rscale>
<asrwt>0</asrwt>
<pdfrwt beam="2">  1        4 0.26391546E-02 0.12500582E+03</pdfrwt>
<pdfrwt beam="1">  1       -4 0.35035550E-01 0.12500582E+03</pdfrwt>
<totfact> 0.83064310E+03</totfact>
</mgrwt>
</event>
<event>
 5    1  0.3434846E-002  0.1250077E+03  0.7818608E-02  0.1235057E+00
          4   -1    0    0  501    0  0.00000000000E+00  0.00000000000E+00  0.95951605173E+02  0.95960009563E+02  0.12700000000E+01 0.  1.
         -4   -1    0    0    0  501 -0.00000000000E+00 -0.00000000000E+00 -0.40695574599E+02  0.40715386427E+02  0.12700000000E+01 0.  1.
         25    2    1    2    0    0  0.00000000000E+00  0.00000000000E+00  0.55256030574E+02  0.13667539599E+03  0.12500773958E+03 0.  0.
    9000005    1    3    3    0    0  0.16945912572E+02  0.25837927478E+02  0.87021106672E+02  0.92349528725E+02  0.10000000000E+01 0.  0.
    9000005    1    3    3    0    0 -0.16945912572E+02 -0.25837927478E+02 -0.31765076098E+02  0.44325867265E+02  0.10000000000E+01 0.  0.
<mgrwt>
<rscale>  0 0.12500774E+03</rscale>
<asrwt>0</asrwt>
<pdfrwt beam="1">  1        4 0.14763956E-01 0.12500774E+03</pdfrwt>
<pdfrwt beam="2">  1       -4 0.62630282E-02 0.12500774E+03</pdfrwt>
<totfact> 0.10201097E+04</totfact>
</mgrwt>
</event>
<event>
 5    1  0.3434846E-002  0.1250010E+03  0.7818608E-02  0.1235068E+00
         -4   -1    0    0    0  501 -0.00000000000E+00  0.00000000000E+00  0.59222360588E+01  0.60568787288E+01  0.12700000000E+01 0. -1.
          4   -1    0    0  501    0  0.00000000000E+00 -0.00000000000E+00 -0.65205190726E+03  0.65205314405E+03  0.12700000000E+01 0. -1.
         25    2    1    2    0    0  0.00000000000E+00  0.00000000000E+00 -0.64612967120E+03  0.65811002277E+03  0.12500100028E+03 0.  0.
    9000005    1    3    3    0    0 -0.73235852750E+01 -0.61867622826E+02 -0.29723230674E+03  0.30369274247E+03  0.10000000000E+01 0.  0.
    9000005    1    3    3    0    0  0.73235852750E+01  0.61867622826E+02 -0.34889736446E+03  0.35441728031E+03  0.10000000000E+01 0.  0.
<mgrwt>
<rscale>  0 0.12500100E+03</rscale>
<asrwt>0</asrwt>
<pdfrwt beam="2">  1        4 0.10032607E+00 0.12500100E+03</pdfrwt>
<pdfrwt beam="1">  1       -4 0.92156602E-03 0.12500100E+03</pdfrwt>
<totfact> 0.45390981E+03</totfact>
</mgrwt>
</event>
<event>
 5    1  0.3434846E-002  0.1249993E+03  0.7818608E-02  0.1235070E+00
         -4   -1    0    0    0  501 -0.00000000000E+00  0.00000000000E+00  0.36027285228E+02  0.36049662701E+02  0.12700000000E+01 0. -1.
          4   -1    0    0  501    0  0.00000000000E+00 -0.00000000000E+00 -0.10836387499E+03  0.10837131680E+03  0.12700000000E+01 0. -1.
         25    2    1    2    0    0  0.00000000000E+00  0.00000000000E+00 -0.72336589767E+02  0.14442097950E+03  0.12499934840E+03 0.  0.
    9000005    1    3    3    0    0  0.48261236230E+02  0.31125592186E+02 -0.76968291292E+01  0.57949897239E+02  0.10000000000E+01 0.  0.
    9000005    1    3    3    0    0 -0.48261236230E+02 -0.31125592186E+02 -0.64639760638E+02  0.86471082257E+02  0.10000000000E+01 0.  0.
<mgrwt>
<rscale>  0 0.12499935E+03</rscale>
<asrwt>0</asrwt>
<pdfrwt beam="2">  1        4 0.16673659E-01 0.12499935E+03</pdfrwt>
<pdfrwt beam="1">  1       -4 0.55449531E-02 0.12499935E+03</pdfrwt>
<totfact> 0.10042913E+04</totfact>
</mgrwt>
</event>
<event>
 5    1  0.3434846E-002  0.1249918E+03  0.7818608E-02  0.1235082E+00
         -4   -1    0    0    0  501 -0.00000000000E+00  0.00000000000E+00  0.57410845287E+02  0.57424890566E+02  0.12700000000E+01 0.  1.
          4   -1    0    0  501    0  0.00000000000E+00 -0.00000000000E+00 -0.68003094950E+02  0.68014952935E+02  0.12700000000E+01 0.  1.
         25    2    1    2    0    0  0.00000000000E+00  0.00000000000E+00 -0.10592249663E+02  0.12543984350E+03  0.12499183407E+03 0.  0.
    9000005    1    3    3    0    0 -0.10708036426E+02 -0.61556406690E+02 -0.62409862465E+01  0.62799706671E+02  0.10000000000E+01 0.  0.
    9000005    1    3    3    0    0  0.10708036426E+02  0.61556406690E+02 -0.43512634164E+01  0.62640136829E+02  0.10000000000E+01 0.  0.
<mgrwt>
<rscale>  0 0.12499183E+03</rscale>
<asrwt>0</asrwt>
<pdfrwt beam="2">  1        4 0.10464007E-01 0.12499183E+03</pdfrwt>
<pdfrwt beam="1">  1       -4 0.88344303E-02 0.12499183E+03</pdfrwt>
<totfact> 0.10445208E+04</totfact>
</mgrwt>
</event>
<event>
 5    1  0.3434846E-002  0.1249999E+03  0.7818608E-02  0.1235069E+00
         -4   -1    0    0    0  501 -0.00000000000E+00  0.00000000000E+00  0.32057455271E+03  0.32057706833E+03  0.12700000000E+01 0.  1.
          4   -1    0    0  501    0  0.00000000000E+00 -0.00000000000E+00 -0.12149471028E+02  0.12215668064E+02  0.12700000000E+01 0.  1.
         25    2    1    2    0    0  0.00000000000E+00  0.00000000000E+00  0.30842508168E+03  0.33279273640E+03  0.12499989757E+03 0.  0.
    9000005    1    3    3    0    0 -0.58889253087E+02  0.12853265918E+02  0.11029652981E+03  0.12569596279E+03  0.10000000000E+01 0.  0.
    9000005    1    3    3    0    0  0.58889253087E+02 -0.12853265918E+02  0.19812855187E+03  0.20709677361E+03  0.10000000000E+01 0.  0.
<mgrwt>
<rscale>  0 0.12499990E+03</rscale>
<asrwt>0</asrwt>
<pdfrwt beam="2">  1        4 0.18744349E-02 0.12499990E+03</pdfrwt>
<pdfrwt beam="1">  1       -4 0.49324450E-01 0.12499990E+03</pdfrwt>
<totfact> 0.71660154E+03</totfact>
</mgrwt>
</event>
<event>
 5    1  0.3434846E-002  0.1249979E+03  0.7818608E-02  0.1235073E+00
         -4   -1    0    0    0  501 -0.00000000000E+00  0.00000000000E+00  0.75660220881E+02  0.75670878968E+02  0.12700000000E+01 0. -1.
          4   -1    0    0  501    0  0.00000000000E+00 -0.00000000000E+00 -0.51604973373E+02  0.51620598378E+02  0.12700000000E+01 0. -1.
         25    2    1    2    0    0  0.00000000000E+00  0.00000000000E+00  0.24055247507E+02  0.12729147735E+03  0.12499786107E+03 0.  0.
    9000005    1    3    3    0    0 -0.59283150962E+02  0.76797927085E+01  0.30572910258E+02  0.67150383809E+02  0.10000000000E+01 0.  0.
    9000005    1    3    3    0    0  0.59283150962E+02 -0.76797927085E+01 -0.65176627506E+01  0.60141093536E+02  0.10000000000E+01 0.  0.
<mgrwt>
<rscale>  0 0.12499786E+03</rscale>
<asrwt>0</asrwt>
<pdfrwt beam="2">  1        4 0.79412484E-02 0.12499786E+03</pdfrwt>
<pdfrwt beam="1">  1       -4 0.11642056E-01 0.12499786E+03</pdfrwt>
<totfact> 0.10403322E+04</totfact>
</mgrwt>
</event>
<event>
 5    1  0.3434846E-002  0.1250024E+03  0.7818608E-02  0.1235066E+00
         -4   -1    0    0    0  501 -0.00000000000E+00  0.00000000000E+00  0.93530687562E+02  0.93539309469E+02  0.12700000000E+01 0.  1.
          4   -1    0    0  501    0  0.00000000000E+00 -0.00000000000E+00 -0.41745759419E+02  0.41765073081E+02  0.12700000000E+01 0.  1.
         25    2    1    2    0    0  0.00000000000E+00  0.00000000000E+00  0.51784928144E+02  0.13530438255E+03  0.12500238859E+03 0.  0.
    9000005    1    3    3    0    0  0.24864946135E+01 -0.58309511840E+02  0.50077037747E+02  0.76908332032E+02  0.10000000000E+01 0.  0.
    9000005    1    3    3    0    0 -0.24864946135E+01  0.58309511840E+02  0.17078903963E+01  0.58396050517E+02  0.10000000000E+01 0.  0.
<mgrwt>
<rscale>  0 0.12500239E+03</rscale>
<asrwt>0</asrwt>
<pdfrwt beam="2">  1        4 0.64245735E-02 0.12500239E+03</pdfrwt>
<pdfrwt beam="1">  1       -4 0.14391485E-01 0.12500239E+03</pdfrwt>
<totfact> 0.10231108E+04</totfact>
</mgrwt>
</event>
<event>
 5    1  0.3434846E-002  0.1249992E+03  0.7818608E-02  0.1235070E+00
          4   -1    0    0  501    0  0.00000000000E+00  0.00000000000E+00  0.17539435705E+03  0.17539895491E+03  0.12700000000E+01 0. -1.
         -4   -1    0    0    0  501 -0.00000000000E+00 -0.00000000000E+00 -0.22247965591E+02  0.22284184368E+02  0.12700000000E+01 0. -1.
         25    2    1    2    0    0  0.00000000000E+00  0.00000000000E+00  0.15314639146E+03  0.19768313928E+03  0.12499922536E+03 0.  0.
    9000005    1    3    3    0    0  0.30732325389E+02 -0.53587726306E+02  0.61646774149E+02  0.87277975443E+02  0.10000000000E+01 0.  0.
    9000005    1    3    3    0    0 -0.30732325389E+02  0.53587726306E+02  0.91499617310E+02  0.11040516384E+03  0.10000000000E+01 0.  0.
<mgrwt>
<rscale>  0 0.12499923E+03</rscale>
<asrwt>0</asrwt>
<pdfrwt beam="1">  1        4 0.26986887E-01 0.12499923E+03</pdfrwt>
<pdfrwt beam="2">  1       -4 0.34259037E-02 0.12499923E+03</pdfrwt>
<totfact> 0.90528961E+03</totfact>
</mgrwt>
</event>
<event>
 5    1  0.3434846E-002  0.1249970E+03  0.7818608E-02  0.1235074E+00
          4   -1    0    0  501    0  0.00000000000E+00  0.00000000000E+00  0.14526546791E+03  0.14527101936E+03  0.12700000000E+01 0.  1.
         -4   -1    0    0    0  501 -0.00000000000E+00 -0.00000000000E+00 -0.26868071533E+02  0.26898069966E+02  0.12700000000E+01 0.  1.
         25    2    1    2    0    0  0.00000000000E+00  0.00000000000E+00  0.11839739637E+03  0.17216908933E+03  0.12499700737E+03 0.  0.
    9000005    1    3    3    0    0  0.50433915850E+02  0.27427494489E+02  0.93195736862E+02  0.10946365923E+03  0.10000000000E+01 0.  0.
    9000005    1    3    3    0    0 -0.50433915850E+02 -0.27427494489E+02  0.25201659512E+02  0.62705430101E+02  0.10000000000E+01 0.  0.
<mgrwt>
<rscale>  0 0.12499701E+03</rscale>
<asrwt>0</asrwt>
<pdfrwt beam="1">  1        4 0.22351268E-01 0.12499701E+03</pdfrwt>
<pdfrwt beam="2">  1       -4 0.41362840E-02 0.12499701E+03</pdfrwt>
<totfact> 0.95052270E+03</totfact>
</mgrwt>
</event>
<event>
 5    1  0.3434846E-002  0.1249982E+03  0.7818608E-02  0.1235072E+00
          4   -1    0    0  501    0  0.00000000000E+00  0.00000000000E+00  0.35344729813E+02  0.35367539150E+02  0.12700000000E+01 0.  1.
         -4   -1    0    0    0  501 -0.00000000000E+00 -0.00000000000E+00 -0.11045330122E+03  0.11046060225E+03  0.12700000000E+01 0.  1.
         25    2    1    2    0    0  0.00000000000E+00  0.00000000000E+00 -0.75108571404E+02  0.14582814140E+03  0.12499819729E+03 0.  0.
    9000005    1    3    3    0    0 -0.47019758408E+01  0.18206195017E+02 -0.10708030518E+03  0.10872334556E+03  0.10000000000E+01 0.  0.
    9000005    1    3    3    0    0  0.47019758408E+01 -0.18206195017E+02  0.31971733772E+02  0.37104795838E+02  0.10000000000E+01 0.  0.
<mgrwt>
<rscale>  0 0.12499820E+03</rscale>
<asrwt>0</asrwt>
<pdfrwt beam="1">  1        4 0.54399669E-02 0.12499820E+03</pdfrwt>
<pdfrwt beam="2">  1       -4 0.16995132E-01 0.12499820E+03</pdfrwt>
<totfact> 0.10014596E+04</totfact>
</mgrwt>
</event>
<event>
 5    1  0.3434846E-002  0.1250028E+03  0.7818608E-02  0.1235065E+00
         -4   -1    0    0    0  501 -0.00000000000E+00  0.00000000000E+00  0.98136205829E+02  0.98144423146E+02  0.12700000000E+01 0.  1.
          4   -1    0    0  501    0  0.00000000000E+00 -0.00000000000E+00 -0.39786165961E+02  0.39806430409E+02  0.12700000000E+01 0.  1.
         25    2    1    2    0    0  0.00000000000E+00  0.00000000000E+00  0.58350039868E+02  0.13795085355E+03  0.12500284334E+03 0.  0.
    9000005    1    3    3    0    0 -0.47507638450E+02  0.39141199001E+02  0.41082382451E+02  0.74011967398E+02  0.10000000000E+01 0.  0.
    9000005    1    3    3    0    0  0.47507638450E+02 -0.39141199001E+02  0.17267657417E+02  0.63938886157E+02  0.10000000000E+01 0.  0.
<mgrwt>
<rscale>  0 0.12500284E+03</rscale>
<asrwt>0</asrwt>
<pdfrwt beam="2">  1        4 0.61231396E-02 0.12500284E+03</pdfrwt>
<pdfrwt beam="1">  1       -4 0.15100069E-01 0.12500284E+03</pdfrwt>
<totfact> 0.10175581E+04</totfact>
</mgrwt>
</event>
<event>
 5    1  0.3434846E-002  0.1250033E+03  0.7818608E-02  0.1235064E+00
         -4   -1    0    0    0  501 -0.00000000000E+00  0.00000000000E+00  0.36607223529E+02  0.36629246709E+02  0.12700000000E+01 0. -1.
          4   -1    0    0  501    0  0.00000000000E+00 -0.00000000000E+00 -0.10665480348E+03  0.10666236452E+03  0.12700000000E+01 0. -1.
         25    2    1    2    0    0  0.00000000000E+00  0.00000000000E+00 -0.70047579946E+02  0.14329161123E+03  0.12500328952E+03 0.  0.
    9000005    1    3    3    0    0 -0.45973191979E+02 -0.14941024970E+02 -0.80425004582E+02  0.93840023284E+02  0.10000000000E+01 0.  0.
    9000005    1    3    3    0    0  0.45973191979E+02  0.14941024970E+02  0.10377424636E+02  0.49451587942E+02  0.10000000000E+01 0.  0.
<mgrwt>
<rscale>  0 0.12500329E+03</rscale>
<asrwt>0</asrwt>
<pdfrwt beam="2">  1        4 0.16410707E-01 0.12500329E+03</pdfrwt>
<pdfrwt beam="1">  1       -4 0.56341563E-02 0.12500329E+03</pdfrwt>
<totfact> 0.10065069E+04</totfact>
</mgrwt>
</event>
<event>
 5    1  0.3434846E-002  0.1249955E+03  0.7818608E-02  0.1235076E+00
         -4   -1    0    0    0  501 -0.00000000000E+00  0.00000000000E+00  0.45048323865E+03  0.45048502884E+03  0.12700000000E+01 0.  1.
          4   -1    0    0  501    0  0.00000000000E+00 -0.00000000000E+00 -0.86222937623E+01  0.87153226977E+01  0.12700000000E+01 0.  1.
         25    2    1    2    0    0  0.00000000000E+00  0.00000000000E+00  0.44186094489E+03  0.45920035154E+03  0.12499547284E+03 0.  0.
    9000005    1    3    3    0    0 -0.47515611891E+02  0.14625902260E+02  0.36001505894E+03  0.36343292786E+03  0.10000000000E+01 0.  0.
    9000005    1    3    3    0    0  0.47515611891E+02 -0.14625902260E+02  0.81845885955E+02  0.95767423679E+02  0.10000000000E+01 0.  0.
<mgrwt>
<rscale>  0 0.12499547E+03</rscale>
<asrwt>0</asrwt>
<pdfrwt beam="2">  1        4 0.13338006E-02 0.12499547E+03</pdfrwt>
<pdfrwt beam="1">  1       -4 0.69312401E-01 0.12499547E+03</pdfrwt>
<totfact> 0.59180875E+03</totfact>
</mgrwt>
</event>
<event>
 5    1  0.3434846E-002  0.1250132E+03  0.7818608E-02  0.1235049E+00
          4   -1    0    0  501    0  0.00000000000E+00  0.00000000000E+00  0.29009044564E+02  0.29036831207E+02  0.12700000000E+01 0.  1.
         -4   -1    0    0    0  501 -0.00000000000E+00 -0.00000000000E+00 -0.13458956519E+03  0.13459555698E+03  0.12700000000E+01 0.  1.
         25    2    1    2    0    0  0.00000000000E+00  0.00000000000E+00 -0.10558052063E+03  0.16363238819E+03  0.12501324781E+03 0.  0.
    9000005    1    3    3    0    0 -0.16132113497E+02  0.37909440460E+02 -0.11430544200E+03  0.12150763282E+03  0.10000000000E+01 0.  0.
    9000005    1    3    3    0    0  0.16132113497E+02 -0.37909440460E+02  0.87249213732E+01  0.42124755368E+02  0.10000000000E+01 0.  0.
<mgrwt>
<rscale>  0 0.12501325E+03</rscale>
<asrwt>0</asrwt>
<pdfrwt beam="1">  1        4 0.44655283E-02 0.12501325E+03</pdfrwt>
<pdfrwt beam="2">  1       -4 0.20708685E-01 0.12501325E+03</pdfrwt>
<totfact> 0.96618263E+03</totfact>
</mgrwt>
</event>
<event>
 5    1  0.3434846E-002  0.1250040E+03  0.7818608E-02  0.1235063E+00
         -4   -1    0    0    0  501 -0.00000000000E+00  0.00000000000E+00  0.17773925618E+02  0.17819240496E+02  0.12700000000E+01 0.  1.
          4   -1    0    0  501    0  0.00000000000E+00 -0.00000000000E+00 -0.21946116632E+03  0.21946484097E+03  0.12700000000E+01 0.  1.
         25    2    1    2    0    0  0.00000000000E+00  0.00000000000E+00 -0.20168724070E+03  0.23728408146E+03  0.12500396896E+03 0.  0.
    9000005    1    3    3    0    0 -0.35866597100E+02  0.41532436344E+02 -0.15760436065E+03  0.16688765847E+03  0.10000000000E+01 0.  0.
    9000005    1    3    3    0    0  0.35866597100E+02 -0.41532436344E+02 -0.44082880054E+02  0.70396422992E+02  0.10000000000E+01 0.  0.
<mgrwt>
<rscale>  0 0.12500397E+03</rscale>
<asrwt>0</asrwt>
<pdfrwt beam="2">  1        4 0.33767023E-01 0.12500397E+03</pdfrwt>
<pdfrwt beam="1">  1       -4 0.27382187E-02 0.12500397E+03</pdfrwt>
<totfact> 0.84196074E+03</totfact>
</mgrwt>
</event>
<event>
 5    1  0.3434846E-002  0.1249997E+03  0.7818608E-02  0.1235070E+00
          4   -1    0    0  501    0  0.00000000000E+00  0.00000000000E+00  0.25293333416E+03  0.25293652253E+03  0.12700000000E+01 0.  1.
         -4   -1    0    0    0  501 -0.00000000000E+00 -0.00000000000E+00 -0.15414306085E+02  0.15466535878E+02  0.12700000000E+01 0.  1.
         25    2    1    2    0    0  0.00000000000E+00  0.00000000000E+00  0.23751902808E+03  0.26840305841E+03  0.12499965226E+03 0.  0.
    9000005    1    3    3    0    0 -0.22634062538E+02 -0.51989214147E+02  0.17516464990E+03  0.18411635927E+03  0.10000000000E+01 0.  0.
    9000005    1    3    3    0    0  0.22634062538E+02  0.51989214147E+02  0.62354378175E+02  0.84286699142E+02  0.10000000000E+01 0.  0.
<mgrwt>
<rscale>  0 0.12499965E+03</rscale>
<asrwt>0</asrwt>
<pdfrwt beam="1">  1        4 0.38917081E-01 0.12499965E+03</pdfrwt>
<pdfrwt beam="2">  1       -4 0.23756948E-02 0.12499965E+03</pdfrwt>
<totfact> 0.79741703E+03</totfact>
</mgrwt>
</event>
<event>
 5    1  0.3434846E-002  0.1250001E+03  0.7818608E-02  0.1235069E+00
         -4   -1    0    0    0  501 -0.00000000000E+00  0.00000000000E+00  0.13751638953E+03  0.13752225380E+03  0.12700000000E+01 0. -1.
          4   -1    0    0  501    0  0.00000000000E+00 -0.00000000000E+00 -0.28385096097E+02  0.28413492930E+02  0.12700000000E+01 0. -1.
         25    2    1    2    0    0  0.00000000000E+00  0.00000000000E+00  0.10913129344E+03  0.16593574673E+03  0.12500013134E+03 0.  0.
    9000005    1    3    3    0    0  0.32571187887E+02 -0.76383808372E+01 -0.15502795486E+02  0.36885821260E+02  0.10000000000E+01 0.  0.
    9000005    1    3    3    0    0 -0.32571187887E+02  0.76383808372E+01  0.12463408892E+03  0.12904992547E+03  0.10000000000E+01 0.  0.
<mgrwt>
<rscale>  0 0.12500013E+03</rscale>
<asrwt>0</asrwt>
<pdfrwt beam="2">  1        4 0.43695733E-02 0.12500013E+03</pdfrwt>
<pdfrwt beam="1">  1       -4 0.21159003E-01 0.12500013E+03</pdfrwt>
<totfact> 0.96210186E+03</totfact>
</mgrwt>
</event>
<event>
 5    1  0.3434846E-002  0.1249979E+03  0.7818608E-02  0.1235073E+00
         -4   -1    0    0    0  501 -0.00000000000E+00  0.00000000000E+00  0.55618682791E+02  0.55633180526E+02  0.12700000000E+01 0.  1.
          4   -1    0    0  501    0  0.00000000000E+00 -0.00000000000E+00 -0.70200935291E+02  0.70212422090E+02  0.12700000000E+01 0.  1.
         25    2    1    2    0    0  0.00000000000E+00  0.00000000000E+00 -0.14582252500E+02  0.12584560262E+03  0.12499789442E+03 0.  0.
    9000005    1    3    3    0    0 -0.31725867519E+02 -0.52425171619E+02  0.50471523943E+01  0.61493113731E+02  0.10000000000E+01 0.  0.
    9000005    1    3    3    0    0  0.31725867519E+02  0.52425171619E+02 -0.19629404894E+02  0.64352488884E+02  0.10000000000E+01 0.  0.
<mgrwt>
<rscale>  0 0.12499789E+03</rscale>
<asrwt>0</asrwt>
<pdfrwt beam="2">  1        4 0.10802143E-01 0.12499789E+03</pdfrwt>
<pdfrwt beam="1">  1       -4 0.85587192E-02 0.12499789E+03</pdfrwt>
<totfact> 0.10434839E+04</totfact>
</mgrwt>
</event>
<event>
 5    1  0.3434846E-002  0.1250128E+03  0.7818608E-02  0.1235049E+00
          4   -1    0    0  501    0  0.00000000000E+00  0.00000000000E+00  0.87025741328E+02  0.87035007633E+02  0.12700000000E+01 0. -1.
         -4   -1    0    0    0  501 -0.00000000000E+00 -0.00000000000E+00 -0.44874688096E+02  0.44892655654E+02  0.12700000000E+01 0. -1.
         25    2    1    2    0    0  0.00000000000E+00  0.00000000000E+00  0.42151053232E+02  0.13192766329E+03  0.12501278755E+03 0.  0.
    9000005    1    3    3    0    0 -0.12975957921E+02  0.15444772701E+01  0.85573118333E+02  0.86570892771E+02  0.10000000000E+01 0.  0.
    9000005    1    3    3    0    0  0.12975957921E+02 -0.15444772701E+01 -0.43422065101E+02  0.45356770516E+02  0.10000000000E+01 0.  0.
<mgrwt>
<rscale>  0 0.12501279E+03</rscale>
<asrwt>0</asrwt>
<pdfrwt beam="1">  1        4 0.13390670E-01 0.12501279E+03</pdfrwt>
<pdfrwt beam="2">  1       -4 0.69058932E-02 0.12501279E+03</pdfrwt>
<totfact> 0.10300271E+04</totfact>
</mgrwt>
</event>
<event>
 5    1  0.3434846E-002  0.1250036E+03  0.7818608E-02  0.1235064E+00
          4   -1    0    0  501    0  0.00000000000E+00  0.00000000000E+00  0.17116329374E+03  0.17116800525E+03  0.12700000000E+01 0. -1.
         -4   -1    0    0    0  501 -0.00000000000E+00 -0.00000000000E+00 -0.22800404557E+02  0.22835747152E+02  0.12700000000E+01 0. -1.
         25    2    1    2    0    0  0.00000000000E+00  0.00000000000E+00  0.14836288918E+03  0.19400375241E+03  0.12500363619E+03 0.  0.
    9000005    1    3    3    0    0 -0.33229312273E+02 -0.12998431566E+02  0.15380796180E+03  0.15789564759E+03  0.10000000000E+01 0.  0.
    9000005    1    3    3    0    0  0.33229312273E+02  0.12998431566E+02 -0.54450726162E+01  0.36108104812E+02  0.10000000000E+01 0.  0.
<mgrwt>
<rscale>  0 0.12500364E+03</rscale>
<asrwt>0</asrwt>
<pdfrwt beam="1">  1        4 0.26335895E-01 0.12500364E+03</pdfrwt>
<pdfrwt beam="2">  1       -4 0.35108356E-02 0.12500364E+03</pdfrwt>
<totfact> 0.91147883E+03</totfact>
</mgrwt>
</event>
<event>
 5    1  0.3434846E-002  0.1250197E+03  0.7818608E-02  0.1235038E+00
          4   -1    0    0  501    0  0.00000000000E+00  0.00000000000E+00  0.12044232645E+02  0.12111004914E+02  0.12700000000E+01 0. -1.
         -4   -1    0    0    0  501 -0.00000000000E+00 -0.00000000000E+00 -0.32346280512E+03  0.32346529829E+03  0.12700000000E+01 0. -1.
         25    2    1    2    0    0  0.00000000000E+00  0.00000000000E+00 -0.31141857247E+03  0.33557630320E+03  0.12501971040E+03 0.  0.
    9000005    1    3    3    0    0  0.40895506472E+01 -0.53975956158E+02 -0.23958116888E+03  0.24562219922E+03  0.10000000000E+01 0.  0.
    9000005    1    3    3    0    0 -0.40895506472E+01  0.53975956158E+02 -0.71837403591E+02  0.89954103978E+02  0.10000000000E+01 0.  0.
<mgrwt>
<rscale>  0 0.12501971E+03</rscale>
<asrwt>0</asrwt>
<pdfrwt beam="1">  1        4 0.18582872E-02 0.12501971E+03</pdfrwt>
<pdfrwt beam="2">  1       -4 0.49768830E-01 0.12501971E+03</pdfrwt>
<totfact> 0.71309910E+03</totfact>
</mgrwt>
</event>
<event>
 5    1  0.3434846E-002  0.1249982E+03  0.7818608E-02  0.1235072E+00
          4   -1    0    0  501    0  0.00000000000E+00  0.00000000000E+00  0.87845817950E+02  0.87854997759E+02  0.12700000000E+01 0.  1.
         -4   -1    0    0    0  501 -0.00000000000E+00 -0.00000000000E+00 -0.44445256151E+02  0.44463397242E+02  0.12700000000E+01 0.  1.
         25    2    1    2    0    0  0.00000000000E+00  0.00000000000E+00  0.43400561799E+02  0.13231839500E+03  0.12499819555E+03 0.  0.
    9000005    1    3    3    0    0 -0.91084695009E+01  0.59035426493E+02  0.41132656925E+02  0.72533035670E+02  0.10000000000E+01 0.  0.
    9000005    1    3    3    0    0  0.91084695009E+01 -0.59035426493E+02  0.22679048741E+01  0.59785359331E+02  0.10000000000E+01 0.  0.
<mgrwt>
<rscale>  0 0.12499820E+03</rscale>
<asrwt>0</asrwt>
<pdfrwt beam="1">  1        4 0.13516843E-01 0.12499820E+03</pdfrwt>
<pdfrwt beam="2">  1       -4 0.68398333E-02 0.12499820E+03</pdfrwt>
<totfact> 0.10295326E+04</totfact>
</mgrwt>
</event>
<event>
 5    1  0.3434846E-002  0.1250109E+03  0.7818608E-02  0.1235052E+00
         -4   -1    0    0    0  501 -0.00000000000E+00  0.00000000000E+00  0.95647424953E+02  0.95655856068E+02  0.12700000000E+01 0.  1.
          4   -1    0    0  501    0  0.00000000000E+00 -0.00000000000E+00 -0.40827082698E+02  0.40846830742E+02  0.12700000000E+01 0.  1.
         25    2    1    2    0    0  0.00000000000E+00  0.00000000000E+00  0.54820342255E+02  0.13650268681E+03  0.12501085385E+03 0.  0.
    9000005    1    3    3    0    0  0.58056315248E+02 -0.23136620635E+02  0.27736729721E+02  0.68382491401E+02  0.10000000000E+01 0.  0.
    9000005    1    3    3    0    0 -0.58056315248E+02  0.23136620635E+02  0.27083612534E+02  0.68120195409E+02  0.10000000000E+01 0.  0.
<mgrwt>
<rscale>  0 0.12501085E+03</rscale>
<asrwt>0</asrwt>
<pdfrwt beam="2">  1        4 0.62832573E-02 0.12501085E+03</pdfrwt>
<pdfrwt beam="1">  1       -4 0.14717156E-01 0.12501085E+03</pdfrwt>
<totfact> 0.10203997E+04</totfact>
</mgrwt>
</event>
<event>
 5    1  0.3434846E-002  0.1250013E+03  0.7818608E-02  0.1235067E+00
         -4   -1    0    0    0  501 -0.00000000000E+00  0.00000000000E+00  0.46207337754E+02  0.46224787315E+02  0.12700000000E+01 0. -1.
          4   -1    0    0  501    0  0.00000000000E+00 -0.00000000000E+00 -0.84501033240E+02  0.84510576372E+02  0.12700000000E+01 0. -1.
         25    2    1    2    0    0  0.00000000000E+00  0.00000000000E+00 -0.38293695487E+02  0.13073536369E+03  0.12500131281E+03 0.  0.
    9000005    1    3    3    0    0  0.42316414381E+02 -0.13866864905E+02 -0.65002853720E+02  0.78799364592E+02  0.10000000000E+01 0.  0.
    9000005    1    3    3    0    0 -0.42316414381E+02  0.13866864905E+02  0.26709158234E+02  0.51935999094E+02  0.10000000000E+01 0.  0.
<mgrwt>
<rscale>  0 0.12500131E+03</rscale>
<asrwt>0</asrwt>
<pdfrwt beam="2">  1        4 0.13002235E-01 0.12500131E+03</pdfrwt>
<pdfrwt beam="1">  1       -4 0.71108975E-02 0.12500131E+03</pdfrwt>
<totfact> 0.10328460E+04</totfact>
</mgrwt>
</event>
<event>
 5    1  0.3434846E-002  0.1249992E+03  0.7818608E-02  0.1235071E+00
          4   -1    0    0  501    0  0.00000000000E+00  0.00000000000E+00  0.26461555975E+02  0.26492014733E+02  0.12700000000E+01 0.  1.
         -4   -1    0    0    0  501 -0.00000000000E+00 -0.00000000000E+00 -0.14749977192E+03  0.14750523928E+03  0.12700000000E+01 0.  1.
         25    2    1    2    0    0  0.00000000000E+00  0.00000000000E+00 -0.12103821594E+03  0.17399725401E+03  0.12499917874E+03 0.  0.
    9000005    1    3    3    0    0  0.19156239871E+02 -0.34792139946E+02  0.66396809805E+01  0.40280763294E+02  0.10000000000E+01 0.  0.
    9000005    1    3    3    0    0 -0.19156239871E+02  0.34792139946E+02 -0.12767789692E+03  0.13371649072E+03  0.10000000000E+01 0.  0.
<mgrwt>
<rscale>  0 0.12499918E+03</rscale>
<asrwt>0</asrwt>
<pdfrwt beam="1">  1        4 0.40737722E-02 0.12499918E+03</pdfrwt>
<pdfrwt beam="2">  1       -4 0.22695036E-01 0.12499918E+03</pdfrwt>
<totfact> 0.94710558E+03</totfact>
</mgrwt>
</event>
<event>
 5    1  0.3434846E-002  0.1249996E+03  0.7818608E-02  0.1235070E+00
          4   -1    0    0  501    0  0.00000000000E+00  0.00000000000E+00  0.58118316779E+01  0.59489736469E+01  0.12700000000E+01 0. -1.
         -4   -1    0    0    0  501 -0.00000000000E+00 -0.00000000000E+00 -0.66414032543E+03  0.66414153971E+03  0.12700000000E+01 0. -1.
         25    2    1    2    0    0  0.00000000000E+00  0.00000000000E+00 -0.65832849376E+03  0.67009051336E+03  0.12499956160E+03 0.  0.
    9000005    1    3    3    0    0  0.22756956332E+01  0.27913671792E+02 -0.62864083055E+03  0.62926516326E+03  0.10000000000E+01 0.  0.
    9000005    1    3    3    0    0 -0.22756956332E+01 -0.27913671792E+02 -0.29687663208E+02  0.40825350094E+02  0.10000000000E+01 0.  0.
<mgrwt>
<rscale>  0 0.12499956E+03</rscale>
<asrwt>0</asrwt>
<pdfrwt beam="1">  1        4 0.90477126E-03 0.12499956E+03</pdfrwt>
<pdfrwt beam="2">  1       -4 0.10218602E+00 0.12499956E+03</pdfrwt>
<totfact> 0.44713732E+03</totfact>
</mgrwt>
</event>
<event>
 5    1  0.3434846E-002  0.1249975E+03  0.7818608E-02  0.1235073E+00
         -4   -1    0    0    0  501 -0.00000000000E+00  0.00000000000E+00  0.21903229910E+03  0.21903598095E+03  0.12700000000E+01 0.  1.
          4   -1    0    0  501    0  0.00000000000E+00 -0.00000000000E+00 -0.17806954169E+02  0.17852185210E+02  0.12700000000E+01 0.  1.
         25    2    1    2    0    0  0.00000000000E+00  0.00000000000E+00  0.20122534493E+03  0.23688816616E+03  0.12499745526E+03 0.  0.
    9000005    1    3    3    0    0 -0.48338431741E+02 -0.35877177332E+02  0.68826463724E+02  0.91443195183E+02  0.10000000000E+01 0.  0.
    9000005    1    3    3    0    0  0.48338431741E+02  0.35877177332E+02  0.13239888121E+03  0.14544497097E+03  0.10000000000E+01 0.  0.
<mgrwt>
<rscale>  0 0.12499746E+03</rscale>
<asrwt>0</asrwt>
<pdfrwt beam="2">  1        4 0.27432939E-02 0.12499746E+03</pdfrwt>
<pdfrwt beam="1">  1       -4 0.33701039E-01 0.12499746E+03</pdfrwt>
<totfact> 0.84267794E+03</totfact>
</mgrwt>
</event>
<event>
 5    1  0.3434846E-002  0.1249889E+03  0.7818608E-02  0.1235087E+00
          4   -1    0    0  501    0  0.00000000000E+00  0.00000000000E+00  0.11507350941E+03  0.11508051732E+03  0.12700000000E+01 0.  1.
         -4   -1    0    0    0  501 -0.00000000000E+00 -0.00000000000E+00 -0.33919740796E+02  0.33943507710E+02  0.12700000000E+01 0.  1.
         25    2    1    2    0    0  0.00000000000E+00  0.00000000000E+00  0.81153768609E+02  0.14902402503E+03  0.12498890302E+03 0.  0.
    9000005    1    3    3    0    0  0.45477769195E+01  0.17483238342E+02 -0.30744174185E+02  0.35672820805E+02  0.10000000000E+01 0.  0.
    9000005    1    3    3    0    0 -0.45477769195E+01 -0.17483238342E+02  0.11189794279E+03  0.11335120423E+03  0.10000000000E+01 0.  0.
<mgrwt>
<rscale>  0 0.12498890E+03</rscale>
<asrwt>0</asrwt>
<pdfrwt beam="1">  1        4 0.17705984E-01 0.12498890E+03</pdfrwt>
<pdfrwt beam="2">  1       -4 0.52207891E-02 0.12498890E+03</pdfrwt>
<totfact> 0.99523457E+03</totfact>
</mgrwt>
</event>
<event>
 5    1  0.3434846E-002  0.1249970E+03  0.7818608E-02  0.1235074E+00
         -4   -1    0    0    0  501 -0.00000000000E+00  0.00000000000E+00  0.13216708023E+03  0.13217318184E+03  0.12700000000E+01 0.  1.
          4   -1    0    0  501    0  0.00000000000E+00 -0.00000000000E+00 -0.29533548905E+02  0.29560842527E+02  0.12700000000E+01 0.  1.
         25    2    1    2    0    0  0.00000000000E+00  0.00000000000E+00  0.10263353133E+03  0.16173402437E+03  0.12499701150E+03 0.  0.
    9000005    1    3    3    0    0 -0.47300949265E+02  0.21173680582E+02  0.61345526605E+01  0.52195184521E+02  0.10000000000E+01 0.  0.
    9000005    1    3    3    0    0  0.47300949265E+02 -0.21173680582E+02  0.96498978668E+02  0.10953883985E+03  0.10000000000E+01 0.  0.
<mgrwt>
<rscale>  0 0.12499701E+03</rscale>
<asrwt>0</asrwt>
<pdfrwt beam="2">  1        4 0.45461918E-02 0.12499701E+03</pdfrwt>
<pdfrwt beam="1">  1       -4 0.20335966E-01 0.12499701E+03</pdfrwt>
<totfact> 0.97016032E+03</totfact>
</mgrwt>
</event>
<event>
 4    1  0.3434846E-002  0.1250965E+03  0.7818608E-02  0.1234919E+00
         -4   -1    0    0    0  501 -0.00000000000E+00  0.00000000000E+00  0.10726738168E+02  0.10801657823E+02  0.12700000000E+01 0.  1.
          4   -1    0    0  501    0  0.00000000000E+00 -0.00000000000E+00 -0.36337722404E+03  0.36337944336E+03  0.12700000000E+01 0.  1.
    9000005    1    1    2    0    0 -0.31964180147E+02  0.14870313283E+01 -0.33705171282E+03  0.33856871857E+03  0.10000000000E+01 0.  0.
    9000005    1    1    2    0    0  0.31964180147E+02 -0.14870313283E+01 -0.15598773055E+02  0.35612382614E+02  0.10000000000E+01 0.  0.
<mgrwt>
<rscale>  0 0.12509649E+03</rscale>
<asrwt>0</asrwt>
<pdfrwt beam="2">  1        4 0.55910113E-01 0.12509649E+03</pdfrwt>
<pdfrwt beam="1">  1       -4 0.16562015E-02 0.12509649E+03</pdfrwt>
<totfact> 0.67000780E+03</totfact>
</mgrwt>
</event>
<event>
 5    1  0.3434846E-002  0.1249985E+03  0.7818608E-02  0.1235072E+00
          4   -1    0    0  501    0  0.00000000000E+00  0.00000000000E+00  0.11529686021E+03  0.11530385455E+03  0.12700000000E+01 0.  1.
         -4   -1    0    0    0  501 -0.00000000000E+00 -0.00000000000E+00 -0.33859185859E+02  0.33882995249E+02  0.12700000000E+01 0.  1.
         25    2    1    2    0    0  0.00000000000E+00  0.00000000000E+00  0.81437674352E+02  0.14918684980E+03  0.12499848539E+03 0.  0.
    9000005    1    3    3    0    0 -0.34617703179E+02 -0.46841078480E+02  0.67742884423E+02  0.89345231527E+02  0.10000000000E+01 0.  0.
    9000005    1    3    3    0    0  0.34617703179E+02  0.46841078480E+02  0.13694789929E+02  0.59841618275E+02  0.10000000000E+01 0.  0.
<mgrwt>
<rscale>  0 0.12499849E+03</rscale>
<asrwt>0</asrwt>
<pdfrwt beam="1">  1        4 0.17740348E-01 0.12499849E+03</pdfrwt>
<pdfrwt beam="2">  1       -4 0.52114751E-02 0.12499849E+03</pdfrwt>
<totfact> 0.99469425E+03</totfact>
</mgrwt>
</event>
<event>
 5    1  0.3434846E-002  0.1249995E+03  0.7818608E-02  0.1235070E+00
          4   -1    0    0  501    0  0.00000000000E+00  0.00000000000E+00  0.51011581620E+01  0.52568730814E+01  0.12700000000E+01 0. -1.
         -4   -1    0    0    0  501 -0.00000000000E+00 -0.00000000000E+00 -0.75408357625E+03  0.75408464569E+03  0.12700000000E+01 0. -1.
         25    2    1    2    0    0  0.00000000000E+00  0.00000000000E+00 -0.74898241808E+03  0.75934151877E+03  0.12499951812E+03 0.  0.
    9000005    1    3    3    0    0 -0.52495853671E+02 -0.33672207918E+02 -0.35050735117E+03  0.35601409447E+03  0.10000000000E+01 0.  0.
    9000005    1    3    3    0    0  0.52495853671E+02  0.33672207918E+02 -0.39847506692E+03  0.40332742430E+03  0.10000000000E+01 0.  0.
<mgrwt>
<rscale>  0 0.12499952E+03</rscale>
<asrwt>0</asrwt>
<pdfrwt beam="1">  1        4 0.79685450E-03 0.12499952E+03</pdfrwt>
<pdfrwt beam="2">  1       -4 0.11602483E+00 0.12499952E+03</pdfrwt>
<totfact> 0.40131718E+03</totfact>
</mgrwt>
</event>
<event>
 5    1  0.3434846E-002  0.1250007E+03  0.7818608E-02  0.1235068E+00
          4   -1    0    0  501    0  0.00000000000E+00  0.00000000000E+00  0.29239275603E+03  0.29239551412E+03  0.12700000000E+01 0.  1.
         -4   -1    0    0    0  501 -0.00000000000E+00 -0.00000000000E+00 -0.13326733684E+02  0.13387110618E+02  0.12700000000E+01 0.  1.
         25    2    1    2    0    0  0.00000000000E+00  0.00000000000E+00  0.27906602234E+03  0.30578262474E+03  0.12500067506E+03 0.  0.
    9000005    1    3    3    0    0 -0.34844282602E+02  0.36028285988E+02  0.48227627014E+02  0.69563391440E+02  0.10000000000E+01 0.  0.
    9000005    1    3    3    0    0  0.34844282602E+02 -0.36028285988E+02  0.23083839533E+03  0.23621923330E+03  0.10000000000E+01 0.  0.
<mgrwt>
<rscale>  0 0.12500068E+03</rscale>
<asrwt>0</asrwt>
<pdfrwt beam="1">  1        4 0.44988354E-01 0.12500068E+03</pdfrwt>
<pdfrwt beam="2">  1       -4 0.20551234E-02 0.12500068E+03</pdfrwt>
<totfact> 0.74878035E+03</totfact>
</mgrwt>
</event>
<event>
 5    1  0.3434846E-002  0.1250003E+03  0.7818608E-02  0.1235069E+00
          4   -1    0    0  501    0  0.00000000000E+00  0.00000000000E+00  0.18732722162E+02  0.18775723145E+02  0.12700000000E+01 0.  1.
         -4   -1    0    0    0  501 -0.00000000000E+00 -0.00000000000E+00 -0.20824258109E+03  0.20824645370E+03  0.12700000000E+01 0.  1.
         25    2    1    2    0    0  0.00000000000E+00  0.00000000000E+00 -0.18950985893E+03  0.22702217684E+03  0.12500032859E+03 0.  0.
    9000005    1    3    3    0    0  0.62138415535E+02  0.31736646267E+01 -0.84162468645E+02  0.10466888726E+03  0.10000000000E+01 0.  0.
    9000005    1    3    3    0    0 -0.62138415535E+02 -0.31736646267E+01 -0.10534739028E+03  0.12235328958E+03  0.10000000000E+01 0.  0.
<mgrwt>
<rscale>  0 0.12500033E+03</rscale>
<asrwt>0</asrwt>
<pdfrwt beam="1">  1        4 0.28855631E-02 0.12500033E+03</pdfrwt>
<pdfrwt beam="2">  1       -4 0.32040924E-01 0.12500033E+03</pdfrwt>
<totfact> 0.85768323E+03</totfact>
</mgrwt>
</event>
<event>
 5    1  0.3434846E-002  0.1250015E+03  0.7818608E-02  0.1235067E+00
          4   -1    0    0  501    0  0.00000000000E+00  0.00000000000E+00  0.91266824389E+01  0.92146205749E+01  0.12700000000E+01 0.  1.
         -4   -1    0    0    0  501 -0.00000000000E+00 -0.00000000000E+00 -0.42587236983E+03  0.42587426346E+03  0.12700000000E+01 0.  1.
         25    2    1    2    0    0  0.00000000000E+00  0.00000000000E+00 -0.41674568739E+03  0.43508888404E+03  0.12500147623E+03 0.  0.
    9000005    1    3    3    0    0  0.34820894410E+01  0.42724300631E+02 -0.36665155827E+03  0.36915018081E+03  0.10000000000E+01 0.  0.
    9000005    1    3    3    0    0 -0.34820894410E+01 -0.42724300631E+02 -0.50094129115E+02  0.65938703226E+02  0.10000000000E+01 0.  0.
<mgrwt>
<rscale>  0 0.12500148E+03</rscale>
<asrwt>0</asrwt>
<pdfrwt beam="1">  1        4 0.14110155E-02 0.12500148E+03</pdfrwt>
<pdfrwt beam="2">  1       -4 0.65525721E-01 0.12500148E+03</pdfrwt>
<totfact> 0.61275422E+03</totfact>
</mgrwt>
</event>
<event>
 5    1  0.3434846E-002  0.1250083E+03  0.7818608E-02  0.1235056E+00
          4   -1    0    0  501    0  0.00000000000E+00  0.00000000000E+00  0.16133988824E+04  0.16133993822E+04  0.12700000000E+01 0.  1.
         -4   -1    0    0    0  501 -0.00000000000E+00 -0.00000000000E+00 -0.22543973993E+01  0.25875099292E+01  0.12700000000E+01 0.  1.
         25    2    1    2    0    0  0.00000000000E+00  0.00000000000E+00  0.16111444850E+04  0.16159868922E+04  0.12500833625E+03 0.  0.
    9000005    1    3    3    0    0  0.57283084216E+02 -0.22358169880E+02  0.94982978509E+03  0.95181871181E+03  0.10000000000E+01 0.  0.
    9000005    1    3    3    0    0 -0.57283084216E+02  0.22358169880E+02  0.66131469990E+03  0.66416818036E+03  0.10000000000E+01 0.  0.
<mgrwt>
<rscale>  0 0.12500834E+03</rscale>
<asrwt>0</asrwt>
<pdfrwt beam="1">  1        4 0.24824046E+00 0.12500834E+03</pdfrwt>
<pdfrwt beam="2">  1       -4 0.37249348E-03 0.12500834E+03</pdfrwt>
<totfact> 0.15756069E+03</totfact>
</mgrwt>
</event>
<event>
 5    1  0.3434846E-002  0.1249993E+03  0.7818608E-02  0.1235070E+00
          4   -1    0    0  501    0  0.00000000000E+00  0.00000000000E+00  0.10311358008E+03  0.10312140077E+03  0.12700000000E+01 0.  1.
         -4   -1    0    0    0  501 -0.00000000000E+00 -0.00000000000E+00 -0.37862663688E+02  0.37883957047E+02  0.12700000000E+01 0.  1.
         25    2    1    2    0    0  0.00000000000E+00  0.00000000000E+00  0.65250916388E+02  0.14100535781E+03  0.12499931537E+03 0.  0.
    9000005    1    3    3    0    0 -0.45436414408E+02 -0.20181111894E+02 -0.10083708710E+02  0.50738803818E+02  0.10000000000E+01 0.  0.
    9000005    1    3    3    0    0  0.45436414408E+02  0.20181111894E+02  0.75334625098E+02  0.90266553995E+02  0.10000000000E+01 0.  0.
<mgrwt>
<rscale>  0 0.12499932E+03</rscale>
<asrwt>0</asrwt>
<pdfrwt beam="1">  1        4 0.15865867E-01 0.12499932E+03</pdfrwt>
<pdfrwt beam="2">  1       -4 0.58272649E-02 0.12499932E+03</pdfrwt>
<totfact> 0.10112948E+04</totfact>
</mgrwt>
</event>
<event>
 5    1  0.3434846E-002  0.1250008E+03  0.7818608E-02  0.1235068E+00
          4   -1    0    0  501    0  0.00000000000E+00  0.00000000000E+00  0.50664762054E+02  0.50680676929E+02  0.12700000000E+01 0. -1.
         -4   -1    0    0    0  501 -0.00000000000E+00 -0.00000000000E+00 -0.77067716786E+02  0.77078180249E+02  0.12700000000E+01 0. -1.
         25    2    1    2    0    0  0.00000000000E+00  0.00000000000E+00 -0.26402954731E+02  0.12775885718E+03  0.12500083827E+03 0.  0.
    9000005    1    3    3    0    0 -0.35678989543E+02 -0.14641652041E+02  0.37055958254E+02  0.53493105270E+02  0.10000000000E+01 0.  0.
    9000005    1    3    3    0    0  0.35678989543E+02  0.14641652041E+02 -0.63458912986E+02  0.74265751909E+02  0.10000000000E+01 0.  0.
<mgrwt>
<rscale>  0 0.12500084E+03</rscale>
<asrwt>0</asrwt>
<pdfrwt beam="1">  1        4 0.77966078E-02 0.12500084E+03</pdfrwt>
<pdfrwt beam="2">  1       -4 0.11858601E-01 0.12500084E+03</pdfrwt>
<totfact> 0.10392502E+04</totfact>
</mgrwt>
</event>
<event>
 5    1  0.3434846E-002  0.1250021E+03  0.7818608E-02  0.1235066E+00
         -4   -1    0    0    0  501 -0.00000000000E+00  0.00000000000E+00  0.62192551490E+03  0.62192681160E+03  0.12700000000E+01 0. -1.
          4   -1    0    0  501    0  0.00000000000E+00 -0.00000000000E+00 -0.62155966735E+01  0.63440162364E+01  0.12700000000E+01 0. -1.
         25    2    1    2    0    0  0.00000000000E+00  0.00000000000E+00  0.61570991823E+03  0.62827082784E+03  0.12500211880E+03 0.  0.
    9000005    1    3    3    0    0  0.34133355639E+01 -0.39825110146E+02  0.66409824397E+02  0.77517449870E+02  0.10000000000E+01 0.  0.
    9000005    1    3    3    0    0 -0.34133355639E+01  0.39825110146E+02  0.54930009383E+03  0.55075337797E+03  0.10000000000E+01 0.  0.
<mgrwt>
<rscale>  0 0.12500212E+03</rscale>
<asrwt>0</asrwt>
<pdfrwt beam="2">  1        4 0.96622317E-03 0.12500212E+03</pdfrwt>
<pdfrwt beam="1">  1       -4 0.95690890E-01 0.12500212E+03</pdfrwt>
<totfact> 0.47128142E+03</totfact>
</mgrwt>
</event>
<event>
 5    1  0.3434846E-002  0.1250025E+03  0.7818608E-02  0.1235065E+00
         -4   -1    0    0    0  501 -0.00000000000E+00  0.00000000000E+00  0.81339573801E+03  0.81339672947E+03  0.12700000000E+01 0.  1.
          4   -1    0    0  501    0  0.00000000000E+00 -0.00000000000E+00 -0.47176210438E+01  0.48855755355E+01  0.12700000000E+01 0.  1.
         25    2    1    2    0    0  0.00000000000E+00  0.00000000000E+00  0.80867811696E+03  0.81828230500E+03  0.12500253528E+03 0.  0.
    9000005    1    3    3    0    0 -0.29984335988E+02  0.77018612234E+01  0.75970562942E+03  0.76033678225E+03  0.10000000000E+01 0.  0.
    9000005    1    3    3    0    0  0.29984335988E+02 -0.77018612234E+01  0.48972487548E+02  0.57945522757E+02  0.10000000000E+01 0.  0.
<mgrwt>
<rscale>  0 0.12500254E+03</rscale>
<asrwt>0</asrwt>
<pdfrwt beam="2">  1        4 0.73878365E-03 0.12500254E+03</pdfrwt>
<pdfrwt beam="1">  1       -4 0.12515081E+00 0.12500254E+03</pdfrwt>
<totfact> 0.37459398E+03</totfact>
</mgrwt>
</event>
<event>
 5    1  0.3434846E-002  0.1250074E+03  0.7818608E-02  0.1235058E+00
         -4   -1    0    0    0  501 -0.00000000000E+00  0.00000000000E+00  0.24808002815E+01  0.27869822455E+01  0.12700000000E+01 0.  1.
          4   -1    0    0  501    0  0.00000000000E+00 -0.00000000000E+00 -0.14829403428E+04  0.14829408866E+04  0.12700000000E+01 0.  1.
         25    2    1    2    0    0  0.00000000000E+00  0.00000000000E+00 -0.14804595425E+04  0.14857278689E+04  0.12500737292E+03 0.  0.
    9000005    1    3    3    0    0  0.49121971090E+01 -0.50639744191E+02 -0.11715790556E+04  0.11726836730E+04  0.10000000000E+01 0.  0.
    9000005    1    3    3    0    0 -0.49121971090E+01  0.50639744191E+02 -0.30888048689E+03  0.31304419585E+03  0.10000000000E+01 0.  0.
<mgrwt>
<rscale>  0 0.12500737E+03</rscale>
<asrwt>0</asrwt>
<pdfrwt beam="2">  1        4 0.22816760E+00 0.12500737E+03</pdfrwt>
<pdfrwt beam="1">  1       -4 0.40525706E-03 0.12500737E+03</pdfrwt>
<totfact> 0.18209765E+03</totfact>
</mgrwt>
</event>
<event>
 5    1  0.3434846E-002  0.1250002E+03  0.7818608E-02  0.1235069E+00
          4   -1    0    0  501    0  0.00000000000E+00  0.00000000000E+00  0.14405516720E+03  0.14406076529E+03  0.12700000000E+01 0. -1.
         -4   -1    0    0    0  501 -0.00000000000E+00 -0.00000000000E+00 -0.27095456494E+02  0.27125203458E+02  0.12700000000E+01 0. -1.
         25    2    1    2    0    0  0.00000000000E+00  0.00000000000E+00  0.11695971071E+03  0.17118596875E+03  0.12500024788E+03 0.  0.
    9000005    1    3    3    0    0 -0.35351367372E+02  0.46004493636E+02  0.26681460262E+02  0.63867307220E+02  0.10000000000E+01 0.  0.
    9000005    1    3    3    0    0  0.35351367372E+02 -0.46004493636E+02  0.90278250445E+02  0.10731866153E+03  0.10000000000E+01 0.  0.
<mgrwt>
<rscale>  0 0.12500025E+03</rscale>
<asrwt>0</asrwt>
<pdfrwt beam="1">  1        4 0.22165052E-01 0.12500025E+03</pdfrwt>
<pdfrwt beam="2">  1       -4 0.41712507E-02 0.12500025E+03</pdfrwt>
<totfact> 0.95227519E+03</totfact>
</mgrwt>
</event>
<event>
 5    1  0.3434846E-002  0.1250326E+03  0.7818608E-02  0.1235018E+00
         -4   -1    0    0    0  501 -0.00000000000E+00  0.00000000000E+00  0.56905502802E+02  0.56919672778E+02  0.12700000000E+01 0. -1.
          4   -1    0    0  501    0  0.00000000000E+00 -0.00000000000E+00 -0.68651686045E+02  0.68663432021E+02  0.12700000000E+01 0. -1.
         25    2    1    2    0    0  0.00000000000E+00  0.00000000000E+00 -0.11746183243E+02  0.12558310480E+03  0.12503256932E+03 0.  0.
    9000005    1    3    3    0    0 -0.35203876055E+02 -0.51652410104E+02 -0.58343382349E+01  0.62787927673E+02  0.10000000000E+01 0.  0.
    9000005    1    3    3    0    0  0.35203876055E+02  0.51652410104E+02 -0.59118450083E+01  0.62795177126E+02  0.10000000000E+01 0.  0.
<mgrwt>
<rscale>  0 0.12503257E+03</rscale>
<asrwt>0</asrwt>
<pdfrwt beam="2">  1        4 0.10563791E-01 0.12503257E+03</pdfrwt>
<pdfrwt beam="1">  1       -4 0.87566863E-02 0.12503257E+03</pdfrwt>
<totfact> 0.10432453E+04</totfact>
</mgrwt>
</event>
<event>
 5    1  0.3434846E-002  0.1249433E+03  0.7818608E-02  0.1235158E+00
         -4   -1    0    0    0  501 -0.00000000000E+00  0.00000000000E+00  0.55053588287E+01  0.56499447637E+01  0.12700000000E+01 0.  1.
          4   -1    0    0  501    0  0.00000000000E+00 -0.00000000000E+00 -0.69955966294E+03  0.69956081574E+03  0.12700000000E+01 0.  1.
         25    2    1    2    0    0  0.00000000000E+00  0.00000000000E+00 -0.69405430411E+03  0.70521076050E+03  0.12494334584E+03 0.  0.
    9000005    1    3    3    0    0  0.75172016407E+01  0.52164301089E+02 -0.53626404861E+03  0.53884854316E+03  0.10000000000E+01 0.  0.
    9000005    1    3    3    0    0 -0.75172016407E+01 -0.52164301089E+02 -0.15779025550E+03  0.16636221735E+03  0.10000000000E+01 0.  0.
<mgrwt>
<rscale>  0 0.12494335E+03</rscale>
<asrwt>0</asrwt>
<pdfrwt beam="2">  1        4 0.10763570E+00 0.12494335E+03</pdfrwt>
<pdfrwt beam="1">  1       -4 0.85818951E-03 0.12494335E+03</pdfrwt>
<totfact> 0.42866179E+03</totfact>
</mgrwt>
</event>
<event>
 5    1  0.3434846E-002  0.1250022E+03  0.7818608E-02  0.1235066E+00
          4   -1    0    0  501    0  0.00000000000E+00  0.00000000000E+00  0.42507158993E+02  0.42526126860E+02  0.12700000000E+01 0. -1.
         -4   -1    0    0    0  501 -0.00000000000E+00 -0.00000000000E+00 -0.91855591751E+02  0.91864370873E+02  0.12700000000E+01 0. -1.
         25    2    1    2    0    0  0.00000000000E+00  0.00000000000E+00 -0.49348432758E+02  0.13439049773E+03  0.12500215224E+03 0.  0.
    9000005    1    3    3    0    0  0.31494358271E+02  0.53971059474E+02 -0.25517096789E+02  0.67504756071E+02  0.10000000000E+01 0.  0.
    9000005    1    3    3    0    0 -0.31494358271E+02 -0.53971059474E+02 -0.23831335969E+02  0.66885741662E+02  0.10000000000E+01 0.  0.
<mgrwt>
<rscale>  0 0.12500215E+03</rscale>
<asrwt>0</asrwt>
<pdfrwt beam="1">  1        4 0.65416973E-02 0.12500215E+03</pdfrwt>
<pdfrwt beam="2">  1       -4 0.14133764E-01 0.12500215E+03</pdfrwt>
<totfact> 0.10250436E+04</totfact>
</mgrwt>
</event>
<event>
 5    1  0.3434846E-002  0.1249989E+03  0.7818608E-02  0.1235071E+00
          4   -1    0    0  501    0  0.00000000000E+00  0.00000000000E+00  0.12632167936E+02  0.12695848406E+02  0.12700000000E+01 0.  1.
         -4   -1    0    0    0  501 -0.00000000000E+00 -0.00000000000E+00 -0.30838263488E+03  0.30838524997E+03  0.12700000000E+01 0.  1.
         25    2    1    2    0    0  0.00000000000E+00  0.00000000000E+00 -0.29575046695E+03  0.32108109837E+03  0.12499893213E+03 0.  0.
    9000005    1    3    3    0    0  0.16047372978E+01  0.46764360516E+02 -0.25427224990E+03  0.25854372487E+03  0.10000000000E+01 0.  0.
    9000005    1    3    3    0    0 -0.16047372978E+01 -0.46764360516E+02 -0.41478217045E+02  0.62537373509E+02  0.10000000000E+01 0.  0.
<mgrwt>
<rscale>  0 0.12499893E+03</rscale>
<asrwt>0</asrwt>
<pdfrwt beam="1">  1        4 0.19485103E-02 0.12499893E+03</pdfrwt>
<pdfrwt beam="2">  1       -4 0.47448576E-01 0.12499893E+03</pdfrwt>
<totfact> 0.73029458E+03</totfact>
</mgrwt>
</event>
<event>
 5    1  0.3434846E-002  0.1249905E+03  0.7818608E-02  0.1235084E+00
          4   -1    0    0  501    0  0.00000000000E+00  0.00000000000E+00  0.59777545198E+03  0.59777680107E+03  0.12700000000E+01 0.  1.
         -4   -1    0    0    0  501 -0.00000000000E+00 -0.00000000000E+00 -0.64705703949E+01  0.65940261780E+01  0.12700000000E+01 0.  1.
         25    2    1    2    0    0  0.00000000000E+00  0.00000000000E+00  0.59130488159E+03  0.60437082724E+03  0.12499053498E+03 0.  0.
    9000005    1    3    3    0    0  0.40214232936E+02 -0.76632110988E+01  0.67378172839E+02  0.78846226987E+02  0.10000000000E+01 0.  0.
    9000005    1    3    3    0    0 -0.40214232936E+02  0.76632110988E+01  0.52392670875E+03  0.52552460026E+03  0.10000000000E+01 0.  0.
<mgrwt>
<rscale>  0 0.12499053E+03</rscale>
<asrwt>0</asrwt>
<pdfrwt beam="1">  1        4 0.91975052E-01 0.12499053E+03</pdfrwt>
<pdfrwt beam="2">  1       -4 0.10050728E-02 0.12499053E+03</pdfrwt>
<totfact> 0.48602954E+03</totfact>
</mgrwt>
</event>
<event>
 5    1  0.3434846E-002  0.1249942E+03  0.7818608E-02  0.1235078E+00
          4   -1    0    0  501    0  0.00000000000E+00  0.00000000000E+00  0.79793384241E+01  0.80797736160E+01  0.12700000000E+01 0. -1.
         -4   -1    0    0    0  501 -0.00000000000E+00 -0.00000000000E+00 -0.48633749339E+03  0.48633915160E+03  0.12700000000E+01 0. -1.
         25    2    1    2    0    0  0.00000000000E+00  0.00000000000E+00 -0.47835815497E+03  0.49441892522E+03  0.12499419661E+03 0.  0.
    9000005    1    3    3    0    0  0.59332623545E+02  0.17807748868E+02 -0.27165572099E+03  0.27863113050E+03  0.10000000000E+01 0.  0.
    9000005    1    3    3    0    0 -0.59332623545E+02 -0.17807748868E+02 -0.20670243398E+03  0.21578779472E+03  0.10000000000E+01 0.  0.
<mgrwt>
<rscale>  0 0.12499420E+03</rscale>
<asrwt>0</asrwt>
<pdfrwt beam="1">  1        4 0.12354442E-02 0.12499420E+03</pdfrwt>
<pdfrwt beam="2">  1       -4 0.74828983E-01 0.12499420E+03</pdfrwt>
<totfact> 0.56307200E+03</totfact>
</mgrwt>
</event>
<event>
 5    1  0.3434846E-002  0.1250067E+03  0.7818608E-02  0.1235059E+00
         -4   -1    0    0    0  501 -0.00000000000E+00  0.00000000000E+00  0.20844459456E+03  0.20844846342E+03  0.12700000000E+01 0. -1.
          4   -1    0    0  501    0  0.00000000000E+00 -0.00000000000E+00 -0.18716424459E+02  0.18759462800E+02  0.12700000000E+01 0. -1.
         25    2    1    2    0    0  0.00000000000E+00  0.00000000000E+00  0.18972817010E+03  0.22720792622E+03  0.12500665265E+03 0.  0.
    9000005    1    3    3    0    0 -0.92143024708E+01 -0.31587872516E+02 -0.17061717686E+01  0.32963738899E+02  0.10000000000E+01 0.  0.
    9000005    1    3    3    0    0  0.92143024708E+01  0.31587872516E+02  0.19143434187E+03  0.19424418732E+03  0.10000000000E+01 0.  0.
<mgrwt>
<rscale>  0 0.12500665E+03</rscale>
<asrwt>0</asrwt>
<pdfrwt beam="2">  1        4 0.28830583E-02 0.12500665E+03</pdfrwt>
<pdfrwt beam="1">  1       -4 0.32072006E-01 0.12500665E+03</pdfrwt>
<totfact> 0.85727447E+03</totfact>
</mgrwt>
</event>
<event>
 5    1  0.3434846E-002  0.1250029E+03  0.7818608E-02  0.1235065E+00
          4   -1    0    0  501    0  0.00000000000E+00  0.00000000000E+00  0.19665452497E+03  0.19665862578E+03  0.12700000000E+01 0. -1.
         -4   -1    0    0    0  501 -0.00000000000E+00 -0.00000000000E+00 -0.19839825314E+02  0.19880431798E+02  0.12700000000E+01 0. -1.
         25    2    1    2    0    0  0.00000000000E+00  0.00000000000E+00  0.17681469966E+03  0.21653905757E+03  0.12500290173E+03 0.  0.
    9000005    1    3    3    0    0 -0.25635572533E+02 -0.37890214549E+02  0.16215781947E+03  0.16849038356E+03  0.10000000000E+01 0.  0.
    9000005    1    3    3    0    0  0.25635572533E+02  0.37890214549E+02  0.14656880192E+02  0.48048674015E+02  0.10000000000E+01 0.  0.
<mgrwt>
<rscale>  0 0.12500290E+03</rscale>
<asrwt>0</asrwt>
<pdfrwt beam="1">  1        4 0.30257982E-01 0.12500290E+03</pdfrwt>
<pdfrwt beam="2">  1       -4 0.30557198E-02 0.12500290E+03</pdfrwt>
<totfact> 0.87413310E+03</totfact>
</mgrwt>
</event>
<event>
 5    1  0.3434846E-002  0.1249995E+03  0.7818608E-02  0.1235070E+00
         -4   -1    0    0    0  501 -0.00000000000E+00  0.00000000000E+00  0.12088473085E+02  0.12155002325E+02  0.12700000000E+01 0.  1.
          4   -1    0    0  501    0  0.00000000000E+00 -0.00000000000E+00 -0.32218148984E+03  0.32218399292E+03  0.12700000000E+01 0.  1.
         25    2    1    2    0    0  0.00000000000E+00  0.00000000000E+00 -0.31009301675E+03  0.33433899524E+03  0.12499953881E+03 0.  0.
    9000005    1    3    3    0    0 -0.30448602059E+02 -0.47391429525E+02 -0.22742016228E+03  0.23429467593E+03  0.10000000000E+01 0.  0.
    9000005    1    3    3    0    0  0.30448602059E+02  0.47391429525E+02 -0.82672854471E+02  0.10004431931E+03  0.10000000000E+01 0.  0.
<mgrwt>
<rscale>  0 0.12499954E+03</rscale>
<asrwt>0</asrwt>
<pdfrwt beam="2">  1        4 0.49571687E-01 0.12499954E+03</pdfrwt>
<pdfrwt beam="1">  1       -4 0.18650755E-02 0.12499954E+03</pdfrwt>
<totfact> 0.71483265E+03</totfact>
</mgrwt>
</event>
<event>
 5    1  0.3434846E-002  0.1250013E+03  0.7818608E-02  0.1235067E+00
         -4   -1    0    0    0  501 -0.00000000000E+00  0.00000000000E+00  0.81640847695E+03  0.81640946475E+03  0.12700000000E+01 0.  1.
          4   -1    0    0  501    0  0.00000000000E+00 -0.00000000000E+00 -0.46994944761E+01  0.48680743966E+01  0.12700000000E+01 0.  1.
         25    2    1    2    0    0  0.00000000000E+00  0.00000000000E+00  0.81170898247E+03  0.82127753914E+03  0.12500129631E+03 0.  0.
    9000005    1    3    3    0    0 -0.41580080278E+02 -0.39871269570E+02  0.56499733070E+03  0.56792746448E+03  0.10000000000E+01 0.  0.
    9000005    1    3    3    0    0  0.41580080278E+02  0.39871269570E+02  0.24671165177E+03  0.25335007467E+03  0.10000000000E+01 0.  0.
<mgrwt>
<rscale>  0 0.12500130E+03</rscale>
<asrwt>0</asrwt>
<pdfrwt beam="2">  1        4 0.73604380E-03 0.12500130E+03</pdfrwt>
<pdfrwt beam="1">  1       -4 0.12561418E+00 0.12500130E+03</pdfrwt>
<totfact> 0.37331300E+03</totfact>
</mgrwt>
</event>
<event>
 5    1  0.3434846E-002  0.1250029E+03  0.7818608E-02  0.1235065E+00
          4   -1    0    0  501    0  0.00000000000E+00  0.00000000000E+00  0.73989681053E+02  0.74000579743E+02  0.12700000000E+01 0. -1.
         -4   -1    0    0    0  501 -0.00000000000E+00 -0.00000000000E+00 -0.52774508220E+02  0.52789787061E+02  0.12700000000E+01 0. -1.
         25    2    1    2    0    0  0.00000000000E+00  0.00000000000E+00  0.21215172833E+02  0.12679036680E+03  0.12500285419E+03 0.  0.
    9000005    1    3    3    0    0 -0.45356682781E+02  0.42510459277E+02  0.17107069329E+02  0.64482708084E+02  0.10000000000E+01 0.  0.
    9000005    1    3    3    0    0  0.45356682781E+02 -0.42510459277E+02  0.41081035033E+01  0.62307658720E+02  0.10000000000E+01 0.  0.
<mgrwt>
<rscale>  0 0.12500285E+03</rscale>
<asrwt>0</asrwt>
<pdfrwt beam="1">  1        4 0.11385041E-01 0.12500285E+03</pdfrwt>
<pdfrwt beam="2">  1       -4 0.81211688E-02 0.12500285E+03</pdfrwt>
<totfact> 0.10413032E+04</totfact>
</mgrwt>
</event>
<event>
 5    1  0.3434846E-002  0.1250018E+03  0.7818608E-02  0.1235066E+00
          4   -1    0    0  501    0  0.00000000000E+00  0.00000000000E+00  0.12529629375E+02  0.12593828341E+02  0.12700000000E+01 0. -1.
         -4   -1    0    0    0  501 -0.00000000000E+00 -0.00000000000E+00 -0.31090785782E+03  0.31091045167E+03  0.12700000000E+01 0. -1.
         25    2    1    2    0    0  0.00000000000E+00  0.00000000000E+00 -0.29837822845E+03  0.32350428001E+03  0.12500180788E+03 0.  0.
    9000005    1    3    3    0    0 -0.35446527475E+02  0.47990871617E+02 -0.19731353420E+03  0.20613881451E+03  0.10000000000E+01 0.  0.
    9000005    1    3    3    0    0  0.35446527475E+02 -0.47990871617E+02 -0.10106469425E+03  0.11736546550E+03  0.10000000000E+01 0.  0.
<mgrwt>
<rscale>  0 0.12500181E+03</rscale>
<asrwt>0</asrwt>
<pdfrwt beam="1">  1        4 0.19327734E-02 0.12500181E+03</pdfrwt>
<pdfrwt beam="2">  1       -4 0.47837110E-01 0.12500181E+03</pdfrwt>
<totfact> 0.72738355E+03</totfact>
</mgrwt>
</event>
<event>
 5    1  0.3434846E-002  0.1250036E+03  0.7818608E-02  0.1235064E+00
          4   -1    0    0  501    0  0.00000000000E+00  0.00000000000E+00  0.79509204586E+02  0.79519346790E+02  0.12700000000E+01 0. -1.
         -4   -1    0    0    0  501 -0.00000000000E+00 -0.00000000000E+00 -0.49110874231E+02  0.49127292493E+02  0.12700000000E+01 0. -1.
         25    2    1    2    0    0  0.00000000000E+00  0.00000000000E+00  0.30398330355E+02  0.12864663928E+03  0.12500359719E+03 0.  0.
    9000005    1    3    3    0    0  0.62097648703E+02 -0.61469183175E+01  0.18700106299E+02  0.65150568339E+02  0.10000000000E+01 0.  0.
    9000005    1    3    3    0    0 -0.62097648703E+02  0.61469183175E+01  0.11698224056E+02  0.63496070944E+02  0.10000000000E+01 0.  0.
<mgrwt>
<rscale>  0 0.12500360E+03</rscale>
<asrwt>0</asrwt>
<pdfrwt beam="1">  1        4 0.12234228E-01 0.12500360E+03</pdfrwt>
<pdfrwt beam="2">  1       -4 0.75575623E-02 0.12500360E+03</pdfrwt>
<totfact> 0.10372704E+04</totfact>
</mgrwt>
</event>
<event>
 5    1  0.3434846E-002  0.1250016E+03  0.7818608E-02  0.1235067E+00
          4   -1    0    0  501    0  0.00000000000E+00  0.00000000000E+00  0.13544634867E+02  0.13604044754E+02  0.12700000000E+01 0.  1.
         -4   -1    0    0    0  501 -0.00000000000E+00 -0.00000000000E+00 -0.28771372644E+03  0.28771652939E+03  0.12700000000E+01 0.  1.
         25    2    1    2    0    0  0.00000000000E+00  0.00000000000E+00 -0.27416909157E+03  0.30132057414E+03  0.12500159050E+03 0.  0.
    9000005    1    3    3    0    0 -0.86202105317E+01 -0.37409999474E+02 -0.25594937197E+03  0.25881440667E+03  0.10000000000E+01 0.  0.
    9000005    1    3    3    0    0  0.86202105317E+01  0.37409999474E+02 -0.18219719603E+02  0.42506167467E+02  0.10000000000E+01 0.  0.
<mgrwt>
<rscale>  0 0.12500159E+03</rscale>
<asrwt>0</asrwt>
<pdfrwt beam="1">  1        4 0.20885758E-02 0.12500159E+03</pdfrwt>
<pdfrwt beam="2">  1       -4 0.44268431E-01 0.12500159E+03</pdfrwt>
<totfact> 0.75430825E+03</totfact>
</mgrwt>
</event>
<event>
 5    1  0.3434846E-002  0.1250018E+03  0.7818608E-02  0.1235067E+00
         -4   -1    0    0    0  501 -0.00000000000E+00  0.00000000000E+00  0.77210843865E+03  0.77210948313E+03  0.12700000000E+01 0. -1.
          4   -1    0    0  501    0  0.00000000000E+00 -0.00000000000E+00 -0.49785785680E+01  0.51380097857E+01  0.12700000000E+01 0. -1.
         25    2    1    2    0    0  0.00000000000E+00  0.00000000000E+00  0.76712986008E+03  0.77724749291E+03  0.12500177203E+03 0.  0.
    9000005    1    3    3    0    0 -0.95847573206E+01  0.12471756909E+02  0.75962909466E+03  0.75979258600E+03  0.10000000000E+01 0.  0.
    9000005    1    3    3    0    0  0.95847573206E+01 -0.12471756909E+02  0.75007654235E+01  0.17454906910E+02  0.10000000000E+01 0.  0.
<mgrwt>
<rscale>  0 0.12500177E+03</rscale>
<asrwt>0</asrwt>
<pdfrwt beam="2">  1        4 0.77827883E-03 0.12500177E+03</pdfrwt>
<pdfrwt beam="1">  1       -4 0.11879835E+00 0.12500177E+03</pdfrwt>
<totfact> 0.39299297E+03</totfact>
</mgrwt>
</event>
<event>
 5    1  0.3434846E-002  0.1249955E+03  0.7818608E-02  0.1235076E+00
         -4   -1    0    0    0  501 -0.00000000000E+00  0.00000000000E+00  0.21807168857E+02  0.21844118512E+02  0.12700000000E+01 0.  1.
          4   -1    0    0  501    0  0.00000000000E+00 -0.00000000000E+00 -0.17892312687E+03  0.17892763406E+03  0.12700000000E+01 0.  1.
         25    2    1    2    0    0  0.00000000000E+00  0.00000000000E+00 -0.15711595802E+03  0.20077175257E+03  0.12499548939E+03 0.  0.
    9000005    1    3    3    0    0 -0.22885716450E+02 -0.14913941021E+02 -0.16883316693E+03  0.17103163423E+03  0.10000000000E+01 0.  0.
    9000005    1    3    3    0    0  0.22885716450E+02  0.14913941021E+02  0.11717208909E+02  0.29740118339E+02  0.10000000000E+01 0.  0.
<mgrwt>
<rscale>  0 0.12499549E+03</rscale>
<asrwt>0</asrwt>
<pdfrwt beam="2">  1        4 0.27529823E-01 0.12499549E+03</pdfrwt>
<pdfrwt beam="1">  1       -4 0.33581382E-02 0.12499549E+03</pdfrwt>
<totfact> 0.90014592E+03</totfact>
</mgrwt>
</event>
<event>
 5    1  0.3434846E-002  0.1249987E+03  0.7818608E-02  0.1235071E+00
          4   -1    0    0  501    0  0.00000000000E+00  0.00000000000E+00  0.95485284179E+02  0.95493729610E+02  0.12700000000E+01 0. -1.
         -4   -1    0    0    0  501 -0.00000000000E+00 -0.00000000000E+00 -0.40888473057E+02  0.40908191465E+02  0.12700000000E+01 0. -1.
         25    2    1    2    0    0  0.00000000000E+00  0.00000000000E+00  0.54596811122E+02  0.13640192107E+03  0.12499868915E+03 0.  0.
    9000005    1    3    3    0    0  0.57020510659E+02  0.79597484315E+01  0.53814809366E+02  0.78814528725E+02  0.10000000000E+01 0.  0.
    9000005    1    3    3    0    0 -0.57020510659E+02 -0.79597484315E+01  0.78200175517E+00  0.57587392350E+02  0.10000000000E+01 0.  0.
<mgrwt>
<rscale>  0 0.12499869E+03</rscale>
<asrwt>0</asrwt>
<pdfrwt beam="1">  1        4 0.14692210E-01 0.12499869E+03</pdfrwt>
<pdfrwt beam="2">  1       -4 0.62927008E-02 0.12499869E+03</pdfrwt>
<totfact> 0.10208908E+04</totfact>
</mgrwt>
</event>
<event>
 5    1  0.3434846E-002  0.1249954E+03  0.7818608E-02  0.1235076E+00
          4   -1    0    0  501    0  0.00000000000E+00  0.00000000000E+00  0.65593493183E+01  0.66811648295E+01  0.12700000000E+01 0.  1.
         -4   -1    0    0    0  501 -0.00000000000E+00 -0.00000000000E+00 -0.58987897619E+03  0.58988034333E+03  0.12700000000E+01 0.  1.
         25    2    1    2    0    0  0.00000000000E+00  0.00000000000E+00 -0.58331962687E+03  0.59656150816E+03  0.12499538363E+03 0.  0.
    9000005    1    3    3    0    0 -0.25974393268E+02 -0.17101768930E+02 -0.32973182681E+02  0.45336192852E+02  0.10000000000E+01 0.  0.
    9000005    1    3    3    0    0  0.25974393268E+02  0.17101768930E+02 -0.55034644419E+03  0.55122531531E+03  0.10000000000E+01 0.  0.
<mgrwt>
<rscale>  0 0.12499538E+03</rscale>
<asrwt>0</asrwt>
<pdfrwt beam="1">  1        4 0.10186067E-02 0.12499538E+03</pdfrwt>
<pdfrwt beam="2">  1       -4 0.90760046E-01 0.12499538E+03</pdfrwt>
<totfact> 0.49090366E+03</totfact>
</mgrwt>
</event>
<event>
 5    1  0.3434846E-002  0.1249982E+03  0.7818608E-02  0.1235072E+00
         -4   -1    0    0    0  501 -0.00000000000E+00  0.00000000000E+00  0.31324961884E+02  0.31350695957E+02  0.12700000000E+01 0.  1.
          4   -1    0    0  501    0  0.00000000000E+00 -0.00000000000E+00 -0.12461701254E+03  0.12462348380E+03  0.12700000000E+01 0.  1.
         25    2    1    2    0    0  0.00000000000E+00  0.00000000000E+00 -0.93292050657E+02  0.15597417976E+03  0.12499815213E+03 0.  0.
    9000005    1    3    3    0    0  0.44580383526E+02 -0.58835609359E+01  0.75025068410E+01  0.45599501023E+02  0.10000000000E+01 0.  0.
    9000005    1    3    3    0    0 -0.44580383526E+02  0.58835609359E+01 -0.10079455750E+03  0.11037467874E+03  0.10000000000E+01 0.  0.
<mgrwt>
<rscale>  0 0.12499815E+03</rscale>
<asrwt>0</asrwt>
<pdfrwt beam="2">  1        4 0.19174325E-01 0.12499815E+03</pdfrwt>
<pdfrwt beam="1">  1       -4 0.48217023E-02 0.12499815E+03</pdfrwt>
<totfact> 0.98128672E+03</totfact>
</mgrwt>
</event>
<event>
 5    1  0.3434846E-002  0.1250015E+03  0.7818608E-02  0.1235067E+00
          4   -1    0    0  501    0  0.00000000000E+00  0.00000000000E+00  0.32518339031E+02  0.32543129434E+02  0.12700000000E+01 0.  1.
         -4   -1    0    0    0  501 -0.00000000000E+00 -0.00000000000E+00 -0.12005349946E+03  0.12006021670E+03  0.12700000000E+01 0.  1.
         25    2    1    2    0    0  0.00000000000E+00  0.00000000000E+00 -0.87535160430E+02  0.15260334613E+03  0.12500150774E+03 0.  0.
    9000005    1    3    3    0    0  0.50558246481E+02  0.29079960690E+01 -0.88469168250E+02  0.10194305498E+03  0.10000000000E+01 0.  0.
    9000005    1    3    3    0    0 -0.50558246481E+02 -0.29079960690E+01  0.93400782004E+00  0.50660291146E+02  0.10000000000E+01 0.  0.
<mgrwt>
<rscale>  0 0.12500151E+03</rscale>
<asrwt>0</asrwt>
<pdfrwt beam="1">  1        4 0.50052451E-02 0.12500151E+03</pdfrwt>
<pdfrwt beam="2">  1       -4 0.18472193E-01 0.12500151E+03</pdfrwt>
<totfact> 0.98783918E+03</totfact>
</mgrwt>
</event>
<event>
 5    1  0.3434846E-002  0.1249931E+03  0.7818608E-02  0.1235080E+00
         -4   -1    0    0    0  501 -0.00000000000E+00  0.00000000000E+00  0.26489444501E+03  0.26489748942E+03  0.12700000000E+01 0. -1.
          4   -1    0    0  501    0  0.00000000000E+00 -0.00000000000E+00 -0.14714340783E+02  0.14769046167E+02  0.12700000000E+01 0. -1.
         25    2    1    2    0    0  0.00000000000E+00  0.00000000000E+00  0.25018010423E+03  0.27966653558E+03  0.12499314610E+03 0.  0.
    9000005    1    3    3    0    0 -0.45692834570E+02  0.27150341474E+02  0.19861506485E+03  0.20560622597E+03  0.10000000000E+01 0.  0.
    9000005    1    3    3    0    0  0.45692834570E+02 -0.27150341474E+02  0.51565039379E+02  0.74060309609E+02  0.10000000000E+01 0.  0.
<mgrwt>
<rscale>  0 0.12499315E+03</rscale>
<asrwt>0</asrwt>
<pdfrwt beam="2">  1        4 0.22681871E-02 0.12499315E+03</pdfrwt>
<pdfrwt beam="1">  1       -4 0.40757432E-01 0.12499315E+03</pdfrwt>
<totfact> 0.78234260E+03</totfact>
</mgrwt>
</event>
<event>
 5    1  0.3434846E-002  0.1249943E+03  0.7818608E-02  0.1235078E+00
         -4   -1    0    0    0  501 -0.00000000000E+00  0.00000000000E+00  0.16362632419E+02  0.16411844494E+02  0.12700000000E+01 0. -1.
          4   -1    0    0  501    0  0.00000000000E+00 -0.00000000000E+00 -0.23829880059E+03  0.23830218477E+03  0.12700000000E+01 0. -1.
         25    2    1    2    0    0  0.00000000000E+00  0.00000000000E+00 -0.22193616817E+03  0.25471402926E+03  0.12499429570E+03 0.  0.
    9000005    1    3    3    0    0 -0.18048003719E+02 -0.59799547354E+02 -0.10733576414E+03  0.12419211958E+03  0.10000000000E+01 0.  0.
    9000005    1    3    3    0    0  0.18048003719E+02  0.59799547354E+02 -0.11460040404E+03  0.13052190968E+03  0.10000000000E+01 0.  0.
<mgrwt>
<rscale>  0 0.12499430E+03</rscale>
<asrwt>0</asrwt>
<pdfrwt beam="2">  1        4 0.36665397E-01 0.12499430E+03</pdfrwt>
<pdfrwt beam="1">  1       -4 0.25213741E-02 0.12499430E+03</pdfrwt>
<totfact> 0.81664016E+03</totfact>
</mgrwt>
</event>
<event>
 5    1  0.3434846E-002  0.1249987E+03  0.7818608E-02  0.1235071E+00
          4   -1    0    0  501    0  0.00000000000E+00  0.00000000000E+00  0.55878121514E+02  0.55892551954E+02  0.12700000000E+01 0. -1.
         -4   -1    0    0    0  501 -0.00000000000E+00 -0.00000000000E+00 -0.69875976690E+02  0.69887516899E+02  0.12700000000E+01 0. -1.
         25    2    1    2    0    0  0.00000000000E+00  0.00000000000E+00 -0.13997855176E+02  0.12578006885E+03  0.12499874308E+03 0.  0.
    9000005    1    3    3    0    0  0.12474881403E+01 -0.20431345058E+02 -0.66411833761E+02  0.69501998180E+02  0.10000000000E+01 0.  0.
    9000005    1    3    3    0    0 -0.12474881403E+01  0.20431345058E+02  0.52413978585E+02  0.56278070673E+02  0.10000000000E+01 0.  0.
<mgrwt>
<rscale>  0 0.12499874E+03</rscale>
<asrwt>0</asrwt>
<pdfrwt beam="1">  1        4 0.85986319E-02 0.12499874E+03</pdfrwt>
<pdfrwt beam="2">  1       -4 0.10752148E-01 0.12499874E+03</pdfrwt>
<totfact> 0.10436079E+04</totfact>
</mgrwt>
</event>
<event>
 5    1  0.3434846E-002  0.1250038E+03  0.7818608E-02  0.1235063E+00
         -4   -1    0    0    0  501 -0.00000000000E+00  0.00000000000E+00  0.71975053124E+01  0.73086922716E+01  0.12700000000E+01 0. -1.
          4   -1    0    0  501    0  0.00000000000E+00 -0.00000000000E+00 -0.53848397867E+03  0.53848547630E+03  0.12700000000E+01 0. -1.
         25    2    1    2    0    0  0.00000000000E+00  0.00000000000E+00 -0.53128647336E+03  0.54579416857E+03  0.12500383063E+03 0.  0.
    9000005    1    3    3    0    0 -0.59743352918E+02  0.38841768428E+01 -0.34388686193E+03  0.34906092427E+03  0.10000000000E+01 0.  0.
    9000005    1    3    3    0    0  0.59743352918E+02 -0.38841768428E+01 -0.18739961143E+03  0.19673324430E+03  0.10000000000E+01 0.  0.
<mgrwt>
<rscale>  0 0.12500383E+03</rscale>
<asrwt>0</asrwt>
<pdfrwt beam="2">  1        4 0.82852326E-01 0.12500383E+03</pdfrwt>
<pdfrwt beam="1">  1       -4 0.11159770E-02 0.12500383E+03</pdfrwt>
<totfact> 0.52474098E+03</totfact>
</mgrwt>
</event>
<event>
 5    1  0.3434846E-002  0.1250175E+03  0.7818608E-02  0.1235042E+00
         -4   -1    0    0    0  501 -0.00000000000E+00  0.00000000000E+00  0.31159408227E+03  0.31159667040E+03  0.12700000000E+01 0. -1.
          4   -1    0    0  501    0  0.00000000000E+00 -0.00000000000E+00 -0.12505040940E+02  0.12569365494E+02  0.12700000000E+01 0. -1.
         25    2    1    2    0    0  0.00000000000E+00  0.00000000000E+00  0.29908904133E+03  0.32416603589E+03  0.12501745552E+03 0.  0.
    9000005    1    3    3    0    0  0.62305860177E+02 -0.49239733479E+01  0.15025614845E+03  0.16273959528E+03  0.10000000000E+01 0.  0.
    9000005    1    3    3    0    0 -0.62305860177E+02  0.49239733479E+01  0.14883289288E+03  0.16142644061E+03  0.10000000000E+01 0.  0.
<mgrwt>
<rscale>  0 0.12501746E+03</rscale>
<asrwt>0</asrwt>
<pdfrwt beam="2">  1        4 0.19289999E-02 0.12501746E+03</pdfrwt>
<pdfrwt beam="1">  1       -4 0.47942691E-01 0.12501746E+03</pdfrwt>
<totfact> 0.72635256E+03</totfact>
</mgrwt>
</event>
<event>
 5    1  0.3434846E-002  0.1249991E+03  0.7818608E-02  0.1235071E+00
          4   -1    0    0  501    0  0.00000000000E+00  0.00000000000E+00  0.15138530439E+03  0.15139063143E+03  0.12700000000E+01 0. -1.
         -4   -1    0    0    0  501 -0.00000000000E+00 -0.00000000000E+00 -0.25781600194E+02  0.25812861301E+02  0.12700000000E+01 0. -1.
         25    2    1    2    0    0  0.00000000000E+00  0.00000000000E+00  0.12560370420E+03  0.17720349274E+03  0.12499914931E+03 0.  0.
    9000005    1    3    3    0    0  0.48610127970E+02  0.38785492818E+02  0.71533606437E+02  0.94790905916E+02  0.10000000000E+01 0.  0.
    9000005    1    3    3    0    0 -0.48610127970E+02 -0.38785492818E+02  0.54070097762E+02  0.82412586820E+02  0.10000000000E+01 0.  0.
<mgrwt>
<rscale>  0 0.12499915E+03</rscale>
<asrwt>0</asrwt>
<pdfrwt beam="1">  1        4 0.23292861E-01 0.12499915E+03</pdfrwt>
<pdfrwt beam="2">  1       -4 0.39692145E-02 0.12499915E+03</pdfrwt>
<totfact> 0.94124615E+03</totfact>
</mgrwt>
</event>
<event>
 5    1  0.3434846E-002  0.1250032E+03  0.7818608E-02  0.1235064E+00
         -4   -1    0    0    0  501 -0.00000000000E+00  0.00000000000E+00  0.32853363077E+03  0.32853608545E+03  0.12700000000E+01 0.  1.
          4   -1    0    0  501    0  0.00000000000E+00 -0.00000000000E+00 -0.11854136586E+02  0.11921973587E+02  0.12700000000E+01 0.  1.
         25    2    1    2    0    0  0.00000000000E+00  0.00000000000E+00  0.31667949418E+03  0.34045805904E+03  0.12500315168E+03 0.  0.
    9000005    1    3    3    0    0  0.15206955404E+02 -0.44109671911E+02  0.27157493624E+03  0.27555554910E+03  0.10000000000E+01 0.  0.
    9000005    1    3    3    0    0 -0.15206955404E+02  0.44109671911E+02  0.45104557940E+02  0.64902509934E+02  0.10000000000E+01 0.  0.
<mgrwt>
<rscale>  0 0.12500315E+03</rscale>
<asrwt>0</asrwt>
<pdfrwt beam="2">  1        4 0.18291205E-02 0.12500315E+03</pdfrwt>
<pdfrwt beam="1">  1       -4 0.50549039E-01 0.12500315E+03</pdfrwt>
<totfact> 0.70782263E+03</totfact>
</mgrwt>
</event>
<event>
 5    1  0.3434846E-002  0.1250001E+03  0.7818608E-02  0.1235069E+00
          4   -1    0    0  501    0  0.00000000000E+00  0.00000000000E+00  0.54030520063E+03  0.54030669321E+03  0.12700000000E+01 0.  1.
         -4   -1    0    0    0  501 -0.00000000000E+00 -0.00000000000E+00 -0.71724318335E+01  0.72840015381E+01  0.12700000000E+01 0.  1.
         25    2    1    2    0    0  0.00000000000E+00  0.00000000000E+00  0.53313276879E+03  0.54759069475E+03  0.12500007924E+03 0.  0.
    9000005    1    3    3    0    0  0.39428594943E+02 -0.14341624440E+02  0.46945385816E+03  0.47132602435E+03  0.10000000000E+01 0.  0.
    9000005    1    3    3    0    0 -0.39428594943E+02  0.14341624440E+02  0.63678910638E+02  0.76264670397E+02  0.10000000000E+01 0.  0.
<mgrwt>
<rscale>  0 0.12500008E+03</rscale>
<asrwt>0</asrwt>
<pdfrwt beam="1">  1        4 0.83132575E-01 0.12500008E+03</pdfrwt>
<pdfrwt beam="2">  1       -4 0.11121481E-02 0.12500008E+03</pdfrwt>
<totfact> 0.52352180E+03</totfact>
</mgrwt>
</event>
<event>
 5    1  0.3434846E-002  0.1249990E+03  0.7818608E-02  0.1235071E+00
          4   -1    0    0  501    0  0.00000000000E+00  0.00000000000E+00  0.12682124900E+02  0.12745555773E+02  0.12700000000E+01 0. -1.
         -4   -1    0    0    0  501 -0.00000000000E+00 -0.00000000000E+00 -0.30717411133E+03  0.30717673670E+03  0.12700000000E+01 0. -1.
         25    2    1    2    0    0  0.00000000000E+00  0.00000000000E+00 -0.29449198643E+03  0.31992229247E+03  0.12499897260E+03 0.  0.
    9000005    1    3    3    0    0 -0.12878764915E+01 -0.44376197688E+02 -0.34682449404E+02  0.56345166996E+02  0.10000000000E+01 0.  0.
    9000005    1    3    3    0    0  0.12878764915E+01  0.44376197688E+02 -0.25980953702E+03  0.26357712548E+03  0.10000000000E+01 0.  0.
<mgrwt>
<rscale>  0 0.12499897E+03</rscale>
<asrwt>0</asrwt>
<pdfrwt beam="1">  1        4 0.19561776E-02 0.12499897E+03</pdfrwt>
<pdfrwt beam="2">  1       -4 0.47262631E-01 0.12499897E+03</pdfrwt>
<totfact> 0.73167037E+03</totfact>
</mgrwt>
</event>
<event>
 5    1  0.3434846E-002  0.1250005E+03  0.7818608E-02  0.1235069E+00
          4   -1    0    0  501    0  0.00000000000E+00  0.00000000000E+00  0.15288078560E+02  0.15340738119E+02  0.12700000000E+01 0.  1.
         -4   -1    0    0    0  501 -0.00000000000E+00 -0.00000000000E+00 -0.25501790489E+03  0.25502106720E+03  0.12700000000E+01 0.  1.
         25    2    1    2    0    0  0.00000000000E+00  0.00000000000E+00 -0.23972982633E+03  0.27036180532E+03  0.12500046457E+03 0.  0.
    9000005    1    3    3    0    0 -0.56915338258E+02  0.20667105040E+02 -0.86441908871E+02  0.10554472308E+03  0.10000000000E+01 0.  0.
    9000005    1    3    3    0    0  0.56915338258E+02 -0.20667105040E+02 -0.15328791746E+03  0.16481708225E+03  0.10000000000E+01 0.  0.
<mgrwt>
<rscale>  0 0.12500046E+03</rscale>
<asrwt>0</asrwt>
<pdfrwt beam="1">  1        4 0.23563063E-02 0.12500046E+03</pdfrwt>
<pdfrwt beam="2">  1       -4 0.39237815E-01 0.12500046E+03</pdfrwt>
<totfact> 0.79472746E+03</totfact>
</mgrwt>
</event>
<event>
 5    1  0.3434846E-002  0.1249997E+03  0.7818608E-02  0.1235070E+00
         -4   -1    0    0    0  501 -0.00000000000E+00  0.00000000000E+00  0.28749329368E+02  0.28777366786E+02  0.12700000000E+01 0. -1.
          4   -1    0    0  501    0  0.00000000000E+00 -0.00000000000E+00 -0.13577485174E+03  0.13578079123E+03  0.12700000000E+01 0. -1.
         25    2    1    2    0    0  0.00000000000E+00  0.00000000000E+00 -0.10702552238E+03  0.16455815801E+03  0.12499969971E+03 0.  0.
    9000005    1    3    3    0    0 -0.37944859811E+02 -0.48519840176E+02 -0.67397849899E+02  0.91309678829E+02  0.10000000000E+01 0.  0.
    9000005    1    3    3    0    0  0.37944859811E+02  0.48519840176E+02 -0.39627672478E+02  0.73248479184E+02  0.10000000000E+01 0.  0.
<mgrwt>
<rscale>  0 0.12499970E+03</rscale>
<asrwt>0</asrwt>
<pdfrwt beam="2">  1        4 0.20891052E-01 0.12499970E+03</pdfrwt>
<pdfrwt beam="1">  1       -4 0.44255874E-02 0.12499970E+03</pdfrwt>
<totfact> 0.96471786E+03</totfact>
</mgrwt>
</event>
<event>
 5    1  0.3434846E-002  0.1250007E+03  0.7818608E-02  0.1235068E+00
         -4   -1    0    0    0  501 -0.00000000000E+00  0.00000000000E+00  0.48101298733E+02  0.48118061472E+02  0.12700000000E+01 0. -1.
          4   -1    0    0  501    0  0.00000000000E+00 -0.00000000000E+00 -0.81173853550E+02  0.81183787791E+02  0.12700000000E+01 0. -1.
         25    2    1    2    0    0  0.00000000000E+00  0.00000000000E+00 -0.33072554816E+02  0.12930184926E+03  0.12500069736E+03 0.  0.
    9000005    1    3    3    0    0  0.30554612177E+01  0.49770232947E+02 -0.55500443596E+02  0.74617097037E+02  0.10000000000E+01 0.  0.
    9000005    1    3    3    0    0 -0.30554612177E+01 -0.49770232947E+02  0.22427888780E+02  0.54684752226E+02  0.10000000000E+01 0.  0.
<mgrwt>
<rscale>  0 0.12500070E+03</rscale>
<asrwt>0</asrwt>
<pdfrwt beam="2">  1        4 0.12490339E-01 0.12500070E+03</pdfrwt>
<pdfrwt beam="1">  1       -4 0.74022534E-02 0.12500070E+03</pdfrwt>
<totfact> 0.10359302E+04</totfact>
</mgrwt>
</event>
<event>
 5    1  0.3434846E-002  0.1250056E+03  0.7818608E-02  0.1235060E+00
         -4   -1    0    0    0  501 -0.00000000000E+00  0.00000000000E+00  0.24150144009E+03  0.24150477938E+03  0.12700000000E+01 0. -1.
          4   -1    0    0  501    0  0.00000000000E+00 -0.00000000000E+00 -0.16147924098E+02  0.16197788511E+02  0.12700000000E+01 0. -1.
         25    2    1    2    0    0  0.00000000000E+00  0.00000000000E+00  0.22535351599E+03  0.25770256789E+03  0.12500562519E+03 0.  0.
    9000005    1    3    3    0    0 -0.53186919480E+02  0.29190574052E+02  0.14357654693E+03  0.15587226451E+03  0.10000000000E+01 0.  0.
    9000005    1    3    3    0    0  0.53186919480E+02 -0.29190574052E+02  0.81776969064E+02  0.10183030338E+03  0.10000000000E+01 0.  0.
<mgrwt>
<rscale>  0 0.12500563E+03</rscale>
<asrwt>0</asrwt>
<pdfrwt beam="2">  1        4 0.24883887E-02 0.12500563E+03</pdfrwt>
<pdfrwt beam="1">  1       -4 0.37158159E-01 0.12500563E+03</pdfrwt>
<totfact> 0.81219385E+03</totfact>
</mgrwt>
</event>
<event>
 5    1  0.3434846E-002  0.1249995E+03  0.7818608E-02  0.1235070E+00
          4   -1    0    0  501    0  0.00000000000E+00  0.00000000000E+00  0.75677380432E+01  0.76735623468E+01  0.12700000000E+01 0. -1.
         -4   -1    0    0    0  501 -0.00000000000E+00 -0.00000000000E+00 -0.51247641784E+03  0.51247799147E+03  0.12700000000E+01 0. -1.
         25    2    1    2    0    0  0.00000000000E+00  0.00000000000E+00 -0.50490867980E+03  0.52015155382E+03  0.12499945602E+03 0.  0.
    9000005    1    3    3    0    0  0.54654140888E+02  0.26888137865E+02 -0.31058792605E+03  0.31650577701E+03  0.10000000000E+01 0.  0.
    9000005    1    3    3    0    0 -0.54654140888E+02 -0.26888137865E+02 -0.19432075375E+03  0.20364577681E+03  0.10000000000E+01 0.  0.
<mgrwt>
<rscale>  0 0.12499946E+03</rscale>
<asrwt>0</asrwt>
<pdfrwt beam="1">  1        4 0.11725292E-02 0.12499946E+03</pdfrwt>
<pdfrwt beam="2">  1       -4 0.78850760E-01 0.12499946E+03</pdfrwt>
<totfact> 0.54334725E+03</totfact>
</mgrwt>
</event>
<event>
 4    1  0.3434846E-002  0.1252144E+03  0.7818608E-02  0.1234735E+00
         -4   -1    0    0    0  501 -0.00000000000E+00  0.00000000000E+00  0.38040173828E+02  0.38061367879E+02  0.12700000000E+01 0.  1.
          4   -1    0    0  501    0  0.00000000000E+00 -0.00000000000E+00 -0.10298620822E+03  0.10299403859E+03  0.12700000000E+01 0.  1.
    9000005    1    1    2    0    0 -0.46968680968E+02 -0.40856613996E+02 -0.39889207836E+02  0.73942334294E+02  0.10000000000E+01 0.  0.
    9000005    1    1    2    0    0  0.46968680968E+02  0.40856613996E+02 -0.25056826561E+02  0.67113072172E+02  0.10000000000E+01 0.  0.
<mgrwt>
<rscale>  0 0.12521438E+03</rscale>
<asrwt>0</asrwt>
<pdfrwt beam="2">  1        4 0.15846265E-01 0.12521438E+03</pdfrwt>
<pdfrwt beam="1">  1       -4 0.58545671E-02 0.12521438E+03</pdfrwt>
<totfact> 0.10063081E+04</totfact>
</mgrwt>
</event>
<event>
 5    1  0.3434846E-002  0.1250034E+03  0.7818608E-02  0.1235064E+00
          4   -1    0    0  501    0  0.00000000000E+00  0.00000000000E+00  0.66288338490E+03  0.66288460148E+03  0.12700000000E+01 0.  1.
         -4   -1    0    0    0  501 -0.00000000000E+00 -0.00000000000E+00 -0.58234806938E+01  0.59603546364E+01  0.12700000000E+01 0.  1.
         25    2    1    2    0    0  0.00000000000E+00  0.00000000000E+00  0.65705990421E+03  0.66884495612E+03  0.12500343037E+03 0.  0.
    9000005    1    3    3    0    0  0.19955896671E+02  0.48963234328E+02  0.15027918097E+03  0.15931248652E+03  0.10000000000E+01 0.  0.
    9000005    1    3    3    0    0 -0.19955896671E+02 -0.48963234328E+02  0.50678072324E+03  0.50953246960E+03  0.10000000000E+01 0.  0.
<mgrwt>
<rscale>  0 0.12500343E+03</rscale>
<asrwt>0</asrwt>
<pdfrwt beam="1">  1        4 0.10199265E+00 0.12500343E+03</pdfrwt>
<pdfrwt beam="2">  1       -4 0.90654272E-03 0.12500343E+03</pdfrwt>
<totfact> 0.44779761E+03</totfact>
</mgrwt>
</event>
<event>
 5    1  0.3434846E-002  0.1249899E+03  0.7818608E-02  0.1235085E+00
         -4   -1    0    0    0  501 -0.00000000000E+00  0.00000000000E+00  0.27492316485E+03  0.27492609820E+03  0.12700000000E+01 0. -1.
          4   -1    0    0  501    0  0.00000000000E+00 -0.00000000000E+00 -0.14174828895E+02  0.14231608279E+02  0.12700000000E+01 0. -1.
         25    2    1    2    0    0  0.00000000000E+00  0.00000000000E+00  0.26074833596E+03  0.28915770648E+03  0.12498993764E+03 0.  0.
    9000005    1    3    3    0    0 -0.53389026689E+02 -0.12344214230E+02  0.19984902748E+03  0.20722789769E+03  0.10000000000E+01 0.  0.
    9000005    1    3    3    0    0  0.53389026689E+02  0.12344214230E+02  0.60899308480E+02  0.81929808794E+02  0.10000000000E+01 0.  0.
<mgrwt>
<rscale>  0 0.12498994E+03</rscale>
<asrwt>0</asrwt>
<pdfrwt beam="2">  1        4 0.21853359E-02 0.12498994E+03</pdfrwt>
<pdfrwt beam="1">  1       -4 0.42300471E-01 0.12498994E+03</pdfrwt>
<totfact> 0.76996523E+03</totfact>
</mgrwt>
</event>
<event>
 5    1  0.3434846E-002  0.1249919E+03  0.7818608E-02  0.1235082E+00
         -4   -1    0    0    0  501 -0.00000000000E+00  0.00000000000E+00  0.20788703802E+03  0.20789091725E+03  0.12700000000E+01 0. -1.
          4   -1    0    0  501    0  0.00000000000E+00 -0.00000000000E+00 -0.18762282545E+02  0.18805215933E+02  0.12700000000E+01 0. -1.
         25    2    1    2    0    0  0.00000000000E+00  0.00000000000E+00  0.18912475547E+03  0.22669613319E+03  0.12499185441E+03 0.  0.
    9000005    1    3    3    0    0 -0.30863592183E+02  0.51644388616E+02  0.63941840495E+02  0.87802409784E+02  0.10000000000E+01 0.  0.
    9000005    1    3    3    0    0  0.30863592183E+02 -0.51644388616E+02  0.12518291498E+03  0.13889372340E+03  0.10000000000E+01 0.  0.
<mgrwt>
<rscale>  0 0.12499185E+03</rscale>
<asrwt>0</asrwt>
<pdfrwt beam="2">  1        4 0.28901061E-02 0.12499185E+03</pdfrwt>
<pdfrwt beam="1">  1       -4 0.31986221E-01 0.12499185E+03</pdfrwt>
<totfact> 0.85835107E+03</totfact>
</mgrwt>
</event>
<event>
 5    1  0.3434846E-002  0.1250066E+03  0.7818608E-02  0.1235059E+00
         -4   -1    0    0    0  501 -0.00000000000E+00  0.00000000000E+00  0.42263015530E+01  0.44129949940E+01  0.12700000000E+01 0.  1.
          4   -1    0    0  501    0  0.00000000000E+00 -0.00000000000E+00 -0.90420681328E+03  0.90420770516E+03  0.12700000000E+01 0.  1.
         25    2    1    2    0    0  0.00000000000E+00  0.00000000000E+00 -0.89998051172E+03  0.90862070016E+03  0.12500662091E+03 0.  0.
    9000005    1    3    3    0    0  0.42366137009E+02 -0.50126523004E+01 -0.11804224334E+03  0.12551887293E+03  0.10000000000E+01 0.  0.
    9000005    1    3    3    0    0 -0.42366137009E+02  0.50126523004E+01 -0.78193826838E+03  0.78310182723E+03  0.10000000000E+01 0.  0.
<mgrwt>
<rscale>  0 0.12500662E+03</rscale>
<asrwt>0</asrwt>
<pdfrwt beam="2">  1        4 0.13912302E+00 0.12500662E+03</pdfrwt>
<pdfrwt beam="1">  1       -4 0.66463060E-03 0.12500662E+03</pdfrwt>
<totfact> 0.33827114E+03</totfact>
</mgrwt>
</event>
<event>
 5    1  0.3434846E-002  0.1249979E+03  0.7818608E-02  0.1235073E+00
         -4   -1    0    0    0  501 -0.00000000000E+00  0.00000000000E+00  0.32353269589E+02  0.32378186378E+02  0.12700000000E+01 0.  1.
          4   -1    0    0  501    0  0.00000000000E+00 -0.00000000000E+00 -0.12065854829E+03  0.12066523184E+03  0.12700000000E+01 0.  1.
         25    2    1    2    0    0  0.00000000000E+00  0.00000000000E+00 -0.88305278703E+02  0.15304341822E+03  0.12499786244E+03 0.  0.
    9000005    1    3    3    0    0 -0.20585513332E+02 -0.30114860262E+02  0.17970608479E+02  0.40676909136E+02  0.10000000000E+01 0.  0.
    9000005    1    3    3    0    0  0.20585513332E+02  0.30114860262E+02 -0.10627588718E+03  0.11236650909E+03  0.10000000000E+01 0.  0.
<mgrwt>
<rscale>  0 0.12499786E+03</rscale>
<asrwt>0</asrwt>
<pdfrwt beam="2">  1        4 0.18565284E-01 0.12499786E+03</pdfrwt>
<pdfrwt beam="1">  1       -4 0.49798570E-02 0.12499786E+03</pdfrwt>
<totfact> 0.98705208E+03</totfact>
</mgrwt>
</event>
<event>
 5    1  0.3434846E-002  0.1250029E+03  0.7818608E-02  0.1235065E+00
          4   -1    0    0  501    0  0.00000000000E+00  0.00000000000E+00  0.16711944795E+03  0.16712427347E+03  0.12700000000E+01 0. -1.
         -4   -1    0    0    0  501 -0.00000000000E+00 -0.00000000000E+00 -0.23352653458E+02  0.23387161511E+02  0.12700000000E+01 0. -1.
         25    2    1    2    0    0  0.00000000000E+00  0.00000000000E+00  0.14376679449E+03  0.19051143498E+03  0.12500286261E+03 0.  0.
    9000005    1    3    3    0    0  0.21441270972E+02 -0.44266723596E+02  0.13129919179E+02  0.50918225582E+02  0.10000000000E+01 0.  0.
    9000005    1    3    3    0    0 -0.21441270972E+02  0.44266723596E+02  0.13063687531E+03  0.13959320940E+03  0.10000000000E+01 0.  0.
<mgrwt>
<rscale>  0 0.12500286E+03</rscale>
<asrwt>0</asrwt>
<pdfrwt beam="1">  1        4 0.25713709E-01 0.12500286E+03</pdfrwt>
<pdfrwt beam="2">  1       -4 0.35957417E-02 0.12500286E+03</pdfrwt>
<totfact> 0.91752520E+03</totfact>
</mgrwt>
</event>
<event>
 5    1  0.3434846E-002  0.1249919E+03  0.7818608E-02  0.1235082E+00
          4   -1    0    0  501    0  0.00000000000E+00  0.00000000000E+00  0.15945076307E+03  0.15945582066E+03  0.12700000000E+01 0. -1.
         -4   -1    0    0    0  501 -0.00000000000E+00 -0.00000000000E+00 -0.24473071373E+02  0.24506001763E+02  0.12700000000E+01 0. -1.
         25    2    1    2    0    0  0.00000000000E+00  0.00000000000E+00  0.13497769169E+03  0.18396182242E+03  0.12499189916E+03 0.  0.
    9000005    1    3    3    0    0  0.35403233708E+02  0.41788069669E+02  0.23209928307E+02  0.59492289380E+02  0.10000000000E+01 0.  0.
    9000005    1    3    3    0    0 -0.35403233708E+02 -0.41788069669E+02  0.11176776339E+03  0.12446953304E+03  0.10000000000E+01 0.  0.
<mgrwt>
<rscale>  0 0.12499190E+03</rscale>
<asrwt>0</asrwt>
<pdfrwt beam="1">  1        4 0.24533809E-01 0.12499190E+03</pdfrwt>
<pdfrwt beam="2">  1       -4 0.37680100E-02 0.12499190E+03</pdfrwt>
<totfact> 0.92925555E+03</totfact>
</mgrwt>
</event>
<event>
 5    1  0.3434846E-002  0.1249958E+03  0.7818608E-02  0.1235076E+00
         -4   -1    0    0    0  501 -0.00000000000E+00  0.00000000000E+00  0.18958647347E+02  0.19001137051E+02  0.12700000000E+01 0.  1.
          4   -1    0    0  501    0  0.00000000000E+00 -0.00000000000E+00 -0.20575178811E+03  0.20575570760E+03  0.12700000000E+01 0.  1.
         25    2    1    2    0    0  0.00000000000E+00  0.00000000000E+00 -0.18679314076E+03  0.22475684465E+03  0.12499584706E+03 0.  0.
    9000005    1    3    3    0    0  0.41598541121E+02 -0.68501050687E+01 -0.17633678962E+03  0.18130919981E+03  0.10000000000E+01 0.  0.
    9000005    1    3    3    0    0 -0.41598541121E+02  0.68501050687E+01 -0.10456351143E+02  0.43447644840E+02  0.10000000000E+01 0.  0.
<mgrwt>
<rscale>  0 0.12499585E+03</rscale>
<asrwt>0</asrwt>
<pdfrwt beam="2">  1        4 0.31657690E-01 0.12499585E+03</pdfrwt>
<pdfrwt beam="1">  1       -4 0.29202851E-02 0.12499585E+03</pdfrwt>
<totfact> 0.86129180E+03</totfact>
</mgrwt>
</event>
<event>
 5    1  0.3434846E-002  0.1249986E+03  0.7818608E-02  0.1235071E+00
         -4   -1    0    0    0  501 -0.00000000000E+00  0.00000000000E+00  0.62789866464E+03  0.62789994900E+03  0.12700000000E+01 0. -1.
          4   -1    0    0  501    0  0.00000000000E+00 -0.00000000000E+00 -0.61548886232E+01  0.62845488274E+01  0.12700000000E+01 0. -1.
         25    2    1    2    0    0  0.00000000000E+00  0.00000000000E+00  0.62174377602E+03  0.63418449783E+03  0.12499861708E+03 0.  0.
    9000005    1    3    3    0    0  0.38991326889E+02 -0.32713105842E+02  0.49483152316E+03  0.49744316980E+03  0.10000000000E+01 0.  0.
    9000005    1    3    3    0    0 -0.38991326889E+02  0.32713105842E+02  0.12691225286E+03  0.13674132803E+03  0.10000000000E+01 0.  0.
<mgrwt>
<rscale>  0 0.12499862E+03</rscale>
<asrwt>0</asrwt>
<pdfrwt beam="2">  1        4 0.95697883E-03 0.12499862E+03</pdfrwt>
<pdfrwt beam="1">  1       -4 0.96609844E-01 0.12499862E+03</pdfrwt>
<totfact> 0.46779945E+03</totfact>
</mgrwt>
</event>
<event>
 5    1  0.3434846E-002  0.1249831E+03  0.7818608E-02  0.1235096E+00
          4   -1    0    0  501    0  0.00000000000E+00  0.00000000000E+00  0.10551180245E+03  0.10551944539E+03  0.12700000000E+01 0.  1.
         -4   -1    0    0    0  501 -0.00000000000E+00 -0.00000000000E+00 -0.36992049248E+02  0.37013843458E+02  0.12700000000E+01 0.  1.
         25    2    1    2    0    0  0.00000000000E+00  0.00000000000E+00  0.68519753198E+02  0.14253328885E+03  0.12498312627E+03 0.  0.
    9000005    1    3    3    0    0 -0.58145968626E+02 -0.20952677415E+02  0.23793632526E+02  0.66235227086E+02  0.10000000000E+01 0.  0.
    9000005    1    3    3    0    0  0.58145968626E+02  0.20952677415E+02  0.44726120672E+02  0.76298061762E+02  0.10000000000E+01 0.  0.
<mgrwt>
<rscale>  0 0.12498313E+03</rscale>
<asrwt>0</asrwt>
<pdfrwt beam="1">  1        4 0.16234849E-01 0.12498313E+03</pdfrwt>
<pdfrwt beam="2">  1       -4 0.56933489E-02 0.12498313E+03</pdfrwt>
<totfact> 0.10085182E+04</totfact>
</mgrwt>
</event>
<event>
 5    1  0.3434846E-002  0.1249975E+03  0.7818608E-02  0.1235073E+00
         -4   -1    0    0    0  501 -0.00000000000E+00  0.00000000000E+00  0.34395947213E+02  0.34419385303E+02  0.12700000000E+01 0. -1.
          4   -1    0    0  501    0  0.00000000000E+00 -0.00000000000E+00 -0.11349694556E+03  0.11350405081E+03  0.12700000000E+01 0. -1.
         25    2    1    2    0    0  0.00000000000E+00  0.00000000000E+00 -0.79100998346E+02  0.14792343612E+03  0.12499750003E+03 0.  0.
    9000005    1    3    3    0    0  0.44223481784E+02  0.52876316600E+01 -0.91424127729E+02  0.10170076952E+03  0.10000000000E+01 0.  0.
    9000005    1    3    3    0    0 -0.44223481784E+02 -0.52876316600E+01  0.12323129383E+02  0.46222666599E+02  0.10000000000E+01 0.  0.
<mgrwt>
<rscale>  0 0.12499750E+03</rscale>
<asrwt>0</asrwt>
<pdfrwt beam="2">  1        4 0.17463418E-01 0.12499750E+03</pdfrwt>
<pdfrwt beam="1">  1       -4 0.52940337E-02 0.12499750E+03</pdfrwt>
<totfact> 0.99724864E+03</totfact>
</mgrwt>
</event>
<event>
 5    1  0.3434846E-002  0.1250007E+03  0.7818608E-02  0.1235068E+00
         -4   -1    0    0    0  501 -0.00000000000E+00  0.00000000000E+00  0.13335459974E+02  0.13395797577E+02  0.12700000000E+01 0. -1.
          4   -1    0    0  501    0  0.00000000000E+00 -0.00000000000E+00 -0.29220260928E+03  0.29220536917E+03  0.12700000000E+01 0. -1.
         25    2    1    2    0    0  0.00000000000E+00  0.00000000000E+00 -0.27886714931E+03  0.30560116675E+03  0.12500074461E+03 0.  0.
    9000005    1    3    3    0    0  0.45986241238E+02  0.25210578895E+02 -0.22252023578E+03  0.22861881594E+03  0.10000000000E+01 0.  0.
    9000005    1    3    3    0    0 -0.45986241238E+02 -0.25210578895E+02 -0.56346913534E+02  0.76982350810E+02  0.10000000000E+01 0.  0.
<mgrwt>
<rscale>  0 0.12500074E+03</rscale>
<asrwt>0</asrwt>
<pdfrwt beam="2">  1        4 0.44959096E-01 0.12500074E+03</pdfrwt>
<pdfrwt beam="1">  1       -4 0.20564631E-02 0.12500074E+03</pdfrwt>
<totfact> 0.74900332E+03</totfact>
</mgrwt>
</event>
<event>
 5    1  0.3434846E-002  0.1250061E+03  0.7818608E-02  0.1235060E+00
          4   -1    0    0  501    0  0.00000000000E+00  0.00000000000E+00  0.87322937124E+02  0.87332171896E+02  0.12700000000E+01 0. -1.
         -4   -1    0    0    0  501 -0.00000000000E+00 -0.00000000000E+00 -0.44717156030E+02  0.44735186860E+02  0.12700000000E+01 0. -1.
         25    2    1    2    0    0  0.00000000000E+00  0.00000000000E+00  0.42605781094E+02  0.13206735876E+03  0.12500613851E+03 0.  0.
    9000005    1    3    3    0    0 -0.59175482399E+02 -0.14701036714E+02  0.35780057411E+02  0.70704106712E+02  0.10000000000E+01 0.  0.
    9000005    1    3    3    0    0  0.59175482399E+02  0.14701036714E+02  0.68257236834E+01  0.61363252044E+02  0.10000000000E+01 0.  0.
<mgrwt>
<rscale>  0 0.12500614E+03</rscale>
<asrwt>0</asrwt>
<pdfrwt beam="1">  1        4 0.13436395E-01 0.12500614E+03</pdfrwt>
<pdfrwt beam="2">  1       -4 0.68816598E-02 0.12500614E+03</pdfrwt>
<totfact> 0.10298835E+04</totfact>
</mgrwt>
</event>
<event>
 5    1  0.3434846E-002  0.1250052E+03  0.7818608E-02  0.1235061E+00
          4   -1    0    0  501    0  0.00000000000E+00  0.00000000000E+00  0.10875604124E+03  0.10876345621E+03  0.12700000000E+01 0. -1.
         -4   -1    0    0    0  501 -0.00000000000E+00 -0.00000000000E+00 -0.35900666306E+02  0.35923122654E+02  0.12700000000E+01 0. -1.
         25    2    1    2    0    0  0.00000000000E+00  0.00000000000E+00  0.72855374933E+02  0.14468657886E+03  0.12500520167E+03 0.  0.
    9000005    1    3    3    0    0 -0.53075207479E+02  0.16664778190E+02  0.34682977557E+01  0.55746942251E+02  0.10000000000E+01 0.  0.
    9000005    1    3    3    0    0  0.53075207479E+02 -0.16664778190E+02  0.69387077177E+02  0.88939636609E+02  0.10000000000E+01 0.  0.
<mgrwt>
<rscale>  0 0.12500520E+03</rscale>
<asrwt>0</asrwt>
<pdfrwt beam="1">  1        4 0.16733996E-01 0.12500520E+03</pdfrwt>
<pdfrwt beam="2">  1       -4 0.55254773E-02 0.12500520E+03</pdfrwt>
<totfact> 0.10036185E+04</totfact>
</mgrwt>
</event>
<event>
 5    1  0.3434846E-002  0.1249981E+03  0.7818608E-02  0.1235072E+00
         -4   -1    0    0    0  501 -0.00000000000E+00  0.00000000000E+00  0.91439507101E+02  0.91448326168E+02  0.12700000000E+01 0.  1.
          4   -1    0    0  501    0  0.00000000000E+00 -0.00000000000E+00 -0.42697899401E+02  0.42716782571E+02  0.12700000000E+01 0.  1.
         25    2    1    2    0    0  0.00000000000E+00  0.00000000000E+00  0.48741607701E+02  0.13416510874E+03  0.12499812831E+03 0.  0.
    9000005    1    3    3    0    0 -0.39275587273E+02  0.16558234148E+02 -0.24679474783E+02  0.49262798837E+02  0.10000000000E+01 0.  0.
    9000005    1    3    3    0    0  0.39275587273E+02 -0.16558234148E+02  0.73421082483E+02  0.84902309902E+02  0.10000000000E+01 0.  0.
<mgrwt>
<rscale>  0 0.12499813E+03</rscale>
<asrwt>0</asrwt>
<pdfrwt beam="2">  1        4 0.65710386E-02 0.12499813E+03</pdfrwt>
<pdfrwt beam="1">  1       -4 0.14069747E-01 0.12499813E+03</pdfrwt>
<totfact> 0.10256131E+04</totfact>
</mgrwt>
</event>
<event>
 5    1  0.3434846E-002  0.1249974E+03  0.7818608E-02  0.1235073E+00
         -4   -1    0    0    0  501 -0.00000000000E+00  0.00000000000E+00  0.49143591101E+02  0.49159998437E+02  0.12700000000E+01 0. -1.
          4   -1    0    0  501    0  0.00000000000E+00 -0.00000000000E+00 -0.79448390630E+02  0.79458540596E+02  0.12700000000E+01 0. -1.
         25    2    1    2    0    0  0.00000000000E+00  0.00000000000E+00 -0.30304799529E+02  0.12861853903E+03  0.12499739081E+03 0.  0.
    9000005    1    3    3    0    0  0.53884220965E+02 -0.17359251378E+02  0.12076132841E+02  0.57893746310E+02  0.10000000000E+01 0.  0.
    9000005    1    3    3    0    0 -0.53884220965E+02  0.17359251378E+02 -0.42380932369E+02  0.70724792724E+02  0.10000000000E+01 0.  0.
<mgrwt>
<rscale>  0 0.12499739E+03</rscale>
<asrwt>0</asrwt>
<pdfrwt beam="2">  1        4 0.12224872E-01 0.12499739E+03</pdfrwt>
<pdfrwt beam="1">  1       -4 0.75625953E-02 0.12499739E+03</pdfrwt>
<totfact> 0.10374762E+04</totfact>
</mgrwt>
</event>
<event>
 5    1  0.3434846E-002  0.1250066E+03  0.7818608E-02  0.1235059E+00
          4   -1    0    0  501    0  0.00000000000E+00  0.00000000000E+00  0.10692742742E+03  0.10693496918E+03  0.12700000000E+01 0.  1.
         -4   -1    0    0    0  501 -0.00000000000E+00 -0.00000000000E+00 -0.36515792795E+02  0.36537871085E+02  0.12700000000E+01 0.  1.
         25    2    1    2    0    0  0.00000000000E+00  0.00000000000E+00  0.70411634620E+02  0.14347284027E+03  0.12500663024E+03 0.  0.
    9000005    1    3    3    0    0  0.33895080135E+02 -0.51703684727E+02  0.45694571482E+02  0.76883947184E+02  0.10000000000E+01 0.  0.
    9000005    1    3    3    0    0 -0.33895080135E+02  0.51703684727E+02  0.24717063138E+02  0.66588893082E+02  0.10000000000E+01 0.  0.
<mgrwt>
<rscale>  0 0.12500663E+03</rscale>
<asrwt>0</asrwt>
<pdfrwt beam="1">  1        4 0.16452652E-01 0.12500663E+03</pdfrwt>
<pdfrwt beam="2">  1       -4 0.56200929E-02 0.12500663E+03</pdfrwt>
<totfact> 0.10060607E+04</totfact>
</mgrwt>
</event>
<event>
 5    1  0.3434846E-002  0.1250035E+03  0.7818608E-02  0.1235064E+00
          4   -1    0    0  501    0  0.00000000000E+00  0.00000000000E+00  0.19949020691E+03  0.19949424943E+03  0.12700000000E+01 0. -1.
         -4   -1    0    0    0  501 -0.00000000000E+00 -0.00000000000E+00 -0.19557430342E+02  0.19598621931E+02  0.12700000000E+01 0. -1.
         25    2    1    2    0    0  0.00000000000E+00  0.00000000000E+00  0.17993277657E+03  0.21909287136E+03  0.12500352873E+03 0.  0.
    9000005    1    3    3    0    0 -0.36615353893E+02 -0.43032022234E+02  0.43164828921E+02  0.71110066334E+02  0.10000000000E+01 0.  0.
    9000005    1    3    3    0    0  0.36615353893E+02  0.43032022234E+02  0.13676794765E+03  0.14798280502E+03  0.10000000000E+01 0.  0.
<mgrwt>
<rscale>  0 0.12500353E+03</rscale>
<asrwt>0</asrwt>
<pdfrwt beam="1">  1        4 0.30694280E-01 0.12500353E+03</pdfrwt>
<pdfrwt beam="2">  1       -4 0.30123150E-02 0.12500353E+03</pdfrwt>
<totfact> 0.87005236E+03</totfact>
</mgrwt>
</event>
<event>
 5    1  0.3434846E-002  0.1250004E+03  0.7818608E-02  0.1235069E+00
          4   -1    0    0  501    0  0.00000000000E+00  0.00000000000E+00  0.64691925105E+02  0.64704389911E+02  0.12700000000E+01 0. -1.
         -4   -1    0    0    0  501 -0.00000000000E+00 -0.00000000000E+00 -0.60357811693E+02  0.60371171368E+02  0.12700000000E+01 0. -1.
         25    2    1    2    0    0  0.00000000000E+00  0.00000000000E+00  0.43341134124E+01  0.12507556128E+03  0.12500044596E+03 0.  0.
    9000005    1    3    3    0    0 -0.44149088084E+02 -0.27920149004E+02  0.36489289817E+02  0.63727113307E+02  0.10000000000E+01 0.  0.
    9000005    1    3    3    0    0  0.44149088084E+02  0.27920149004E+02 -0.32155176404E+02  0.61348447973E+02  0.10000000000E+01 0.  0.
<mgrwt>
<rscale>  0 0.12500045E+03</rscale>
<asrwt>0</asrwt>
<pdfrwt beam="1">  1        4 0.99545903E-02 0.12500045E+03</pdfrwt>
<pdfrwt beam="2">  1       -4 0.92878037E-02 0.12500045E+03</pdfrwt>
<totfact> 0.10451116E+04</totfact>
</mgrwt>
</event>
<event>
 5    1  0.3434846E-002  0.1249969E+03  0.7818608E-02  0.1235074E+00
          4   -1    0    0  501    0  0.00000000000E+00  0.00000000000E+00  0.11779631950E+03  0.11780316544E+03  0.12700000000E+01 0. -1.
         -4   -1    0    0    0  501 -0.00000000000E+00 -0.00000000000E+00 -0.33139436977E+02  0.33163763103E+02  0.12700000000E+01 0. -1.
         25    2    1    2    0    0  0.00000000000E+00  0.00000000000E+00  0.84656882526E+02  0.15096692855E+03  0.12499690298E+03 0.  0.
    9000005    1    3    3    0    0  0.22296397780E+00 -0.51103573723E+02 -0.11080043354E+01  0.51125850935E+02  0.10000000000E+01 0.  0.
    9000005    1    3    3    0    0 -0.22296397780E+00  0.51103573723E+02  0.85764886861E+02  0.99841077611E+02  0.10000000000E+01 0.  0.
<mgrwt>
<rscale>  0 0.12499690E+03</rscale>
<asrwt>0</asrwt>
<pdfrwt beam="1">  1        4 0.18124908E-01 0.12499690E+03</pdfrwt>
<pdfrwt beam="2">  1       -4 0.51007729E-02 0.12499690E+03</pdfrwt>
<totfact> 0.99118212E+03</totfact>
</mgrwt>
</event>
<event>
 5    1  0.3434846E-002  0.1249991E+03  0.7818608E-02  0.1235071E+00
         -4   -1    0    0    0  501 -0.00000000000E+00  0.00000000000E+00  0.45951786197E+02  0.45969332763E+02  0.12700000000E+01 0.  1.
          4   -1    0    0  501    0  0.00000000000E+00 -0.00000000000E+00 -0.84967813836E+02  0.84977304547E+02  0.12700000000E+01 0.  1.
         25    2    1    2    0    0  0.00000000000E+00  0.00000000000E+00 -0.39016027639E+02  0.13094663731E+03  0.12499908564E+03 0.  0.
    9000005    1    3    3    0    0  0.23142960777E+02 -0.50090707520E+01  0.41075361634E+02  0.47422281226E+02  0.10000000000E+01 0.  0.
    9000005    1    3    3    0    0 -0.23142960777E+02  0.50090707520E+01 -0.80091389274E+02  0.83524356083E+02  0.10000000000E+01 0.  0.
<mgrwt>
<rscale>  0 0.12499909E+03</rscale>
<asrwt>0</asrwt>
<pdfrwt beam="2">  1        4 0.13074051E-01 0.12499909E+03</pdfrwt>
<pdfrwt beam="1">  1       -4 0.70715854E-02 0.12499909E+03</pdfrwt>
<totfact> 0.10324446E+04</totfact>
</mgrwt>
</event>
<event>
 5    1  0.3434846E-002  0.1249975E+03  0.7818608E-02  0.1235073E+00
          4   -1    0    0  501    0  0.00000000000E+00  0.00000000000E+00  0.14933865211E+02  0.14987769352E+02  0.12700000000E+01 0.  1.
         -4   -1    0    0    0  501 -0.00000000000E+00 -0.00000000000E+00 -0.26103273771E+03  0.26103582715E+03  0.12700000000E+01 0.  1.
         25    2    1    2    0    0  0.00000000000E+00  0.00000000000E+00 -0.24609887250E+03  0.27602359650E+03  0.12499748310E+03 0.  0.
    9000005    1    3    3    0    0  0.10953080734E+02 -0.26483383249E+01  0.12682543899E+02  0.16995016717E+02  0.10000000000E+01 0.  0.
    9000005    1    3    3    0    0 -0.10953080734E+02  0.26483383249E+01 -0.25878141639E+03  0.25902857978E+03  0.10000000000E+01 0.  0.
<mgrwt>
<rscale>  0 0.12499748E+03</rscale>
<asrwt>0</asrwt>
<pdfrwt beam="1">  1        4 0.23019020E-02 0.12499748E+03</pdfrwt>
<pdfrwt beam="2">  1       -4 0.40163264E-01 0.12499748E+03</pdfrwt>
<totfact> 0.78712725E+03</totfact>
</mgrwt>
</event>
<event>
 5    1  0.3434846E-002  0.1250000E+03  0.7818608E-02  0.1235069E+00
         -4   -1    0    0    0  501 -0.00000000000E+00  0.00000000000E+00  0.97152614186E+03  0.97152697195E+03  0.12700000000E+01 0.  1.
          4   -1    0    0  501    0  0.00000000000E+00 -0.00000000000E+00 -0.39195960319E+01  0.41202103166E+01  0.12700000000E+01 0.  1.
         25    2    1    2    0    0  0.00000000000E+00  0.00000000000E+00  0.96760654583E+03  0.97564718227E+03  0.12499998691E+03 0.  0.
    9000005    1    3    3    0    0 -0.51620515265E+02  0.29807159822E+02  0.33734334864E+03  0.34257069233E+03  0.10000000000E+01 0.  0.
    9000005    1    3    3    0    0  0.51620515265E+02 -0.29807159822E+02  0.63026319719E+03  0.63307648993E+03  0.10000000000E+01 0.  0.
<mgrwt>
<rscale>  0 0.12499999E+03</rscale>
<asrwt>0</asrwt>
<pdfrwt beam="2">  1        4 0.61851062E-03 0.12499999E+03</pdfrwt>
<pdfrwt beam="1">  1       -4 0.14948102E+00 0.12499999E+03</pdfrwt>
<totfact> 0.31422553E+03</totfact>
</mgrwt>
</event>
<event>
 5    1  0.3434846E-002  0.1249944E+03  0.7818608E-02  0.1235078E+00
          4   -1    0    0  501    0  0.00000000000E+00  0.00000000000E+00  0.14703648345E+04  0.14703653829E+04  0.12700000000E+01 0. -1.
         -4   -1    0    0    0  501 -0.00000000000E+00 -0.00000000000E+00 -0.25040414071E+01  0.28076900414E+01  0.12700000000E+01 0. -1.
         25    2    1    2    0    0  0.00000000000E+00  0.00000000000E+00  0.14678607931E+04  0.14731730730E+04  0.12499438045E+03 0.  0.
    9000005    1    3    3    0    0 -0.35843616366E+02  0.44249004823E+02  0.43064981872E+03  0.43439959211E+03  0.10000000000E+01 0.  0.
    9000005    1    3    3    0    0  0.35843616366E+02 -0.44249004823E+02  0.10372109743E+04  0.10387734809E+04  0.10000000000E+01 0.  0.
<mgrwt>
<rscale>  0 0.12499438E+03</rscale>
<asrwt>0</asrwt>
<pdfrwt beam="1">  1        4 0.22623378E+00 0.12499438E+03</pdfrwt>
<pdfrwt beam="2">  1       -4 0.40863618E-03 0.12499438E+03</pdfrwt>
<totfact> 0.18465265E+03</totfact>
</mgrwt>
</event>
<event>
 5    1  0.3434846E-002  0.1250046E+03  0.7818608E-02  0.1235062E+00
         -4   -1    0    0    0  501 -0.00000000000E+00  0.00000000000E+00  0.15892803854E+02  0.15943466196E+02  0.12700000000E+01 0. -1.
          4   -1    0    0  501    0  0.00000000000E+00 -0.00000000000E+00 -0.24536183793E+03  0.24536512469E+03  0.12700000000E+01 0. -1.
         25    2    1    2    0    0  0.00000000000E+00  0.00000000000E+00 -0.22946903408E+03  0.26130859088E+03  0.12500456819E+03 0.  0.
    9000005    1    3    3    0    0  0.38291461591E+02  0.24524915444E+02 -0.25119614509E+02  0.51958661852E+02  0.10000000000E+01 0.  0.
    9000005    1    3    3    0    0 -0.38291461591E+02 -0.24524915444E+02 -0.20434941957E+03  0.20934992903E+03  0.10000000000E+01 0.  0.
<mgrwt>
<rscale>  0 0.12500457E+03</rscale>
<asrwt>0</asrwt>
<pdfrwt beam="2">  1        4 0.37752122E-01 0.12500457E+03</pdfrwt>
<pdfrwt beam="1">  1       -4 0.24491969E-02 0.12500457E+03</pdfrwt>
<totfact> 0.80714563E+03</totfact>
</mgrwt>
</event>
<event>
 5    1  0.3434846E-002  0.1249660E+03  0.7818608E-02  0.1235122E+00
          4   -1    0    0  501    0  0.00000000000E+00  0.00000000000E+00  0.31108746068E+01  0.33601251196E+01  0.12700000000E+01 0. -1.
         -4   -1    0    0    0  501 -0.00000000000E+00 -0.00000000000E+00 -0.12064034619E+04  0.12064041304E+04  0.12700000000E+01 0. -1.
         25    2    1    2    0    0  0.00000000000E+00  0.00000000000E+00 -0.12032925873E+04  0.12097642555E+04  0.12496600832E+03 0.  0.
    9000005    1    3    3    0    0 -0.44763205642E+02  0.43102861843E+02 -0.66402856986E+03  0.66693068821E+03  0.10000000000E+01 0.  0.
    9000005    1    3    3    0    0  0.44763205642E+02 -0.43102861843E+02 -0.53926401746E+03  0.54283356732E+03  0.10000000000E+01 0.  0.
<mgrwt>
<rscale>  0 0.12496601E+03</rscale>
<asrwt>0</asrwt>
<pdfrwt beam="1">  1        4 0.49782159E-03 0.12496601E+03</pdfrwt>
<pdfrwt beam="2">  1       -4 0.18561940E+00 0.12496601E+03</pdfrwt>
<totfact> 0.24476799E+03</totfact>
</mgrwt>
</event>
<event>
 5    1  0.3434846E-002  0.1249997E+03  0.7818608E-02  0.1235070E+00
         -4   -1    0    0    0  501 -0.00000000000E+00  0.00000000000E+00  0.74431594633E+03  0.74431702981E+03  0.12700000000E+01 0.  1.
          4   -1    0    0  501    0  0.00000000000E+00 -0.00000000000E+00 -0.51701490527E+01  0.53238464692E+01  0.12700000000E+01 0.  1.
         25    2    1    2    0    0  0.00000000000E+00  0.00000000000E+00  0.73914579728E+03  0.74964087628E+03  0.12499973501E+03 0.  0.
    9000005    1    3    3    0    0 -0.20118413565E+02 -0.26800910095E+02  0.53244721043E+02  0.62920900067E+02  0.10000000000E+01 0.  0.
    9000005    1    3    3    0    0  0.20118413565E+02  0.26800910095E+02  0.68590107624E+03  0.68671997621E+03  0.10000000000E+01 0.  0.
<mgrwt>
<rscale>  0 0.12499974E+03</rscale>
<asrwt>0</asrwt>
<pdfrwt beam="2">  1        4 0.80731342E-03 0.12499974E+03</pdfrwt>
<pdfrwt beam="1">  1       -4 0.11452210E+00 0.12499974E+03</pdfrwt>
<totfact> 0.40591537E+03</totfact>
</mgrwt>
</event>
<event>
 5    1  0.3434846E-002  0.1249983E+03  0.7818608E-02  0.1235072E+00
          4   -1    0    0  501    0  0.00000000000E+00  0.00000000000E+00  0.10953223895E+04  0.10953231257E+04  0.12700000000E+01 0.  1.
         -4   -1    0    0    0  501 -0.00000000000E+00 -0.00000000000E+00 -0.34523754392E+01  0.36785589805E+01  0.12700000000E+01 0.  1.
         25    2    1    2    0    0  0.00000000000E+00  0.00000000000E+00  0.10918700140E+04  0.10990016847E+04  0.12499830188E+03 0.  0.
    9000005    1    3    3    0    0 -0.23198712874E+02  0.12816683912E+02  0.48367378641E+02  0.55162042947E+02  0.10000000000E+01 0.  0.
    9000005    1    3    3    0    0  0.23198712874E+02 -0.12816683912E+02  0.10435026354E+04  0.10438396418E+04  0.10000000000E+01 0.  0.
<mgrwt>
<rscale>  0 0.12499830E+03</rscale>
<asrwt>0</asrwt>
<pdfrwt beam="1">  1        4 0.16852876E+00 0.12499830E+03</pdfrwt>
<pdfrwt beam="2">  1       -4 0.54858951E-03 0.12499830E+03</pdfrwt>
<totfact> 0.27513611E+03</totfact>
</mgrwt>
</event>
<event>
 5    1  0.3434846E-002  0.1249916E+03  0.7818608E-02  0.1235082E+00
          4   -1    0    0  501    0  0.00000000000E+00  0.00000000000E+00  0.32121405357E+03  0.32121656419E+03  0.12700000000E+01 0. -1.
         -4   -1    0    0    0  501 -0.00000000000E+00 -0.00000000000E+00 -0.12123531355E+02  0.12189869258E+02  0.12700000000E+01 0. -1.
         25    2    1    2    0    0  0.00000000000E+00  0.00000000000E+00  0.30909052222E+03  0.33340643345E+03  0.12499159549E+03 0.  0.
    9000005    1    3    3    0    0 -0.48048272762E+02  0.36190487969E+02  0.10940835906E+03  0.12485822747E+03  0.10000000000E+01 0.  0.
    9000005    1    3    3    0    0  0.48048272762E+02 -0.36190487969E+02  0.19968216316E+03  0.20854820598E+03  0.10000000000E+01 0.  0.
<mgrwt>
<rscale>  0 0.12499160E+03</rscale>
<asrwt>0</asrwt>
<pdfrwt beam="1">  1        4 0.49422840E-01 0.12499160E+03</pdfrwt>
<pdfrwt beam="2">  1       -4 0.18704548E-02 0.12499160E+03</pdfrwt>
<totfact> 0.71602805E+03</totfact>
</mgrwt>
</event>
<event>
 5    1  0.3434846E-002  0.1250170E+03  0.7818608E-02  0.1235043E+00
         -4   -1    0    0    0  501 -0.00000000000E+00  0.00000000000E+00  0.22605588941E+02  0.22641235641E+02  0.12700000000E+01 0. -1.
          4   -1    0    0  501    0  0.00000000000E+00 -0.00000000000E+00 -0.17267296069E+03  0.17267763102E+03  0.12700000000E+01 0. -1.
         25    2    1    2    0    0  0.00000000000E+00  0.00000000000E+00 -0.15006737175E+03  0.19531886666E+03  0.12501697328E+03 0.  0.
    9000005    1    3    3    0    0  0.30679851647E+02  0.41718020363E+02 -0.20359319467E+02  0.55652029696E+02  0.10000000000E+01 0.  0.
    9000005    1    3    3    0    0 -0.30679851647E+02 -0.41718020363E+02 -0.12970805228E+03  0.13966683696E+03  0.10000000000E+01 0.  0.
<mgrwt>
<rscale>  0 0.12501697E+03</rscale>
<asrwt>0</asrwt>
<pdfrwt beam="2">  1        4 0.26568171E-01 0.12501697E+03</pdfrwt>
<pdfrwt beam="1">  1       -4 0.34808843E-02 0.12501697E+03</pdfrwt>
<totfact> 0.90895452E+03</totfact>
</mgrwt>
</event>
<event>
 5    1  0.3434846E-002  0.1250027E+03  0.7818608E-02  0.1235065E+00
         -4   -1    0    0    0  501 -0.00000000000E+00  0.00000000000E+00  0.25908935379E+03  0.25909246640E+03  0.12700000000E+01 0. -1.
          4   -1    0    0  501    0  0.00000000000E+00 -0.00000000000E+00 -0.15047538006E+02  0.15101036390E+02  0.12700000000E+01 0. -1.
         25    2    1    2    0    0  0.00000000000E+00  0.00000000000E+00  0.24404181578E+03  0.27419350279E+03  0.12500267646E+03 0.  0.
    9000005    1    3    3    0    0  0.16775052943E+01  0.47784805902E+02  0.21028624515E+03  0.21565599133E+03  0.10000000000E+01 0.  0.
    9000005    1    3    3    0    0 -0.16775052943E+01 -0.47784805902E+02  0.33755570636E+02  0.58537511461E+02  0.10000000000E+01 0.  0.
<mgrwt>
<rscale>  0 0.12500268E+03</rscale>
<asrwt>0</asrwt>
<pdfrwt beam="2">  1        4 0.23193605E-02 0.12500268E+03</pdfrwt>
<pdfrwt beam="1">  1       -4 0.39864255E-01 0.12500268E+03</pdfrwt>
<totfact> 0.78949657E+03</totfact>
</mgrwt>
</event>
<event>
 5    1  0.3434846E-002  0.1249943E+03  0.7818608E-02  0.1235078E+00
          4   -1    0    0  501    0  0.00000000000E+00  0.00000000000E+00  0.32820265328E+02  0.32844827846E+02  0.12700000000E+01 0. -1.
         -4   -1    0    0    0  501 -0.00000000000E+00 -0.00000000000E+00 -0.11893604613E+03  0.11894282647E+03  0.12700000000E+01 0. -1.
         25    2    1    2    0    0  0.00000000000E+00  0.00000000000E+00 -0.86115780802E+02  0.15178765432E+03  0.12499425707E+03 0.  0.
    9000005    1    3    3    0    0  0.12149893842E+01  0.43789593175E+02  0.11057848336E+02  0.45191599656E+02  0.10000000000E+01 0.  0.
    9000005    1    3    3    0    0 -0.12149893842E+01 -0.43789593175E+02 -0.97173629139E+02  0.10659605466E+03  0.10000000000E+01 0.  0.
<mgrwt>
<rscale>  0 0.12499426E+03</rscale>
<asrwt>0</asrwt>
<pdfrwt beam="1">  1        4 0.50516826E-02 0.12499426E+03</pdfrwt>
<pdfrwt beam="2">  1       -4 0.18300264E-01 0.12499426E+03</pdfrwt>
<totfact> 0.98961330E+03</totfact>
</mgrwt>
</event>
<event>
 5    1  0.3434846E-002  0.1250006E+03  0.7818608E-02  0.1235068E+00
          4   -1    0    0  501    0  0.00000000000E+00  0.00000000000E+00  0.46987534387E+01  0.48673590249E+01  0.12700000000E+01 0.  1.
         -4   -1    0    0    0  501 -0.00000000000E+00 -0.00000000000E+00 -0.81652317489E+03  0.81652416255E+03  0.12700000000E+01 0.  1.
         25    2    1    2    0    0  0.00000000000E+00  0.00000000000E+00 -0.81182442145E+03  0.82139152158E+03  0.12500056182E+03 0.  0.
    9000005    1    3    3    0    0 -0.58686958023E+02  0.25781045768E+01 -0.26582600404E+03  0.27224119837E+03  0.10000000000E+01 0.  0.
    9000005    1    3    3    0    0  0.58686958023E+02 -0.25781045768E+01 -0.54599841742E+03  0.54915032321E+03  0.10000000000E+01 0.  0.
<mgrwt>
<rscale>  0 0.12500056E+03</rscale>
<asrwt>0</asrwt>
<pdfrwt beam="1">  1        4 0.73593143E-03 0.12500056E+03</pdfrwt>
<pdfrwt beam="2">  1       -4 0.12563188E+00 0.12500056E+03</pdfrwt>
<totfact> 0.37326982E+03</totfact>
</mgrwt>
</event>
<event>
 5    1  0.3434846E-002  0.1249980E+03  0.7818608E-02  0.1235072E+00
          4   -1    0    0  501    0  0.00000000000E+00  0.00000000000E+00  0.28783877405E+03  0.28784157578E+03  0.12700000000E+01 0.  1.
         -4   -1    0    0    0  501 -0.00000000000E+00 -0.00000000000E+00 -0.13537946249E+02  0.13597385361E+02  0.12700000000E+01 0.  1.
         25    2    1    2    0    0  0.00000000000E+00  0.00000000000E+00  0.27430082780E+03  0.30143896114E+03  0.12499801263E+03 0.  0.
    9000005    1    3    3    0    0  0.57310648964E+02 -0.13739162502E+01  0.77164947235E+02  0.96134422619E+02  0.10000000000E+01 0.  0.
    9000005    1    3    3    0    0 -0.57310648964E+02  0.13739162502E+01  0.19713588056E+03  0.20530453852E+03  0.10000000000E+01 0.  0.
<mgrwt>
<rscale>  0 0.12499801E+03</rscale>
<asrwt>0</asrwt>
<pdfrwt beam="1">  1        4 0.44287674E-01 0.12499801E+03</pdfrwt>
<pdfrwt beam="2">  1       -4 0.20875488E-02 0.12499801E+03</pdfrwt>
<totfact> 0.75422019E+03</totfact>
</mgrwt>
</event>
<event>
 5    1  0.3434846E-002  0.1249976E+03  0.7818608E-02  0.1235073E+00
         -4   -1    0    0    0  501 -0.00000000000E+00  0.00000000000E+00  0.26324331557E+01  0.29227733951E+01  0.12700000000E+01 0.  1.
          4   -1    0    0  501    0  0.00000000000E+00 -0.00000000000E+00 -0.14059941078E+04  0.14059946814E+04  0.12700000000E+01 0.  1.
         25    2    1    2    0    0  0.00000000000E+00  0.00000000000E+00 -0.14033616747E+04  0.14089174548E+04  0.12499761802E+03 0.  0.
    9000005    1    3    3    0    0  0.69084480019E+01  0.59405823660E+02 -0.49744394469E+03  0.50102720151E+03  0.10000000000E+01 0.  0.
    9000005    1    3    3    0    0 -0.69084480019E+01 -0.59405823660E+02 -0.90591773000E+03  0.90789025331E+03  0.10000000000E+01 0.  0.
<mgrwt>
<rscale>  0 0.12499762E+03</rscale>
<asrwt>0</asrwt>
<pdfrwt beam="2">  1        4 0.21632860E+00 0.12499762E+03</pdfrwt>
<pdfrwt beam="1">  1       -4 0.42736883E-03 0.12499762E+03</pdfrwt>
<totfact> 0.19791474E+03</totfact>
</mgrwt>
</event>
<event>
 5    1  0.3434846E-002  0.1250018E+03  0.7818608E-02  0.1235066E+00
          4   -1    0    0  501    0  0.00000000000E+00  0.00000000000E+00  0.20545960607E+02  0.20585174210E+02  0.12700000000E+01 0. -1.
         -4   -1    0    0    0  501 -0.00000000000E+00 -0.00000000000E+00 -0.18990534941E+03  0.18990959595E+03  0.12700000000E+01 0. -1.
         25    2    1    2    0    0  0.00000000000E+00  0.00000000000E+00 -0.16935938880E+03  0.21049477016E+03  0.12500178275E+03 0.  0.
    9000005    1    3    3    0    0  0.42359405481E+02  0.45132523425E+02 -0.70184403461E+02  0.93584797871E+02  0.10000000000E+01 0.  0.
    9000005    1    3    3    0    0 -0.42359405481E+02 -0.45132523425E+02 -0.99174985340E+02  0.11690997229E+03  0.10000000000E+01 0.  0.
<mgrwt>
<rscale>  0 0.12500178E+03</rscale>
<asrwt>0</asrwt>
<pdfrwt beam="1">  1        4 0.31642602E-02 0.12500178E+03</pdfrwt>
<pdfrwt beam="2">  1       -4 0.29219549E-01 0.12500178E+03</pdfrwt>
<totfact> 0.88391620E+03</totfact>
</mgrwt>
</event>
<event>
 5    1  0.3434846E-002  0.1250006E+03  0.7818608E-02  0.1235068E+00
         -4   -1    0    0    0  501 -0.00000000000E+00  0.00000000000E+00  0.26415842043E+02  0.26446353450E+02  0.12700000000E+01 0.  1.
          4   -1    0    0  501    0  0.00000000000E+00 -0.00000000000E+00 -0.14775800079E+03  0.14776345860E+03  0.12700000000E+01 0.  1.
         25    2    1    2    0    0  0.00000000000E+00  0.00000000000E+00 -0.12134215875E+03  0.17420981205E+03  0.12500055650E+03 0.  0.
    9000005    1    3    3    0    0  0.51294085994E+02 -0.29265192941E+02 -0.32185903983E+02  0.67264159781E+02  0.10000000000E+01 0.  0.
    9000005    1    3    3    0    0 -0.51294085994E+02  0.29265192941E+02 -0.89156254767E+02  0.10694565227E+03  0.10000000000E+01 0.  0.
<mgrwt>
<rscale>  0 0.12500056E+03</rscale>
<asrwt>0</asrwt>
<pdfrwt beam="2">  1        4 0.22734767E-01 0.12500056E+03</pdfrwt>
<pdfrwt beam="1">  1       -4 0.40667426E-02 0.12500056E+03</pdfrwt>
<totfact> 0.94668579E+03</totfact>
</mgrwt>
</event>
<event>
 5    1  0.3434846E-002  0.1249981E+03  0.7818608E-02  0.1235072E+00
          4   -1    0    0  501    0  0.00000000000E+00  0.00000000000E+00  0.11957804487E+02  0.12025056680E+02  0.12700000000E+01 0.  1.
         -4   -1    0    0    0  501 -0.00000000000E+00 -0.00000000000E+00 -0.32567502939E+03  0.32567750562E+03  0.12700000000E+01 0.  1.
         25    2    1    2    0    0  0.00000000000E+00  0.00000000000E+00 -0.31371722490E+03  0.33770256230E+03  0.12499809352E+03 0.  0.
    9000005    1    3    3    0    0  0.50567535816E+02 -0.17620343063E+02 -0.69834122634E+02  0.88007709050E+02  0.10000000000E+01 0.  0.
    9000005    1    3    3    0    0 -0.50567535816E+02  0.17620343063E+02 -0.24388310227E+03  0.24969485325E+03  0.10000000000E+01 0.  0.
<mgrwt>
<rscale>  0 0.12499809E+03</rscale>
<asrwt>0</asrwt>
<pdfrwt beam="1">  1        4 0.18450262E-02 0.12499809E+03</pdfrwt>
<pdfrwt beam="2">  1       -4 0.50109208E-01 0.12499809E+03</pdfrwt>
<totfact> 0.71101959E+03</totfact>
</mgrwt>
</event>
<event>
 5    1  0.3434846E-002  0.1249601E+03  0.7818608E-02  0.1235132E+00
          4   -1    0    0  501    0  0.00000000000E+00  0.00000000000E+00  0.33089675767E+02  0.33114038448E+02  0.12700000000E+01 0. -1.
         -4   -1    0    0    0  501 -0.00000000000E+00 -0.00000000000E+00 -0.11790384438E+03  0.11791068408E+03  0.12700000000E+01 0. -1.
         25    2    1    2    0    0  0.00000000000E+00  0.00000000000E+00 -0.84814168617E+02  0.15102472253E+03  0.12496008810E+03 0.  0.
    9000005    1    3    3    0    0 -0.61761680039E+02  0.80554301704E+01 -0.36565631977E+02  0.72231852519E+02  0.10000000000E+01 0.  0.
    9000005    1    3    3    0    0  0.61761680039E+02 -0.80554301704E+01 -0.48248536640E+02  0.78792870010E+02  0.10000000000E+01 0.  0.
<mgrwt>
<rscale>  0 0.12496009E+03</rscale>
<asrwt>0</asrwt>
<pdfrwt beam="1">  1        4 0.50931196E-02 0.12496009E+03</pdfrwt>
<pdfrwt beam="2">  1       -4 0.18141453E-01 0.12496009E+03</pdfrwt>
<totfact> 0.99188884E+03</totfact>
</mgrwt>
</event>
<event>
 5    1  0.3434846E-002  0.1249880E+03  0.7818608E-02  0.1235088E+00
          4   -1    0    0  501    0  0.00000000000E+00  0.00000000000E+00  0.11340929601E+03  0.11341640676E+03  0.12700000000E+01 0.  1.
         -4   -1    0    0    0  501 -0.00000000000E+00 -0.00000000000E+00 -0.34417302224E+02  0.34440725782E+02  0.12700000000E+01 0.  1.
         25    2    1    2    0    0  0.00000000000E+00  0.00000000000E+00  0.78991993788E+02  0.14785713254E+03  0.12498798566E+03 0.  0.
    9000005    1    3    3    0    0  0.54937530387E+02 -0.29633817461E+02  0.42884285719E+02  0.75738744009E+02  0.10000000000E+01 0.  0.
    9000005    1    3    3    0    0 -0.54937530387E+02  0.29633817461E+02  0.36107708069E+02  0.72118388532E+02  0.10000000000E+01 0.  0.
<mgrwt>
<rscale>  0 0.12498799E+03</rscale>
<asrwt>0</asrwt>
<pdfrwt beam="1">  1        4 0.17449933E-01 0.12498799E+03</pdfrwt>
<pdfrwt beam="2">  1       -4 0.52973183E-02 0.12498799E+03</pdfrwt>
<totfact> 0.99759551E+03</totfact>
</mgrwt>
</event>
<event>
 5    1  0.3434846E-002  0.1250023E+03  0.7818608E-02  0.1235066E+00
         -4   -1    0    0    0  501 -0.00000000000E+00  0.00000000000E+00  0.91600952199E+02  0.91609755723E+02  0.12700000000E+01 0.  1.
          4   -1    0    0  501    0  0.00000000000E+00 -0.00000000000E+00 -0.42625471267E+02  0.42644386510E+02  0.12700000000E+01 0.  1.
         25    2    1    2    0    0  0.00000000000E+00  0.00000000000E+00  0.48975480931E+02  0.13425414223E+03  0.12500230788E+03 0.  0.
    9000005    1    3    3    0    0  0.46687822603E+01 -0.62145179710E+02  0.19499257383E+02  0.65307288471E+02  0.10000000000E+01 0.  0.
    9000005    1    3    3    0    0 -0.46687822603E+01  0.62145179710E+02  0.29476223548E+02  0.68946853762E+02  0.10000000000E+01 0.  0.
<mgrwt>
<rscale>  0 0.12500231E+03</rscale>
<asrwt>0</asrwt>
<pdfrwt beam="2">  1        4 0.65598970E-02 0.12500231E+03</pdfrwt>
<pdfrwt beam="1">  1       -4 0.14094586E-01 0.12500231E+03</pdfrwt>
<totfact> 0.10253282E+04</totfact>
</mgrwt>
</event>
<event>
 5    1  0.3434846E-002  0.1250004E+03  0.7818608E-02  0.1235069E+00
          4   -1    0    0  501    0  0.00000000000E+00  0.00000000000E+00  0.80334154640E+02  0.80344192707E+02  0.12700000000E+01 0.  1.
         -4   -1    0    0    0  501 -0.00000000000E+00 -0.00000000000E+00 -0.48603944483E+02  0.48620533926E+02  0.12700000000E+01 0.  1.
         25    2    1    2    0    0  0.00000000000E+00  0.00000000000E+00  0.31730210158E+02  0.12896472663E+03  0.12500037792E+03 0.  0.
    9000005    1    3    3    0    0  0.22691229363E+02  0.29799256696E+02  0.67475450924E+02  0.77180464284E+02  0.10000000000E+01 0.  0.
    9000005    1    3    3    0    0 -0.22691229363E+02 -0.29799256696E+02 -0.35745240767E+02  0.51784262349E+02  0.10000000000E+01 0.  0.
<mgrwt>
<rscale>  0 0.12500038E+03</rscale>
<asrwt>0</asrwt>
<pdfrwt beam="1">  1        4 0.12361149E-01 0.12500038E+03</pdfrwt>
<pdfrwt beam="2">  1       -4 0.74795782E-02 0.12500038E+03</pdfrwt>
<totfact> 0.10366616E+04</totfact>
</mgrwt>
</event>
<event>
 4    1  0.3434846E-002  0.1251617E+03  0.7818608E-02  0.1234817E+00
         -4   -1    0    0    0  501 -0.00000000000E+00  0.00000000000E+00  0.77915876331E+01  0.78944118111E+01  0.12700000000E+01 0. -1.
          4   -1    0    0  501    0  0.00000000000E+00 -0.00000000000E+00 -0.49924121850E+03  0.49924283385E+03  0.12700000000E+01 0. -1.
    9000005    1    1    2    0    0  0.42806883529E+02  0.39195652567E+02 -0.34045798924E+03  0.34537135216E+03  0.10000000000E+01 0.  0.
    9000005    1    1    2    0    0 -0.42806883529E+02 -0.39195652567E+02 -0.15099164163E+03  0.16176589350E+03  0.10000000000E+01 0.  0.
<mgrwt>
<rscale>  0 0.12516168E+03</rscale>
<asrwt>0</asrwt>
<pdfrwt beam="2">  1        4 0.76814350E-01 0.12516168E+03</pdfrwt>
<pdfrwt beam="1">  1       -4 0.12067400E-02 0.12516168E+03</pdfrwt>
<totfact> 0.55118694E+03</totfact>
</mgrwt>
</event>
<event>
 5    1  0.3434846E-002  0.1250029E+03  0.7818608E-02  0.1235065E+00
          4   -1    0    0  501    0  0.00000000000E+00  0.00000000000E+00  0.50230757944E+02  0.50246810283E+02  0.12700000000E+01 0. -1.
         -4   -1    0    0    0  501 -0.00000000000E+00 -0.00000000000E+00 -0.77735979092E+02  0.77746352618E+02  0.12700000000E+01 0. -1.
         25    2    1    2    0    0  0.00000000000E+00  0.00000000000E+00 -0.27505221148E+02  0.12799316290E+03  0.12500285020E+03 0.  0.
    9000005    1    3    3    0    0 -0.13573938118E+01 -0.44126077198E+02  0.31537564522E+02  0.54263903129E+02  0.10000000000E+01 0.  0.
    9000005    1    3    3    0    0  0.13573938118E+01  0.44126077198E+02 -0.59042785670E+02  0.73729259772E+02  0.10000000000E+01 0.  0.
<mgrwt>
<rscale>  0 0.12500285E+03</rscale>
<asrwt>0</asrwt>
<pdfrwt beam="1">  1        4 0.77298417E-02 0.12500285E+03</pdfrwt>
<pdfrwt beam="2">  1       -4 0.11961414E-01 0.12500285E+03</pdfrwt>
<totfact> 0.10386967E+04</totfact>
</mgrwt>
</event>
<event>
 5    1  0.3434846E-002  0.1249961E+03  0.7818608E-02  0.1235075E+00
         -4   -1    0    0    0  501 -0.00000000000E+00  0.00000000000E+00  0.63988448620E+01  0.65236581431E+01  0.12700000000E+01 0.  1.
          4   -1    0    0  501    0  0.00000000000E+00 -0.00000000000E+00 -0.60440192872E+03  0.60440326301E+03  0.12700000000E+01 0.  1.
         25    2    1    2    0    0  0.00000000000E+00  0.00000000000E+00 -0.59800308385E+03  0.61092692115E+03  0.12499605869E+03 0.  0.
    9000005    1    3    3    0    0 -0.24129053418E+02  0.54527403005E+02 -0.20762166612E+03  0.21601667792E+03  0.10000000000E+01 0.  0.
    9000005    1    3    3    0    0  0.24129053418E+02 -0.54527403005E+02 -0.39038141774E+03  0.39491024323E+03  0.10000000000E+01 0.  0.
<mgrwt>
<rscale>  0 0.12499606E+03</rscale>
<asrwt>0</asrwt>
<pdfrwt beam="2">  1        4 0.92994571E-01 0.12499606E+03</pdfrwt>
<pdfrwt beam="1">  1       -4 0.99414180E-03 0.12499606E+03</pdfrwt>
<totfact> 0.48189237E+03</totfact>
</mgrwt>
</event>
<event>
 5    1  0.3434846E-002  0.1250009E+03  0.7818608E-02  0.1235068E+00
         -4   -1    0    0    0  501 -0.00000000000E+00  0.00000000000E+00  0.73094636579E+01  0.74189729051E+01  0.12700000000E+01 0.  1.
          4   -1    0    0  501    0  0.00000000000E+00 -0.00000000000E+00 -0.53033423307E+03  0.53033575372E+03  0.12700000000E+01 0.  1.
         25    2    1    2    0    0  0.00000000000E+00  0.00000000000E+00 -0.52302476942E+03  0.53775472662E+03  0.12500094632E+03 0.  0.
    9000005    1    3    3    0    0 -0.17546403939E+02  0.55786654755E+02 -0.35628176250E+03  0.36105085713E+03  0.10000000000E+01 0.  0.
    9000005    1    3    3    0    0  0.17546403939E+02 -0.55786654755E+02 -0.16674300691E+03  0.17670386949E+03  0.10000000000E+01 0.  0.
<mgrwt>
<rscale>  0 0.12500095E+03</rscale>
<asrwt>0</asrwt>
<pdfrwt beam="2">  1        4 0.81598393E-01 0.12500095E+03</pdfrwt>
<pdfrwt beam="1">  1       -4 0.11330740E-02 0.12500095E+03</pdfrwt>
<totfact> 0.53048520E+03</totfact>
</mgrwt>
</event>
<event>
 5    1  0.3434846E-002  0.1250033E+03  0.7818608E-02  0.1235064E+00
          4   -1    0    0  501    0  0.00000000000E+00  0.00000000000E+00  0.98249192358E+02  0.98257400225E+02  0.12700000000E+01 0. -1.
         -4   -1    0    0    0  501 -0.00000000000E+00 -0.00000000000E+00 -0.39740654794E+02  0.39760942437E+02  0.12700000000E+01 0. -1.
         25    2    1    2    0    0  0.00000000000E+00  0.00000000000E+00  0.58508537564E+02  0.13801834266E+03  0.12500325573E+03 0.  0.
    9000005    1    3    3    0    0 -0.27300911118E+01 -0.60238027459E+02  0.11132596689E+02  0.61327058128E+02  0.10000000000E+01 0.  0.
    9000005    1    3    3    0    0  0.27300911118E+01  0.60238027459E+02  0.47375940875E+02  0.76691284533E+02  0.10000000000E+01 0.  0.
<mgrwt>
<rscale>  0 0.12500326E+03</rscale>
<asrwt>0</asrwt>
<pdfrwt beam="1">  1        4 0.15117452E-01 0.12500326E+03</pdfrwt>
<pdfrwt beam="2">  1       -4 0.61161389E-02 0.12500326E+03</pdfrwt>
<totfact> 0.10174076E+04</totfact>
</mgrwt>
</event>
<event>
 5    1  0.3434846E-002  0.1249952E+03  0.7818608E-02  0.1235077E+00
          4   -1    0    0  501    0  0.00000000000E+00  0.00000000000E+00  0.18805538638E+02  0.18848373496E+02  0.12700000000E+01 0.  1.
         -4   -1    0    0    0  501 -0.00000000000E+00 -0.00000000000E+00 -0.20742117181E+03  0.20742505976E+03  0.12700000000E+01 0.  1.
         25    2    1    2    0    0  0.00000000000E+00  0.00000000000E+00 -0.18861563317E+03  0.22627343325E+03  0.12499523799E+03 0.  0.
    9000005    1    3    3    0    0 -0.58596286411E+02 -0.18456005710E+02 -0.11501159930E+03  0.13039484998E+03  0.10000000000E+01 0.  0.
    9000005    1    3    3    0    0  0.58596286411E+02  0.18456005710E+02 -0.73604033871E+02  0.95878583270E+02  0.10000000000E+01 0.  0.
<mgrwt>
<rscale>  0 0.12499524E+03</rscale>
<asrwt>0</asrwt>
<pdfrwt beam="1">  1        4 0.28967540E-02 0.12499524E+03</pdfrwt>
<pdfrwt beam="2">  1       -4 0.31914542E-01 0.12499524E+03</pdfrwt>
<totfact> 0.85894248E+03</totfact>
</mgrwt>
</event>
<event>
 5    1  0.3434846E-002  0.1250051E+03  0.7818608E-02  0.1235061E+00
         -4   -1    0    0    0  501 -0.00000000000E+00  0.00000000000E+00  0.59057154765E+03  0.59057291319E+03  0.12700000000E+01 0. -1.
          4   -1    0    0  501    0  0.00000000000E+00 -0.00000000000E+00 -0.65525507978E+01  0.66744903893E+01  0.12700000000E+01 0. -1.
         25    2    1    2    0    0  0.00000000000E+00  0.00000000000E+00  0.58401899685E+03  0.59724740358E+03  0.12500508949E+03 0.  0.
    9000005    1    3    3    0    0  0.12339466703E+01 -0.31637914718E+02  0.34580976886E+02  0.46896953360E+02  0.10000000000E+01 0.  0.
    9000005    1    3    3    0    0 -0.12339466703E+01  0.31637914718E+02  0.54943801996E+03  0.55035045022E+03  0.10000000000E+01 0.  0.
<mgrwt>
<rscale>  0 0.12500509E+03</rscale>
<asrwt>0</asrwt>
<pdfrwt beam="2">  1        4 0.10175696E-02 0.12500509E+03</pdfrwt>
<pdfrwt beam="1">  1       -4 0.90866661E-01 0.12500509E+03</pdfrwt>
<totfact> 0.49036345E+03</totfact>
</mgrwt>
</event>
<event>
 5    1  0.3434846E-002  0.1249925E+03  0.7818608E-02  0.1235081E+00
          4   -1    0    0  501    0  0.00000000000E+00  0.00000000000E+00  0.89674161937E+01  0.90569008601E+01  0.12700000000E+01 0. -1.
         -4   -1    0    0    0  501 -0.00000000000E+00 -0.00000000000E+00 -0.43329979418E+03  0.43330165536E+03  0.12700000000E+01 0. -1.
         25    2    1    2    0    0  0.00000000000E+00  0.00000000000E+00 -0.42433237799E+03  0.44235855622E+03  0.12499250078E+03 0.  0.
    9000005    1    3    3    0    0  0.12823554256E+02  0.57360599667E+02 -0.28724971851E+03  0.29320314242E+03  0.10000000000E+01 0.  0.
    9000005    1    3    3    0    0 -0.12823554256E+02 -0.57360599667E+02 -0.13708265948E+03  0.14915541381E+03  0.10000000000E+01 0.  0.
<mgrwt>
<rscale>  0 0.12499250E+03</rscale>
<asrwt>0</asrwt>
<pdfrwt beam="1">  1        4 0.13866294E-02 0.12499250E+03</pdfrwt>
<pdfrwt beam="2">  1       -4 0.66668517E-01 0.12499250E+03</pdfrwt>
<totfact> 0.60641547E+03</totfact>
</mgrwt>
</event>
<event>
 5    1  0.3434846E-002  0.1249997E+03  0.7818608E-02  0.1235070E+00
          4   -1    0    0  501    0  0.00000000000E+00  0.00000000000E+00  0.23979274326E+03  0.23979610635E+03  0.12700000000E+01 0.  1.
         -4   -1    0    0    0  501 -0.00000000000E+00 -0.00000000000E+00 -0.16261802426E+02  0.16311318713E+02  0.12700000000E+01 0.  1.
         25    2    1    2    0    0  0.00000000000E+00  0.00000000000E+00  0.22353094083E+03  0.25610742506E+03  0.12499972665E+03 0.  0.
    9000005    1    3    3    0    0  0.25821679836E+01 -0.62308615176E+02  0.10351849456E+03  0.12085573976E+03  0.10000000000E+01 0.  0.
    9000005    1    3    3    0    0 -0.25821679836E+01  0.62308615176E+02  0.12001244627E+03  0.13525168530E+03  0.10000000000E+01 0.  0.
<mgrwt>
<rscale>  0 0.12499973E+03</rscale>
<asrwt>0</asrwt>
<pdfrwt beam="1">  1        4 0.36895259E-01 0.12499973E+03</pdfrwt>
<pdfrwt beam="2">  1       -4 0.25058834E-02 0.12499973E+03</pdfrwt>
<totfact> 0.81455945E+03</totfact>
</mgrwt>
</event>
<event>
 5    1  0.3434846E-002  0.1250017E+03  0.7818608E-02  0.1235067E+00
         -4   -1    0    0    0  501 -0.00000000000E+00  0.00000000000E+00  0.13659626375E+02  0.13718538286E+02  0.12700000000E+01 0. -1.
          4   -1    0    0  501    0  0.00000000000E+00 -0.00000000000E+00 -0.28530239226E+03  0.28530521890E+03  0.12700000000E+01 0. -1.
         25    2    1    2    0    0  0.00000000000E+00  0.00000000000E+00 -0.27164276589E+03  0.29902375718E+03  0.12500166040E+03 0.  0.
    9000005    1    3    3    0    0  0.50489687889E+02  0.33017752894E+02 -0.96808428532E+02  0.11407126029E+03  0.10000000000E+01 0.  0.
    9000005    1    3    3    0    0 -0.50489687889E+02 -0.33017752894E+02 -0.17483433735E+03  0.18495249689E+03  0.10000000000E+01 0.  0.
<mgrwt>
<rscale>  0 0.12500166E+03</rscale>
<asrwt>0</asrwt>
<pdfrwt beam="2">  1        4 0.43897420E-01 0.12500166E+03</pdfrwt>
<pdfrwt beam="1">  1       -4 0.21062303E-02 0.12500166E+03</pdfrwt>
<totfact> 0.75718671E+03</totfact>
</mgrwt>
</event>
<event>
 5    1  0.3434846E-002  0.1250044E+03  0.7818608E-02  0.1235062E+00
         -4   -1    0    0    0  501 -0.00000000000E+00  0.00000000000E+00  0.84687099936E+03  0.84687195163E+03  0.12700000000E+01 0.  1.
          4   -1    0    0  501    0  0.00000000000E+00 -0.00000000000E+00 -0.45245093576E+01  0.46993706948E+01  0.12700000000E+01 0.  1.
         25    2    1    2    0    0  0.00000000000E+00  0.00000000000E+00  0.84234649000E+03  0.85157132233E+03  0.12500443107E+03 0.  0.
    9000005    1    3    3    0    0 -0.14168110384E+02 -0.60251182755E+02  0.48000691517E+03  0.48398200275E+03  0.10000000000E+01 0.  0.
    9000005    1    3    3    0    0  0.14168110384E+02  0.60251182755E+02  0.36233957483E+03  0.36758931957E+03  0.10000000000E+01 0.  0.
<mgrwt>
<rscale>  0 0.12500443E+03</rscale>
<asrwt>0</asrwt>
<pdfrwt beam="2">  1        4 0.70960246E-03 0.12500443E+03</pdfrwt>
<pdfrwt beam="1">  1       -4 0.13030138E+00 0.12500443E+03</pdfrwt>
<totfact> 0.36059617E+03</totfact>
</mgrwt>
</event>
<event>
 5    1  0.3434846E-002  0.1249999E+03  0.7818608E-02  0.1235069E+00
         -4   -1    0    0    0  501 -0.00000000000E+00  0.00000000000E+00  0.74896950913E+03  0.74897058588E+03  0.12700000000E+01 0. -1.
          4   -1    0    0  501    0  0.00000000000E+00 -0.00000000000E+00 -0.51370805930E+01  0.52917385630E+01  0.12700000000E+01 0. -1.
         25    2    1    2    0    0  0.00000000000E+00  0.00000000000E+00  0.74383242854E+03  0.75426232444E+03  0.12499988930E+03 0.  0.
    9000005    1    3    3    0    0  0.62012541672E+02 -0.39738338112E+01  0.41189478327E+03  0.41655690988E+03  0.10000000000E+01 0.  0.
    9000005    1    3    3    0    0 -0.62012541672E+02  0.39738338112E+01  0.33193764527E+03  0.33770541456E+03  0.10000000000E+01 0.  0.
<mgrwt>
<rscale>  0 0.12499989E+03</rscale>
<asrwt>0</asrwt>
<pdfrwt beam="2">  1        4 0.80229996E-03 0.12499989E+03</pdfrwt>
<pdfrwt beam="1">  1       -4 0.11523802E+00 0.12499989E+03</pdfrwt>
<totfact> 0.40371203E+03</totfact>
</mgrwt>
</event>
<event>
 5    1  0.3434846E-002  0.1250012E+03  0.7818608E-02  0.1235067E+00
         -4   -1    0    0    0  501 -0.00000000000E+00  0.00000000000E+00  0.14204642059E+02  0.14261302747E+02  0.12700000000E+01 0. -1.
          4   -1    0    0  501    0  0.00000000000E+00 -0.00000000000E+00 -0.27439778938E+03  0.27440072835E+03  0.12700000000E+01 0. -1.
         25    2    1    2    0    0  0.00000000000E+00  0.00000000000E+00 -0.26019314732E+03  0.28866203110E+03  0.12500117712E+03 0.  0.
    9000005    1    3    3    0    0  0.30394635243E+01 -0.43095979665E+02 -0.25825176855E+02  0.50343237494E+02  0.10000000000E+01 0.  0.
    9000005    1    3    3    0    0 -0.30394635243E+01  0.43095979665E+02 -0.23436797047E+03  0.23831879360E+03  0.10000000000E+01 0.  0.
<mgrwt>
<rscale>  0 0.12500118E+03</rscale>
<asrwt>0</asrwt>
<pdfrwt beam="2">  1        4 0.42219625E-01 0.12500118E+03</pdfrwt>
<pdfrwt beam="1">  1       -4 0.21899143E-02 0.12500118E+03</pdfrwt>
<totfact> 0.77041411E+03</totfact>
</mgrwt>
</event>
<event>
 5    1  0.3434846E-002  0.1249967E+03  0.7818608E-02  0.1235074E+00
          4   -1    0    0  501    0  0.00000000000E+00  0.00000000000E+00  0.13486632783E+03  0.13487230732E+03  0.12700000000E+01 0. -1.
         -4   -1    0    0    0  501 -0.00000000000E+00 -0.00000000000E+00 -0.28941796042E+02  0.28969647187E+02  0.12700000000E+01 0. -1.
         25    2    1    2    0    0  0.00000000000E+00  0.00000000000E+00  0.10592453179E+03  0.16384195451E+03  0.12499671845E+03 0.  0.
    9000005    1    3    3    0    0  0.10401261020E+02 -0.48264645312E+02  0.10317318880E+03  0.11438255595E+03  0.10000000000E+01 0.  0.
    9000005    1    3    3    0    0 -0.10401261020E+02  0.48264645312E+02  0.27513429888E+01  0.49459398562E+02  0.10000000000E+01 0.  0.
<mgrwt>
<rscale>  0 0.12499672E+03</rscale>
<asrwt>0</asrwt>
<pdfrwt beam="1">  1        4 0.20751268E-01 0.12499672E+03</pdfrwt>
<pdfrwt beam="2">  1       -4 0.44551863E-02 0.12499672E+03</pdfrwt>
<totfact> 0.96614281E+03</totfact>
</mgrwt>
</event>
<event>
 5    1  0.3434846E-002  0.1250013E+03  0.7818608E-02  0.1235067E+00
          4   -1    0    0  501    0  0.00000000000E+00  0.00000000000E+00  0.75502113761E+03  0.75502220572E+03  0.12700000000E+01 0. -1.
         -4   -1    0    0    0  501 -0.00000000000E+00 -0.00000000000E+00 -0.50947758593E+01  0.52506800566E+01  0.12700000000E+01 0. -1.
         25    2    1    2    0    0  0.00000000000E+00  0.00000000000E+00  0.74992636175E+03  0.76027288578E+03  0.12500125122E+03 0.  0.
    9000005    1    3    3    0    0  0.86546839189E+01 -0.25357845623E+02  0.31584189989E+02  0.41430483290E+02  0.10000000000E+01 0.  0.
    9000005    1    3    3    0    0 -0.86546839189E+01  0.25357845623E+02  0.71834217176E+03  0.71884240249E+03  0.10000000000E+01 0.  0.
<mgrwt>
<rscale>  0 0.12500125E+03</rscale>
<asrwt>0</asrwt>
<pdfrwt beam="1">  1        4 0.11616920E+00 0.12500125E+03</pdfrwt>
<pdfrwt beam="2">  1       -4 0.79588625E-03 0.12500125E+03</pdfrwt>
<totfact> 0.40086434E+03</totfact>
</mgrwt>
</event>
<event>
 5    1  0.3434846E-002  0.1249973E+03  0.7818608E-02  0.1235074E+00
         -4   -1    0    0    0  501 -0.00000000000E+00  0.00000000000E+00  0.76178220300E+02  0.76188805924E+02  0.12700000000E+01 0.  1.
          4   -1    0    0  501    0  0.00000000000E+00 -0.00000000000E+00 -0.51253528880E+02  0.51269260992E+02  0.12700000000E+01 0.  1.
         25    2    1    2    0    0  0.00000000000E+00  0.00000000000E+00  0.24924691420E+02  0.12745806692E+03  0.12499727429E+03 0.  0.
    9000005    1    3    3    0    0 -0.15161586610E+02 -0.17194451539E+02 -0.46816079536E+02  0.52137013487E+02  0.10000000000E+01 0.  0.
    9000005    1    3    3    0    0  0.15161586610E+02  0.17194451539E+02  0.71740770955E+02  0.75321053428E+02  0.10000000000E+01 0.  0.
<mgrwt>
<rscale>  0 0.12499727E+03</rscale>
<asrwt>0</asrwt>
<pdfrwt beam="2">  1        4 0.78871828E-02 0.12499727E+03</pdfrwt>
<pdfrwt beam="1">  1       -4 0.11721751E-01 0.12499727E+03</pdfrwt>
<totfact> 0.10399849E+04</totfact>
</mgrwt>
</event>
<event>
 5    1  0.3434846E-002  0.1250043E+03  0.7818608E-02  0.1235063E+00
         -4   -1    0    0    0  501 -0.00000000000E+00  0.00000000000E+00  0.50809175657E+01  0.52372343187E+01  0.12700000000E+01 0. -1.
          4   -1    0    0  501    0  0.00000000000E+00 -0.00000000000E+00 -0.75705566382E+03  0.75705672906E+03  0.12700000000E+01 0. -1.
         25    2    1    2    0    0  0.00000000000E+00  0.00000000000E+00 -0.75197474625E+03  0.76229396338E+03  0.12500427035E+03 0.  0.
    9000005    1    3    3    0    0  0.14387945416E+02  0.37119105780E+02 -0.82219107966E+02  0.91355474395E+02  0.10000000000E+01 0.  0.
    9000005    1    3    3    0    0 -0.14387945416E+02 -0.37119105780E+02 -0.66975563828E+03  0.67093848898E+03  0.10000000000E+01 0.  0.
<mgrwt>
<rscale>  0 0.12500427E+03</rscale>
<asrwt>0</asrwt>
<pdfrwt beam="2">  1        4 0.11648212E+00 0.12500427E+03</pdfrwt>
<pdfrwt beam="1">  1       -4 0.79378653E-03 0.12500427E+03</pdfrwt>
<totfact> 0.39989202E+03</totfact>
</mgrwt>
</event>
<event>
 5    1  0.3434846E-002  0.1249984E+03  0.7818608E-02  0.1235072E+00
         -4   -1    0    0    0  501 -0.00000000000E+00  0.00000000000E+00  0.13998824639E+02  0.14056314996E+02  0.12700000000E+01 0. -1.
          4   -1    0    0  501    0  0.00000000000E+00 -0.00000000000E+00 -0.27840357181E+03  0.27840646848E+03  0.12700000000E+01 0. -1.
         25    2    1    2    0    0  0.00000000000E+00  0.00000000000E+00 -0.26440474717E+03  0.29246278348E+03  0.12499843758E+03 0.  0.
    9000005    1    3    3    0    0 -0.37839186758E+02  0.28052433547E+02 -0.22828558594E+03  0.23309665770E+03  0.10000000000E+01 0.  0.
    9000005    1    3    3    0    0  0.37839186758E+02 -0.28052433547E+02 -0.36119161222E+02  0.59366125777E+02  0.10000000000E+01 0.  0.
<mgrwt>
<rscale>  0 0.12499844E+03</rscale>
<asrwt>0</asrwt>
<pdfrwt beam="2">  1        4 0.42835960E-01 0.12499844E+03</pdfrwt>
<pdfrwt beam="1">  1       -4 0.21583107E-02 0.12499844E+03</pdfrwt>
<totfact> 0.76556784E+03</totfact>
</mgrwt>
</event>
<event>
 5    1  0.3434846E-002  0.1249974E+03  0.7818608E-02  0.1235073E+00
         -4   -1    0    0    0  501 -0.00000000000E+00  0.00000000000E+00  0.11040444563E+02  0.11113249576E+02  0.12700000000E+01 0. -1.
          4   -1    0    0  501    0  0.00000000000E+00 -0.00000000000E+00 -0.35256127403E+03  0.35256356143E+03  0.12700000000E+01 0. -1.
         25    2    1    2    0    0  0.00000000000E+00  0.00000000000E+00 -0.34152082947E+03  0.36367681101E+03  0.12499738358E+03 0.  0.
    9000005    1    3    3    0    0 -0.59219287551E+02  0.15686113185E+02 -0.20664361416E+03  0.21553552245E+03  0.10000000000E+01 0.  0.
    9000005    1    3    3    0    0  0.59219287551E+02 -0.15686113185E+02 -0.13487721531E+03  0.14814128856E+03  0.10000000000E+01 0.  0.
<mgrwt>
<rscale>  0 0.12499738E+03</rscale>
<asrwt>0</asrwt>
<pdfrwt beam="2">  1        4 0.54245964E-01 0.12499738E+03</pdfrwt>
<pdfrwt beam="1">  1       -4 0.17043065E-02 0.12499738E+03</pdfrwt>
<totfact> 0.68249643E+03</totfact>
</mgrwt>
</event>
<event>
 5    1  0.3434846E-002  0.1249995E+03  0.7818608E-02  0.1235070E+00
         -4   -1    0    0    0  501 -0.00000000000E+00  0.00000000000E+00  0.28312712636E+03  0.28312997471E+03  0.12700000000E+01 0.  1.
          4   -1    0    0  501    0  0.00000000000E+00 -0.00000000000E+00 -0.13764540976E+02  0.13823005762E+02  0.12700000000E+01 0.  1.
         25    2    1    2    0    0  0.00000000000E+00  0.00000000000E+00  0.26936258538E+03  0.29695298047E+03  0.12499948083E+03 0.  0.
    9000005    1    3    3    0    0  0.32525298221E+02 -0.52674793610E+02  0.11442720115E+03  0.13010424001E+03  0.10000000000E+01 0.  0.
    9000005    1    3    3    0    0 -0.32525298221E+02  0.52674793610E+02  0.15493538423E+03  0.16684874046E+03  0.10000000000E+01 0.  0.
<mgrwt>
<rscale>  0 0.12499948E+03</rscale>
<asrwt>0</asrwt>
<pdfrwt beam="2">  1        4 0.21223378E-02 0.12499948E+03</pdfrwt>
<pdfrwt beam="1">  1       -4 0.43562741E-01 0.12499948E+03</pdfrwt>
<totfact> 0.75983518E+03</totfact>
</mgrwt>
</event>
<event>
 5    1  0.3434846E-002  0.1250035E+03  0.7818608E-02  0.1235064E+00
          4   -1    0    0  501    0  0.00000000000E+00  0.00000000000E+00  0.24239763255E+03  0.24240095950E+03  0.12700000000E+01 0. -1.
         -4   -1    0    0    0  501 -0.00000000000E+00 -0.00000000000E+00 -0.16087478251E+02  0.16137529442E+02  0.12700000000E+01 0. -1.
         25    2    1    2    0    0  0.00000000000E+00  0.00000000000E+00  0.22631015430E+03  0.25853848894E+03  0.12500345725E+03 0.  0.
    9000005    1    3    3    0    0 -0.35352802628E+02 -0.25149242312E+02  0.20126065263E+02  0.47836842972E+02  0.10000000000E+01 0.  0.
    9000005    1    3    3    0    0  0.35352802628E+02  0.25149242312E+02  0.20618408903E+03  0.21070164597E+03  0.10000000000E+01 0.  0.
<mgrwt>
<rscale>  0 0.12500346E+03</rscale>
<asrwt>0</asrwt>
<pdfrwt beam="1">  1        4 0.37296048E-01 0.12500346E+03</pdfrwt>
<pdfrwt beam="2">  1       -4 0.24791028E-02 0.12500346E+03</pdfrwt>
<totfact> 0.81105359E+03</totfact>
</mgrwt>
</event>
<event>
 5    1  0.3434846E-002  0.1250037E+03  0.7818608E-02  0.1235063E+00
         -4   -1    0    0    0  501 -0.00000000000E+00  0.00000000000E+00  0.27061993524E+02  0.27091777230E+02  0.12700000000E+01 0. -1.
          4   -1    0    0  501    0  0.00000000000E+00 -0.00000000000E+00 -0.14424113572E+03  0.14424672659E+03  0.12700000000E+01 0. -1.
         25    2    1    2    0    0  0.00000000000E+00  0.00000000000E+00 -0.11717914219E+03  0.17133850382E+03  0.12500372605E+03 0.  0.
    9000005    1    3    3    0    0  0.16911457090E+02  0.33900162421E+02 -0.12671413566E+03  0.13225993561E+03  0.10000000000E+01 0.  0.
    9000005    1    3    3    0    0 -0.16911457090E+02 -0.33900162421E+02  0.95349934642E+01  0.39078568211E+02  0.10000000000E+01 0.  0.
<mgrwt>
<rscale>  0 0.12500373E+03</rscale>
<asrwt>0</asrwt>
<pdfrwt beam="2">  1        4 0.22193665E-01 0.12500373E+03</pdfrwt>
<pdfrwt beam="1">  1       -4 0.41661048E-02 0.12500373E+03</pdfrwt>
<totfact> 0.95191785E+03</totfact>
</mgrwt>
</event>
<event>
 5    1  0.3434846E-002  0.1249976E+03  0.7818608E-02  0.1235073E+00
         -4   -1    0    0    0  501 -0.00000000000E+00  0.00000000000E+00  0.36297088066E+01  0.38454760460E+01  0.12700000000E+01 0.  1.
          4   -1    0    0  501    0  0.00000000000E+00 -0.00000000000E+00 -0.10448680284E+04  0.10448688002E+04  0.12700000000E+01 0.  1.
         25    2    1    2    0    0  0.00000000000E+00  0.00000000000E+00 -0.10412383196E+04  0.10487142763E+04  0.12499758019E+03 0.  0.
    9000005    1    3    3    0    0 -0.93837444928E+01 -0.33965068398E+02 -0.95360655992E+03  0.95425790625E+03  0.10000000000E+01 0.  0.
    9000005    1    3    3    0    0  0.93837444928E+01  0.33965068398E+02 -0.87631759692E+02  0.94456370027E+02  0.10000000000E+01 0.  0.
<mgrwt>
<rscale>  0 0.12499758E+03</rscale>
<asrwt>0</asrwt>
<pdfrwt beam="2">  1        4 0.16076535E+00 0.12499758E+03</pdfrwt>
<pdfrwt beam="1">  1       -4 0.57507442E-03 0.12499758E+03</pdfrwt>
<totfact> 0.29036525E+03</totfact>
</mgrwt>
</event>
<event>
 5    1  0.3434846E-002  0.1249823E+03  0.7818608E-02  0.1235097E+00
          4   -1    0    0  501    0  0.00000000000E+00  0.00000000000E+00  0.10951817898E+03  0.10952554235E+03  0.12700000000E+01 0.  1.
         -4   -1    0    0    0  501 -0.00000000000E+00 -0.00000000000E+00 -0.35637611435E+02  0.35660233437E+02  0.12700000000E+01 0.  1.
         25    2    1    2    0    0  0.00000000000E+00  0.00000000000E+00  0.73880567543E+02  0.14518577579E+03  0.12498228366E+03 0.  0.
    9000005    1    3    3    0    0  0.19909052736E+02  0.11382032493E+02  0.10445830277E+03  0.10695072726E+03  0.10000000000E+01 0.  0.
    9000005    1    3    3    0    0 -0.19909052736E+02 -0.11382032493E+02 -0.30577735223E+02  0.38235048527E+02  0.10000000000E+01 0.  0.
<mgrwt>
<rscale>  0 0.12498228E+03</rscale>
<asrwt>0</asrwt>
<pdfrwt beam="1">  1        4 0.16851257E-01 0.12498228E+03</pdfrwt>
<pdfrwt beam="2">  1       -4 0.54850160E-02 0.12498228E+03</pdfrwt>
<totfact> 0.10031216E+04</totfact>
</mgrwt>
</event>
<event>
 5    1  0.3434846E-002  0.1250039E+03  0.7818608E-02  0.1235063E+00
          4   -1    0    0  501    0  0.00000000000E+00  0.00000000000E+00  0.79617497323E+03  0.79617598613E+03  0.12700000000E+01 0.  1.
         -4   -1    0    0    0  501 -0.00000000000E+00 -0.00000000000E+00 -0.48233659020E+01  0.49877608829E+01  0.12700000000E+01 0.  1.
         25    2    1    2    0    0  0.00000000000E+00  0.00000000000E+00  0.79135160732E+03  0.80116374701E+03  0.12500393240E+03 0.  0.
    9000005    1    3    3    0    0 -0.12020926849E+02 -0.59593961566E+02  0.30289793519E+03  0.30894028886E+03  0.10000000000E+01 0.  0.
    9000005    1    3    3    0    0  0.12020926849E+02  0.59593961566E+02  0.48845367214E+03  0.49222345816E+03  0.10000000000E+01 0.  0.
<mgrwt>
<rscale>  0 0.12500393E+03</rscale>
<asrwt>0</asrwt>
<pdfrwt beam="1">  1        4 0.12250122E+00 0.12500393E+03</pdfrwt>
<pdfrwt beam="2">  1       -4 0.75477974E-03 0.12500393E+03</pdfrwt>
<totfact> 0.38209530E+03</totfact>
</mgrwt>
</event>
<event>
 5    1  0.3434846E-002  0.1250024E+03  0.7818608E-02  0.1235066E+00
          4   -1    0    0  501    0  0.00000000000E+00  0.00000000000E+00  0.58533608104E+03  0.58533745879E+03  0.12700000000E+01 0. -1.
         -4   -1    0    0    0  501 -0.00000000000E+00 -0.00000000000E+00 -0.66119560569E+01  0.67328198326E+01  0.12700000000E+01 0. -1.
         25    2    1    2    0    0  0.00000000000E+00  0.00000000000E+00  0.57872412498E+03  0.59207027863E+03  0.12500240796E+03 0.  0.
    9000005    1    3    3    0    0  0.55172804745E+02  0.26554004623E+02  0.34856737271E+03  0.35390587289E+03  0.10000000000E+01 0.  0.
    9000005    1    3    3    0    0 -0.55172804745E+02 -0.26554004623E+02  0.23015675227E+03  0.23816440574E+03  0.10000000000E+01 0.  0.
<mgrwt>
<rscale>  0 0.12500241E+03</rscale>
<asrwt>0</asrwt>
<pdfrwt beam="1">  1        4 0.90061121E-01 0.12500241E+03</pdfrwt>
<pdfrwt beam="2">  1       -4 0.10266270E-02 0.12500241E+03</pdfrwt>
<totfact> 0.49369400E+03</totfact>
</mgrwt>
</event>
<event>
 5    1  0.3434846E-002  0.1249999E+03  0.7818608E-02  0.1235069E+00
          4   -1    0    0  501    0  0.00000000000E+00  0.00000000000E+00  0.68187278396E+02  0.68199104357E+02  0.12700000000E+01 0. -1.
         -4   -1    0    0    0  501 -0.00000000000E+00 -0.00000000000E+00 -0.57263144248E+02  0.57277225746E+02  0.12700000000E+01 0. -1.
         25    2    1    2    0    0  0.00000000000E+00  0.00000000000E+00  0.10924134149E+02  0.12547633010E+03  0.12499989084E+03 0.  0.
    9000005    1    3    3    0    0 -0.23959634103E+02 -0.50618131088E+02  0.33298321830E+02  0.65161625961E+02  0.10000000000E+01 0.  0.
    9000005    1    3    3    0    0  0.23959634103E+02  0.50618131088E+02 -0.22374187682E+02  0.60314704141E+02  0.10000000000E+01 0.  0.
<mgrwt>
<rscale>  0 0.12499989E+03</rscale>
<asrwt>0</asrwt>
<pdfrwt beam="1">  1        4 0.10492343E-01 0.12499989E+03</pdfrwt>
<pdfrwt beam="2">  1       -4 0.88117074E-02 0.12499989E+03</pdfrwt>
<totfact> 0.10442503E+04</totfact>
</mgrwt>
</event>
<event>
 5    1  0.3434846E-002  0.1249984E+03  0.7818608E-02  0.1235072E+00
          4   -1    0    0  501    0  0.00000000000E+00  0.00000000000E+00  0.23389907679E+04  0.23389911127E+04  0.12700000000E+01 0. -1.
         -4   -1    0    0    0  501 -0.00000000000E+00 -0.00000000000E+00 -0.14281691808E+01  0.19111690686E+01  0.12700000000E+01 0. -1.
         25    2    1    2    0    0  0.00000000000E+00  0.00000000000E+00  0.23375625987E+04  0.23409022817E+04  0.12499835915E+03 0.  0.
    9000005    1    3    3    0    0 -0.37651609295E+02 -0.46921449998E+02  0.85213687628E+03  0.85425846327E+03  0.10000000000E+01 0.  0.
    9000005    1    3    3    0    0  0.37651609295E+02  0.46921449998E+02  0.14854257224E+04  0.14866438185E+04  0.10000000000E+01 0.  0.
<mgrwt>
<rscale>  0 0.12499836E+03</rscale>
<asrwt>0</asrwt>
<pdfrwt beam="1">  1        4 0.35988322E+00 0.12499836E+03</pdfrwt>
<pdfrwt beam="2">  1       -4 0.25689776E-03 0.12499836E+03</pdfrwt>
<totfact> 0.60426318E+02</totfact>
</mgrwt>
</event>
<event>
 5    1  0.3434846E-002  0.1250026E+03  0.7818608E-02  0.1235065E+00
          4   -1    0    0  501    0  0.00000000000E+00  0.00000000000E+00  0.54903794807E+02  0.54918481262E+02  0.12700000000E+01 0. -1.
         -4   -1    0    0    0  501 -0.00000000000E+00 -0.00000000000E+00 -0.71120254066E+02  0.71131592407E+02  0.12700000000E+01 0. -1.
         25    2    1    2    0    0  0.00000000000E+00  0.00000000000E+00 -0.16216459259E+02  0.12605007367E+03  0.12500259006E+03 0.  0.
    9000005    1    3    3    0    0  0.18865938466E+02  0.23293978276E+02 -0.63402744905E+02  0.70138727673E+02  0.10000000000E+01 0.  0.
    9000005    1    3    3    0    0 -0.18865938466E+02 -0.23293978276E+02  0.47186285646E+02  0.55911345997E+02  0.10000000000E+01 0.  0.
<mgrwt>
<rscale>  0 0.12500259E+03</rscale>
<asrwt>0</asrwt>
<pdfrwt beam="1">  1        4 0.84487395E-02 0.12500259E+03</pdfrwt>
<pdfrwt beam="2">  1       -4 0.10943580E-01 0.12500259E+03</pdfrwt>
<totfact> 0.10429250E+04</totfact>
</mgrwt>
</event>
<event>
 5    1  0.3434846E-002  0.1250030E+03  0.7818608E-02  0.1235065E+00
          4   -1    0    0  501    0  0.00000000000E+00  0.00000000000E+00  0.47264837440E+03  0.47265008063E+03  0.12700000000E+01 0. -1.
         -4   -1    0    0    0  501 -0.00000000000E+00 -0.00000000000E+00 -0.82144726237E+01  0.83120671608E+01  0.12700000000E+01 0. -1.
         25    2    1    2    0    0  0.00000000000E+00  0.00000000000E+00  0.46443390178E+03  0.48096214779E+03  0.12500295393E+03 0.  0.
    9000005    1    3    3    0    0 -0.14239113851E+02 -0.59204287699E+02  0.17814000117E+03  0.18826247651E+03  0.10000000000E+01 0.  0.
    9000005    1    3    3    0    0  0.14239113851E+02  0.59204287699E+02  0.28629390061E+03  0.29269967128E+03  0.10000000000E+01 0.  0.
<mgrwt>
<rscale>  0 0.12500295E+03</rscale>
<asrwt>0</asrwt>
<pdfrwt beam="1">  1        4 0.72722795E-01 0.12500295E+03</pdfrwt>
<pdfrwt beam="2">  1       -4 0.12714032E-02 0.12500295E+03</pdfrwt>
<totfact> 0.57368586E+03</totfact>
</mgrwt>
</event>
<event>
 4    1  0.3434846E-002  0.1252107E+03  0.7818608E-02  0.1234740E+00
         -4   -1    0    0    0  501 -0.00000000000E+00  0.00000000000E+00  0.96106307081E+02  0.96114697944E+02  0.12700000000E+01 0.  1.
          4   -1    0    0  501    0  0.00000000000E+00 -0.00000000000E+00 -0.40762204391E+02  0.40781983851E+02  0.12700000000E+01 0.  1.
    9000005    1    1    2    0    0  0.28937516335E+02  0.42871564544E+02 -0.10875891259E+02  0.52864316025E+02  0.10000000000E+01 0.  0.
    9000005    1    1    2    0    0 -0.28937516335E+02 -0.42871564544E+02  0.66219993950E+02  0.84032365770E+02  0.10000000000E+01 0.  0.
<mgrwt>
<rscale>  0 0.12521075E+03</rscale>
<asrwt>0</asrwt>
<pdfrwt beam="2">  1        4 0.62732754E-02 0.12521075E+03</pdfrwt>
<pdfrwt beam="1">  1       -4 0.14787753E-01 0.12521075E+03</pdfrwt>
<totfact> 0.10149936E+04</totfact>
</mgrwt>
</event>
<event>
 5    1  0.3434846E-002  0.1250061E+03  0.7818608E-02  0.1235060E+00
          4   -1    0    0  501    0  0.00000000000E+00  0.00000000000E+00  0.12187736966E+03  0.12188398638E+03  0.12700000000E+01 0.  1.
         -4   -1    0    0    0  501 -0.00000000000E+00 -0.00000000000E+00 -0.32033713982E+02  0.32058879137E+02  0.12700000000E+01 0.  1.
         25    2    1    2    0    0  0.00000000000E+00  0.00000000000E+00  0.89843655678E+02  0.15394286551E+03  0.12500609336E+03 0.  0.
    9000005    1    3    3    0    0 -0.30916570284E+02  0.53956118719E+02  0.37277326093E+02  0.72509972459E+02  0.10000000000E+01 0.  0.
    9000005    1    3    3    0    0  0.30916570284E+02 -0.53956118719E+02  0.52566329585E+02  0.81432893056E+02  0.10000000000E+01 0.  0.
<mgrwt>
<rscale>  0 0.12500609E+03</rscale>
<asrwt>0</asrwt>
<pdfrwt beam="1">  1        4 0.18752809E-01 0.12500609E+03</pdfrwt>
<pdfrwt beam="2">  1       -4 0.49307084E-02 0.12500609E+03</pdfrwt>
<totfact> 0.98509926E+03</totfact>
</mgrwt>
</event>
<event>
 5    1  0.3434846E-002  0.1250024E+03  0.7818608E-02  0.1235066E+00
          4   -1    0    0  501    0  0.00000000000E+00  0.00000000000E+00  0.14916052234E+04  0.14916057641E+04  0.12700000000E+01 0.  1.
         -4   -1    0    0    0  501 -0.00000000000E+00 -0.00000000000E+00 -0.24643824216E+01  0.27723781704E+01  0.12700000000E+01 0.  1.
         25    2    1    2    0    0  0.00000000000E+00  0.00000000000E+00  0.14891408410E+04  0.14943781423E+04  0.12500235079E+03 0.  0.
    9000005    1    3    3    0    0  0.19297973757E+02  0.26278588003E+00  0.33996953387E+02  0.39105929054E+02  0.10000000000E+01 0.  0.
    9000005    1    3    3    0    0 -0.19297973757E+02 -0.26278588003E+00  0.14551438876E+04  0.14552722132E+04  0.10000000000E+01 0.  0.
<mgrwt>
<rscale>  0 0.12500235E+03</rscale>
<asrwt>0</asrwt>
<pdfrwt beam="1">  1        4 0.22950118E+00 0.12500235E+03</pdfrwt>
<pdfrwt beam="2">  1       -4 0.40286981E-03 0.12500235E+03</pdfrwt>
<totfact> 0.18040354E+03</totfact>
</mgrwt>
</event>
<event>
 5    1  0.3434846E-002  0.1249970E+03  0.7818608E-02  0.1235074E+00
          4   -1    0    0  501    0  0.00000000000E+00  0.00000000000E+00  0.20563116016E+02  0.20602296966E+02  0.12700000000E+01 0. -1.
         -4   -1    0    0    0  501 -0.00000000000E+00 -0.00000000000E+00 -0.18973262681E+03  0.18973687721E+03  0.12700000000E+01 0. -1.
         25    2    1    2    0    0  0.00000000000E+00  0.00000000000E+00 -0.16916951079E+03  0.21033917418E+03  0.12499697922E+03 0.  0.
    9000005    1    3    3    0    0  0.34389481070E+02 -0.19939762599E+02 -0.16572126284E+03  0.17042525487E+03  0.10000000000E+01 0.  0.
    9000005    1    3    3    0    0 -0.34389481070E+02  0.19939762599E+02 -0.34482479521E+01  0.39913919310E+02  0.10000000000E+01 0.  0.
<mgrwt>
<rscale>  0 0.12499698E+03</rscale>
<asrwt>0</asrwt>
<pdfrwt beam="1">  1        4 0.31668973E-02 0.12499698E+03</pdfrwt>
<pdfrwt beam="2">  1       -4 0.29192975E-01 0.12499698E+03</pdfrwt>
<totfact> 0.88426491E+03</totfact>
</mgrwt>
</event>
<event>
 5    1  0.3434846E-002  0.1249953E+03  0.7818608E-02  0.1235077E+00
         -4   -1    0    0    0  501 -0.00000000000E+00  0.00000000000E+00  0.23314805235E+03  0.23315151129E+03  0.12700000000E+01 0.  1.
          4   -1    0    0  501    0  0.00000000000E+00 -0.00000000000E+00 -0.16725449821E+02  0.16773597459E+02  0.12700000000E+01 0.  1.
         25    2    1    2    0    0  0.00000000000E+00  0.00000000000E+00  0.21642260253E+03  0.24992510875E+03  0.12499526829E+03 0.  0.
    9000005    1    3    3    0    0  0.52469764390E+02 -0.25704195068E+02  0.63898080316E+02  0.86589528739E+02  0.10000000000E+01 0.  0.
    9000005    1    3    3    0    0 -0.52469764390E+02  0.25704195068E+02  0.15252452222E+03  0.16333558001E+03  0.10000000000E+01 0.  0.
<mgrwt>
<rscale>  0 0.12499527E+03</rscale>
<asrwt>0</asrwt>
<pdfrwt beam="2">  1        4 0.25771159E-02 0.12499527E+03</pdfrwt>
<pdfrwt beam="1">  1       -4 0.35872901E-01 0.12499527E+03</pdfrwt>
<totfact> 0.82349732E+03</totfact>
</mgrwt>
</event>
<event>
 5    1  0.3434846E-002  0.1249998E+03  0.7818608E-02  0.1235070E+00
         -4   -1    0    0    0  501 -0.00000000000E+00  0.00000000000E+00  0.14042897200E+03  0.14043471464E+03  0.12700000000E+01 0. -1.
          4   -1    0    0  501    0  0.00000000000E+00 -0.00000000000E+00 -0.27795672439E+02  0.27824670821E+02  0.12700000000E+01 0. -1.
         25    2    1    2    0    0  0.00000000000E+00  0.00000000000E+00  0.11263329956E+03  0.16825938546E+03  0.12499984251E+03 0.  0.
    9000005    1    3    3    0    0 -0.25370506941E+02 -0.39684042144E+01  0.13300557846E+03  0.13546547441E+03  0.10000000000E+01 0.  0.
    9000005    1    3    3    0    0  0.25370506941E+02  0.39684042144E+01 -0.20372278904E+02  0.32793911054E+02  0.10000000000E+01 0.  0.
<mgrwt>
<rscale>  0 0.12499984E+03</rscale>
<asrwt>0</asrwt>
<pdfrwt beam="2">  1        4 0.42789296E-02 0.12499984E+03</pdfrwt>
<pdfrwt beam="1">  1       -4 0.21607130E-01 0.12499984E+03</pdfrwt>
<totfact> 0.95773991E+03</totfact>
</mgrwt>
</event>
<event>
 5    1  0.3434846E-002  0.1249947E+03  0.7818608E-02  0.1235078E+00
          4   -1    0    0  501    0  0.00000000000E+00  0.00000000000E+00  0.54071195935E+02  0.54086108474E+02  0.12700000000E+01 0.  1.
         -4   -1    0    0    0  501 -0.00000000000E+00 -0.00000000000E+00 -0.72206161700E+02  0.72217329551E+02  0.12700000000E+01 0.  1.
         25    2    1    2    0    0  0.00000000000E+00  0.00000000000E+00 -0.18134965765E+02  0.12630343802E+03  0.12499472578E+03 0.  0.
    9000005    1    3    3    0    0  0.50057052905E+02  0.26820322522E+02  0.17280070620E+02  0.59368670916E+02  0.10000000000E+01 0.  0.
    9000005    1    3    3    0    0 -0.50057052905E+02 -0.26820322522E+02 -0.35415036385E+02  0.66934767108E+02  0.10000000000E+01 0.  0.
<mgrwt>
<rscale>  0 0.12499473E+03</rscale>
<asrwt>0</asrwt>
<pdfrwt beam="1">  1        4 0.83206517E-02 0.12499473E+03</pdfrwt>
<pdfrwt beam="2">  1       -4 0.11110646E-01 0.12499473E+03</pdfrwt>
<totfact> 0.10425559E+04</totfact>
</mgrwt>
</event>
<event>
 5    1  0.3434846E-002  0.1250015E+03  0.7818608E-02  0.1235067E+00
         -4   -1    0    0    0  501 -0.00000000000E+00  0.00000000000E+00  0.30683728894E+03  0.30683991720E+03  0.12700000000E+01 0.  1.
          4   -1    0    0  501    0  0.00000000000E+00 -0.00000000000E+00 -0.12696628889E+02  0.12759987662E+02  0.12700000000E+01 0.  1.
         25    2    1    2    0    0  0.00000000000E+00  0.00000000000E+00  0.29414066005E+03  0.31959990486E+03  0.12500148515E+03 0.  0.
    9000005    1    3    3    0    0 -0.97989573620E+01  0.51913522308E+02  0.23241853212E+03  0.23834933907E+03  0.10000000000E+01 0.  0.
    9000005    1    3    3    0    0  0.97989573620E+01 -0.51913522308E+02  0.61722127933E+02  0.81250565785E+02  0.10000000000E+01 0.  0.
<mgrwt>
<rscale>  0 0.12500149E+03</rscale>
<asrwt>0</asrwt>
<pdfrwt beam="2">  1        4 0.19584037E-02 0.12500149E+03</pdfrwt>
<pdfrwt beam="1">  1       -4 0.47210806E-01 0.12500149E+03</pdfrwt>
<totfact> 0.73201329E+03</totfact>
</mgrwt>
</event>
<event>
 5    1  0.3434846E-002  0.1249940E+03  0.7818608E-02  0.1235079E+00
          4   -1    0    0  501    0  0.00000000000E+00  0.00000000000E+00  0.17312638400E+02  0.17359157478E+02  0.12700000000E+01 0.  1.
         -4   -1    0    0    0  501 -0.00000000000E+00 -0.00000000000E+00 -0.22525745385E+03  0.22526103395E+03  0.12700000000E+01 0.  1.
         25    2    1    2    0    0  0.00000000000E+00  0.00000000000E+00 -0.20794481545E+03  0.24262019143E+03  0.12499404392E+03 0.  0.
    9000005    1    3    3    0    0  0.65878773547E+01 -0.62098979409E+02 -0.99548515184E+02  0.11751846768E+03  0.10000000000E+01 0.  0.
    9000005    1    3    3    0    0 -0.65878773547E+01  0.62098979409E+02 -0.10839630027E+03  0.12510172375E+03  0.10000000000E+01 0.  0.
<mgrwt>
<rscale>  0 0.12499404E+03</rscale>
<asrwt>0</asrwt>
<pdfrwt beam="1">  1        4 0.26673368E-02 0.12499404E+03</pdfrwt>
<pdfrwt beam="2">  1       -4 0.34658845E-01 0.12499404E+03</pdfrwt>
<totfact> 0.83419752E+03</totfact>
</mgrwt>
</event>
<event>
 5    1  0.3434846E-002  0.1250025E+03  0.7818608E-02  0.1235065E+00
         -4   -1    0    0    0  501 -0.00000000000E+00  0.00000000000E+00  0.51466995098E+02  0.51482661979E+02  0.12700000000E+01 0.  1.
          4   -1    0    0  501    0  0.00000000000E+00 -0.00000000000E+00 -0.75868704324E+02  0.75879333127E+02  0.12700000000E+01 0.  1.
         25    2    1    2    0    0  0.00000000000E+00  0.00000000000E+00 -0.24401709226E+02  0.12736199511E+03  0.12500253751E+03 0.  0.
    9000005    1    3    3    0    0  0.56077239481E+02  0.10034033690E+02 -0.38377622010E+02  0.68696291683E+02  0.10000000000E+01 0.  0.
    9000005    1    3    3    0    0 -0.56077239481E+02 -0.10034033690E+02  0.13975912784E+02  0.58665703422E+02  0.10000000000E+01 0.  0.
<mgrwt>
<rscale>  0 0.12500254E+03</rscale>
<asrwt>0</asrwt>
<pdfrwt beam="2">  1        4 0.11674131E-01 0.12500254E+03</pdfrwt>
<pdfrwt beam="1">  1       -4 0.79200220E-02 0.12500254E+03</pdfrwt>
<totfact> 0.10400695E+04</totfact>
</mgrwt>
</event>
<event>
 5    1  0.3434846E-002  0.1249989E+03  0.7818608E-02  0.1235071E+00
          4   -1    0    0  501    0  0.00000000000E+00  0.00000000000E+00  0.31828084669E+03  0.31828338045E+03  0.12700000000E+01 0. -1.
         -4   -1    0    0    0  501 -0.00000000000E+00 -0.00000000000E+00 -0.12237309738E+02  0.12303034164E+02  0.12700000000E+01 0. -1.
         25    2    1    2    0    0  0.00000000000E+00  0.00000000000E+00  0.30604353695E+03  0.33058641461E+03  0.12499892406E+03 0.  0.
    9000005    1    3    3    0    0  0.74009338714E+01 -0.35841617649E+02  0.19057474504E+02  0.41274480159E+02  0.10000000000E+01 0.  0.
    9000005    1    3    3    0    0 -0.74009338714E+01  0.35841617649E+02  0.28698606245E+03  0.28931193445E+03  0.10000000000E+01 0.  0.
<mgrwt>
<rscale>  0 0.12499892E+03</rscale>
<asrwt>0</asrwt>
<pdfrwt beam="1">  1        4 0.48971532E-01 0.12499892E+03</pdfrwt>
<pdfrwt beam="2">  1       -4 0.18879138E-02 0.12499892E+03</pdfrwt>
<totfact> 0.71916169E+03</totfact>
</mgrwt>
</event>
<event>
 5    1  0.3434846E-002  0.1250045E+03  0.7818608E-02  0.1235062E+00
          4   -1    0    0  501    0  0.00000000000E+00  0.00000000000E+00  0.60450262345E+01  0.61769929719E+01  0.12700000000E+01 0.  1.
         -4   -1    0    0    0  501 -0.00000000000E+00 -0.00000000000E+00 -0.63912838324E+03  0.63912964503E+03  0.12700000000E+01 0.  1.
         25    2    1    2    0    0  0.00000000000E+00  0.00000000000E+00 -0.63308335700E+03  0.64530663800E+03  0.12500448047E+03 0.  0.
    9000005    1    3    3    0    0  0.29257568248E+01  0.54211415262E+02 -0.15675364240E+03  0.16589195883E+03  0.10000000000E+01 0.  0.
    9000005    1    3    3    0    0 -0.29257568248E+01 -0.54211415262E+02 -0.47632971460E+03  0.47941467918E+03  0.10000000000E+01 0.  0.
<mgrwt>
<rscale>  0 0.12500448E+03</rscale>
<asrwt>0</asrwt>
<pdfrwt beam="1">  1        4 0.94025289E-03 0.12500448E+03</pdfrwt>
<pdfrwt beam="2">  1       -4 0.98337639E-01 0.12500448E+03</pdfrwt>
<totfact> 0.46122535E+03</totfact>
</mgrwt>
</event>
<event>
 5    1  0.3434846E-002  0.1250137E+03  0.7818608E-02  0.1235048E+00
          4   -1    0    0  501    0  0.00000000000E+00  0.00000000000E+00  0.84998229621E+03  0.84998324500E+03  0.12700000000E+01 0. -1.
         -4   -1    0    0    0  501 -0.00000000000E+00 -0.00000000000E+00 -0.45080011448E+01  0.46834788695E+01  0.12700000000E+01 0. -1.
         25    2    1    2    0    0  0.00000000000E+00  0.00000000000E+00  0.84547429507E+03  0.85466672387E+03  0.12501370030E+03 0.  0.
    9000005    1    3    3    0    0 -0.94403805313E+01  0.61345711396E+02  0.47283080609E+03  0.47688823458E+03  0.10000000000E+01 0.  0.
    9000005    1    3    3    0    0  0.94403805313E+01 -0.61345711396E+02  0.37264348897E+03  0.37777848928E+03  0.10000000000E+01 0.  0.
<mgrwt>
<rscale>  0 0.12501370E+03</rscale>
<asrwt>0</asrwt>
<pdfrwt beam="1">  1        4 0.13077995E+00 0.12501370E+03</pdfrwt>
<pdfrwt beam="2">  1       -4 0.70711059E-03 0.12501370E+03</pdfrwt>
<totfact> 0.35926397E+03</totfact>
</mgrwt>
</event>
<event>
 5    1  0.3434846E-002  0.1250009E+03  0.7818608E-02  0.1235068E+00
         -4   -1    0    0    0  501 -0.00000000000E+00  0.00000000000E+00  0.74894893644E+03  0.74895001322E+03  0.12700000000E+01 0.  1.
          4   -1    0    0  501    0  0.00000000000E+00 -0.00000000000E+00 -0.51373157194E+01  0.52919668179E+01  0.12700000000E+01 0.  1.
         25    2    1    2    0    0  0.00000000000E+00  0.00000000000E+00  0.74381162072E+03  0.75424198004E+03  0.12500094930E+03 0.  0.
    9000005    1    3    3    0    0  0.37896437215E+02 -0.14293424648E+02  0.84749225865E+02  0.93935473739E+02  0.10000000000E+01 0.  0.
    9000005    1    3    3    0    0 -0.37896437215E+02  0.14293424648E+02  0.65906239486E+03  0.66030650630E+03  0.10000000000E+01 0.  0.
<mgrwt>
<rscale>  0 0.12500095E+03</rscale>
<asrwt>0</asrwt>
<pdfrwt beam="2">  1        4 0.80233579E-03 0.12500095E+03</pdfrwt>
<pdfrwt beam="1">  1       -4 0.11523483E+00 0.12500095E+03</pdfrwt>
<totfact> 0.40371241E+03</totfact>
</mgrwt>
</event>
<event>
 5    1  0.3434846E-002  0.1249993E+03  0.7818608E-02  0.1235070E+00
          4   -1    0    0  501    0  0.00000000000E+00  0.00000000000E+00  0.46436071312E+02  0.46453434953E+02  0.12700000000E+01 0.  1.
         -4   -1    0    0    0  501 -0.00000000000E+00 -0.00000000000E+00 -0.84082135131E+02  0.84091725801E+02  0.12700000000E+01 0.  1.
         25    2    1    2    0    0  0.00000000000E+00  0.00000000000E+00 -0.37646063819E+02  0.13054516075E+03  0.12499925150E+03 0.  0.
    9000005    1    3    3    0    0  0.60459517684E+02 -0.43985447374E+01 -0.29671130317E+01  0.60700117250E+02  0.10000000000E+01 0.  0.
    9000005    1    3    3    0    0 -0.60459517684E+02  0.43985447374E+01 -0.34678950788E+02  0.69845043504E+02  0.10000000000E+01 0.  0.
<mgrwt>
<rscale>  0 0.12499925E+03</rscale>
<asrwt>0</asrwt>
<pdfrwt beam="1">  1        4 0.71460844E-02 0.12499925E+03</pdfrwt>
<pdfrwt beam="2">  1       -4 0.12937786E-01 0.12499925E+03</pdfrwt>
<totfact> 0.10333025E+04</totfact>
</mgrwt>
</event>
<event>
 5    1  0.3434846E-002  0.1250039E+03  0.7818608E-02  0.1235063E+00
         -4   -1    0    0    0  501 -0.00000000000E+00  0.00000000000E+00  0.27032111053E+03  0.27032409381E+03  0.12700000000E+01 0.  1.
          4   -1    0    0  501    0  0.00000000000E+00 -0.00000000000E+00 -0.14420330605E+02  0.14476147096E+02  0.12700000000E+01 0.  1.
         25    2    1    2    0    0  0.00000000000E+00  0.00000000000E+00  0.25590077992E+03  0.28480024091E+03  0.12500387217E+03 0.  0.
    9000005    1    3    3    0    0 -0.55591004574E+02  0.20611112679E+02  0.17296195307E+03  0.18284423689E+03  0.10000000000E+01 0.  0.
    9000005    1    3    3    0    0  0.55591004574E+02 -0.20611112679E+02  0.82938826849E+02  0.10195600401E+03  0.10000000000E+01 0.  0.
<mgrwt>
<rscale>  0 0.12500387E+03</rscale>
<asrwt>0</asrwt>
<pdfrwt beam="2">  1        4 0.22230353E-02 0.12500387E+03</pdfrwt>
<pdfrwt beam="1">  1       -4 0.41592388E-01 0.12500387E+03</pdfrwt>
<totfact> 0.77539228E+03</totfact>
</mgrwt>
</event>
<event>
 5    1  0.3434846E-002  0.1249963E+03  0.7818608E-02  0.1235075E+00
          4   -1    0    0  501    0  0.00000000000E+00  0.00000000000E+00  0.11582518253E+02  0.11651936709E+02  0.12700000000E+01 0.  1.
         -4   -1    0    0    0  501 -0.00000000000E+00 -0.00000000000E+00 -0.33615586744E+03  0.33615826646E+03  0.12700000000E+01 0.  1.
         25    2    1    2    0    0  0.00000000000E+00  0.00000000000E+00 -0.32457334918E+03  0.34781020317E+03  0.12499631367E+03 0.  0.
    9000005    1    3    3    0    0 -0.54427194799E+00  0.56469404935E+02 -0.87834001131E+02  0.10442653724E+03  0.10000000000E+01 0.  0.
    9000005    1    3    3    0    0  0.54427194799E+00 -0.56469404935E+02 -0.23673934805E+03  0.24338366593E+03  0.10000000000E+01 0.  0.
<mgrwt>
<rscale>  0 0.12499631E+03</rscale>
<asrwt>0</asrwt>
<pdfrwt beam="1">  1        4 0.17874506E-02 0.12499631E+03</pdfrwt>
<pdfrwt beam="2">  1       -4 0.51721804E-01 0.12499631E+03</pdfrwt>
<totfact> 0.69971846E+03</totfact>
</mgrwt>
</event>
<event>
 5    1  0.3434846E-002  0.1249992E+03  0.7818608E-02  0.1235071E+00
         -4   -1    0    0    0  501 -0.00000000000E+00  0.00000000000E+00  0.61950596128E+02  0.61963612392E+02  0.12700000000E+01 0. -1.
          4   -1    0    0  501    0  0.00000000000E+00 -0.00000000000E+00 -0.63027440961E+02  0.63040234883E+02  0.12700000000E+01 0. -1.
         25    2    1    2    0    0  0.00000000000E+00  0.00000000000E+00 -0.10768448324E+01  0.12500384727E+03  0.12499920895E+03 0.  0.
    9000005    1    3    3    0    0 -0.27137367165E+02  0.23730224469E+02  0.50508944679E+02  0.62062176424E+02  0.10000000000E+01 0.  0.
    9000005    1    3    3    0    0  0.27137367165E+02 -0.23730224469E+02 -0.51585789511E+02  0.62941670851E+02  0.10000000000E+01 0.  0.
<mgrwt>
<rscale>  0 0.12499921E+03</rscale>
<asrwt>0</asrwt>
<pdfrwt beam="2">  1        4 0.96985148E-02 0.12499921E+03</pdfrwt>
<pdfrwt beam="1">  1       -4 0.95328463E-02 0.12499921E+03</pdfrwt>
<totfact> 0.10452966E+04</totfact>
</mgrwt>
</event>
<event>
 5    1  0.3434846E-002  0.1249993E+03  0.7818608E-02  0.1235070E+00
          4   -1    0    0  501    0  0.00000000000E+00  0.00000000000E+00  0.31297916588E+02  0.31323672881E+02  0.12700000000E+01 0.  1.
         -4   -1    0    0    0  501 -0.00000000000E+00 -0.00000000000E+00 -0.12472690180E+03  0.12473336736E+03  0.12700000000E+01 0.  1.
         25    2    1    2    0    0  0.00000000000E+00  0.00000000000E+00 -0.93428985215E+02  0.15605704024E+03  0.12499929812E+03 0.  0.
    9000005    1    3    3    0    0  0.36429806062E+02  0.28981662163E+01  0.16572575302E+02  0.40139511572E+02  0.10000000000E+01 0.  0.
    9000005    1    3    3    0    0 -0.36429806062E+02 -0.28981662163E+01 -0.11000156052E+03  0.11591752867E+03  0.10000000000E+01 0.  0.
<mgrwt>
<rscale>  0 0.12499930E+03</rscale>
<asrwt>0</asrwt>
<pdfrwt beam="1">  1        4 0.48175427E-02 0.12499930E+03</pdfrwt>
<pdfrwt beam="2">  1       -4 0.19191233E-01 0.12499930E+03</pdfrwt>
<totfact> 0.98109936E+03</totfact>
</mgrwt>
</event>
<event>
 5    1  0.3434846E-002  0.1250015E+03  0.7818608E-02  0.1235067E+00
          4   -1    0    0  501    0  0.00000000000E+00  0.00000000000E+00  0.13208397131E+02  0.13269312521E+02  0.12700000000E+01 0. -1.
         -4   -1    0    0    0  501 -0.00000000000E+00 -0.00000000000E+00 -0.29500408808E+03  0.29500682176E+03  0.12700000000E+01 0. -1.
         25    2    1    2    0    0  0.00000000000E+00  0.00000000000E+00 -0.28179569095E+03  0.30827613428E+03  0.12500145411E+03 0.  0.
    9000005    1    3    3    0    0 -0.37402062759E+01 -0.23105393017E+02 -0.28379789139E+03  0.28476322004E+03  0.10000000000E+01 0.  0.
    9000005    1    3    3    0    0  0.37402062759E+01  0.23105393017E+02  0.20022004407E+01  0.23512914240E+02  0.10000000000E+01 0.  0.
<mgrwt>
<rscale>  0 0.12500145E+03</rscale>
<asrwt>0</asrwt>
<pdfrwt beam="1">  1        4 0.20369574E-02 0.12500145E+03</pdfrwt>
<pdfrwt beam="2">  1       -4 0.45390135E-01 0.12500145E+03</pdfrwt>
<totfact> 0.74569882E+03</totfact>
</mgrwt>
</event>
<event>
 5    1  0.3434846E-002  0.1249928E+03  0.7818608E-02  0.1235081E+00
          4   -1    0    0  501    0  0.00000000000E+00  0.00000000000E+00  0.37958554585E+01  0.40026764373E+01  0.12700000000E+01 0.  1.
         -4   -1    0    0    0  501 -0.00000000000E+00 -0.00000000000E+00 -0.10014683690E+04  0.10014691742E+04  0.12700000000E+01 0.  1.
         25    2    1    2    0    0  0.00000000000E+00  0.00000000000E+00 -0.99767251352E+03  0.10054718507E+04  0.12499279292E+03 0.  0.
    9000005    1    3    3    0    0  0.16957246406E+02  0.14597280695E+02 -0.96817954620E+03  0.96843856929E+03  0.10000000000E+01 0.  0.
    9000005    1    3    3    0    0 -0.16957246406E+02 -0.14597280695E+02 -0.29492967320E+02  0.37033281393E+02  0.10000000000E+01 0.  0.
<mgrwt>
<rscale>  0 0.12499279E+03</rscale>
<asrwt>0</asrwt>
<pdfrwt beam="1">  1        4 0.59994981E-03 0.12499279E+03</pdfrwt>
<pdfrwt beam="2">  1       -4 0.15408782E+00 0.12499279E+03</pdfrwt>
<totfact> 0.30429319E+03</totfact>
</mgrwt>
</event>
<event>
 5    1  0.3434846E-002  0.1250005E+03  0.7818608E-02  0.1235068E+00
          4   -1    0    0  501    0  0.00000000000E+00  0.00000000000E+00  0.48876403447E+02  0.48892900445E+02  0.12700000000E+01 0. -1.
         -4   -1    0    0    0  501 -0.00000000000E+00 -0.00000000000E+00 -0.79886600799E+02  0.79896695095E+02  0.12700000000E+01 0. -1.
         25    2    1    2    0    0  0.00000000000E+00  0.00000000000E+00 -0.31010197352E+02  0.12878959554E+03  0.12500051032E+03 0.  0.
    9000005    1    3    3    0    0  0.41044044867E+02  0.47007590833E+02 -0.12094985129E+02  0.63573704314E+02  0.10000000000E+01 0.  0.
    9000005    1    3    3    0    0 -0.41044044867E+02 -0.47007590833E+02 -0.18915212222E+02  0.65215891226E+02  0.10000000000E+01 0.  0.
<mgrwt>
<rscale>  0 0.12500051E+03</rscale>
<asrwt>0</asrwt>
<pdfrwt beam="1">  1        4 0.75214922E-02 0.12500051E+03</pdfrwt>
<pdfrwt beam="2">  1       -4 0.12292292E-01 0.12500051E+03</pdfrwt>
<totfact> 0.10370351E+04</totfact>
</mgrwt>
</event>
<event>
 5    1  0.3434846E-002  0.1250015E+03  0.7818608E-02  0.1235067E+00
          4   -1    0    0  501    0  0.00000000000E+00  0.00000000000E+00  0.28480942891E+03  0.28481226044E+03  0.12700000000E+01 0.  1.
         -4   -1    0    0    0  501 -0.00000000000E+00 -0.00000000000E+00 -0.13683326208E+02  0.13742136519E+02  0.12700000000E+01 0.  1.
         25    2    1    2    0    0  0.00000000000E+00  0.00000000000E+00  0.27112610270E+03  0.29855439695E+03  0.12500145749E+03 0.  0.
    9000005    1    3    3    0    0  0.28316540521E+02  0.18496974125E+02  0.10055108009E+02  0.35299712689E+02  0.10000000000E+01 0.  0.
    9000005    1    3    3    0    0 -0.28316540521E+02 -0.18496974125E+02  0.26107099469E+03  0.26325468426E+03  0.10000000000E+01 0.  0.
<mgrwt>
<rscale>  0 0.12500146E+03</rscale>
<asrwt>0</asrwt>
<pdfrwt beam="1">  1        4 0.43821581E-01 0.12500146E+03</pdfrwt>
<pdfrwt beam="2">  1       -4 0.21098686E-02 0.12500146E+03</pdfrwt>
<totfact> 0.75778074E+03</totfact>
</mgrwt>
</event>
<event>
 5    1  0.3434846E-002  0.1250024E+03  0.7818608E-02  0.1235066E+00
          4   -1    0    0  501    0  0.00000000000E+00  0.00000000000E+00  0.16375730413E+03  0.16376222872E+03  0.12700000000E+01 0. -1.
         -4   -1    0    0    0  501 -0.00000000000E+00 -0.00000000000E+00 -0.23832622146E+02  0.23866436230E+02  0.12700000000E+01 0. -1.
         25    2    1    2    0    0  0.00000000000E+00  0.00000000000E+00  0.13992468198E+03  0.18762866495E+03  0.12500239711E+03 0.  0.
    9000005    1    3    3    0    0  0.14051397523E+02 -0.40305032686E+02  0.13847545062E+03  0.14490820493E+03  0.10000000000E+01 0.  0.
    9000005    1    3    3    0    0 -0.14051397523E+02  0.40305032686E+02  0.14492313567E+01  0.42720460013E+02  0.10000000000E+01 0.  0.
<mgrwt>
<rscale>  0 0.12500240E+03</rscale>
<asrwt>0</asrwt>
<pdfrwt beam="1">  1        4 0.25196412E-01 0.12500240E+03</pdfrwt>
<pdfrwt beam="2">  1       -4 0.36695371E-02 0.12500240E+03</pdfrwt>
<totfact> 0.92256608E+03</totfact>
</mgrwt>
</event>
<event>
 5    1  0.3434846E-002  0.1249991E+03  0.7818608E-02  0.1235071E+00
          4   -1    0    0  501    0  0.00000000000E+00  0.00000000000E+00  0.27454530885E+02  0.27483889210E+02  0.12700000000E+01 0.  1.
         -4   -1    0    0    0  501 -0.00000000000E+00 -0.00000000000E+00 -0.14217043358E+03  0.14217610589E+03  0.12700000000E+01 0.  1.
         25    2    1    2    0    0  0.00000000000E+00  0.00000000000E+00 -0.11471590270E+03  0.16965999510E+03  0.12499910241E+03 0.  0.
    9000005    1    3    3    0    0  0.35471213984E+02  0.48419900981E+02 -0.33751250618E+02  0.68868285522E+02  0.10000000000E+01 0.  0.
    9000005    1    3    3    0    0 -0.35471213984E+02 -0.48419900981E+02 -0.80964652079E+02  0.10079170957E+03  0.10000000000E+01 0.  0.
<mgrwt>
<rscale>  0 0.12499910E+03</rscale>
<asrwt>0</asrwt>
<pdfrwt beam="1">  1        4 0.42264687E-02 0.12499910E+03</pdfrwt>
<pdfrwt beam="2">  1       -4 0.21875069E-01 0.12499910E+03</pdfrwt>
<totfact> 0.95513971E+03</totfact>
</mgrwt>
</event>
<event>
 5    1  0.3434846E-002  0.1250049E+03  0.7818608E-02  0.1235062E+00
         -4   -1    0    0    0  501 -0.00000000000E+00  0.00000000000E+00  0.18131039532E+03  0.18131484316E+03  0.12700000000E+01 0.  1.
          4   -1    0    0  501    0  0.00000000000E+00 -0.00000000000E+00 -0.21522804511E+02  0.21560241511E+02  0.12700000000E+01 0.  1.
         25    2    1    2    0    0  0.00000000000E+00  0.00000000000E+00  0.15978759080E+03  0.20287508467E+03  0.12500490312E+03 0.  0.
    9000005    1    3    3    0    0  0.50607985096E+02  0.31351876426E+02  0.49038858437E+02  0.77135711235E+02  0.10000000000E+01 0.  0.
    9000005    1    3    3    0    0 -0.50607985096E+02 -0.31351876426E+02  0.11074873237E+03  0.12573937344E+03  0.10000000000E+01 0.  0.
<mgrwt>
<rscale>  0 0.12500490E+03</rscale>
<asrwt>0</asrwt>
<pdfrwt beam="2">  1        4 0.33144224E-02 0.12500490E+03</pdfrwt>
<pdfrwt beam="1">  1       -4 0.27897131E-01 0.12500490E+03</pdfrwt>
<totfact> 0.89643020E+03</totfact>
</mgrwt>
</event>
<event>
 5    1  0.3434846E-002  0.1249989E+03  0.7818608E-02  0.1235071E+00
          4   -1    0    0  501    0  0.00000000000E+00  0.00000000000E+00  0.17514935674E+03  0.17515396103E+03  0.12700000000E+01 0.  1.
         -4   -1    0    0    0  501 -0.00000000000E+00 -0.00000000000E+00 -0.22279030219E+02  0.22315198576E+02  0.12700000000E+01 0.  1.
         25    2    1    2    0    0  0.00000000000E+00  0.00000000000E+00  0.15287032652E+03  0.19746915961E+03  0.12499892906E+03 0.  0.
    9000005    1    3    3    0    0 -0.43247124004E+02  0.66100245004E+01  0.59418522846E+01  0.44162334258E+02  0.10000000000E+01 0.  0.
    9000005    1    3    3    0    0  0.43247124004E+02 -0.66100245004E+01  0.14692847424E+03  0.15330682535E+03  0.10000000000E+01 0.  0.
<mgrwt>
<rscale>  0 0.12499893E+03</rscale>
<asrwt>0</asrwt>
<pdfrwt beam="1">  1        4 0.26949191E-01 0.12499893E+03</pdfrwt>
<pdfrwt beam="2">  1       -4 0.34306794E-02 0.12499893E+03</pdfrwt>
<totfact> 0.90565872E+03</totfact>
</mgrwt>
</event>
<event>
 5    1  0.3434846E-002  0.1250185E+03  0.7818608E-02  0.1235040E+00
         -4   -1    0    0    0  501 -0.00000000000E+00  0.00000000000E+00  0.14844071641E+02  0.14898300671E+02  0.12700000000E+01 0.  1.
          4   -1    0    0  501    0  0.00000000000E+00 -0.00000000000E+00 -0.26269458447E+03  0.26269765437E+03  0.12700000000E+01 0.  1.
         25    2    1    2    0    0  0.00000000000E+00  0.00000000000E+00 -0.24785051283E+03  0.27759595504E+03  0.12501854880E+03 0.  0.
    9000005    1    3    3    0    0  0.16258964972E+02 -0.80379116244E+01 -0.25673358465E+03  0.25737539792E+03  0.10000000000E+01 0.  0.
    9000005    1    3    3    0    0 -0.16258964972E+02  0.80379116244E+01  0.88830718224E+01  0.20220557120E+02  0.10000000000E+01 0.  0.
<mgrwt>
<rscale>  0 0.12501855E+03</rscale>
<asrwt>0</asrwt>
<pdfrwt beam="2">  1        4 0.40418956E-01 0.12501855E+03</pdfrwt>
<pdfrwt beam="1">  1       -4 0.22881111E-02 0.12501855E+03</pdfrwt>
<totfact> 0.78465587E+03</totfact>
</mgrwt>
</event>
<event>
 5    1  0.3434846E-002  0.1250161E+03  0.7818608E-02  0.1235044E+00
          4   -1    0    0  501    0  0.00000000000E+00  0.00000000000E+00  0.41564643132E+02  0.41584040913E+02  0.12700000000E+01 0.  1.
         -4   -1    0    0    0  501 -0.00000000000E+00 -0.00000000000E+00 -0.93958709512E+02  0.93967292146E+02  0.12700000000E+01 0.  1.
         25    2    1    2    0    0  0.00000000000E+00  0.00000000000E+00 -0.52394066380E+02  0.13555133306E+03  0.12501610177E+03 0.  0.
    9000005    1    3    3    0    0  0.30971451744E+01  0.50584695936E+02 -0.65856053580E+02  0.83104894948E+02  0.10000000000E+01 0.  0.
    9000005    1    3    3    0    0 -0.30971451744E+01 -0.50584695936E+02  0.13461987200E+02  0.52446438111E+02  0.10000000000E+01 0.  0.
<mgrwt>
<rscale>  0 0.12501610E+03</rscale>
<asrwt>0</asrwt>
<pdfrwt beam="1">  1        4 0.63967128E-02 0.12501610E+03</pdfrwt>
<pdfrwt beam="2">  1       -4 0.14457338E-01 0.12501610E+03</pdfrwt>
<totfact> 0.10222751E+04</totfact>
</mgrwt>
</event>
<event>
 5    1  0.3434846E-002  0.1250002E+03  0.7818608E-02  0.1235069E+00
          4   -1    0    0  501    0  0.00000000000E+00  0.00000000000E+00  0.11343436844E+02  0.11414309415E+02  0.12700000000E+01 0.  1.
         -4   -1    0    0    0  501 -0.00000000000E+00 -0.00000000000E+00 -0.34321862426E+03  0.34322097392E+03  0.12700000000E+01 0.  1.
         25    2    1    2    0    0  0.00000000000E+00  0.00000000000E+00 -0.33187518742E+03  0.35463528334E+03  0.12500017666E+03 0.  0.
    9000005    1    3    3    0    0 -0.48826759033E+02 -0.94321802918E+01 -0.58568419791E+02  0.76839301269E+02  0.10000000000E+01 0.  0.
    9000005    1    3    3    0    0  0.48826759033E+02  0.94321802918E+01 -0.27330676763E+03  0.27779598207E+03  0.10000000000E+01 0.  0.
<mgrwt>
<rscale>  0 0.12500018E+03</rscale>
<asrwt>0</asrwt>
<pdfrwt beam="1">  1        4 0.17507769E-02 0.12500018E+03</pdfrwt>
<pdfrwt beam="2">  1       -4 0.52808490E-01 0.12500018E+03</pdfrwt>
<totfact> 0.69217343E+03</totfact>
</mgrwt>
</event>
<event>
 5    1  0.3434846E-002  0.1250010E+03  0.7818608E-02  0.1235068E+00
         -4   -1    0    0    0  501 -0.00000000000E+00  0.00000000000E+00  0.17166401220E+03  0.17166870998E+03  0.12700000000E+01 0. -1.
          4   -1    0    0  501    0  0.00000000000E+00 -0.00000000000E+00 -0.22732829315E+02  0.22768276805E+02  0.12700000000E+01 0. -1.
         25    2    1    2    0    0  0.00000000000E+00  0.00000000000E+00  0.14893118289E+03  0.19443698678E+03  0.12500097837E+03 0.  0.
    9000005    1    3    3    0    0 -0.28796675988E+02  0.88943269961E+01 -0.10688491393E+02  0.31993772033E+02  0.10000000000E+01 0.  0.
    9000005    1    3    3    0    0  0.28796675988E+02 -0.88943269961E+01  0.15961967428E+03  0.16244321475E+03  0.10000000000E+01 0.  0.
<mgrwt>
<rscale>  0 0.12500098E+03</rscale>
<asrwt>0</asrwt>
<pdfrwt beam="2">  1        4 0.35004465E-02 0.12500098E+03</pdfrwt>
<pdfrwt beam="1">  1       -4 0.26412936E-01 0.12500098E+03</pdfrwt>
<totfact> 0.91078978E+03</totfact>
</mgrwt>
</event>
<event>
 5    1  0.3434846E-002  0.1249976E+03  0.7818608E-02  0.1235073E+00
         -4   -1    0    0    0  501 -0.00000000000E+00  0.00000000000E+00  0.56882382288E+02  0.56896558022E+02  0.12700000000E+01 0.  1.
          4   -1    0    0  501    0  0.00000000000E+00 -0.00000000000E+00 -0.68641166688E+02  0.68652914463E+02  0.12700000000E+01 0.  1.
         25    2    1    2    0    0  0.00000000000E+00  0.00000000000E+00 -0.11758784400E+02  0.12554947249E+03  0.12499760410E+03 0.  0.
    9000005    1    3    3    0    0  0.28008559322E+02  0.44030747887E+02  0.28651369707E+02  0.59540634367E+02  0.10000000000E+01 0.  0.
    9000005    1    3    3    0    0 -0.28008559322E+02 -0.44030747887E+02 -0.40410154107E+02  0.66008838118E+02  0.10000000000E+01 0.  0.
<mgrwt>
<rscale>  0 0.12499760E+03</rscale>
<asrwt>0</asrwt>
<pdfrwt beam="2">  1        4 0.10562174E-01 0.12499760E+03</pdfrwt>
<pdfrwt beam="1">  1       -4 0.87531299E-02 0.12499760E+03</pdfrwt>
<totfact> 0.10441426E+04</totfact>
</mgrwt>
</event>
<event>
 5    1  0.3434846E-002  0.1250002E+03  0.7818608E-02  0.1235069E+00
          4   -1    0    0  501    0  0.00000000000E+00  0.00000000000E+00  0.16375437546E+03  0.16375930014E+03  0.12700000000E+01 0. -1.
         -4   -1    0    0    0  501 -0.00000000000E+00 -0.00000000000E+00 -0.23832224347E+02  0.23866038995E+02  0.12700000000E+01 0. -1.
         25    2    1    2    0    0  0.00000000000E+00  0.00000000000E+00  0.13992215112E+03  0.18762533914E+03  0.12500023806E+03 0.  0.
    9000005    1    3    3    0    0 -0.49342212382E+01 -0.60286336310E+02  0.93526103722E+02  0.11138635896E+03  0.10000000000E+01 0.  0.
    9000005    1    3    3    0    0  0.49342212382E+01  0.60286336310E+02  0.46396047396E+02  0.76238980180E+02  0.10000000000E+01 0.  0.
<mgrwt>
<rscale>  0 0.12500024E+03</rscale>
<asrwt>0</asrwt>
<pdfrwt beam="1">  1        4 0.25195961E-01 0.12500024E+03</pdfrwt>
<pdfrwt beam="2">  1       -4 0.36694759E-02 0.12500024E+03</pdfrwt>
<totfact> 0.92261654E+03</totfact>
</mgrwt>
</event>
<event>
 5    1  0.3434846E-002  0.1249946E+03  0.7818608E-02  0.1235078E+00
          4   -1    0    0  501    0  0.00000000000E+00  0.00000000000E+00  0.74359131523E+01  0.75435869723E+01  0.12700000000E+01 0. -1.
         -4   -1    0    0    0  501 -0.00000000000E+00 -0.00000000000E+00 -0.52139262919E+03  0.52139417591E+03  0.12700000000E+01 0. -1.
         25    2    1    2    0    0  0.00000000000E+00  0.00000000000E+00 -0.51395671604E+03  0.52893776288E+03  0.12499460406E+03 0.  0.
    9000005    1    3    3    0    0 -0.42695435059E+02  0.44027515327E+02 -0.30768631728E+03  0.31374064468E+03  0.10000000000E+01 0.  0.
    9000005    1    3    3    0    0  0.42695435059E+02 -0.44027515327E+02 -0.20627039876E+03  0.21519711821E+03  0.10000000000E+01 0.  0.
<mgrwt>
<rscale>  0 0.12499460E+03</rscale>
<asrwt>0</asrwt>
<pdfrwt beam="1">  1        4 0.11523886E-02 0.12499460E+03</pdfrwt>
<pdfrwt beam="2">  1       -4 0.80222624E-01 0.12499460E+03</pdfrwt>
<totfact> 0.53693412E+03</totfact>
</mgrwt>
</event>
<event>
 5    1  0.3434846E-002  0.1249974E+03  0.7818608E-02  0.1235073E+00
          4   -1    0    0  501    0  0.00000000000E+00  0.00000000000E+00  0.44040198645E+01  0.45834802244E+01  0.12700000000E+01 0.  1.
         -4   -1    0    0    0  501 -0.00000000000E+00 -0.00000000000E+00 -0.86904608293E+03  0.86904701090E+03  0.12700000000E+01 0.  1.
         25    2    1    2    0    0  0.00000000000E+00  0.00000000000E+00 -0.86464206307E+03  0.87363049113E+03  0.12499735118E+03 0.  0.
    9000005    1    3    3    0    0  0.46994788159E+02 -0.18178997240E+01 -0.71992178929E+03  0.72145699634E+03  0.10000000000E+01 0.  0.
    9000005    1    3    3    0    0 -0.46994788159E+02  0.18178997240E+01 -0.14472027377E+03  0.15217349478E+03  0.10000000000E+01 0.  0.
<mgrwt>
<rscale>  0 0.12499735E+03</rscale>
<asrwt>0</asrwt>
<pdfrwt beam="1">  1        4 0.69141823E-03 0.12499735E+03</pdfrwt>
<pdfrwt beam="2">  1       -4 0.13371314E+00 0.12499735E+03</pdfrwt>
<totfact> 0.35181440E+03</totfact>
</mgrwt>
</event>
<event>
 5    1  0.3434846E-002  0.1249831E+03  0.7818608E-02  0.1235096E+00
          4   -1    0    0  501    0  0.00000000000E+00  0.00000000000E+00  0.95775494376E+03  0.95775578578E+03  0.12700000000E+01 0. -1.
         -4   -1    0    0    0  501 -0.00000000000E+00 -0.00000000000E+00 -0.39776906428E+01  0.41755146808E+01  0.12700000000E+01 0. -1.
         25    2    1    2    0    0  0.00000000000E+00  0.00000000000E+00  0.95377725312E+03  0.96193130046E+03  0.12498311184E+03 0.  0.
    9000005    1    3    3    0    0 -0.29234174907E+02 -0.14387575036E+02  0.88723177029E+03  0.88783041934E+03  0.10000000000E+01 0.  0.
    9000005    1    3    3    0    0  0.29234174907E+02  0.14387575036E+02  0.66545482823E+02  0.74100881115E+02  0.10000000000E+01 0.  0.
<mgrwt>
<rscale>  0 0.12498311E+03</rscale>
<asrwt>0</asrwt>
<pdfrwt beam="1">  1        4 0.14736205E+00 0.12498311E+03</pdfrwt>
<pdfrwt beam="2">  1       -4 0.62723505E-03 0.12498311E+03</pdfrwt>
<totfact> 0.31907901E+03</totfact>
</mgrwt>
</event>
<event>
 5    1  0.3434846E-002  0.1249999E+03  0.7818608E-02  0.1235069E+00
          4   -1    0    0  501    0  0.00000000000E+00  0.00000000000E+00  0.26663651459E+03  0.26663953910E+03  0.12700000000E+01 0. -1.
         -4   -1    0    0    0  501 -0.00000000000E+00 -0.00000000000E+00 -0.14619425361E+02  0.14674484587E+02  0.12700000000E+01 0. -1.
         25    2    1    2    0    0  0.00000000000E+00  0.00000000000E+00  0.25201708923E+03  0.28131402369E+03  0.12499986664E+03 0.  0.
    9000005    1    3    3    0    0 -0.37119853971E+02  0.22928726707E+02  0.25321427329E+02  0.50455770227E+02  0.10000000000E+01 0.  0.
    9000005    1    3    3    0    0  0.37119853971E+02 -0.22928726707E+02  0.22669566190E+03  0.23085825346E+03  0.10000000000E+01 0.  0.
<mgrwt>
<rscale>  0 0.12499987E+03</rscale>
<asrwt>0</asrwt>
<pdfrwt beam="1">  1        4 0.41025468E-01 0.12499987E+03</pdfrwt>
<pdfrwt beam="2">  1       -4 0.22536105E-02 0.12499987E+03</pdfrwt>
<totfact> 0.78004429E+03</totfact>
</mgrwt>
</event>
<event>
 5    1  0.3434846E-002  0.1249989E+03  0.7818608E-02  0.1235071E+00
          4   -1    0    0  501    0  0.00000000000E+00  0.00000000000E+00  0.61891304319E+02  0.61904333050E+02  0.12700000000E+01 0. -1.
         -4   -1    0    0    0  501 -0.00000000000E+00 -0.00000000000E+00 -0.63087516726E+02  0.63100298467E+02  0.12700000000E+01 0. -1.
         25    2    1    2    0    0  0.00000000000E+00  0.00000000000E+00 -0.11962124064E+01  0.12500463152E+03  0.12499890790E+03 0.  0.
    9000005    1    3    3    0    0 -0.11345683606E+02  0.60603459313E+02 -0.10780808294E+02  0.62599757545E+02  0.10000000000E+01 0.  0.
    9000005    1    3    3    0    0  0.11345683606E+02 -0.60603459313E+02  0.95845958875E+01  0.62404873972E+02  0.10000000000E+01 0.  0.
<mgrwt>
<rscale>  0 0.12499891E+03</rscale>
<asrwt>0</asrwt>
<pdfrwt beam="1">  1        4 0.95237245E-02 0.12499891E+03</pdfrwt>
<pdfrwt beam="2">  1       -4 0.97077573E-02 0.12499891E+03</pdfrwt>
<totfact> 0.10453020E+04</totfact>
</mgrwt>
</event>
<event>
 5    1  0.3434846E-002  0.1249992E+03  0.7818608E-02  0.1235071E+00
         -4   -1    0    0    0  501 -0.00000000000E+00  0.00000000000E+00  0.38409162805E+03  0.38409372768E+03  0.12700000000E+01 0. -1.
          4   -1    0    0  501    0  0.00000000000E+00 -0.00000000000E+00 -0.10128177291E+02  0.10207491133E+02  0.12700000000E+01 0. -1.
         25    2    1    2    0    0  0.00000000000E+00  0.00000000000E+00  0.37396345076E+03  0.39430121881E+03  0.12499915459E+03 0.  0.
    9000005    1    3    3    0    0 -0.34559395306E+02 -0.13714223500E+02  0.28543678707E+02  0.46884681125E+02  0.10000000000E+01 0.  0.
    9000005    1    3    3    0    0  0.34559395306E+02  0.13714223500E+02  0.34541977206E+03  0.34741653768E+03  0.10000000000E+01 0.  0.
<mgrwt>
<rscale>  0 0.12499915E+03</rscale>
<asrwt>0</asrwt>
<pdfrwt beam="2">  1        4 0.15644435E-02 0.12499915E+03</pdfrwt>
<pdfrwt beam="1">  1       -4 0.59097288E-01 0.12499915E+03</pdfrwt>
<totfact> 0.65112055E+03</totfact>
</mgrwt>
</event>
<event>
 5    1  0.3434846E-002  0.1250015E+03  0.7818608E-02  0.1235067E+00
         -4   -1    0    0    0  501 -0.00000000000E+00  0.00000000000E+00  0.17784310882E+01  0.21853414231E+01  0.12700000000E+01 0.  1.
          4   -1    0    0  501    0  0.00000000000E+00 -0.00000000000E+00 -0.19706166249E+04  0.19706170342E+04  0.12700000000E+01 0.  1.
         25    2    1    2    0    0  0.00000000000E+00  0.00000000000E+00 -0.19688381938E+04  0.19728023756E+04  0.12500151841E+03 0.  0.
    9000005    1    3    3    0    0 -0.59578347733E+02 -0.16805638417E+02 -0.11195723823E+04  0.11212828939E+04  0.10000000000E+01 0.  0.
    9000005    1    3    3    0    0  0.59578347733E+02  0.16805638417E+02 -0.84926581158E+03  0.85151948171E+03  0.10000000000E+01 0.  0.
<mgrwt>
<rscale>  0 0.12500152E+03</rscale>
<asrwt>0</asrwt>
<pdfrwt beam="2">  1        4 0.30320155E+00 0.12500152E+03</pdfrwt>
<pdfrwt beam="1">  1       -4 0.30493863E-03 0.12500152E+03</pdfrwt>
<totfact> 0.10220270E+03</totfact>
</mgrwt>
</event>
<event>
 5    1  0.3434846E-002  0.1250027E+03  0.7818608E-02  0.1235065E+00
          4   -1    0    0  501    0  0.00000000000E+00  0.00000000000E+00  0.22076672745E+01  0.25468990547E+01  0.12700000000E+01 0. -1.
         -4   -1    0    0    0  501 -0.00000000000E+00 -0.00000000000E+00 -0.16428883390E+04  0.16428888299E+04  0.12700000000E+01 0. -1.
         25    2    1    2    0    0  0.00000000000E+00  0.00000000000E+00 -0.16406806717E+04  0.16454357289E+04  0.12500268581E+03 0.  0.
    9000005    1    3    3    0    0 -0.33631390909E+02 -0.18535941712E+02 -0.14693231258E+04  0.14698251935E+04  0.10000000000E+01 0.  0.
    9000005    1    3    3    0    0  0.33631390909E+02  0.18535941712E+02 -0.17135754595E+03  0.17561053540E+03  0.10000000000E+01 0.  0.
<mgrwt>
<rscale>  0 0.12500269E+03</rscale>
<asrwt>0</asrwt>
<pdfrwt beam="1">  1        4 0.36577494E-03 0.12500269E+03</pdfrwt>
<pdfrwt beam="2">  1       -4 0.25277728E+00 0.12500269E+03</pdfrwt>
<totfact> 0.15238094E+03</totfact>
</mgrwt>
</event>
<event>
 5    1  0.3434846E-002  0.1250007E+03  0.7818608E-02  0.1235068E+00
         -4   -1    0    0    0  501 -0.00000000000E+00  0.00000000000E+00  0.62333586594E+01  0.63614196668E+01  0.12700000000E+01 0.  1.
          4   -1    0    0  501    0  0.00000000000E+00 -0.00000000000E+00 -0.62017452569E+03  0.62017582604E+03  0.12700000000E+01 0.  1.
         25    2    1    2    0    0  0.00000000000E+00  0.00000000000E+00 -0.61394116703E+03  0.62653724571E+03  0.12500065477E+03 0.  0.
    9000005    1    3    3    0    0  0.36972046412E+02  0.45820719512E+02 -0.20197331630E+03  0.21038224985E+03  0.10000000000E+01 0.  0.
    9000005    1    3    3    0    0 -0.36972046412E+02 -0.45820719512E+02 -0.41196785073E+03  0.41615499587E+03  0.10000000000E+01 0.  0.
<mgrwt>
<rscale>  0 0.12500065E+03</rscale>
<asrwt>0</asrwt>
<pdfrwt beam="2">  1        4 0.95421368E-01 0.12500065E+03</pdfrwt>
<pdfrwt beam="1">  1       -4 0.96892962E-03 0.12500065E+03</pdfrwt>
<totfact> 0.47233574E+03</totfact>
</mgrwt>
</event>
<event>
 5    1  0.3434846E-002  0.1249984E+03  0.7818608E-02  0.1235072E+00
          4   -1    0    0  501    0  0.00000000000E+00  0.00000000000E+00  0.25373353887E+02  0.25405117348E+02  0.12700000000E+01 0. -1.
         -4   -1    0    0    0  501 -0.00000000000E+00 -0.00000000000E+00 -0.15381631495E+03  0.15382155780E+03  0.12700000000E+01 0. -1.
         25    2    1    2    0    0  0.00000000000E+00  0.00000000000E+00 -0.12844296106E+03  0.17922667515E+03  0.12499842735E+03 0.  0.
    9000005    1    3    3    0    0 -0.22026633321E+02  0.22383407644E+02 -0.14168769510E+03  0.14512957127E+03  0.10000000000E+01 0.  0.
    9000005    1    3    3    0    0  0.22026633321E+02 -0.22383407644E+02  0.13244734041E+02  0.34097103881E+02  0.10000000000E+01 0.  0.
<mgrwt>
<rscale>  0 0.12499843E+03</rscale>
<asrwt>0</asrwt>
<pdfrwt beam="1">  1        4 0.39064396E-02 0.12499843E+03</pdfrwt>
<pdfrwt beam="2">  1       -4 0.23666895E-01 0.12499843E+03</pdfrwt>
<totfact> 0.93759696E+03</totfact>
</mgrwt>
</event>
<event>
 5    1  0.3434846E-002  0.1250009E+03  0.7818608E-02  0.1235068E+00
          4   -1    0    0  501    0  0.00000000000E+00  0.00000000000E+00  0.11348014346E+02  0.11418858507E+02  0.12700000000E+01 0. -1.
         -4   -1    0    0    0  501 -0.00000000000E+00 -0.00000000000E+00 -0.34308473400E+03  0.34308708458E+03  0.12700000000E+01 0. -1.
         25    2    1    2    0    0  0.00000000000E+00  0.00000000000E+00 -0.33173671965E+03  0.35450594308E+03  0.12500085006E+03 0.  0.
    9000005    1    3    3    0    0 -0.46224314092E+02 -0.55005902131E+00 -0.46609633503E+02  0.65653999980E+02  0.10000000000E+01 0.  0.
    9000005    1    3    3    0    0  0.46224314092E+02  0.55005902131E+00 -0.28512708615E+03  0.28885194310E+03  0.10000000000E+01 0.  0.
<mgrwt>
<rscale>  0 0.12500085E+03</rscale>
<asrwt>0</asrwt>
<pdfrwt beam="1">  1        4 0.17514790E-02 0.12500085E+03</pdfrwt>
<pdfrwt beam="2">  1       -4 0.52787889E-01 0.12500085E+03</pdfrwt>
<totfact> 0.69230377E+03</totfact>
</mgrwt>
</event>
<event>
 5    1  0.3434846E-002  0.1250046E+03  0.7818608E-02  0.1235062E+00
          4   -1    0    0  501    0  0.00000000000E+00  0.00000000000E+00  0.21506874734E+02  0.21544339415E+02  0.12700000000E+01 0. -1.
         -4   -1    0    0    0  501 -0.00000000000E+00 -0.00000000000E+00 -0.18144362908E+03  0.18144807365E+03  0.12700000000E+01 0. -1.
         25    2    1    2    0    0  0.00000000000E+00  0.00000000000E+00 -0.15993675434E+03  0.20299241307E+03  0.12500461741E+03 0.  0.
    9000005    1    3    3    0    0 -0.11787479654E+02  0.43476847837E+02 -0.96268879685E+01  0.46074482595E+02  0.10000000000E+01 0.  0.
    9000005    1    3    3    0    0  0.11787479654E+02 -0.43476847837E+02 -0.15030986637E+03  0.15691793047E+03  0.10000000000E+01 0.  0.
<mgrwt>
<rscale>  0 0.12500462E+03</rscale>
<asrwt>0</asrwt>
<pdfrwt beam="1">  1        4 0.33119739E-02 0.12500462E+03</pdfrwt>
<pdfrwt beam="2">  1       -4 0.27917627E-01 0.12500462E+03</pdfrwt>
<totfact> 0.89623997E+03</totfact>
</mgrwt>
</event>
<event>
 5    1  0.3434846E-002  0.1249992E+03  0.7818608E-02  0.1235070E+00
         -4   -1    0    0    0  501 -0.00000000000E+00  0.00000000000E+00  0.21336135720E+03  0.21336513690E+03  0.12700000000E+01 0.  1.
          4   -1    0    0  501    0  0.00000000000E+00 -0.00000000000E+00 -0.18281948978E+02  0.18326007705E+02  0.12700000000E+01 0.  1.
         25    2    1    2    0    0  0.00000000000E+00  0.00000000000E+00  0.19507940822E+03  0.23169114461E+03  0.12499924391E+03 0.  0.
    9000005    1    3    3    0    0  0.41457689364E+01  0.19378782415E+02  0.20739193065E+03  0.20833899660E+03  0.10000000000E+01 0.  0.
    9000005    1    3    3    0    0 -0.41457689364E+01 -0.19378782415E+02 -0.12312522426E+02  0.23352148005E+02  0.10000000000E+01 0.  0.
<mgrwt>
<rscale>  0 0.12499924E+03</rscale>
<asrwt>0</asrwt>
<pdfrwt beam="2">  1        4 0.28162877E-02 0.12499924E+03</pdfrwt>
<pdfrwt beam="1">  1       -4 0.32828501E-01 0.12499924E+03</pdfrwt>
<totfact> 0.85052031E+03</totfact>
</mgrwt>
</event>
<event>
 5    1  0.3434846E-002  0.1249954E+03  0.7818608E-02  0.1235076E+00
         -4   -1    0    0    0  501 -0.00000000000E+00  0.00000000000E+00  0.12394156950E+02  0.12459053998E+02  0.12700000000E+01 0. -1.
          4   -1    0    0  501    0  0.00000000000E+00 -0.00000000000E+00 -0.31425640704E+03  0.31425897325E+03  0.12700000000E+01 0. -1.
         25    2    1    2    0    0  0.00000000000E+00  0.00000000000E+00 -0.30186225009E+03  0.32671802725E+03  0.12499540510E+03 0.  0.
    9000005    1    3    3    0    0  0.61531150806E+02  0.10315759432E+02 -0.14170259843E+03  0.15483256703E+03  0.10000000000E+01 0.  0.
    9000005    1    3    3    0    0 -0.61531150806E+02 -0.10315759432E+02 -0.16015965166E+03  0.17188546021E+03  0.10000000000E+01 0.  0.
<mgrwt>
<rscale>  0 0.12499541E+03</rscale>
<asrwt>0</asrwt>
<pdfrwt beam="2">  1        4 0.48352323E-01 0.12499541E+03</pdfrwt>
<pdfrwt beam="1">  1       -4 0.19119831E-02 0.12499541E+03</pdfrwt>
<totfact> 0.72371536E+03</totfact>
</mgrwt>
</event>
<event>
 5    1  0.3434846E-002  0.1249751E+03  0.7818608E-02  0.1235108E+00
         -4   -1    0    0    0  501 -0.00000000000E+00  0.00000000000E+00  0.32134913228E+02  0.32159999194E+02  0.12700000000E+01 0.  1.
          4   -1    0    0  501    0  0.00000000000E+00 -0.00000000000E+00 -0.12143351488E+03  0.12144015578E+03  0.12700000000E+01 0.  1.
         25    2    1    2    0    0  0.00000000000E+00  0.00000000000E+00 -0.89298601653E+02  0.15360015498E+03  0.12497506692E+03 0.  0.
    9000005    1    3    3    0    0 -0.56589753878E+02  0.24380113590E+02 -0.31941789929E+02  0.69412305296E+02  0.10000000000E+01 0.  0.
    9000005    1    3    3    0    0  0.56589753878E+02 -0.24380113590E+02 -0.57356811724E+02  0.84187849681E+02  0.10000000000E+01 0.  0.
<mgrwt>
<rscale>  0 0.12497507E+03</rscale>
<asrwt>0</asrwt>
<pdfrwt beam="2">  1        4 0.18684520E-01 0.12497507E+03</pdfrwt>
<pdfrwt beam="1">  1       -4 0.49462734E-02 0.12497507E+03</pdfrwt>
<totfact> 0.98646162E+03</totfact>
</mgrwt>
</event>
<event>
 5    1  0.3434846E-002  0.1250141E+03  0.7818608E-02  0.1235047E+00
          4   -1    0    0  501    0  0.00000000000E+00  0.00000000000E+00  0.15104230262E+03  0.15104764176E+03  0.12700000000E+01 0. -1.
         -4   -1    0    0    0  501 -0.00000000000E+00 -0.00000000000E+00 -0.25846412681E+02  0.25877595493E+02  0.12700000000E+01 0. -1.
         25    2    1    2    0    0  0.00000000000E+00  0.00000000000E+00  0.12519588994E+03  0.17692523725E+03  0.12501411408E+03 0.  0.
    9000005    1    3    3    0    0 -0.27865164305E+02  0.55804984264E+02  0.57031790539E+02  0.84523894743E+02  0.10000000000E+01 0.  0.
    9000005    1    3    3    0    0  0.27865164305E+02 -0.55804984264E+02  0.68164099401E+02  0.92401342510E+02  0.10000000000E+01 0.  0.
<mgrwt>
<rscale>  0 0.12501411E+03</rscale>
<asrwt>0</asrwt>
<pdfrwt beam="1">  1        4 0.23240087E-01 0.12501411E+03</pdfrwt>
<pdfrwt beam="2">  1       -4 0.39791806E-02 0.12501411E+03</pdfrwt>
<totfact> 0.94143611E+03</totfact>
</mgrwt>
</event>
<event>
 5    1  0.3434846E-002  0.1249998E+03  0.7818608E-02  0.1235070E+00
         -4   -1    0    0    0  501 -0.00000000000E+00  0.00000000000E+00  0.34640033969E+02  0.34663307017E+02  0.12700000000E+01 0.  1.
          4   -1    0    0  501    0  0.00000000000E+00 -0.00000000000E+00 -0.11270178556E+03  0.11270894095E+03  0.12700000000E+01 0.  1.
         25    2    1    2    0    0  0.00000000000E+00  0.00000000000E+00 -0.78061751595E+02  0.14737224796E+03  0.12499976963E+03 0.  0.
    9000005    1    3    3    0    0 -0.20963178044E+02  0.35306669790E+00 -0.10843722945E+03  0.11045004401E+03  0.10000000000E+01 0.  0.
    9000005    1    3    3    0    0  0.20963178044E+02 -0.35306669790E+00  0.30375477858E+02  0.36922203956E+02  0.10000000000E+01 0.  0.
<mgrwt>
<rscale>  0 0.12499977E+03</rscale>
<asrwt>0</asrwt>
<pdfrwt beam="2">  1        4 0.17341077E-01 0.12499977E+03</pdfrwt>
<pdfrwt beam="1">  1       -4 0.53315767E-02 0.12499977E+03</pdfrwt>
<totfact> 0.99830621E+03</totfact>
</mgrwt>
</event>
<event>
 5    1  0.3434846E-002  0.1250003E+03  0.7818608E-02  0.1235069E+00
          4   -1    0    0  501    0  0.00000000000E+00  0.00000000000E+00  0.41021406338E+03  0.41021602930E+03  0.12700000000E+01 0.  1.
         -4   -1    0    0    0  501 -0.00000000000E+00 -0.00000000000E+00 -0.94781769106E+01  0.95628833282E+01  0.12700000000E+01 0.  1.
         25    2    1    2    0    0  0.00000000000E+00  0.00000000000E+00  0.40073588647E+03  0.41977891263E+03  0.12500033913E+03 0.  0.
    9000005    1    3    3    0    0  0.57088747691E+02 -0.25417140256E+02  0.19922879762E+03  0.20880198738E+03  0.10000000000E+01 0.  0.
    9000005    1    3    3    0    0 -0.57088747691E+02  0.25417140256E+02  0.20150708885E+03  0.21097692525E+03  0.10000000000E+01 0.  0.
<mgrwt>
<rscale>  0 0.12500034E+03</rscale>
<asrwt>0</asrwt>
<pdfrwt beam="1">  1        4 0.63116537E-01 0.12500034E+03</pdfrwt>
<pdfrwt beam="2">  1       -4 0.14648478E-02 0.12500034E+03</pdfrwt>
<totfact> 0.62673046E+03</totfact>
</mgrwt>
</event>
<event>
 5    1  0.3434846E-002  0.1249998E+03  0.7818608E-02  0.1235070E+00
          4   -1    0    0  501    0  0.00000000000E+00  0.00000000000E+00  0.17526466947E+02  0.17572419971E+02  0.12700000000E+01 0.  1.
         -4   -1    0    0    0  501 -0.00000000000E+00 -0.00000000000E+00 -0.22253702192E+03  0.22254064578E+03  0.12700000000E+01 0.  1.
         25    2    1    2    0    0  0.00000000000E+00  0.00000000000E+00 -0.20501055497E+03  0.24011306575E+03  0.12499982678E+03 0.  0.
    9000005    1    3    3    0    0  0.35108881065E+02 -0.18655635886E+02 -0.19511955994E+03  0.19913138615E+03  0.10000000000E+01 0.  0.
    9000005    1    3    3    0    0 -0.35108881065E+02  0.18655635886E+02 -0.98909950296E+01  0.40981679597E+02  0.10000000000E+01 0.  0.
<mgrwt>
<rscale>  0 0.12499983E+03</rscale>
<asrwt>0</asrwt>
<pdfrwt beam="1">  1        4 0.27001933E-02 0.12499983E+03</pdfrwt>
<pdfrwt beam="2">  1       -4 0.34240277E-01 0.12499983E+03</pdfrwt>
<totfact> 0.83780855E+03</totfact>
</mgrwt>
</event>
<event>
 5    1  0.3434846E-002  0.1249938E+03  0.7818608E-02  0.1235079E+00
          4   -1    0    0  501    0  0.00000000000E+00  0.00000000000E+00  0.13258970770E+03  0.13259578986E+03  0.12700000000E+01 0. -1.
         -4   -1    0    0    0  501 -0.00000000000E+00 -0.00000000000E+00 -0.29437798944E+02  0.29465181260E+02  0.12700000000E+01 0. -1.
         25    2    1    2    0    0  0.00000000000E+00  0.00000000000E+00  0.10315190876E+03  0.16206097112E+03  0.12499376816E+03 0.  0.
    9000005    1    3    3    0    0 -0.61339645922E+02  0.72352385221E+01  0.39278533672E+02  0.73203169643E+02  0.10000000000E+01 0.  0.
    9000005    1    3    3    0    0  0.61339645922E+02 -0.72352385221E+01  0.63873375086E+02  0.88857801476E+02  0.10000000000E+01 0.  0.
<mgrwt>
<rscale>  0 0.12499377E+03</rscale>
<asrwt>0</asrwt>
<pdfrwt beam="1">  1        4 0.20400990E-01 0.12499377E+03</pdfrwt>
<pdfrwt beam="2">  1       -4 0.45314664E-02 0.12499377E+03</pdfrwt>
<totfact> 0.96960489E+03</totfact>
</mgrwt>
</event>
<event>
 5    1  0.3434846E-002  0.1249924E+03  0.7818608E-02  0.1235081E+00
         -4   -1    0    0    0  501 -0.00000000000E+00  0.00000000000E+00  0.98454411726E+02  0.98462602486E+02  0.12700000000E+01 0. -1.
          4   -1    0    0  501    0  0.00000000000E+00 -0.00000000000E+00 -0.39650896443E+02  0.39671229987E+02  0.12700000000E+01 0. -1.
         25    2    1    2    0    0  0.00000000000E+00  0.00000000000E+00  0.58803515283E+02  0.13813383247E+03  0.12499240883E+03 0.  0.
    9000005    1    3    3    0    0  0.17211975751E+01  0.60302316026E+02  0.11396362501E+02  0.61402026981E+02  0.10000000000E+01 0.  0.
    9000005    1    3    3    0    0 -0.17211975751E+01 -0.60302316026E+02  0.47407152782E+02  0.76731805492E+02  0.10000000000E+01 0.  0.
<mgrwt>
<rscale>  0 0.12499241E+03</rscale>
<asrwt>0</asrwt>
<pdfrwt beam="2">  1        4 0.61023321E-02 0.12499241E+03</pdfrwt>
<pdfrwt beam="1">  1       -4 0.15149027E-01 0.12499241E+03</pdfrwt>
<totfact> 0.10174151E+04</totfact>
</mgrwt>
</event>
<event>
 5    1  0.3434846E-002  0.1249960E+03  0.7818608E-02  0.1235076E+00
          4   -1    0    0  501    0  0.00000000000E+00  0.00000000000E+00  0.11075510262E+02  0.11148086274E+02  0.12700000000E+01 0. -1.
         -4   -1    0    0    0  501 -0.00000000000E+00 -0.00000000000E+00 -0.35144451063E+03  0.35144680529E+03  0.12700000000E+01 0. -1.
         25    2    1    2    0    0  0.00000000000E+00  0.00000000000E+00 -0.34036900037E+03  0.36259489157E+03  0.12499599586E+03 0.  0.
    9000005    1    3    3    0    0 -0.38031503117E+02  0.14207809207E+02 -0.30799001594E+03  0.31065593023E+03  0.10000000000E+01 0.  0.
    9000005    1    3    3    0    0  0.38031503117E+02 -0.14207809207E+02 -0.32378984428E+02  0.51938961333E+02  0.10000000000E+01 0.  0.
<mgrwt>
<rscale>  0 0.12499600E+03</rscale>
<asrwt>0</asrwt>
<pdfrwt beam="1">  1        4 0.17096842E-02 0.12499600E+03</pdfrwt>
<pdfrwt beam="2">  1       -4 0.54074137E-01 0.12499600E+03</pdfrwt>
<totfact> 0.68366890E+03</totfact>
</mgrwt>
</event>
<event>
 5    1  0.3434846E-002  0.1249872E+03  0.7818608E-02  0.1235089E+00
          4   -1    0    0  501    0  0.00000000000E+00  0.00000000000E+00  0.13729583772E+04  0.13729589645E+04  0.12700000000E+01 0.  1.
         -4   -1    0    0    0  501 -0.00000000000E+00 -0.00000000000E+00 -0.27021785595E+01  0.29857442904E+01  0.12700000000E+01 0.  1.
         25    2    1    2    0    0  0.00000000000E+00  0.00000000000E+00  0.13702561986E+04  0.13759447088E+04  0.12498716717E+03 0.  0.
    9000005    1    3    3    0    0 -0.56137363534E+02  0.24642953837E+02  0.81804141411E+03  0.82033617131E+03  0.10000000000E+01 0.  0.
    9000005    1    3    3    0    0  0.56137363534E+02 -0.24642953837E+02  0.55221478450E+03  0.55560853753E+03  0.10000000000E+01 0.  0.
<mgrwt>
<rscale>  0 0.12498717E+03</rscale>
<asrwt>0</asrwt>
<pdfrwt beam="1">  1        4 0.21124656E+00 0.12498717E+03</pdfrwt>
<pdfrwt beam="2">  1       -4 0.43757701E-03 0.12498717E+03</pdfrwt>
<totfact> 0.20508779E+03</totfact>
</mgrwt>
</event>
<event>
 5    1  0.3434846E-002  0.1249934E+03  0.7818608E-02  0.1235080E+00
         -4   -1    0    0    0  501 -0.00000000000E+00  0.00000000000E+00  0.20281576210E+04  0.20281580186E+04  0.12700000000E+01 0.  1.
          4   -1    0    0  501    0  0.00000000000E+00 -0.00000000000E+00 -0.17159860820E+01  0.21348321324E+01  0.12700000000E+01 0.  1.
         25    2    1    2    0    0  0.00000000000E+00  0.00000000000E+00  0.20264416349E+04  0.20302928507E+04  0.12499344029E+03 0.  0.
    9000005    1    3    3    0    0  0.14797996928E+02 -0.56178615810E+02  0.63933702572E+03  0.64197184521E+03  0.10000000000E+01 0.  0.
    9000005    1    3    3    0    0 -0.14797996928E+02  0.56178615810E+02  0.13871046092E+04  0.13883210055E+04  0.10000000000E+01 0.  0.
<mgrwt>
<rscale>  0 0.12499344E+03</rscale>
<asrwt>0</asrwt>
<pdfrwt beam="2">  1        4 0.29624770E-03 0.12499344E+03</pdfrwt>
<pdfrwt beam="1">  1       -4 0.31205615E+00 0.12499344E+03</pdfrwt>
<totfact> 0.94723598E+02</totfact>
</mgrwt>
</event>
<event>
 5    1  0.3434846E-002  0.1250015E+03  0.7818608E-02  0.1235067E+00
          4   -1    0    0  501    0  0.00000000000E+00  0.00000000000E+00  0.46225326343E+02  0.46242769116E+02  0.12700000000E+01 0.  1.
         -4   -1    0    0    0  501 -0.00000000000E+00 -0.00000000000E+00 -0.84468389677E+02  0.84477936496E+02  0.12700000000E+01 0.  1.
         25    2    1    2    0    0  0.00000000000E+00  0.00000000000E+00 -0.38243063335E+02  0.13072070561E+03  0.12500148392E+03 0.  0.
    9000005    1    3    3    0    0  0.41391084872E+02 -0.29983466563E+02 -0.56726686554E+02  0.76361948256E+02  0.10000000000E+01 0.  0.
    9000005    1    3    3    0    0 -0.41391084872E+02  0.29983466563E+02  0.18483623219E+02  0.54358757356E+02  0.10000000000E+01 0.  0.
<mgrwt>
<rscale>  0 0.12500148E+03</rscale>
<asrwt>0</asrwt>
<pdfrwt beam="1">  1        4 0.71136648E-02 0.12500148E+03</pdfrwt>
<pdfrwt beam="2">  1       -4 0.12997213E-01 0.12500148E+03</pdfrwt>
<totfact> 0.10328735E+04</totfact>
</mgrwt>
</event>
<event>
 5    1  0.3434846E-002  0.1249999E+03  0.7818608E-02  0.1235069E+00
          4   -1    0    0  501    0  0.00000000000E+00  0.00000000000E+00  0.83307606192E+01  0.84270085140E+01  0.12700000000E+01 0. -1.
         -4   -1    0    0    0  501 -0.00000000000E+00 -0.00000000000E+00 -0.46610365493E+03  0.46610538512E+03  0.12700000000E+01 0. -1.
         25    2    1    2    0    0  0.00000000000E+00  0.00000000000E+00 -0.45777289431E+03  0.47453239364E+03  0.12499987937E+03 0.  0.
    9000005    1    3    3    0    0  0.26459535464E+02  0.54216111267E+02 -0.29077236891E+03  0.29696643625E+03  0.10000000000E+01 0.  0.
    9000005    1    3    3    0    0 -0.26459535464E+02 -0.54216111267E+02 -0.16700052541E+03  0.17756595739E+03  0.10000000000E+01 0.  0.
<mgrwt>
<rscale>  0 0.12499988E+03</rscale>
<asrwt>0</asrwt>
<pdfrwt beam="1">  1        4 0.12891926E-02 0.12499988E+03</pdfrwt>
<pdfrwt beam="2">  1       -4 0.71715771E-01 0.12499988E+03</pdfrwt>
<totfact> 0.57896101E+03</totfact>
</mgrwt>
</event>
<event>
 5    1  0.3434846E-002  0.1249938E+03  0.7818608E-02  0.1235079E+00
         -4   -1    0    0    0  501 -0.00000000000E+00  0.00000000000E+00  0.72710206189E+01  0.73811002459E+01  0.12700000000E+01 0. -1.
          4   -1    0    0  501    0  0.00000000000E+00 -0.00000000000E+00 -0.53303529925E+03  0.53303681219E+03  0.12700000000E+01 0. -1.
         25    2    1    2    0    0  0.00000000000E+00  0.00000000000E+00 -0.52576427864E+03  0.54041791244E+03  0.12499377342E+03 0.  0.
    9000005    1    3    3    0    0 -0.16868430174E+02  0.49050159871E+02 -0.41355048102E+03  0.41679186949E+03  0.10000000000E+01 0.  0.
    9000005    1    3    3    0    0  0.16868430174E+02 -0.49050159871E+02 -0.11221379762E+03  0.12362604295E+03  0.10000000000E+01 0.  0.
<mgrwt>
<rscale>  0 0.12499377E+03</rscale>
<asrwt>0</asrwt>
<pdfrwt beam="2">  1        4 0.82013984E-01 0.12499377E+03</pdfrwt>
<pdfrwt beam="1">  1       -4 0.11272030E-02 0.12499377E+03</pdfrwt>
<totfact> 0.52866607E+03</totfact>
</mgrwt>
</event>
<event>
 5    1  0.3434846E-002  0.1249962E+03  0.7818608E-02  0.1235075E+00
         -4   -1    0    0    0  501 -0.00000000000E+00  0.00000000000E+00  0.99824869476E+02  0.99832947797E+02  0.12700000000E+01 0. -1.
          4   -1    0    0  501    0  0.00000000000E+00 -0.00000000000E+00 -0.39108696064E+02  0.39129311364E+02  0.12700000000E+01 0. -1.
         25    2    1    2    0    0  0.00000000000E+00  0.00000000000E+00  0.60716173412E+02  0.13896225916E+03  0.12499622297E+03 0.  0.
    9000005    1    3    3    0    0 -0.39184544079E+02  0.23640043761E+01  0.84411538138E+02  0.93098468205E+02  0.10000000000E+01 0.  0.
    9000005    1    3    3    0    0  0.39184544079E+02 -0.23640043761E+01 -0.23695364726E+02  0.45863790956E+02  0.10000000000E+01 0.  0.
<mgrwt>
<rscale>  0 0.12499622E+03</rscale>
<asrwt>0</asrwt>
<pdfrwt beam="2">  1        4 0.60189297E-02 0.12499622E+03</pdfrwt>
<pdfrwt beam="1">  1       -4 0.15359879E-01 0.12499622E+03</pdfrwt>
<totfact> 0.10156003E+04</totfact>
</mgrwt>
</event>
<event>
 5    1  0.3434846E-002  0.1249980E+03  0.7818608E-02  0.1235072E+00
          4   -1    0    0  501    0  0.00000000000E+00  0.00000000000E+00  0.71704327829E+02  0.71715573827E+02  0.12700000000E+01 0.  1.
         -4   -1    0    0    0  501 -0.00000000000E+00 -0.00000000000E+00 -0.54452509268E+02  0.54467317407E+02  0.12700000000E+01 0.  1.
         25    2    1    2    0    0  0.00000000000E+00  0.00000000000E+00  0.17251818561E+02  0.12618289123E+03  0.12499798717E+03 0.  0.
    9000005    1    3    3    0    0 -0.36950288287E+02 -0.20665479318E+02 -0.37774339948E+02  0.56747569098E+02  0.10000000000E+01 0.  0.
    9000005    1    3    3    0    0  0.36950288287E+02  0.20665479318E+02  0.55026158509E+02  0.69435322137E+02  0.10000000000E+01 0.  0.
<mgrwt>
<rscale>  0 0.12499799E+03</rscale>
<asrwt>0</asrwt>
<pdfrwt beam="1">  1        4 0.11033439E-01 0.12499799E+03</pdfrwt>
<pdfrwt beam="2">  1       -4 0.83793133E-02 0.12499799E+03</pdfrwt>
<totfact> 0.10427427E+04</totfact>
</mgrwt>
</event>
<event>
 5    1  0.3434846E-002  0.1249959E+03  0.7818608E-02  0.1235076E+00
         -4   -1    0    0    0  501 -0.00000000000E+00  0.00000000000E+00  0.85873573625E+01  0.86807607081E+01  0.12700000000E+01 0. -1.
          4   -1    0    0  501    0  0.00000000000E+00 -0.00000000000E+00 -0.45229945877E+03  0.45230124177E+03  0.12700000000E+01 0. -1.
         25    2    1    2    0    0  0.00000000000E+00  0.00000000000E+00 -0.44371210141E+03  0.46098200247E+03  0.12499591061E+03 0.  0.
    9000005    1    3    3    0    0  0.37919266712E+02 -0.42448479898E+02 -0.12673411773E+03  0.13893264854E+03  0.10000000000E+01 0.  0.
    9000005    1    3    3    0    0 -0.37919266712E+02  0.42448479898E+02 -0.31697798367E+03  0.32204935393E+03  0.10000000000E+01 0.  0.
<mgrwt>
<rscale>  0 0.12499591E+03</rscale>
<asrwt>0</asrwt>
<pdfrwt beam="2">  1        4 0.69591835E-01 0.12499591E+03</pdfrwt>
<pdfrwt beam="1">  1       -4 0.13284543E-02 0.12499591E+03</pdfrwt>
<totfact> 0.59029416E+03</totfact>
</mgrwt>
</event>
<event>
 5    1  0.3434846E-002  0.1250053E+03  0.7818608E-02  0.1235061E+00
          4   -1    0    0  501    0  0.00000000000E+00  0.00000000000E+00  0.44693596472E+02  0.44711636803E+02  0.12700000000E+01 0. -1.
         -4   -1    0    0    0  501 -0.00000000000E+00 -0.00000000000E+00 -0.87367761530E+02  0.87376991564E+02  0.12700000000E+01 0. -1.
         25    2    1    2    0    0  0.00000000000E+00  0.00000000000E+00 -0.42674165058E+02  0.13208862837E+03  0.12500528541E+03 0.  0.
    9000005    1    3    3    0    0  0.37574315490E+02  0.91266815942E+01 -0.73215480261E+02  0.82804782781E+02  0.10000000000E+01 0.  0.
    9000005    1    3    3    0    0 -0.37574315490E+02 -0.91266815942E+01  0.30541315203E+02  0.49283845586E+02  0.10000000000E+01 0.  0.
<mgrwt>
<rscale>  0 0.12500529E+03</rscale>
<asrwt>0</asrwt>
<pdfrwt beam="1">  1        4 0.68780357E-02 0.12500529E+03</pdfrwt>
<pdfrwt beam="2">  1       -4 0.13443292E-01 0.12500529E+03</pdfrwt>
<totfact> 0.10298579E+04</totfact>
</mgrwt>
</event>
<event>
 5    1  0.3434846E-002  0.1249983E+03  0.7818608E-02  0.1235072E+00
          4   -1    0    0  501    0  0.00000000000E+00  0.00000000000E+00  0.93224013160E+01  0.94085103123E+01  0.12700000000E+01 0.  1.
         -4   -1    0    0    0  501 -0.00000000000E+00 -0.00000000000E+00 -0.41699316156E+03  0.41699509552E+03  0.12700000000E+01 0.  1.
         25    2    1    2    0    0  0.00000000000E+00  0.00000000000E+00 -0.40767076024E+03  0.42640360583E+03  0.12499834522E+03 0.  0.
    9000005    1    3    3    0    0 -0.60241364353E+02 -0.61952213771E+01 -0.15123713768E+03  0.16291431663E+03  0.10000000000E+01 0.  0.
    9000005    1    3    3    0    0  0.60241364353E+02  0.61952213771E+01 -0.25643362256E+03  0.26348928920E+03  0.10000000000E+01 0.  0.
<mgrwt>
<rscale>  0 0.12499835E+03</rscale>
<asrwt>0</asrwt>
<pdfrwt beam="1">  1        4 0.14409884E-02 0.12499835E+03</pdfrwt>
<pdfrwt beam="2">  1       -4 0.64159552E-01 0.12499835E+03</pdfrwt>
<totfact> 0.62065612E+03</totfact>
</mgrwt>
</event>
<event>
 5    1  0.3434846E-002  0.1250113E+03  0.7818608E-02  0.1235052E+00
          4   -1    0    0  501    0  0.00000000000E+00  0.00000000000E+00  0.12238649559E+02  0.12304366827E+02  0.12700000000E+01 0. -1.
         -4   -1    0    0    0  501 -0.00000000000E+00 -0.00000000000E+00 -0.31830900937E+03  0.31831154291E+03  0.12700000000E+01 0. -1.
         25    2    1    2    0    0  0.00000000000E+00  0.00000000000E+00 -0.30607035982E+03  0.33061590974E+03  0.12501125795E+03 0.  0.
    9000005    1    3    3    0    0 -0.32278631278E+02 -0.28303516592E+02 -0.27315632256E+03  0.27651107690E+03  0.10000000000E+01 0.  0.
    9000005    1    3    3    0    0  0.32278631278E+02  0.28303516592E+02 -0.32914037251E+02  0.54104832841E+02  0.10000000000E+01 0.  0.
<mgrwt>
<rscale>  0 0.12501126E+03</rscale>
<asrwt>0</asrwt>
<pdfrwt beam="1">  1        4 0.18881195E-02 0.12501126E+03</pdfrwt>
<pdfrwt beam="2">  1       -4 0.48975861E-01 0.12501126E+03</pdfrwt>
<totfact> 0.71893113E+03</totfact>
</mgrwt>
</event>
<event>
 5    1  0.3434846E-002  0.1250005E+03  0.7818608E-02  0.1235068E+00
         -4   -1    0    0    0  501 -0.00000000000E+00  0.00000000000E+00  0.34696705435E+01  0.36947954856E+01  0.12700000000E+01 0. -1.
          4   -1    0    0  501    0  0.00000000000E+00 -0.00000000000E+00 -0.10902343711E+04  0.10902351108E+04  0.12700000000E+01 0. -1.
         25    2    1    2    0    0  0.00000000000E+00  0.00000000000E+00 -0.10867647006E+04  0.10939299063E+04  0.12500050199E+03 0.  0.
    9000005    1    3    3    0    0 -0.82125651720E+00  0.20761565735E+02 -0.27601267378E+02  0.34562219763E+02  0.10000000000E+01 0.  0.
    9000005    1    3    3    0    0  0.82125651720E+00 -0.20761565735E+02 -0.10591634332E+04  0.10593676866E+04  0.10000000000E+01 0.  0.
<mgrwt>
<rscale>  0 0.12500050E+03</rscale>
<asrwt>0</asrwt>
<pdfrwt beam="2">  1        4 0.16774548E+00 0.12500050E+03</pdfrwt>
<pdfrwt beam="1">  1       -4 0.55117054E-03 0.12500050E+03</pdfrwt>
<totfact> 0.27661469E+03</totfact>
</mgrwt>
</event>
<event>
 4    1  0.3434846E-002  0.1248246E+03  0.7818608E-02  0.1235344E+00
         -4   -1    0    0    0  501 -0.00000000000E+00  0.00000000000E+00  0.25746813074E+02  0.25778116368E+02  0.12700000000E+01 0.  1.
          4   -1    0    0  501    0  0.00000000000E+00 -0.00000000000E+00 -0.15116634000E+03  0.15117167476E+03  0.12700000000E+01 0.  1.
    9000005    1    1    2    0    0 -0.22746430542E+01  0.30913104497E+01  0.25586309107E+02  0.25891879326E+02  0.10000000000E+01 0.  0.
    9000005    1    1    2    0    0  0.22746430542E+01 -0.30913104497E+01 -0.15100583603E+03  0.15105791180E+03  0.10000000000E+01 0.  0.
<mgrwt>
<rscale>  0 0.12482456E+03</rscale>
<asrwt>0</asrwt>
<pdfrwt beam="2">  1        4 0.23259178E-01 0.12482456E+03</pdfrwt>
<pdfrwt beam="1">  1       -4 0.39638666E-02 0.12482456E+03</pdfrwt>
<totfact> 0.94540457E+03</totfact>
</mgrwt>
</event>
<event>
 5    1  0.3434846E-002  0.1250056E+03  0.7818608E-02  0.1235061E+00
          4   -1    0    0  501    0  0.00000000000E+00  0.00000000000E+00  0.40373630111E+03  0.40373829857E+03  0.12700000000E+01 0.  1.
         -4   -1    0    0    0  501 -0.00000000000E+00 -0.00000000000E+00 -0.96324111191E+01  0.97157729475E+01  0.12700000000E+01 0.  1.
         25    2    1    2    0    0  0.00000000000E+00  0.00000000000E+00  0.39410388999E+03  0.41345407152E+03  0.12500557248E+03 0.  0.
    9000005    1    3    3    0    0  0.81831666757E+01  0.60259015949E+02  0.24469409180E+03  0.25213946890E+03  0.10000000000E+01 0.  0.
    9000005    1    3    3    0    0 -0.81831666757E+01 -0.60259015949E+02  0.14940979819E+03  0.16131460261E+03  0.10000000000E+01 0.  0.
<mgrwt>
<rscale>  0 0.12500557E+03</rscale>
<asrwt>0</asrwt>
<pdfrwt beam="1">  1        4 0.62119845E-01 0.12500557E+03</pdfrwt>
<pdfrwt beam="2">  1       -4 0.14884755E-02 0.12500557E+03</pdfrwt>
<totfact> 0.63257183E+03</totfact>
</mgrwt>
</event>
<event>
 5    1  0.3434846E-002  0.1250028E+03  0.7818608E-02  0.1235065E+00
          4   -1    0    0  501    0  0.00000000000E+00  0.00000000000E+00  0.39404582546E+02  0.39425043128E+02  0.12700000000E+01 0. -1.
         -4   -1    0    0    0  501 -0.00000000000E+00 -0.00000000000E+00 -0.99086082295E+02  0.99094220843E+02  0.12700000000E+01 0. -1.
         25    2    1    2    0    0  0.00000000000E+00  0.00000000000E+00 -0.59681499749E+02  0.13851926397E+03  0.12500282028E+03 0.  0.
    9000005    1    3    3    0    0  0.42108119580E+02  0.25892243117E+02 -0.72210197628E+02  0.87514653800E+02  0.10000000000E+01 0.  0.
    9000005    1    3    3    0    0 -0.42108119580E+02 -0.25892243117E+02  0.12528697879E+02  0.51004610171E+02  0.10000000000E+01 0.  0.
<mgrwt>
<rscale>  0 0.12500282E+03</rscale>
<asrwt>0</asrwt>
<pdfrwt beam="1">  1        4 0.60644434E-02 0.12500282E+03</pdfrwt>
<pdfrwt beam="2">  1       -4 0.15246213E-01 0.12500282E+03</pdfrwt>
<totfact> 0.10163721E+04</totfact>
</mgrwt>
</event>
<event>
 5    1  0.3434846E-002  0.1250445E+03  0.7818608E-02  0.1235000E+00
          4   -1    0    0  501    0  0.00000000000E+00  0.00000000000E+00  0.44745132759E+03  0.44745312991E+03  0.12700000000E+01 0.  1.
         -4   -1    0    0    0  501 -0.00000000000E+00 -0.00000000000E+00 -0.86882340396E+01  0.87805643741E+01  0.12700000000E+01 0.  1.
         25    2    1    2    0    0  0.00000000000E+00  0.00000000000E+00  0.43876309355E+03  0.45623369428E+03  0.12504451821E+03 0.  0.
    9000005    1    3    3    0    0 -0.61496949374E+02 -0.88739218181E+01  0.19425891905E+03  0.20395624262E+03  0.10000000000E+01 0.  0.
    9000005    1    3    3    0    0  0.61496949374E+02  0.88739218181E+01  0.24450417450E+03  0.25227745167E+03  0.10000000000E+01 0.  0.
<mgrwt>
<rscale>  0 0.12504452E+03</rscale>
<asrwt>0</asrwt>
<pdfrwt beam="1">  1        4 0.68845896E-01 0.12504452E+03</pdfrwt>
<pdfrwt beam="2">  1       -4 0.13438926E-02 0.12504452E+03</pdfrwt>
<totfact> 0.59369330E+03</totfact>
</mgrwt>
</event>
<event>
 5    1  0.3434846E-002  0.1249924E+03  0.7818608E-02  0.1235081E+00
          4   -1    0    0  501    0  0.00000000000E+00  0.00000000000E+00  0.47401900492E+02  0.47418910471E+02  0.12700000000E+01 0.  1.
         -4   -1    0    0    0  501 -0.00000000000E+00 -0.00000000000E+00 -0.82360357503E+02  0.82370148646E+02  0.12700000000E+01 0.  1.
         25    2    1    2    0    0  0.00000000000E+00  0.00000000000E+00 -0.34958457011E+02  0.12978905912E+03  0.12499242437E+03 0.  0.
    9000005    1    3    3    0    0 -0.37640213397E+02 -0.43925032988E+02 -0.42020552932E+02  0.71504692548E+02  0.10000000000E+01 0.  0.
    9000005    1    3    3    0    0  0.37640213397E+02  0.43925032988E+02  0.70620959212E+01  0.58284366569E+02  0.10000000000E+01 0.  0.
<mgrwt>
<rscale>  0 0.12499242E+03</rscale>
<asrwt>0</asrwt>
<pdfrwt beam="1">  1        4 0.72946617E-02 0.12499242E+03</pdfrwt>
<pdfrwt beam="2">  1       -4 0.12672886E-01 0.12499242E+03</pdfrwt>
<totfact> 0.10350792E+04</totfact>
</mgrwt>
</event>
<event>
 5    1  0.3434846E-002  0.1249996E+03  0.7818608E-02  0.1235070E+00
          4   -1    0    0  501    0  0.00000000000E+00  0.00000000000E+00  0.14643202288E+03  0.14643753011E+03  0.12700000000E+01 0. -1.
         -4   -1    0    0    0  501 -0.00000000000E+00 -0.00000000000E+00 -0.26654915306E+02  0.26685153363E+02  0.12700000000E+01 0. -1.
         25    2    1    2    0    0  0.00000000000E+00  0.00000000000E+00  0.11977710757E+03  0.17312268347E+03  0.12499963214E+03 0.  0.
    9000005    1    3    3    0    0 -0.54335080219E+02 -0.30865892911E+02  0.60542174349E+02  0.87013557349E+02  0.10000000000E+01 0.  0.
    9000005    1    3    3    0    0  0.54335080219E+02  0.30865892911E+02  0.59234933226E+02  0.86109126125E+02  0.10000000000E+01 0.  0.
<mgrwt>
<rscale>  0 0.12499963E+03</rscale>
<asrwt>0</asrwt>
<pdfrwt beam="1">  1        4 0.22530753E-01 0.12499963E+03</pdfrwt>
<pdfrwt beam="2">  1       -4 0.41035059E-02 0.12499963E+03</pdfrwt>
<totfact> 0.94870578E+03</totfact>
</mgrwt>
</event>
<event>
 4    1  0.3434846E-002  0.1197308E+03  0.7818608E-02  0.1243542E+00
          4   -1    0    0  501    0  0.00000000000E+00  0.00000000000E+00  0.31386532517E+03  0.31386789457E+03  0.12700000000E+01 0.  1.
         -4   -1    0    0    0  501 -0.00000000000E+00 -0.00000000000E+00 -0.11380539108E+02  0.11451182052E+02  0.12700000000E+01 0.  1.
    9000005    1    1    2    0    0  0.22935937738E+01 -0.58805897264E+02  0.12154400354E+03  0.13504569198E+03  0.10000000000E+01 0.  0.
    9000005    1    1    2    0    0 -0.22935937738E+01  0.58805897264E+02  0.18094078251E+03  0.19027338464E+03  0.10000000000E+01 0.  0.
<mgrwt>
<rscale>  0 0.11973076E+03</rscale>
<asrwt>0</asrwt>
<pdfrwt beam="1">  1        4 0.48292603E-01 0.11973076E+03</pdfrwt>
<pdfrwt beam="2">  1       -4 0.17564840E-02 0.11973076E+03</pdfrwt>
<totfact> 0.81693565E+03</totfact>
</mgrwt>
</event>
<event>
 5    1  0.3434846E-002  0.1249925E+03  0.7818608E-02  0.1235081E+00
         -4   -1    0    0    0  501 -0.00000000000E+00  0.00000000000E+00  0.40664229034E+02  0.40684056127E+02  0.12700000000E+01 0. -1.
          4   -1    0    0  501    0  0.00000000000E+00 -0.00000000000E+00 -0.96002111476E+02  0.96010511445E+02  0.12700000000E+01 0. -1.
         25    2    1    2    0    0  0.00000000000E+00  0.00000000000E+00 -0.55337882442E+02  0.13669456757E+03  0.12499249406E+03 0.  0.
    9000005    1    3    3    0    0  0.87135855772E+01  0.60380130845E+02 -0.42466992165E+02  0.74337959334E+02  0.10000000000E+01 0.  0.
    9000005    1    3    3    0    0 -0.87135855772E+01 -0.60380130845E+02 -0.12870890277E+02  0.62356608238E+02  0.10000000000E+01 0.  0.
<mgrwt>
<rscale>  0 0.12499249E+03</rscale>
<asrwt>0</asrwt>
<pdfrwt beam="2">  1        4 0.14771727E-01 0.12499249E+03</pdfrwt>
<pdfrwt beam="1">  1       -4 0.62582066E-02 0.12499249E+03</pdfrwt>
<totfact> 0.10204203E+04</totfact>
</mgrwt>
</event>
<event>
 5    1  0.3434846E-002  0.1250032E+03  0.7818608E-02  0.1235064E+00
         -4   -1    0    0    0  501 -0.00000000000E+00  0.00000000000E+00  0.56841005717E+03  0.56841147595E+03  0.12700000000E+01 0.  1.
          4   -1    0    0  501    0  0.00000000000E+00 -0.00000000000E+00 -0.68124791149E+01  0.69298464406E+01  0.12700000000E+01 0.  1.
         25    2    1    2    0    0  0.00000000000E+00  0.00000000000E+00  0.56159757806E+03  0.57534132239E+03  0.12500319025E+03 0.  0.
    9000005    1    3    3    0    0 -0.91430675784E+00  0.21885474627E+02  0.55018495864E+03  0.55062173829E+03  0.10000000000E+01 0.  0.
    9000005    1    3    3    0    0  0.91430675784E+00 -0.21885474627E+02  0.11412619414E+02  0.24719584107E+02  0.10000000000E+01 0.  0.
<mgrwt>
<rscale>  0 0.12500319E+03</rscale>
<asrwt>0</asrwt>
<pdfrwt beam="2">  1        4 0.10572114E-02 0.12500319E+03</pdfrwt>
<pdfrwt beam="1">  1       -4 0.87456813E-01 0.12500319E+03</pdfrwt>
<totfact> 0.50458551E+03</totfact>
</mgrwt>
</event>
<event>
 5    1  0.3434846E-002  0.1249968E+03  0.7818608E-02  0.1235074E+00
          4   -1    0    0  501    0  0.00000000000E+00  0.00000000000E+00  0.29271190943E+02  0.29298728969E+02  0.12700000000E+01 0. -1.
         -4   -1    0    0    0  501 -0.00000000000E+00 -0.00000000000E+00 -0.13335026096E+03  0.13335630843E+03  0.12700000000E+01 0. -1.
         25    2    1    2    0    0  0.00000000000E+00  0.00000000000E+00 -0.10407907001E+03  0.16265503740E+03  0.12499683346E+03 0.  0.
    9000005    1    3    3    0    0  0.29981871214E+01 -0.47030410631E+02 -0.10544255065E+03  0.11549883176E+03  0.10000000000E+01 0.  0.
    9000005    1    3    3    0    0 -0.29981871214E+01  0.47030410631E+02  0.13634806413E+01  0.47156205632E+02  0.10000000000E+01 0.  0.
<mgrwt>
<rscale>  0 0.12499683E+03</rscale>
<asrwt>0</asrwt>
<pdfrwt beam="1">  1        4 0.45058437E-02 0.12499683E+03</pdfrwt>
<pdfrwt beam="2">  1       -4 0.20518008E-01 0.12499683E+03</pdfrwt>
<totfact> 0.96840234E+03</totfact>
</mgrwt>
</event>
<event>
 5    1  0.3434846E-002  0.1250010E+03  0.7818608E-02  0.1235068E+00
         -4   -1    0    0    0  501 -0.00000000000E+00  0.00000000000E+00  0.47689510418E+01  0.49351589680E+01  0.12700000000E+01 0. -1.
          4   -1    0    0  501    0  0.00000000000E+00 -0.00000000000E+00 -0.80491709727E+03  0.80491809917E+03  0.12700000000E+01 0. -1.
         25    2    1    2    0    0  0.00000000000E+00  0.00000000000E+00 -0.80014814623E+03  0.80985325814E+03  0.12500097524E+03 0.  0.
    9000005    1    3    3    0    0 -0.51878966087E+02  0.23315504316E+02 -0.56780694232E+03  0.57064942268E+03  0.10000000000E+01 0.  0.
    9000005    1    3    3    0    0  0.51878966087E+02 -0.23315504316E+02 -0.23234120391E+03  0.23920383546E+03  0.10000000000E+01 0.  0.
<mgrwt>
<rscale>  0 0.12500098E+03</rscale>
<asrwt>0</asrwt>
<pdfrwt beam="2">  1        4 0.12384616E+00 0.12500098E+03</pdfrwt>
<pdfrwt beam="1">  1       -4 0.74654771E-03 0.12500098E+03</pdfrwt>
<totfact> 0.37827842E+03</totfact>
</mgrwt>
</event>
<event>
 5    1  0.3434846E-002  0.1250013E+03  0.7818608E-02  0.1235067E+00
          4   -1    0    0  501    0  0.00000000000E+00  0.00000000000E+00  0.70528029490E+02  0.70539463024E+02  0.12700000000E+01 0.  1.
         -4   -1    0    0    0  501 -0.00000000000E+00 -0.00000000000E+00 -0.55363771023E+02  0.55378335492E+02  0.12700000000E+01 0.  1.
         25    2    1    2    0    0  0.00000000000E+00  0.00000000000E+00  0.15164258467E+02  0.12591779852E+03  0.12500134899E+03 0.  0.
    9000005    1    3    3    0    0  0.44714526641E+01 -0.58469723398E+02  0.29342165768E+02  0.65579456655E+02  0.10000000000E+01 0.  0.
    9000005    1    3    3    0    0 -0.44714526641E+01  0.58469723398E+02 -0.14177907301E+02  0.60338341862E+02  0.10000000000E+01 0.  0.
<mgrwt>
<rscale>  0 0.12500135E+03</rscale>
<asrwt>0</asrwt>
<pdfrwt beam="1">  1        4 0.10852466E-01 0.12500135E+03</pdfrwt>
<pdfrwt beam="2">  1       -4 0.85195032E-02 0.12500135E+03</pdfrwt>
<totfact> 0.10432442E+04</totfact>
</mgrwt>
</event>
<event>
 5    1  0.3434846E-002  0.1249916E+03  0.7818608E-02  0.1235082E+00
          4   -1    0    0  501    0  0.00000000000E+00  0.00000000000E+00  0.61001459504E+01  0.62309454031E+01  0.12700000000E+01 0.  1.
         -4   -1    0    0    0  501 -0.00000000000E+00 -0.00000000000E+00 -0.63334473861E+03  0.63334601193E+03  0.12700000000E+01 0.  1.
         25    2    1    2    0    0  0.00000000000E+00  0.00000000000E+00 -0.62724459266E+03  0.63957695733E+03  0.12499162103E+03 0.  0.
    9000005    1    3    3    0    0  0.29992579971E+02 -0.52688444358E+02 -0.23617187252E+03  0.24383145899E+03  0.10000000000E+01 0.  0.
    9000005    1    3    3    0    0 -0.29992579971E+02  0.52688444358E+02 -0.39107272014E+03  0.39574549834E+03  0.10000000000E+01 0.  0.
<mgrwt>
<rscale>  0 0.12499162E+03</rscale>
<asrwt>0</asrwt>
<pdfrwt beam="1">  1        4 0.94864393E-03 0.12499162E+03</pdfrwt>
<pdfrwt beam="2">  1       -4 0.97447760E-01 0.12499162E+03</pdfrwt>
<totfact> 0.46469542E+03</totfact>
</mgrwt>
</event>
<event>
 5    1  0.3434846E-002  0.1249971E+03  0.7818608E-02  0.1235074E+00
         -4   -1    0    0    0  501 -0.00000000000E+00  0.00000000000E+00  0.13580161064E+04  0.13580167003E+04  0.12700000000E+01 0.  1.
          4   -1    0    0  501    0  0.00000000000E+00 -0.00000000000E+00 -0.27354948281E+01  0.30159296999E+01  0.12700000000E+01 0.  1.
         25    2    1    2    0    0  0.00000000000E+00  0.00000000000E+00  0.13552806116E+04  0.13610326300E+04  0.12499713465E+03 0.  0.
    9000005    1    3    3    0    0 -0.58000987157E+02  0.13026399933E+02  0.46783667209E+03  0.47159935683E+03  0.10000000000E+01 0.  0.
    9000005    1    3    3    0    0  0.58000987157E+02 -0.13026399933E+02  0.88744393951E+03  0.88943327314E+03  0.10000000000E+01 0.  0.
<mgrwt>
<rscale>  0 0.12499713E+03</rscale>
<asrwt>0</asrwt>
<pdfrwt beam="2">  1        4 0.44246376E-03 0.12499713E+03</pdfrwt>
<pdfrwt beam="1">  1       -4 0.20894679E+00 0.12499713E+03</pdfrwt>
<totfact> 0.20833499E+03</totfact>
</mgrwt>
</event>
<event>
 5    1  0.3434846E-002  0.1249922E+03  0.7818608E-02  0.1235081E+00
          4   -1    0    0  501    0  0.00000000000E+00  0.00000000000E+00  0.26974351584E+02  0.27004231953E+02  0.12700000000E+01 0. -1.
         -4   -1    0    0    0  501 -0.00000000000E+00 -0.00000000000E+00 -0.14468260502E+03  0.14468817883E+03  0.12700000000E+01 0. -1.
         25    2    1    2    0    0  0.00000000000E+00  0.00000000000E+00 -0.11770825343E+03  0.17169241079E+03  0.12499220374E+03 0.  0.
    9000005    1    3    3    0    0  0.39745189843E+02 -0.47367531277E+02 -0.71247209374E+02  0.94342609560E+02  0.10000000000E+01 0.  0.
    9000005    1    3    3    0    0 -0.39745189843E+02  0.47367531277E+02 -0.46461044059E+02  0.77349801228E+02  0.10000000000E+01 0.  0.
<mgrwt>
<rscale>  0 0.12499220E+03</rscale>
<asrwt>0</asrwt>
<pdfrwt beam="1">  1        4 0.41526276E-02 0.12499220E+03</pdfrwt>
<pdfrwt beam="2">  1       -4 0.22261589E-01 0.12499220E+03</pdfrwt>
<totfact> 0.95150778E+03</totfact>
</mgrwt>
</event>
<event>
 5    1  0.3434846E-002  0.1249962E+03  0.7818608E-02  0.1235075E+00
          4   -1    0    0  501    0  0.00000000000E+00  0.00000000000E+00  0.52549062991E+02  0.52564407361E+02  0.12700000000E+01 0. -1.
         -4   -1    0    0    0  501 -0.00000000000E+00 -0.00000000000E+00 -0.74299097598E+02  0.74309950908E+02  0.12700000000E+01 0. -1.
         25    2    1    2    0    0  0.00000000000E+00  0.00000000000E+00 -0.21750034607E+02  0.12687435827E+03  0.12499615506E+03 0.  0.
    9000005    1    3    3    0    0  0.13917707959E+02 -0.29523608781E+02  0.43214194594E+02  0.54164681156E+02  0.10000000000E+01 0.  0.
    9000005    1    3    3    0    0 -0.13917707959E+02  0.29523608781E+02 -0.64964229201E+02  0.72709677114E+02  0.10000000000E+01 0.  0.
<mgrwt>
<rscale>  0 0.12499616E+03</rscale>
<asrwt>0</asrwt>
<pdfrwt beam="1">  1        4 0.80864864E-02 0.12499616E+03</pdfrwt>
<pdfrwt beam="2">  1       -4 0.11432646E-01 0.12499616E+03</pdfrwt>
<totfact> 0.10412780E+04</totfact>
</mgrwt>
</event>
<event>
 5    1  0.3434846E-002  0.1250005E+03  0.7818608E-02  0.1235068E+00
         -4   -1    0    0    0  501 -0.00000000000E+00  0.00000000000E+00  0.14626298976E+02  0.14681332424E+02  0.12700000000E+01 0.  1.
          4   -1    0    0  501    0  0.00000000000E+00 -0.00000000000E+00 -0.26651451583E+03  0.26651754172E+03  0.12700000000E+01 0.  1.
         25    2    1    2    0    0  0.00000000000E+00  0.00000000000E+00 -0.25188821685E+03  0.28119887415E+03  0.12500053213E+03 0.  0.
    9000005    1    3    3    0    0 -0.14265059751E+02  0.58782956043E+02 -0.90635324075E+02  0.10897105038E+03  0.10000000000E+01 0.  0.
    9000005    1    3    3    0    0  0.14265059751E+02 -0.58782956043E+02 -0.16125289277E+03  0.17222782377E+03  0.10000000000E+01 0.  0.
<mgrwt>
<rscale>  0 0.12500053E+03</rscale>
<asrwt>0</asrwt>
<pdfrwt beam="2">  1        4 0.41006696E-01 0.12500053E+03</pdfrwt>
<pdfrwt beam="1">  1       -4 0.22546661E-02 0.12500053E+03</pdfrwt>
<totfact> 0.78018490E+03</totfact>
</mgrwt>
</event>
<event>
 5    1  0.3434846E-002  0.1249987E+03  0.7818608E-02  0.1235071E+00
          4   -1    0    0  501    0  0.00000000000E+00  0.00000000000E+00  0.27843121343E+03  0.27843410982E+03  0.12700000000E+01 0. -1.
         -4   -1    0    0    0  501 -0.00000000000E+00 -0.00000000000E+00 -0.13997484840E+02  0.14054980677E+02  0.12700000000E+01 0. -1.
         25    2    1    2    0    0  0.00000000000E+00  0.00000000000E+00  0.26443372859E+03  0.29248909050E+03  0.12499868497E+03 0.  0.
    9000005    1    3    3    0    0  0.15187572920E+02  0.87593702473E+01 -0.81360586416E+01  0.19354182715E+02  0.10000000000E+01 0.  0.
    9000005    1    3    3    0    0 -0.15187572920E+02 -0.87593702473E+01  0.27256978723E+03  0.27313490778E+03  0.10000000000E+01 0.  0.
<mgrwt>
<rscale>  0 0.12499868E+03</rscale>
<asrwt>0</asrwt>
<pdfrwt beam="1">  1        4 0.42840215E-01 0.12499868E+03</pdfrwt>
<pdfrwt beam="2">  1       -4 0.21581049E-02 0.12499868E+03</pdfrwt>
<totfact> 0.76552993E+03</totfact>
</mgrwt>
</event>
<event>
 5    1  0.3434846E-002  0.1250022E+03  0.7818608E-02  0.1235066E+00
         -4   -1    0    0    0  501 -0.00000000000E+00  0.00000000000E+00  0.71818738920E+01  0.72932991575E+01  0.12700000000E+01 0.  1.
          4   -1    0    0  501    0  0.00000000000E+00 -0.00000000000E+00 -0.53962424588E+03  0.53962574034E+03  0.12700000000E+01 0.  1.
         25    2    1    2    0    0  0.00000000000E+00  0.00000000000E+00 -0.53244237199E+03  0.54691903950E+03  0.12500222510E+03 0.  0.
    9000005    1    3    3    0    0  0.51921839874E+02 -0.20504612572E+02 -0.14331782869E+03  0.15380935151E+03  0.10000000000E+01 0.  0.
    9000005    1    3    3    0    0 -0.51921839874E+02  0.20504612572E+02 -0.38912454330E+03  0.39310968799E+03  0.10000000000E+01 0.  0.
<mgrwt>
<rscale>  0 0.12500223E+03</rscale>
<asrwt>0</asrwt>
<pdfrwt beam="2">  1        4 0.83027769E-01 0.12500223E+03</pdfrwt>
<pdfrwt beam="1">  1       -4 0.11135902E-02 0.12500223E+03</pdfrwt>
<totfact> 0.52396804E+03</totfact>
</mgrwt>
</event>
<event>
 5    1  0.3434846E-002  0.1250026E+03  0.7818608E-02  0.1235065E+00
         -4   -1    0    0    0  501 -0.00000000000E+00  0.00000000000E+00  0.21036807800E+02  0.21075108123E+02  0.12700000000E+01 0.  1.
          4   -1    0    0  501    0  0.00000000000E+00 -0.00000000000E+00 -0.18548473107E+03  0.18548907881E+03  0.12700000000E+01 0.  1.
         25    2    1    2    0    0  0.00000000000E+00  0.00000000000E+00 -0.16444792327E+03  0.20656418694E+03  0.12500257540E+03 0.  0.
    9000005    1    3    3    0    0 -0.41379316635E+02 -0.20534250051E+02 -0.15177563585E+03  0.15865291333E+03  0.10000000000E+01 0.  0.
    9000005    1    3    3    0    0  0.41379316635E+02  0.20534250051E+02 -0.12672287419E+02  0.47911273608E+02  0.10000000000E+01 0.  0.
<mgrwt>
<rscale>  0 0.12500258E+03</rscale>
<asrwt>0</asrwt>
<pdfrwt beam="2">  1        4 0.28539392E-01 0.12500258E+03</pdfrwt>
<pdfrwt beam="1">  1       -4 0.32397127E-02 0.12500258E+03</pdfrwt>
<totfact> 0.89034959E+03</totfact>
</mgrwt>
</event>
<event>
 5    1  0.3434846E-002  0.1250069E+03  0.7818608E-02  0.1235058E+00
          4   -1    0    0  501    0  0.00000000000E+00  0.00000000000E+00  0.19523311791E+02  0.19564575213E+02  0.12700000000E+01 0.  1.
         -4   -1    0    0    0  501 -0.00000000000E+00 -0.00000000000E+00 -0.19984900190E+03  0.19985303715E+03  0.12700000000E+01 0.  1.
         25    2    1    2    0    0  0.00000000000E+00  0.00000000000E+00 -0.18032569011E+03  0.21941761237E+03  0.12500693622E+03 0.  0.
    9000005    1    3    3    0    0  0.13034924110E+02  0.43701074172E+02 -0.15158466324E+02  0.48067371799E+02  0.10000000000E+01 0.  0.
    9000005    1    3    3    0    0 -0.13034924110E+02 -0.43701074172E+02 -0.16516722378E+03  0.17135024057E+03  0.10000000000E+01 0.  0.
<mgrwt>
<rscale>  0 0.12500694E+03</rscale>
<asrwt>0</asrwt>
<pdfrwt beam="1">  1        4 0.30070711E-02 0.12500694E+03</pdfrwt>
<pdfrwt beam="2">  1       -4 0.30749483E-01 0.12500694E+03</pdfrwt>
<totfact> 0.86947117E+03</totfact>
</mgrwt>
</event>
<event>
 5    1  0.3434846E-002  0.1250008E+03  0.7818608E-02  0.1235068E+00
         -4   -1    0    0    0  501 -0.00000000000E+00  0.00000000000E+00  0.22304602724E+03  0.22304964283E+03  0.12700000000E+01 0. -1.
          4   -1    0    0  501    0  0.00000000000E+00 -0.00000000000E+00 -0.17486637966E+02  0.17532695382E+02  0.12700000000E+01 0. -1.
         25    2    1    2    0    0  0.00000000000E+00  0.00000000000E+00  0.20555938928E+03  0.24058233822E+03  0.12500079577E+03 0.  0.
    9000005    1    3    3    0    0 -0.43953289973E+02 -0.50699875997E+01  0.17839674527E+02  0.47716354230E+02  0.10000000000E+01 0.  0.
    9000005    1    3    3    0    0  0.43953289973E+02  0.50699875997E+01  0.18771971475E+03  0.19286598399E+03  0.10000000000E+01 0.  0.
<mgrwt>
<rscale>  0 0.12500080E+03</rscale>
<asrwt>0</asrwt>
<pdfrwt beam="2">  1        4 0.26940733E-02 0.12500080E+03</pdfrwt>
<pdfrwt beam="1">  1       -4 0.34318591E-01 0.12500080E+03</pdfrwt>
<totfact> 0.83709232E+03</totfact>
</mgrwt>
</event>
<event>
 5    1  0.3434846E-002  0.1250075E+03  0.7818608E-02  0.1235058E+00
          4   -1    0    0  501    0  0.00000000000E+00  0.00000000000E+00  0.34357567811E+02  0.34381032065E+02  0.12700000000E+01 0.  1.
         -4   -1    0    0    0  501 -0.00000000000E+00 -0.00000000000E+00 -0.11364188609E+03  0.11364898228E+03  0.12700000000E+01 0.  1.
         25    2    1    2    0    0  0.00000000000E+00  0.00000000000E+00 -0.79284318277E+02  0.14803001435E+03  0.12500752786E+03 0.  0.
    9000005    1    3    3    0    0  0.92983209602E+01  0.18875175426E+02 -0.10932714255E+03  0.11133802189E+03  0.10000000000E+01 0.  0.
    9000005    1    3    3    0    0 -0.92983209602E+01 -0.18875175426E+02  0.30042824274E+02  0.36691992456E+02  0.10000000000E+01 0.  0.
<mgrwt>
<rscale>  0 0.12500753E+03</rscale>
<asrwt>0</asrwt>
<pdfrwt beam="1">  1        4 0.52881305E-02 0.12500753E+03</pdfrwt>
<pdfrwt beam="2">  1       -4 0.17485718E-01 0.12500753E+03</pdfrwt>
<totfact> 0.99680951E+03</totfact>
</mgrwt>
</event>
<event>
 5    1  0.3434846E-002  0.1250015E+03  0.7818608E-02  0.1235067E+00
          4   -1    0    0  501    0  0.00000000000E+00  0.00000000000E+00  0.21576494021E+03  0.21576867781E+03  0.12700000000E+01 0.  1.
         -4   -1    0    0    0  501 -0.00000000000E+00 -0.00000000000E+00 -0.18078466207E+02  0.18123019627E+02  0.12700000000E+01 0.  1.
         25    2    1    2    0    0  0.00000000000E+00  0.00000000000E+00  0.19768647401E+03  0.23389169744E+03  0.12500153650E+03 0.  0.
    9000005    1    3    3    0    0 -0.68153581257E+01 -0.25596876144E+02  0.20475035794E+03  0.20645909583E+03  0.10000000000E+01 0.  0.
    9000005    1    3    3    0    0  0.68153581257E+01  0.25596876144E+02 -0.70638839353E+01  0.27432601608E+02  0.10000000000E+01 0.  0.
<mgrwt>
<rscale>  0 0.12500154E+03</rscale>
<asrwt>0</asrwt>
<pdfrwt beam="1">  1        4 0.33198322E-01 0.12500154E+03</pdfrwt>
<pdfrwt beam="2">  1       -4 0.27850171E-02 0.12500154E+03</pdfrwt>
<totfact> 0.84712678E+03</totfact>
</mgrwt>
</event>
<event>
 5    1  0.3434846E-002  0.1250009E+03  0.7818608E-02  0.1235068E+00
          4   -1    0    0  501    0  0.00000000000E+00  0.00000000000E+00  0.36503519476E+03  0.36503740399E+03  0.12700000000E+01 0. -1.
         -4   -1    0    0    0  501 -0.00000000000E+00 -0.00000000000E+00 -0.10661251388E+02  0.10736628016E+02  0.12700000000E+01 0. -1.
         25    2    1    2    0    0  0.00000000000E+00  0.00000000000E+00  0.35437394337E+03  0.37577403200E+03  0.12500092556E+03 0.  0.
    9000005    1    3    3    0    0 -0.94279767525E+00  0.22289576686E+02  0.17030050559E+01  0.22396748034E+02  0.10000000000E+01 0.  0.
    9000005    1    3    3    0    0  0.94279767525E+00 -0.22289576686E+02  0.35267093831E+03  0.35337728397E+03  0.10000000000E+01 0.  0.
<mgrwt>
<rscale>  0 0.12500093E+03</rscale>
<asrwt>0</asrwt>
<pdfrwt beam="1">  1        4 0.56165230E-01 0.12500093E+03</pdfrwt>
<pdfrwt beam="2">  1       -4 0.16461606E-02 0.12500093E+03</pdfrwt>
<totfact> 0.66977788E+03</totfact>
</mgrwt>
</event>
<event>
 5    1  0.3434846E-002  0.1249996E+03  0.7818608E-02  0.1235070E+00
         -4   -1    0    0    0  501 -0.00000000000E+00  0.00000000000E+00  0.27123200975E+03  0.27123498302E+03  0.12700000000E+01 0.  1.
          4   -1    0    0  501    0  0.00000000000E+00 -0.00000000000E+00 -0.14370737049E+02  0.14426745418E+02  0.12700000000E+01 0.  1.
         25    2    1    2    0    0  0.00000000000E+00  0.00000000000E+00  0.25686127270E+03  0.28566172844E+03  0.12499963872E+03 0.  0.
    9000005    1    3    3    0    0 -0.11004863832E+02 -0.17731565930E+01  0.26895294617E+03  0.26918569495E+03  0.10000000000E+01 0.  0.
    9000005    1    3    3    0    0  0.11004863832E+02  0.17731565930E+01 -0.12091673467E+02  0.16476033488E+02  0.10000000000E+01 0.  0.
<mgrwt>
<rscale>  0 0.12499964E+03</rscale>
<asrwt>0</asrwt>
<pdfrwt beam="2">  1        4 0.22154198E-02 0.12499964E+03</pdfrwt>
<pdfrwt beam="1">  1       -4 0.41732535E-01 0.12499964E+03</pdfrwt>
<totfact> 0.77433964E+03</totfact>
</mgrwt>
</event>
<event>
 5    1  0.3434846E-002  0.1250002E+03  0.7818608E-02  0.1235069E+00
         -4   -1    0    0    0  501 -0.00000000000E+00  0.00000000000E+00  0.30610954425E+03  0.30611217876E+03  0.12700000000E+01 0. -1.
          4   -1    0    0  501    0  0.00000000000E+00 -0.00000000000E+00 -0.12726694372E+02  0.12789904207E+02  0.12700000000E+01 0. -1.
         25    2    1    2    0    0  0.00000000000E+00  0.00000000000E+00  0.29338284988E+03  0.31890208296E+03  0.12500016766E+03 0.  0.
    9000005    1    3    3    0    0 -0.25286939663E+02 -0.10235074695E+02  0.32534584242E+01  0.27491290680E+02  0.10000000000E+01 0.  0.
    9000005    1    3    3    0    0  0.25286939663E+02  0.10235074695E+02  0.29012939146E+03  0.29141079228E+03  0.10000000000E+01 0.  0.
<mgrwt>
<rscale>  0 0.12500017E+03</rscale>
<asrwt>0</asrwt>
<pdfrwt beam="2">  1        4 0.19630180E-02 0.12500017E+03</pdfrwt>
<pdfrwt beam="1">  1       -4 0.47098839E-01 0.12500017E+03</pdfrwt>
<totfact> 0.73286625E+03</totfact>
</mgrwt>
</event>
<event>
 5    1  0.3434846E-002  0.1249997E+03  0.7818608E-02  0.1235070E+00
          4   -1    0    0  501    0  0.00000000000E+00  0.00000000000E+00  0.33286824086E+03  0.33287066358E+03  0.12700000000E+01 0.  1.
         -4   -1    0    0    0  501 -0.00000000000E+00 -0.00000000000E+00 -0.11698227399E+02  0.11766963256E+02  0.12700000000E+01 0.  1.
         25    2    1    2    0    0  0.00000000000E+00  0.00000000000E+00  0.32117001346E+03  0.34463762684E+03  0.12499966514E+03 0.  0.
    9000005    1    3    3    0    0 -0.59889310783E+02 -0.16623216062E+02  0.17848885716E+03  0.18900352640E+03  0.10000000000E+01 0.  0.
    9000005    1    3    3    0    0  0.59889310783E+02  0.16623216062E+02  0.14268115630E+03  0.15563410044E+03  0.10000000000E+01 0.  0.
<mgrwt>
<rscale>  0 0.12499967E+03</rscale>
<asrwt>0</asrwt>
<pdfrwt beam="1">  1        4 0.51215982E-01 0.12499967E+03</pdfrwt>
<pdfrwt beam="2">  1       -4 0.18052007E-02 0.12499967E+03</pdfrwt>
<totfact> 0.70319051E+03</totfact>
</mgrwt>
</event>
<event>
 5    1  0.3434846E-002  0.1249999E+03  0.7818608E-02  0.1235069E+00
          4   -1    0    0  501    0  0.00000000000E+00  0.00000000000E+00  0.48873124776E+02  0.48889622880E+02  0.12700000000E+01 0.  1.
         -4   -1    0    0    0  501 -0.00000000000E+00 -0.00000000000E+00 -0.79891161954E+02  0.79901255674E+02  0.12700000000E+01 0.  1.
         25    2    1    2    0    0  0.00000000000E+00  0.00000000000E+00 -0.31018037178E+02  0.12879087855E+03  0.12499988707E+03 0.  0.
    9000005    1    3    3    0    0 -0.19451723679E+02  0.35867318241E+02  0.33259450966E+02  0.52650025171E+02  0.10000000000E+01 0.  0.
    9000005    1    3    3    0    0  0.19451723679E+02 -0.35867318241E+02 -0.64277488144E+02  0.76140853384E+02  0.10000000000E+01 0.  0.
<mgrwt>
<rscale>  0 0.12499989E+03</rscale>
<asrwt>0</asrwt>
<pdfrwt beam="1">  1        4 0.75209878E-02 0.12499989E+03</pdfrwt>
<pdfrwt beam="2">  1       -4 0.12292994E-01 0.12499989E+03</pdfrwt>
<totfact> 0.10370469E+04</totfact>
</mgrwt>
</event>
<event>
 5    1  0.3434846E-002  0.1249899E+03  0.7818608E-02  0.1235085E+00
          4   -1    0    0  501    0  0.00000000000E+00  0.00000000000E+00  0.53549993163E+02  0.53565050805E+02  0.12700000000E+01 0.  1.
         -4   -1    0    0    0  501 -0.00000000000E+00 -0.00000000000E+00 -0.72903275906E+02  0.72914336984E+02  0.12700000000E+01 0.  1.
         25    2    1    2    0    0  0.00000000000E+00  0.00000000000E+00 -0.19353282743E+02  0.12647938779E+03  0.12498994353E+03 0.  0.
    9000005    1    3    3    0    0  0.50601435133E+02 -0.54609563588E+01  0.27008566213E+02  0.57626295480E+02  0.10000000000E+01 0.  0.
    9000005    1    3    3    0    0 -0.50601435133E+02  0.54609563588E+01 -0.46361848956E+02  0.68853092309E+02  0.10000000000E+01 0.  0.
<mgrwt>
<rscale>  0 0.12498994E+03</rscale>
<asrwt>0</asrwt>
<pdfrwt beam="1">  1        4 0.82404696E-02 0.12498994E+03</pdfrwt>
<pdfrwt beam="2">  1       -4 0.11217898E-01 0.12498994E+03</pdfrwt>
<totfact> 0.10422843E+04</totfact>
</mgrwt>
</event>
<event>
 5    1  0.3434846E-002  0.1249989E+03  0.7818608E-02  0.1235071E+00
         -4   -1    0    0    0  501 -0.00000000000E+00  0.00000000000E+00  0.30931306881E+02  0.30957368192E+02  0.12700000000E+01 0.  1.
          4   -1    0    0  501    0  0.00000000000E+00 -0.00000000000E+00 -0.12620333768E+03  0.12620972760E+03  0.12700000000E+01 0.  1.
         25    2    1    2    0    0  0.00000000000E+00  0.00000000000E+00 -0.95272030794E+02  0.15716709579E+03  0.12499894458E+03 0.  0.
    9000005    1    3    3    0    0 -0.10688137034E+02  0.46060945866E+02  0.37360817996E+01  0.47442652904E+02  0.10000000000E+01 0.  0.
    9000005    1    3    3    0    0  0.10688137034E+02 -0.46060945866E+02 -0.99008112594E+02  0.10972444289E+03  0.10000000000E+01 0.  0.
<mgrwt>
<rscale>  0 0.12499894E+03</rscale>
<asrwt>0</asrwt>
<pdfrwt beam="2">  1        4 0.19418394E-01 0.12499894E+03</pdfrwt>
<pdfrwt beam="1">  1       -4 0.47611589E-02 0.12499894E+03</pdfrwt>
<totfact> 0.97894066E+03</totfact>
</mgrwt>
</event>
<event>
 5    1  0.3434846E-002  0.1250016E+03  0.7818608E-02  0.1235067E+00
         -4   -1    0    0    0  501 -0.00000000000E+00  0.00000000000E+00  0.73643615993E+01  0.74730664232E+01  0.12700000000E+01 0. -1.
          4   -1    0    0  501    0  0.00000000000E+00 -0.00000000000E+00 -0.52644366198E+03  0.52644519386E+03  0.12700000000E+01 0. -1.
         25    2    1    2    0    0  0.00000000000E+00  0.00000000000E+00 -0.51907930038E+03  0.53391826029E+03  0.12500155431E+03 0.  0.
    9000005    1    3    3    0    0  0.86150296651E+01 -0.60927233611E+02 -0.21294522470E+03  0.22165968342E+03  0.10000000000E+01 0.  0.
    9000005    1    3    3    0    0 -0.86150296651E+01  0.60927233611E+02 -0.30613407568E+03  0.31225857686E+03  0.10000000000E+01 0.  0.
<mgrwt>
<rscale>  0 0.12500155E+03</rscale>
<asrwt>0</asrwt>
<pdfrwt beam="2">  1        4 0.80999783E-01 0.12500155E+03</pdfrwt>
<pdfrwt beam="1">  1       -4 0.11414589E-02 0.12500155E+03</pdfrwt>
<totfact> 0.53323719E+03</totfact>
</mgrwt>
</event>
<event>
 4    1  0.3434846E-002  0.1252236E+03  0.7818608E-02  0.1234720E+00
         -4   -1    0    0    0  501 -0.00000000000E+00  0.00000000000E+00  0.17941291359E+02  0.17986184576E+02  0.12700000000E+01 0.  1.
          4   -1    0    0  501    0  0.00000000000E+00 -0.00000000000E+00 -0.21818385992E+03  0.21818755608E+03  0.12700000000E+01 0.  1.
    9000005    1    1    2    0    0 -0.22014454325E+02  0.21815211237E+02 -0.20270908744E+03  0.20506709577E+03  0.10000000000E+01 0.  0.
    9000005    1    1    2    0    0  0.22014454325E+02 -0.21815211237E+02  0.24665188755E+01  0.31106644883E+02  0.10000000000E+01 0.  0.
<mgrwt>
<rscale>  0 0.12522360E+03</rscale>
<asrwt>0</asrwt>
<pdfrwt beam="2">  1        4 0.33570483E-01 0.12522360E+03</pdfrwt>
<pdfrwt beam="1">  1       -4 0.27639365E-02 0.12522360E+03</pdfrwt>
<totfact> 0.83951220E+03</totfact>
</mgrwt>
</event>
<event>
 5    1  0.3434846E-002  0.1250108E+03  0.7818608E-02  0.1235052E+00
          4   -1    0    0  501    0  0.00000000000E+00  0.00000000000E+00  0.18852095164E+02  0.18894824479E+02  0.12700000000E+01 0. -1.
         -4   -1    0    0    0  501 -0.00000000000E+00 -0.00000000000E+00 -0.20696168316E+03  0.20696557974E+03  0.12700000000E+01 0. -1.
         25    2    1    2    0    0  0.00000000000E+00  0.00000000000E+00 -0.18810958800E+03  0.22586040422E+03  0.12501081992E+03 0.  0.
    9000005    1    3    3    0    0 -0.17691727115E+02 -0.61003864051E+01 -0.20178957415E+03  0.20265794867E+03  0.10000000000E+01 0.  0.
    9000005    1    3    3    0    0  0.17691727115E+02  0.61003864051E+01  0.13679986151E+02  0.23202455553E+02  0.10000000000E+01 0.  0.
<mgrwt>
<rscale>  0 0.12501082E+03</rscale>
<asrwt>0</asrwt>
<pdfrwt beam="1">  1        4 0.29039091E-02 0.12501082E+03</pdfrwt>
<pdfrwt beam="2">  1       -4 0.31843844E-01 0.12501082E+03</pdfrwt>
<totfact> 0.85928563E+03</totfact>
</mgrwt>
</event>
<event>
 5    1  0.3434846E-002  0.1250013E+03  0.7818608E-02  0.1235067E+00
          4   -1    0    0  501    0  0.00000000000E+00  0.00000000000E+00  0.15454754161E+04  0.15454759379E+04  0.12700000000E+01 0. -1.
         -4   -1    0    0    0  501 -0.00000000000E+00 -0.00000000000E+00 -0.23675081657E+01  0.26866326349E+01  0.12700000000E+01 0. -1.
         25    2    1    2    0    0  0.00000000000E+00  0.00000000000E+00  0.15431079080E+04  0.15481625706E+04  0.12500131726E+03 0.  0.
    9000005    1    3    3    0    0  0.29774215912E+02  0.47007520824E+02  0.11238508469E+04  0.11252279489E+04  0.10000000000E+01 0.  0.
    9000005    1    3    3    0    0 -0.29774215912E+02 -0.47007520824E+02  0.41925706106E+03  0.42293462166E+03  0.10000000000E+01 0.  0.
<mgrwt>
<rscale>  0 0.12500132E+03</rscale>
<asrwt>0</asrwt>
<pdfrwt beam="1">  1        4 0.23778997E+00 0.12500132E+03</pdfrwt>
<pdfrwt beam="2">  1       -4 0.38882031E-03 0.12500132E+03</pdfrwt>
<totfact> 0.17002384E+03</totfact>
</mgrwt>
</event>
<event>
 5    1  0.3434846E-002  0.1250000E+03  0.7818608E-02  0.1235069E+00
          4   -1    0    0  501    0  0.00000000000E+00  0.00000000000E+00  0.13631333803E+02  0.13690367462E+02  0.12700000000E+01 0. -1.
         -4   -1    0    0    0  501 -0.00000000000E+00 -0.00000000000E+00 -0.28588441104E+03  0.28588723192E+03  0.12700000000E+01 0. -1.
         25    2    1    2    0    0  0.00000000000E+00  0.00000000000E+00 -0.27225307724E+03  0.29957759939E+03  0.12499999995E+03 0.  0.
    9000005    1    3    3    0    0  0.58392703606E+02 -0.94004443421E+01 -0.87766210301E+02  0.10583942488E+03  0.10000000000E+01 0.  0.
    9000005    1    3    3    0    0 -0.58392703606E+02  0.94004443421E+01 -0.18448686694E+03  0.19373817451E+03  0.10000000000E+01 0.  0.
<mgrwt>
<rscale>  0 0.12500000E+03</rscale>
<asrwt>0</asrwt>
<pdfrwt beam="1">  1        4 0.21018865E-02 0.12500000E+03</pdfrwt>
<pdfrwt beam="2">  1       -4 0.43986971E-01 0.12500000E+03</pdfrwt>
<totfact> 0.75651856E+03</totfact>
</mgrwt>
</event>
<event>
 5    1  0.3434846E-002  0.1249964E+03  0.7818608E-02  0.1235075E+00
         -4   -1    0    0    0  501 -0.00000000000E+00  0.00000000000E+00  0.30338847738E+01  0.32889750411E+01  0.12700000000E+01 0. -1.
          4   -1    0    0  501    0  0.00000000000E+00 -0.00000000000E+00 -0.12352691266E+04  0.12352697795E+04  0.12700000000E+01 0. -1.
         25    2    1    2    0    0  0.00000000000E+00  0.00000000000E+00 -0.12322352418E+04  0.12385587545E+04  0.12499638850E+03 0.  0.
    9000005    1    3    3    0    0 -0.11110447804E+00 -0.39419185042E+02 -0.13565636302E+03  0.14127113407E+03  0.10000000000E+01 0.  0.
    9000005    1    3    3    0    0  0.11110447804E+00  0.39419185042E+02 -0.10965788788E+04  0.10972876204E+04  0.10000000000E+01 0.  0.
<mgrwt>
<rscale>  0 0.12499639E+03</rscale>
<asrwt>0</asrwt>
<pdfrwt beam="2">  1        4 0.19006069E+00 0.12499639E+03</pdfrwt>
<pdfrwt beam="1">  1       -4 0.48642504E-03 0.12499639E+03</pdfrwt>
<totfact> 0.23727127E+03</totfact>
</mgrwt>
</event>
<event>
 5    1  0.3434846E-002  0.1250020E+03  0.7818608E-02  0.1235066E+00
         -4   -1    0    0    0  501 -0.00000000000E+00  0.00000000000E+00  0.17685628965E+04  0.17685633525E+04  0.12700000000E+01 0.  1.
          4   -1    0    0  501    0  0.00000000000E+00 -0.00000000000E+00 -0.20257352857E+01  0.23909210459E+01  0.12700000000E+01 0.  1.
         25    2    1    2    0    0  0.00000000000E+00  0.00000000000E+00  0.17665371612E+04  0.17709542735E+04  0.12500198802E+03 0.  0.
    9000005    1    3    3    0    0 -0.18329602821E+02  0.35414811101E+02  0.20158340948E+03  0.20549222409E+03  0.10000000000E+01 0.  0.
    9000005    1    3    3    0    0  0.18329602821E+02 -0.35414811101E+02  0.15649537517E+04  0.15654620494E+04  0.10000000000E+01 0.  0.
<mgrwt>
<rscale>  0 0.12500199E+03</rscale>
<asrwt>0</asrwt>
<pdfrwt beam="2">  1        4 0.33977750E-03 0.12500199E+03</pdfrwt>
<pdfrwt beam="1">  1       -4 0.27211502E+00 0.12500199E+03</pdfrwt>
<totfact> 0.13155734E+03</totfact>
</mgrwt>
</event>
<event>
 5    1  0.3434846E-002  0.1249994E+03  0.7818608E-02  0.1235070E+00
          4   -1    0    0  501    0  0.00000000000E+00  0.00000000000E+00  0.20871125602E+02  0.20909729408E+02  0.12700000000E+01 0. -1.
         -4   -1    0    0    0  501 -0.00000000000E+00 -0.00000000000E+00 -0.18694501375E+03  0.18694932754E+03  0.12700000000E+01 0. -1.
         25    2    1    2    0    0  0.00000000000E+00  0.00000000000E+00 -0.16607388815E+03  0.20785905695E+03  0.12499940492E+03 0.  0.
    9000005    1    3    3    0    0  0.34229119041E+02 -0.18761810865E+02 -0.16418780067E+03  0.16876691626E+03  0.10000000000E+01 0.  0.
    9000005    1    3    3    0    0 -0.34229119041E+02  0.18761810865E+02 -0.18860874853E+01  0.39092140684E+02  0.10000000000E+01 0.  0.
<mgrwt>
<rscale>  0 0.12499940E+03</rscale>
<asrwt>0</asrwt>
<pdfrwt beam="1">  1        4 0.32142439E-02 0.12499940E+03</pdfrwt>
<pdfrwt beam="2">  1       -4 0.28764072E-01 0.12499940E+03</pdfrwt>
<totfact> 0.88827905E+03</totfact>
</mgrwt>
</event>
<event>
 5    1  0.3434846E-002  0.1250040E+03  0.7818608E-02  0.1235063E+00
         -4   -1    0    0    0  501 -0.00000000000E+00  0.00000000000E+00  0.10930985021E+02  0.11004514234E+02  0.12700000000E+01 0.  1.
          4   -1    0    0  501    0  0.00000000000E+00 -0.00000000000E+00 -0.35610571276E+03  0.35610797739E+03  0.12700000000E+01 0.  1.
         25    2    1    2    0    0  0.00000000000E+00  0.00000000000E+00 -0.34517472774E+03  0.36711249162E+03  0.12500395528E+03 0.  0.
    9000005    1    3    3    0    0  0.17604513782E+02  0.57846848892E+02 -0.12621552748E+03  0.13995547939E+03  0.10000000000E+01 0.  0.
    9000005    1    3    3    0    0 -0.17604513782E+02 -0.57846848892E+02 -0.21895920026E+03  0.22715701224E+03  0.10000000000E+01 0.  0.
<mgrwt>
<rscale>  0 0.12500396E+03</rscale>
<asrwt>0</asrwt>
<pdfrwt beam="2">  1        4 0.54791316E-01 0.12500396E+03</pdfrwt>
<pdfrwt beam="1">  1       -4 0.16875206E-02 0.12500396E+03</pdfrwt>
<totfact> 0.67876178E+03</totfact>
</mgrwt>
</event>
<event>
 5    1  0.3434846E-002  0.1249802E+03  0.7818608E-02  0.1235100E+00
         -4   -1    0    0    0  501 -0.00000000000E+00  0.00000000000E+00  0.52972987965E+01  0.54474098927E+01  0.12700000000E+01 0.  1.
          4   -1    0    0  501    0  0.00000000000E+00 -0.00000000000E+00 -0.72672120113E+03  0.72672231084E+03  0.12700000000E+01 0.  1.
         25    2    1    2    0    0  0.00000000000E+00  0.00000000000E+00 -0.72142390233E+03  0.73216972073E+03  0.12498021083E+03 0.  0.
    9000005    1    3    3    0    0  0.13542649468E+02  0.35004303843E+01 -0.39641751651E+01  0.14572956194E+02  0.10000000000E+01 0.  0.
    9000005    1    3    3    0    0 -0.13542649468E+02 -0.35004303843E+01 -0.71745972716E+03  0.71759676453E+03  0.10000000000E+01 0.  0.
<mgrwt>
<rscale>  0 0.12498021E+03</rscale>
<asrwt>0</asrwt>
<pdfrwt beam="2">  1        4 0.11181482E+00 0.12498021E+03</pdfrwt>
<pdfrwt beam="1">  1       -4 0.82660199E-03 0.12498021E+03</pdfrwt>
<totfact> 0.41459787E+03</totfact>
</mgrwt>
</event>
<event>
 5    1  0.3434846E-002  0.1250020E+03  0.7818608E-02  0.1235066E+00
         -4   -1    0    0    0  501 -0.00000000000E+00  0.00000000000E+00  0.75679619423E+02  0.75690274778E+02  0.12700000000E+01 0.  1.
          4   -1    0    0  501    0  0.00000000000E+00 -0.00000000000E+00 -0.51595172643E+02  0.51610800615E+02  0.12700000000E+01 0.  1.
         25    2    1    2    0    0  0.00000000000E+00  0.00000000000E+00  0.24084446780E+02  0.12730107539E+03  0.12500201286E+03 0.  0.
    9000005    1    3    3    0    0 -0.27485125468E+02  0.55632509044E+02  0.19592598599E+02  0.65079014316E+02  0.10000000000E+01 0.  0.
    9000005    1    3    3    0    0  0.27485125468E+02 -0.55632509044E+02  0.44918481802E+01  0.62222061076E+02  0.10000000000E+01 0.  0.
<mgrwt>
<rscale>  0 0.12500201E+03</rscale>
<asrwt>0</asrwt>
<pdfrwt beam="2">  1        4 0.79397407E-02 0.12500201E+03</pdfrwt>
<pdfrwt beam="1">  1       -4 0.11645040E-01 0.12500201E+03</pdfrwt>
<totfact> 0.10402138E+04</totfact>
</mgrwt>
</event>
<event>
 4    1  0.3434846E-002  0.1249187E+03  0.7818608E-02  0.1235196E+00
         -4   -1    0    0    0  501 -0.00000000000E+00  0.00000000000E+00  0.22387057873E+03  0.22387418101E+03  0.12700000000E+01 0.  1.
          4   -1    0    0  501    0  0.00000000000E+00 -0.00000000000E+00 -0.17399130580E+02  0.17445419024E+02  0.12700000000E+01 0.  1.
    9000005    1    1    2    0    0 -0.27493923710E+02  0.20290689127E+01  0.21148861404E+03  0.21328025419E+03  0.10000000000E+01 0.  0.
    9000005    1    1    2    0    0  0.27493923710E+02 -0.20290689127E+01 -0.50171658837E+01  0.28039345840E+02  0.10000000000E+01 0.  0.
<mgrwt>
<rscale>  0 0.12491874E+03</rscale>
<asrwt>0</asrwt>
<pdfrwt beam="2">  1        4 0.26806274E-02 0.12491874E+03</pdfrwt>
<pdfrwt beam="1">  1       -4 0.34445461E-01 0.12491874E+03</pdfrwt>
<totfact> 0.83752855E+03</totfact>
</mgrwt>
</event>
<event>
 5    1  0.3434846E-002  0.1249993E+03  0.7818608E-02  0.1235070E+00
          4   -1    0    0  501    0  0.00000000000E+00  0.00000000000E+00  0.61467683582E+02  0.61480802084E+02  0.12700000000E+01 0.  1.
         -4   -1    0    0    0  501 -0.00000000000E+00 -0.00000000000E+00 -0.63522657157E+02  0.63535351359E+02  0.12700000000E+01 0.  1.
         25    2    1    2    0    0  0.00000000000E+00  0.00000000000E+00 -0.20549735755E+01  0.12501615344E+03  0.12499926282E+03 0.  0.
    9000005    1    3    3    0    0  0.30270719496E+02  0.31385110257E+02  0.43743082845E+02  0.61772153123E+02  0.10000000000E+01 0.  0.
    9000005    1    3    3    0    0 -0.30270719496E+02 -0.31385110257E+02 -0.45798056420E+02  0.63244000320E+02  0.10000000000E+01 0.  0.
<mgrwt>
<rscale>  0 0.12499926E+03</rscale>
<asrwt>0</asrwt>
<pdfrwt beam="1">  1        4 0.94585524E-02 0.12499926E+03</pdfrwt>
<pdfrwt beam="2">  1       -4 0.97747020E-02 0.12499926E+03</pdfrwt>
<totfact> 0.10452686E+04</totfact>
</mgrwt>
</event>
<event>
 5    1  0.3434846E-002  0.1249964E+03  0.7818608E-02  0.1235075E+00
          4   -1    0    0  501    0  0.00000000000E+00  0.00000000000E+00  0.33570490978E+02  0.33594504975E+02  0.12700000000E+01 0. -1.
         -4   -1    0    0    0  501 -0.00000000000E+00 -0.00000000000E+00 -0.11628376038E+03  0.11629069537E+03  0.12700000000E+01 0. -1.
         25    2    1    2    0    0  0.00000000000E+00  0.00000000000E+00 -0.82713269406E+02  0.14988520034E+03  0.12499635333E+03 0.  0.
    9000005    1    3    3    0    0  0.23356466738E+01 -0.10631829661E+02 -0.11514402837E+03  0.11566174093E+03  0.10000000000E+01 0.  0.
    9000005    1    3    3    0    0 -0.23356466738E+01  0.10631829661E+02  0.32430758959E+02  0.34223459410E+02  0.10000000000E+01 0.  0.
<mgrwt>
<rscale>  0 0.12499635E+03</rscale>
<asrwt>0</asrwt>
<pdfrwt beam="1">  1        4 0.51670717E-02 0.12499635E+03</pdfrwt>
<pdfrwt beam="2">  1       -4 0.17892190E-01 0.12499635E+03</pdfrwt>
<totfact> 0.99334739E+03</totfact>
</mgrwt>
</event>
<event>
 5    1  0.3434846E-002  0.1250302E+03  0.7818608E-02  0.1235022E+00
          4   -1    0    0  501    0  0.00000000000E+00  0.00000000000E+00  0.54587635140E+02  0.54602406634E+02  0.12700000000E+01 0. -1.
         -4   -1    0    0    0  501 -0.00000000000E+00 -0.00000000000E+00 -0.71563733270E+02  0.71575001359E+02  0.12700000000E+01 0. -1.
         25    2    1    2    0    0  0.00000000000E+00  0.00000000000E+00 -0.16976098130E+02  0.12617740799E+03  0.12503019787E+03 0.  0.
    9000005    1    3    3    0    0 -0.52591831379E+02 -0.64722619680E+01 -0.41948671862E+02  0.67590546483E+02  0.10000000000E+01 0.  0.
    9000005    1    3    3    0    0  0.52591831379E+02  0.64722619680E+01  0.24972573732E+02  0.58586861510E+02  0.10000000000E+01 0.  0.
<mgrwt>
<rscale>  0 0.12503020E+03</rscale>
<asrwt>0</asrwt>
<pdfrwt beam="1">  1        4 0.84001007E-02 0.12503020E+03</pdfrwt>
<pdfrwt beam="2">  1       -4 0.11011808E-01 0.12503020E+03</pdfrwt>
<totfact> 0.10419970E+04</totfact>
</mgrwt>
</event>
<event>
 5    1  0.3434846E-002  0.1250024E+03  0.7818608E-02  0.1235066E+00
          4   -1    0    0  501    0  0.00000000000E+00  0.00000000000E+00  0.16403019240E+03  0.16403510880E+03  0.12700000000E+01 0. -1.
         -4   -1    0    0    0  501 -0.00000000000E+00 -0.00000000000E+00 -0.23792910778E+02  0.23826781220E+02  0.12700000000E+01 0. -1.
         25    2    1    2    0    0  0.00000000000E+00  0.00000000000E+00  0.14023728162E+03  0.18786189002E+03  0.12500237824E+03 0.  0.
    9000005    1    3    3    0    0 -0.37108165171E+02  0.23077351704E+02  0.13725857941E+03  0.14405033046E+03  0.10000000000E+01 0.  0.
    9000005    1    3    3    0    0  0.37108165171E+02 -0.23077351704E+02  0.29787022100E+01  0.43811559558E+02  0.10000000000E+01 0.  0.
<mgrwt>
<rscale>  0 0.12500238E+03</rscale>
<asrwt>0</asrwt>
<pdfrwt beam="1">  1        4 0.25238397E-01 0.12500238E+03</pdfrwt>
<pdfrwt beam="2">  1       -4 0.36634315E-02 0.12500238E+03</pdfrwt>
<totfact> 0.92215761E+03</totfact>
</mgrwt>
</event>
<event>
 5    1  0.3434846E-002  0.1250032E+03  0.7818608E-02  0.1235064E+00
          4   -1    0    0  501    0  0.00000000000E+00  0.00000000000E+00  0.71079375100E+02  0.71090719962E+02  0.12700000000E+01 0. -1.
         -4   -1    0    0    0  501 -0.00000000000E+00 -0.00000000000E+00 -0.54935923462E+02  0.54950601331E+02  0.12700000000E+01 0. -1.
         25    2    1    2    0    0  0.00000000000E+00  0.00000000000E+00  0.16143451638E+02  0.12604132129E+03  0.12500321453E+03 0.  0.
    9000005    1    3    3    0    0 -0.14800055649E+02  0.58693934880E+02  0.23738822626E+02  0.65027312251E+02  0.10000000000E+01 0.  0.
    9000005    1    3    3    0    0  0.14800055649E+02 -0.58693934880E+02 -0.75953709875E+01  0.61014009042E+02  0.10000000000E+01 0.  0.
<mgrwt>
<rscale>  0 0.12500321E+03</rscale>
<asrwt>0</asrwt>
<pdfrwt beam="1">  1        4 0.10937290E-01 0.12500321E+03</pdfrwt>
<pdfrwt beam="2">  1       -4 0.84536824E-02 0.12500321E+03</pdfrwt>
<totfact> 0.10429295E+04</totfact>
</mgrwt>
</event>
<event>
 5    1  0.3434846E-002  0.1250248E+03  0.7818608E-02  0.1235030E+00
         -4   -1    0    0    0  501 -0.00000000000E+00  0.00000000000E+00  0.50095975424E+03  0.50096136405E+03  0.12700000000E+01 0.  1.
          4   -1    0    0  501    0  0.00000000000E+00 -0.00000000000E+00 -0.77473064381E+01  0.78507106077E+01  0.12700000000E+01 0.  1.
         25    2    1    2    0    0  0.00000000000E+00  0.00000000000E+00  0.49321244780E+03  0.50881207465E+03  0.12502483213E+03 0.  0.
    9000005    1    3    3    0    0  0.58554937559E+02  0.18232775914E+02  0.29572776957E+03  0.30202156963E+03  0.10000000000E+01 0.  0.
    9000005    1    3    3    0    0 -0.58554937559E+02 -0.18232775914E+02  0.19748467823E+03  0.20679050502E+03  0.10000000000E+01 0.  0.
<mgrwt>
<rscale>  0 0.12502483E+03</rscale>
<asrwt>0</asrwt>
<pdfrwt beam="2">  1        4 0.11999709E-02 0.12502483E+03</pdfrwt>
<pdfrwt beam="1">  1       -4 0.77078834E-01 0.12502483E+03</pdfrwt>
<totfact> 0.55156955E+03</totfact>
</mgrwt>
</event>
<event>
 5    1  0.3434846E-002  0.1250307E+03  0.7818608E-02  0.1235021E+00
         -4   -1    0    0    0  501 -0.00000000000E+00  0.00000000000E+00  0.64516688243E+03  0.64516813241E+03  0.12700000000E+01 0. -1.
          4   -1    0    0  501    0  0.00000000000E+00 -0.00000000000E+00 -0.59897790331E+01  0.61229366211E+01  0.12700000000E+01 0. -1.
         25    2    1    2    0    0  0.00000000000E+00  0.00000000000E+00  0.63917710339E+03  0.65129106903E+03  0.12503074462E+03 0.  0.
    9000005    1    3    3    0    0 -0.16464689410E+02  0.60007167365E+02  0.35050486975E+03  0.35598681134E+03  0.10000000000E+01 0.  0.
    9000005    1    3    3    0    0  0.16464689410E+02 -0.60007167365E+02  0.28867223365E+03  0.29530425769E+03  0.10000000000E+01 0.  0.
<mgrwt>
<rscale>  0 0.12503074E+03</rscale>
<asrwt>0</asrwt>
<pdfrwt beam="2">  1        4 0.93184447E-03 0.12503074E+03</pdfrwt>
<pdfrwt beam="1">  1       -4 0.99266680E-01 0.12503074E+03</pdfrwt>
<totfact> 0.45751202E+03</totfact>
</mgrwt>
</event>
<event>
 4    1  0.3434846E-002  0.1251114E+03  0.7818608E-02  0.1234895E+00
         -4   -1    0    0    0  501 -0.00000000000E+00  0.00000000000E+00  0.87978751311E+02  0.87987917251E+02  0.12700000000E+01 0. -1.
          4   -1    0    0  501    0  0.00000000000E+00 -0.00000000000E+00 -0.44458573340E+02  0.44476708999E+02  0.12700000000E+01 0. -1.
    9000005    1    1    2    0    0  0.61740593911E+02 -0.78974457840E+01  0.15237905319E+02  0.64089502611E+02  0.10000000000E+01 0.  0.
    9000005    1    1    2    0    0 -0.61740593911E+02  0.78974457840E+01  0.28282272652E+02  0.68375123639E+02  0.10000000000E+01 0.  0.
<mgrwt>
<rscale>  0 0.12511144E+03</rscale>
<asrwt>0</asrwt>
<pdfrwt beam="2">  1        4 0.68418807E-02 0.12511144E+03</pdfrwt>
<pdfrwt beam="1">  1       -4 0.13537293E-01 0.12511144E+03</pdfrwt>
<totfact> 0.10265963E+04</totfact>
</mgrwt>
</event>
<event>
 5    1  0.3434846E-002  0.1249988E+03  0.7818608E-02  0.1235071E+00
         -4   -1    0    0    0  501 -0.00000000000E+00  0.00000000000E+00  0.12006735794E+03  0.12007407440E+03  0.12700000000E+01 0.  1.
          4   -1    0    0  501    0  0.00000000000E+00 -0.00000000000E+00 -0.32513171833E+02  0.32537966172E+02  0.12700000000E+01 0.  1.
         25    2    1    2    0    0  0.00000000000E+00  0.00000000000E+00  0.87554186111E+02  0.15261204057E+03  0.12499879768E+03 0.  0.
    9000005    1    3    3    0    0 -0.54392198117E+02 -0.16427103925E+02  0.75539806544E+02  0.94528426053E+02  0.10000000000E+01 0.  0.
    9000005    1    3    3    0    0  0.54392198117E+02  0.16427103925E+02  0.12014379567E+02  0.58083614521E+02  0.10000000000E+01 0.  0.
<mgrwt>
<rscale>  0 0.12499880E+03</rscale>
<asrwt>0</asrwt>
<pdfrwt beam="2">  1        4 0.50044504E-02 0.12499880E+03</pdfrwt>
<pdfrwt beam="1">  1       -4 0.18474325E-01 0.12499880E+03</pdfrwt>
<totfact> 0.98788225E+03</totfact>
</mgrwt>
</event>
<event>
 5    1  0.3434846E-002  0.1249999E+03  0.7818608E-02  0.1235069E+00
          4   -1    0    0  501    0  0.00000000000E+00  0.00000000000E+00  0.34809712010E+02  0.34832871690E+02  0.12700000000E+01 0.  1.
         -4   -1    0    0    0  501 -0.00000000000E+00 -0.00000000000E+00 -0.11215306432E+03  0.11216025470E+03  0.12700000000E+01 0.  1.
         25    2    1    2    0    0  0.00000000000E+00  0.00000000000E+00 -0.77343352306E+02  0.14699312640E+03  0.12499994025E+03 0.  0.
    9000005    1    3    3    0    0 -0.33105293934E+02  0.26376276913E+02 -0.92734202996E+02  0.10194263522E+03  0.10000000000E+01 0.  0.
    9000005    1    3    3    0    0  0.33105293934E+02 -0.26376276913E+02  0.15390850690E+02  0.45050491176E+02  0.10000000000E+01 0.  0.
<mgrwt>
<rscale>  0 0.12499994E+03</rscale>
<asrwt>0</asrwt>
<pdfrwt beam="1">  1        4 0.53576750E-02 0.12499994E+03</pdfrwt>
<pdfrwt beam="2">  1       -4 0.17256652E-01 0.12499994E+03</pdfrwt>
<totfact> 0.99906620E+03</totfact>
</mgrwt>
</event>
<event>
 5    1  0.3434846E-002  0.1250062E+03  0.7818608E-02  0.1235060E+00
         -4   -1    0    0    0  501 -0.00000000000E+00  0.00000000000E+00  0.12494532735E+03  0.12495178161E+03  0.12700000000E+01 0.  1.
          4   -1    0    0  501    0  0.00000000000E+00 -0.00000000000E+00 -0.31246638591E+02  0.31272437117E+02  0.12700000000E+01 0.  1.
         25    2    1    2    0    0  0.00000000000E+00  0.00000000000E+00  0.93698688760E+02  0.15622421872E+03  0.12500624881E+03 0.  0.
    9000005    1    3    3    0    0 -0.41223809754E+02 -0.13417485969E+02  0.10310403926E+03  0.11185201979E+03  0.10000000000E+01 0.  0.
    9000005    1    3    3    0    0  0.41223809754E+02  0.13417485969E+02 -0.94053504951E+01  0.44372198934E+02  0.10000000000E+01 0.  0.
<mgrwt>
<rscale>  0 0.12500625E+03</rscale>
<asrwt>0</asrwt>
<pdfrwt beam="2">  1        4 0.48096562E-02 0.12500625E+03</pdfrwt>
<pdfrwt beam="1">  1       -4 0.19224839E-01 0.12500625E+03</pdfrwt>
<totfact> 0.98061924E+03</totfact>
</mgrwt>
</event>
<event>
 5    1  0.3434846E-002  0.1249977E+03  0.7818608E-02  0.1235073E+00
         -4   -1    0    0    0  501 -0.00000000000E+00  0.00000000000E+00  0.13058536898E+03  0.13059154449E+03  0.12700000000E+01 0. -1.
          4   -1    0    0  501    0  0.00000000000E+00 -0.00000000000E+00 -0.29891911880E+02  0.29918878586E+02  0.12700000000E+01 0. -1.
         25    2    1    2    0    0  0.00000000000E+00  0.00000000000E+00  0.10069345710E+03  0.16051042307E+03  0.12499769443E+03 0.  0.
    9000005    1    3    3    0    0  0.31147702694E+02  0.15140683348E+02 -0.16447655977E+02  0.38352901617E+02  0.10000000000E+01 0.  0.
    9000005    1    3    3    0    0 -0.31147702694E+02 -0.15140683348E+02  0.11714111308E+03  0.12215752145E+03  0.10000000000E+01 0.  0.
<mgrwt>
<rscale>  0 0.12499769E+03</rscale>
<asrwt>0</asrwt>
<pdfrwt beam="2">  1        4 0.46013051E-02 0.12499769E+03</pdfrwt>
<pdfrwt beam="1">  1       -4 0.20092606E-01 0.12499769E+03</pdfrwt>
<totfact> 0.97249509E+03</totfact>
</mgrwt>
</event>
<event>
 5    1  0.3434846E-002  0.1250014E+03  0.7818608E-02  0.1235067E+00
         -4   -1    0    0    0  501 -0.00000000000E+00  0.00000000000E+00  0.94924670854E+02  0.94933166157E+02  0.12700000000E+01 0. -1.
          4   -1    0    0  501    0  0.00000000000E+00 -0.00000000000E+00 -0.41131810389E+02  0.41151412198E+02  0.12700000000E+01 0. -1.
         25    2    1    2    0    0  0.00000000000E+00  0.00000000000E+00  0.53792860465E+02  0.13608457835E+03  0.12500136251E+03 0.  0.
    9000005    1    3    3    0    0  0.56771399508E+02  0.24971779667E+02  0.35241141524E+02  0.71340869336E+02  0.10000000000E+01 0.  0.
    9000005    1    3    3    0    0 -0.56771399508E+02 -0.24971779667E+02  0.18551718941E+02  0.64743709019E+02  0.10000000000E+01 0.  0.
<mgrwt>
<rscale>  0 0.12500136E+03</rscale>
<asrwt>0</asrwt>
<pdfrwt beam="2">  1        4 0.63301322E-02 0.12500136E+03</pdfrwt>
<pdfrwt beam="1">  1       -4 0.14605957E-01 0.12500136E+03</pdfrwt>
<totfact> 0.10214947E+04</totfact>
</mgrwt>
</event>
<event>
 5    1  0.3434846E-002  0.1250033E+03  0.7818608E-02  0.1235064E+00
         -4   -1    0    0    0  501 -0.00000000000E+00  0.00000000000E+00  0.23032026744E+03  0.23032376884E+03  0.12700000000E+01 0.  1.
          4   -1    0    0  501    0  0.00000000000E+00 -0.00000000000E+00 -0.16933562678E+02  0.16981120251E+02  0.12700000000E+01 0.  1.
         25    2    1    2    0    0  0.00000000000E+00  0.00000000000E+00  0.21338670476E+03  0.24730488909E+03  0.12500328956E+03 0.  0.
    9000005    1    3    3    0    0 -0.12589578772E+02  0.29173087692E+02  0.22948934600E+00  0.31790237566E+02  0.10000000000E+01 0.  0.
    9000005    1    3    3    0    0  0.12589578772E+02 -0.29173087692E+02  0.21315721541E+03  0.21551465152E+03  0.10000000000E+01 0.  0.
<mgrwt>
<rscale>  0 0.12500329E+03</rscale>
<asrwt>0</asrwt>
<pdfrwt beam="2">  1        4 0.26090911E-02 0.12500329E+03</pdfrwt>
<pdfrwt beam="1">  1       -4 0.35437815E-01 0.12500329E+03</pdfrwt>
<totfact> 0.82715258E+03</totfact>
</mgrwt>
</event>
<event>
 5    1  0.3434846E-002  0.1250032E+03  0.7818608E-02  0.1235064E+00
         -4   -1    0    0    0  501 -0.00000000000E+00  0.00000000000E+00  0.86654136901E+01  0.87579846095E+01  0.12700000000E+01 0.  1.
          4   -1    0    0  501    0  0.00000000000E+00 -0.00000000000E+00 -0.44832048173E+03  0.44832228055E+03  0.12700000000E+01 0.  1.
         25    2    1    2    0    0  0.00000000000E+00  0.00000000000E+00 -0.43965506804E+03  0.45708026516E+03  0.12500315975E+03 0.  0.
    9000005    1    3    3    0    0 -0.15726897589E+02  0.50959455111E+02 -0.33894612184E+03  0.34311758172E+03  0.10000000000E+01 0.  0.
    9000005    1    3    3    0    0  0.15726897589E+02 -0.50959455111E+02 -0.10070894620E+03  0.11396268345E+03  0.10000000000E+01 0.  0.
<mgrwt>
<rscale>  0 0.12500316E+03</rscale>
<asrwt>0</asrwt>
<pdfrwt beam="2">  1        4 0.68979623E-01 0.12500316E+03</pdfrwt>
<pdfrwt beam="1">  1       -4 0.13404001E-02 0.12500316E+03</pdfrwt>
<totfact> 0.59351181E+03</totfact>
</mgrwt>
</event>
<event>
 5    1  0.3434846E-002  0.1249957E+03  0.7818608E-02  0.1235076E+00
          4   -1    0    0  501    0  0.00000000000E+00  0.00000000000E+00  0.92496540760E+01  0.93364340369E+01  0.12700000000E+01 0. -1.
         -4   -1    0    0    0  501 -0.00000000000E+00 -0.00000000000E+00 -0.42022492366E+03  0.42022684275E+03  0.12700000000E+01 0. -1.
         25    2    1    2    0    0  0.00000000000E+00  0.00000000000E+00 -0.41097526959E+03  0.42956327679E+03  0.12499574613E+03 0.  0.
    9000005    1    3    3    0    0 -0.49361950795E+02  0.35664252737E+02 -0.25365470419E+03  0.26086442852E+03  0.10000000000E+01 0.  0.
    9000005    1    3    3    0    0  0.49361950795E+02 -0.35664252737E+02 -0.15732056540E+03  0.16869884827E+03  0.10000000000E+01 0.  0.
<mgrwt>
<rscale>  0 0.12499575E+03</rscale>
<asrwt>0</asrwt>
<pdfrwt beam="1">  1        4 0.14298470E-02 0.12499575E+03</pdfrwt>
<pdfrwt beam="2">  1       -4 0.64656797E-01 0.12499575E+03</pdfrwt>
<totfact> 0.61781399E+03</totfact>
</mgrwt>
</event>
<event>
 5    1  0.3434846E-002  0.1250010E+03  0.7818608E-02  0.1235068E+00
          4   -1    0    0  501    0  0.00000000000E+00  0.00000000000E+00  0.17369127629E+03  0.17369591924E+03  0.12700000000E+01 0.  1.
         -4   -1    0    0    0  501 -0.00000000000E+00 -0.00000000000E+00 -0.22467088413E+02  0.22502954512E+02  0.12700000000E+01 0.  1.
         25    2    1    2    0    0  0.00000000000E+00  0.00000000000E+00  0.15122418788E+03  0.19619887375E+03  0.12500097224E+03 0.  0.
    9000005    1    3    3    0    0  0.56532220597E+02 -0.14459001886E+02  0.40502750913E+02  0.71038211779E+02  0.10000000000E+01 0.  0.
    9000005    1    3    3    0    0 -0.56532220597E+02  0.14459001886E+02  0.11072143697E+03  0.12516066197E+03  0.10000000000E+01 0.  0.
<mgrwt>
<rscale>  0 0.12500097E+03</rscale>
<asrwt>0</asrwt>
<pdfrwt beam="1">  1        4 0.26724851E-01 0.12500097E+03</pdfrwt>
<pdfrwt beam="2">  1       -4 0.34595912E-02 0.12500097E+03</pdfrwt>
<totfact> 0.90777801E+03</totfact>
</mgrwt>
</event>
<event>
 5    1  0.3434846E-002  0.1249995E+03  0.7818608E-02  0.1235070E+00
          4   -1    0    0  501    0  0.00000000000E+00  0.00000000000E+00  0.33162687556E+01  0.35511319969E+01  0.12700000000E+01 0.  1.
         -4   -1    0    0    0  501 -0.00000000000E+00 -0.00000000000E+00 -0.11373773153E+04  0.11373780243E+04  0.12700000000E+01 0.  1.
         25    2    1    2    0    0  0.00000000000E+00  0.00000000000E+00 -0.11340610465E+04  0.11409291563E+04  0.12499952999E+03 0.  0.
    9000005    1    3    3    0    0 -0.11789336145E+02  0.29955414705E+02 -0.10559174293E+04  0.10564085066E+04  0.10000000000E+01 0.  0.
    9000005    1    3    3    0    0  0.11789336145E+02 -0.29955414705E+02 -0.78143617274E+02  0.84520649770E+02  0.10000000000E+01 0.  0.
<mgrwt>
<rscale>  0 0.12499953E+03</rscale>
<asrwt>0</asrwt>
<pdfrwt beam="1">  1        4 0.52831704E-03 0.12499953E+03</pdfrwt>
<pdfrwt beam="2">  1       -4 0.17499895E+00 0.12499953E+03</pdfrwt>
<totfact> 0.26313585E+03</totfact>
</mgrwt>
</event>
<event>
 5    1  0.3434846E-002  0.1250085E+03  0.7818608E-02  0.1235056E+00
         -4   -1    0    0    0  501 -0.00000000000E+00  0.00000000000E+00  0.12694048644E+03  0.12694683926E+03  0.12700000000E+01 0. -1.
          4   -1    0    0  501    0  0.00000000000E+00 -0.00000000000E+00 -0.30756252895E+02  0.30782462412E+02  0.12700000000E+01 0. -1.
         25    2    1    2    0    0  0.00000000000E+00  0.00000000000E+00  0.96184233549E+02  0.15772930167E+03  0.12500850300E+03 0.  0.
    9000005    1    3    3    0    0  0.20396862579E+02  0.53495559106E+02  0.16473427110E+02  0.59583392383E+02  0.10000000000E+01 0.  0.
    9000005    1    3    3    0    0 -0.20396862579E+02 -0.53495559106E+02  0.79710806439E+02  0.98145909289E+02  0.10000000000E+01 0.  0.
<mgrwt>
<rscale>  0 0.12500850E+03</rscale>
<asrwt>0</asrwt>
<pdfrwt beam="2">  1        4 0.47342360E-02 0.12500850E+03</pdfrwt>
<pdfrwt beam="1">  1       -4 0.19531810E-01 0.12500850E+03</pdfrwt>
<totfact> 0.97763661E+03</totfact>
</mgrwt>
</event>
<event>
 5    1  0.3434846E-002  0.1249990E+03  0.7818608E-02  0.1235071E+00
         -4   -1    0    0    0  501 -0.00000000000E+00  0.00000000000E+00  0.63874900369E+02  0.63887524581E+02  0.12700000000E+01 0. -1.
          4   -1    0    0  501    0  0.00000000000E+00 -0.00000000000E+00 -0.61128430310E+02  0.61141621602E+02  0.12700000000E+01 0. -1.
         25    2    1    2    0    0  0.00000000000E+00  0.00000000000E+00  0.27464700589E+01  0.12502914618E+03  0.12499897719E+03 0.  0.
    9000005    1    3    3    0    0 -0.13557011178E+02  0.14851100013E+02  0.60555398195E+02  0.63814606277E+02  0.10000000000E+01 0.  0.
    9000005    1    3    3    0    0  0.13557011178E+02 -0.14851100013E+02 -0.57808928137E+02  0.61214539907E+02  0.10000000000E+01 0.  0.
<mgrwt>
<rscale>  0 0.12499898E+03</rscale>
<asrwt>0</asrwt>
<pdfrwt beam="2">  1        4 0.94063598E-02 0.12499898E+03</pdfrwt>
<pdfrwt beam="1">  1       -4 0.98288935E-02 0.12499898E+03</pdfrwt>
<totfact> 0.10452471E+04</totfact>
</mgrwt>
</event>
<event>
 5    1  0.3434846E-002  0.1249978E+03  0.7818608E-02  0.1235073E+00
         -4   -1    0    0    0  501 -0.00000000000E+00  0.00000000000E+00  0.39929019695E+03  0.39929221666E+03  0.12700000000E+01 0.  1.
          4   -1    0    0  501    0  0.00000000000E+00 -0.00000000000E+00 -0.97393731521E+01  0.98218271923E+01  0.12700000000E+01 0.  1.
         25    2    1    2    0    0  0.00000000000E+00  0.00000000000E+00  0.38955082380E+03  0.40911404385E+03  0.12499782618E+03 0.  0.
    9000005    1    3    3    0    0  0.56618103203E+02  0.71347844321E+01  0.11142069291E+03  0.12518820059E+03  0.10000000000E+01 0.  0.
    9000005    1    3    3    0    0 -0.56618103203E+02 -0.71347844321E+01  0.27813013089E+03  0.28392584326E+03  0.10000000000E+01 0.  0.
<mgrwt>
<rscale>  0 0.12499783E+03</rscale>
<asrwt>0</asrwt>
<pdfrwt beam="2">  1        4 0.15048629E-02 0.12499783E+03</pdfrwt>
<pdfrwt beam="1">  1       -4 0.61435765E-01 0.12499783E+03</pdfrwt>
<totfact> 0.63678966E+03</totfact>
</mgrwt>
</event>
<event>
 4    1  0.3434846E-002  0.1250828E+03  0.7818608E-02  0.1234940E+00
         -4   -1    0    0    0  501 -0.00000000000E+00  0.00000000000E+00  0.10878878534E+04  0.10878885947E+04  0.12700000000E+01 0.  1.
          4   -1    0    0  501    0  0.00000000000E+00 -0.00000000000E+00 -0.34825171993E+01  0.37068620211E+01  0.12700000000E+01 0.  1.
    9000005    1    1    2    0    0  0.32508562181E+02  0.17944963794E+02  0.98130074728E+03  0.98200355649E+03  0.10000000000E+01 0.  0.
    9000005    1    1    2    0    0 -0.32508562181E+02 -0.17944963794E+02  0.10310458896E+03  0.10959190027E+03  0.10000000000E+01 0.  0.
<mgrwt>
<rscale>  0 0.12508280E+03</rscale>
<asrwt>0</asrwt>
<pdfrwt beam="2">  1        4 0.55308620E-03 0.12508280E+03</pdfrwt>
<pdfrwt beam="1">  1       -4 0.16738467E+00 0.12508280E+03</pdfrwt>
<totfact> 0.27680651E+03</totfact>
</mgrwt>
</event>
<event>
 5    1  0.3434846E-002  0.1249986E+03  0.7818608E-02  0.1235071E+00
          4   -1    0    0  501    0  0.00000000000E+00  0.00000000000E+00  0.57853800623E+02  0.57867738391E+02  0.12700000000E+01 0.  1.
         -4   -1    0    0    0  501 -0.00000000000E+00 -0.00000000000E+00 -0.67489762569E+02  0.67501710731E+02  0.12700000000E+01 0.  1.
         25    2    1    2    0    0  0.00000000000E+00  0.00000000000E+00 -0.96359619460E+01  0.12536944912E+03  0.12499858803E+03 0.  0.
    9000005    1    3    3    0    0  0.47105398216E+02 -0.19252486793E+02 -0.41196587612E+02  0.65480803444E+02  0.10000000000E+01 0.  0.
    9000005    1    3    3    0    0 -0.47105398216E+02  0.19252486793E+02  0.31560625666E+02  0.59888645679E+02  0.10000000000E+01 0.  0.
<mgrwt>
<rscale>  0 0.12499859E+03</rscale>
<asrwt>0</asrwt>
<pdfrwt beam="1">  1        4 0.89025760E-02 0.12499859E+03</pdfrwt>
<pdfrwt beam="2">  1       -4 0.10385032E-01 0.12499859E+03</pdfrwt>
<totfact> 0.10445177E+04</totfact>
</mgrwt>
</event>
<event>
 5    1  0.3434846E-002  0.1249960E+03  0.7818608E-02  0.1235076E+00
          4   -1    0    0  501    0  0.00000000000E+00  0.00000000000E+00  0.13237743037E+04  0.13237749129E+04  0.12700000000E+01 0.  1.
         -4   -1    0    0    0  501 -0.00000000000E+00 -0.00000000000E+00 -0.28133573417E+01  0.30867263455E+01  0.12700000000E+01 0.  1.
         25    2    1    2    0    0  0.00000000000E+00  0.00000000000E+00  0.13209609463E+04  0.13268616392E+04  0.12499595158E+03 0.  0.
    9000005    1    3    3    0    0  0.41386434119E+02 -0.25493335146E+02  0.10773566414E+04  0.10784530958E+04  0.10000000000E+01 0.  0.
    9000005    1    3    3    0    0 -0.41386434119E+02  0.25493335146E+02  0.24360430493E+03  0.24840854342E+03  0.10000000000E+01 0.  0.
<mgrwt>
<rscale>  0 0.12499595E+03</rscale>
<asrwt>0</asrwt>
<pdfrwt beam="1">  1        4 0.20367886E+00 0.12499595E+03</pdfrwt>
<pdfrwt beam="2">  1       -4 0.45389900E-03 0.12499595E+03</pdfrwt>
<totfact> 0.21605163E+03</totfact>
</mgrwt>
</event>
<event>
 5    1  0.3434846E-002  0.1250020E+03  0.7818608E-02  0.1235066E+00
          4   -1    0    0  501    0  0.00000000000E+00  0.00000000000E+00  0.93910151678E+02  0.93918738749E+02  0.12700000000E+01 0. -1.
         -4   -1    0    0    0  501 -0.00000000000E+00 -0.00000000000E+00 -0.41576781337E+02  0.41596173458E+02  0.12700000000E+01 0. -1.
         25    2    1    2    0    0  0.00000000000E+00  0.00000000000E+00  0.52333370341E+02  0.13551491221E+03  0.12500203910E+03 0.  0.
    9000005    1    3    3    0    0 -0.16752867713E+02  0.19624321128E+01 -0.39067662013E+02  0.42565149261E+02  0.10000000000E+01 0.  0.
    9000005    1    3    3    0    0  0.16752867713E+02 -0.19624321128E+01  0.91401032355E+02  0.92949762947E+02  0.10000000000E+01 0.  0.
<mgrwt>
<rscale>  0 0.12500204E+03</rscale>
<asrwt>0</asrwt>
<pdfrwt beam="1">  1        4 0.14449868E-01 0.12500204E+03</pdfrwt>
<pdfrwt beam="2">  1       -4 0.63985801E-02 0.12500204E+03</pdfrwt>
<totfact> 0.10226759E+04</totfact>
</mgrwt>
</event>
<event>
 5    1  0.3434846E-002  0.1250006E+03  0.7818608E-02  0.1235068E+00
         -4   -1    0    0    0  501 -0.00000000000E+00  0.00000000000E+00  0.21058313910E+02  0.21096575190E+02  0.12700000000E+01 0. -1.
          4   -1    0    0  501    0  0.00000000000E+00 -0.00000000000E+00 -0.18528973894E+03  0.18529409127E+03  0.12700000000E+01 0. -1.
         25    2    1    2    0    0  0.00000000000E+00  0.00000000000E+00 -0.16423142503E+03  0.20639066645E+03  0.12500058492E+03 0.  0.
    9000005    1    3    3    0    0 -0.20801250311E+02  0.23558418771E+02  0.70690262550E+01  0.32228283257E+02  0.10000000000E+01 0.  0.
    9000005    1    3    3    0    0  0.20801250311E+02 -0.23558418771E+02 -0.17130045129E+03  0.17416238320E+03  0.10000000000E+01 0.  0.
<mgrwt>
<rscale>  0 0.12500058E+03</rscale>
<asrwt>0</asrwt>
<pdfrwt beam="2">  1        4 0.28509391E-01 0.12500058E+03</pdfrwt>
<pdfrwt beam="1">  1       -4 0.32430187E-02 0.12500058E+03</pdfrwt>
<totfact> 0.89067581E+03</totfact>
</mgrwt>
</event>
<event>
 5    1  0.3434846E-002  0.1249991E+03  0.7818608E-02  0.1235071E+00
         -4   -1    0    0    0  501 -0.00000000000E+00  0.00000000000E+00  0.63103942430E+03  0.63104070227E+03  0.12700000000E+01 0. -1.
          4   -1    0    0  501    0  0.00000000000E+00 -0.00000000000E+00 -0.61236578912E+01  0.62539656194E+01  0.12700000000E+01 0. -1.
         25    2    1    2    0    0  0.00000000000E+00  0.00000000000E+00  0.62491576641E+03  0.63729466789E+03  0.12499911445E+03 0.  0.
    9000005    1    3    3    0    0  0.42114237802E+02  0.48203313945E+01  0.78356108480E+02  0.89092785098E+02  0.10000000000E+01 0.  0.
    9000005    1    3    3    0    0 -0.42114237802E+02 -0.48203313945E+01  0.54655965793E+03  0.54820188279E+03  0.10000000000E+01 0.  0.
<mgrwt>
<rscale>  0 0.12499911E+03</rscale>
<asrwt>0</asrwt>
<pdfrwt beam="2">  1        4 0.95222322E-03 0.12499911E+03</pdfrwt>
<pdfrwt beam="1">  1       -4 0.97093107E-01 0.12499911E+03</pdfrwt>
<totfact> 0.46595910E+03</totfact>
</mgrwt>
</event>
<event>
 5    1  0.3434846E-002  0.1249994E+03  0.7818608E-02  0.1235070E+00
         -4   -1    0    0    0  501 -0.00000000000E+00  0.00000000000E+00  0.46308976308E+02  0.46326387585E+02  0.12700000000E+01 0.  1.
          4   -1    0    0  501    0  0.00000000000E+00 -0.00000000000E+00 -0.84313077377E+02  0.84322641780E+02  0.12700000000E+01 0.  1.
         25    2    1    2    0    0  0.00000000000E+00  0.00000000000E+00 -0.38004101069E+02  0.13064902937E+03  0.12499942870E+03 0.  0.
    9000005    1    3    3    0    0 -0.59585074325E+02  0.70184374653E+01 -0.73127887497E+00  0.60009785166E+02  0.10000000000E+01 0.  0.
    9000005    1    3    3    0    0  0.59585074325E+02 -0.70184374653E+01 -0.37272822194E+02  0.70639244200E+02  0.10000000000E+01 0.  0.
<mgrwt>
<rscale>  0 0.12499943E+03</rscale>
<asrwt>0</asrwt>
<pdfrwt beam="2">  1        4 0.12973318E-01 0.12499943E+03</pdfrwt>
<pdfrwt beam="1">  1       -4 0.71265329E-02 0.12499943E+03</pdfrwt>
<totfact> 0.10330752E+04</totfact>
</mgrwt>
</event>
<event>
 5    1  0.3434846E-002  0.1249996E+03  0.7818608E-02  0.1235070E+00
          4   -1    0    0  501    0  0.00000000000E+00  0.00000000000E+00  0.24254598669E+03  0.24254931161E+03  0.12700000000E+01 0.  1.
         -4   -1    0    0    0  501 -0.00000000000E+00 -0.00000000000E+00 -0.16076621196E+02  0.16126706083E+02  0.12700000000E+01 0.  1.
         25    2    1    2    0    0  0.00000000000E+00  0.00000000000E+00  0.22646936550E+03  0.25867601769E+03  0.12499963448E+03 0.  0.
    9000005    1    3    3    0    0 -0.26435911976E+02 -0.40130634504E+01  0.23012022753E+03  0.23167063093E+03  0.10000000000E+01 0.  0.
    9000005    1    3    3    0    0  0.26435911976E+02  0.40130634504E+01 -0.36508620300E+01  0.27005386755E+02  0.10000000000E+01 0.  0.
<mgrwt>
<rscale>  0 0.12499963E+03</rscale>
<asrwt>0</asrwt>
<pdfrwt beam="1">  1        4 0.37318875E-01 0.12499963E+03</pdfrwt>
<pdfrwt beam="2">  1       -4 0.24774348E-02 0.12499963E+03</pdfrwt>
<totfact> 0.81092882E+03</totfact>
</mgrwt>
</event>
<event>
 5    1  0.3434846E-002  0.1249971E+03  0.7818608E-02  0.1235074E+00
         -4   -1    0    0    0  501 -0.00000000000E+00  0.00000000000E+00  0.21016893292E+03  0.21017277003E+03  0.12700000000E+01 0. -1.
          4   -1    0    0  501    0  0.00000000000E+00 -0.00000000000E+00 -0.18559665774E+02  0.18603066781E+02  0.12700000000E+01 0. -1.
         25    2    1    2    0    0  0.00000000000E+00  0.00000000000E+00  0.19160926714E+03  0.22877583681E+03  0.12499708899E+03 0.  0.
    9000005    1    3    3    0    0 -0.78954556783E+01  0.26092714658E+02 -0.71117044548E+01  0.28191209957E+02  0.10000000000E+01 0.  0.
    9000005    1    3    3    0    0  0.78954556783E+01 -0.26092714658E+02  0.19872097160E+03  0.20058462686E+03  0.10000000000E+01 0.  0.
<mgrwt>
<rscale>  0 0.12499709E+03</rscale>
<asrwt>0</asrwt>
<pdfrwt beam="2">  1        4 0.28589670E-02 0.12499709E+03</pdfrwt>
<pdfrwt beam="1">  1       -4 0.32337315E-01 0.12499709E+03</pdfrwt>
<totfact> 0.85503477E+03</totfact>
</mgrwt>
</event>
<event>
 5    1  0.3434846E-002  0.1249982E+03  0.7818608E-02  0.1235072E+00
          4   -1    0    0  501    0  0.00000000000E+00  0.00000000000E+00  0.64991206614E+03  0.64991330700E+03  0.12700000000E+01 0.  1.
         -4   -1    0    0    0  501 -0.00000000000E+00 -0.00000000000E+00 -0.59419012764E+01  0.60761081934E+01  0.12700000000E+01 0.  1.
         25    2    1    2    0    0  0.00000000000E+00  0.00000000000E+00  0.64397016486E+03  0.65598941519E+03  0.12499815843E+03 0.  0.
    9000005    1    3    3    0    0  0.34933334803E+02 -0.41247779482E+02  0.15741070168E+03  0.16643571190E+03  0.10000000000E+01 0.  0.
    9000005    1    3    3    0    0 -0.34933334803E+02  0.41247779482E+02  0.48655946318E+03  0.48955370329E+03  0.10000000000E+01 0.  0.
<mgrwt>
<rscale>  0 0.12499816E+03</rscale>
<asrwt>0</asrwt>
<pdfrwt beam="1">  1        4 0.99996879E-01 0.12499816E+03</pdfrwt>
<pdfrwt beam="2">  1       -4 0.92455782E-03 0.12499816E+03</pdfrwt>
<totfact> 0.45515537E+03</totfact>
</mgrwt>
</event>
<event>
 5    1  0.3434846E-002  0.1250000E+03  0.7818608E-02  0.1235069E+00
         -4   -1    0    0    0  501 -0.00000000000E+00  0.00000000000E+00  0.19873966041E+02  0.19914502911E+02  0.12700000000E+01 0. -1.
          4   -1    0    0  501    0  0.00000000000E+00 -0.00000000000E+00 -0.19630826687E+03  0.19631237491E+03  0.12700000000E+01 0. -1.
         25    2    1    2    0    0  0.00000000000E+00  0.00000000000E+00 -0.17643430083E+03  0.21622687782E+03  0.12500000073E+03 0.  0.
    9000005    1    3    3    0    0  0.34326214238E+02 -0.51956609994E+02 -0.97283714614E+02  0.11551146885E+03  0.10000000000E+01 0.  0.
    9000005    1    3    3    0    0 -0.34326214238E+02  0.51956609994E+02 -0.79150586216E+02  0.10071540897E+03  0.10000000000E+01 0.  0.
<mgrwt>
<rscale>  0 0.12500000E+03</rscale>
<asrwt>0</asrwt>
<pdfrwt beam="2">  1        4 0.30204705E-01 0.12500000E+03</pdfrwt>
<pdfrwt beam="1">  1       -4 0.30609676E-02 0.12500000E+03</pdfrwt>
<totfact> 0.87468940E+03</totfact>
</mgrwt>
</event>
<event>
 5    1  0.3434846E-002  0.1250002E+03  0.7818608E-02  0.1235069E+00
         -4   -1    0    0    0  501 -0.00000000000E+00  0.00000000000E+00  0.24085480752E+02  0.24118940339E+02  0.12700000000E+01 0. -1.
          4   -1    0    0  501    0  0.00000000000E+00 -0.00000000000E+00 -0.16203470489E+03  0.16203968183E+03  0.12700000000E+01 0. -1.
         25    2    1    2    0    0  0.00000000000E+00  0.00000000000E+00 -0.13794922414E+03  0.18615862217E+03  0.12500017668E+03 0.  0.
    9000005    1    3    3    0    0 -0.25015273352E+02  0.57057321901E+02 -0.76264289526E+02  0.98481184702E+02  0.10000000000E+01 0.  0.
    9000005    1    3    3    0    0  0.25015273352E+02 -0.57057321901E+02 -0.61684934612E+02  0.87677437471E+02  0.10000000000E+01 0.  0.
<mgrwt>
<rscale>  0 0.12500018E+03</rscale>
<asrwt>0</asrwt>
<pdfrwt beam="2">  1        4 0.24931372E-01 0.12500018E+03</pdfrwt>
<pdfrwt beam="1">  1       -4 0.37084153E-02 0.12500018E+03</pdfrwt>
<totfact> 0.92519665E+03</totfact>
</mgrwt>
</event>
<event>
 5    1  0.3434846E-002  0.1250005E+03  0.7818608E-02  0.1235068E+00
          4   -1    0    0  501    0  0.00000000000E+00  0.00000000000E+00  0.19772998689E+03  0.19773406539E+03  0.12700000000E+01 0.  1.
         -4   -1    0    0    0  501 -0.00000000000E+00 -0.00000000000E+00 -0.19730946129E+02  0.19771776227E+02  0.12700000000E+01 0.  1.
         25    2    1    2    0    0  0.00000000000E+00  0.00000000000E+00  0.17799904076E+03  0.21750584162E+03  0.12500053050E+03 0.  0.
    9000005    1    3    3    0    0 -0.27335388404E+02 -0.34883626145E+01 -0.85962297309E+01  0.28884031895E+02  0.10000000000E+01 0.  0.
    9000005    1    3    3    0    0  0.27335388404E+02  0.34883626145E+01  0.18659527049E+03  0.18862180972E+03  0.10000000000E+01 0.  0.
<mgrwt>
<rscale>  0 0.12500053E+03</rscale>
<asrwt>0</asrwt>
<pdfrwt beam="1">  1        4 0.30423452E-01 0.12500053E+03</pdfrwt>
<pdfrwt beam="2">  1       -4 0.30389847E-02 0.12500053E+03</pdfrwt>
<totfact> 0.87263528E+03</totfact>
</mgrwt>
</event>
<event>
 5    1  0.3434846E-002  0.1249961E+03  0.7818608E-02  0.1235075E+00
          4   -1    0    0  501    0  0.00000000000E+00  0.00000000000E+00  0.87739475202E+01  0.88653852194E+01  0.12700000000E+01 0. -1.
         -4   -1    0    0    0  501 -0.00000000000E+00 -0.00000000000E+00 -0.44278197671E+03  0.44278379804E+03  0.12700000000E+01 0. -1.
         25    2    1    2    0    0  0.00000000000E+00  0.00000000000E+00 -0.43400802919E+03  0.45164918326E+03  0.12499606126E+03 0.  0.
    9000005    1    3    3    0    0 -0.23030584664E+02 -0.54383223971E+02 -0.14321279867E+03  0.15491561762E+03  0.10000000000E+01 0.  0.
    9000005    1    3    3    0    0  0.23030584664E+02  0.54383223971E+02 -0.29079523053E+03  0.29673356564E+03  0.10000000000E+01 0.  0.
<mgrwt>
<rscale>  0 0.12499606E+03</rscale>
<asrwt>0</asrwt>
<pdfrwt beam="1">  1        4 0.13570122E-02 0.12499606E+03</pdfrwt>
<pdfrwt beam="2">  1       -4 0.68127460E-01 0.12499606E+03</pdfrwt>
<totfact> 0.59826390E+03</totfact>
</mgrwt>
</event>
<event>
 5    1  0.3434846E-002  0.1250017E+03  0.7818608E-02  0.1235067E+00
          4   -1    0    0  501    0  0.00000000000E+00  0.00000000000E+00  0.29364501806E+03  0.29364776439E+03  0.12700000000E+01 0.  1.
         -4   -1    0    0    0  501 -0.00000000000E+00 -0.00000000000E+00 -0.13269856553E+02  0.13330491098E+02  0.12700000000E+01 0.  1.
         25    2    1    2    0    0  0.00000000000E+00  0.00000000000E+00  0.28037516150E+03  0.30697825548E+03  0.12500167260E+03 0.  0.
    9000005    1    3    3    0    0 -0.33240446565E+01 -0.61420176736E+02  0.16729793083E+03  0.17825006323E+03  0.10000000000E+01 0.  0.
    9000005    1    3    3    0    0  0.33240446565E+01  0.61420176736E+02  0.11307723067E+03  0.12872819225E+03  0.10000000000E+01 0.  0.
<mgrwt>
<rscale>  0 0.12500167E+03</rscale>
<asrwt>0</asrwt>
<pdfrwt beam="1">  1        4 0.45181032E-01 0.12500167E+03</pdfrwt>
<pdfrwt beam="2">  1       -4 0.20463918E-02 0.12500167E+03</pdfrwt>
<totfact> 0.74728979E+03</totfact>
</mgrwt>
</event>
<event>
 5    1  0.3434846E-002  0.1250012E+03  0.7818608E-02  0.1235067E+00
          4   -1    0    0  501    0  0.00000000000E+00  0.00000000000E+00  0.13725815498E+02  0.13784444533E+02  0.12700000000E+01 0.  1.
         -4   -1    0    0    0  501 -0.00000000000E+00 -0.00000000000E+00 -0.28393022312E+03  0.28393306341E+03  0.12700000000E+01 0.  1.
         25    2    1    2    0    0  0.00000000000E+00  0.00000000000E+00 -0.27020440762E+03  0.29771750795E+03  0.12500117056E+03 0.  0.
    9000005    1    3    3    0    0  0.57827349582E+02  0.10938915613E+02 -0.18515574222E+03  0.19428667250E+03  0.10000000000E+01 0.  0.
    9000005    1    3    3    0    0 -0.57827349582E+02 -0.10938915613E+02 -0.85048665396E+02  0.10343083544E+03  0.10000000000E+01 0.  0.
<mgrwt>
<rscale>  0 0.12500117E+03</rscale>
<asrwt>0</asrwt>
<pdfrwt beam="1">  1        4 0.21163925E-02 0.12500117E+03</pdfrwt>
<pdfrwt beam="2">  1       -4 0.43686297E-01 0.12500117E+03</pdfrwt>
<totfact> 0.75884075E+03</totfact>
</mgrwt>
</event>
<event>
 4    1  0.3434846E-002  0.1251203E+03  0.7818608E-02  0.1234881E+00
         -4   -1    0    0    0  501 -0.00000000000E+00  0.00000000000E+00  0.78378321996E+01  0.79400575306E+01  0.12700000000E+01 0.  1.
          4   -1    0    0  501    0  0.00000000000E+00 -0.00000000000E+00 -0.49600513010E+03  0.49600675599E+03  0.12700000000E+01 0.  1.
    9000005    1    1    2    0    0 -0.53111348195E+02  0.10773828931E+02 -0.36990522369E+03  0.37385527308E+03  0.10000000000E+01 0.  0.
    9000005    1    1    2    0    0  0.53111348195E+02 -0.10773828931E+02 -0.11826207421E+03  0.13009154044E+03  0.10000000000E+01 0.  0.
<mgrwt>
<rscale>  0 0.12512026E+03</rscale>
<asrwt>0</asrwt>
<pdfrwt beam="2">  1        4 0.76316446E-01 0.12512026E+03</pdfrwt>
<pdfrwt beam="1">  1       -4 0.12138093E-02 0.12512026E+03</pdfrwt>
<totfact> 0.55412804E+03</totfact>
</mgrwt>
</event>
<event>
 5    1  0.3434846E-002  0.1250013E+03  0.7818608E-02  0.1235067E+00
         -4   -1    0    0    0  501 -0.00000000000E+00  0.00000000000E+00  0.42099526157E+03  0.42099717715E+03  0.12700000000E+01 0. -1.
          4   -1    0    0  501    0  0.00000000000E+00 -0.00000000000E+00 -0.92334023975E+01  0.93203336761E+01  0.12700000000E+01 0. -1.
         25    2    1    2    0    0  0.00000000000E+00  0.00000000000E+00  0.41176185917E+03  0.43031751082E+03  0.12500132579E+03 0.  0.
    9000005    1    3    3    0    0  0.19423827474E+02 -0.58286337364E+02  0.24524466953E+03  0.25282509790E+03  0.10000000000E+01 0.  0.
    9000005    1    3    3    0    0 -0.19423827474E+02  0.58286337364E+02  0.16651718964E+03  0.17749241292E+03  0.10000000000E+01 0.  0.
<mgrwt>
<rscale>  0 0.12500133E+03</rscale>
<asrwt>0</asrwt>
<pdfrwt beam="2">  1        4 0.14273578E-02 0.12500133E+03</pdfrwt>
<pdfrwt beam="1">  1       -4 0.64775336E-01 0.12500133E+03</pdfrwt>
<totfact> 0.61705416E+03</totfact>
</mgrwt>
</event>
<event>
 5    1  0.3434846E-002  0.1250013E+03  0.7818608E-02  0.1235067E+00
          4   -1    0    0  501    0  0.00000000000E+00  0.00000000000E+00  0.71712533381E+02  0.71723778092E+02  0.12700000000E+01 0.  1.
         -4   -1    0    0    0  501 -0.00000000000E+00 -0.00000000000E+00 -0.54449186378E+02  0.54463995421E+02  0.12700000000E+01 0.  1.
         25    2    1    2    0    0  0.00000000000E+00  0.00000000000E+00  0.17263347003E+02  0.12618777351E+03  0.12500132413E+03 0.  0.
    9000005    1    3    3    0    0 -0.17394738494E+02 -0.45566019225E+02 -0.30809531557E+02  0.57698061233E+02  0.10000000000E+01 0.  0.
    9000005    1    3    3    0    0  0.17394738494E+02  0.45566019225E+02  0.48072878560E+02  0.68489712281E+02  0.10000000000E+01 0.  0.
<mgrwt>
<rscale>  0 0.12500132E+03</rscale>
<asrwt>0</asrwt>
<pdfrwt beam="1">  1        4 0.11034702E-01 0.12500132E+03</pdfrwt>
<pdfrwt beam="2">  1       -4 0.83788021E-02 0.12500132E+03</pdfrwt>
<totfact> 0.10426535E+04</totfact>
</mgrwt>
</event>
<event>
 5    1  0.3434846E-002  0.1249986E+03  0.7818608E-02  0.1235072E+00
          4   -1    0    0  501    0  0.00000000000E+00  0.00000000000E+00  0.23192844735E+02  0.23227590209E+02  0.12700000000E+01 0. -1.
         -4   -1    0    0    0  501 -0.00000000000E+00 -0.00000000000E+00 -0.16825771088E+03  0.16826250376E+03  0.12700000000E+01 0. -1.
         25    2    1    2    0    0  0.00000000000E+00  0.00000000000E+00 -0.14506486614E+03  0.19149009396E+03  0.12499856278E+03 0.  0.
    9000005    1    3    3    0    0 -0.77247205291E+01 -0.25225394024E+02 -0.15931600949E+03  0.16148864570E+03  0.10000000000E+01 0.  0.
    9000005    1    3    3    0    0  0.77247205291E+01  0.25225394024E+02  0.14251143350E+02  0.30001448260E+02  0.10000000000E+01 0.  0.
<mgrwt>
<rscale>  0 0.12499856E+03</rscale>
<asrwt>0</asrwt>
<pdfrwt beam="1">  1        4 0.35711715E-02 0.12499856E+03</pdfrwt>
<pdfrwt beam="2">  1       -4 0.25888842E-01 0.12499856E+03</pdfrwt>
<totfact> 0.91591636E+03</totfact>
</mgrwt>
</event>
<event>
 5    1  0.3434846E-002  0.1250424E+03  0.7818608E-02  0.1235003E+00
          4   -1    0    0  501    0  0.00000000000E+00  0.00000000000E+00  0.33859308138E+02  0.33883117441E+02  0.12700000000E+01 0.  1.
         -4   -1    0    0    0  501 -0.00000000000E+00 -0.00000000000E+00 -0.11537752394E+03  0.11538451339E+03  0.12700000000E+01 0.  1.
         25    2    1    2    0    0  0.00000000000E+00  0.00000000000E+00 -0.81518215806E+02  0.14926763084E+03  0.12504241723E+03 0.  0.
    9000005    1    3    3    0    0 -0.38422496399E+02 -0.42363378307E+02 -0.70886635906E+02  0.91087096787E+02  0.10000000000E+01 0.  0.
    9000005    1    3    3    0    0  0.38422496399E+02  0.42363378307E+02 -0.10631579900E+02  0.58180534049E+02  0.10000000000E+01 0.  0.
<mgrwt>
<rscale>  0 0.12504242E+03</rscale>
<asrwt>0</asrwt>
<pdfrwt beam="1">  1        4 0.52114935E-02 0.12504242E+03</pdfrwt>
<pdfrwt beam="2">  1       -4 0.17752757E-01 0.12504242E+03</pdfrwt>
<totfact> 0.99355000E+03</totfact>
</mgrwt>
</event>
<event>
 5    1  0.3434846E-002  0.1250026E+03  0.7818608E-02  0.1235065E+00
          4   -1    0    0  501    0  0.00000000000E+00  0.00000000000E+00  0.10218894648E+04  0.10218902540E+04  0.12700000000E+01 0. -1.
         -4   -1    0    0    0  501 -0.00000000000E+00 -0.00000000000E+00 -0.37164389134E+01  0.39274442322E+01  0.12700000000E+01 0. -1.
         25    2    1    2    0    0  0.00000000000E+00  0.00000000000E+00  0.10181730259E+04  0.10258176982E+04  0.12500255722E+03 0.  0.
    9000005    1    3    3    0    0  0.44486016127E+01 -0.32401454857E+02  0.72081471818E+02  0.79160488330E+02  0.10000000000E+01 0.  0.
    9000005    1    3    3    0    0 -0.44486016127E+01  0.32401454857E+02  0.94609155408E+03  0.94665720989E+03  0.10000000000E+01 0.  0.
<mgrwt>
<rscale>  0 0.12500256E+03</rscale>
<asrwt>0</asrwt>
<pdfrwt beam="1">  1        4 0.15723006E+00 0.12500256E+03</pdfrwt>
<pdfrwt beam="2">  1       -4 0.58805169E-03 0.12500256E+03</pdfrwt>
<totfact> 0.29760341E+03</totfact>
</mgrwt>
</event>
<event>
 4    1  0.3434846E-002  0.1249131E+03  0.7818608E-02  0.1235205E+00
          4   -1    0    0  501    0  0.00000000000E+00  0.00000000000E+00  0.31776396033E+03  0.31776649821E+03  0.12700000000E+01 0. -1.
         -4   -1    0    0    0  501 -0.00000000000E+00 -0.00000000000E+00 -0.12240397728E+02  0.12306105661E+02  0.12700000000E+01 0. -1.
    9000005    1    1    2    0    0 -0.22220882493E+02 -0.20831508919E+02  0.87051459105E+01  0.31693831386E+02  0.10000000000E+01 0.  0.
    9000005    1    1    2    0    0  0.22220882493E+02  0.20831508919E+02  0.29681841670E+03  0.29837877249E+03  0.10000000000E+01 0.  0.
<mgrwt>
<rscale>  0 0.12491308E+03</rscale>
<asrwt>0</asrwt>
<pdfrwt beam="1">  1        4 0.48892014E-01 0.12491308E+03</pdfrwt>
<pdfrwt beam="2">  1       -4 0.18883878E-02 0.12491308E+03</pdfrwt>
<totfact> 0.72112701E+03</totfact>
</mgrwt>
</event>
<event>
 5    1  0.3434846E-002  0.1250050E+03  0.7818608E-02  0.1235061E+00
          4   -1    0    0  501    0  0.00000000000E+00  0.00000000000E+00  0.22671997600E+03  0.22672353301E+03  0.12700000000E+01 0.  1.
         -4   -1    0    0    0  501 -0.00000000000E+00 -0.00000000000E+00 -0.17203685982E+02  0.17250498873E+02  0.12700000000E+01 0.  1.
         25    2    1    2    0    0  0.00000000000E+00  0.00000000000E+00  0.20951629002E+03  0.24397403188E+03  0.12500500969E+03 0.  0.
    9000005    1    3    3    0    0 -0.41684362550E+02  0.41472509973E+02  0.63447778871E+02  0.86511131124E+02  0.10000000000E+01 0.  0.
    9000005    1    3    3    0    0  0.41684362550E+02 -0.41472509973E+02  0.14606851115E+03  0.15746290076E+03  0.10000000000E+01 0.  0.
<mgrwt>
<rscale>  0 0.12500501E+03</rscale>
<asrwt>0</asrwt>
<pdfrwt beam="1">  1        4 0.34883870E-01 0.12500501E+03</pdfrwt>
<pdfrwt beam="2">  1       -4 0.26505956E-02 0.12500501E+03</pdfrwt>
<totfact> 0.83199753E+03</totfact>
</mgrwt>
</event>
<event>
 5    1  0.3434846E-002  0.1250040E+03  0.7818608E-02  0.1235063E+00
         -4   -1    0    0    0  501 -0.00000000000E+00  0.00000000000E+00  0.19631143853E+04  0.19631147961E+04  0.12700000000E+01 0. -1.
          4   -1    0    0  501    0  0.00000000000E+00 -0.00000000000E+00 -0.17868667350E+01  0.21922118348E+01  0.12700000000E+01 0. -1.
         25    2    1    2    0    0  0.00000000000E+00  0.00000000000E+00  0.19613275185E+04  0.19653070079E+04  0.12500400139E+03 0.  0.
    9000005    1    3    3    0    0  0.26379646886E+02  0.55932276748E+02  0.83899619348E+03  0.84127279644E+03  0.10000000000E+01 0.  0.
    9000005    1    3    3    0    0 -0.26379646886E+02 -0.55932276748E+02  0.11223313251E+04  0.11240342115E+04  0.10000000000E+01 0.  0.
<mgrwt>
<rscale>  0 0.12500400E+03</rscale>
<asrwt>0</asrwt>
<pdfrwt beam="2">  1        4 0.30611554E-03 0.12500400E+03</pdfrwt>
<pdfrwt beam="1">  1       -4 0.30204785E+00 0.12500400E+03</pdfrwt>
<totfact> 0.10320152E+03</totfact>
</mgrwt>
</event>
<event>
 5    1  0.3434846E-002  0.1249990E+03  0.7818608E-02  0.1235071E+00
         -4   -1    0    0    0  501 -0.00000000000E+00  0.00000000000E+00  0.90408186113E+01  0.91295838439E+01  0.12700000000E+01 0. -1.
          4   -1    0    0  501    0  0.00000000000E+00 -0.00000000000E+00 -0.42986106477E+03  0.42986294084E+03  0.12700000000E+01 0. -1.
         25    2    1    2    0    0  0.00000000000E+00  0.00000000000E+00 -0.42082024616E+03  0.43899252468E+03  0.12499902859E+03 0.  0.
    9000005    1    3    3    0    0 -0.44102917481E+02  0.25127098863E+02 -0.82391761029E+02  0.96777273743E+02  0.10000000000E+01 0.  0.
    9000005    1    3    3    0    0  0.44102917481E+02 -0.25127098863E+02 -0.33842848513E+03  0.34221525094E+03  0.10000000000E+01 0.  0.
<mgrwt>
<rscale>  0 0.12499903E+03</rscale>
<asrwt>0</asrwt>
<pdfrwt beam="2">  1        4 0.66139428E-01 0.12499903E+03</pdfrwt>
<pdfrwt beam="1">  1       -4 0.13978679E-02 0.12499903E+03</pdfrwt>
<totfact> 0.60930559E+03</totfact>
</mgrwt>
</event>
<event>
 5    1  0.3434846E-002  0.1250069E+03  0.7818608E-02  0.1235058E+00
          4   -1    0    0  501    0  0.00000000000E+00  0.00000000000E+00  0.62728797106E+02  0.62741651926E+02  0.12700000000E+01 0. -1.
         -4   -1    0    0    0  501 -0.00000000000E+00 -0.00000000000E+00 -0.62253201916E+02  0.62266154922E+02  0.12700000000E+01 0. -1.
         25    2    1    2    0    0  0.00000000000E+00  0.00000000000E+00  0.47559519009E+00  0.12500780685E+03  0.12500690214E+03 0.  0.
    9000005    1    3    3    0    0  0.40824432348E+02 -0.48495429248E+00  0.47554225442E+02  0.62683919905E+02  0.10000000000E+01 0.  0.
    9000005    1    3    3    0    0 -0.40824432348E+02  0.48495429248E+00 -0.47078630252E+02  0.62323886943E+02  0.10000000000E+01 0.  0.
<mgrwt>
<rscale>  0 0.12500690E+03</rscale>
<asrwt>0</asrwt>
<pdfrwt beam="1">  1        4 0.96525693E-02 0.12500690E+03</pdfrwt>
<pdfrwt beam="2">  1       -4 0.95794010E-02 0.12500690E+03</pdfrwt>
<totfact> 0.10451063E+04</totfact>
</mgrwt>
</event>
<event>
 5    1  0.3434846E-002  0.1249995E+03  0.7818608E-02  0.1235070E+00
         -4   -1    0    0    0  501 -0.00000000000E+00  0.00000000000E+00  0.21050933625E+02  0.21089208294E+02  0.12700000000E+01 0.  1.
          4   -1    0    0  501    0  0.00000000000E+00 -0.00000000000E+00 -0.18535148037E+03  0.18535583124E+03  0.12700000000E+01 0.  1.
         25    2    1    2    0    0  0.00000000000E+00  0.00000000000E+00 -0.16430054675E+03  0.20644503954E+03  0.12499953875E+03 0.  0.
    9000005    1    3    3    0    0  0.72237578726E+01 -0.58179553565E+02 -0.46414633590E+02  0.74782092390E+02  0.10000000000E+01 0.  0.
    9000005    1    3    3    0    0 -0.72237578726E+01  0.58179553565E+02 -0.11788591316E+03  0.13166294715E+03  0.10000000000E+01 0.  0.
<mgrwt>
<rscale>  0 0.12499954E+03</rscale>
<asrwt>0</asrwt>
<pdfrwt beam="2">  1        4 0.28518890E-01 0.12499954E+03</pdfrwt>
<pdfrwt beam="1">  1       -4 0.32418842E-02 0.12499954E+03</pdfrwt>
<totfact> 0.89060683E+03</totfact>
</mgrwt>
</event>
<event>
 5    1  0.3434846E-002  0.1249989E+03  0.7818608E-02  0.1235071E+00
          4   -1    0    0  501    0  0.00000000000E+00  0.00000000000E+00  0.73547123511E+01  0.74635577152E+01  0.12700000000E+01 0. -1.
         -4   -1    0    0    0  501 -0.00000000000E+00 -0.00000000000E+00 -0.52710222392E+03  0.52710375389E+03  0.12700000000E+01 0. -1.
         25    2    1    2    0    0  0.00000000000E+00  0.00000000000E+00 -0.51974751157E+03  0.53456731160E+03  0.12499893940E+03 0.  0.
    9000005    1    3    3    0    0 -0.42237529529E+02  0.39614264167E+01 -0.45610665839E+03  0.45807639716E+03  0.10000000000E+01 0.  0.
    9000005    1    3    3    0    0  0.42237529529E+02 -0.39614264167E+01 -0.63640853175E+02  0.76490914446E+02  0.10000000000E+01 0.  0.
<mgrwt>
<rscale>  0 0.12499894E+03</rscale>
<asrwt>0</asrwt>
<pdfrwt beam="1">  1        4 0.11399850E-02 0.12499894E+03</pdfrwt>
<pdfrwt beam="2">  1       -4 0.81101111E-01 0.12499894E+03</pdfrwt>
<totfact> 0.53279946E+03</totfact>
</mgrwt>
</event>
<event>
 5    1  0.3434846E-002  0.1249985E+03  0.7818608E-02  0.1235072E+00
          4   -1    0    0  501    0  0.00000000000E+00  0.00000000000E+00  0.11746719356E+03  0.11747405868E+03  0.12700000000E+01 0.  1.
         -4   -1    0    0    0  501 -0.00000000000E+00 -0.00000000000E+00 -0.33233194253E+02  0.33257451800E+02  0.12700000000E+01 0.  1.
         25    2    1    2    0    0  0.00000000000E+00  0.00000000000E+00  0.84233999308E+02  0.15073151048E+03  0.12499848644E+03 0.  0.
    9000005    1    3    3    0    0  0.60772752565E+02 -0.14544063066E+02  0.41458527562E+02  0.74997778183E+02  0.10000000000E+01 0.  0.
    9000005    1    3    3    0    0 -0.60772752565E+02  0.14544063066E+02  0.42775471746E+02  0.75733732298E+02  0.10000000000E+01 0.  0.
<mgrwt>
<rscale>  0 0.12499849E+03</rscale>
<asrwt>0</asrwt>
<pdfrwt beam="1">  1        4 0.18074270E-01 0.12499849E+03</pdfrwt>
<pdfrwt beam="2">  1       -4 0.51151932E-02 0.12499849E+03</pdfrwt>
<totfact> 0.99161459E+03</totfact>
</mgrwt>
</event>
<event>
 5    1  0.3434846E-002  0.1249996E+03  0.7818608E-02  0.1235070E+00
          4   -1    0    0  501    0  0.00000000000E+00  0.00000000000E+00  0.83065981943E+01  0.84031228458E+01  0.12700000000E+01 0. -1.
         -4   -1    0    0    0  501 -0.00000000000E+00 -0.00000000000E+00 -0.46744174203E+03  0.46744346726E+03  0.12700000000E+01 0. -1.
         25    2    1    2    0    0  0.00000000000E+00  0.00000000000E+00 -0.45913514383E+03  0.47584659011E+03  0.12499958807E+03 0.  0.
    9000005    1    3    3    0    0 -0.52799632170E+02  0.33042721832E+02 -0.24882916475E+03  0.25650843232E+03  0.10000000000E+01 0.  0.
    9000005    1    3    3    0    0  0.52799632170E+02 -0.33042721832E+02 -0.21030597909E+03  0.21933815779E+03  0.10000000000E+01 0.  0.
<mgrwt>
<rscale>  0 0.12499959E+03</rscale>
<asrwt>0</asrwt>
<pdfrwt beam="1">  1        4 0.12854962E-02 0.12499959E+03</pdfrwt>
<pdfrwt beam="2">  1       -4 0.71921651E-01 0.12499959E+03</pdfrwt>
<totfact> 0.57788847E+03</totfact>
</mgrwt>
</event>
<event>
 5    1  0.3434846E-002  0.1249994E+03  0.7818608E-02  0.1235070E+00
          4   -1    0    0  501    0  0.00000000000E+00  0.00000000000E+00  0.91320419257E+02  0.91329249823E+02  0.12700000000E+01 0.  1.
         -4   -1    0    0    0  501 -0.00000000000E+00 -0.00000000000E+00 -0.42754493391E+02  0.42773351577E+02  0.12700000000E+01 0.  1.
         25    2    1    2    0    0  0.00000000000E+00  0.00000000000E+00  0.48565925866E+02  0.13410260140E+03  0.12499943419E+03 0.  0.
    9000005    1    3    3    0    0 -0.14081088648E+02  0.21576456491E+02  0.85362406840E+02  0.89171525914E+02  0.10000000000E+01 0.  0.
    9000005    1    3    3    0    0  0.14081088648E+02 -0.21576456491E+02 -0.36796480974E+02  0.44931075486E+02  0.10000000000E+01 0.  0.
<mgrwt>
<rscale>  0 0.12499943E+03</rscale>
<asrwt>0</asrwt>
<pdfrwt beam="1">  1        4 0.14051425E-01 0.12499943E+03</pdfrwt>
<pdfrwt beam="2">  1       -4 0.65797442E-02 0.12499943E+03</pdfrwt>
<totfact> 0.10257151E+04</totfact>
</mgrwt>
</event>
<event>
 5    1  0.3434846E-002  0.1249998E+03  0.7818608E-02  0.1235070E+00
         -4   -1    0    0    0  501 -0.00000000000E+00  0.00000000000E+00  0.19240769956E+03  0.19241189088E+03  0.12700000000E+01 0. -1.
          4   -1    0    0  501    0  0.00000000000E+00 -0.00000000000E+00 -0.20277584207E+02  0.20317315799E+02  0.12700000000E+01 0. -1.
         25    2    1    2    0    0  0.00000000000E+00  0.00000000000E+00  0.17213011535E+03  0.21272920668E+03  0.12499975504E+03 0.  0.
    9000005    1    3    3    0    0 -0.56006441689E+02 -0.21373145801E+02  0.56018991022E+02  0.82052789271E+02  0.10000000000E+01 0.  0.
    9000005    1    3    3    0    0  0.56006441689E+02  0.21373145801E+02  0.11611112433E+03  0.13067641740E+03  0.10000000000E+01 0.  0.
<mgrwt>
<rscale>  0 0.12499976E+03</rscale>
<asrwt>0</asrwt>
<pdfrwt beam="2">  1        4 0.31230071E-02 0.12499976E+03</pdfrwt>
<pdfrwt beam="1">  1       -4 0.29604563E-01 0.12499976E+03</pdfrwt>
<totfact> 0.88032578E+03</totfact>
</mgrwt>
</event>
<event>
 5    1  0.3434846E-002  0.1249951E+03  0.7818608E-02  0.1235077E+00
          4   -1    0    0  501    0  0.00000000000E+00  0.00000000000E+00  0.26164193137E+02  0.26194997662E+02  0.12700000000E+01 0.  1.
         -4   -1    0    0    0  501 -0.00000000000E+00 -0.00000000000E+00 -0.14916453488E+03  0.14916994122E+03  0.12700000000E+01 0.  1.
         25    2    1    2    0    0  0.00000000000E+00  0.00000000000E+00 -0.12300034174E+03  0.17536493889E+03  0.12499511080E+03 0.  0.
    9000005    1    3    3    0    0  0.50122666183E+02  0.27340129397E+02 -0.97136275120E+02  0.11267750567E+03  0.10000000000E+01 0.  0.
    9000005    1    3    3    0    0 -0.50122666183E+02 -0.27340129397E+02 -0.25864066619E+02  0.62687433212E+02  0.10000000000E+01 0.  0.
<mgrwt>
<rscale>  0 0.12499511E+03</rscale>
<asrwt>0</asrwt>
<pdfrwt beam="1">  1        4 0.40280460E-02 0.12499511E+03</pdfrwt>
<pdfrwt beam="2">  1       -4 0.22951175E-01 0.12499511E+03</pdfrwt>
<totfact> 0.94468406E+03</totfact>
</mgrwt>
</event>
<event>
 5    1  0.3434846E-002  0.1249880E+03  0.7818608E-02  0.1235088E+00
         -4   -1    0    0    0  501 -0.00000000000E+00  0.00000000000E+00  0.55913114594E+03  0.55913258826E+03  0.12700000000E+01 0.  1.
          4   -1    0    0  501    0  0.00000000000E+00 -0.00000000000E+00 -0.69257499172E+01  0.70412294321E+01  0.12700000000E+01 0.  1.
         25    2    1    2    0    0  0.00000000000E+00  0.00000000000E+00  0.55220539602E+03  0.56617381770E+03  0.12498796922E+03 0.  0.
    9000005    1    3    3    0    0  0.43461812475E+00 -0.47038630260E+02  0.89790956209E+02  0.10137177835E+03  0.10000000000E+01 0.  0.
    9000005    1    3    3    0    0 -0.43461812475E+00  0.47038630260E+02  0.46241443981E+03  0.46480203934E+03  0.10000000000E+01 0.  0.
<mgrwt>
<rscale>  0 0.12498797E+03</rscale>
<asrwt>0</asrwt>
<pdfrwt beam="2">  1        4 0.10744940E-02 0.12498797E+03</pdfrwt>
<pdfrwt beam="1">  1       -4 0.86029172E-01 0.12498797E+03</pdfrwt>
<totfact> 0.51088373E+03</totfact>
</mgrwt>
</event>
<event>
 5    1  0.3434846E-002  0.1250016E+03  0.7818608E-02  0.1235067E+00
         -4   -1    0    0    0  501 -0.00000000000E+00  0.00000000000E+00  0.30587523142E+02  0.30613877114E+02  0.12700000000E+01 0.  1.
          4   -1    0    0  501    0  0.00000000000E+00 -0.00000000000E+00 -0.12762616325E+03  0.12763248194E+03  0.12700000000E+01 0.  1.
         25    2    1    2    0    0  0.00000000000E+00  0.00000000000E+00 -0.97038640107E+02  0.15824635905E+03  0.12500164991E+03 0.  0.
    9000005    1    3    3    0    0  0.94503040849E+01 -0.25734213824E+02 -0.11961360966E+03  0.12271908419E+03  0.10000000000E+01 0.  0.
    9000005    1    3    3    0    0 -0.94503040849E+01  0.25734213824E+02  0.22574969557E+02  0.35527274859E+02  0.10000000000E+01 0.  0.
<mgrwt>
<rscale>  0 0.12500165E+03</rscale>
<asrwt>0</asrwt>
<pdfrwt beam="2">  1        4 0.19637307E-01 0.12500165E+03</pdfrwt>
<pdfrwt beam="1">  1       -4 0.47082861E-02 0.12500165E+03</pdfrwt>
<totfact> 0.97678319E+03</totfact>
</mgrwt>
</event>
<event>
 5    1  0.3434846E-002  0.1249992E+03  0.7818608E-02  0.1235071E+00
         -4   -1    0    0    0  501 -0.00000000000E+00  0.00000000000E+00  0.10047920348E+03  0.10048722920E+03  0.12700000000E+01 0. -1.
          4   -1    0    0  501    0  0.00000000000E+00 -0.00000000000E+00 -0.38855753224E+02  0.38876502654E+02  0.12700000000E+01 0. -1.
         25    2    1    2    0    0  0.00000000000E+00  0.00000000000E+00  0.61623450256E+02  0.13936373185E+03  0.12499920053E+03 0.  0.
    9000005    1    3    3    0    0 -0.16895389086E+02 -0.56981076278E+02  0.52341543118E+02  0.79201858325E+02  0.10000000000E+01 0.  0.
    9000005    1    3    3    0    0  0.16895389086E+02  0.56981076278E+02  0.92819071372E+01  0.60161873527E+02  0.10000000000E+01 0.  0.
<mgrwt>
<rscale>  0 0.12499920E+03</rscale>
<asrwt>0</asrwt>
<pdfrwt beam="2">  1        4 0.59800217E-02 0.12499920E+03</pdfrwt>
<pdfrwt beam="1">  1       -4 0.15460552E-01 0.12499920E+03</pdfrwt>
<totfact> 0.10146973E+04</totfact>
</mgrwt>
</event>
<event>
 5    1  0.3434846E-002  0.1249985E+03  0.7818608E-02  0.1235072E+00
          4   -1    0    0  501    0  0.00000000000E+00  0.00000000000E+00  0.10808924382E+02  0.10883278288E+02  0.12700000000E+01 0. -1.
         -4   -1    0    0    0  501 -0.00000000000E+00 -0.00000000000E+00 -0.36006825009E+03  0.36007048979E+03  0.12700000000E+01 0. -1.
         25    2    1    2    0    0  0.00000000000E+00  0.00000000000E+00 -0.34925932570E+03  0.37095376808E+03  0.12499848584E+03 0.  0.
    9000005    1    3    3    0    0 -0.36930283210E+02 -0.21078010634E+02 -0.31052890892E+03  0.31342835166E+03  0.10000000000E+01 0.  0.
    9000005    1    3    3    0    0  0.36930283210E+02  0.21078010634E+02 -0.38730416788E+02  0.57525416425E+02  0.10000000000E+01 0.  0.
<mgrwt>
<rscale>  0 0.12499849E+03</rscale>
<asrwt>0</asrwt>
<pdfrwt beam="1">  1        4 0.16688035E-02 0.12499849E+03</pdfrwt>
<pdfrwt beam="2">  1       -4 0.55400998E-01 0.12499849E+03</pdfrwt>
<totfact> 0.67481536E+03</totfact>
</mgrwt>
</event>
<event>
 5    1  0.3434846E-002  0.1250078E+03  0.7818608E-02  0.1235057E+00
         -4   -1    0    0    0  501 -0.00000000000E+00  0.00000000000E+00  0.13206972843E+04  0.13206978949E+04  0.12700000000E+01 0.  1.
          4   -1    0    0  501    0  0.00000000000E+00 -0.00000000000E+00 -0.28211330791E+01  0.30938150963E+01  0.12700000000E+01 0.  1.
         25    2    1    2    0    0  0.00000000000E+00  0.00000000000E+00  0.13178761512E+04  0.13237917100E+04  0.12500776601E+03 0.  0.
    9000005    1    3    3    0    0  0.59308041089E+02  0.55471758458E+01  0.85916991335E+03  0.86123292721E+03  0.10000000000E+01 0.  0.
    9000005    1    3    3    0    0 -0.59308041089E+02 -0.55471758458E+01  0.45870623789E+03  0.46255878284E+03  0.10000000000E+01 0.  0.
<mgrwt>
<rscale>  0 0.12500777E+03</rscale>
<asrwt>0</asrwt>
<pdfrwt beam="2">  1        4 0.45504355E-03 0.12500777E+03</pdfrwt>
<pdfrwt beam="1">  1       -4 0.20320497E+00 0.12500777E+03</pdfrwt>
<totfact> 0.21670231E+03</totfact>
</mgrwt>
</event>
<event>
 5    1  0.3434846E-002  0.1249890E+03  0.7818608E-02  0.1235086E+00
         -4   -1    0    0    0  501 -0.00000000000E+00  0.00000000000E+00  0.20445045751E+03  0.20445440195E+03  0.12700000000E+01 0.  1.
          4   -1    0    0  501    0  0.00000000000E+00 -0.00000000000E+00 -0.19077498882E+02  0.19119724464E+02  0.12700000000E+01 0.  1.
         25    2    1    2    0    0  0.00000000000E+00  0.00000000000E+00  0.18537295863E+03  0.22357412641E+03  0.12498902436E+03 0.  0.
    9000005    1    3    3    0    0  0.31913440819E+02  0.16224633337E+02  0.10777155655E+01  0.35831102448E+02  0.10000000000E+01 0.  0.
    9000005    1    3    3    0    0 -0.31913440819E+02 -0.16224633337E+02  0.18429524306E+03  0.18774302396E+03  0.10000000000E+01 0.  0.
<mgrwt>
<rscale>  0 0.12498902E+03</rscale>
<asrwt>0</asrwt>
<pdfrwt beam="2">  1        4 0.29385513E-02 0.12498902E+03</pdfrwt>
<pdfrwt beam="1">  1       -4 0.31457469E-01 0.12498902E+03</pdfrwt>
<totfact> 0.86327086E+03</totfact>
</mgrwt>
</event>
<event>
 5    1  0.3434846E-002  0.1249953E+03  0.7818608E-02  0.1235077E+00
          4   -1    0    0  501    0  0.00000000000E+00  0.00000000000E+00  0.37186599633E+02  0.37208279888E+02  0.12700000000E+01 0.  1.
         -4   -1    0    0    0  501 -0.00000000000E+00 -0.00000000000E+00 -0.10498052480E+03  0.10498820642E+03  0.12700000000E+01 0.  1.
         25    2    1    2    0    0  0.00000000000E+00  0.00000000000E+00 -0.67793925171E+02  0.14219648631E+03  0.12499529763E+03 0.  0.
    9000005    1    3    3    0    0  0.29002971178E+02  0.41880825564E+02 -0.75068245868E+02  0.90727159246E+02  0.10000000000E+01 0.  0.
    9000005    1    3    3    0    0 -0.29002971178E+02 -0.41880825564E+02  0.72743206970E+01  0.51469327066E+02  0.10000000000E+01 0.  0.
<mgrwt>
<rscale>  0 0.12499530E+03</rscale>
<asrwt>0</asrwt>
<pdfrwt beam="1">  1        4 0.57232740E-02 0.12499530E+03</pdfrwt>
<pdfrwt beam="2">  1       -4 0.16153108E-01 0.12499530E+03</pdfrwt>
<totfact> 0.10089332E+04</totfact>
</mgrwt>
</event>
<event>
 5    1  0.3434846E-002  0.1250044E+03  0.7818608E-02  0.1235062E+00
          4   -1    0    0  501    0  0.00000000000E+00  0.00000000000E+00  0.21064469415E+03  0.21064852260E+03  0.12700000000E+01 0. -1.
         -4   -1    0    0    0  501 -0.00000000000E+00 -0.00000000000E+00 -0.18519829132E+02  0.18563323277E+02  0.12700000000E+01 0. -1.
         25    2    1    2    0    0  0.00000000000E+00  0.00000000000E+00  0.19212486502E+03  0.22921184588E+03  0.12500442605E+03 0.  0.
    9000005    1    3    3    0    0 -0.10432845881E+02  0.23942723158E+02 -0.80423497129E+01  0.27345523478E+02  0.10000000000E+01 0.  0.
    9000005    1    3    3    0    0  0.10432845881E+02 -0.23942723158E+02  0.20016721474E+03  0.20186632240E+03  0.10000000000E+01 0.  0.
<mgrwt>
<rscale>  0 0.12500443E+03</rscale>
<asrwt>0</asrwt>
<pdfrwt beam="1">  1        4 0.32410519E-01 0.12500443E+03</pdfrwt>
<pdfrwt beam="2">  1       -4 0.28528444E-02 0.12500443E+03</pdfrwt>
<totfact> 0.85422326E+03</totfact>
</mgrwt>
</event>
<event>
 5    1  0.3434846E-002  0.1249993E+03  0.7818608E-02  0.1235070E+00
         -4   -1    0    0    0  501 -0.00000000000E+00  0.00000000000E+00  0.67961095755E+01  0.69137547947E+01  0.12700000000E+01 0. -1.
          4   -1    0    0  501    0  0.00000000000E+00 -0.00000000000E+00 -0.56972037552E+03  0.56972179103E+03  0.12700000000E+01 0. -1.
         25    2    1    2    0    0  0.00000000000E+00  0.00000000000E+00 -0.56292426594E+03  0.57663554583E+03  0.12499929411E+03 0.  0.
    9000005    1    3    3    0    0  0.27822237920E+02  0.48952165619E+02 -0.15641242238E+03  0.16624150299E+03  0.10000000000E+01 0.  0.
    9000005    1    3    3    0    0 -0.27822237920E+02 -0.48952165619E+02 -0.40651184356E+03  0.41039404284E+03  0.10000000000E+01 0.  0.
<mgrwt>
<rscale>  0 0.12499929E+03</rscale>
<asrwt>0</asrwt>
<pdfrwt beam="2">  1        4 0.87658409E-01 0.12499929E+03</pdfrwt>
<pdfrwt beam="1">  1       -4 0.10547143E-02 0.12499929E+03</pdfrwt>
<totfact> 0.50377250E+03</totfact>
</mgrwt>
</event>
<event>
 5    1  0.3434846E-002  0.1250059E+03  0.7818608E-02  0.1235060E+00
          4   -1    0    0  501    0  0.00000000000E+00  0.00000000000E+00  0.25691456482E+03  0.25691770378E+03  0.12700000000E+01 0.  1.
         -4   -1    0    0    0  501 -0.00000000000E+00 -0.00000000000E+00 -0.15176138723E+02  0.15229185353E+02  0.12700000000E+01 0.  1.
         25    2    1    2    0    0  0.00000000000E+00  0.00000000000E+00  0.24173842610E+03  0.27214688914E+03  0.12500585032E+03 0.  0.
    9000005    1    3    3    0    0 -0.29871657814E+01  0.58236626096E+01  0.25617702754E+03  0.25626257558E+03  0.10000000000E+01 0.  0.
    9000005    1    3    3    0    0  0.29871657814E+01 -0.58236626096E+01 -0.14438601439E+02  0.15884313555E+02  0.10000000000E+01 0.  0.
<mgrwt>
<rscale>  0 0.12500585E+03</rscale>
<asrwt>0</asrwt>
<pdfrwt beam="1">  1        4 0.39529634E-01 0.12500585E+03</pdfrwt>
<pdfrwt beam="2">  1       -4 0.23391129E-02 0.12500585E+03</pdfrwt>
<totfact> 0.79220723E+03</totfact>
</mgrwt>
</event>
<event>
 5    1  0.3434846E-002  0.1250057E+03  0.7818608E-02  0.1235060E+00
         -4   -1    0    0    0  501 -0.00000000000E+00  0.00000000000E+00  0.21088823514E+03  0.21089205916E+03  0.12700000000E+01 0.  1.
          4   -1    0    0  501    0  0.00000000000E+00 -0.00000000000E+00 -0.18498784723E+02  0.18542328231E+02  0.12700000000E+01 0.  1.
         25    2    1    2    0    0  0.00000000000E+00  0.00000000000E+00  0.19238945041E+03  0.22943438740E+03  0.12500574983E+03 0.  0.
    9000005    1    3    3    0    0 -0.56334392967E+02  0.26992020190E+02  0.92772625896E+02  0.11184763342E+03  0.10000000000E+01 0.  0.
    9000005    1    3    3    0    0  0.56334392967E+02 -0.26992020190E+02  0.99616824516E+02  0.11758675398E+03  0.10000000000E+01 0.  0.
<mgrwt>
<rscale>  0 0.12500575E+03</rscale>
<asrwt>0</asrwt>
<pdfrwt beam="2">  1        4 0.28496105E-02 0.12500575E+03</pdfrwt>
<pdfrwt beam="1">  1       -4 0.32447988E-01 0.12500575E+03</pdfrwt>
<totfact> 0.85385567E+03</totfact>
</mgrwt>
</event>
<event>
 5    1  0.3434846E-002  0.1250066E+03  0.7818608E-02  0.1235059E+00
          4   -1    0    0  501    0  0.00000000000E+00  0.00000000000E+00  0.42659726368E+01  0.44510024195E+01  0.12700000000E+01 0.  1.
         -4   -1    0    0    0  501 -0.00000000000E+00 -0.00000000000E+00 -0.89614869440E+03  0.89614959431E+03  0.12700000000E+01 0.  1.
         25    2    1    2    0    0  0.00000000000E+00  0.00000000000E+00 -0.89188272177E+03  0.90060059673E+03  0.12500658160E+03 0.  0.
    9000005    1    3    3    0    0  0.46237870939E+02 -0.12764023872E+02 -0.15733237030E+03  0.16448506242E+03  0.10000000000E+01 0.  0.
    9000005    1    3    3    0    0 -0.46237870939E+02  0.12764023872E+02 -0.73455035146E+03  0.73611553431E+03  0.10000000000E+01 0.  0.
<mgrwt>
<rscale>  0 0.12500658E+03</rscale>
<asrwt>0</asrwt>
<pdfrwt beam="1">  1        4 0.67060648E-03 0.12500658E+03</pdfrwt>
<pdfrwt beam="2">  1       -4 0.13788319E+00 0.12500658E+03</pdfrwt>
<totfact> 0.34132061E+03</totfact>
</mgrwt>
</event>
<event>
 5    1  0.3434846E-002  0.1249975E+03  0.7818608E-02  0.1235073E+00
         -4   -1    0    0    0  501 -0.00000000000E+00  0.00000000000E+00  0.79224954333E+01  0.80236421836E+01  0.12700000000E+01 0.  1.
          4   -1    0    0  501    0  0.00000000000E+00 -0.00000000000E+00 -0.48980884518E+03  0.48981049164E+03  0.12700000000E+01 0.  1.
         25    2    1    2    0    0  0.00000000000E+00  0.00000000000E+00 -0.48188634975E+03  0.49783413382E+03  0.12499748287E+03 0.  0.
    9000005    1    3    3    0    0 -0.11488552117E+02 -0.57862481226E+02 -0.32305351548E+03  0.32839705758E+03  0.10000000000E+01 0.  0.
    9000005    1    3    3    0    0  0.11488552117E+02  0.57862481226E+02 -0.15883283427E+03  0.16943707624E+03  0.10000000000E+01 0.  0.
<mgrwt>
<rscale>  0 0.12499748E+03</rscale>
<asrwt>0</asrwt>
<pdfrwt beam="2">  1        4 0.75363090E-01 0.12499748E+03</pdfrwt>
<pdfrwt beam="1">  1       -4 0.12267530E-02 0.12499748E+03</pdfrwt>
<totfact> 0.56035915E+03</totfact>
</mgrwt>
</event>
<event>
 5    1  0.3434846E-002  0.1250005E+03  0.7818608E-02  0.1235068E+00
          4   -1    0    0  501    0  0.00000000000E+00  0.00000000000E+00  0.71666414359E+01  0.72782999025E+01  0.12700000000E+01 0.  1.
         -4   -1    0    0    0  501 -0.00000000000E+00 -0.00000000000E+00 -0.54073876964E+03  0.54074026103E+03  0.12700000000E+01 0.  1.
         25    2    1    2    0    0  0.00000000000E+00  0.00000000000E+00 -0.53357212821E+03  0.54801856093E+03  0.12500050849E+03 0.  0.
    9000005    1    3    3    0    0 -0.46547868003E+02 -0.31472184373E+02 -0.14687553229E+03  0.15725973544E+03  0.10000000000E+01 0.  0.
    9000005    1    3    3    0    0  0.46547868003E+02  0.31472184373E+02 -0.38669659591E+03  0.39075882549E+03  0.10000000000E+01 0.  0.
<mgrwt>
<rscale>  0 0.12500051E+03</rscale>
<asrwt>0</asrwt>
<pdfrwt beam="1">  1        4 0.11112645E-02 0.12500051E+03</pdfrwt>
<pdfrwt beam="2">  1       -4 0.83199252E-01 0.12500051E+03</pdfrwt>
<totfact> 0.52321745E+03</totfact>
</mgrwt>
</event>
<event>
 5    1  0.3434846E-002  0.1249923E+03  0.7818608E-02  0.1235081E+00
         -4   -1    0    0    0  501 -0.00000000000E+00  0.00000000000E+00  0.43321100625E+02  0.43339712266E+02  0.12700000000E+01 0. -1.
          4   -1    0    0  501    0  0.00000000000E+00 -0.00000000000E+00 -0.90116117800E+02  0.90125066365E+02  0.12700000000E+01 0. -1.
         25    2    1    2    0    0  0.00000000000E+00  0.00000000000E+00 -0.46795017175E+02  0.13346477863E+03  0.12499229377E+03 0.  0.
    9000005    1    3    3    0    0 -0.20794744153E+02 -0.17422114579E+02 -0.83505471016E+02  0.87807261376E+02  0.10000000000E+01 0.  0.
    9000005    1    3    3    0    0  0.20794744153E+02  0.17422114579E+02  0.36710453840E+02  0.45657517256E+02  0.10000000000E+01 0.  0.
<mgrwt>
<rscale>  0 0.12499229E+03</rscale>
<asrwt>0</asrwt>
<pdfrwt beam="2">  1        4 0.13866138E-01 0.12499229E+03</pdfrwt>
<pdfrwt beam="1">  1       -4 0.66669047E-02 0.12499229E+03</pdfrwt>
<totfact> 0.10272317E+04</totfact>
</mgrwt>
</event>
<event>
 5    1  0.3434846E-002  0.1250265E+03  0.7818608E-02  0.1235028E+00
          4   -1    0    0  501    0  0.00000000000E+00  0.00000000000E+00  0.95411453559E+02  0.95419905524E+02  0.12700000000E+01 0. -1.
         -4   -1    0    0    0  501 -0.00000000000E+00 -0.00000000000E+00 -0.40938353539E+02  0.40958047933E+02  0.12700000000E+01 0. -1.
         25    2    1    2    0    0  0.00000000000E+00  0.00000000000E+00  0.54473100020E+02  0.13637795346E+03  0.12502650744E+03 0.  0.
    9000005    1    3    3    0    0  0.26412812937E+02  0.16174178424E+02 -0.31985197307E+02  0.44534184417E+02  0.10000000000E+01 0.  0.
    9000005    1    3    3    0    0 -0.26412812937E+02 -0.16174178424E+02  0.86458297326E+02  0.91843769040E+02  0.10000000000E+01 0.  0.
<mgrwt>
<rscale>  0 0.12502651E+03</rscale>
<asrwt>0</asrwt>
<pdfrwt beam="1">  1        4 0.14680850E-01 0.12502651E+03</pdfrwt>
<pdfrwt beam="2">  1       -4 0.63003734E-02 0.12502651E+03</pdfrwt>
<totfact> 0.10203008E+04</totfact>
</mgrwt>
</event>
<event>
 5    1  0.3434846E-002  0.1249998E+03  0.7818608E-02  0.1235070E+00
         -4   -1    0    0    0  501 -0.00000000000E+00  0.00000000000E+00  0.77357754470E+01  0.78393317168E+01  0.12700000000E+01 0. -1.
          4   -1    0    0  501    0  0.00000000000E+00 -0.00000000000E+00 -0.50149538455E+03  0.50149699264E+03  0.12700000000E+01 0. -1.
         25    2    1    2    0    0  0.00000000000E+00  0.00000000000E+00 -0.49375960910E+03  0.50933632435E+03  0.12499975890E+03 0.  0.
    9000005    1    3    3    0    0 -0.73403702454E+01  0.45719323465E+02 -0.41787627938E+03  0.42043515843E+03  0.10000000000E+01 0.  0.
    9000005    1    3    3    0    0  0.73403702454E+01 -0.45719323465E+02 -0.75883329723E+02  0.88901165928E+02  0.10000000000E+01 0.  0.
<mgrwt>
<rscale>  0 0.12499976E+03</rscale>
<asrwt>0</asrwt>
<pdfrwt beam="2">  1        4 0.77161200E-01 0.12499976E+03</pdfrwt>
<pdfrwt beam="1">  1       -4 0.11982093E-02 0.12499976E+03</pdfrwt>
<totfact> 0.55147493E+03</totfact>
</mgrwt>
</event>
<event>
 5    1  0.3434846E-002  0.1250012E+03  0.7818608E-02  0.1235067E+00
          4   -1    0    0  501    0  0.00000000000E+00  0.00000000000E+00  0.11474464479E+01  0.17115879617E+01  0.12700000000E+01 0. -1.
         -4   -1    0    0    0  501 -0.00000000000E+00 -0.00000000000E+00 -0.27320551003E+04  0.27320553954E+04  0.12700000000E+01 0. -1.
         25    2    1    2    0    0  0.00000000000E+00  0.00000000000E+00 -0.27309076538E+04  0.27337669834E+04  0.12500122356E+03 0.  0.
    9000005    1    3    3    0    0  0.30132868707E+02  0.26832086386E+02 -0.24091271534E+04  0.24094652087E+04  0.10000000000E+01 0.  0.
    9000005    1    3    3    0    0 -0.30132868707E+02 -0.26832086386E+02 -0.32178050038E+03  0.32430177468E+03  0.10000000000E+01 0.  0.
<mgrwt>
<rscale>  0 0.12500122E+03</rscale>
<asrwt>0</asrwt>
<pdfrwt beam="1">  1        4 0.21995062E-03 0.12500122E+03</pdfrwt>
<pdfrwt beam="2">  1       -4 0.42035541E+00 0.12500122E+03</pdfrwt>
<totfact> 0.30822565E+02</totfact>
</mgrwt>
</event>
<event>
 5    1  0.3434846E-002  0.1249999E+03  0.7818608E-02  0.1235069E+00
          4   -1    0    0  501    0  0.00000000000E+00  0.00000000000E+00  0.18833387523E+03  0.18833815720E+03  0.12700000000E+01 0. -1.
         -4   -1    0    0    0  501 -0.00000000000E+00 -0.00000000000E+00 -0.20717086355E+02  0.20755976658E+02  0.12700000000E+01 0. -1.
         25    2    1    2    0    0  0.00000000000E+00  0.00000000000E+00  0.16761678887E+03  0.20909413386E+03  0.12499987561E+03 0.  0.
    9000005    1    3    3    0    0 -0.13095267144E+02 -0.24266203523E+02 -0.99988137442E+01  0.29348099279E+02  0.10000000000E+01 0.  0.
    9000005    1    3    3    0    0  0.13095267144E+02  0.24266203523E+02  0.17761560261E+03  0.17974603458E+03  0.10000000000E+01 0.  0.
<mgrwt>
<rscale>  0 0.12499988E+03</rscale>
<asrwt>0</asrwt>
<pdfrwt beam="1">  1        4 0.28977763E-01 0.12499988E+03</pdfrwt>
<pdfrwt beam="2">  1       -4 0.31905651E-02 0.12499988E+03</pdfrwt>
<totfact> 0.88624281E+03</totfact>
</mgrwt>
</event>
<event>
 5    1  0.3434846E-002  0.1249999E+03  0.7818608E-02  0.1235069E+00
         -4   -1    0    0    0  501 -0.00000000000E+00  0.00000000000E+00  0.47000401628E+01  0.48686011884E+01  0.12700000000E+01 0.  1.
          4   -1    0    0  501    0  0.00000000000E+00 -0.00000000000E+00 -0.81629890550E+03  0.81629989343E+03  0.12700000000E+01 0.  1.
         25    2    1    2    0    0  0.00000000000E+00  0.00000000000E+00 -0.81159886534E+03  0.82116849462E+03  0.12499991338E+03 0.  0.
    9000005    1    3    3    0    0 -0.49362769355E+02  0.12576243423E+02 -0.64360633578E+03  0.64561982649E+03  0.10000000000E+01 0.  0.
    9000005    1    3    3    0    0  0.49362769355E+02 -0.12576243423E+02 -0.16799252955E+03  0.17554866813E+03  0.10000000000E+01 0.  0.
<mgrwt>
<rscale>  0 0.12499991E+03</rscale>
<asrwt>0</asrwt>
<pdfrwt beam="2">  1        4 0.12559738E+00 0.12499991E+03</pdfrwt>
<pdfrwt beam="1">  1       -4 0.73612598E-03 0.12499991E+03</pdfrwt>
<totfact> 0.37337103E+03</totfact>
</mgrwt>
</event>
<event>
 5    1  0.3434846E-002  0.1250003E+03  0.7818608E-02  0.1235069E+00
          4   -1    0    0  501    0  0.00000000000E+00  0.00000000000E+00  0.32577046800E+03  0.32577294350E+03  0.12700000000E+01 0.  1.
         -4   -1    0    0    0  501 -0.00000000000E+00 -0.00000000000E+00 -0.11954711371E+02  0.12021980867E+02  0.12700000000E+01 0.  1.
         25    2    1    2    0    0  0.00000000000E+00  0.00000000000E+00  0.31381575663E+03  0.33779492437E+03  0.12500032729E+03 0.  0.
    9000005    1    3    3    0    0  0.41961442152E+02  0.21316872936E+02  0.45811983663E+02  0.65687971094E+02  0.10000000000E+01 0.  0.
    9000005    1    3    3    0    0 -0.41961442152E+02 -0.21316872936E+02  0.26800377296E+03  0.27210695328E+03  0.10000000000E+01 0.  0.
<mgrwt>
<rscale>  0 0.12500033E+03</rscale>
<asrwt>0</asrwt>
<pdfrwt beam="1">  1        4 0.50123900E-01 0.12500033E+03</pdfrwt>
<pdfrwt beam="2">  1       -4 0.18445513E-02 0.12500033E+03</pdfrwt>
<totfact> 0.71087950E+03</totfact>
</mgrwt>
</event>
<event>
 5    1  0.3434846E-002  0.1250091E+03  0.7818608E-02  0.1235055E+00
         -4   -1    0    0    0  501 -0.00000000000E+00  0.00000000000E+00  0.96047772428E+02  0.96056168403E+02  0.12700000000E+01 0.  1.
          4   -1    0    0  501    0  0.00000000000E+00 -0.00000000000E+00 -0.40655719194E+02  0.40675550435E+02  0.12700000000E+01 0.  1.
         25    2    1    2    0    0  0.00000000000E+00  0.00000000000E+00  0.55392053234E+02  0.13673171884E+03  0.12500913317E+03 0.  0.
    9000005    1    3    3    0    0  0.99904779015E+01  0.59500509755E+02  0.45524893532E+02  0.75588598617E+02  0.10000000000E+01 0.  0.
    9000005    1    3    3    0    0 -0.99904779015E+01 -0.59500509755E+02  0.98671597014E+01  0.61143120221E+02  0.10000000000E+01 0.  0.
<mgrwt>
<rscale>  0 0.12500913E+03</rscale>
<asrwt>0</asrwt>
<pdfrwt beam="2">  1        4 0.62568974E-02 0.12500913E+03</pdfrwt>
<pdfrwt beam="1">  1       -4 0.14778752E-01 0.12500913E+03</pdfrwt>
<totfact> 0.10199598E+04</totfact>
</mgrwt>
</event>
<event>
 5    1  0.3434846E-002  0.1250010E+03  0.7818608E-02  0.1235068E+00
          4   -1    0    0  501    0  0.00000000000E+00  0.00000000000E+00  0.12092979781E+02  0.12159484364E+02  0.12700000000E+01 0.  1.
         -4   -1    0    0    0  501 -0.00000000000E+00 -0.00000000000E+00 -0.32206948007E+03  0.32207198403E+03  0.12700000000E+01 0.  1.
         25    2    1    2    0    0  0.00000000000E+00  0.00000000000E+00 -0.30997650029E+03  0.33423146839E+03  0.12500097491E+03 0.  0.
    9000005    1    3    3    0    0  0.51958226281E+02  0.10525228744E+02 -0.66514211522E+02  0.85062201081E+02  0.10000000000E+01 0.  0.
    9000005    1    3    3    0    0 -0.51958226281E+02 -0.10525228744E+02 -0.24346228877E+03  0.24916926731E+03  0.10000000000E+01 0.  0.
<mgrwt>
<rscale>  0 0.12500097E+03</rscale>
<asrwt>0</asrwt>
<pdfrwt beam="1">  1        4 0.18657670E-02 0.12500097E+03</pdfrwt>
<pdfrwt beam="2">  1       -4 0.49554453E-01 0.12500097E+03</pdfrwt>
<totfact> 0.71493309E+03</totfact>
</mgrwt>
</event>
<event>
 5    1  0.3434846E-002  0.1250034E+03  0.7818608E-02  0.1235064E+00
         -4   -1    0    0    0  501 -0.00000000000E+00  0.00000000000E+00  0.27309019099E+02  0.27338533686E+02  0.12700000000E+01 0. -1.
          4   -1    0    0  501    0  0.00000000000E+00 -0.00000000000E+00 -0.14293693260E+03  0.14294257448E+03  0.12700000000E+01 0. -1.
         25    2    1    2    0    0  0.00000000000E+00  0.00000000000E+00 -0.11562791350E+03  0.17028110817E+03  0.12500336563E+03 0.  0.
    9000005    1    3    3    0    0  0.13872312610E+02 -0.60642045291E+02 -0.65937315933E+02  0.90656650869E+02  0.10000000000E+01 0.  0.
    9000005    1    3    3    0    0 -0.13872312610E+02  0.60642045291E+02 -0.49690597566E+02  0.79624457303E+02  0.10000000000E+01 0.  0.
<mgrwt>
<rscale>  0 0.12500337E+03</rscale>
<asrwt>0</asrwt>
<pdfrwt beam="2">  1        4 0.21993001E-01 0.12500337E+03</pdfrwt>
<pdfrwt beam="1">  1       -4 0.42040920E-02 0.12500337E+03</pdfrwt>
<totfact> 0.95389062E+03</totfact>
</mgrwt>
</event>
<event>
 5    1  0.3434846E-002  0.1250060E+03  0.7818608E-02  0.1235060E+00
          4   -1    0    0  501    0  0.00000000000E+00  0.00000000000E+00  0.13451957166E+03  0.13452556656E+03  0.12700000000E+01 0.  1.
         -4   -1    0    0    0  501 -0.00000000000E+00 -0.00000000000E+00 -0.29020790688E+02  0.29048566095E+02  0.12700000000E+01 0.  1.
         25    2    1    2    0    0  0.00000000000E+00  0.00000000000E+00  0.10549878097E+03  0.16357413266E+03  0.12500601621E+03 0.  0.
    9000005    1    3    3    0    0 -0.19301205156E+02  0.33759864762E+02  0.11676528510E+03  0.12307476100E+03  0.10000000000E+01 0.  0.
    9000005    1    3    3    0    0  0.19301205156E+02 -0.33759864762E+02 -0.11266504136E+02  0.40499371658E+02  0.10000000000E+01 0.  0.
<mgrwt>
<rscale>  0 0.12500602E+03</rscale>
<asrwt>0</asrwt>
<pdfrwt beam="1">  1        4 0.20697916E-01 0.12500602E+03</pdfrwt>
<pdfrwt beam="2">  1       -4 0.44673349E-02 0.12500602E+03</pdfrwt>
<totfact> 0.96645048E+03</totfact>
</mgrwt>
</event>
<event>
 5    1  0.3434846E-002  0.1249993E+03  0.7818608E-02  0.1235070E+00
          4   -1    0    0  501    0  0.00000000000E+00  0.00000000000E+00  0.18849187796E+03  0.18849615635E+03  0.12700000000E+01 0. -1.
         -4   -1    0    0    0  501 -0.00000000000E+00 -0.00000000000E+00 -0.20699502762E+02  0.20738426039E+02  0.12700000000E+01 0. -1.
         25    2    1    2    0    0  0.00000000000E+00  0.00000000000E+00  0.16779237520E+03  0.20923458239E+03  0.12499931716E+03 0.  0.
    9000005    1    3    3    0    0 -0.19664213702E+02 -0.59313894308E+02  0.82853578018E+02  0.10378118687E+03  0.10000000000E+01 0.  0.
    9000005    1    3    3    0    0  0.19664213702E+02  0.59313894308E+02  0.84938797183E+02  0.10545339551E+03  0.10000000000E+01 0.  0.
<mgrwt>
<rscale>  0 0.12499932E+03</rscale>
<asrwt>0</asrwt>
<pdfrwt beam="1">  1        4 0.29002074E-01 0.12499932E+03</pdfrwt>
<pdfrwt beam="2">  1       -4 0.31878621E-02 0.12499932E+03</pdfrwt>
<totfact> 0.88602388E+03</totfact>
</mgrwt>
</event>
<event>
 5    1  0.3434846E-002  0.1250034E+03  0.7818608E-02  0.1235064E+00
          4   -1    0    0  501    0  0.00000000000E+00  0.00000000000E+00  0.17032387835E+02  0.17079670236E+02  0.12700000000E+01 0.  1.
         -4   -1    0    0    0  501 -0.00000000000E+00 -0.00000000000E+00 -0.22898809915E+03  0.22899162092E+03  0.12700000000E+01 0.  1.
         25    2    1    2    0    0  0.00000000000E+00  0.00000000000E+00 -0.21195571131E+03  0.24607129115E+03  0.12500342704E+03 0.  0.
    9000005    1    3    3    0    0  0.33643104417E+02 -0.34569955310E+02 -0.27767437035E+02  0.55668400771E+02  0.10000000000E+01 0.  0.
    9000005    1    3    3    0    0 -0.33643104417E+02  0.34569955310E+02 -0.18418827428E+03  0.19040289038E+03  0.10000000000E+01 0.  0.
<mgrwt>
<rscale>  0 0.12500343E+03</rscale>
<asrwt>0</asrwt>
<pdfrwt beam="1">  1        4 0.26242755E-02 0.12500343E+03</pdfrwt>
<pdfrwt beam="2">  1       -4 0.35232844E-01 0.12500343E+03</pdfrwt>
<totfact> 0.82895055E+03</totfact>
</mgrwt>
</event>
<event>
 5    1  0.3434846E-002  0.1249668E+03  0.7818608E-02  0.1235121E+00
         -4   -1    0    0    0  501 -0.00000000000E+00  0.00000000000E+00  0.13550380726E+03  0.13550975862E+03  0.12700000000E+01 0.  1.
          4   -1    0    0  501    0  0.00000000000E+00 -0.00000000000E+00 -0.28791694182E+02  0.28819690385E+02  0.12700000000E+01 0.  1.
         25    2    1    2    0    0  0.00000000000E+00  0.00000000000E+00  0.10671211307E+03  0.16432944900E+03  0.12496676651E+03 0.  0.
    9000005    1    3    3    0    0 -0.24220634088E+02  0.20945514229E+02  0.12389884812E+03  0.12797374046E+03  0.10000000000E+01 0.  0.
    9000005    1    3    3    0    0  0.24220634088E+02 -0.20945514229E+02 -0.17186735048E+02  0.36355708541E+02  0.10000000000E+01 0.  0.
<mgrwt>
<rscale>  0 0.12496677E+03</rscale>
<asrwt>0</asrwt>
<pdfrwt beam="2">  1        4 0.44321029E-02 0.12496677E+03</pdfrwt>
<pdfrwt beam="1">  1       -4 0.20849350E-01 0.12496677E+03</pdfrwt>
<totfact> 0.96586632E+03</totfact>
</mgrwt>
</event>
<event>
 5    1  0.3434846E-002  0.1250001E+03  0.7818608E-02  0.1235069E+00
         -4   -1    0    0    0  501 -0.00000000000E+00  0.00000000000E+00  0.32069831670E+02  0.32094968506E+02  0.12700000000E+01 0. -1.
          4   -1    0    0  501    0  0.00000000000E+00 -0.00000000000E+00 -0.12172843936E+03  0.12173506417E+03  0.12700000000E+01 0. -1.
         25    2    1    2    0    0  0.00000000000E+00  0.00000000000E+00 -0.89658607685E+02  0.15383003267E+03  0.12500005208E+03 0.  0.
    9000005    1    3    3    0    0 -0.57876568454E+02 -0.19485462333E+02 -0.28508921735E+02  0.67402811787E+02  0.10000000000E+01 0.  0.
    9000005    1    3    3    0    0  0.57876568454E+02  0.19485462333E+02 -0.61149685951E+02  0.86427220887E+02  0.10000000000E+01 0.  0.
<mgrwt>
<rscale>  0 0.12500005E+03</rscale>
<asrwt>0</asrwt>
<pdfrwt beam="2">  1        4 0.18729895E-01 0.12500005E+03</pdfrwt>
<pdfrwt beam="1">  1       -4 0.49362635E-02 0.12500005E+03</pdfrwt>
<totfact> 0.98545529E+03</totfact>
</mgrwt>
</event>
<event>
 5    1  0.3434846E-002  0.1250046E+03  0.7818608E-02  0.1235062E+00
          4   -1    0    0  501    0  0.00000000000E+00  0.00000000000E+00  0.19959128813E+04  0.19959132854E+04  0.12700000000E+01 0.  1.
         -4   -1    0    0    0  501 -0.00000000000E+00 -0.00000000000E+00 -0.17508062044E+01  0.21629198703E+01  0.12700000000E+01 0.  1.
         25    2    1    2    0    0  0.00000000000E+00  0.00000000000E+00  0.19941620751E+04  0.19980762052E+04  0.12500456040E+03 0.  0.
    9000005    1    3    3    0    0 -0.46591193318E+01 -0.57872736902E+02  0.62751667011E+03  0.63019769306E+03  0.10000000000E+01 0.  0.
    9000005    1    3    3    0    0  0.46591193318E+01  0.57872736902E+02  0.13666454050E+04  0.13678785122E+04  0.10000000000E+01 0.  0.
<mgrwt>
<rscale>  0 0.12500456E+03</rscale>
<asrwt>0</asrwt>
<pdfrwt beam="1">  1        4 0.30709701E+00 0.12500456E+03</pdfrwt>
<pdfrwt beam="2">  1       -4 0.30108521E-03 0.12500456E+03</pdfrwt>
<totfact> 0.98851980E+02</totfact>
</mgrwt>
</event>
<event>
 5    1  0.3434846E-002  0.1250010E+03  0.7818608E-02  0.1235068E+00
          4   -1    0    0  501    0  0.00000000000E+00  0.00000000000E+00  0.48936750758E+02  0.48953227419E+02  0.12700000000E+01 0.  1.
         -4   -1    0    0    0  501 -0.00000000000E+00 -0.00000000000E+00 -0.79788770207E+02  0.79798876879E+02  0.12700000000E+01 0.  1.
         25    2    1    2    0    0  0.00000000000E+00  0.00000000000E+00 -0.30852019449E+02  0.12875210430E+03  0.12500102902E+03 0.  0.
    9000005    1    3    3    0    0 -0.10622393425E+02  0.35936910469E+02 -0.66936907144E+02  0.76719269510E+02  0.10000000000E+01 0.  0.
    9000005    1    3    3    0    0  0.10622393425E+02 -0.35936910469E+02  0.36084887696E+02  0.52032834788E+02  0.10000000000E+01 0.  0.
<mgrwt>
<rscale>  0 0.12500103E+03</rscale>
<asrwt>0</asrwt>
<pdfrwt beam="1">  1        4 0.75307758E-02 0.12500103E+03</pdfrwt>
<pdfrwt beam="2">  1       -4 0.12277240E-01 0.12500103E+03</pdfrwt>
<totfact> 0.10371036E+04</totfact>
</mgrwt>
</event>
<event>
 5    1  0.3434846E-002  0.1249999E+03  0.7818608E-02  0.1235069E+00
          4   -1    0    0  501    0  0.00000000000E+00  0.00000000000E+00  0.36900672462E+02  0.36922520610E+02  0.12700000000E+01 0. -1.
         -4   -1    0    0    0  501 -0.00000000000E+00 -0.00000000000E+00 -0.10580129087E+03  0.10580891290E+03  0.12700000000E+01 0. -1.
         25    2    1    2    0    0  0.00000000000E+00  0.00000000000E+00 -0.68900618406E+02  0.14273143351E+03  0.12499986758E+03 0.  0.
    9000005    1    3    3    0    0 -0.11073319960E+02 -0.26336002325E+02  0.29012854820E+02  0.40730199830E+02  0.10000000000E+01 0.  0.
    9000005    1    3    3    0    0  0.11073319960E+02  0.26336002325E+02 -0.97913473226E+02  0.10200123368E+03  0.10000000000E+01 0.  0.
<mgrwt>
<rscale>  0 0.12499987E+03</rscale>
<asrwt>0</asrwt>
<pdfrwt beam="1">  1        4 0.56792935E-02 0.12499987E+03</pdfrwt>
<pdfrwt beam="2">  1       -4 0.16279388E-01 0.12499987E+03</pdfrwt>
<totfact> 0.10077316E+04</totfact>
</mgrwt>
</event>
<event>
 5    1  0.3434846E-002  0.1249960E+03  0.7818608E-02  0.1235075E+00
         -4   -1    0    0    0  501 -0.00000000000E+00  0.00000000000E+00  0.29112474555E+03  0.29112751565E+03  0.12700000000E+01 0.  1.
          4   -1    0    0  501    0  0.00000000000E+00 -0.00000000000E+00 -0.13384043744E+02  0.13444163304E+02  0.12700000000E+01 0.  1.
         25    2    1    2    0    0  0.00000000000E+00  0.00000000000E+00  0.27774070180E+03  0.30457167896E+03  0.12499604067E+03 0.  0.
    9000005    1    3    3    0    0 -0.43358213044E+02  0.44799013097E+02  0.12849916521E+03  0.14282829437E+03  0.10000000000E+01 0.  0.
    9000005    1    3    3    0    0  0.43358213044E+02 -0.44799013097E+02  0.14924153660E+03  0.16174338459E+03  0.10000000000E+01 0.  0.
<mgrwt>
<rscale>  0 0.12499604E+03</rscale>
<asrwt>0</asrwt>
<pdfrwt beam="2">  1        4 0.20639215E-02 0.12499604E+03</pdfrwt>
<pdfrwt beam="1">  1       -4 0.44793256E-01 0.12499604E+03</pdfrwt>
<totfact> 0.75035526E+03</totfact>
</mgrwt>
</event>
<event>
 5    1  0.3434846E-002  0.1249976E+03  0.7818608E-02  0.1235073E+00
          4   -1    0    0  501    0  0.00000000000E+00  0.00000000000E+00  0.23146288061E+03  0.23146636473E+03  0.12700000000E+01 0. -1.
         -4   -1    0    0    0  501 -0.00000000000E+00 -0.00000000000E+00 -0.16848195166E+02  0.16895993027E+02  0.12700000000E+01 0. -1.
         25    2    1    2    0    0  0.00000000000E+00  0.00000000000E+00  0.21461468544E+03  0.24836235775E+03  0.12499759014E+03 0.  0.
    9000005    1    3    3    0    0 -0.29336881649E+02 -0.13420956069E+02  0.96768508670E+00  0.32291037473E+02  0.10000000000E+01 0.  0.
    9000005    1    3    3    0    0  0.29336881649E+02  0.13420956069E+02  0.21364700035E+03  0.21607132028E+03  0.10000000000E+01 0.  0.
<mgrwt>
<rscale>  0 0.12499759E+03</rscale>
<asrwt>0</asrwt>
<pdfrwt beam="1">  1        4 0.35613615E-01 0.12499759E+03</pdfrwt>
<pdfrwt beam="2">  1       -4 0.25959750E-02 0.12499759E+03</pdfrwt>
<totfact> 0.82571931E+03</totfact>
</mgrwt>
</event>
<event>
 5    1  0.3434846E-002  0.1249990E+03  0.7818608E-02  0.1235071E+00
          4   -1    0    0  501    0  0.00000000000E+00  0.00000000000E+00  0.59091236080E+01  0.60440583894E+01  0.12700000000E+01 0. -1.
         -4   -1    0    0    0  501 -0.00000000000E+00 -0.00000000000E+00 -0.65344545426E+03  0.65344668841E+03  0.12700000000E+01 0. -1.
         25    2    1    2    0    0  0.00000000000E+00  0.00000000000E+00 -0.64753633065E+03  0.65949074680E+03  0.12499898239E+03 0.  0.
    9000005    1    3    3    0    0 -0.48009728897E+02  0.53851610290E+01 -0.11463389662E+03  0.12440202684E+03  0.10000000000E+01 0.  0.
    9000005    1    3    3    0    0  0.48009728897E+02 -0.53851610290E+01 -0.53290243404E+03  0.53508871996E+03  0.10000000000E+01 0.  0.
<mgrwt>
<rscale>  0 0.12499898E+03</rscale>
<asrwt>0</asrwt>
<pdfrwt beam="1">  1        4 0.91957099E-03 0.12499898E+03</pdfrwt>
<pdfrwt beam="2">  1       -4 0.10054049E+00 0.12499898E+03</pdfrwt>
<totfact> 0.45313973E+03</totfact>
</mgrwt>
</event>
<event>
 5    1  0.3434846E-002  0.1250021E+03  0.7818608E-02  0.1235066E+00
          4   -1    0    0  501    0  0.00000000000E+00  0.00000000000E+00  0.29502748849E+02  0.29530070939E+02  0.12700000000E+01 0. -1.
         -4   -1    0    0    0  501 -0.00000000000E+00 -0.00000000000E+00 -0.13231571144E+03  0.13232180619E+03  0.12700000000E+01 0. -1.
         25    2    1    2    0    0  0.00000000000E+00  0.00000000000E+00 -0.10281296259E+03  0.16185187713E+03  0.12500209940E+03 0.  0.
    9000005    1    3    3    0    0  0.46680262881E+02  0.38716780122E+02 -0.31883625975E+02  0.68524459947E+02  0.10000000000E+01 0.  0.
    9000005    1    3    3    0    0 -0.46680262881E+02 -0.38716780122E+02 -0.70929336617E+02  0.93327417186E+02  0.10000000000E+01 0.  0.
<mgrwt>
<rscale>  0 0.12500210E+03</rscale>
<asrwt>0</asrwt>
<pdfrwt beam="1">  1        4 0.45414550E-02 0.12500210E+03</pdfrwt>
<pdfrwt beam="2">  1       -4 0.20358834E-01 0.12500210E+03</pdfrwt>
<totfact> 0.96982366E+03</totfact>
</mgrwt>
</event>
<event>
 5    1  0.3434846E-002  0.1250000E+03  0.7818608E-02  0.1235069E+00
          4   -1    0    0  501    0  0.00000000000E+00  0.00000000000E+00  0.14555048955E+02  0.14610350786E+02  0.12700000000E+01 0. -1.
         -4   -1    0    0    0  501 -0.00000000000E+00 -0.00000000000E+00 -0.26781191985E+03  0.26781493109E+03  0.12700000000E+01 0. -1.
         25    2    1    2    0    0  0.00000000000E+00  0.00000000000E+00 -0.25325687090E+03  0.28242528188E+03  0.12499998874E+03 0.  0.
    9000005    1    3    3    0    0 -0.20161794281E+02 -0.52716724789E+02 -0.18724186089E+03  0.19556601313E+03  0.10000000000E+01 0.  0.
    9000005    1    3    3    0    0  0.20161794281E+02  0.52716724789E+02 -0.66015010006E+02  0.86859268747E+02  0.10000000000E+01 0.  0.
<mgrwt>
<rscale>  0 0.12499999E+03</rscale>
<asrwt>0</asrwt>
<pdfrwt beam="1">  1        4 0.22437241E-02 0.12499999E+03</pdfrwt>
<pdfrwt beam="2">  1       -4 0.41206316E-01 0.12499999E+03</pdfrwt>
<totfact> 0.77857647E+03</totfact>
</mgrwt>
</event>
<event>
 5    1  0.3434846E-002  0.1250005E+03  0.7818608E-02  0.1235069E+00
          4   -1    0    0  501    0  0.00000000000E+00  0.00000000000E+00  0.56213256035E+01  0.57630028232E+01  0.12700000000E+01 0.  1.
         -4   -1    0    0    0  501 -0.00000000000E+00 -0.00000000000E+00 -0.68611308319E+03  0.68611425858E+03  0.12700000000E+01 0.  1.
         25    2    1    2    0    0  0.00000000000E+00  0.00000000000E+00 -0.68049175759E+03  0.69187726140E+03  0.12500045080E+03 0.  0.
    9000005    1    3    3    0    0 -0.17922523945E+02 -0.22958906916E+02 -0.34217543868E+02  0.44946285494E+02  0.10000000000E+01 0.  0.
    9000005    1    3    3    0    0  0.17922523945E+02  0.22958906916E+02 -0.64627421372E+03  0.64693097591E+03  0.10000000000E+01 0.  0.
<mgrwt>
<rscale>  0 0.12500045E+03</rscale>
<asrwt>0</asrwt>
<pdfrwt beam="1">  1        4 0.87580853E-03 0.12500045E+03</pdfrwt>
<pdfrwt beam="2">  1       -4 0.10556678E+00 0.12500045E+03</pdfrwt>
<totfact> 0.43518552E+03</totfact>
</mgrwt>
</event>
<event>
 5    1  0.3434846E-002  0.1249975E+03  0.7818608E-02  0.1235073E+00
         -4   -1    0    0    0  501 -0.00000000000E+00  0.00000000000E+00  0.12487549665E+03  0.12488195451E+03  0.12700000000E+01 0.  1.
          4   -1    0    0  501    0  0.00000000000E+00 -0.00000000000E+00 -0.31259752500E+02  0.31285540212E+02  0.12700000000E+01 0.  1.
         25    2    1    2    0    0  0.00000000000E+00  0.00000000000E+00  0.93615744147E+02  0.15616749472E+03  0.12499751540E+03 0.  0.
    9000005    1    3    3    0    0 -0.42231250671E+01 -0.61313641531E+02  0.60937148946E+02  0.86553645474E+02  0.10000000000E+01 0.  0.
    9000005    1    3    3    0    0  0.42231250671E+01  0.61313641531E+02  0.32678595201E+02  0.69613849251E+02  0.10000000000E+01 0.  0.
<mgrwt>
<rscale>  0 0.12499752E+03</rscale>
<asrwt>0</asrwt>
<pdfrwt beam="2">  1        4 0.48116731E-02 0.12499752E+03</pdfrwt>
<pdfrwt beam="1">  1       -4 0.19214095E-01 0.12499752E+03</pdfrwt>
<totfact> 0.98092272E+03</totfact>
</mgrwt>
</event>
<event>
 5    1  0.3434846E-002  0.1249955E+03  0.7818608E-02  0.1235076E+00
          4   -1    0    0  501    0  0.00000000000E+00  0.00000000000E+00  0.19122216481E+02  0.19164343536E+02  0.12700000000E+01 0. -1.
         -4   -1    0    0    0  501 -0.00000000000E+00 -0.00000000000E+00 -0.20399454894E+03  0.20399850219E+03  0.12700000000E+01 0. -1.
         25    2    1    2    0    0  0.00000000000E+00  0.00000000000E+00 -0.18487233245E+03  0.22316284573E+03  0.12499550554E+03 0.  0.
    9000005    1    3    3    0    0 -0.66326336532E+00  0.43883564980E+01  0.18849230966E+02  0.19390489913E+02  0.10000000000E+01 0.  0.
    9000005    1    3    3    0    0  0.66326336532E+00 -0.43883564980E+01 -0.20372156342E+03  0.20377235581E+03  0.10000000000E+01 0.  0.
<mgrwt>
<rscale>  0 0.12499551E+03</rscale>
<asrwt>0</asrwt>
<pdfrwt beam="1">  1        4 0.29454242E-02 0.12499551E+03</pdfrwt>
<pdfrwt beam="2">  1       -4 0.31387320E-01 0.12499551E+03</pdfrwt>
<totfact> 0.86379001E+03</totfact>
</mgrwt>
</event>
<event>
 5    1  0.3434846E-002  0.1249994E+03  0.7818608E-02  0.1235070E+00
         -4   -1    0    0    0  501 -0.00000000000E+00  0.00000000000E+00  0.13016066081E+04  0.13016072276E+04  0.12700000000E+01 0. -1.
          4   -1    0    0  501    0  0.00000000000E+00 -0.00000000000E+00 -0.28660625578E+01  0.31348388452E+01  0.12700000000E+01 0. -1.
         25    2    1    2    0    0  0.00000000000E+00  0.00000000000E+00  0.12987405455E+04  0.13047420665E+04  0.12499942210E+03 0.  0.
    9000005    1    3    3    0    0 -0.32605243080E+02 -0.51469029427E+02  0.50434199016E+03  0.50800984823E+03  0.10000000000E+01 0.  0.
    9000005    1    3    3    0    0  0.32605243080E+02  0.51469029427E+02  0.79439855534E+03  0.79673221825E+03  0.10000000000E+01 0.  0.
<mgrwt>
<rscale>  0 0.12499942E+03</rscale>
<asrwt>0</asrwt>
<pdfrwt beam="2">  1        4 0.46165472E-03 0.12499942E+03</pdfrwt>
<pdfrwt beam="1">  1       -4 0.20026821E+00 0.12499942E+03</pdfrwt>
<totfact> 0.22117100E+03</totfact>
</mgrwt>
</event>
<event>
 5    1  0.3434846E-002  0.1249983E+03  0.7818608E-02  0.1235072E+00
         -4   -1    0    0    0  501 -0.00000000000E+00  0.00000000000E+00  0.48568053099E+01  0.50201053593E+01  0.12700000000E+01 0. -1.
          4   -1    0    0  501    0  0.00000000000E+00 -0.00000000000E+00 -0.79080105452E+03  0.79080207431E+03  0.12700000000E+01 0. -1.
         25    2    1    2    0    0  0.00000000000E+00  0.00000000000E+00 -0.78594424921E+03  0.79582217967E+03  0.12499831512E+03 0.  0.
    9000005    1    3    3    0    0  0.40891513788E+02 -0.21503847143E+02 -0.12507148689E+03  0.13333569730E+03  0.10000000000E+01 0.  0.
    9000005    1    3    3    0    0 -0.40891513788E+02  0.21503847143E+02 -0.66087276232E+03  0.66248648237E+03  0.10000000000E+01 0.  0.
<mgrwt>
<rscale>  0 0.12499832E+03</rscale>
<asrwt>0</asrwt>
<pdfrwt beam="2">  1        4 0.12167424E+00 0.12499832E+03</pdfrwt>
<pdfrwt beam="1">  1       -4 0.75984143E-03 0.12499832E+03</pdfrwt>
<totfact> 0.38453360E+03</totfact>
</mgrwt>
</event>
<event>
 5    1  0.3434846E-002  0.1250393E+03  0.7818608E-02  0.1235008E+00
          4   -1    0    0  501    0  0.00000000000E+00  0.00000000000E+00  0.14235227573E+02  0.14291767003E+02  0.12700000000E+01 0. -1.
         -4   -1    0    0    0  501 -0.00000000000E+00 -0.00000000000E+00 -0.27397752914E+03  0.27398047261E+03  0.12700000000E+01 0. -1.
         25    2    1    2    0    0  0.00000000000E+00  0.00000000000E+00 -0.25974230157E+03  0.28827223962E+03  0.12503927747E+03 0.  0.
    9000005    1    3    3    0    0  0.33871115887E+02 -0.49015314436E+02 -0.17348943454E+03  0.18343755732E+03  0.10000000000E+01 0.  0.
    9000005    1    3    3    0    0 -0.33871115887E+02  0.49015314436E+02 -0.86252867030E+02  0.10483468229E+03  0.10000000000E+01 0.  0.
<mgrwt>
<rscale>  0 0.12503928E+03</rscale>
<asrwt>0</asrwt>
<pdfrwt beam="1">  1        4 0.21946108E-02 0.12503928E+03</pdfrwt>
<pdfrwt beam="2">  1       -4 0.42154961E-01 0.12503928E+03</pdfrwt>
<totfact> 0.77026667E+03</totfact>
</mgrwt>
</event>
<event>
 5    1  0.3434846E-002  0.1249991E+03  0.7818608E-02  0.1235071E+00
         -4   -1    0    0    0  501 -0.00000000000E+00  0.00000000000E+00  0.18818656543E+02  0.18861461611E+02  0.12700000000E+01 0.  1.
          4   -1    0    0  501    0  0.00000000000E+00 -0.00000000000E+00 -0.20728970748E+03  0.20729359789E+03  0.12700000000E+01 0.  1.
         25    2    1    2    0    0  0.00000000000E+00  0.00000000000E+00 -0.18847105094E+03  0.22615505950E+03  0.12499909559E+03 0.  0.
    9000005    1    3    3    0    0 -0.61436897314E+01  0.37954910798E+01  0.18070059402E+02  0.19485320702E+02  0.10000000000E+01 0.  0.
    9000005    1    3    3    0    0  0.61436897314E+01 -0.37954910798E+01 -0.20654111034E+03  0.20666973880E+03  0.10000000000E+01 0.  0.
<mgrwt>
<rscale>  0 0.12499910E+03</rscale>
<asrwt>0</asrwt>
<pdfrwt beam="2">  1        4 0.31894315E-01 0.12499910E+03</pdfrwt>
<pdfrwt beam="1">  1       -4 0.28987700E-02 0.12499910E+03</pdfrwt>
<totfact> 0.85905244E+03</totfact>
</mgrwt>
</event>
<event>
 5    1  0.3434846E-002  0.1249994E+03  0.7818608E-02  0.1235070E+00
         -4   -1    0    0    0  501 -0.00000000000E+00  0.00000000000E+00  0.31799724833E+01  0.34241969854E+01  0.12700000000E+01 0. -1.
          4   -1    0    0  501    0  0.00000000000E+00 -0.00000000000E+00 -0.11827095800E+04  0.11827102619E+04  0.12700000000E+01 0. -1.
         25    2    1    2    0    0  0.00000000000E+00  0.00000000000E+00 -0.11795296075E+04  0.11861344589E+04  0.12499943787E+03 0.  0.
    9000005    1    3    3    0    0 -0.37307879311E+00 -0.21957438108E+02 -0.11449347200E+04  0.11451457468E+04  0.10000000000E+01 0.  0.
    9000005    1    3    3    0    0  0.37307879311E+00  0.21957438108E+02 -0.34594887511E+02  0.40988712080E+02  0.10000000000E+01 0.  0.
<mgrwt>
<rscale>  0 0.12499944E+03</rscale>
<asrwt>0</asrwt>
<pdfrwt beam="2">  1        4 0.18197382E+00 0.12499944E+03</pdfrwt>
<pdfrwt beam="1">  1       -4 0.50806643E-03 0.12499944E+03</pdfrwt>
<totfact> 0.25078955E+03</totfact>
</mgrwt>
</event>
<event>
 5    1  0.3434846E-002  0.1250030E+03  0.7818608E-02  0.1235065E+00
         -4   -1    0    0    0  501 -0.00000000000E+00  0.00000000000E+00  0.10905838549E+03  0.10906577991E+03  0.12700000000E+01 0. -1.
          4   -1    0    0  501    0  0.00000000000E+00 -0.00000000000E+00 -0.35799837322E+02  0.35822356878E+02  0.12700000000E+01 0. -1.
         25    2    1    2    0    0  0.00000000000E+00  0.00000000000E+00  0.73258548172E+02  0.14488813678E+03  0.12500302917E+03 0.  0.
    9000005    1    3    3    0    0 -0.58285261705E+02 -0.17719894859E+02  0.20473847749E+02  0.64275538485E+02  0.10000000000E+01 0.  0.
    9000005    1    3    3    0    0  0.58285261705E+02  0.17719894859E+02  0.52784700424E+02  0.80612598300E+02  0.10000000000E+01 0.  0.
<mgrwt>
<rscale>  0 0.12500303E+03</rscale>
<asrwt>0</asrwt>
<pdfrwt beam="2">  1        4 0.55099685E-02 0.12500303E+03</pdfrwt>
<pdfrwt beam="1">  1       -4 0.16780514E-01 0.12500303E+03</pdfrwt>
<totfact> 0.10032577E+04</totfact>
</mgrwt>
</event>
<event>
 5    1  0.3434846E-002  0.1250002E+03  0.7818608E-02  0.1235069E+00
          4   -1    0    0  501    0  0.00000000000E+00  0.00000000000E+00  0.29033235391E+04  0.29033238169E+04  0.12700000000E+01 0.  1.
         -4   -1    0    0    0  501 -0.00000000000E+00 -0.00000000000E+00 -0.10454077928E+01  0.16449247561E+01  0.12700000000E+01 0.  1.
         25    2    1    2    0    0  0.00000000000E+00  0.00000000000E+00  0.29022781313E+04  0.29049687416E+04  0.12500015339E+03 0.  0.
    9000005    1    3    3    0    0 -0.70612677845E+01 -0.34967513555E+02  0.26435589760E+04  0.26437998503E+04  0.10000000000E+01 0.  0.
    9000005    1    3    3    0    0  0.70612677845E+01  0.34967513555E+02  0.25871915529E+03  0.26116889137E+03  0.10000000000E+01 0.  0.
<mgrwt>
<rscale>  0 0.12500015E+03</rscale>
<asrwt>0</asrwt>
<pdfrwt beam="1">  1        4 0.44671190E+00 0.12500015E+03</pdfrwt>
<pdfrwt beam="2">  1       -4 0.20696974E-03 0.12500015E+03</pdfrwt>
<totfact> 0.22096843E+02</totfact>
</mgrwt>
</event>
<event>
 5    1  0.3434846E-002  0.1250002E+03  0.7818608E-02  0.1235069E+00
         -4   -1    0    0    0  501 -0.00000000000E+00  0.00000000000E+00  0.30212962069E+02  0.30239642474E+02  0.12700000000E+01 0. -1.
          4   -1    0    0  501    0  0.00000000000E+00 -0.00000000000E+00 -0.12920418012E+03  0.12921042164E+03  0.12700000000E+01 0. -1.
         25    2    1    2    0    0  0.00000000000E+00  0.00000000000E+00 -0.98991218055E+02  0.15945006412E+03  0.12500024678E+03 0.  0.
    9000005    1    3    3    0    0 -0.32976603460E+02 -0.38122452115E+02 -0.23763297246E+01  0.50472018723E+02  0.10000000000E+01 0.  0.
    9000005    1    3    3    0    0  0.32976603460E+02  0.38122452115E+02 -0.96614888330E+02  0.10897804540E+03  0.10000000000E+01 0.  0.
<mgrwt>
<rscale>  0 0.12500025E+03</rscale>
<asrwt>0</asrwt>
<pdfrwt beam="2">  1        4 0.19880098E-01 0.12500025E+03</pdfrwt>
<pdfrwt beam="1">  1       -4 0.46506805E-02 0.12500025E+03</pdfrwt>
<totfact> 0.97448372E+03</totfact>
</mgrwt>
</event>
<event>
 5    1  0.3434846E-002  0.1250014E+03  0.7818608E-02  0.1235067E+00
         -4   -1    0    0    0  501 -0.00000000000E+00  0.00000000000E+00  0.39193168602E+02  0.39213739494E+02  0.12700000000E+01 0.  1.
          4   -1    0    0  501    0  0.00000000000E+00 -0.00000000000E+00 -0.99617998014E+02  0.99626093110E+02  0.12700000000E+01 0.  1.
         25    2    1    2    0    0  0.00000000000E+00  0.00000000000E+00 -0.60424829412E+02  0.13883983260E+03  0.12500135642E+03 0.  0.
    9000005    1    3    3    0    0 -0.57951777157E+02 -0.13284783070E+02 -0.88348226181E+01  0.60116121195E+02  0.10000000000E+01 0.  0.
    9000005    1    3    3    0    0  0.57951777157E+02  0.13284783070E+02 -0.51590006794E+02  0.78723711408E+02  0.10000000000E+01 0.  0.
<mgrwt>
<rscale>  0 0.12500136E+03</rscale>
<asrwt>0</asrwt>
<pdfrwt beam="2">  1        4 0.15328051E-01 0.12500136E+03</pdfrwt>
<pdfrwt beam="1">  1       -4 0.60319234E-02 0.12500136E+03</pdfrwt>
<totfact> 0.10157377E+04</totfact>
</mgrwt>
</event>
