<event>
 5    1  0.3311405E-002  0.1250009E+03  0.7818608E-02  0.1235068E+00
          4   -1    0    0  501    0  0.00000000000E+00  0.00000000000E+00  0.29893106219E+03  0.29893375996E+03  0.12700000000E+01 0. -1.
         -4   -1    0    0    0  501 -0.00000000000E+00 -0.00000000000E+00 -0.13033952520E+02  0.13095679375E+02  0.12700000000E+01 0. -1.
         25    2    1    2    0    0  0.00000000000E+00  0.00000000000E+00  0.28589710967E+03  0.31202943933E+03  0.12500085477E+03 0.  0.
    9000005    1    3    3    0    0  0.29031621672E+02  0.17074125360E+02  0.27434885383E+03  0.27641030085E+03  0.10000000000E+01 0.  0.
    9000005    1    3    3    0    0 -0.29031621672E+02 -0.17074125360E+02  0.11548255837E+02  0.35619138487E+02  0.10000000000E+01 0.  0.
<mgrwt>
<rscale>  0 0.12500085E+03</rscale>
<asrwt>0</asrwt>
<pdfrwt beam="1">  1        4 0.45994349E-01 0.12500085E+03</pdfrwt>
<pdfrwt beam="2">  1       -4 0.20101793E-02 0.12500085E+03</pdfrwt>
<totfact> 0.74112840E+03</totfact>
</mgrwt>
</event>
<event>
 5    1  0.3311405E-002  0.1250031E+03  0.7818608E-02  0.1235064E+00
          4   -1    0    0  501    0  0.00000000000E+00  0.00000000000E+00  0.37392602530E+02  0.37414163414E+02  0.12700000000E+01 0.  1.
         -4   -1    0    0    0  501 -0.00000000000E+00 -0.00000000000E+00 -0.10441554252E+03  0.10442326570E+03  0.12700000000E+01 0.  1.
         25    2    1    2    0    0  0.00000000000E+00  0.00000000000E+00 -0.67022939988E+02  0.14183742911E+03  0.12500312721E+03 0.  0.
    9000005    1    3    3    0    0 -0.52839146515E+02 -0.10848938512E+02 -0.69316959773E+02  0.87838008763E+02  0.10000000000E+01 0.  0.
    9000005    1    3    3    0    0  0.52839146515E+02  0.10848938512E+02  0.22940197848E+01  0.53999420350E+02  0.10000000000E+01 0.  0.
<mgrwt>
<rscale>  0 0.12500313E+03</rscale>
<asrwt>0</asrwt>
<pdfrwt beam="1">  1        4 0.57549607E-02 0.12500313E+03</pdfrwt>
<pdfrwt beam="2">  1       -4 0.16066182E-01 0.12500313E+03</pdfrwt>
<totfact> 0.10094934E+04</totfact>
</mgrwt>
</event>
<event>
 5    1  0.3311405E-002  0.1249956E+03  0.7818608E-02  0.1235076E+00
         -4   -1    0    0    0  501 -0.00000000000E+00  0.00000000000E+00  0.15953125919E+02  0.16003597302E+02  0.12700000000E+01 0. -1.
          4   -1    0    0  501    0  0.00000000000E+00 -0.00000000000E+00 -0.24440175059E+03  0.24440505026E+03  0.12700000000E+01 0. -1.
         25    2    1    2    0    0  0.00000000000E+00  0.00000000000E+00 -0.22844862467E+03  0.26040864756E+03  0.12499555836E+03 0.  0.
    9000005    1    3    3    0    0  0.30536947982E+02  0.31368417502E+02 -0.21322864487E+02  0.48704695447E+02  0.10000000000E+01 0.  0.
    9000005    1    3    3    0    0 -0.30536947982E+02 -0.31368417502E+02 -0.20712576018E+03  0.21170395211E+03  0.10000000000E+01 0.  0.
<mgrwt>
<rscale>  0 0.12499556E+03</rscale>
<asrwt>0</asrwt>
<pdfrwt beam="2">  1        4 0.37604403E-01 0.12499556E+03</pdfrwt>
<pdfrwt beam="1">  1       -4 0.24584635E-02 0.12499556E+03</pdfrwt>
<totfact> 0.80856742E+03</totfact>
</mgrwt>
</event>
<event>
 5    1  0.3311405E-002  0.1250057E+03  0.7818608E-02  0.1235060E+00
          4   -1    0    0  501    0  0.00000000000E+00  0.00000000000E+00  0.34344071690E+02  0.34367545159E+02  0.12700000000E+01 0.  1.
         -4   -1    0    0    0  501 -0.00000000000E+00 -0.00000000000E+00 -0.11368315559E+03  0.11369024920E+03  0.12700000000E+01 0.  1.
         25    2    1    2    0    0  0.00000000000E+00  0.00000000000E+00 -0.79339083896E+02  0.14805779436E+03  0.12500568082E+03 0.  0.
    9000005    1    3    3    0    0  0.41921522343E+02 -0.19257483237E+02 -0.89602446290E+02  0.10078622464E+03  0.10000000000E+01 0.  0.
    9000005    1    3    3    0    0 -0.41921522343E+02  0.19257483237E+02  0.10263362395E+02  0.47271569721E+02  0.10000000000E+01 0.  0.
<mgrwt>
<rscale>  0 0.12500568E+03</rscale>
<asrwt>0</asrwt>
<pdfrwt beam="1">  1        4 0.52860547E-02 0.12500568E+03</pdfrwt>
<pdfrwt beam="2">  1       -4 0.17492067E-01 0.12500568E+03</pdfrwt>
<totfact> 0.99679518E+03</totfact>
</mgrwt>
</event>
<event>
 5    1  0.3311405E-002  0.1250037E+03  0.7818608E-02  0.1235063E+00
         -4   -1    0    0    0  501 -0.00000000000E+00  0.00000000000E+00  0.20871632582E+02  0.20910235452E+02  0.12700000000E+01 0.  1.
          4   -1    0    0  501    0  0.00000000000E+00 -0.00000000000E+00 -0.18695341577E+03  0.18695772936E+03  0.12700000000E+01 0.  1.
         25    2    1    2    0    0  0.00000000000E+00  0.00000000000E+00 -0.16608178318E+03  0.20786796481E+03  0.12500372830E+03 0.  0.
    9000005    1    3    3    0    0 -0.14707380064E+02  0.52360127130E+02 -0.31852022108E+02  0.63035238190E+02  0.10000000000E+01 0.  0.
    9000005    1    3    3    0    0  0.14707380064E+02 -0.52360127130E+02 -0.13422976107E+03  0.14483272662E+03  0.10000000000E+01 0.  0.
<mgrwt>
<rscale>  0 0.12500373E+03</rscale>
<asrwt>0</asrwt>
<pdfrwt beam="2">  1        4 0.28765364E-01 0.12500373E+03</pdfrwt>
<pdfrwt beam="1">  1       -4 0.32143218E-02 0.12500373E+03</pdfrwt>
<totfact> 0.88817854E+03</totfact>
</mgrwt>
</event>
<event>
 5    1  0.3311405E-002  0.1249999E+03  0.7818608E-02  0.1235069E+00
         -4   -1    0    0    0  501 -0.00000000000E+00  0.00000000000E+00  0.11544855863E+03  0.11545554379E+03  0.12700000000E+01 0. -1.
          4   -1    0    0  501    0  0.00000000000E+00 -0.00000000000E+00 -0.33815426371E+02  0.33839266550E+02  0.12700000000E+01 0. -1.
         25    2    1    2    0    0  0.00000000000E+00  0.00000000000E+00  0.81633132264E+02  0.14929481034E+03  0.12499988844E+03 0.  0.
    9000005    1    3    3    0    0  0.14608277702E+02 -0.54139848192E+02  0.73758338159E+02  0.92659685882E+02  0.10000000000E+01 0.  0.
    9000005    1    3    3    0    0 -0.14608277702E+02  0.54139848192E+02  0.78747941051E+01  0.56635124454E+02  0.10000000000E+01 0.  0.
<mgrwt>
<rscale>  0 0.12499989E+03</rscale>
<asrwt>0</asrwt>
<pdfrwt beam="2">  1        4 0.52047445E-02 0.12499989E+03</pdfrwt>
<pdfrwt beam="1">  1       -4 0.17763688E-01 0.12499989E+03</pdfrwt>
<totfact> 0.99444702E+03</totfact>
</mgrwt>
</event>
<event>
 5    1  0.3311405E-002  0.1250224E+03  0.7818608E-02  0.1235034E+00
         -4   -1    0    0    0  501 -0.00000000000E+00  0.00000000000E+00  0.10607750685E+04  0.10607758288E+04  0.12700000000E+01 0. -1.
          4   -1    0    0  501    0  0.00000000000E+00 -0.00000000000E+00 -0.35735241688E+01  0.37924892861E+01  0.12700000000E+01 0. -1.
         25    2    1    2    0    0  0.00000000000E+00  0.00000000000E+00  0.10572015444E+04  0.10645683181E+04  0.12502239168E+03 0.  0.
    9000005    1    3    3    0    0  0.94806637954E+01 -0.81103036010E+01  0.70955468631E+01  0.14387730738E+02  0.10000000000E+01 0.  0.
    9000005    1    3    3    0    0 -0.94806637954E+01  0.81103036010E+01  0.10501059975E+04  0.10501805873E+04  0.10000000000E+01 0.  0.
<mgrwt>
<rscale>  0 0.12502239E+03</rscale>
<asrwt>0</asrwt>
<pdfrwt beam="2">  1        4 0.56667450E-03 0.12502239E+03</pdfrwt>
<pdfrwt beam="1">  1       -4 0.16321318E+00 0.12502239E+03</pdfrwt>
<totfact> 0.28530257E+03</totfact>
</mgrwt>
</event>
<event>
 5    1  0.3311405E-002  0.1250010E+03  0.7818608E-02  0.1235068E+00
         -4   -1    0    0    0  501 -0.00000000000E+00  0.00000000000E+00  0.12318154729E+04  0.12318161276E+04  0.12700000000E+01 0. -1.
          4   -1    0    0  501    0  0.00000000000E+00 -0.00000000000E+00 -0.30433480296E+01  0.32977063589E+01  0.12700000000E+01 0. -1.
         25    2    1    2    0    0  0.00000000000E+00  0.00000000000E+00  0.12287721249E+04  0.12351138339E+04  0.12500099175E+03 0.  0.
    9000005    1    3    3    0    0  0.16369987921E+02  0.31136312460E+02  0.10402739477E+03  0.10981869295E+03  0.10000000000E+01 0.  0.
    9000005    1    3    3    0    0 -0.16369987921E+02 -0.31136312460E+02  0.11247447301E+04  0.11252951410E+04  0.10000000000E+01 0.  0.
<mgrwt>
<rscale>  0 0.12500099E+03</rscale>
<asrwt>0</asrwt>
<pdfrwt beam="2">  1        4 0.48782292E-03 0.12500099E+03</pdfrwt>
<pdfrwt beam="1">  1       -4 0.18953002E+00 0.12500099E+03</pdfrwt>
<totfact> 0.23811138E+03</totfact>
</mgrwt>
</event>
<event>
 5    1  0.3311405E-002  0.1249858E+03  0.7818608E-02  0.1235091E+00
          4   -1    0    0  501    0  0.00000000000E+00  0.00000000000E+00  0.13491611162E+02  0.13551253512E+02  0.12700000000E+01 0. -1.
         -4   -1    0    0    0  501 -0.00000000000E+00 -0.00000000000E+00 -0.28876652758E+03  0.28876932031E+03  0.12700000000E+01 0. -1.
         25    2    1    2    0    0  0.00000000000E+00  0.00000000000E+00 -0.27527491642E+03  0.30232057382E+03  0.12498579817E+03 0.  0.
    9000005    1    3    3    0    0 -0.35958829085E+02  0.22939999397E+02 -0.27186738510E+02  0.50590510102E+02  0.10000000000E+01 0.  0.
    9000005    1    3    3    0    0  0.35958829085E+02 -0.22939999397E+02 -0.24808817791E+03  0.25173006372E+03  0.10000000000E+01 0.  0.
<mgrwt>
<rscale>  0 0.12498580E+03</rscale>
<asrwt>0</asrwt>
<pdfrwt beam="1">  1        4 0.20804354E-02 0.12498580E+03</pdfrwt>
<pdfrwt beam="2">  1       -4 0.44430418E-01 0.12498580E+03</pdfrwt>
<totfact> 0.75332415E+03</totfact>
</mgrwt>
</event>
<event>
 5    1  0.3311405E-002  0.1249999E+03  0.7818608E-02  0.1235069E+00
         -4   -1    0    0    0  501 -0.00000000000E+00  0.00000000000E+00  0.23758848614E+02  0.23792767545E+02  0.12700000000E+01 0. -1.
          4   -1    0    0  501    0  0.00000000000E+00 -0.00000000000E+00 -0.16425848819E+03  0.16426339776E+03  0.12700000000E+01 0. -1.
         25    2    1    2    0    0  0.00000000000E+00  0.00000000000E+00 -0.14049963958E+03  0.18805616530E+03  0.12499989035E+03 0.  0.
    9000005    1    3    3    0    0  0.23086019729E+01  0.18626824187E+02 -0.15992511042E+03  0.16102586490E+03  0.10000000000E+01 0.  0.
    9000005    1    3    3    0    0 -0.23086019729E+01 -0.18626824187E+02  0.19425470846E+02  0.27030300404E+02  0.10000000000E+01 0.  0.
<mgrwt>
<rscale>  0 0.12499989E+03</rscale>
<asrwt>0</asrwt>
<pdfrwt beam="2">  1        4 0.25273523E-01 0.12499989E+03</pdfrwt>
<pdfrwt beam="1">  1       -4 0.36581944E-02 0.12499989E+03</pdfrwt>
<totfact> 0.92186866E+03</totfact>
</mgrwt>
</event>
<event>
 5    1  0.3311405E-002  0.1250025E+03  0.7818608E-02  0.1235065E+00
         -4   -1    0    0    0  501 -0.00000000000E+00  0.00000000000E+00  0.10900073482E+03  0.10900813314E+03  0.12700000000E+01 0. -1.
          4   -1    0    0  501    0  0.00000000000E+00 -0.00000000000E+00 -0.35818503609E+02  0.35841011437E+02  0.12700000000E+01 0. -1.
         25    2    1    2    0    0  0.00000000000E+00  0.00000000000E+00  0.73182231207E+02  0.14484914458E+03  0.12500254285E+03 0.  0.
    9000005    1    3    3    0    0  0.56998621066E+01  0.38211450809E+02 -0.20328013535E+02  0.43667282206E+02  0.10000000000E+01 0.  0.
    9000005    1    3    3    0    0 -0.56998621066E+01 -0.38211450809E+02  0.93510244741E+02  0.10118186237E+03  0.10000000000E+01 0.  0.
<mgrwt>
<rscale>  0 0.12500254E+03</rscale>
<asrwt>0</asrwt>
<pdfrwt beam="2">  1        4 0.55128395E-02 0.12500254E+03</pdfrwt>
<pdfrwt beam="1">  1       -4 0.16771644E-01 0.12500254E+03</pdfrwt>
<totfact> 0.10033480E+04</totfact>
</mgrwt>
</event>
<event>
 5    1  0.3311405E-002  0.1250002E+03  0.7818608E-02  0.1235069E+00
          4   -1    0    0  501    0  0.00000000000E+00  0.00000000000E+00  0.29235209774E+03  0.29235485622E+03  0.12700000000E+01 0.  1.
         -4   -1    0    0    0  501 -0.00000000000E+00 -0.00000000000E+00 -0.13328487261E+02  0.13388856287E+02  0.12700000000E+01 0.  1.
         25    2    1    2    0    0  0.00000000000E+00  0.00000000000E+00  0.27902361048E+03  0.30574371250E+03  0.12500017012E+03 0.  0.
    9000005    1    3    3    0    0 -0.48248194434E+02 -0.16567449640E+02  0.51223915617E+02  0.72299779978E+02  0.10000000000E+01 0.  0.
    9000005    1    3    3    0    0  0.48248194434E+02  0.16567449640E+02  0.22779969486E+03  0.23344393253E+03  0.10000000000E+01 0.  0.
<mgrwt>
<rscale>  0 0.12500017E+03</rscale>
<asrwt>0</asrwt>
<pdfrwt beam="1">  1        4 0.44982098E-01 0.12500017E+03</pdfrwt>
<pdfrwt beam="2">  1       -4 0.20553927E-02 0.12500017E+03</pdfrwt>
<totfact> 0.74883679E+03</totfact>
</mgrwt>
</event>
<event>
 5    1  0.3311405E-002  0.1250216E+03  0.7818608E-02  0.1235035E+00
         -4   -1    0    0    0  501 -0.00000000000E+00  0.00000000000E+00  0.18904808441E+02  0.18947418879E+02  0.12700000000E+01 0.  1.
          4   -1    0    0  501    0  0.00000000000E+00 -0.00000000000E+00 -0.20642158836E+03  0.20642549513E+03  0.12700000000E+01 0.  1.
         25    2    1    2    0    0  0.00000000000E+00  0.00000000000E+00 -0.18751677992E+03  0.22537291401E+03  0.12502162860E+03 0.  0.
    9000005    1    3    3    0    0 -0.34125854636E+02  0.50082114673E+02 -0.66194032866E+02  0.89752115027E+02  0.10000000000E+01 0.  0.
    9000005    1    3    3    0    0  0.34125854636E+02 -0.50082114673E+02 -0.12132274705E+03  0.13562079898E+03  0.10000000000E+01 0.  0.
<mgrwt>
<rscale>  0 0.12502163E+03</rscale>
<asrwt>0</asrwt>
<pdfrwt beam="2">  1        4 0.31760744E-01 0.12502163E+03</pdfrwt>
<pdfrwt beam="1">  1       -4 0.29120105E-02 0.12502163E+03</pdfrwt>
<totfact> 0.85983676E+03</totfact>
</mgrwt>
</event>
<event>
 5    1  0.3311405E-002  0.1249992E+03  0.7818608E-02  0.1235071E+00
         -4   -1    0    0    0  501 -0.00000000000E+00  0.00000000000E+00  0.18232603167E+03  0.18233045473E+03  0.12700000000E+01 0.  1.
          4   -1    0    0  501    0  0.00000000000E+00 -0.00000000000E+00 -0.21400747791E+02  0.21438397935E+02  0.12700000000E+01 0.  1.
         25    2    1    2    0    0  0.00000000000E+00  0.00000000000E+00  0.16092528388E+03  0.20376885267E+03  0.12499919331E+03 0.  0.
    9000005    1    3    3    0    0  0.81889696179E+01  0.28238509907E+02 -0.94289970892E+01  0.30893019459E+02  0.10000000000E+01 0.  0.
    9000005    1    3    3    0    0 -0.81889696179E+01 -0.28238509907E+02  0.17035428097E+03  0.17287583321E+03  0.10000000000E+01 0.  0.
<mgrwt>
<rscale>  0 0.12499919E+03</rscale>
<asrwt>0</asrwt>
<pdfrwt beam="2">  1        4 0.32956592E-02 0.12499919E+03</pdfrwt>
<pdfrwt beam="1">  1       -4 0.28053394E-01 0.12499919E+03</pdfrwt>
<totfact> 0.89505344E+03</totfact>
</mgrwt>
</event>
<event>
 5    1  0.3311405E-002  0.1250039E+03  0.7818608E-02  0.1235063E+00
         -4   -1    0    0    0  501 -0.00000000000E+00  0.00000000000E+00  0.92775035838E+02  0.92783727963E+02  0.12700000000E+01 0. -1.
          4   -1    0    0  501    0  0.00000000000E+00 -0.00000000000E+00 -0.42086895483E+02  0.42106052670E+02  0.12700000000E+01 0. -1.
         25    2    1    2    0    0  0.00000000000E+00  0.00000000000E+00  0.50688140354E+02  0.13488978063E+03  0.12500386133E+03 0.  0.
    9000005    1    3    3    0    0  0.69688399527E+01 -0.27149585607E+02  0.85616798221E+02  0.90093844776E+02  0.10000000000E+01 0.  0.
    9000005    1    3    3    0    0 -0.69688399527E+01  0.27149585607E+02 -0.34928657866E+02  0.44795935857E+02  0.10000000000E+01 0.  0.
<mgrwt>
<rscale>  0 0.12500386E+03</rscale>
<asrwt>0</asrwt>
<pdfrwt beam="2">  1        4 0.64770494E-02 0.12500386E+03</pdfrwt>
<pdfrwt beam="1">  1       -4 0.14275224E-01 0.12500386E+03</pdfrwt>
<totfact> 0.10239503E+04</totfact>
</mgrwt>
</event>
<event>
 5    1  0.3311405E-002  0.1250031E+03  0.7818608E-02  0.1235064E+00
         -4   -1    0    0    0  501 -0.00000000000E+00  0.00000000000E+00  0.16534348065E+02  0.16583050562E+02  0.12700000000E+01 0. -1.
          4   -1    0    0  501    0  0.00000000000E+00 -0.00000000000E+00 -0.23586439830E+03  0.23586781740E+03  0.12700000000E+01 0. -1.
         25    2    1    2    0    0  0.00000000000E+00  0.00000000000E+00 -0.21933005024E+03  0.25245086796E+03  0.12500307916E+03 0.  0.
    9000005    1    3    3    0    0 -0.49368336909E+02 -0.66736697003E+01 -0.33463947550E+02  0.60021715587E+02  0.10000000000E+01 0.  0.
    9000005    1    3    3    0    0  0.49368336909E+02  0.66736697003E+01 -0.18586610269E+03  0.19242915238E+03  0.10000000000E+01 0.  0.
<mgrwt>
<rscale>  0 0.12500308E+03</rscale>
<asrwt>0</asrwt>
<pdfrwt beam="2">  1        4 0.36290837E-01 0.12500308E+03</pdfrwt>
<pdfrwt beam="1">  1       -4 0.25477554E-02 0.12500308E+03</pdfrwt>
<totfact> 0.81971666E+03</totfact>
</mgrwt>
</event>
<event>
 5    1  0.3311405E-002  0.1250039E+03  0.7818608E-02  0.1235063E+00
          4   -1    0    0  501    0  0.00000000000E+00  0.00000000000E+00  0.18647868624E+04  0.18647872948E+04  0.12700000000E+01 0.  1.
         -4   -1    0    0    0  501 -0.00000000000E+00 -0.00000000000E+00 -0.19019206927E+01  0.22869635592E+01  0.12700000000E+01 0.  1.
         25    2    1    2    0    0  0.00000000000E+00  0.00000000000E+00  0.18628849417E+04  0.18670742584E+04  0.12500392162E+03 0.  0.
    9000005    1    3    3    0    0 -0.79583318694E+00 -0.22825125371E+02  0.62591810689E+02  0.66635984753E+02  0.10000000000E+01 0.  0.
    9000005    1    3    3    0    0  0.79583318694E+00  0.22825125371E+02  0.18002931310E+04  0.18004382736E+04  0.10000000000E+01 0.  0.
<mgrwt>
<rscale>  0 0.12500392E+03</rscale>
<asrwt>0</asrwt>
<pdfrwt beam="1">  1        4 0.28692013E+00 0.12500392E+03</pdfrwt>
<pdfrwt beam="2">  1       -4 0.32225492E-03 0.12500392E+03</pdfrwt>
<totfact> 0.11696631E+03</totfact>
</mgrwt>
</event>
<event>
 5    1  0.3311405E-002  0.1249839E+03  0.7818608E-02  0.1235094E+00
         -4   -1    0    0    0  501 -0.00000000000E+00  0.00000000000E+00  0.47177246904E+02  0.47194337853E+02  0.12700000000E+01 0. -1.
          4   -1    0    0  501    0  0.00000000000E+00 -0.00000000000E+00 -0.82741187956E+02  0.82750934039E+02  0.12700000000E+01 0. -1.
         25    2    1    2    0    0  0.00000000000E+00  0.00000000000E+00 -0.35563941053E+02  0.12994527189E+03  0.12498391810E+03 0.  0.
    9000005    1    3    3    0    0 -0.53713423527E+02  0.71730541583E+01 -0.50124041456E+02  0.73824143103E+02  0.10000000000E+01 0.  0.
    9000005    1    3    3    0    0  0.53713423527E+02 -0.71730541583E+01  0.14560100404E+02  0.56121128790E+02  0.10000000000E+01 0.  0.
<mgrwt>
<rscale>  0 0.12498392E+03</rscale>
<asrwt>0</asrwt>
<pdfrwt beam="2">  1        4 0.12731478E-01 0.12498392E+03</pdfrwt>
<pdfrwt beam="1">  1       -4 0.72601024E-02 0.12498392E+03</pdfrwt>
<totfact> 0.10349435E+04</totfact>
</mgrwt>
</event>
<event>
 5    1  0.3311405E-002  0.1249996E+03  0.7818608E-02  0.1235070E+00
         -4   -1    0    0    0  501 -0.00000000000E+00  0.00000000000E+00  0.34080543773E+02  0.34104198626E+02  0.12700000000E+01 0. -1.
          4   -1    0    0  501    0  0.00000000000E+00 -0.00000000000E+00 -0.11455041923E+03  0.11455745915E+03  0.12700000000E+01 0. -1.
         25    2    1    2    0    0  0.00000000000E+00  0.00000000000E+00 -0.80469875458E+02  0.14866165777E+03  0.12499955054E+03 0.  0.
    9000005    1    3    3    0    0  0.78012684409E+01 -0.61615755301E+02 -0.32007197341E+02  0.69877190643E+02  0.10000000000E+01 0.  0.
    9000005    1    3    3    0    0 -0.78012684409E+01  0.61615755301E+02 -0.48462678116E+02  0.78784467129E+02  0.10000000000E+01 0.  0.
<mgrwt>
<rscale>  0 0.12499955E+03</rscale>
<asrwt>0</asrwt>
<pdfrwt beam="2">  1        4 0.17625502E-01 0.12499955E+03</pdfrwt>
<pdfrwt beam="1">  1       -4 0.52455218E-02 0.12499955E+03</pdfrwt>
<totfact> 0.99572155E+03</totfact>
</mgrwt>
</event>
<event>
 5    1  0.3311405E-002  0.1249998E+03  0.7818608E-02  0.1235070E+00
          4   -1    0    0  501    0  0.00000000000E+00  0.00000000000E+00  0.15692159616E+03  0.15692673527E+03  0.12700000000E+01 0.  1.
         -4   -1    0    0    0  501 -0.00000000000E+00 -0.00000000000E+00 -0.24871161628E+02  0.24903565622E+02  0.12700000000E+01 0.  1.
         25    2    1    2    0    0  0.00000000000E+00  0.00000000000E+00  0.13205043454E+03  0.18183030089E+03  0.12499976425E+03 0.  0.
    9000005    1    3    3    0    0 -0.31635662175E+02  0.19423928398E+02  0.13915107176E+03  0.14402126540E+03  0.10000000000E+01 0.  0.
    9000005    1    3    3    0    0  0.31635662175E+02 -0.19423928398E+02 -0.71006372260E+01  0.37809035490E+02  0.10000000000E+01 0.  0.
<mgrwt>
<rscale>  0 0.12499976E+03</rscale>
<asrwt>0</asrwt>
<pdfrwt beam="1">  1        4 0.24144672E-01 0.12499976E+03</pdfrwt>
<pdfrwt beam="2">  1       -4 0.38292206E-02 0.12499976E+03</pdfrwt>
<totfact> 0.93289070E+03</totfact>
</mgrwt>
</event>
<event>
 5    1  0.3311405E-002  0.1250006E+03  0.7818608E-02  0.1235068E+00
          4   -1    0    0  501    0  0.00000000000E+00  0.00000000000E+00  0.13896319417E+03  0.13896899739E+03  0.12700000000E+01 0. -1.
         -4   -1    0    0    0  501 -0.00000000000E+00 -0.00000000000E+00 -0.28089512913E+02  0.28118208259E+02  0.12700000000E+01 0. -1.
         25    2    1    2    0    0  0.00000000000E+00  0.00000000000E+00  0.11087368126E+03  0.16708720565E+03  0.12500064438E+03 0.  0.
    9000005    1    3    3    0    0 -0.21183114256E+02  0.32764299604E+02 -0.98159418665E+01  0.40243960700E+02  0.10000000000E+01 0.  0.
    9000005    1    3    3    0    0  0.21183114256E+02 -0.32764299604E+02  0.12068962313E+03  0.12684324495E+03  0.10000000000E+01 0.  0.
<mgrwt>
<rscale>  0 0.12500064E+03</rscale>
<asrwt>0</asrwt>
<pdfrwt beam="1">  1        4 0.21381606E-01 0.12500064E+03</pdfrwt>
<pdfrwt beam="2">  1       -4 0.43241174E-02 0.12500064E+03</pdfrwt>
<totfact> 0.95992174E+03</totfact>
</mgrwt>
</event>
<event>
 5    1  0.3311405E-002  0.1250000E+03  0.7818608E-02  0.1235069E+00
         -4   -1    0    0    0  501 -0.00000000000E+00  0.00000000000E+00  0.23917192696E+02  0.23950887384E+02  0.12700000000E+01 0.  1.
          4   -1    0    0  501    0  0.00000000000E+00 -0.00000000000E+00 -0.16317280808E+03  0.16317775031E+03  0.12700000000E+01 0.  1.
         25    2    1    2    0    0  0.00000000000E+00  0.00000000000E+00 -0.13925561538E+03  0.18712863769E+03  0.12500000252E+03 0.  0.
    9000005    1    3    3    0    0  0.57877529363E+02  0.22719484340E+02 -0.60246942426E+02  0.86583355476E+02  0.10000000000E+01 0.  0.
    9000005    1    3    3    0    0 -0.57877529363E+02 -0.22719484340E+02 -0.79008672955E+02  0.10054528222E+03  0.10000000000E+01 0.  0.
<mgrwt>
<rscale>  0 0.12500000E+03</rscale>
<asrwt>0</asrwt>
<pdfrwt beam="2">  1        4 0.25106480E-01 0.12500000E+03</pdfrwt>
<pdfrwt beam="1">  1       -4 0.36825403E-02 0.12500000E+03</pdfrwt>
<totfact> 0.92349331E+03</totfact>
</mgrwt>
</event>
<event>
 5    1  0.3311405E-002  0.1250005E+03  0.7818608E-02  0.1235068E+00
         -4   -1    0    0    0  501 -0.00000000000E+00  0.00000000000E+00  0.59381543008E+02  0.59395122275E+02  0.12700000000E+01 0.  1.
          4   -1    0    0  501    0  0.00000000000E+00 -0.00000000000E+00 -0.65755531972E+02  0.65767795195E+02  0.12700000000E+01 0.  1.
         25    2    1    2    0    0  0.00000000000E+00  0.00000000000E+00 -0.63739889633E+01  0.12516291747E+03  0.12500051270E+03 0.  0.
    9000005    1    3    3    0    0  0.32412252564E+01  0.49534559833E+01 -0.65479072587E+02  0.65753716352E+02  0.10000000000E+01 0.  0.
    9000005    1    3    3    0    0 -0.32412252564E+01 -0.49534559833E+01  0.59105083623E+02  0.59409201118E+02  0.10000000000E+01 0.  0.
<mgrwt>
<rscale>  0 0.12500051E+03</rscale>
<asrwt>0</asrwt>
<pdfrwt beam="2">  1        4 0.10118224E-01 0.12500051E+03</pdfrwt>
<pdfrwt beam="1">  1       -4 0.91376099E-02 0.12500051E+03</pdfrwt>
<totfact> 0.10449204E+04</totfact>
</mgrwt>
</event>
<event>
 5    1  0.3311405E-002  0.1250011E+03  0.7818608E-02  0.1235068E+00
         -4   -1    0    0    0  501 -0.00000000000E+00  0.00000000000E+00  0.24075240476E+02  0.24108714275E+02  0.12700000000E+01 0. -1.
          4   -1    0    0  501    0  0.00000000000E+00 -0.00000000000E+00 -0.16210592815E+03  0.16211090290E+03  0.12700000000E+01 0. -1.
         25    2    1    2    0    0  0.00000000000E+00  0.00000000000E+00 -0.13803068767E+03  0.18621961718E+03  0.12500110033E+03 0.  0.
    9000005    1    3    3    0    0  0.15765102502E+02 -0.47288026683E+02 -0.12865184765E+02  0.51489891275E+02  0.10000000000E+01 0.  0.
    9000005    1    3    3    0    0 -0.15765102502E+02  0.47288026683E+02 -0.12516550290E+03  0.13472972590E+03  0.10000000000E+01 0.  0.
<mgrwt>
<rscale>  0 0.12500110E+03</rscale>
<asrwt>0</asrwt>
<pdfrwt beam="2">  1        4 0.24942330E-01 0.12500110E+03</pdfrwt>
<pdfrwt beam="1">  1       -4 0.37068408E-02 0.12500110E+03</pdfrwt>
<totfact> 0.92507000E+03</totfact>
</mgrwt>
</event>
<event>
 5    1  0.3311405E-002  0.1249987E+03  0.7818608E-02  0.1235071E+00
          4   -1    0    0  501    0  0.00000000000E+00  0.00000000000E+00  0.56102437614E+02  0.56116810371E+02  0.12700000000E+01 0. -1.
         -4   -1    0    0    0  501 -0.00000000000E+00 -0.00000000000E+00 -0.69596557561E+02  0.69608144095E+02  0.12700000000E+01 0. -1.
         25    2    1    2    0    0  0.00000000000E+00  0.00000000000E+00 -0.13494119948E+02  0.12572495447E+03  0.12499869160E+03 0.  0.
    9000005    1    3    3    0    0  0.42442480004E+02  0.92418185011E+01 -0.51934618338E+02  0.67712479648E+02  0.10000000000E+01 0.  0.
    9000005    1    3    3    0    0 -0.42442480004E+02 -0.92418185011E+01  0.38440498390E+02  0.58012474819E+02  0.10000000000E+01 0.  0.
<mgrwt>
<rscale>  0 0.12499869E+03</rscale>
<asrwt>0</asrwt>
<pdfrwt beam="1">  1        4 0.86331411E-02 0.12499869E+03</pdfrwt>
<pdfrwt beam="2">  1       -4 0.10709160E-01 0.12499869E+03</pdfrwt>
<totfact> 0.10437303E+04</totfact>
</mgrwt>
</event>
<event>
 5    1  0.3311405E-002  0.1250061E+03  0.7818608E-02  0.1235060E+00
         -4   -1    0    0    0  501 -0.00000000000E+00  0.00000000000E+00  0.26315817760E+03  0.26316124209E+03  0.12700000000E+01 0. -1.
          4   -1    0    0  501    0  0.00000000000E+00 -0.00000000000E+00 -0.14814867573E+02  0.14869203112E+02  0.12700000000E+01 0. -1.
         25    2    1    2    0    0  0.00000000000E+00  0.00000000000E+00  0.24834331003E+03  0.27803044520E+03  0.12500611514E+03 0.  0.
    9000005    1    3    3    0    0 -0.56259089265E+02  0.25313342564E+02  0.10195458946E+03  0.11917041893E+03  0.10000000000E+01 0.  0.
    9000005    1    3    3    0    0  0.56259089265E+02 -0.25313342564E+02  0.14638872057E+03  0.15886002627E+03  0.10000000000E+01 0.  0.
<mgrwt>
<rscale>  0 0.12500612E+03</rscale>
<asrwt>0</asrwt>
<pdfrwt beam="2">  1        4 0.22836261E-02 0.12500612E+03</pdfrwt>
<pdfrwt beam="1">  1       -4 0.40490283E-01 0.12500612E+03</pdfrwt>
<totfact> 0.78429321E+03</totfact>
</mgrwt>
</event>
<event>
 5    1  0.3311405E-002  0.1250128E+03  0.7818608E-02  0.1235049E+00
          4   -1    0    0  501    0  0.00000000000E+00  0.00000000000E+00  0.89402036133E+01  0.90299579538E+01  0.12700000000E+01 0. -1.
         -4   -1    0    0    0  501 -0.00000000000E+00 -0.00000000000E+00 -0.43474686669E+03  0.43474872168E+03  0.12700000000E+01 0. -1.
         25    2    1    2    0    0  0.00000000000E+00  0.00000000000E+00 -0.42580666308E+03  0.44377867963E+03  0.12501280803E+03 0.  0.
    9000005    1    3    3    0    0  0.56524661477E+01 -0.60907746214E+02 -0.16739485342E+03  0.17822385047E+03  0.10000000000E+01 0.  0.
    9000005    1    3    3    0    0 -0.56524661477E+01  0.60907746214E+02 -0.25841180966E+03  0.26555482916E+03  0.10000000000E+01 0.  0.
<mgrwt>
<rscale>  0 0.12501281E+03</rscale>
<asrwt>0</asrwt>
<pdfrwt beam="1">  1        4 0.13824632E-02 0.12501281E+03</pdfrwt>
<pdfrwt beam="2">  1       -4 0.66891164E-01 0.12501281E+03</pdfrwt>
<totfact> 0.60489499E+03</totfact>
</mgrwt>
</event>
<event>
 5    1  0.3311405E-002  0.1249989E+03  0.7818608E-02  0.1235071E+00
          4   -1    0    0  501    0  0.00000000000E+00  0.00000000000E+00  0.26546743711E+03  0.26547047494E+03  0.12700000000E+01 0. -1.
         -4   -1    0    0    0  501 -0.00000000000E+00 -0.00000000000E+00 -0.14683819993E+02  0.14738638662E+02  0.12700000000E+01 0. -1.
         25    2    1    2    0    0  0.00000000000E+00  0.00000000000E+00  0.25078361711E+03  0.28020911360E+03  0.12499889892E+03 0.  0.
    9000005    1    3    3    0    0 -0.48414646691E+02 -0.57065728586E+01  0.37746550871E+02  0.61663158293E+02  0.10000000000E+01 0.  0.
    9000005    1    3    3    0    0  0.48414646691E+02  0.57065728586E+01  0.21303706624E+03  0.21854595531E+03  0.10000000000E+01 0.  0.
<mgrwt>
<rscale>  0 0.12499890E+03</rscale>
<asrwt>0</asrwt>
<pdfrwt beam="1">  1        4 0.40845595E-01 0.12499890E+03</pdfrwt>
<pdfrwt beam="2">  1       -4 0.22634997E-02 0.12499890E+03</pdfrwt>
<totfact> 0.78152298E+03</totfact>
</mgrwt>
</event>
<event>
 5    1  0.3311405E-002  0.1249985E+03  0.7818608E-02  0.1235072E+00
          4   -1    0    0  501    0  0.00000000000E+00  0.00000000000E+00  0.13259643238E+03  0.13260251423E+03  0.12700000000E+01 0.  1.
         -4   -1    0    0    0  501 -0.00000000000E+00 -0.00000000000E+00 -0.29438543893E+02  0.29465925516E+02  0.12700000000E+01 0.  1.
         25    2    1    2    0    0  0.00000000000E+00  0.00000000000E+00  0.10315788848E+03  0.16206843974E+03  0.12499851681E+03 0.  0.
    9000005    1    3    3    0    0 -0.39004707180E+02 -0.44596417813E+01 -0.11459908256E+02  0.40909474261E+02  0.10000000000E+01 0.  0.
    9000005    1    3    3    0    0  0.39004707180E+02  0.44596417813E+01  0.11461779674E+03  0.12115896548E+03  0.10000000000E+01 0.  0.
<mgrwt>
<rscale>  0 0.12499852E+03</rscale>
<asrwt>0</asrwt>
<pdfrwt beam="1">  1        4 0.20402025E-01 0.12499852E+03</pdfrwt>
<pdfrwt beam="2">  1       -4 0.45315808E-02 0.12499852E+03</pdfrwt>
<totfact> 0.96948713E+03</totfact>
</mgrwt>
</event>
<event>
 5    1  0.3311405E-002  0.1250000E+03  0.7818608E-02  0.1235069E+00
          4   -1    0    0  501    0  0.00000000000E+00  0.00000000000E+00  0.21959226385E+03  0.21959593631E+03  0.12700000000E+01 0.  1.
         -4   -1    0    0    0  501 -0.00000000000E+00 -0.00000000000E+00 -0.17762147655E+02  0.17807492505E+02  0.12700000000E+01 0.  1.
         25    2    1    2    0    0  0.00000000000E+00  0.00000000000E+00  0.20183011620E+03  0.23740342881E+03  0.12499996883E+03 0.  0.
    9000005    1    3    3    0    0 -0.41699117479E+02  0.43239077464E+02  0.13363549934E+03  0.14651921684E+03  0.10000000000E+01 0.  0.
    9000005    1    3    3    0    0  0.41699117479E+02 -0.43239077464E+02  0.68194616854E+02  0.90884211975E+02  0.10000000000E+01 0.  0.
<mgrwt>
<rscale>  0 0.12499997E+03</rscale>
<asrwt>0</asrwt>
<pdfrwt beam="1">  1        4 0.33787195E-01 0.12499997E+03</pdfrwt>
<pdfrwt beam="2">  1       -4 0.27364087E-02 0.12499997E+03</pdfrwt>
<totfact> 0.84185665E+03</totfact>
</mgrwt>
</event>
<event>
 5    1  0.3311405E-002  0.1250004E+03  0.7818608E-02  0.1235069E+00
         -4   -1    0    0    0  501 -0.00000000000E+00  0.00000000000E+00  0.11725147686E+02  0.11793726649E+02  0.12700000000E+01 0.  1.
          4   -1    0    0  501    0  0.00000000000E+00 -0.00000000000E+00 -0.33211216994E+03  0.33211459817E+03  0.12700000000E+01 0.  1.
         25    2    1    2    0    0  0.00000000000E+00  0.00000000000E+00 -0.32038702225E+03  0.34390832482E+03  0.12500036742E+03 0.  0.
    9000005    1    3    3    0    0 -0.48496342066E+01  0.23528146825E+02 -0.31891466906E+03  0.31981972858E+03  0.10000000000E+01 0.  0.
    9000005    1    3    3    0    0  0.48496342066E+01 -0.23528146825E+02 -0.14723531853E+01  0.24088596241E+02  0.10000000000E+01 0.  0.
<mgrwt>
<rscale>  0 0.12500037E+03</rscale>
<asrwt>0</asrwt>
<pdfrwt beam="2">  1        4 0.51099635E-01 0.12500037E+03</pdfrwt>
<pdfrwt beam="1">  1       -4 0.18093312E-02 0.12500037E+03</pdfrwt>
<totfact> 0.70399385E+03</totfact>
</mgrwt>
</event>
<event>
 5    1  0.3311405E-002  0.1249957E+03  0.7818608E-02  0.1235076E+00
          4   -1    0    0  501    0  0.00000000000E+00  0.00000000000E+00  0.63341086040E+03  0.63341213359E+03  0.12700000000E+01 0. -1.
         -4   -1    0    0    0  501 -0.00000000000E+00 -0.00000000000E+00 -0.60999017259E+01  0.62307063055E+01  0.12700000000E+01 0. -1.
         25    2    1    2    0    0  0.00000000000E+00  0.00000000000E+00  0.62731095868E+03  0.63964283989E+03  0.12499569493E+03 0.  0.
    9000005    1    3    3    0    0 -0.28930261183E+02 -0.45186301184E+02  0.14972393265E+03  0.15905036258E+03  0.10000000000E+01 0.  0.
    9000005    1    3    3    0    0  0.28930261183E+02  0.45186301184E+02  0.47758702602E+03  0.48059247732E+03  0.10000000000E+01 0.  0.
<mgrwt>
<rscale>  0 0.12499569E+03</rscale>
<asrwt>0</asrwt>
<pdfrwt beam="1">  1        4 0.97457971E-01 0.12499569E+03</pdfrwt>
<pdfrwt beam="2">  1       -4 0.94860637E-03 0.12499569E+03</pdfrwt>
<totfact> 0.46461521E+03</totfact>
</mgrwt>
</event>
<event>
 5    1  0.3311405E-002  0.1249977E+03  0.7818608E-02  0.1235073E+00
          4   -1    0    0  501    0  0.00000000000E+00  0.00000000000E+00  0.32878860634E+01  0.35246410833E+01  0.12700000000E+01 0. -1.
         -4   -1    0    0    0  501 -0.00000000000E+00 -0.00000000000E+00 -0.11465059841E+04  0.11465066875E+04  0.12700000000E+01 0. -1.
         25    2    1    2    0    0  0.00000000000E+00  0.00000000000E+00 -0.11432180980E+04  0.11500313285E+04  0.12499774814E+03 0.  0.
    9000005    1    3    3    0    0 -0.29891659037E+02 -0.10187791204E+02 -0.75485018979E+02  0.81830864959E+02  0.10000000000E+01 0.  0.
    9000005    1    3    3    0    0  0.29891659037E+02  0.10187791204E+02 -0.10677330790E+04  0.10682004636E+04  0.10000000000E+01 0.  0.
<mgrwt>
<rscale>  0 0.12499775E+03</rscale>
<asrwt>0</asrwt>
<pdfrwt beam="1">  1        4 0.52409557E-03 0.12499775E+03</pdfrwt>
<pdfrwt beam="2">  1       -4 0.17640349E+00 0.12499775E+03</pdfrwt>
<totfact> 0.26060697E+03</totfact>
</mgrwt>
</event>
<event>
 5    1  0.3311405E-002  0.1249981E+03  0.7818608E-02  0.1235072E+00
          4   -1    0    0  501    0  0.00000000000E+00  0.00000000000E+00  0.20845321101E+03  0.20845707971E+03  0.12700000000E+01 0. -1.
         -4   -1    0    0    0  501 -0.00000000000E+00 -0.00000000000E+00 -0.18713078434E+02  0.18756124452E+02  0.12700000000E+01 0. -1.
         25    2    1    2    0    0  0.00000000000E+00  0.00000000000E+00  0.18974013258E+03  0.22721320416E+03  0.12499808892E+03 0.  0.
    9000005    1    3    3    0    0  0.39464375575E+02 -0.21118885269E+02  0.17413838235E+03  0.17980161418E+03  0.10000000000E+01 0.  0.
    9000005    1    3    3    0    0 -0.39464375575E+02  0.21118885269E+02  0.15601750232E+02  0.47411589985E+02  0.10000000000E+01 0.  0.
<mgrwt>
<rscale>  0 0.12499809E+03</rscale>
<asrwt>0</asrwt>
<pdfrwt beam="1">  1        4 0.32073333E-01 0.12499809E+03</pdfrwt>
<pdfrwt beam="2">  1       -4 0.28825440E-02 0.12499809E+03</pdfrwt>
<totfact> 0.85743013E+03</totfact>
</mgrwt>
</event>
<event>
 5    1  0.3311405E-002  0.1250058E+03  0.7818608E-02  0.1235060E+00
          4   -1    0    0  501    0  0.00000000000E+00  0.00000000000E+00  0.91670607922E+02  0.91679404758E+02  0.12700000000E+01 0.  1.
         -4   -1    0    0    0  501 -0.00000000000E+00 -0.00000000000E+00 -0.42595440707E+02  0.42614369279E+02  0.12700000000E+01 0.  1.
         25    2    1    2    0    0  0.00000000000E+00  0.00000000000E+00  0.49075167215E+02  0.13429377404E+03  0.12500578270E+03 0.  0.
    9000005    1    3    3    0    0 -0.25334578420E+02  0.57129393554E+02  0.24595986461E+02  0.67168229257E+02  0.10000000000E+01 0.  0.
    9000005    1    3    3    0    0  0.25334578420E+02 -0.57129393554E+02  0.24479180754E+02  0.67125544779E+02  0.10000000000E+01 0.  0.
<mgrwt>
<rscale>  0 0.12500578E+03</rscale>
<asrwt>0</asrwt>
<pdfrwt beam="1">  1        4 0.14105303E-01 0.12500578E+03</pdfrwt>
<pdfrwt beam="2">  1       -4 0.65552775E-02 0.12500578E+03</pdfrwt>
<totfact> 0.10251641E+04</totfact>
</mgrwt>
</event>
<event>
 5    1  0.3311405E-002  0.1250034E+03  0.7818608E-02  0.1235064E+00
          4   -1    0    0  501    0  0.00000000000E+00  0.00000000000E+00  0.40233522554E+02  0.40253561794E+02  0.12700000000E+01 0.  1.
         -4   -1    0    0    0  501 -0.00000000000E+00 -0.00000000000E+00 -0.97046391018E+02  0.97054700605E+02  0.12700000000E+01 0.  1.
         25    2    1    2    0    0  0.00000000000E+00  0.00000000000E+00 -0.56812868463E+02  0.13730826240E+03  0.12500342755E+03 0.  0.
    9000005    1    3    3    0    0  0.15186519687E+02 -0.41903539211E+02 -0.76524039442E+02  0.88563342254E+02  0.10000000000E+01 0.  0.
    9000005    1    3    3    0    0 -0.15186519687E+02  0.41903539211E+02  0.19711170979E+02  0.48744920145E+02  0.10000000000E+01 0.  0.
<mgrwt>
<rscale>  0 0.12500343E+03</rscale>
<asrwt>0</asrwt>
<pdfrwt beam="1">  1        4 0.61919534E-02 0.12500343E+03</pdfrwt>
<pdfrwt beam="2">  1       -4 0.14932395E-01 0.12500343E+03</pdfrwt>
<totfact> 0.10188857E+04</totfact>
</mgrwt>
</event>
<event>
 5    1  0.3311405E-002  0.1249994E+03  0.7818608E-02  0.1235070E+00
          4   -1    0    0  501    0  0.00000000000E+00  0.00000000000E+00  0.27933729889E+02  0.27962585101E+02  0.12700000000E+01 0. -1.
         -4   -1    0    0    0  501 -0.00000000000E+00 -0.00000000000E+00 -0.13973468384E+03  0.13974045502E+03  0.12700000000E+01 0. -1.
         25    2    1    2    0    0  0.00000000000E+00  0.00000000000E+00 -0.11180095395E+03  0.16770304012E+03  0.12499942544E+03 0.  0.
    9000005    1    3    3    0    0 -0.31051853654E+02  0.30314362973E+02  0.44286925213E+01  0.43632459652E+02  0.10000000000E+01 0.  0.
    9000005    1    3    3    0    0  0.31051853654E+02 -0.30314362973E+02 -0.11622964647E+03  0.12407058046E+03  0.10000000000E+01 0.  0.
<mgrwt>
<rscale>  0 0.12499943E+03</rscale>
<asrwt>0</asrwt>
<pdfrwt beam="1">  1        4 0.43001606E-02 0.12499943E+03</pdfrwt>
<pdfrwt beam="2">  1       -4 0.21500307E-01 0.12499943E+03</pdfrwt>
<totfact> 0.95879152E+03</totfact>
</mgrwt>
</event>
<event>
 5    1  0.3311405E-002  0.1250048E+03  0.7818608E-02  0.1235062E+00
          4   -1    0    0  501    0  0.00000000000E+00  0.00000000000E+00  0.22538831898E+03  0.22539189700E+03  0.12700000000E+01 0.  1.
         -4   -1    0    0    0  501 -0.00000000000E+00 -0.00000000000E+00 -0.17305533492E+02  0.17352071618E+02  0.12700000000E+01 0.  1.
         25    2    1    2    0    0  0.00000000000E+00  0.00000000000E+00  0.20808278549E+03  0.24274396862E+03  0.12500475464E+03 0.  0.
    9000005    1    3    3    0    0 -0.82607349809E+01 -0.60506111816E+02  0.78256218498E+02  0.99268650858E+02  0.10000000000E+01 0.  0.
    9000005    1    3    3    0    0  0.82607349809E+01  0.60506111816E+02  0.12982656699E+03  0.14347531776E+03  0.10000000000E+01 0.  0.
<mgrwt>
<rscale>  0 0.12500475E+03</rscale>
<asrwt>0</asrwt>
<pdfrwt beam="1">  1        4 0.34678977E-01 0.12500475E+03</pdfrwt>
<pdfrwt beam="2">  1       -4 0.26662452E-02 0.12500475E+03</pdfrwt>
<totfact> 0.83381558E+03</totfact>
</mgrwt>
</event>
<event>
 5    1  0.3311405E-002  0.1250073E+03  0.7818608E-02  0.1235058E+00
          4   -1    0    0  501    0  0.00000000000E+00  0.00000000000E+00  0.85348279453E+01  0.86287999198E+01  0.12700000000E+01 0.  1.
         -4   -1    0    0    0  501 -0.00000000000E+00 -0.00000000000E+00 -0.45513569729E+03  0.45513746918E+03  0.12700000000E+01 0.  1.
         25    2    1    2    0    0  0.00000000000E+00  0.00000000000E+00 -0.44660086935E+03  0.46376626910E+03  0.12500726319E+03 0.  0.
    9000005    1    3    3    0    0 -0.36962334446E+02 -0.50272748180E+02 -0.23622701736E+03  0.24433126511E+03  0.10000000000E+01 0.  0.
    9000005    1    3    3    0    0  0.36962334446E+02  0.50272748180E+02 -0.21037385199E+03  0.21943500399E+03  0.10000000000E+01 0.  0.
<mgrwt>
<rscale>  0 0.12500726E+03</rscale>
<asrwt>0</asrwt>
<pdfrwt beam="1">  1        4 0.13204157E-02 0.12500726E+03</pdfrwt>
<pdfrwt beam="2">  1       -4 0.70028223E-01 0.12500726E+03</pdfrwt>
<totfact> 0.58780112E+03</totfact>
</mgrwt>
</event>
<event>
 5    1  0.3311405E-002  0.1249991E+03  0.7818608E-02  0.1235071E+00
          4   -1    0    0  501    0  0.00000000000E+00  0.00000000000E+00  0.66406916611E+02  0.66419059568E+02  0.12700000000E+01 0. -1.
         -4   -1    0    0    0  501 -0.00000000000E+00 -0.00000000000E+00 -0.58797751787E+02  0.58811465848E+02  0.12700000000E+01 0. -1.
         25    2    1    2    0    0  0.00000000000E+00  0.00000000000E+00  0.76091648246E+01  0.12523052542E+03  0.12499914042E+03 0.  0.
    9000005    1    3    3    0    0  0.49422516832E+02  0.98803634359E+01  0.40818737089E+02  0.64864289475E+02  0.10000000000E+01 0.  0.
    9000005    1    3    3    0    0 -0.49422516832E+02 -0.98803634359E+01 -0.33209572265E+02  0.60366235940E+02  0.10000000000E+01 0.  0.
<mgrwt>
<rscale>  0 0.12499914E+03</rscale>
<asrwt>0</asrwt>
<pdfrwt beam="1">  1        4 0.10218438E-01 0.12499914E+03</pdfrwt>
<pdfrwt beam="2">  1       -4 0.90477970E-02 0.12499914E+03</pdfrwt>
<totfact> 0.10448061E+04</totfact>
</mgrwt>
</event>
<event>
 5    1  0.3311405E-002  0.1250029E+03  0.7818608E-02  0.1235065E+00
         -4   -1    0    0    0  501 -0.00000000000E+00  0.00000000000E+00  0.19538357102E+01  0.23303162838E+01  0.12700000000E+01 0. -1.
          4   -1    0    0  501    0  0.00000000000E+00 -0.00000000000E+00 -0.18232883527E+04  0.18232887950E+04  0.12700000000E+01 0. -1.
         25    2    1    2    0    0  0.00000000000E+00  0.00000000000E+00 -0.18213345170E+04  0.18256191113E+04  0.12500286687E+03 0.  0.
    9000005    1    3    3    0    0 -0.54523286639E+02  0.27953198791E+02 -0.73104881988E+03  0.73361266834E+03  0.10000000000E+01 0.  0.
    9000005    1    3    3    0    0  0.54523286639E+02 -0.27953198791E+02 -0.10902856971E+04  0.10920064429E+04  0.10000000000E+01 0.  0.
<mgrwt>
<rscale>  0 0.12500287E+03</rscale>
<asrwt>0</asrwt>
<pdfrwt beam="2">  1        4 0.28053365E+00 0.12500287E+03</pdfrwt>
<pdfrwt beam="1">  1       -4 0.32958564E-03 0.12500287E+03</pdfrwt>
<totfact> 0.12312265E+03</totfact>
</mgrwt>
</event>
<event>
 5    1  0.3311405E-002  0.1250023E+03  0.7818608E-02  0.1235066E+00
          4   -1    0    0  501    0  0.00000000000E+00  0.00000000000E+00  0.33134528179E+02  0.33158857907E+02  0.12700000000E+01 0. -1.
         -4   -1    0    0    0  501 -0.00000000000E+00 -0.00000000000E+00 -0.11782397724E+03  0.11783082157E+03  0.12700000000E+01 0. -1.
         25    2    1    2    0    0  0.00000000000E+00  0.00000000000E+00 -0.84689449056E+02  0.15098967948E+03  0.12500232209E+03 0.  0.
    9000005    1    3    3    0    0  0.14032530094E+02 -0.16470705056E+02 -0.11316074659E+03  0.11521523595E+03  0.10000000000E+01 0.  0.
    9000005    1    3    3    0    0 -0.14032530094E+02  0.16470705056E+02  0.28471297538E+02  0.35774443523E+02  0.10000000000E+01 0.  0.
<mgrwt>
<rscale>  0 0.12500232E+03</rscale>
<asrwt>0</asrwt>
<pdfrwt beam="1">  1        4 0.51000178E-02 0.12500232E+03</pdfrwt>
<pdfrwt beam="2">  1       -4 0.18129164E-01 0.12500232E+03</pdfrwt>
<totfact> 0.99101607E+03</totfact>
</mgrwt>
</event>
<event>
 5    1  0.3311405E-002  0.1250000E+03  0.7818608E-02  0.1235069E+00
          4   -1    0    0  501    0  0.00000000000E+00  0.00000000000E+00  0.13158318165E+03  0.13158931033E+03  0.12700000000E+01 0.  1.
         -4   -1    0    0    0  501 -0.00000000000E+00 -0.00000000000E+00 -0.29666156279E+02  0.29693328011E+02  0.12700000000E+01 0.  1.
         25    2    1    2    0    0  0.00000000000E+00  0.00000000000E+00  0.10191702537E+03  0.16128263834E+03  0.12500003748E+03 0.  0.
    9000005    1    3    3    0    0 -0.46730755857E+02  0.13685403667E+02  0.10149653660E+03  0.11257708807E+03  0.10000000000E+01 0.  0.
    9000005    1    3    3    0    0  0.46730755857E+02 -0.13685403667E+02  0.42048877093E+00  0.48705550272E+02  0.10000000000E+01 0.  0.
<mgrwt>
<rscale>  0 0.12500004E+03</rscale>
<asrwt>0</asrwt>
<pdfrwt beam="1">  1        4 0.20246128E-01 0.12500004E+03</pdfrwt>
<pdfrwt beam="2">  1       -4 0.45665856E-02 0.12500004E+03</pdfrwt>
<totfact> 0.97095989E+03</totfact>
</mgrwt>
</event>
<event>
 5    1  0.3311405E-002  0.1249960E+03  0.7818608E-02  0.1235075E+00
          4   -1    0    0  501    0  0.00000000000E+00  0.00000000000E+00  0.81395987809E+02  0.81405894942E+02  0.12700000000E+01 0.  1.
         -4   -1    0    0    0  501 -0.00000000000E+00 -0.00000000000E+00 -0.47966414705E+02  0.47983224565E+02  0.12700000000E+01 0.  1.
         25    2    1    2    0    0  0.00000000000E+00  0.00000000000E+00  0.33429573103E+02  0.12938911951E+03  0.12499603149E+03 0.  0.
    9000005    1    3    3    0    0  0.27646690748E+02 -0.49950918368E+02 -0.95862341542E+01  0.57899306044E+02  0.10000000000E+01 0.  0.
    9000005    1    3    3    0    0 -0.27646690748E+02  0.49950918368E+02  0.43015807258E+02  0.71489813464E+02  0.10000000000E+01 0.  0.
<mgrwt>
<rscale>  0 0.12499603E+03</rscale>
<asrwt>0</asrwt>
<pdfrwt beam="1">  1        4 0.12524515E-01 0.12499603E+03</pdfrwt>
<pdfrwt beam="2">  1       -4 0.73815036E-02 0.12499603E+03</pdfrwt>
<totfact> 0.10358521E+04</totfact>
</mgrwt>
</event>
<event>
 5    1  0.3311405E-002  0.1249967E+03  0.7818608E-02  0.1235074E+00
          4   -1    0    0  501    0  0.00000000000E+00  0.00000000000E+00  0.19643161854E+03  0.19643572400E+03  0.12700000000E+01 0.  1.
         -4   -1    0    0    0  501 -0.00000000000E+00 -0.00000000000E+00 -0.19860419483E+02  0.19900983947E+02  0.12700000000E+01 0.  1.
         25    2    1    2    0    0  0.00000000000E+00  0.00000000000E+00  0.17657119906E+03  0.21633670795E+03  0.12499673143E+03 0.  0.
    9000005    1    3    3    0    0  0.32611520400E+02 -0.20818892796E+02  0.33539509030E+01  0.38848250240E+02  0.10000000000E+01 0.  0.
    9000005    1    3    3    0    0 -0.32611520400E+02  0.20818892796E+02  0.17321724816E+03  0.17748845771E+03  0.10000000000E+01 0.  0.
<mgrwt>
<rscale>  0 0.12499673E+03</rscale>
<asrwt>0</asrwt>
<pdfrwt beam="1">  1        4 0.30223684E-01 0.12499673E+03</pdfrwt>
<pdfrwt beam="2">  1       -4 0.30588854E-02 0.12499673E+03</pdfrwt>
<totfact> 0.87457745E+03</totfact>
</mgrwt>
</event>
<event>
 5    1  0.3311405E-002  0.1249893E+03  0.7818608E-02  0.1235086E+00
          4   -1    0    0  501    0  0.00000000000E+00  0.00000000000E+00  0.19435704483E+04  0.19435708632E+04  0.12700000000E+01 0. -1.
         -4   -1    0    0    0  501 -0.00000000000E+00 -0.00000000000E+00 -0.18083712528E+01  0.22097752347E+01  0.12700000000E+01 0. -1.
         25    2    1    2    0    0  0.00000000000E+00  0.00000000000E+00  0.19417620770E+04  0.19457806384E+04  0.12498931624E+03 0.  0.
    9000005    1    3    3    0    0  0.47072233901E+02 -0.33274822247E+02  0.59545601824E+03  0.59824065280E+03  0.10000000000E+01 0.  0.
    9000005    1    3    3    0    0 -0.47072233901E+02  0.33274822247E+02  0.13463060588E+04  0.13475399856E+04  0.10000000000E+01 0.  0.
<mgrwt>
<rscale>  0 0.12498932E+03</rscale>
<asrwt>0</asrwt>
<pdfrwt beam="1">  1        4 0.29904228E+00 0.12498932E+03</pdfrwt>
<pdfrwt beam="2">  1       -4 0.30911955E-03 0.12498932E+03</pdfrwt>
<totfact> 0.10588030E+03</totfact>
</mgrwt>
</event>
<event>
 5    1  0.3311405E-002  0.1249924E+03  0.7818608E-02  0.1235081E+00
          4   -1    0    0  501    0  0.00000000000E+00  0.00000000000E+00  0.59813553342E+02  0.59827034553E+02  0.12700000000E+01 0. -1.
         -4   -1    0    0    0  501 -0.00000000000E+00 -0.00000000000E+00 -0.65272156850E+02  0.65284510873E+02  0.12700000000E+01 0. -1.
         25    2    1    2    0    0  0.00000000000E+00  0.00000000000E+00 -0.54586035084E+01  0.12511154543E+03  0.12499240956E+03 0.  0.
    9000005    1    3    3    0    0 -0.12116878585E+02  0.47877567997E+02 -0.41050193173E+02  0.64227709157E+02  0.10000000000E+01 0.  0.
    9000005    1    3    3    0    0  0.12116878585E+02 -0.47877567997E+02  0.35591589665E+02  0.60883836269E+02  0.10000000000E+01 0.  0.
<mgrwt>
<rscale>  0 0.12499241E+03</rscale>
<asrwt>0</asrwt>
<pdfrwt beam="1">  1        4 0.92040724E-02 0.12499241E+03</pdfrwt>
<pdfrwt beam="2">  1       -4 0.10043858E-01 0.12499241E+03</pdfrwt>
<totfact> 0.10452233E+04</totfact>
</mgrwt>
</event>
<event>
 5    1  0.3311405E-002  0.1250535E+03  0.7818608E-02  0.1234986E+00
          4   -1    0    0  501    0  0.00000000000E+00  0.00000000000E+00  0.61501984714E+02  0.61515095901E+02  0.12700000000E+01 0.  1.
         -4   -1    0    0    0  501 -0.00000000000E+00 -0.00000000000E+00 -0.63542328278E+02  0.63555018551E+02  0.12700000000E+01 0.  1.
         25    2    1    2    0    0  0.00000000000E+00  0.00000000000E+00 -0.20403435642E+01  0.12507011445E+03  0.12505347067E+03 0.  0.
    9000005    1    3    3    0    0 -0.71774291496E+01  0.42324826234E+02 -0.46476041826E+02  0.63276606015E+02  0.10000000000E+01 0.  0.
    9000005    1    3    3    0    0  0.71774291496E+01 -0.42324826234E+02  0.44435698262E+02  0.61793508437E+02  0.10000000000E+01 0.  0.
<mgrwt>
<rscale>  0 0.12505347E+03</rscale>
<asrwt>0</asrwt>
<pdfrwt beam="1">  1        4 0.94638285E-02 0.12505347E+03</pdfrwt>
<pdfrwt beam="2">  1       -4 0.97777275E-02 0.12505347E+03</pdfrwt>
<totfact> 0.10438720E+04</totfact>
</mgrwt>
</event>
<event>
 5    1  0.3311405E-002  0.1249986E+03  0.7818608E-02  0.1235071E+00
         -4   -1    0    0    0  501 -0.00000000000E+00  0.00000000000E+00  0.30897668943E+03  0.30897929948E+03  0.12700000000E+01 0. -1.
          4   -1    0    0  501    0  0.00000000000E+00 -0.00000000000E+00 -0.12607696599E+02  0.12671500051E+02  0.12700000000E+01 0. -1.
         25    2    1    2    0    0  0.00000000000E+00  0.00000000000E+00  0.29636899283E+03  0.32165079954E+03  0.12499862772E+03 0.  0.
    9000005    1    3    3    0    0  0.16920506702E+02  0.10523266774E+02  0.30059563442E+03  0.30125699681E+03  0.10000000000E+01 0.  0.
    9000005    1    3    3    0    0 -0.16920506702E+02 -0.10523266774E+02 -0.42266415931E+01  0.20393802730E+02  0.10000000000E+01 0.  0.
<mgrwt>
<rscale>  0 0.12499863E+03</rscale>
<asrwt>0</asrwt>
<pdfrwt beam="2">  1        4 0.19447544E-02 0.12499863E+03</pdfrwt>
<pdfrwt beam="1">  1       -4 0.47539983E-01 0.12499863E+03</pdfrwt>
<totfact> 0.72962432E+03</totfact>
</mgrwt>
</event>
<event>
 5    1  0.3311405E-002  0.1250000E+03  0.7818608E-02  0.1235069E+00
         -4   -1    0    0    0  501 -0.00000000000E+00  0.00000000000E+00  0.48630778842E+02  0.48647359135E+02  0.12700000000E+01 0. -1.
          4   -1    0    0  501    0  0.00000000000E+00 -0.00000000000E+00 -0.80289333915E+02  0.80299377585E+02  0.12700000000E+01 0. -1.
         25    2    1    2    0    0  0.00000000000E+00  0.00000000000E+00 -0.31658555073E+02  0.12894673672E+03  0.12499998721E+03 0.  0.
    9000005    1    3    3    0    0 -0.47171402069E+01 -0.60730626995E+02 -0.30226618968E+02  0.68008153638E+02  0.10000000000E+01 0.  0.
    9000005    1    3    3    0    0  0.47171402069E+01  0.60730626995E+02 -0.14319361050E+01  0.60938583082E+02  0.10000000000E+01 0.  0.
<mgrwt>
<rscale>  0 0.12499999E+03</rscale>
<asrwt>0</asrwt>
<pdfrwt beam="2">  1        4 0.12354253E-01 0.12499999E+03</pdfrwt>
<pdfrwt beam="1">  1       -4 0.74837063E-02 0.12499999E+03</pdfrwt>
<totfact> 0.10367094E+04</totfact>
</mgrwt>
</event>
<event>
 5    1  0.3311405E-002  0.1250004E+03  0.7818608E-02  0.1235069E+00
         -4   -1    0    0    0  501 -0.00000000000E+00  0.00000000000E+00  0.26121333756E+02  0.26152188765E+02  0.12700000000E+01 0.  1.
          4   -1    0    0  501    0  0.00000000000E+00 -0.00000000000E+00 -0.14942175417E+03  0.14942715121E+03  0.12700000000E+01 0.  1.
         25    2    1    2    0    0  0.00000000000E+00  0.00000000000E+00 -0.12330042041E+03  0.17557933997E+03  0.12500044381E+03 0.  0.
    9000005    1    3    3    0    0 -0.55869746341E+02  0.21739498938E+02 -0.36869604924E+02  0.70387514074E+02  0.10000000000E+01 0.  0.
    9000005    1    3    3    0    0  0.55869746341E+02 -0.21739498938E+02 -0.86430815486E+02  0.10519182590E+03  0.10000000000E+01 0.  0.
<mgrwt>
<rscale>  0 0.12500044E+03</rscale>
<asrwt>0</asrwt>
<pdfrwt beam="2">  1        4 0.22990750E-01 0.12500044E+03</pdfrwt>
<pdfrwt beam="1">  1       -4 0.40214554E-02 0.12500044E+03</pdfrwt>
<totfact> 0.94417903E+03</totfact>
</mgrwt>
</event>
<event>
 5    1  0.3311405E-002  0.1250025E+03  0.7818608E-02  0.1235065E+00
          4   -1    0    0  501    0  0.00000000000E+00  0.00000000000E+00  0.18787343992E+02  0.18830220240E+02  0.12700000000E+01 0. -1.
         -4   -1    0    0    0  501 -0.00000000000E+00 -0.00000000000E+00 -0.20764582563E+03  0.20764970937E+03  0.12700000000E+01 0. -1.
         25    2    1    2    0    0  0.00000000000E+00  0.00000000000E+00 -0.18885848164E+03  0.22647992961E+03  0.12500252969E+03 0.  0.
    9000005    1    3    3    0    0  0.40305688020E+02 -0.75002382335E+01 -0.89742412892E+01  0.41980222332E+02  0.10000000000E+01 0.  0.
    9000005    1    3    3    0    0 -0.40305688020E+02  0.75002382335E+01 -0.17988424035E+03  0.18449970728E+03  0.10000000000E+01 0.  0.
<mgrwt>
<rscale>  0 0.12500253E+03</rscale>
<asrwt>0</asrwt>
<pdfrwt beam="1">  1        4 0.28939577E-02 0.12500253E+03</pdfrwt>
<pdfrwt beam="2">  1       -4 0.31949107E-01 0.12500253E+03</pdfrwt>
<totfact> 0.85848208E+03</totfact>
</mgrwt>
</event>
<event>
 5    1  0.3311405E-002  0.1249975E+03  0.7818608E-02  0.1235073E+00
         -4   -1    0    0    0  501 -0.00000000000E+00  0.00000000000E+00  0.20110756192E+03  0.20111157192E+03  0.12700000000E+01 0. -1.
          4   -1    0    0  501    0  0.00000000000E+00 -0.00000000000E+00 -0.19397933460E+02  0.19439463021E+02  0.12700000000E+01 0. -1.
         25    2    1    2    0    0  0.00000000000E+00  0.00000000000E+00  0.18170962846E+03  0.22055103494E+03  0.12499747973E+03 0.  0.
    9000005    1    3    3    0    0 -0.46554830893E+02  0.41110799858E+02  0.78676017331E+02  0.10024153754E+03  0.10000000000E+01 0.  0.
    9000005    1    3    3    0    0  0.46554830893E+02 -0.41110799858E+02  0.10303361113E+03  0.12030949741E+03  0.10000000000E+01 0.  0.
<mgrwt>
<rscale>  0 0.12499748E+03</rscale>
<asrwt>0</asrwt>
<pdfrwt beam="2">  1        4 0.29878005E-02 0.12499748E+03</pdfrwt>
<pdfrwt beam="1">  1       -4 0.30943128E-01 0.12499748E+03</pdfrwt>
<totfact> 0.86786115E+03</totfact>
</mgrwt>
</event>
<event>
 5    1  0.3311405E-002  0.1249992E+03  0.7818608E-02  0.1235070E+00
         -4   -1    0    0    0  501 -0.00000000000E+00  0.00000000000E+00  0.34776068054E+03  0.34776299951E+03  0.12700000000E+01 0.  1.
          4   -1    0    0  501    0  0.00000000000E+00 -0.00000000000E+00 -0.11194182310E+02  0.11265993857E+02  0.12700000000E+01 0.  1.
         25    2    1    2    0    0  0.00000000000E+00  0.00000000000E+00  0.33656649823E+03  0.35902899337E+03  0.12499924139E+03 0.  0.
    9000005    1    3    3    0    0 -0.28748991542E+02  0.30696100819E+02  0.30104355774E+03  0.30396871348E+03  0.10000000000E+01 0.  0.
    9000005    1    3    3    0    0  0.28748991542E+02 -0.30696100819E+02  0.35522940495E+02  0.55060279890E+02  0.10000000000E+01 0.  0.
<mgrwt>
<rscale>  0 0.12499924E+03</rscale>
<asrwt>0</asrwt>
<pdfrwt beam="2">  1        4 0.17278843E-02 0.12499924E+03</pdfrwt>
<pdfrwt beam="1">  1       -4 0.53507344E-01 0.12499924E+03</pdfrwt>
<totfact> 0.68743698E+03</totfact>
</mgrwt>
</event>
<event>
 5    1  0.3311405E-002  0.1249991E+03  0.7818608E-02  0.1235071E+00
         -4   -1    0    0    0  501 -0.00000000000E+00  0.00000000000E+00  0.14548288215E+03  0.14548842531E+03  0.12700000000E+01 0.  1.
          4   -1    0    0  501    0  0.00000000000E+00 -0.00000000000E+00 -0.26828793876E+02  0.26858836178E+02  0.12700000000E+01 0.  1.
         25    2    1    2    0    0  0.00000000000E+00  0.00000000000E+00  0.11865408827E+03  0.17234726148E+03  0.12499914351E+03 0.  0.
    9000005    1    3    3    0    0  0.41951655533E+02 -0.24553772870E+02  0.51779425881E+01  0.48894174024E+02  0.10000000000E+01 0.  0.
    9000005    1    3    3    0    0 -0.41951655533E+02  0.24553772870E+02  0.11347614568E+03  0.12345308746E+03  0.10000000000E+01 0.  0.
<mgrwt>
<rscale>  0 0.12499914E+03</rscale>
<asrwt>0</asrwt>
<pdfrwt beam="2">  1        4 0.41302440E-02 0.12499914E+03</pdfrwt>
<pdfrwt beam="1">  1       -4 0.22384719E-01 0.12499914E+03</pdfrwt>
<totfact> 0.95014767E+03</totfact>
</mgrwt>
</event>
<event>
 5    1  0.3311405E-002  0.1250037E+03  0.7818608E-02  0.1235063E+00
          4   -1    0    0  501    0  0.00000000000E+00  0.00000000000E+00  0.86591330345E+01  0.87517703871E+01  0.12700000000E+01 0.  1.
         -4   -1    0    0    0  501 -0.00000000000E+00 -0.00000000000E+00 -0.44864610532E+03  0.44864790283E+03  0.12700000000E+01 0.  1.
         25    2    1    2    0    0  0.00000000000E+00  0.00000000000E+00 -0.43998697228E+03  0.45739967322E+03  0.12500370108E+03 0.  0.
    9000005    1    3    3    0    0 -0.38300960436E+02  0.11014894379E+02 -0.39613178081E+03  0.39813274072E+03  0.10000000000E+01 0.  0.
    9000005    1    3    3    0    0  0.38300960436E+02 -0.11014894379E+02 -0.43855191475E+02  0.59266932499E+02  0.10000000000E+01 0.  0.
<mgrwt>
<rscale>  0 0.12500370E+03</rscale>
<asrwt>0</asrwt>
<pdfrwt beam="1">  1        4 0.13394389E-02 0.12500370E+03</pdfrwt>
<pdfrwt beam="2">  1       -4 0.69029724E-01 0.12500370E+03</pdfrwt>
<totfact> 0.59323253E+03</totfact>
</mgrwt>
</event>
<event>
 5    1  0.3311405E-002  0.1249943E+03  0.7818608E-02  0.1235078E+00
         -4   -1    0    0    0  501 -0.00000000000E+00  0.00000000000E+00  0.59733398730E+02  0.59746898027E+02  0.12700000000E+01 0. -1.
          4   -1    0    0  501    0  0.00000000000E+00 -0.00000000000E+00 -0.65361766538E+02  0.65374103626E+02  0.12700000000E+01 0. -1.
         25    2    1    2    0    0  0.00000000000E+00  0.00000000000E+00 -0.56283678079E+01  0.12512100165E+03  0.12499434599E+03 0.  0.
    9000005    1    3    3    0    0  0.40079033563E+02  0.96871385158E+01  0.44187915762E+02  0.60446186673E+02  0.10000000000E+01 0.  0.
    9000005    1    3    3    0    0 -0.40079033563E+02 -0.96871385158E+01 -0.49816283570E+02  0.64674814980E+02  0.10000000000E+01 0.  0.
<mgrwt>
<rscale>  0 0.12499435E+03</rscale>
<asrwt>0</asrwt>
<pdfrwt beam="2">  1        4 0.10057644E-01 0.12499435E+03</pdfrwt>
<pdfrwt beam="1">  1       -4 0.91917410E-02 0.12499435E+03</pdfrwt>
<totfact> 0.10451571E+04</totfact>
</mgrwt>
</event>
<event>
 5    1  0.3311405E-002  0.1250016E+03  0.7818608E-02  0.1235067E+00
          4   -1    0    0  501    0  0.00000000000E+00  0.00000000000E+00  0.20913578209E+03  0.20913963816E+03  0.12700000000E+01 0. -1.
         -4   -1    0    0    0  501 -0.00000000000E+00 -0.00000000000E+00 -0.18652925814E+02  0.18696110329E+02  0.12700000000E+01 0. -1.
         25    2    1    2    0    0  0.00000000000E+00  0.00000000000E+00  0.19048285628E+03  0.22783574849E+03  0.12500163901E+03 0.  0.
    9000005    1    3    3    0    0 -0.10744052107E+02  0.61137549264E+02  0.82083139165E+02  0.10291684177E+03  0.10000000000E+01 0.  0.
    9000005    1    3    3    0    0  0.10744052107E+02 -0.61137549264E+02  0.10839971711E+03  0.12491890672E+03  0.10000000000E+01 0.  0.
<mgrwt>
<rscale>  0 0.12500164E+03</rscale>
<asrwt>0</asrwt>
<pdfrwt beam="1">  1        4 0.32178354E-01 0.12500164E+03</pdfrwt>
<pdfrwt beam="2">  1       -4 0.28732994E-02 0.12500164E+03</pdfrwt>
<totfact> 0.85639898E+03</totfact>
</mgrwt>
</event>
<event>
 5    1  0.3311405E-002  0.1250006E+03  0.7818608E-02  0.1235068E+00
         -4   -1    0    0    0  501 -0.00000000000E+00  0.00000000000E+00  0.33939867210E+03  0.33940104820E+03  0.12700000000E+01 0. -1.
          4   -1    0    0  501    0  0.00000000000E+00 -0.00000000000E+00 -0.11471975943E+02  0.11542059263E+02  0.12700000000E+01 0. -1.
         25    2    1    2    0    0  0.00000000000E+00  0.00000000000E+00  0.32792669616E+03  0.35094310747E+03  0.12500058651E+03 0.  0.
    9000005    1    3    3    0    0 -0.25130700402E+02 -0.32161074926E+02  0.29682219699E+03  0.29961692788E+03  0.10000000000E+01 0.  0.
    9000005    1    3    3    0    0  0.25130700402E+02  0.32161074926E+02  0.31104499163E+02  0.51326179590E+02  0.10000000000E+01 0.  0.
<mgrwt>
<rscale>  0 0.12500059E+03</rscale>
<asrwt>0</asrwt>
<pdfrwt beam="2">  1        4 0.17704932E-02 0.12500059E+03</pdfrwt>
<pdfrwt beam="1">  1       -4 0.52220753E-01 0.12500059E+03</pdfrwt>
<totfact> 0.69620022E+03</totfact>
</mgrwt>
</event>
<event>
 5    1  0.3311405E-002  0.1249982E+03  0.7818608E-02  0.1235072E+00
          4   -1    0    0  501    0  0.00000000000E+00  0.00000000000E+00  0.79901400085E+01  0.80904411101E+01  0.12700000000E+01 0. -1.
         -4   -1    0    0    0  501 -0.00000000000E+00 -0.00000000000E+00 -0.48571902061E+03  0.48572068092E+03  0.12700000000E+01 0. -1.
         25    2    1    2    0    0  0.00000000000E+00  0.00000000000E+00 -0.47772888060E+03  0.49381112203E+03  0.12499816354E+03 0.  0.
    9000005    1    3    3    0    0 -0.18131161294E+02  0.55236389925E+02 -0.32941192938E+03  0.33450413600E+03  0.10000000000E+01 0.  0.
    9000005    1    3    3    0    0  0.18131161294E+02 -0.55236389925E+02 -0.14831695121E+03  0.15930698603E+03  0.10000000000E+01 0.  0.
<mgrwt>
<rscale>  0 0.12499816E+03</rscale>
<asrwt>0</asrwt>
<pdfrwt beam="1">  1        4 0.12370959E-02 0.12499816E+03</pdfrwt>
<pdfrwt beam="2">  1       -4 0.74733823E-01 0.12499816E+03</pdfrwt>
<totfact> 0.56350051E+03</totfact>
</mgrwt>
</event>
<event>
 5    1  0.3311405E-002  0.1249564E+03  0.7818608E-02  0.1235137E+00
         -4   -1    0    0    0  501 -0.00000000000E+00  0.00000000000E+00  0.30681243409E+01  0.33205853357E+01  0.12700000000E+01 0.  1.
          4   -1    0    0  501    0  0.00000000000E+00 -0.00000000000E+00 -0.12217549127E+04  0.12217555727E+04  0.12700000000E+01 0.  1.
         25    2    1    2    0    0  0.00000000000E+00  0.00000000000E+00 -0.12186867883E+04  0.12250761581E+04  0.12495641260E+03 0.  0.
    9000005    1    3    3    0    0 -0.34905670596E+02 -0.23477302601E+02 -0.10621299480E+04  0.10629631302E+04  0.10000000000E+01 0.  0.
    9000005    1    3    3    0    0  0.34905670596E+02  0.23477302601E+02 -0.15655684030E+03  0.16211302792E+03  0.10000000000E+01 0.  0.
<mgrwt>
<rscale>  0 0.12495641E+03</rscale>
<asrwt>0</asrwt>
<pdfrwt beam="2">  1        4 0.18798139E+00 0.12495641E+03</pdfrwt>
<pdfrwt beam="1">  1       -4 0.49149096E-03 0.12495641E+03</pdfrwt>
<totfact> 0.24088625E+03</totfact>
</mgrwt>
</event>
<event>
 5    1  0.3311405E-002  0.1250016E+03  0.7818608E-02  0.1235067E+00
         -4   -1    0    0    0  501 -0.00000000000E+00  0.00000000000E+00  0.17318303805E+03  0.17318769462E+03  0.12700000000E+01 0.  1.
          4   -1    0    0  501    0  0.00000000000E+00 -0.00000000000E+00 -0.22533366691E+02  0.22569127462E+02  0.12700000000E+01 0.  1.
         25    2    1    2    0    0  0.00000000000E+00  0.00000000000E+00  0.15064967136E+03  0.19575682208E+03  0.12500163964E+03 0.  0.
    9000005    1    3    3    0    0  0.53551233705E+02 -0.29175433799E+02  0.53943342855E+02  0.81423736140E+02  0.10000000000E+01 0.  0.
    9000005    1    3    3    0    0 -0.53551233705E+02  0.29175433799E+02  0.96706328503E+02  0.11433308594E+03  0.10000000000E+01 0.  0.
<mgrwt>
<rscale>  0 0.12500164E+03</rscale>
<asrwt>0</asrwt>
<pdfrwt beam="2">  1        4 0.34697810E-02 0.12500164E+03</pdfrwt>
<pdfrwt beam="1">  1       -4 0.26646652E-01 0.12500164E+03</pdfrwt>
<totfact> 0.90851848E+03</totfact>
</mgrwt>
</event>
<event>
 5    1  0.3311405E-002  0.1249999E+03  0.7818608E-02  0.1235069E+00
          4   -1    0    0  501    0  0.00000000000E+00  0.00000000000E+00  0.44288876057E+02  0.44307081177E+02  0.12700000000E+01 0.  1.
         -4   -1    0    0    0  501 -0.00000000000E+00 -0.00000000000E+00 -0.88158284807E+02  0.88167432083E+02  0.12700000000E+01 0.  1.
         25    2    1    2    0    0  0.00000000000E+00  0.00000000000E+00 -0.43869408749E+02  0.13247451326E+03  0.12499988656E+03 0.  0.
    9000005    1    3    3    0    0  0.30050770942E+02  0.32266026341E+02 -0.68867056442E+02  0.81779072831E+02  0.10000000000E+01 0.  0.
    9000005    1    3    3    0    0 -0.30050770942E+02 -0.32266026341E+02  0.24997647693E+02  0.50695440428E+02  0.10000000000E+01 0.  0.
<mgrwt>
<rscale>  0 0.12499989E+03</rscale>
<asrwt>0</asrwt>
<pdfrwt beam="1">  1        4 0.68157773E-02 0.12499989E+03</pdfrwt>
<pdfrwt beam="2">  1       -4 0.13564917E-01 0.12499989E+03</pdfrwt>
<totfact> 0.10291607E+04</totfact>
</mgrwt>
</event>
<event>
 5    1  0.3311405E-002  0.1249951E+03  0.7818608E-02  0.1235077E+00
         -4   -1    0    0    0  501 -0.00000000000E+00  0.00000000000E+00  0.49365568394E+03  0.49365731756E+03  0.12700000000E+01 0.  1.
          4   -1    0    0  501    0  0.00000000000E+00 -0.00000000000E+00 -0.78596699077E+01  0.79616148524E+01  0.12700000000E+01 0.  1.
         25    2    1    2    0    0  0.00000000000E+00  0.00000000000E+00  0.48579601403E+03  0.50161893242E+03  0.12499514435E+03 0.  0.
    9000005    1    3    3    0    0  0.53930960720E+02  0.17943035165E+02  0.34711875971E+03  0.35174271049E+03  0.10000000000E+01 0.  0.
    9000005    1    3    3    0    0 -0.53930960720E+02 -0.17943035165E+02  0.13867725432E+03  0.14987622193E+03  0.10000000000E+01 0.  0.
<mgrwt>
<rscale>  0 0.12499514E+03</rscale>
<asrwt>0</asrwt>
<pdfrwt beam="2">  1        4 0.12171473E-02 0.12499514E+03</pdfrwt>
<pdfrwt beam="1">  1       -4 0.75955014E-01 0.12499514E+03</pdfrwt>
<totfact> 0.55744916E+03</totfact>
</mgrwt>
</event>
<event>
 5    1  0.3311405E-002  0.1249494E+03  0.7818608E-02  0.1235148E+00
          4   -1    0    0  501    0  0.00000000000E+00  0.00000000000E+00  0.81373695524E+02  0.81383605371E+02  0.12700000000E+01 0. -1.
         -4   -1    0    0    0  501 -0.00000000000E+00 -0.00000000000E+00 -0.47943732663E+02  0.47960550473E+02  0.12700000000E+01 0. -1.
         25    2    1    2    0    0  0.00000000000E+00  0.00000000000E+00  0.33429962860E+02  0.12934415584E+03  0.12494938269E+03 0.  0.
    9000005    1    3    3    0    0  0.22371693989E+02  0.67077952705E+01  0.76688907684E+02  0.80172786974E+02  0.10000000000E+01 0.  0.
    9000005    1    3    3    0    0 -0.22371693989E+02 -0.67077952705E+01 -0.43258944824E+02  0.49171368871E+02  0.10000000000E+01 0.  0.
<mgrwt>
<rscale>  0 0.12494938E+03</rscale>
<asrwt>0</asrwt>
<pdfrwt beam="1">  1        4 0.12521086E-01 0.12494938E+03</pdfrwt>
<pdfrwt beam="2">  1       -4 0.73780148E-02 0.12494938E+03</pdfrwt>
<totfact> 0.10370402E+04</totfact>
</mgrwt>
</event>
<event>
 5    1  0.3311405E-002  0.1249982E+03  0.7818608E-02  0.1235072E+00
          4   -1    0    0  501    0  0.00000000000E+00  0.00000000000E+00  0.12043694820E+03  0.12044364404E+03  0.12700000000E+01 0. -1.
         -4   -1    0    0    0  501 -0.00000000000E+00 -0.00000000000E+00 -0.32413011864E+02  0.32437882763E+02  0.12700000000E+01 0. -1.
         25    2    1    2    0    0  0.00000000000E+00  0.00000000000E+00  0.88023936331E+02  0.15288152681E+03  0.12499819147E+03 0.  0.
    9000005    1    3    3    0    0  0.22234393746E+02 -0.45801225546E+02  0.88330601953E+02  0.10195791175E+03  0.10000000000E+01 0.  0.
    9000005    1    3    3    0    0 -0.22234393746E+02  0.45801225546E+02 -0.30666562216E+00  0.50923615058E+02  0.10000000000E+01 0.  0.
<mgrwt>
<rscale>  0 0.12499819E+03</rscale>
<asrwt>0</asrwt>
<pdfrwt beam="1">  1        4 0.18531190E-01 0.12499819E+03</pdfrwt>
<pdfrwt beam="2">  1       -4 0.49890454E-02 0.12499819E+03</pdfrwt>
<totfact> 0.98736397E+03</totfact>
</mgrwt>
</event>
<event>
 5    1  0.3311405E-002  0.1249973E+03  0.7818608E-02  0.1235073E+00
          4   -1    0    0  501    0  0.00000000000E+00  0.00000000000E+00  0.52110306898E+03  0.52110461656E+03  0.12700000000E+01 0. -1.
         -4   -1    0    0    0  501 -0.00000000000E+00 -0.00000000000E+00 -0.74404359564E+01  0.75480452583E+01  0.12700000000E+01 0. -1.
         25    2    1    2    0    0  0.00000000000E+00  0.00000000000E+00  0.51366263302E+03  0.52865266181E+03  0.12499734510E+03 0.  0.
    9000005    1    3    3    0    0 -0.12422050208E+02  0.57627077519E+02  0.16914099185E+03  0.17912247910E+03  0.10000000000E+01 0.  0.
    9000005    1    3    3    0    0  0.12422050208E+02 -0.57627077519E+02  0.34452164117E+03  0.34953018272E+03  0.10000000000E+01 0.  0.
<mgrwt>
<rscale>  0 0.12499735E+03</rscale>
<asrwt>0</asrwt>
<pdfrwt beam="1">  1        4 0.80178097E-01 0.12499735E+03</pdfrwt>
<pdfrwt beam="2">  1       -4 0.11530792E-02 0.12499735E+03</pdfrwt>
<totfact> 0.53710976E+03</totfact>
</mgrwt>
</event>
<event>
 5    1  0.3311405E-002  0.1249914E+03  0.7818608E-02  0.1235083E+00
          4   -1    0    0  501    0  0.00000000000E+00  0.00000000000E+00  0.35858163437E+02  0.35880646386E+02  0.12700000000E+01 0. -1.
         -4   -1    0    0    0  501 -0.00000000000E+00 -0.00000000000E+00 -0.10886077172E+03  0.10886817955E+03  0.12700000000E+01 0. -1.
         25    2    1    2    0    0  0.00000000000E+00  0.00000000000E+00 -0.73002608282E+02  0.14474882594E+03  0.12499136688E+03 0.  0.
    9000005    1    3    3    0    0 -0.46847756323E+02 -0.12307900765E+02 -0.82219633519E+02  0.95431990599E+02  0.10000000000E+01 0.  0.
    9000005    1    3    3    0    0  0.46847756323E+02  0.12307900765E+02  0.92170252363E+01  0.49316835340E+02  0.10000000000E+01 0.  0.
<mgrwt>
<rscale>  0 0.12499137E+03</rscale>
<asrwt>0</asrwt>
<pdfrwt beam="1">  1        4 0.55189399E-02 0.12499137E+03</pdfrwt>
<pdfrwt beam="2">  1       -4 0.16750110E-01 0.12499137E+03</pdfrwt>
<totfact> 0.10038046E+04</totfact>
</mgrwt>
</event>
<event>
 5    1  0.3311405E-002  0.1249985E+03  0.7818608E-02  0.1235072E+00
          4   -1    0    0  501    0  0.00000000000E+00  0.00000000000E+00  0.87969474916E+02  0.87978641823E+02  0.12700000000E+01 0.  1.
         -4   -1    0    0    0  501 -0.00000000000E+00 -0.00000000000E+00 -0.44383011600E+02  0.44401178123E+02  0.12700000000E+01 0.  1.
         25    2    1    2    0    0  0.00000000000E+00  0.00000000000E+00  0.43586463316E+02  0.13237981995E+03  0.12499854777E+03 0.  0.
    9000005    1    3    3    0    0  0.29486562148E+02 -0.53993672037E+02  0.10173302188E+02  0.62364012417E+02  0.10000000000E+01 0.  0.
    9000005    1    3    3    0    0 -0.29486562148E+02  0.53993672037E+02  0.33413161128E+02  0.70015807529E+02  0.10000000000E+01 0.  0.
<mgrwt>
<rscale>  0 0.12499855E+03</rscale>
<asrwt>0</asrwt>
<pdfrwt beam="1">  1        4 0.13535868E-01 0.12499855E+03</pdfrwt>
<pdfrwt beam="2">  1       -4 0.68302583E-02 0.12499855E+03</pdfrwt>
<totfact> 0.10293935E+04</totfact>
</mgrwt>
</event>
<event>
 5    1  0.3311405E-002  0.1250000E+03  0.7818608E-02  0.1235069E+00
          4   -1    0    0  501    0  0.00000000000E+00  0.00000000000E+00  0.40288755953E+01  0.42243033227E+01  0.12700000000E+01 0.  1.
         -4   -1    0    0    0  501 -0.00000000000E+00 -0.00000000000E+00 -0.94640952445E+03  0.94641037657E+03  0.12700000000E+01 0.  1.
         25    2    1    2    0    0  0.00000000000E+00  0.00000000000E+00 -0.94238064886E+03  0.95063467989E+03  0.12500002908E+03 0.  0.
    9000005    1    3    3    0    0 -0.40965689118E+02 -0.46978406036E+02 -0.50528066354E+03  0.50911168447E+03  0.10000000000E+01 0.  0.
    9000005    1    3    3    0    0  0.40965689118E+02  0.46978406036E+02 -0.43709998532E+03  0.44152299542E+03  0.10000000000E+01 0.  0.
<mgrwt>
<rscale>  0 0.12500003E+03</rscale>
<asrwt>0</asrwt>
<pdfrwt beam="1">  1        4 0.63492622E-03 0.12500003E+03</pdfrwt>
<pdfrwt beam="2">  1       -4 0.14561639E+00 0.12500003E+03</pdfrwt>
<totfact> 0.32293465E+03</totfact>
</mgrwt>
</event>
<event>
 5    1  0.3311405E-002  0.1250003E+03  0.7818608E-02  0.1235069E+00
          4   -1    0    0  501    0  0.00000000000E+00  0.00000000000E+00  0.16604471966E+02  0.16652969383E+02  0.12700000000E+01 0. -1.
         -4   -1    0    0    0  501 -0.00000000000E+00 -0.00000000000E+00 -0.23486057013E+03  0.23486400384E+03  0.12700000000E+01 0. -1.
         25    2    1    2    0    0  0.00000000000E+00  0.00000000000E+00 -0.21825609816E+03  0.25151697323E+03  0.12500025374E+03 0.  0.
    9000005    1    3    3    0    0 -0.20509609056E+02 -0.58691876408E+02 -0.12183565072E+03  0.13678562134E+03  0.10000000000E+01 0.  0.
    9000005    1    3    3    0    0  0.20509609056E+02  0.58691876408E+02 -0.96420447449E+02  0.11473135189E+03  0.10000000000E+01 0.  0.
<mgrwt>
<rscale>  0 0.12500025E+03</rscale>
<asrwt>0</asrwt>
<pdfrwt beam="1">  1        4 0.25585290E-02 0.12500025E+03</pdfrwt>
<pdfrwt beam="2">  1       -4 0.36136388E-01 0.12500025E+03</pdfrwt>
<totfact> 0.82111008E+03</totfact>
</mgrwt>
</event>
<event>
 5    1  0.3311405E-002  0.1249998E+03  0.7818608E-02  0.1235070E+00
          4   -1    0    0  501    0  0.00000000000E+00  0.00000000000E+00  0.16031147738E+02  0.16081374251E+02  0.12700000000E+01 0. -1.
         -4   -1    0    0    0  501 -0.00000000000E+00 -0.00000000000E+00 -0.24323236559E+03  0.24323568112E+03  0.12700000000E+01 0. -1.
         25    2    1    2    0    0  0.00000000000E+00  0.00000000000E+00 -0.22720121785E+03  0.25931705537E+03  0.12499976725E+03 0.  0.
    9000005    1    3    3    0    0 -0.32551588009E+02  0.18458537094E+02 -0.21742947520E+03  0.22062842102E+03  0.10000000000E+01 0.  0.
    9000005    1    3    3    0    0  0.32551588009E+02 -0.18458537094E+02 -0.97717426449E+01  0.38688634350E+02  0.10000000000E+01 0.  0.
<mgrwt>
<rscale>  0 0.12499977E+03</rscale>
<asrwt>0</asrwt>
<pdfrwt beam="1">  1        4 0.24704492E-02 0.12499977E+03</pdfrwt>
<pdfrwt beam="2">  1       -4 0.37424480E-01 0.12499977E+03</pdfrwt>
<totfact> 0.81002419E+03</totfact>
</mgrwt>
</event>
<event>
 5    1  0.3311405E-002  0.1250030E+03  0.7818608E-02  0.1235065E+00
          4   -1    0    0  501    0  0.00000000000E+00  0.00000000000E+00  0.76711707989E+01  0.77755875293E+01  0.12700000000E+01 0.  1.
         -4   -1    0    0    0  501 -0.00000000000E+00 -0.00000000000E+00 -0.50568829427E+03  0.50568988902E+03  0.12700000000E+01 0.  1.
         25    2    1    2    0    0  0.00000000000E+00  0.00000000000E+00 -0.49801712347E+03  0.51346547655E+03  0.12500296133E+03 0.  0.
    9000005    1    3    3    0    0  0.20053629447E+02  0.39106208426E+02 -0.43150886290E+03  0.43374225337E+03  0.10000000000E+01 0.  0.
    9000005    1    3    3    0    0 -0.20053629447E+02 -0.39106208426E+02 -0.66508260563E+02  0.79723223182E+02  0.10000000000E+01 0.  0.
<mgrwt>
<rscale>  0 0.12500296E+03</rscale>
<asrwt>0</asrwt>
<pdfrwt beam="1">  1        4 0.11883352E-02 0.12500296E+03</pdfrwt>
<pdfrwt beam="2">  1       -4 0.77806328E-01 0.12500296E+03</pdfrwt>
<totfact> 0.54830983E+03</totfact>
</mgrwt>
</event>
<event>
 5    1  0.3311405E-002  0.1250006E+03  0.7818608E-02  0.1235068E+00
          4   -1    0    0  501    0  0.00000000000E+00  0.00000000000E+00  0.23284726650E+01  0.26522980511E+01  0.12700000000E+01 0.  1.
         -4   -1    0    0    0  501 -0.00000000000E+00 -0.00000000000E+00 -0.15682239197E+04  0.15682244339E+04  0.12700000000E+01 0.  1.
         25    2    1    2    0    0  0.00000000000E+00  0.00000000000E+00 -0.15658954470E+04  0.15708767320E+04  0.12500062431E+03 0.  0.
    9000005    1    3    3    0    0  0.59873893719E+02 -0.14509180610E+02 -0.91468482981E+03  0.91675773100E+03  0.10000000000E+01 0.  0.
    9000005    1    3    3    0    0 -0.59873893719E+02  0.14509180610E+02 -0.65121061721E+03  0.65411900098E+03  0.10000000000E+01 0.  0.
<mgrwt>
<rscale>  0 0.12500062E+03</rscale>
<asrwt>0</asrwt>
<pdfrwt beam="1">  1        4 0.38317702E-03 0.12500062E+03</pdfrwt>
<pdfrwt beam="2">  1       -4 0.24128938E+00 0.12500062E+03</pdfrwt>
<totfact> 0.16578368E+03</totfact>
</mgrwt>
</event>
<event>
 5    1  0.3311405E-002  0.1249672E+03  0.7818608E-02  0.1235121E+00
         -4   -1    0    0    0  501 -0.00000000000E+00  0.00000000000E+00  0.10798572008E+02  0.10872996708E+02  0.12700000000E+01 0. -1.
          4   -1    0    0  501    0  0.00000000000E+00 -0.00000000000E+00 -0.36023058058E+03  0.36023281928E+03  0.12700000000E+01 0. -1.
         25    2    1    2    0    0  0.00000000000E+00  0.00000000000E+00 -0.34943200857E+03  0.37110581599E+03  0.12496718787E+03 0.  0.
    9000005    1    3    3    0    0  0.58276292587E+02  0.17617403909E+02 -0.13306703206E+03  0.14633637354E+03  0.10000000000E+01 0.  0.
    9000005    1    3    3    0    0 -0.58276292587E+02 -0.17617403909E+02 -0.21636497651E+03  0.22476944245E+03  0.10000000000E+01 0.  0.
<mgrwt>
<rscale>  0 0.12496719E+03</rscale>
<asrwt>0</asrwt>
<pdfrwt beam="2">  1        4 0.55425977E-01 0.12496719E+03</pdfrwt>
<pdfrwt beam="1">  1       -4 0.16672162E-02 0.12496719E+03</pdfrwt>
<totfact> 0.67512370E+03</totfact>
</mgrwt>
</event>
<event>
 5    1  0.3311405E-002  0.1250224E+03  0.7818608E-02  0.1235034E+00
         -4   -1    0    0    0  501 -0.00000000000E+00  0.00000000000E+00  0.18922610208E+02  0.18965180650E+02  0.12700000000E+01 0. -1.
          4   -1    0    0  501    0  0.00000000000E+00 -0.00000000000E+00 -0.20623026320E+03  0.20623417360E+03  0.12700000000E+01 0. -1.
         25    2    1    2    0    0  0.00000000000E+00  0.00000000000E+00 -0.18730765299E+03  0.22519935425E+03  0.12502236714E+03 0.  0.
    9000005    1    3    3    0    0  0.22403629157E+02 -0.45634354575E+02 -0.15915259225E+03  0.16707772005E+03  0.10000000000E+01 0.  0.
    9000005    1    3    3    0    0 -0.22403629157E+02  0.45634354575E+02 -0.28155060746E+02  0.58121634204E+02  0.10000000000E+01 0.  0.
<mgrwt>
<rscale>  0 0.12502237E+03</rscale>
<asrwt>0</asrwt>
<pdfrwt beam="2">  1        4 0.31731307E-01 0.12502237E+03</pdfrwt>
<pdfrwt beam="1">  1       -4 0.29147464E-02 0.12502237E+03</pdfrwt>
<totfact> 0.86009287E+03</totfact>
</mgrwt>
</event>
<event>
 5    1  0.3311405E-002  0.1250004E+03  0.7818608E-02  0.1235069E+00
          4   -1    0    0  501    0  0.00000000000E+00  0.00000000000E+00  0.40627457327E+02  0.40647302357E+02  0.12700000000E+01 0.  1.
         -4   -1    0    0    0  501 -0.00000000000E+00 -0.00000000000E+00 -0.96101093039E+02  0.96109484356E+02  0.12700000000E+01 0.  1.
         25    2    1    2    0    0  0.00000000000E+00  0.00000000000E+00 -0.55473635711E+02  0.13675678671E+03  0.12500037781E+03 0.  0.
    9000005    1    3    3    0    0  0.41435850947E+02 -0.19196383172E+01  0.23399491107E+02  0.47635605790E+02  0.10000000000E+01 0.  0.
    9000005    1    3    3    0    0 -0.41435850947E+02  0.19196383172E+01 -0.78873126818E+02  0.89121180922E+02  0.10000000000E+01 0.  0.
<mgrwt>
<rscale>  0 0.12500038E+03</rscale>
<asrwt>0</asrwt>
<pdfrwt beam="1">  1        4 0.62525501E-02 0.12500038E+03</pdfrwt>
<pdfrwt beam="2">  1       -4 0.14786956E-01 0.12500038E+03</pdfrwt>
<totfact> 0.10201087E+04</totfact>
</mgrwt>
</event>
<event>
 5    1  0.3311405E-002  0.1250011E+03  0.7818608E-02  0.1235068E+00
          4   -1    0    0  501    0  0.00000000000E+00  0.00000000000E+00  0.63275005057E+01  0.64536937214E+01  0.12700000000E+01 0. -1.
         -4   -1    0    0    0  501 -0.00000000000E+00 -0.00000000000E+00 -0.61113352663E+03  0.61113484623E+03  0.12700000000E+01 0. -1.
         25    2    1    2    0    0  0.00000000000E+00  0.00000000000E+00 -0.60480602613E+03  0.61758853995E+03  0.12500110175E+03 0.  0.
    9000005    1    3    3    0    0 -0.52345457813E+01 -0.57678373598E+02 -0.41839016797E+03  0.42238078543E+03  0.10000000000E+01 0.  0.
    9000005    1    3    3    0    0  0.52345457813E+01  0.57678373598E+02 -0.18641585816E+03  0.19520775452E+03  0.10000000000E+01 0.  0.
<mgrwt>
<rscale>  0 0.12500110E+03</rscale>
<asrwt>0</asrwt>
<pdfrwt beam="1">  1        4 0.98327078E-03 0.12500110E+03</pdfrwt>
<pdfrwt beam="2">  1       -4 0.94030305E-01 0.12500110E+03</pdfrwt>
<totfact> 0.47774729E+03</totfact>
</mgrwt>
</event>
<event>
 5    1  0.3311405E-002  0.1250007E+03  0.7818608E-02  0.1235068E+00
          4   -1    0    0  501    0  0.00000000000E+00  0.00000000000E+00  0.14421269463E+03  0.14421828661E+03  0.12700000000E+01 0.  1.
         -4   -1    0    0    0  501 -0.00000000000E+00 -0.00000000000E+00 -0.27066010550E+02  0.27095789840E+02  0.12700000000E+01 0.  1.
         25    2    1    2    0    0  0.00000000000E+00  0.00000000000E+00  0.11714668408E+03  0.17131407645E+03  0.12500066879E+03 0.  0.
    9000005    1    3    3    0    0  0.59200543362E+02 -0.19714991381E+02  0.53844288483E+02  0.82423252919E+02  0.10000000000E+01 0.  0.
    9000005    1    3    3    0    0 -0.59200543362E+02  0.19714991381E+02  0.63302395598E+02  0.88890823531E+02  0.10000000000E+01 0.  0.
<mgrwt>
<rscale>  0 0.12500067E+03</rscale>
<asrwt>0</asrwt>
<pdfrwt beam="1">  1        4 0.22189290E-01 0.12500067E+03</pdfrwt>
<pdfrwt beam="2">  1       -4 0.41667224E-02 0.12500067E+03</pdfrwt>
<totfact> 0.95202847E+03</totfact>
</mgrwt>
</event>
<event>
 5    1  0.3311405E-002  0.1250036E+03  0.7818608E-02  0.1235064E+00
          4   -1    0    0  501    0  0.00000000000E+00  0.00000000000E+00  0.38480998801E+03  0.38481208371E+03  0.12700000000E+01 0. -1.
         -4   -1    0    0    0  501 -0.00000000000E+00 -0.00000000000E+00 -0.10109852304E+02  0.10189308789E+02  0.12700000000E+01 0. -1.
         25    2    1    2    0    0  0.00000000000E+00  0.00000000000E+00  0.37470013570E+03  0.39500139250E+03  0.12500363347E+03 0.  0.
    9000005    1    3    3    0    0 -0.49517634626E+02  0.17910848347E+02  0.29369825203E+03  0.29838307236E+03  0.10000000000E+01 0.  0.
    9000005    1    3    3    0    0  0.49517634626E+02 -0.17910848347E+02  0.81001883675E+02  0.96618320139E+02  0.10000000000E+01 0.  0.
<mgrwt>
<rscale>  0 0.12500363E+03</rscale>
<asrwt>0</asrwt>
<pdfrwt beam="1">  1        4 0.59207817E-01 0.12500363E+03</pdfrwt>
<pdfrwt beam="2">  1       -4 0.15616350E-02 0.12500363E+03</pdfrwt>
<totfact> 0.65036644E+03</totfact>
</mgrwt>
</event>
<event>
 5    1  0.3311405E-002  0.1250042E+03  0.7818608E-02  0.1235063E+00
         -4   -1    0    0    0  501 -0.00000000000E+00  0.00000000000E+00  0.11722557889E+02  0.11791151914E+02  0.12700000000E+01 0.  1.
          4   -1    0    0  501    0  0.00000000000E+00 -0.00000000000E+00 -0.33220533510E+03  0.33220776266E+03  0.12700000000E+01 0.  1.
         25    2    1    2    0    0  0.00000000000E+00  0.00000000000E+00 -0.32048277721E+03  0.34399891457E+03  0.12500417088E+03 0.  0.
    9000005    1    3    3    0    0  0.61522222310E+02 -0.39121381582E+00 -0.13004892509E+03  0.14387098319E+03  0.10000000000E+01 0.  0.
    9000005    1    3    3    0    0 -0.61522222310E+02  0.39121381582E+00 -0.19043385212E+03  0.20012793138E+03  0.10000000000E+01 0.  0.
<mgrwt>
<rscale>  0 0.12500417E+03</rscale>
<asrwt>0</asrwt>
<pdfrwt beam="2">  1        4 0.51113969E-01 0.12500417E+03</pdfrwt>
<pdfrwt beam="1">  1       -4 0.18089339E-02 0.12500417E+03</pdfrwt>
<totfact> 0.70383338E+03</totfact>
</mgrwt>
</event>
<event>
 5    1  0.3311405E-002  0.1249959E+03  0.7818608E-02  0.1235076E+00
          4   -1    0    0  501    0  0.00000000000E+00  0.00000000000E+00  0.14826069878E+02  0.14880364513E+02  0.12700000000E+01 0.  1.
         -4   -1    0    0    0  501 -0.00000000000E+00 -0.00000000000E+00 -0.26291699408E+03  0.26292006138E+03  0.12700000000E+01 0.  1.
         25    2    1    2    0    0  0.00000000000E+00  0.00000000000E+00 -0.24809092420E+03  0.27780042589E+03  0.12499587975E+03 0.  0.
    9000005    1    3    3    0    0  0.79571610665E+01  0.32330119618E+02 -0.65178481657E+01  0.33941646858E+02  0.10000000000E+01 0.  0.
    9000005    1    3    3    0    0 -0.79571610665E+01 -0.32330119618E+02 -0.24157307604E+03  0.24385877904E+03  0.10000000000E+01 0.  0.
<mgrwt>
<rscale>  0 0.12499588E+03</rscale>
<asrwt>0</asrwt>
<pdfrwt beam="1">  1        4 0.22853465E-02 0.12499588E+03</pdfrwt>
<pdfrwt beam="2">  1       -4 0.40453177E-01 0.12499588E+03</pdfrwt>
<totfact> 0.78477849E+03</totfact>
</mgrwt>
</event>
<event>
 5    1  0.3311405E-002  0.1249987E+03  0.7818608E-02  0.1235071E+00
          4   -1    0    0  501    0  0.00000000000E+00  0.00000000000E+00  0.31691447592E+02  0.31716884312E+02  0.12700000000E+01 0.  1.
         -4   -1    0    0    0  501 -0.00000000000E+00 -0.00000000000E+00 -0.12317817555E+03  0.12318472240E+03  0.12700000000E+01 0.  1.
         25    2    1    2    0    0  0.00000000000E+00  0.00000000000E+00 -0.91486727963E+02  0.15490160671E+03  0.12499874547E+03 0.  0.
    9000005    1    3    3    0    0  0.33421716637E+02 -0.20589290998E+02 -0.10599879405E+03  0.11303837572E+03  0.10000000000E+01 0.  0.
    9000005    1    3    3    0    0 -0.33421716637E+02  0.20589290998E+02  0.14512066086E+02  0.41863230989E+02  0.10000000000E+01 0.  0.
<mgrwt>
<rscale>  0 0.12499875E+03</rscale>
<asrwt>0</asrwt>
<pdfrwt beam="1">  1        4 0.48780677E-02 0.12499875E+03</pdfrwt>
<pdfrwt beam="2">  1       -4 0.18952949E-01 0.12499875E+03</pdfrwt>
<totfact> 0.98337593E+03</totfact>
</mgrwt>
</event>
<event>
 5    1  0.3311405E-002  0.1249997E+03  0.7818608E-02  0.1235070E+00
          4   -1    0    0  501    0  0.00000000000E+00  0.00000000000E+00  0.49775099606E+01  0.51369743437E+01  0.12700000000E+01 0.  1.
         -4   -1    0    0    0  501 -0.00000000000E+00 -0.00000000000E+00 -0.77224388863E+03  0.77224493292E+03  0.12700000000E+01 0.  1.
         25    2    1    2    0    0  0.00000000000E+00  0.00000000000E+00 -0.76726637867E+03  0.77738190727E+03  0.12499973564E+03 0.  0.
    9000005    1    3    3    0    0 -0.13591680702E+02  0.60875608704E+02 -0.35982141823E+03  0.36518902850E+03  0.10000000000E+01 0.  0.
    9000005    1    3    3    0    0  0.13591680702E+02 -0.60875608704E+02 -0.40744496044E+03  0.41219287877E+03  0.10000000000E+01 0.  0.
<mgrwt>
<rscale>  0 0.12499974E+03</rscale>
<asrwt>0</asrwt>
<pdfrwt beam="1">  1        4 0.77811820E-03 0.12499974E+03</pdfrwt>
<pdfrwt beam="2">  1       -4 0.11881900E+00 0.12499974E+03</pdfrwt>
<totfact> 0.39294861E+03</totfact>
</mgrwt>
</event>
<event>
 5    1  0.3311405E-002  0.1249989E+03  0.7818608E-02  0.1235071E+00
          4   -1    0    0  501    0  0.00000000000E+00  0.00000000000E+00  0.50834507356E+01  0.52396919166E+01  0.12700000000E+01 0.  1.
         -4   -1    0    0    0  501 -0.00000000000E+00 -0.00000000000E+00 -0.75662481193E+03  0.75662587778E+03  0.12700000000E+01 0.  1.
         25    2    1    2    0    0  0.00000000000E+00  0.00000000000E+00 -0.75154136119E+03  0.76186556970E+03  0.12499891482E+03 0.  0.
    9000005    1    3    3    0    0 -0.22971445311E+02  0.26784641398E+02 -0.69012488918E+03  0.69102711017E+03  0.10000000000E+01 0.  0.
    9000005    1    3    3    0    0  0.22971445311E+02 -0.26784641398E+02 -0.61416472009E+02  0.70838459529E+02  0.10000000000E+01 0.  0.
<mgrwt>
<rscale>  0 0.12499891E+03</rscale>
<asrwt>0</asrwt>
<pdfrwt beam="1">  1        4 0.79417049E-03 0.12499891E+03</pdfrwt>
<pdfrwt beam="2">  1       -4 0.11641583E+00 0.12499891E+03</pdfrwt>
<totfact> 0.40013912E+03</totfact>
</mgrwt>
</event>
<event>
 5    1  0.3311405E-002  0.1249999E+03  0.7818608E-02  0.1235070E+00
          4   -1    0    0  501    0  0.00000000000E+00  0.00000000000E+00  0.97461754553E+03  0.97461837298E+03  0.12700000000E+01 0. -1.
         -4   -1    0    0    0  501 -0.00000000000E+00 -0.00000000000E+00 -0.39065170778E+01  0.41077701590E+01  0.12700000000E+01 0. -1.
         25    2    1    2    0    0  0.00000000000E+00  0.00000000000E+00  0.97071102845E+03  0.97872614314E+03  0.12499985004E+03 0.  0.
    9000005    1    3    3    0    0  0.23364626109E+01  0.15849271710E+02  0.12407112660E+02  0.20287802144E+02  0.10000000000E+01 0.  0.
    9000005    1    3    3    0    0 -0.23364626109E+01 -0.15849271710E+02  0.95830391579E+03  0.95843834100E+03  0.10000000000E+01 0.  0.
<mgrwt>
<rscale>  0 0.12499985E+03</rscale>
<asrwt>0</asrwt>
<pdfrwt beam="1">  1        4 0.14995681E+00 0.12499985E+03</pdfrwt>
<pdfrwt beam="2">  1       -4 0.61654686E-03 0.12499985E+03</pdfrwt>
<totfact> 0.31317607E+03</totfact>
</mgrwt>
</event>
<event>
 5    1  0.3311405E-002  0.1250035E+03  0.7818608E-02  0.1235064E+00
         -4   -1    0    0    0  501 -0.00000000000E+00  0.00000000000E+00  0.54700049203E+02  0.54714790348E+02  0.12700000000E+01 0.  1.
          4   -1    0    0  501    0  0.00000000000E+00 -0.00000000000E+00 -0.71386215176E+02  0.71397511281E+02  0.12700000000E+01 0.  1.
         25    2    1    2    0    0  0.00000000000E+00  0.00000000000E+00 -0.16686165973E+02  0.12611230163E+03  0.12500353790E+03 0.  0.
    9000005    1    3    3    0    0 -0.51693358115E+02  0.19959768798E+02  0.20807416438E+02  0.59199191063E+02  0.10000000000E+01 0.  0.
    9000005    1    3    3    0    0  0.51693358115E+02 -0.19959768798E+02 -0.37493582411E+02  0.66913110567E+02  0.10000000000E+01 0.  0.
<mgrwt>
<rscale>  0 0.12500354E+03</rscale>
<asrwt>0</asrwt>
<pdfrwt beam="2">  1        4 0.10984498E-01 0.12500354E+03</pdfrwt>
<pdfrwt beam="1">  1       -4 0.84173950E-02 0.12500354E+03</pdfrwt>
<totfact> 0.10427665E+04</totfact>
</mgrwt>
</event>
<event>
 5    1  0.3311405E-002  0.1249983E+03  0.7818608E-02  0.1235072E+00
         -4   -1    0    0    0  501 -0.00000000000E+00  0.00000000000E+00  0.20628974420E+02  0.20668030521E+02  0.12700000000E+01 0. -1.
          4   -1    0    0  501    0  0.00000000000E+00 -0.00000000000E+00 -0.18913188213E+03  0.18913614603E+03  0.12700000000E+01 0. -1.
         25    2    1    2    0    0  0.00000000000E+00  0.00000000000E+00 -0.16850290771E+03  0.20980417655E+03  0.12499825036E+03 0.  0.
    9000005    1    3    3    0    0 -0.53340761901E+02  0.32179598692E+02 -0.75964363517E+02  0.98246363682E+02  0.10000000000E+01 0.  0.
    9000005    1    3    3    0    0  0.53340761901E+02 -0.32179598692E+02 -0.92538544190E+02  0.11155781287E+03  0.10000000000E+01 0.  0.
<mgrwt>
<rscale>  0 0.12499825E+03</rscale>
<asrwt>0</asrwt>
<pdfrwt beam="2">  1        4 0.29100544E-01 0.12499825E+03</pdfrwt>
<pdfrwt beam="1">  1       -4 0.31770208E-02 0.12499825E+03</pdfrwt>
<totfact> 0.88511334E+03</totfact>
</mgrwt>
</event>
<event>
 5    1  0.3311405E-002  0.1249973E+03  0.7818608E-02  0.1235073E+00
          4   -1    0    0  501    0  0.00000000000E+00  0.00000000000E+00  0.12771202864E+02  0.12834193492E+02  0.12700000000E+01 0. -1.
         -4   -1    0    0    0  501 -0.00000000000E+00 -0.00000000000E+00 -0.30503407678E+03  0.30503672057E+03  0.12700000000E+01 0. -1.
         25    2    1    2    0    0  0.00000000000E+00  0.00000000000E+00 -0.29226287391E+03  0.31787091406E+03  0.12499732212E+03 0.  0.
    9000005    1    3    3    0    0 -0.52850914357E+02  0.32366082600E+02 -0.12573960765E+03  0.14018641655E+03  0.10000000000E+01 0.  0.
    9000005    1    3    3    0    0  0.52850914357E+02 -0.32366082600E+02 -0.16652326626E+03  0.17768449751E+03  0.10000000000E+01 0.  0.
<mgrwt>
<rscale>  0 0.12499732E+03</rscale>
<asrwt>0</asrwt>
<pdfrwt beam="1">  1        4 0.19698495E-02 0.12499732E+03</pdfrwt>
<pdfrwt beam="2">  1       -4 0.46933363E-01 0.12499732E+03</pdfrwt>
<totfact> 0.73414430E+03</totfact>
</mgrwt>
</event>
<event>
 5    1  0.3311405E-002  0.1250005E+03  0.7818608E-02  0.1235068E+00
          4   -1    0    0  501    0  0.00000000000E+00  0.00000000000E+00  0.99570102109E+01  0.10037676640E+02  0.12700000000E+01 0. -1.
         -4   -1    0    0    0  501 -0.00000000000E+00 -0.00000000000E+00 -0.39065047383E+03  0.39065253820E+03  0.12700000000E+01 0. -1.
         25    2    1    2    0    0  0.00000000000E+00  0.00000000000E+00 -0.38069346362E+03  0.40069021484E+03  0.12500054011E+03 0.  0.
    9000005    1    3    3    0    0  0.40872589102E+02  0.46278013404E+02 -0.22126961552E+03  0.22972476100E+03  0.10000000000E+01 0.  0.
    9000005    1    3    3    0    0 -0.40872589102E+02 -0.46278013404E+02 -0.15942384809E+03  0.17096545384E+03  0.10000000000E+01 0.  0.
<mgrwt>
<rscale>  0 0.12500054E+03</rscale>
<asrwt>0</asrwt>
<pdfrwt beam="1">  1        4 0.15382119E-02 0.12500054E+03</pdfrwt>
<pdfrwt beam="2">  1       -4 0.60106425E-01 0.12500054E+03</pdfrwt>
<totfact> 0.64484952E+03</totfact>
</mgrwt>
</event>
<event>
 5    1  0.3311405E-002  0.1249990E+03  0.7818608E-02  0.1235071E+00
         -4   -1    0    0    0  501 -0.00000000000E+00  0.00000000000E+00  0.16617878263E+03  0.16618363546E+03  0.12700000000E+01 0.  1.
          4   -1    0    0  501    0  0.00000000000E+00 -0.00000000000E+00 -0.23483573772E+02  0.23517889724E+02  0.12700000000E+01 0.  1.
         25    2    1    2    0    0  0.00000000000E+00  0.00000000000E+00  0.14269520886E+03  0.18970152519E+03  0.12499898411E+03 0.  0.
    9000005    1    3    3    0    0  0.54918605531E+02 -0.16268662484E+02  0.10927194219E+03  0.12337779363E+03  0.10000000000E+01 0.  0.
    9000005    1    3    3    0    0 -0.54918605531E+02  0.16268662484E+02  0.33423266671E+02  0.66323731556E+02  0.10000000000E+01 0.  0.
<mgrwt>
<rscale>  0 0.12499898E+03</rscale>
<asrwt>0</asrwt>
<pdfrwt beam="2">  1        4 0.36158705E-02 0.12499898E+03</pdfrwt>
<pdfrwt beam="1">  1       -4 0.25568980E-01 0.12499898E+03</pdfrwt>
<totfact> 0.91901365E+03</totfact>
</mgrwt>
</event>
<event>
 5    1  0.3311405E-002  0.1250123E+03  0.7818608E-02  0.1235050E+00
         -4   -1    0    0    0  501 -0.00000000000E+00  0.00000000000E+00  0.39648957552E+02  0.39669292091E+02  0.12700000000E+01 0.  1.
          4   -1    0    0  501    0  0.00000000000E+00 -0.00000000000E+00 -0.98490616128E+02  0.98498803877E+02  0.12700000000E+01 0.  1.
         25    2    1    2    0    0  0.00000000000E+00  0.00000000000E+00 -0.58841658575E+02  0.13816809597E+03  0.12501232723E+03 0.  0.
    9000005    1    3    3    0    0  0.92423008656E+01  0.70992868937E+01  0.38442811547E+02  0.40182953591E+02  0.10000000000E+01 0.  0.
    9000005    1    3    3    0    0 -0.92423008656E+01 -0.70992868937E+01 -0.97284470122E+02  0.97985142377E+02  0.10000000000E+01 0.  0.
<mgrwt>
<rscale>  0 0.12501233E+03</rscale>
<asrwt>0</asrwt>
<pdfrwt beam="2">  1        4 0.15154596E-01 0.12501233E+03</pdfrwt>
<pdfrwt beam="1">  1       -4 0.61020337E-02 0.12501233E+03</pdfrwt>
<totfact> 0.10168870E+04</totfact>
</mgrwt>
</event>
<event>
 5    1  0.3311405E-002  0.1250003E+03  0.7818608E-02  0.1235069E+00
         -4   -1    0    0    0  501 -0.00000000000E+00  0.00000000000E+00  0.50832695528E+03  0.50832854176E+03  0.12700000000E+01 0.  1.
          4   -1    0    0  501    0  0.00000000000E+00 -0.00000000000E+00 -0.76304749433E+01  0.77354410256E+01  0.12700000000E+01 0.  1.
         25    2    1    2    0    0  0.00000000000E+00  0.00000000000E+00  0.50069648034E+03  0.51606398278E+03  0.12500027561E+03 0.  0.
    9000005    1    3    3    0    0 -0.16075685494E+02  0.49275154522E+02  0.39447962914E+03  0.39787139420E+03  0.10000000000E+01 0.  0.
    9000005    1    3    3    0    0  0.16075685494E+02 -0.49275154522E+02  0.10621685120E+03  0.11819258858E+03  0.10000000000E+01 0.  0.
<mgrwt>
<rscale>  0 0.12500028E+03</rscale>
<asrwt>0</asrwt>
<pdfrwt beam="2">  1        4 0.11821159E-02 0.12500028E+03</pdfrwt>
<pdfrwt beam="1">  1       -4 0.78212319E-01 0.12500028E+03</pdfrwt>
<totfact> 0.54638870E+03</totfact>
</mgrwt>
</event>
<event>
 5    1  0.3311405E-002  0.1249940E+03  0.7818608E-02  0.1235079E+00
         -4   -1    0    0    0  501 -0.00000000000E+00  0.00000000000E+00  0.13774836284E+02  0.13833257557E+02  0.12700000000E+01 0. -1.
          4   -1    0    0  501    0  0.00000000000E+00 -0.00000000000E+00 -0.28289147966E+03  0.28289433038E+03  0.12700000000E+01 0. -1.
         25    2    1    2    0    0  0.00000000000E+00  0.00000000000E+00 -0.26911664338E+03  0.29672758794E+03  0.12499397467E+03 0.  0.
    9000005    1    3    3    0    0  0.44377392990E+02  0.35034389247E+02 -0.71387020685E+02  0.91070676734E+02  0.10000000000E+01 0.  0.
    9000005    1    3    3    0    0 -0.44377392990E+02 -0.35034389247E+02 -0.19772962269E+03  0.20565691121E+03  0.10000000000E+01 0.  0.
<mgrwt>
<rscale>  0 0.12499397E+03</rscale>
<asrwt>0</asrwt>
<pdfrwt beam="2">  1        4 0.43526475E-01 0.12499397E+03</pdfrwt>
<pdfrwt beam="1">  1       -4 0.21239190E-02 0.12499397E+03</pdfrwt>
<totfact> 0.76021338E+03</totfact>
</mgrwt>
</event>
<event>
 5    1  0.3311405E-002  0.1250047E+03  0.7818608E-02  0.1235062E+00
         -4   -1    0    0    0  501 -0.00000000000E+00  0.00000000000E+00  0.22125602049E+03  0.22125966533E+03  0.12700000000E+01 0.  1.
          4   -1    0    0  501    0  0.00000000000E+00 -0.00000000000E+00 -0.17629572375E+02  0.17675257343E+02  0.12700000000E+01 0.  1.
         25    2    1    2    0    0  0.00000000000E+00  0.00000000000E+00  0.20362644811E+03  0.23893492267E+03  0.12500466752E+03 0.  0.
    9000005    1    3    3    0    0  0.12978454362E+02 -0.52138372402E+02  0.40806913977E+02  0.67476324608E+02  0.10000000000E+01 0.  0.
    9000005    1    3    3    0    0 -0.12978454362E+02  0.52138372402E+02  0.16281953414E+03  0.17145859807E+03  0.10000000000E+01 0.  0.
<mgrwt>
<rscale>  0 0.12500467E+03</rscale>
<asrwt>0</asrwt>
<pdfrwt beam="2">  1        4 0.27160365E-02 0.12500467E+03</pdfrwt>
<pdfrwt beam="1">  1       -4 0.34043182E-01 0.12500467E+03</pdfrwt>
<totfact> 0.83947511E+03</totfact>
</mgrwt>
</event>
<event>
 5    1  0.3311405E-002  0.1250044E+03  0.7818608E-02  0.1235062E+00
         -4   -1    0    0    0  501 -0.00000000000E+00  0.00000000000E+00  0.25520116643E+02  0.25551697663E+02  0.12700000000E+01 0.  1.
          4   -1    0    0  501    0  0.00000000000E+00 -0.00000000000E+00 -0.15294739858E+03  0.15295267122E+03  0.12700000000E+01 0.  1.
         25    2    1    2    0    0  0.00000000000E+00  0.00000000000E+00 -0.12742728194E+03  0.17850436888E+03  0.12500439003E+03 0.  0.
    9000005    1    3    3    0    0 -0.41460660564E+02  0.16298949711E+02 -0.12629917406E+03  0.13392954680E+03  0.10000000000E+01 0.  0.
    9000005    1    3    3    0    0  0.41460660564E+02 -0.16298949711E+02 -0.11281078706E+01  0.44574822080E+02  0.10000000000E+01 0.  0.
<mgrwt>
<rscale>  0 0.12500439E+03</rscale>
<asrwt>0</asrwt>
<pdfrwt beam="2">  1        4 0.23533203E-01 0.12500439E+03</pdfrwt>
<pdfrwt beam="1">  1       -4 0.39290068E-02 0.12500439E+03</pdfrwt>
<totfact> 0.93877674E+03</totfact>
</mgrwt>
</event>
<event>
 5    1  0.3311405E-002  0.1250014E+03  0.7818608E-02  0.1235067E+00
          4   -1    0    0  501    0  0.00000000000E+00  0.00000000000E+00  0.51937861571E+03  0.51938016843E+03  0.12700000000E+01 0.  1.
         -4   -1    0    0    0  501 -0.00000000000E+00 -0.00000000000E+00 -0.74659866367E+01  0.75732328935E+01  0.12700000000E+01 0.  1.
         25    2    1    2    0    0  0.00000000000E+00  0.00000000000E+00  0.51191262908E+03  0.52695340132E+03  0.12500138943E+03 0.  0.
    9000005    1    3    3    0    0 -0.43744033190E+02 -0.21548750581E+02  0.91200574927E+02  0.10342356578E+03  0.10000000000E+01 0.  0.
    9000005    1    3    3    0    0  0.43744033190E+02  0.21548750581E+02  0.42071205415E+03  0.42352983555E+03  0.10000000000E+01 0.  0.
<mgrwt>
<rscale>  0 0.12500139E+03</rscale>
<asrwt>0</asrwt>
<pdfrwt beam="1">  1        4 0.79912770E-01 0.12500139E+03</pdfrwt>
<pdfrwt beam="2">  1       -4 0.11569825E-02 0.12500139E+03</pdfrwt>
<totfact> 0.53830480E+03</totfact>
</mgrwt>
</event>
<event>
 5    1  0.3311405E-002  0.1250191E+03  0.7818608E-02  0.1235039E+00
          4   -1    0    0  501    0  0.00000000000E+00  0.00000000000E+00  0.75385983017E+03  0.75386089993E+03  0.12700000000E+01 0. -1.
         -4   -1    0    0    0  501 -0.00000000000E+00 -0.00000000000E+00 -0.51043681455E+01  0.52599880385E+01  0.12700000000E+01 0. -1.
         25    2    1    2    0    0  0.00000000000E+00  0.00000000000E+00  0.74875546203E+03  0.75912088797E+03  0.12501912109E+03 0.  0.
    9000005    1    3    3    0    0  0.52207744096E+02  0.22823718054E+02  0.21839907403E+03  0.22571159958E+03  0.10000000000E+01 0.  0.
    9000005    1    3    3    0    0 -0.52207744096E+02 -0.22823718054E+02  0.53035638800E+03  0.53340928839E+03  0.10000000000E+01 0.  0.
<mgrwt>
<rscale>  0 0.12501912E+03</rscale>
<asrwt>0</asrwt>
<pdfrwt beam="1">  1        4 0.11599041E+00 0.12501912E+03</pdfrwt>
<pdfrwt beam="2">  1       -4 0.79734099E-03 0.12501912E+03</pdfrwt>
<totfact> 0.40124889E+03</totfact>
</mgrwt>
</event>
<event>
 5    1  0.3311405E-002  0.1249977E+03  0.7818608E-02  0.1235073E+00
         -4   -1    0    0    0  501 -0.00000000000E+00  0.00000000000E+00  0.54108434866E+03  0.54108583909E+03  0.12700000000E+01 0. -1.
          4   -1    0    0  501    0  0.00000000000E+00 -0.00000000000E+00 -0.71616654453E+01  0.72734003019E+01  0.12700000000E+01 0. -1.
         25    2    1    2    0    0  0.00000000000E+00  0.00000000000E+00  0.53392268321E+03  0.54835923939E+03  0.12499769508E+03 0.  0.
    9000005    1    3    3    0    0 -0.58158468458E+02  0.22860645127E+02  0.26827299784E+03  0.27545674419E+03  0.10000000000E+01 0.  0.
    9000005    1    3    3    0    0  0.58158468458E+02 -0.22860645127E+02  0.26564968537E+03  0.27290249520E+03  0.10000000000E+01 0.  0.
<mgrwt>
<rscale>  0 0.12499770E+03</rscale>
<asrwt>0</asrwt>
<pdfrwt beam="2">  1        4 0.11105043E-02 0.12499770E+03</pdfrwt>
<pdfrwt beam="1">  1       -4 0.83252459E-01 0.12499770E+03</pdfrwt>
<totfact> 0.52301127E+03</totfact>
</mgrwt>
</event>
<event>
 5    1  0.3311405E-002  0.1249984E+03  0.7818608E-02  0.1235072E+00
         -4   -1    0    0    0  501 -0.00000000000E+00  0.00000000000E+00  0.57397561114E+02  0.57411609643E+02  0.12700000000E+01 0. -1.
          4   -1    0    0  501    0  0.00000000000E+00 -0.00000000000E+00 -0.68025948039E+02  0.68037802041E+02  0.12700000000E+01 0. -1.
         25    2    1    2    0    0  0.00000000000E+00  0.00000000000E+00 -0.10628386925E+02  0.12544941168E+03  0.12499836912E+03 0.  0.
    9000005    1    3    3    0    0 -0.63037142923E+01  0.52833169233E+02  0.27577032939E+02  0.59938079138E+02  0.10000000000E+01 0.  0.
    9000005    1    3    3    0    0  0.63037142923E+01 -0.52833169233E+02 -0.38205419864E+02  0.65511332547E+02  0.10000000000E+01 0.  0.
<mgrwt>
<rscale>  0 0.12499837E+03</rscale>
<asrwt>0</asrwt>
<pdfrwt beam="2">  1        4 0.10467523E-01 0.12499837E+03</pdfrwt>
<pdfrwt beam="1">  1       -4 0.88323865E-02 0.12499837E+03</pdfrwt>
<totfact> 0.10443457E+04</totfact>
</mgrwt>
</event>
<event>
 5    1  0.3311405E-002  0.1249969E+03  0.7818608E-02  0.1235074E+00
         -4   -1    0    0    0  501 -0.00000000000E+00  0.00000000000E+00  0.55108448492E+02  0.55123080422E+02  0.12700000000E+01 0. -1.
          4   -1    0    0  501    0  0.00000000000E+00 -0.00000000000E+00 -0.70849766852E+02  0.70861148473E+02  0.12700000000E+01 0. -1.
         25    2    1    2    0    0  0.00000000000E+00  0.00000000000E+00 -0.15741318360E+02  0.12598422890E+03  0.12499694727E+03 0.  0.
    9000005    1    3    3    0    0 -0.30090318471E+01 -0.22449698191E+02 -0.66571689044E+02  0.70326616609E+02  0.10000000000E+01 0.  0.
    9000005    1    3    3    0    0  0.30090318471E+01  0.22449698191E+02  0.50830370684E+02  0.55657612286E+02  0.10000000000E+01 0.  0.
<mgrwt>
<rscale>  0 0.12499695E+03</rscale>
<asrwt>0</asrwt>
<pdfrwt beam="2">  1        4 0.10901965E-01 0.12499695E+03</pdfrwt>
<pdfrwt beam="1">  1       -4 0.84802239E-02 0.12499695E+03</pdfrwt>
<totfact> 0.10432021E+04</totfact>
</mgrwt>
</event>
<event>
 5    1  0.3311405E-002  0.1249981E+03  0.7818608E-02  0.1235072E+00
          4   -1    0    0  501    0  0.00000000000E+00  0.00000000000E+00  0.20271097840E+02  0.20310842121E+02  0.12700000000E+01 0. -1.
         -4   -1    0    0    0  501 -0.00000000000E+00 -0.00000000000E+00 -0.19246394110E+03  0.19246813119E+03  0.12700000000E+01 0. -1.
         25    2    1    2    0    0  0.00000000000E+00  0.00000000000E+00 -0.17219284326E+03  0.21277897331E+03  0.12499806484E+03 0.  0.
    9000005    1    3    3    0    0  0.14864599635E+02 -0.44181695317E+01 -0.18914495606E+03  0.18978221979E+03  0.10000000000E+01 0.  0.
    9000005    1    3    3    0    0 -0.14864599635E+02  0.44181695317E+01  0.16952112799E+02  0.22996753525E+02  0.10000000000E+01 0.  0.
<mgrwt>
<rscale>  0 0.12499806E+03</rscale>
<asrwt>0</asrwt>
<pdfrwt beam="1">  1        4 0.31220101E-02 0.12499806E+03</pdfrwt>
<pdfrwt beam="2">  1       -4 0.29613215E-01 0.12499806E+03</pdfrwt>
<totfact> 0.88027848E+03</totfact>
</mgrwt>
</event>
<event>
 5    1  0.3311405E-002  0.1250001E+03  0.7818608E-02  0.1235069E+00
         -4   -1    0    0    0  501 -0.00000000000E+00  0.00000000000E+00  0.15958347554E+02  0.16008802474E+02  0.12700000000E+01 0. -1.
          4   -1    0    0  501    0  0.00000000000E+00 -0.00000000000E+00 -0.24433973523E+03  0.24434303574E+03  0.12700000000E+01 0. -1.
         25    2    1    2    0    0  0.00000000000E+00  0.00000000000E+00 -0.22838138768E+03  0.26035183821E+03  0.12500008569E+03 0.  0.
    9000005    1    3    3    0    0  0.19284190510E+02  0.83806836204E+01 -0.23676101674E+03  0.23769496189E+03  0.10000000000E+01 0.  0.
    9000005    1    3    3    0    0 -0.19284190510E+02 -0.83806836204E+01  0.83796290581E+01  0.22656876323E+02  0.10000000000E+01 0.  0.
<mgrwt>
<rscale>  0 0.12500009E+03</rscale>
<asrwt>0</asrwt>
<pdfrwt beam="2">  1        4 0.37594861E-01 0.12500009E+03</pdfrwt>
<pdfrwt beam="1">  1       -4 0.24592656E-02 0.12500009E+03</pdfrwt>
<totfact> 0.80856557E+03</totfact>
</mgrwt>
</event>
<event>
 5    1  0.3311405E-002  0.1249950E+03  0.7818608E-02  0.1235077E+00
         -4   -1    0    0    0  501 -0.00000000000E+00  0.00000000000E+00  0.13208585381E+03  0.13209195917E+03  0.12700000000E+01 0. -1.
          4   -1    0    0  501    0  0.00000000000E+00 -0.00000000000E+00 -0.29550796420E+02  0.29578074127E+02  0.12700000000E+01 0. -1.
         25    2    1    2    0    0  0.00000000000E+00  0.00000000000E+00  0.10253505739E+03  0.16167003330E+03  0.12499504659E+03 0.  0.
    9000005    1    3    3    0    0 -0.56119615967E+02 -0.20879515418E+02  0.28145651250E+02  0.66170561012E+02  0.10000000000E+01 0.  0.
    9000005    1    3    3    0    0  0.56119615967E+02  0.20879515418E+02  0.74389406142E+02  0.95499472284E+02  0.10000000000E+01 0.  0.
<mgrwt>
<rscale>  0 0.12499505E+03</rscale>
<asrwt>0</asrwt>
<pdfrwt beam="2">  1        4 0.45488443E-02 0.12499505E+03</pdfrwt>
<pdfrwt beam="1">  1       -4 0.20323468E-01 0.12499505E+03</pdfrwt>
<totfact> 0.97032580E+03</totfact>
</mgrwt>
</event>
<event>
 5    1  0.3311405E-002  0.1249912E+03  0.7818608E-02  0.1235083E+00
         -4   -1    0    0    0  501 -0.00000000000E+00  0.00000000000E+00  0.35991284454E+03  0.35991508522E+03  0.12700000000E+01 0.  1.
          4   -1    0    0  501    0  0.00000000000E+00 -0.00000000000E+00 -0.10812347428E+02  0.10886677956E+02  0.12700000000E+01 0.  1.
         25    2    1    2    0    0  0.00000000000E+00  0.00000000000E+00  0.34910049711E+03  0.37080176317E+03  0.12499116163E+03 0.  0.
    9000005    1    3    3    0    0  0.35109070382E+02 -0.49239003387E+02  0.12787220194E+03  0.14145467933E+03  0.10000000000E+01 0.  0.
    9000005    1    3    3    0    0 -0.35109070382E+02  0.49239003387E+02  0.22122829518E+03  0.22934708384E+03  0.10000000000E+01 0.  0.
<mgrwt>
<rscale>  0 0.12499116E+03</rscale>
<asrwt>0</asrwt>
<pdfrwt beam="2">  1        4 0.16693282E-02 0.12499116E+03</pdfrwt>
<pdfrwt beam="1">  1       -4 0.55377094E-01 0.12499116E+03</pdfrwt>
<totfact> 0.67508331E+03</totfact>
</mgrwt>
</event>
<event>
 5    1  0.3311405E-002  0.1250029E+03  0.7818608E-02  0.1235065E+00
          4   -1    0    0  501    0  0.00000000000E+00  0.00000000000E+00  0.22893015114E+03  0.22893367381E+03  0.12700000000E+01 0.  1.
         -4   -1    0    0    0  501 -0.00000000000E+00 -0.00000000000E+00 -0.17036556988E+02  0.17083827850E+02  0.12700000000E+01 0.  1.
         25    2    1    2    0    0  0.00000000000E+00  0.00000000000E+00  0.21189359416E+03  0.24601750166E+03  0.12500286348E+03 0.  0.
    9000005    1    3    3    0    0 -0.10625033574E+02 -0.61434212945E+02  0.97510322054E+02  0.11574245879E+03  0.10000000000E+01 0.  0.
    9000005    1    3    3    0    0  0.10625033574E+02  0.61434212945E+02  0.11438327210E+03  0.13027504287E+03  0.10000000000E+01 0.  0.
<mgrwt>
<rscale>  0 0.12500286E+03</rscale>
<asrwt>0</asrwt>
<pdfrwt beam="1">  1        4 0.35223930E-01 0.12500286E+03</pdfrwt>
<pdfrwt beam="2">  1       -4 0.26249160E-02 0.12500286E+03</pdfrwt>
<totfact> 0.82903961E+03</totfact>
</mgrwt>
</event>
<event>
 5    1  0.3311405E-002  0.1250008E+03  0.7818608E-02  0.1235068E+00
          4   -1    0    0  501    0  0.00000000000E+00  0.00000000000E+00  0.45129129842E+03  0.45129308540E+03  0.12700000000E+01 0.  1.
         -4   -1    0    0    0  501 -0.00000000000E+00 -0.00000000000E+00 -0.86074312861E+01  0.87006191357E+01  0.12700000000E+01 0.  1.
         25    2    1    2    0    0  0.00000000000E+00  0.00000000000E+00  0.44268386713E+03  0.45999370454E+03  0.12500080796E+03 0.  0.
    9000005    1    3    3    0    0 -0.31795836640E+02  0.17844165445E+02  0.40811080614E+03  0.40973750079E+03  0.10000000000E+01 0.  0.
    9000005    1    3    3    0    0  0.31795836640E+02 -0.17844165445E+02  0.34573060993E+02  0.50256203742E+02  0.10000000000E+01 0.  0.
<mgrwt>
<rscale>  0 0.12500081E+03</rscale>
<asrwt>0</asrwt>
<pdfrwt beam="1">  1        4 0.69436771E-01 0.12500081E+03</pdfrwt>
<pdfrwt beam="2">  1       -4 0.13315253E-02 0.12500081E+03</pdfrwt>
<totfact> 0.59106642E+03</totfact>
</mgrwt>
</event>
<event>
 5    1  0.3311405E-002  0.1249976E+03  0.7818608E-02  0.1235073E+00
         -4   -1    0    0    0  501 -0.00000000000E+00  0.00000000000E+00  0.23693115052E+04  0.23693118456E+04  0.12700000000E+01 0.  1.
          4   -1    0    0  501    0  0.00000000000E+00 -0.00000000000E+00 -0.14036476081E+01  0.18929148443E+01  0.12700000000E+01 0.  1.
         25    2    1    2    0    0  0.00000000000E+00  0.00000000000E+00  0.23679078576E+04  0.23712047604E+04  0.12499757510E+03 0.  0.
    9000005    1    3    3    0    0  0.10601865522E+02 -0.61555797569E+02  0.11480475698E+04  0.11497459452E+04  0.10000000000E+01 0.  0.
    9000005    1    3    3    0    0 -0.10601865522E+02  0.61555797569E+02  0.12198602877E+04  0.12214588153E+04  0.10000000000E+01 0.  0.
<mgrwt>
<rscale>  0 0.12499758E+03</rscale>
<asrwt>0</asrwt>
<pdfrwt beam="2">  1        4 0.25360856E-03 0.12499758E+03</pdfrwt>
<pdfrwt beam="1">  1       -4 0.36454619E+00 0.12499758E+03</pdfrwt>
<totfact> 0.57620006E+02</totfact>
</mgrwt>
</event>
<event>
 5    1  0.3311405E-002  0.1249905E+03  0.7818608E-02  0.1235084E+00
         -4   -1    0    0    0  501 -0.00000000000E+00  0.00000000000E+00  0.10230202579E+02  0.10308731484E+02  0.12700000000E+01 0. -1.
          4   -1    0    0  501    0  0.00000000000E+00 -0.00000000000E+00 -0.38023770121E+03  0.38023982211E+03  0.12700000000E+01 0. -1.
         25    2    1    2    0    0  0.00000000000E+00  0.00000000000E+00 -0.37000749863E+03  0.39054855359E+03  0.12499049433E+03 0.  0.
    9000005    1    3    3    0    0 -0.61961473075E+02  0.79984367747E+01 -0.18877508627E+03  0.19884725880E+03  0.10000000000E+01 0.  0.
    9000005    1    3    3    0    0  0.61961473075E+02 -0.79984367747E+01 -0.18123241236E+03  0.19170129479E+03  0.10000000000E+01 0.  0.
<mgrwt>
<rscale>  0 0.12499049E+03</rscale>
<asrwt>0</asrwt>
<pdfrwt beam="2">  1        4 0.58504301E-01 0.12499049E+03</pdfrwt>
<pdfrwt beam="1">  1       -4 0.15800814E-02 0.12499049E+03</pdfrwt>
<totfact> 0.65496278E+03</totfact>
</mgrwt>
</event>
<event>
 5    1  0.3311405E-002  0.1249969E+03  0.7818608E-02  0.1235074E+00
          4   -1    0    0  501    0  0.00000000000E+00  0.00000000000E+00  0.10395173507E+03  0.10395949271E+03  0.12700000000E+01 0. -1.
         -4   -1    0    0    0  501 -0.00000000000E+00 -0.00000000000E+00 -0.37555803312E+02  0.37577270555E+02  0.12700000000E+01 0. -1.
         25    2    1    2    0    0  0.00000000000E+00  0.00000000000E+00  0.66395931763E+02  0.14153676327E+03  0.12499694237E+03 0.  0.
    9000005    1    3    3    0    0 -0.19524837829E+02 -0.55958588704E+02  0.55630399923E+02  0.81291600658E+02  0.10000000000E+01 0.  0.
    9000005    1    3    3    0    0  0.19524837829E+02  0.55958588704E+02  0.10765531839E+02  0.60245162609E+02  0.10000000000E+01 0.  0.
<mgrwt>
<rscale>  0 0.12499694E+03</rscale>
<asrwt>0</asrwt>
<pdfrwt beam="1">  1        4 0.15994822E-01 0.12499694E+03</pdfrwt>
<pdfrwt beam="2">  1       -4 0.57800641E-02 0.12499694E+03</pdfrwt>
<totfact> 0.10102530E+04</totfact>
</mgrwt>
</event>
<event>
 5    1  0.3311405E-002  0.1250073E+03  0.7818608E-02  0.1235058E+00
          4   -1    0    0  501    0  0.00000000000E+00  0.00000000000E+00  0.24151180813E+03  0.24151514728E+03  0.12700000000E+01 0. -1.
         -4   -1    0    0    0  501 -0.00000000000E+00 -0.00000000000E+00 -0.16147669770E+02  0.16197534967E+02  0.12700000000E+01 0. -1.
         25    2    1    2    0    0  0.00000000000E+00  0.00000000000E+00  0.22536413836E+03  0.25771268225E+03  0.12500732672E+03 0.  0.
    9000005    1    3    3    0    0  0.29178179006E+02 -0.47511194683E+02  0.54480169193E+02  0.77960044802E+02  0.10000000000E+01 0.  0.
    9000005    1    3    3    0    0 -0.29178179006E+02  0.47511194683E+02  0.17088396917E+03  0.17975263745E+03  0.10000000000E+01 0.  0.
<mgrwt>
<rscale>  0 0.12500733E+03</rscale>
<asrwt>0</asrwt>
<pdfrwt beam="1">  1        4 0.37159754E-01 0.12500733E+03</pdfrwt>
<pdfrwt beam="2">  1       -4 0.24883496E-02 0.12500733E+03</pdfrwt>
<totfact> 0.81214880E+03</totfact>
</mgrwt>
</event>
<event>
 5    1  0.3311405E-002  0.1249839E+03  0.7818608E-02  0.1235094E+00
         -4   -1    0    0    0  501 -0.00000000000E+00  0.00000000000E+00  0.77320337600E+03  0.77320441900E+03  0.12700000000E+01 0.  1.
          4   -1    0    0  501    0  0.00000000000E+00 -0.00000000000E+00 -0.49698376407E+01  0.51295405423E+01  0.12700000000E+01 0.  1.
         25    2    1    2    0    0  0.00000000000E+00  0.00000000000E+00  0.76823353836E+03  0.77833395954E+03  0.12498393142E+03 0.  0.
    9000005    1    3    3    0    0 -0.32592379718E+02  0.25984118901E+02  0.94234250487E+02  0.10304625959E+03  0.10000000000E+01 0.  0.
    9000005    1    3    3    0    0  0.32592379718E+02 -0.25984118901E+02  0.67399928788E+03  0.67528769995E+03  0.10000000000E+01 0.  0.
<mgrwt>
<rscale>  0 0.12498393E+03</rscale>
<asrwt>0</asrwt>
<pdfrwt beam="2">  1        4 0.77695599E-03 0.12498393E+03</pdfrwt>
<pdfrwt beam="1">  1       -4 0.11896665E+00 0.12498393E+03</pdfrwt>
<totfact> 0.39264246E+03</totfact>
</mgrwt>
</event>
<event>
 5    1  0.3311405E-002  0.1249963E+03  0.7818608E-02  0.1235075E+00
          4   -1    0    0  501    0  0.00000000000E+00  0.00000000000E+00  0.87572368719E+03  0.87572460809E+03  0.12700000000E+01 0. -1.
         -4   -1    0    0    0  501 -0.00000000000E+00 -0.00000000000E+00 -0.43689897847E+01  0.45498320561E+01  0.12700000000E+01 0. -1.
         25    2    1    2    0    0  0.00000000000E+00  0.00000000000E+00  0.87135469741E+03  0.88027444014E+03  0.12499632505E+03 0.  0.
    9000005    1    3    3    0    0 -0.12940402633E+02 -0.49532698096E+02  0.68803505396E+03  0.68993780711E+03  0.10000000000E+01 0.  0.
    9000005    1    3    3    0    0  0.12940402633E+02  0.49532698096E+02  0.18331964345E+03  0.19033663303E+03  0.10000000000E+01 0.  0.
<mgrwt>
<rscale>  0 0.12499633E+03</rscale>
<asrwt>0</asrwt>
<pdfrwt beam="1">  1        4 0.13474054E+00 0.12499633E+03</pdfrwt>
<pdfrwt beam="2">  1       -4 0.68613491E-03 0.12499633E+03</pdfrwt>
<totfact> 0.34922303E+03</totfact>
</mgrwt>
</event>
<event>
 5    1  0.3311405E-002  0.1249725E+03  0.7818608E-02  0.1235112E+00
          4   -1    0    0  501    0  0.00000000000E+00  0.00000000000E+00  0.72762439154E+03  0.72762549987E+03  0.12700000000E+01 0.  1.
         -4   -1    0    0    0  501 -0.00000000000E+00 -0.00000000000E+00 -0.52898692397E+01  0.54401853437E+01  0.12700000000E+01 0.  1.
         25    2    1    2    0    0  0.00000000000E+00  0.00000000000E+00  0.72233452230E+03  0.73306568522E+03  0.12497254392E+03 0.  0.
    9000005    1    3    3    0    0  0.23363146724E+02  0.48379918814E+02  0.17409643937E+03  0.18220050322E+03  0.10000000000E+01 0.  0.
    9000005    1    3    3    0    0 -0.23363146724E+02 -0.48379918814E+02  0.54823808293E+03  0.55086518200E+03  0.10000000000E+01 0.  0.
<mgrwt>
<rscale>  0 0.12497254E+03</rscale>
<asrwt>0</asrwt>
<pdfrwt beam="1">  1        4 0.11195390E+00 0.12497254E+03</pdfrwt>
<pdfrwt beam="2">  1       -4 0.82547379E-03 0.12497254E+03</pdfrwt>
<totfact> 0.41422350E+03</totfact>
</mgrwt>
</event>
<event>
 5    1  0.3311405E-002  0.1250061E+03  0.7818608E-02  0.1235060E+00
          4   -1    0    0  501    0  0.00000000000E+00  0.00000000000E+00  0.22896346050E+02  0.22931540778E+02  0.12700000000E+01 0. -1.
         -4   -1    0    0    0  501 -0.00000000000E+00 -0.00000000000E+00 -0.17045388922E+03  0.17045862034E+03  0.12700000000E+01 0. -1.
         25    2    1    2    0    0  0.00000000000E+00  0.00000000000E+00 -0.14755754317E+03  0.19339016112E+03  0.12500610334E+03 0.  0.
    9000005    1    3    3    0    0 -0.82919150069E+01  0.29962657902E+02  0.10092152553E+02  0.32701196709E+02  0.10000000000E+01 0.  0.
    9000005    1    3    3    0    0  0.82919150069E+01 -0.29962657902E+02 -0.15764969572E+03  0.16068896441E+03  0.10000000000E+01 0.  0.
<mgrwt>
<rscale>  0 0.12500610E+03</rscale>
<asrwt>0</asrwt>
<pdfrwt beam="1">  1        4 0.35255861E-02 0.12500610E+03</pdfrwt>
<pdfrwt beam="2">  1       -4 0.26226746E-01 0.12500610E+03</pdfrwt>
<totfact> 0.91248290E+03</totfact>
</mgrwt>
</event>
<event>
 5    1  0.3311405E-002  0.1250067E+03  0.7818608E-02  0.1235059E+00
          4   -1    0    0  501    0  0.00000000000E+00  0.00000000000E+00  0.95681374245E+01  0.96520543811E+01  0.12700000000E+01 0.  1.
         -4   -1    0    0    0  501 -0.00000000000E+00 -0.00000000000E+00 -0.40643236329E+03  0.40643434750E+03  0.12700000000E+01 0.  1.
         25    2    1    2    0    0  0.00000000000E+00  0.00000000000E+00 -0.39686422587E+03  0.41608640189E+03  0.12500672006E+03 0.  0.
    9000005    1    3    3    0    0  0.79810503002E+01  0.43294855402E+02 -0.34607436519E+03  0.34886474157E+03  0.10000000000E+01 0.  0.
    9000005    1    3    3    0    0 -0.79810503002E+01 -0.43294855402E+02 -0.50789860680E+02  0.67221660319E+02  0.10000000000E+01 0.  0.
<mgrwt>
<rscale>  0 0.12500672E+03</rscale>
<asrwt>0</asrwt>
<pdfrwt beam="1">  1        4 0.14786292E-02 0.12500672E+03</pdfrwt>
<pdfrwt beam="2">  1       -4 0.62534650E-01 0.12500672E+03</pdfrwt>
<totfact> 0.63008412E+03</totfact>
</mgrwt>
</event>
<event>
 5    1  0.3311405E-002  0.1249988E+03  0.7818608E-02  0.1235071E+00
         -4   -1    0    0    0  501 -0.00000000000E+00  0.00000000000E+00  0.73670079181E+02  0.73681025146E+02  0.12700000000E+01 0.  1.
          4   -1    0    0  501    0  0.00000000000E+00 -0.00000000000E+00 -0.53000015876E+02  0.53015229726E+02  0.12700000000E+01 0.  1.
         25    2    1    2    0    0  0.00000000000E+00  0.00000000000E+00  0.20670063305E+02  0.12669625487E+03  0.12499875792E+03 0.  0.
    9000005    1    3    3    0    0 -0.58092670870E+02 -0.21597691341E+02  0.18440738343E+02  0.64670545929E+02  0.10000000000E+01 0.  0.
    9000005    1    3    3    0    0  0.58092670870E+02  0.21597691341E+02  0.22293249615E+01  0.62025708943E+02  0.10000000000E+01 0.  0.
<mgrwt>
<rscale>  0 0.12499876E+03</rscale>
<asrwt>0</asrwt>
<pdfrwt beam="2">  1        4 0.81558609E-02 0.12499876E+03</pdfrwt>
<pdfrwt beam="1">  1       -4 0.11335871E-01 0.12499876E+03</pdfrwt>
<totfact> 0.10416044E+04</totfact>
</mgrwt>
</event>
<event>
 5    1  0.3311405E-002  0.1250009E+03  0.7818608E-02  0.1235068E+00
          4   -1    0    0  501    0  0.00000000000E+00  0.00000000000E+00  0.48995557065E+02  0.49012013957E+02  0.12700000000E+01 0.  1.
         -4   -1    0    0    0  501 -0.00000000000E+00 -0.00000000000E+00 -0.79692839612E+02  0.79702958449E+02  0.12700000000E+01 0.  1.
         25    2    1    2    0    0  0.00000000000E+00  0.00000000000E+00 -0.30697282547E+02  0.12871497241E+03  0.12500088386E+03 0.  0.
    9000005    1    3    3    0    0 -0.43062138970E+02 -0.32291991414E+02 -0.48043994935E+02  0.72155013488E+02  0.10000000000E+01 0.  0.
    9000005    1    3    3    0    0  0.43062138970E+02  0.32291991414E+02  0.17346712388E+02  0.56559958918E+02  0.10000000000E+01 0.  0.
<mgrwt>
<rscale>  0 0.12500088E+03</rscale>
<asrwt>0</asrwt>
<pdfrwt beam="1">  1        4 0.75398223E-02 0.12500088E+03</pdfrwt>
<pdfrwt beam="2">  1       -4 0.12262481E-01 0.12500088E+03</pdfrwt>
<totfact> 0.10371869E+04</totfact>
</mgrwt>
</event>
<event>
 5    1  0.3311405E-002  0.1249989E+03  0.7818608E-02  0.1235071E+00
          4   -1    0    0  501    0  0.00000000000E+00  0.00000000000E+00  0.59658632344E+01  0.60995429444E+01  0.12700000000E+01 0.  1.
         -4   -1    0    0    0  501 -0.00000000000E+00 -0.00000000000E+00 -0.64736698487E+03  0.64736823061E+03  0.12700000000E+01 0.  1.
         25    2    1    2    0    0  0.00000000000E+00  0.00000000000E+00 -0.64140112164E+03  0.65346777355E+03  0.12499892894E+03 0.  0.
    9000005    1    3    3    0    0  0.15163063592E+02 -0.54460332953E+02 -0.18146694653E+03  0.19007129990E+03  0.10000000000E+01 0.  0.
    9000005    1    3    3    0    0 -0.15163063592E+02  0.54460332953E+02 -0.45993417511E+03  0.46339647365E+03  0.10000000000E+01 0.  0.
<mgrwt>
<rscale>  0 0.12499893E+03</rscale>
<asrwt>0</asrwt>
<pdfrwt beam="1">  1        4 0.92820451E-03 0.12499893E+03</pdfrwt>
<pdfrwt beam="2">  1       -4 0.99605245E-01 0.12499893E+03</pdfrwt>
<totfact> 0.45658489E+03</totfact>
</mgrwt>
</event>
<event>
 5    1  0.3311405E-002  0.1249982E+03  0.7818608E-02  0.1235072E+00
         -4   -1    0    0    0  501 -0.00000000000E+00  0.00000000000E+00  0.12876014356E+04  0.12876020619E+04  0.12700000000E+01 0.  1.
          4   -1    0    0  501    0  0.00000000000E+00 -0.00000000000E+00 -0.29000846378E+01  0.31659739270E+01  0.12700000000E+01 0.  1.
         25    2    1    2    0    0  0.00000000000E+00  0.00000000000E+00  0.12847013509E+04  0.12907680358E+04  0.12499824478E+03 0.  0.
    9000005    1    3    3    0    0  0.38414764009E+02  0.43822592637E+02  0.40937288730E+03  0.41350123890E+03  0.10000000000E+01 0.  0.
    9000005    1    3    3    0    0 -0.38414764009E+02 -0.43822592637E+02  0.87532846365E+03  0.87726679693E+03  0.10000000000E+01 0.  0.
<mgrwt>
<rscale>  0 0.12499824E+03</rscale>
<asrwt>0</asrwt>
<pdfrwt beam="2">  1        4 0.46666866E-03 0.12499824E+03</pdfrwt>
<pdfrwt beam="1">  1       -4 0.19811278E+00 0.12499824E+03</pdfrwt>
<totfact> 0.22448357E+03</totfact>
</mgrwt>
</event>
<event>
 5    1  0.3311405E-002  0.1249993E+03  0.7818608E-02  0.1235070E+00
         -4   -1    0    0    0  501 -0.00000000000E+00  0.00000000000E+00  0.60506547157E+01  0.61825013133E+01  0.12700000000E+01 0.  1.
          4   -1    0    0  501    0  0.00000000000E+00 -0.00000000000E+00 -0.63849368851E+03  0.63849495156E+03  0.12700000000E+01 0.  1.
         25    2    1    2    0    0  0.00000000000E+00  0.00000000000E+00 -0.63244303379E+03  0.64467745287E+03  0.12499930899E+03 0.  0.
    9000005    1    3    3    0    0  0.30606050161E+01  0.44395993461E+01 -0.63731685958E+03  0.63734045599E+03  0.10000000000E+01 0.  0.
    9000005    1    3    3    0    0 -0.30606050161E+01 -0.44395993461E+01  0.48738257837E+01  0.73369968780E+01  0.10000000000E+01 0.  0.
<mgrwt>
<rscale>  0 0.12499931E+03</rscale>
<asrwt>0</asrwt>
<pdfrwt beam="2">  1        4 0.98239985E-01 0.12499931E+03</pdfrwt>
<pdfrwt beam="1">  1       -4 0.94110966E-03 0.12499931E+03</pdfrwt>
<totfact> 0.46164259E+03</totfact>
</mgrwt>
</event>
<event>
 5    1  0.3311405E-002  0.1250033E+03  0.7818608E-02  0.1235064E+00
         -4   -1    0    0    0  501 -0.00000000000E+00  0.00000000000E+00  0.18166863948E+02  0.18211201106E+02  0.12700000000E+01 0. -1.
          4   -1    0    0  501    0  0.00000000000E+00 -0.00000000000E+00 -0.21472360624E+03  0.21472736196E+03  0.12700000000E+01 0. -1.
         25    2    1    2    0    0  0.00000000000E+00  0.00000000000E+00 -0.19655674229E+03  0.23293856307E+03  0.12500328486E+03 0.  0.
    9000005    1    3    3    0    0  0.49834085149E+01 -0.36424950037E+01  0.17606537793E+02  0.18684011971E+02  0.10000000000E+01 0.  0.
    9000005    1    3    3    0    0 -0.49834085149E+01  0.36424950037E+01 -0.21416328008E+03  0.21425455110E+03  0.10000000000E+01 0.  0.
<mgrwt>
<rscale>  0 0.12500328E+03</rscale>
<asrwt>0</asrwt>
<pdfrwt beam="2">  1        4 0.33038099E-01 0.12500328E+03</pdfrwt>
<pdfrwt beam="1">  1       -4 0.27986017E-02 0.12500328E+03</pdfrwt>
<totfact> 0.84854194E+03</totfact>
</mgrwt>
</event>
<event>
 5    1  0.3311405E-002  0.1249979E+03  0.7818608E-02  0.1235072E+00
          4   -1    0    0  501    0  0.00000000000E+00  0.00000000000E+00  0.68307911541E+01  0.69478491485E+01  0.12700000000E+01 0. -1.
         -4   -1    0    0    0  501 -0.00000000000E+00 -0.00000000000E+00 -0.56686436930E+03  0.56686579195E+03  0.12700000000E+01 0. -1.
         25    2    1    2    0    0  0.00000000000E+00  0.00000000000E+00 -0.56003357815E+03  0.57381364110E+03  0.12499794422E+03 0.  0.
    9000005    1    3    3    0    0 -0.45721937791E+02  0.10352183165E+02 -0.46970617962E+03  0.47204084406E+03  0.10000000000E+01 0.  0.
    9000005    1    3    3    0    0  0.45721937791E+02 -0.10352183165E+02 -0.90327398531E+02  0.10177279704E+03  0.10000000000E+01 0.  0.
<mgrwt>
<rscale>  0 0.12499794E+03</rscale>
<asrwt>0</asrwt>
<pdfrwt beam="1">  1        4 0.10600053E-02 0.12499794E+03</pdfrwt>
<pdfrwt beam="2">  1       -4 0.87218980E-01 0.12499794E+03</pdfrwt>
<totfact> 0.50565714E+03</totfact>
</mgrwt>
</event>
<event>
 5    1  0.3311405E-002  0.1249982E+03  0.7818608E-02  0.1235072E+00
         -4   -1    0    0    0  501 -0.00000000000E+00  0.00000000000E+00  0.12130183094E+03  0.12130847905E+03  0.12700000000E+01 0. -1.
          4   -1    0    0  501    0  0.00000000000E+00 -0.00000000000E+00 -0.32181759370E+02  0.32206808848E+02  0.12700000000E+01 0. -1.
         25    2    1    2    0    0  0.00000000000E+00  0.00000000000E+00  0.89120071572E+02  0.15351528790E+03  0.12499822584E+03 0.  0.
    9000005    1    3    3    0    0 -0.26878345152E+02  0.51261886991E+02  0.15629259752E+02  0.59962490412E+02  0.10000000000E+01 0.  0.
    9000005    1    3    3    0    0  0.26878345152E+02 -0.51261886991E+02  0.73490811820E+02  0.93552797489E+02  0.10000000000E+01 0.  0.
<mgrwt>
<rscale>  0 0.12499823E+03</rscale>
<asrwt>0</asrwt>
<pdfrwt beam="2">  1        4 0.49534782E-02 0.12499823E+03</pdfrwt>
<pdfrwt beam="1">  1       -4 0.18664258E-01 0.12499823E+03</pdfrwt>
<totfact> 0.98611473E+03</totfact>
</mgrwt>
</event>
<event>
 5    1  0.3311405E-002  0.1250003E+03  0.7818608E-02  0.1235069E+00
         -4   -1    0    0    0  501 -0.00000000000E+00  0.00000000000E+00  0.20007856632E+03  0.20008259695E+03  0.12700000000E+01 0. -1.
          4   -1    0    0  501    0  0.00000000000E+00 -0.00000000000E+00 -0.19498796841E+02  0.19540112032E+02  0.12700000000E+01 0. -1.
         25    2    1    2    0    0  0.00000000000E+00  0.00000000000E+00  0.18057976948E+03  0.21962270898E+03  0.12500032461E+03 0.  0.
    9000005    1    3    3    0    0  0.46564081427E+02 -0.16965652164E+02  0.15717565774E+03  0.16480665769E+03  0.10000000000E+01 0.  0.
    9000005    1    3    3    0    0 -0.46564081427E+02  0.16965652164E+02  0.23404111735E+02  0.54816051286E+02  0.10000000000E+01 0.  0.
<mgrwt>
<rscale>  0 0.12500032E+03</rscale>
<asrwt>0</asrwt>
<pdfrwt beam="2">  1        4 0.30033028E-02 0.12500032E+03</pdfrwt>
<pdfrwt beam="1">  1       -4 0.30784809E-01 0.12500032E+03</pdfrwt>
<totfact> 0.86927453E+03</totfact>
</mgrwt>
</event>
<event>
 5    1  0.3311405E-002  0.1249970E+03  0.7818608E-02  0.1235074E+00
          4   -1    0    0  501    0  0.00000000000E+00  0.00000000000E+00  0.34803816495E+01  0.37048557902E+01  0.12700000000E+01 0. -1.
         -4   -1    0    0    0  501 -0.00000000000E+00 -0.00000000000E+00 -0.10870210409E+04  0.10870217828E+04  0.12700000000E+01 0. -1.
         25    2    1    2    0    0  0.00000000000E+00  0.00000000000E+00 -0.10835406593E+04  0.10907266386E+04  0.12499695940E+03 0.  0.
    9000005    1    3    3    0    0  0.40955470460E+02  0.16492703574E+02 -0.15587670481E+03  0.16201205799E+03  0.10000000000E+01 0.  0.
    9000005    1    3    3    0    0 -0.40955470460E+02 -0.16492703574E+02 -0.92766395447E+03  0.92871458062E+03  0.10000000000E+01 0.  0.
<mgrwt>
<rscale>  0 0.12499696E+03</rscale>
<asrwt>0</asrwt>
<pdfrwt beam="1">  1        4 0.55276851E-03 0.12499696E+03</pdfrwt>
<pdfrwt beam="2">  1       -4 0.16725107E+00 0.12499696E+03</pdfrwt>
<totfact> 0.27758278E+03</totfact>
</mgrwt>
</event>
<event>
 5    1  0.3311405E-002  0.1249985E+03  0.7818608E-02  0.1235072E+00
         -4   -1    0    0    0  501 -0.00000000000E+00  0.00000000000E+00  0.27363295659E+02  0.27392751766E+02  0.12700000000E+01 0.  1.
          4   -1    0    0  501    0  0.00000000000E+00 -0.00000000000E+00 -0.14264267201E+03  0.14264832553E+03  0.12700000000E+01 0.  1.
         25    2    1    2    0    0  0.00000000000E+00  0.00000000000E+00 -0.11527937635E+03  0.17004107730E+03  0.12499853342E+03 0.  0.
    9000005    1    3    3    0    0 -0.28879708845E+02  0.44944240106E+02 -0.10174373019E+03  0.11492088119E+03  0.10000000000E+01 0.  0.
    9000005    1    3    3    0    0  0.28879708845E+02 -0.44944240106E+02 -0.13535646159E+02  0.55120196104E+02  0.10000000000E+01 0.  0.
<mgrwt>
<rscale>  0 0.12499853E+03</rscale>
<asrwt>0</asrwt>
<pdfrwt beam="2">  1        4 0.21947727E-01 0.12499853E+03</pdfrwt>
<pdfrwt beam="1">  1       -4 0.42124386E-02 0.12499853E+03</pdfrwt>
<totfact> 0.95444123E+03</totfact>
</mgrwt>
</event>
<event>
 5    1  0.3311405E-002  0.1250138E+03  0.7818608E-02  0.1235048E+00
          4   -1    0    0  501    0  0.00000000000E+00  0.00000000000E+00  0.14361420460E+01  0.19171343136E+01  0.12700000000E+01 0.  1.
         -4   -1    0    0    0  501 -0.00000000000E+00 -0.00000000000E+00 -0.23298441877E+04  0.23298445338E+04  0.12700000000E+01 0.  1.
         25    2    1    2    0    0  0.00000000000E+00  0.00000000000E+00 -0.23284080457E+04  0.23317616682E+04  0.12501379924E+03 0.  0.
    9000005    1    3    3    0    0  0.95158398008E+01 -0.37603168015E+02 -0.25014718649E+03  0.25313862676E+03  0.10000000000E+01 0.  0.
    9000005    1    3    3    0    0 -0.95158398008E+01  0.37603168015E+02 -0.20782608592E+04  0.20786230414E+04  0.10000000000E+01 0.  0.
<mgrwt>
<rscale>  0 0.12501380E+03</rscale>
<asrwt>0</asrwt>
<pdfrwt beam="1">  1        4 0.25797283E-03 0.12501380E+03</pdfrwt>
<pdfrwt beam="2">  1       -4 0.35847200E+00 0.12501380E+03</pdfrwt>
<totfact> 0.61273226E+02</totfact>
</mgrwt>
</event>
<event>
 5    1  0.3311405E-002  0.1249994E+03  0.7818608E-02  0.1235070E+00
          4   -1    0    0  501    0  0.00000000000E+00  0.00000000000E+00  0.10547445805E+02  0.10623629936E+02  0.12700000000E+01 0.  1.
         -4   -1    0    0    0  501 -0.00000000000E+00 -0.00000000000E+00 -0.36893669137E+03  0.36893887724E+03  0.12700000000E+01 0.  1.
         25    2    1    2    0    0  0.00000000000E+00  0.00000000000E+00 -0.35838924557E+03  0.37956250718E+03  0.12499938207E+03 0.  0.
    9000005    1    3    3    0    0  0.63873934406E+01 -0.26724532140E+02 -0.34962434221E+03  0.35070383528E+03  0.10000000000E+01 0.  0.
    9000005    1    3    3    0    0 -0.63873934406E+01  0.26724532140E+02 -0.87649033600E+01  0.28858671903E+02  0.10000000000E+01 0.  0.
<mgrwt>
<rscale>  0 0.12499938E+03</rscale>
<asrwt>0</asrwt>
<pdfrwt beam="1">  1        4 0.16287127E-02 0.12499938E+03</pdfrwt>
<pdfrwt beam="2">  1       -4 0.56765510E-01 0.12499938E+03</pdfrwt>
<totfact> 0.66591159E+03</totfact>
</mgrwt>
</event>
<event>
 5    1  0.3311405E-002  0.1250023E+03  0.7818608E-02  0.1235066E+00
         -4   -1    0    0    0  501 -0.00000000000E+00  0.00000000000E+00  0.19674652397E+02  0.19715599077E+02  0.12700000000E+01 0. -1.
          4   -1    0    0  501    0  0.00000000000E+00 -0.00000000000E+00 -0.19830026082E+03  0.19830432759E+03  0.12700000000E+01 0. -1.
         25    2    1    2    0    0  0.00000000000E+00  0.00000000000E+00 -0.17862560842E+03  0.21801992667E+03  0.12500232174E+03 0.  0.
    9000005    1    3    3    0    0 -0.20425281458E+02 -0.53573146458E+02 -0.13267535754E+03  0.14453727770E+03  0.10000000000E+01 0.  0.
    9000005    1    3    3    0    0  0.20425281458E+02  0.53573146458E+02 -0.45950250876E+02  0.73482648970E+02  0.10000000000E+01 0.  0.
<mgrwt>
<rscale>  0 0.12500232E+03</rscale>
<asrwt>0</asrwt>
<pdfrwt beam="2">  1        4 0.30511194E-01 0.12500232E+03</pdfrwt>
<pdfrwt beam="1">  1       -4 0.30303323E-02 0.12500232E+03</pdfrwt>
<totfact> 0.87178122E+03</totfact>
</mgrwt>
</event>
<event>
 5    1  0.3311405E-002  0.1250044E+03  0.7818608E-02  0.1235062E+00
          4   -1    0    0  501    0  0.00000000000E+00  0.00000000000E+00  0.14125111305E+02  0.14182089740E+02  0.12700000000E+01 0. -1.
         -4   -1    0    0    0  501 -0.00000000000E+00 -0.00000000000E+00 -0.27595078227E+03  0.27595370470E+03  0.12700000000E+01 0. -1.
         25    2    1    2    0    0  0.00000000000E+00  0.00000000000E+00 -0.26182567097E+03  0.29013579444E+03  0.12500438887E+03 0.  0.
    9000005    1    3    3    0    0 -0.32356519271E+01 -0.81811802250E+01  0.12691979222E+02  0.15475383351E+02  0.10000000000E+01 0.  0.
    9000005    1    3    3    0    0  0.32356519271E+01  0.81811802250E+01 -0.27451765019E+03  0.27466041109E+03  0.10000000000E+01 0.  0.
<mgrwt>
<rscale>  0 0.12500439E+03</rscale>
<asrwt>0</asrwt>
<pdfrwt beam="1">  1        4 0.21777020E-02 0.12500439E+03</pdfrwt>
<pdfrwt beam="2">  1       -4 0.42458570E-01 0.12500439E+03</pdfrwt>
<totfact> 0.76845594E+03</totfact>
</mgrwt>
</event>
<event>
 5    1  0.3311405E-002  0.1250012E+03  0.7818608E-02  0.1235067E+00
          4   -1    0    0  501    0  0.00000000000E+00  0.00000000000E+00  0.13054519252E+02  0.13116149317E+02  0.12700000000E+01 0.  1.
         -4   -1    0    0    0  501 -0.00000000000E+00 -0.00000000000E+00 -0.29846408700E+03  0.29846678898E+03  0.12700000000E+01 0.  1.
         25    2    1    2    0    0  0.00000000000E+00  0.00000000000E+00 -0.28540956774E+03  0.31158293830E+03  0.12500122431E+03 0.  0.
    9000005    1    3    3    0    0  0.19440373438E+02 -0.48929359234E+02 -0.22661888585E+03  0.23265667783E+03  0.10000000000E+01 0.  0.
    9000005    1    3    3    0    0 -0.19440373438E+02  0.48929359234E+02 -0.58790681894E+02  0.78926260471E+02  0.10000000000E+01 0.  0.
<mgrwt>
<rscale>  0 0.12500122E+03</rscale>
<asrwt>0</asrwt>
<pdfrwt beam="1">  1        4 0.20133364E-02 0.12500122E+03</pdfrwt>
<pdfrwt beam="2">  1       -4 0.45922495E-01 0.12500122E+03</pdfrwt>
<totfact> 0.74166481E+03</totfact>
</mgrwt>
</event>
<event>
 5    1  0.3311405E-002  0.1249996E+03  0.7818608E-02  0.1235070E+00
          4   -1    0    0  501    0  0.00000000000E+00  0.00000000000E+00  0.18649083697E+02  0.18692277089E+02  0.12700000000E+01 0. -1.
         -4   -1    0    0    0  501 -0.00000000000E+00 -0.00000000000E+00 -0.20917195682E+03  0.20917581223E+03  0.12700000000E+01 0. -1.
         25    2    1    2    0    0  0.00000000000E+00  0.00000000000E+00 -0.19052287312E+03  0.22786808931E+03  0.12499960378E+03 0.  0.
    9000005    1    3    3    0    0  0.55708093302E+02 -0.26748579321E+02 -0.11220086314E+03  0.12809727493E+03  0.10000000000E+01 0.  0.
    9000005    1    3    3    0    0 -0.55708093302E+02  0.26748579321E+02 -0.78322009980E+02  0.99770814381E+02  0.10000000000E+01 0.  0.
<mgrwt>
<rscale>  0 0.12499960E+03</rscale>
<asrwt>0</asrwt>
<pdfrwt beam="1">  1        4 0.28727091E-02 0.12499960E+03</pdfrwt>
<pdfrwt beam="2">  1       -4 0.32183919E-01 0.12499960E+03</pdfrwt>
<totfact> 0.85638790E+03</totfact>
</mgrwt>
</event>
<event>
 5    1  0.3311405E-002  0.1250027E+03  0.7818608E-02  0.1235065E+00
         -4   -1    0    0    0  501 -0.00000000000E+00  0.00000000000E+00  0.12449498414E+03  0.12450146174E+03  0.12700000000E+01 0. -1.
          4   -1    0    0  501    0  0.00000000000E+00 -0.00000000000E+00 -0.31357984981E+02  0.31383691977E+02  0.12700000000E+01 0. -1.
         25    2    1    2    0    0  0.00000000000E+00  0.00000000000E+00  0.93136999159E+02  0.15588515372E+03  0.12500272212E+03 0.  0.
    9000005    1    3    3    0    0  0.23939702651E+02  0.50970759441E+02  0.80360960285E+02  0.98132622603E+02  0.10000000000E+01 0.  0.
    9000005    1    3    3    0    0 -0.23939702651E+02 -0.50970759441E+02  0.12776038874E+02  0.57752531116E+02  0.10000000000E+01 0.  0.
<mgrwt>
<rscale>  0 0.12500272E+03</rscale>
<asrwt>0</asrwt>
<pdfrwt beam="2">  1        4 0.48267810E-02 0.12500272E+03</pdfrwt>
<pdfrwt beam="1">  1       -4 0.19155551E-01 0.12500272E+03</pdfrwt>
<totfact> 0.98136004E+03</totfact>
</mgrwt>
</event>
<event>
 5    1  0.3311405E-002  0.1250019E+03  0.7818608E-02  0.1235066E+00
          4   -1    0    0  501    0  0.00000000000E+00  0.00000000000E+00  0.34783773340E+03  0.34784005185E+03  0.12700000000E+01 0. -1.
         -4   -1    0    0    0  501 -0.00000000000E+00 -0.00000000000E+00 -0.11192157467E+02  0.11263981924E+02  0.12700000000E+01 0. -1.
         25    2    1    2    0    0  0.00000000000E+00  0.00000000000E+00  0.33664557593E+03  0.35910403378E+03  0.12500185312E+03 0.  0.
    9000005    1    3    3    0    0  0.54533419988E+02 -0.57503118610E+01  0.25443011641E+03  0.26027417105E+03  0.10000000000E+01 0.  0.
    9000005    1    3    3    0    0 -0.54533419988E+02  0.57503118610E+01  0.82215459523E+02  0.98829862727E+02  0.10000000000E+01 0.  0.
<mgrwt>
<rscale>  0 0.12500185E+03</rscale>
<asrwt>0</asrwt>
<pdfrwt beam="1">  1        4 0.53519203E-01 0.12500185E+03</pdfrwt>
<pdfrwt beam="2">  1       -4 0.17275736E-02 0.12500185E+03</pdfrwt>
<totfact> 0.68731657E+03</totfact>
</mgrwt>
</event>
<event>
 5    1  0.3311405E-002  0.1249998E+03  0.7818608E-02  0.1235070E+00
         -4   -1    0    0    0  501 -0.00000000000E+00  0.00000000000E+00  0.18754549178E+02  0.18797500229E+02  0.12700000000E+01 0.  1.
          4   -1    0    0  501    0  0.00000000000E+00 -0.00000000000E+00 -0.20799916045E+03  0.20800303759E+03  0.12700000000E+01 0.  1.
         25    2    1    2    0    0  0.00000000000E+00  0.00000000000E+00 -0.18924461127E+03  0.22680053782E+03  0.12499984424E+03 0.  0.
    9000005    1    3    3    0    0 -0.16579941031E+02 -0.59283179812E+02 -0.75093153024E+02  0.97104950874E+02  0.10000000000E+01 0.  0.
    9000005    1    3    3    0    0  0.16579941031E+02  0.59283179812E+02 -0.11415145824E+03  0.12969558694E+03  0.10000000000E+01 0.  0.
<mgrwt>
<rscale>  0 0.12499984E+03</rscale>
<asrwt>0</asrwt>
<pdfrwt beam="2">  1        4 0.32003471E-01 0.12499984E+03</pdfrwt>
<pdfrwt beam="1">  1       -4 0.28889176E-02 0.12499984E+03</pdfrwt>
<totfact> 0.85803610E+03</totfact>
</mgrwt>
</event>
<event>
 5    1  0.3311405E-002  0.1249990E+03  0.7818608E-02  0.1235071E+00
          4   -1    0    0  501    0  0.00000000000E+00  0.00000000000E+00  0.50310944388E+03  0.50311104681E+03  0.12700000000E+01 0.  1.
         -4   -1    0    0    0  501 -0.00000000000E+00 -0.00000000000E+00 -0.77105297260E+01  0.78144205579E+01  0.12700000000E+01 0.  1.
         25    2    1    2    0    0  0.00000000000E+00  0.00000000000E+00  0.49539891415E+03  0.51092546736E+03  0.12499899623E+03 0.  0.
    9000005    1    3    3    0    0  0.49972662280E+02  0.14243636774E+02  0.38958939373E+03  0.39304076617E+03  0.10000000000E+01 0.  0.
    9000005    1    3    3    0    0 -0.49972662280E+02 -0.14243636774E+02  0.10580952042E+03  0.11788470119E+03  0.10000000000E+01 0.  0.
<mgrwt>
<rscale>  0 0.12499900E+03</rscale>
<asrwt>0</asrwt>
<pdfrwt beam="1">  1        4 0.77409580E-01 0.12499900E+03</pdfrwt>
<pdfrwt beam="2">  1       -4 0.11943501E-02 0.12499900E+03</pdfrwt>
<totfact> 0.55027745E+03</totfact>
</mgrwt>
</event>
<event>
 5    1  0.3311405E-002  0.1250039E+03  0.7818608E-02  0.1235063E+00
          4   -1    0    0  501    0  0.00000000000E+00  0.00000000000E+00  0.31577706751E+02  0.31603235018E+02  0.12700000000E+01 0.  1.
         -4   -1    0    0    0  501 -0.00000000000E+00 -0.00000000000E+00 -0.12363166662E+03  0.12363818945E+03  0.12700000000E+01 0.  1.
         25    2    1    2    0    0  0.00000000000E+00  0.00000000000E+00 -0.92053959870E+02  0.15524142447E+03  0.12500387332E+03 0.  0.
    9000005    1    3    3    0    0 -0.16077382652E+02  0.40570523299E+02 -0.10158059235E+03  0.11056249968E+03  0.10000000000E+01 0.  0.
    9000005    1    3    3    0    0  0.16077382652E+02 -0.40570523299E+02  0.95266324830E+01  0.44678924788E+02  0.10000000000E+01 0.  0.
<mgrwt>
<rscale>  0 0.12500387E+03</rscale>
<asrwt>0</asrwt>
<pdfrwt beam="1">  1        4 0.48605743E-02 0.12500387E+03</pdfrwt>
<pdfrwt beam="2">  1       -4 0.19022722E-01 0.12500387E+03</pdfrwt>
<totfact> 0.98259566E+03</totfact>
</mgrwt>
</event>
<event>
 5    1  0.3311405E-002  0.1250048E+03  0.7818608E-02  0.1235062E+00
          4   -1    0    0  501    0  0.00000000000E+00  0.00000000000E+00  0.16011454800E+02  0.16061742895E+02  0.12700000000E+01 0. -1.
         -4   -1    0    0    0  501 -0.00000000000E+00 -0.00000000000E+00 -0.24355033155E+03  0.24355364275E+03  0.12700000000E+01 0. -1.
         25    2    1    2    0    0  0.00000000000E+00  0.00000000000E+00 -0.22753887675E+03  0.25961538565E+03  0.12500483204E+03 0.  0.
    9000005    1    3    3    0    0  0.34491674829E+02  0.21325017749E+02 -0.21252587947E+03  0.21636238457E+03  0.10000000000E+01 0.  0.
    9000005    1    3    3    0    0 -0.34491674829E+02 -0.21325017749E+02 -0.15012997281E+02  0.43253001073E+02  0.10000000000E+01 0.  0.
<mgrwt>
<rscale>  0 0.12500483E+03</rscale>
<asrwt>0</asrwt>
<pdfrwt beam="1">  1        4 0.24674239E-02 0.12500483E+03</pdfrwt>
<pdfrwt beam="2">  1       -4 0.37473402E-01 0.12500483E+03</pdfrwt>
<totfact> 0.80951360E+03</totfact>
</mgrwt>
</event>
<event>
 5    1  0.3311405E-002  0.1250054E+03  0.7818608E-02  0.1235061E+00
         -4   -1    0    0    0  501 -0.00000000000E+00  0.00000000000E+00  0.25649004704E+02  0.25680427222E+02  0.12700000000E+01 0. -1.
          4   -1    0    0  501    0  0.00000000000E+00 -0.00000000000E+00 -0.15218224716E+03  0.15218754631E+03  0.12700000000E+01 0. -1.
         25    2    1    2    0    0  0.00000000000E+00  0.00000000000E+00 -0.12653324246E+03  0.17786797353E+03  0.12500541812E+03 0.  0.
    9000005    1    3    3    0    0 -0.48562840899E+02  0.25879210133E+01 -0.74188736882E+01  0.49204537780E+02  0.10000000000E+01 0.  0.
    9000005    1    3    3    0    0  0.48562840899E+02 -0.25879210133E+01 -0.11911436877E+03  0.12866343575E+03  0.10000000000E+01 0.  0.
<mgrwt>
<rscale>  0 0.12500542E+03</rscale>
<asrwt>0</asrwt>
<pdfrwt beam="2">  1        4 0.23415478E-01 0.12500542E+03</pdfrwt>
<pdfrwt beam="1">  1       -4 0.39488255E-02 0.12500542E+03</pdfrwt>
<totfact> 0.93990767E+03</totfact>
</mgrwt>
</event>
<event>
 5    1  0.3311405E-002  0.1250004E+03  0.7818608E-02  0.1235069E+00
         -4   -1    0    0    0  501 -0.00000000000E+00  0.00000000000E+00  0.25535705480E+03  0.25536021291E+03  0.12700000000E+01 0. -1.
          4   -1    0    0  501    0  0.00000000000E+00 -0.00000000000E+00 -0.15267697990E+02  0.15320427603E+02  0.12700000000E+01 0. -1.
         25    2    1    2    0    0  0.00000000000E+00  0.00000000000E+00  0.24008935681E+03  0.27068064051E+03  0.12500043958E+03 0.  0.
    9000005    1    3    3    0    0  0.81193982534E+01  0.56626396520E+02  0.65571805002E+02  0.87023761249E+02  0.10000000000E+01 0.  0.
    9000005    1    3    3    0    0 -0.81193982534E+01 -0.56626396520E+02  0.17451755181E+03  0.18365687927E+03  0.10000000000E+01 0.  0.
<mgrwt>
<rscale>  0 0.12500044E+03</rscale>
<asrwt>0</asrwt>
<pdfrwt beam="2">  1        4 0.23531759E-02 0.12500044E+03</pdfrwt>
<pdfrwt beam="1">  1       -4 0.39289997E-01 0.12500044E+03</pdfrwt>
<totfact> 0.79429388E+03</totfact>
</mgrwt>
</event>
<event>
 5    1  0.3311405E-002  0.1249948E+03  0.7818608E-02  0.1235077E+00
          4   -1    0    0  501    0  0.00000000000E+00  0.00000000000E+00  0.20172796475E+03  0.20173196242E+03  0.12700000000E+01 0.  1.
         -4   -1    0    0    0  501 -0.00000000000E+00 -0.00000000000E+00 -0.19337332150E+02  0.19378991581E+02  0.12700000000E+01 0.  1.
         25    2    1    2    0    0  0.00000000000E+00  0.00000000000E+00  0.18239063260E+03  0.22111095400E+03  0.12499484437E+03 0.  0.
    9000005    1    3    3    0    0 -0.31510000377E+02  0.18016399936E+02  0.18117712694E+03  0.18477992888E+03  0.10000000000E+01 0.  0.
    9000005    1    3    3    0    0  0.31510000377E+02 -0.18016399936E+02  0.12135056591E+01  0.36331025122E+02  0.10000000000E+01 0.  0.
<mgrwt>
<rscale>  0 0.12499484E+03</rscale>
<asrwt>0</asrwt>
<pdfrwt beam="1">  1        4 0.31038583E-01 0.12499484E+03</pdfrwt>
<pdfrwt beam="2">  1       -4 0.29784863E-02 0.12499484E+03</pdfrwt>
<totfact> 0.86702843E+03</totfact>
</mgrwt>
</event>
<event>
 5    1  0.3311405E-002  0.1249939E+03  0.7818608E-02  0.1235079E+00
          4   -1    0    0  501    0  0.00000000000E+00  0.00000000000E+00  0.91132140345E+02  0.91140989153E+02  0.12700000000E+01 0. -1.
         -4   -1    0    0    0  501 -0.00000000000E+00 -0.00000000000E+00 -0.42839024865E+02  0.42857845856E+02  0.12700000000E+01 0. -1.
         25    2    1    2    0    0  0.00000000000E+00  0.00000000000E+00  0.48293115480E+02  0.13399883501E+03  0.12499385097E+03 0.  0.
    9000005    1    3    3    0    0 -0.14871313337E+02  0.59482419756E+02  0.11212920398E+02  0.62338140847E+02  0.10000000000E+01 0.  0.
    9000005    1    3    3    0    0  0.14871313337E+02 -0.59482419756E+02  0.37080195082E+02  0.71660694162E+02  0.10000000000E+01 0.  0.
<mgrwt>
<rscale>  0 0.12499385E+03</rscale>
<asrwt>0</asrwt>
<pdfrwt beam="1">  1        4 0.14022458E-01 0.12499385E+03</pdfrwt>
<pdfrwt beam="2">  1       -4 0.65927477E-02 0.12499385E+03</pdfrwt>
<totfact> 0.10260639E+04</totfact>
</mgrwt>
</event>
<event>
 5    1  0.3311405E-002  0.1250051E+03  0.7818608E-02  0.1235061E+00
         -4   -1    0    0    0  501 -0.00000000000E+00  0.00000000000E+00  0.24909365998E+03  0.24909689750E+03  0.12700000000E+01 0. -1.
          4   -1    0    0  501    0  0.00000000000E+00 -0.00000000000E+00 -0.15654078551E+02  0.15705510984E+02  0.12700000000E+01 0. -1.
         25    2    1    2    0    0  0.00000000000E+00  0.00000000000E+00  0.23343958143E+03  0.26480240848E+03  0.12500510933E+03 0.  0.
    9000005    1    3    3    0    0 -0.41174472675E+01 -0.49823701095E+02  0.19615627142E+03  0.20242933923E+03  0.10000000000E+01 0.  0.
    9000005    1    3    3    0    0  0.41174472675E+01  0.49823701095E+02  0.37283310010E+02  0.62373069254E+02  0.10000000000E+01 0.  0.
<mgrwt>
<rscale>  0 0.12500511E+03</rscale>
<asrwt>0</asrwt>
<pdfrwt beam="2">  1        4 0.24125253E-02 0.12500511E+03</pdfrwt>
<pdfrwt beam="1">  1       -4 0.38326305E-01 0.12500511E+03</pdfrwt>
<totfact> 0.80227678E+03</totfact>
</mgrwt>
</event>
<event>
 4    1  0.3311405E-002  0.1249108E+03  0.7818608E-02  0.1235209E+00
          4   -1    0    0  501    0  0.00000000000E+00  0.00000000000E+00  0.79271085478E+03  0.79271187211E+03  0.12700000000E+01 0.  1.
         -4   -1    0    0    0  501 -0.00000000000E+00 -0.00000000000E+00 -0.48376977208E+01  0.50016216608E+01  0.12700000000E+01 0.  1.
    9000005    1    1    2    0    0  0.76219588092E+00 -0.54413277460E+02  0.58955769207E+03  0.59206474138E+03  0.10000000000E+01 0.  0.
    9000005    1    1    2    0    0 -0.76219588092E+00  0.54413277460E+02  0.19831546499E+03  0.20564875239E+03  0.10000000000E+01 0.  0.
<mgrwt>
<rscale>  0 0.12491079E+03</rscale>
<asrwt>0</asrwt>
<pdfrwt beam="1">  1        4 0.12196812E+00 0.12491079E+03</pdfrwt>
<pdfrwt beam="2">  1       -4 0.75694949E-03 0.12491079E+03</pdfrwt>
<totfact> 0.38441898E+03</totfact>
</mgrwt>
</event>
<event>
 5    1  0.3311405E-002  0.1249973E+03  0.7818608E-02  0.1235074E+00
         -4   -1    0    0    0  501 -0.00000000000E+00  0.00000000000E+00  0.10637633279E+03  0.10638391363E+03  0.12700000000E+01 0. -1.
          4   -1    0    0  501    0  0.00000000000E+00 -0.00000000000E+00 -0.36699564768E+02  0.36721532569E+02  0.12700000000E+01 0. -1.
         25    2    1    2    0    0  0.00000000000E+00  0.00000000000E+00  0.69676768026E+02  0.14310544620E+03  0.12499726688E+03 0.  0.
    9000005    1    3    3    0    0 -0.29038022752E+02 -0.50603498039E+02  0.92087058102E+01  0.59073860901E+02  0.10000000000E+01 0.  0.
    9000005    1    3    3    0    0  0.29038022752E+02  0.50603498039E+02  0.60468062216E+02  0.84031585295E+02  0.10000000000E+01 0.  0.
<mgrwt>
<rscale>  0 0.12499727E+03</rscale>
<asrwt>0</asrwt>
<pdfrwt beam="2">  1        4 0.56483598E-02 0.12499727E+03</pdfrwt>
<pdfrwt beam="1">  1       -4 0.16367863E-01 0.12499727E+03</pdfrwt>
<totfact> 0.10070244E+04</totfact>
</mgrwt>
</event>
<event>
 5    1  0.3311405E-002  0.1250245E+03  0.7818608E-02  0.1235031E+00
          4   -1    0    0  501    0  0.00000000000E+00  0.00000000000E+00  0.10051264796E+02  0.10131180780E+02  0.12700000000E+01 0. -1.
         -4   -1    0    0    0  501 -0.00000000000E+00 -0.00000000000E+00 -0.38716463691E+03  0.38716671987E+03  0.12700000000E+01 0. -1.
         25    2    1    2    0    0  0.00000000000E+00  0.00000000000E+00 -0.37711337211E+03  0.39729790065E+03  0.12502450333E+03 0.  0.
    9000005    1    3    3    0    0 -0.42905867022E+02 -0.26160998915E+00 -0.33298929024E+03  0.33574372560E+03  0.10000000000E+01 0.  0.
    9000005    1    3    3    0    0  0.42905867022E+02  0.26160998915E+00 -0.44124081868E+02  0.61554175044E+02  0.10000000000E+01 0.  0.
<mgrwt>
<rscale>  0 0.12502450E+03</rscale>
<asrwt>0</asrwt>
<pdfrwt beam="1">  1        4 0.15526563E-02 0.12502450E+03</pdfrwt>
<pdfrwt beam="2">  1       -4 0.59570086E-01 0.12502450E+03</pdfrwt>
<totfact> 0.64781394E+03</totfact>
</mgrwt>
</event>
<event>
 5    1  0.3311405E-002  0.1249989E+03  0.7818608E-02  0.1235071E+00
         -4   -1    0    0    0  501 -0.00000000000E+00  0.00000000000E+00  0.48567073621E+02  0.48583675655E+02  0.12700000000E+01 0. -1.
          4   -1    0    0  501    0  0.00000000000E+00 -0.00000000000E+00 -0.80393179396E+02  0.80403210094E+02  0.12700000000E+01 0. -1.
         25    2    1    2    0    0  0.00000000000E+00  0.00000000000E+00 -0.31826105775E+02  0.12898688575E+03  0.12499886274E+03 0.  0.
    9000005    1    3    3    0    0  0.36010975953E+02 -0.43972611124E+02 -0.42718705807E+02  0.71107445067E+02  0.10000000000E+01 0.  0.
    9000005    1    3    3    0    0 -0.36010975953E+02  0.43972611124E+02  0.10892600032E+02  0.57879440682E+02  0.10000000000E+01 0.  0.
<mgrwt>
<rscale>  0 0.12499886E+03</rscale>
<asrwt>0</asrwt>
<pdfrwt beam="2">  1        4 0.12370230E-01 0.12499886E+03</pdfrwt>
<pdfrwt beam="1">  1       -4 0.74739061E-02 0.12499886E+03</pdfrwt>
<totfact> 0.10366495E+04</totfact>
</mgrwt>
</event>
<event>
 5    1  0.3311405E-002  0.1249998E+03  0.7818608E-02  0.1235070E+00
         -4   -1    0    0    0  501 -0.00000000000E+00  0.00000000000E+00  0.66899019364E+02  0.66911073014E+02  0.12700000000E+01 0. -1.
          4   -1    0    0  501    0  0.00000000000E+00 -0.00000000000E+00 -0.58365869555E+02  0.58379685071E+02  0.12700000000E+01 0. -1.
         25    2    1    2    0    0  0.00000000000E+00  0.00000000000E+00  0.85331498085E+01  0.12529075808E+03  0.12499983766E+03 0.  0.
    9000005    1    3    3    0    0 -0.55326293437E+01 -0.38654889648E+02  0.53169770397E+02  0.65976018106E+02  0.10000000000E+01 0.  0.
    9000005    1    3    3    0    0  0.55326293437E+01  0.38654889648E+02 -0.44636620588E+02  0.59314739978E+02  0.10000000000E+01 0.  0.
<mgrwt>
<rscale>  0 0.12499984E+03</rscale>
<asrwt>0</asrwt>
<pdfrwt beam="2">  1        4 0.89813545E-02 0.12499984E+03</pdfrwt>
<pdfrwt beam="1">  1       -4 0.10294147E-01 0.12499984E+03</pdfrwt>
<totfact> 0.10446589E+04</totfact>
</mgrwt>
</event>
<event>
 5    1  0.3311405E-002  0.1250019E+03  0.7818608E-02  0.1235066E+00
         -4   -1    0    0    0  501 -0.00000000000E+00  0.00000000000E+00  0.45149008573E+02  0.45166867006E+02  0.12700000000E+01 0.  1.
          4   -1    0    0  501    0  0.00000000000E+00 -0.00000000000E+00 -0.86482041736E+02  0.86491366290E+02  0.12700000000E+01 0.  1.
         25    2    1    2    0    0  0.00000000000E+00  0.00000000000E+00 -0.41333033162E+02  0.13165823330E+03  0.12500188304E+03 0.  0.
    9000005    1    3    3    0    0 -0.44101289255E+02  0.29013649732E+02 -0.55893786746E+02  0.76888432040E+02  0.10000000000E+01 0.  0.
    9000005    1    3    3    0    0  0.44101289255E+02 -0.29013649732E+02  0.14560753584E+02  0.54769801256E+02  0.10000000000E+01 0.  0.
<mgrwt>
<rscale>  0 0.12500188E+03</rscale>
<asrwt>0</asrwt>
<pdfrwt beam="2">  1        4 0.13307021E-01 0.12500188E+03</pdfrwt>
<pdfrwt beam="1">  1       -4 0.69480923E-02 0.12500188E+03</pdfrwt>
<totfact> 0.10308561E+04</totfact>
</mgrwt>
</event>
<event>
 5    1  0.3311405E-002  0.1250015E+03  0.7818608E-02  0.1235067E+00
         -4   -1    0    0    0  501 -0.00000000000E+00  0.00000000000E+00  0.13496297358E+04  0.13496303333E+04  0.12700000000E+01 0. -1.
          4   -1    0    0  501    0  0.00000000000E+00 -0.00000000000E+00 -0.27544402029E+01  0.30331239394E+01  0.12700000000E+01 0. -1.
         25    2    1    2    0    0  0.00000000000E+00  0.00000000000E+00  0.13468752956E+04  0.13526634573E+04  0.12500146700E+03 0.  0.
    9000005    1    3    3    0    0  0.24540881762E+02 -0.49108194615E+02  0.99653136216E+03  0.99804289758E+03  0.10000000000E+01 0.  0.
    9000005    1    3    3    0    0 -0.24540881762E+02  0.49108194615E+02  0.35034393344E+03  0.35462055969E+03  0.10000000000E+01 0.  0.
<mgrwt>
<rscale>  0 0.12500147E+03</rscale>
<asrwt>0</asrwt>
<pdfrwt beam="2">  1        4 0.44524310E-03 0.12500147E+03</pdfrwt>
<pdfrwt beam="1">  1       -4 0.20765688E+00 0.12500147E+03</pdfrwt>
<totfact> 0.21017910E+03</totfact>
</mgrwt>
</event>
<event>
 5    1  0.3311405E-002  0.1249607E+03  0.7818608E-02  0.1235131E+00
         -4   -1    0    0    0  501 -0.00000000000E+00  0.00000000000E+00  0.22170814133E+03  0.22171177874E+03  0.12700000000E+01 0.  1.
          4   -1    0    0  501    0  0.00000000000E+00 -0.00000000000E+00 -0.17581112734E+02  0.17626923299E+02  0.12700000000E+01 0.  1.
         25    2    1    2    0    0  0.00000000000E+00  0.00000000000E+00  0.20412702859E+03  0.23933870203E+03  0.12496067577E+03 0.  0.
    9000005    1    3    3    0    0  0.12198556079E+02 -0.56354301500E+01  0.21891686121E+03  0.21933115365E+03  0.10000000000E+01 0.  0.
    9000005    1    3    3    0    0 -0.12198556079E+02  0.56354301500E+01 -0.14789832614E+02  0.20007548380E+02  0.10000000000E+01 0.  0.
<mgrwt>
<rscale>  0 0.12496068E+03</rscale>
<asrwt>0</asrwt>
<pdfrwt beam="2">  1        4 0.27085902E-02 0.12496068E+03</pdfrwt>
<pdfrwt beam="1">  1       -4 0.34112749E-01 0.12496068E+03</pdfrwt>
<totfact> 0.83969550E+03</totfact>
</mgrwt>
</event>
<event>
 5    1  0.3311405E-002  0.1249989E+03  0.7818608E-02  0.1235071E+00
          4   -1    0    0  501    0  0.00000000000E+00  0.00000000000E+00  0.56258665197E+02  0.56272998052E+02  0.12700000000E+01 0. -1.
         -4   -1    0    0    0  501 -0.00000000000E+00 -0.00000000000E+00 -0.69403524740E+02  0.69415143494E+02  0.12700000000E+01 0. -1.
         25    2    1    2    0    0  0.00000000000E+00  0.00000000000E+00 -0.13144859543E+02  0.12568814155E+03  0.12499888637E+03 0.  0.
    9000005    1    3    3    0    0  0.81714671160E+01 -0.60167064017E+02  0.82851061448E+01  0.61290223128E+02  0.10000000000E+01 0.  0.
    9000005    1    3    3    0    0 -0.81714671160E+01  0.60167064017E+02 -0.21429965687E+02  0.64397918418E+02  0.10000000000E+01 0.  0.
<mgrwt>
<rscale>  0 0.12499889E+03</rscale>
<asrwt>0</asrwt>
<pdfrwt beam="1">  1        4 0.86571755E-02 0.12499889E+03</pdfrwt>
<pdfrwt beam="2">  1       -4 0.10679462E-01 0.12499889E+03</pdfrwt>
<totfact> 0.10438068E+04</totfact>
</mgrwt>
</event>
<event>
 5    1  0.3311405E-002  0.1250000E+03  0.7818608E-02  0.1235069E+00
         -4   -1    0    0    0  501 -0.00000000000E+00  0.00000000000E+00  0.46528760646E+02  0.46546089710E+02  0.12700000000E+01 0. -1.
          4   -1    0    0  501    0  0.00000000000E+00 -0.00000000000E+00 -0.83915694482E+02  0.83925304172E+02  0.12700000000E+01 0. -1.
         25    2    1    2    0    0  0.00000000000E+00  0.00000000000E+00 -0.37386933836E+02  0.13047139388E+03  0.12500000720E+03 0.  0.
    9000005    1    3    3    0    0 -0.53832177781E+02  0.12431864453E+02 -0.49174367792E+02  0.73970082237E+02  0.10000000000E+01 0.  0.
    9000005    1    3    3    0    0  0.53832177781E+02 -0.12431864453E+02  0.11787433956E+02  0.56501311645E+02  0.10000000000E+01 0.  0.
<mgrwt>
<rscale>  0 0.12500001E+03</rscale>
<asrwt>0</asrwt>
<pdfrwt beam="2">  1        4 0.12912179E-01 0.12500001E+03</pdfrwt>
<pdfrwt beam="1">  1       -4 0.71603431E-02 0.12500001E+03</pdfrwt>
<totfact> 0.10334432E+04</totfact>
</mgrwt>
</event>
<event>
 5    1  0.3311405E-002  0.1250027E+03  0.7818608E-02  0.1235065E+00
          4   -1    0    0  501    0  0.00000000000E+00  0.00000000000E+00  0.17683616607E+03  0.17684072645E+03  0.12700000000E+01 0.  1.
         -4   -1    0    0    0  501 -0.00000000000E+00 -0.00000000000E+00 -0.22067502235E+02  0.22104016714E+02  0.12700000000E+01 0.  1.
         25    2    1    2    0    0  0.00000000000E+00  0.00000000000E+00  0.15476866383E+03  0.19894474316E+03  0.12500268608E+03 0.  0.
    9000005    1    3    3    0    0 -0.50488547013E+02 -0.94993466928E+01  0.20754550825E+02  0.55417346986E+02  0.10000000000E+01 0.  0.
    9000005    1    3    3    0    0  0.50488547013E+02  0.94993466928E+01  0.13401411301E+03  0.14352739617E+03  0.10000000000E+01 0.  0.
<mgrwt>
<rscale>  0 0.12500269E+03</rscale>
<asrwt>0</asrwt>
<pdfrwt beam="1">  1        4 0.27208724E-01 0.12500269E+03</pdfrwt>
<pdfrwt beam="2">  1       -4 0.33981599E-02 0.12500269E+03</pdfrwt>
<totfact> 0.90308360E+03</totfact>
</mgrwt>
</event>
<event>
 5    1  0.3311405E-002  0.1249957E+03  0.7818608E-02  0.1235076E+00
         -4   -1    0    0    0  501 -0.00000000000E+00  0.00000000000E+00  0.10095768808E+02  0.10175335269E+02  0.12700000000E+01 0. -1.
          4   -1    0    0  501    0  0.00000000000E+00 -0.00000000000E+00 -0.38529369011E+03  0.38529578318E+03  0.12700000000E+01 0. -1.
         25    2    1    2    0    0  0.00000000000E+00  0.00000000000E+00 -0.37519792130E+03  0.39547111845E+03  0.12499570145E+03 0.  0.
    9000005    1    3    3    0    0 -0.14726435447E+02 -0.39107612277E+02 -0.33459873066E+03  0.33719962010E+03  0.10000000000E+01 0.  0.
    9000005    1    3    3    0    0  0.14726435447E+02  0.39107612277E+02 -0.40599190643E+02  0.58271498349E+02  0.10000000000E+01 0.  0.
<mgrwt>
<rscale>  0 0.12499570E+03</rscale>
<asrwt>0</asrwt>
<pdfrwt beam="2">  1        4 0.59282223E-01 0.12499570E+03</pdfrwt>
<pdfrwt beam="1">  1       -4 0.15594770E-02 0.12499570E+03</pdfrwt>
<totfact> 0.65001834E+03</totfact>
</mgrwt>
</event>
<event>
 5    1  0.3311405E-002  0.1249965E+03  0.7818608E-02  0.1235075E+00
         -4   -1    0    0    0  501 -0.00000000000E+00  0.00000000000E+00  0.19113246341E+02  0.19155393123E+02  0.12700000000E+01 0.  1.
          4   -1    0    0  501    0  0.00000000000E+00 -0.00000000000E+00 -0.20409318585E+03  0.20409713719E+03  0.12700000000E+01 0.  1.
         25    2    1    2    0    0  0.00000000000E+00  0.00000000000E+00 -0.18497993951E+03  0.22325253031E+03  0.12499645704E+03 0.  0.
    9000005    1    3    3    0    0  0.56133279537E+02 -0.77233059629E+01 -0.45423222295E+02  0.72628256555E+02  0.10000000000E+01 0.  0.
    9000005    1    3    3    0    0 -0.56133279537E+02  0.77233059629E+01 -0.13955671721E+03  0.15062427376E+03  0.10000000000E+01 0.  0.
<mgrwt>
<rscale>  0 0.12499646E+03</rscale>
<asrwt>0</asrwt>
<pdfrwt beam="2">  1        4 0.31402496E-01 0.12499646E+03</pdfrwt>
<pdfrwt beam="1">  1       -4 0.29440456E-02 0.12499646E+03</pdfrwt>
<totfact> 0.86363115E+03</totfact>
</mgrwt>
</event>
<event>
 5    1  0.3311405E-002  0.1249995E+03  0.7818608E-02  0.1235070E+00
         -4   -1    0    0    0  501 -0.00000000000E+00  0.00000000000E+00  0.56923036185E+02  0.56937201798E+02  0.12700000000E+01 0. -1.
          4   -1    0    0  501    0  0.00000000000E+00 -0.00000000000E+00 -0.68594281866E+02  0.68606037670E+02  0.12700000000E+01 0. -1.
         25    2    1    2    0    0  0.00000000000E+00  0.00000000000E+00 -0.11671245681E+02  0.12554323947E+03  0.12499954800E+03 0.  0.
    9000005    1    3    3    0    0 -0.59384432512E+02  0.14874693662E+02  0.67670397154E+01  0.61600001321E+02  0.10000000000E+01 0.  0.
    9000005    1    3    3    0    0  0.59384432512E+02 -0.14874693662E+02 -0.18438285397E+02  0.63943238146E+02  0.10000000000E+01 0.  0.
<mgrwt>
<rscale>  0 0.12499955E+03</rscale>
<asrwt>0</asrwt>
<pdfrwt beam="2">  1        4 0.10554960E-01 0.12499955E+03</pdfrwt>
<pdfrwt beam="1">  1       -4 0.87593841E-02 0.12499955E+03</pdfrwt>
<totfact> 0.10441106E+04</totfact>
</mgrwt>
</event>
<event>
 5    1  0.3311405E-002  0.1249975E+03  0.7818608E-02  0.1235073E+00
         -4   -1    0    0    0  501 -0.00000000000E+00  0.00000000000E+00  0.25934014633E+03  0.25934325593E+03  0.12700000000E+01 0.  1.
          4   -1    0    0  501    0  0.00000000000E+00 -0.00000000000E+00 -0.15031680076E+02  0.15085234699E+02  0.12700000000E+01 0.  1.
         25    2    1    2    0    0  0.00000000000E+00  0.00000000000E+00  0.24430846625E+03  0.27442849063E+03  0.12499747912E+03 0.  0.
    9000005    1    3    3    0    0  0.23771799058E+02  0.39196820842E+02  0.28915052711E+02  0.54208573749E+02  0.10000000000E+01 0.  0.
    9000005    1    3    3    0    0 -0.23771799058E+02 -0.39196820842E+02  0.21539341354E+03  0.22021991688E+03  0.10000000000E+01 0.  0.
<mgrwt>
<rscale>  0 0.12499748E+03</rscale>
<asrwt>0</asrwt>
<pdfrwt beam="2">  1        4 0.23169252E-02 0.12499748E+03</pdfrwt>
<pdfrwt beam="1">  1       -4 0.39902838E-01 0.12499748E+03</pdfrwt>
<totfact> 0.78927121E+03</totfact>
</mgrwt>
</event>
<event>
 5    1  0.3311405E-002  0.1250019E+03  0.7818608E-02  0.1235066E+00
         -4   -1    0    0    0  501 -0.00000000000E+00  0.00000000000E+00  0.11888880852E+03  0.11889559155E+03  0.12700000000E+01 0. -1.
          4   -1    0    0  501    0  0.00000000000E+00 -0.00000000000E+00 -0.32837309094E+02  0.32861858872E+02  0.12700000000E+01 0. -1.
         25    2    1    2    0    0  0.00000000000E+00  0.00000000000E+00  0.86051499425E+02  0.15175745043E+03  0.12500185281E+03 0.  0.
    9000005    1    3    3    0    0 -0.13294895278E+02  0.44843542304E+02  0.93341414898E+02  0.10440937344E+03  0.10000000000E+01 0.  0.
    9000005    1    3    3    0    0  0.13294895278E+02 -0.44843542304E+02 -0.72899154723E+01  0.47348076988E+02  0.10000000000E+01 0.  0.
<mgrwt>
<rscale>  0 0.12500185E+03</rscale>
<asrwt>0</asrwt>
<pdfrwt beam="2">  1        4 0.50543039E-02 0.12500185E+03</pdfrwt>
<pdfrwt beam="1">  1       -4 0.18292996E-01 0.12500185E+03</pdfrwt>
<totfact> 0.98950398E+03</totfact>
</mgrwt>
</event>
<event>
 5    1  0.3311405E-002  0.1249997E+03  0.7818608E-02  0.1235070E+00
          4   -1    0    0  501    0  0.00000000000E+00  0.00000000000E+00  0.37124614598E+02  0.37146331031E+02  0.12700000000E+01 0. -1.
         -4   -1    0    0    0  501 -0.00000000000E+00 -0.00000000000E+00 -0.10516310427E+03  0.10517077256E+03  0.12700000000E+01 0. -1.
         25    2    1    2    0    0  0.00000000000E+00  0.00000000000E+00 -0.68038489677E+02  0.14231710359E+03  0.12499968759E+03 0.  0.
    9000005    1    3    3    0    0  0.25006394218E+02  0.54943636016E+02 -0.15621782957E+02  0.62363154132E+02  0.10000000000E+01 0.  0.
    9000005    1    3    3    0    0 -0.25006394218E+02 -0.54943636016E+02 -0.52416706720E+02  0.79953949458E+02  0.10000000000E+01 0.  0.
<mgrwt>
<rscale>  0 0.12499969E+03</rscale>
<asrwt>0</asrwt>
<pdfrwt beam="1">  1        4 0.57137396E-02 0.12499969E+03</pdfrwt>
<pdfrwt beam="2">  1       -4 0.16181199E-01 0.12499969E+03</pdfrwt>
<totfact> 0.10085857E+04</totfact>
</mgrwt>
</event>
<event>
 5    1  0.3311405E-002  0.1249995E+03  0.7818608E-02  0.1235070E+00
         -4   -1    0    0    0  501 -0.00000000000E+00  0.00000000000E+00  0.17957831775E+03  0.17958280849E+03  0.12700000000E+01 0. -1.
          4   -1    0    0  501    0  0.00000000000E+00 -0.00000000000E+00 -0.21728861483E+02  0.21765944073E+02  0.12700000000E+01 0. -1.
         25    2    1    2    0    0  0.00000000000E+00  0.00000000000E+00  0.15784945626E+03  0.20134875256E+03  0.12499947726E+03 0.  0.
    9000005    1    3    3    0    0  0.47522093785E+02 -0.39715983745E+02  0.92354230249E+02  0.11120257464E+03  0.10000000000E+01 0.  0.
    9000005    1    3    3    0    0 -0.47522093785E+02  0.39715983745E+02  0.65495226015E+02  0.90146177919E+02  0.10000000000E+01 0.  0.
<mgrwt>
<rscale>  0 0.12499948E+03</rscale>
<asrwt>0</asrwt>
<pdfrwt beam="2">  1        4 0.33460997E-02 0.12499948E+03</pdfrwt>
<pdfrwt beam="1">  1       -4 0.27630631E-01 0.12499948E+03</pdfrwt>
<totfact> 0.89909577E+03</totfact>
</mgrwt>
</event>
<event>
 5    1  0.3311405E-002  0.1249990E+03  0.7818608E-02  0.1235071E+00
          4   -1    0    0  501    0  0.00000000000E+00  0.00000000000E+00  0.25082882329E+03  0.25083203841E+03  0.12700000000E+01 0.  1.
         -4   -1    0    0    0  501 -0.00000000000E+00 -0.00000000000E+00 -0.15543913648E+02  0.15595709394E+02  0.12700000000E+01 0.  1.
         25    2    1    2    0    0  0.00000000000E+00  0.00000000000E+00  0.23528490964E+03  0.26642774781E+03  0.12499902438E+03 0.  0.
    9000005    1    3    3    0    0  0.56772230424E+02  0.26025095775E+02  0.12231087292E+03  0.13733659888E+03  0.10000000000E+01 0.  0.
    9000005    1    3    3    0    0 -0.56772230424E+02 -0.26025095775E+02  0.11297403672E+03  0.12909114892E+03  0.10000000000E+01 0.  0.
<mgrwt>
<rscale>  0 0.12499902E+03</rscale>
<asrwt>0</asrwt>
<pdfrwt beam="1">  1        4 0.38593280E-01 0.12499902E+03</pdfrwt>
<pdfrwt beam="2">  1       -4 0.23956030E-02 0.12499902E+03</pdfrwt>
<totfact> 0.80014132E+03</totfact>
</mgrwt>
</event>
<event>
 5    1  0.3311405E-002  0.1250020E+03  0.7818608E-02  0.1235066E+00
         -4   -1    0    0    0  501 -0.00000000000E+00  0.00000000000E+00  0.10576372240E+03  0.10577134714E+03  0.12700000000E+01 0. -1.
          4   -1    0    0  501    0  0.00000000000E+00 -0.00000000000E+00 -0.36915053459E+02  0.36936893100E+02  0.12700000000E+01 0. -1.
         25    2    1    2    0    0  0.00000000000E+00  0.00000000000E+00  0.68848668942E+02  0.14270824024E+03  0.12500201045E+03 0.  0.
    9000005    1    3    3    0    0 -0.47426113744E+02  0.35415416219E+01  0.80708208823E+02  0.93683476416E+02  0.10000000000E+01 0.  0.
    9000005    1    3    3    0    0  0.47426113744E+02 -0.35415416219E+01 -0.11859539881E+02  0.49024763825E+02  0.10000000000E+01 0.  0.
<mgrwt>
<rscale>  0 0.12500201E+03</rscale>
<asrwt>0</asrwt>
<pdfrwt beam="2">  1        4 0.56815057E-02 0.12500201E+03</pdfrwt>
<pdfrwt beam="1">  1       -4 0.16273608E-01 0.12500201E+03</pdfrwt>
<totfact> 0.10077305E+04</totfact>
</mgrwt>
</event>
<event>
 5    1  0.3311405E-002  0.1249973E+03  0.7818608E-02  0.1235073E+00
         -4   -1    0    0    0  501 -0.00000000000E+00  0.00000000000E+00  0.14723673489E+01  0.19444190932E+01  0.12700000000E+01 0.  1.
          4   -1    0    0  501    0  0.00000000000E+00 -0.00000000000E+00 -0.22859359270E+04  0.22859362798E+04  0.12700000000E+01 0.  1.
         25    2    1    2    0    0  0.00000000000E+00  0.00000000000E+00 -0.22844635597E+04  0.22878806989E+04  0.12499734772E+03 0.  0.
    9000005    1    3    3    0    0 -0.49879452495E+02 -0.37644384917E+02 -0.11393529862E+04  0.11410658556E+04  0.10000000000E+01 0.  0.
    9000005    1    3    3    0    0  0.49879452495E+02  0.37644384917E+02 -0.11451105735E+04  0.11468148434E+04  0.10000000000E+01 0.  0.
<mgrwt>
<rscale>  0 0.12499735E+03</rscale>
<asrwt>0</asrwt>
<pdfrwt beam="2">  1        4 0.35171634E+00 0.12499735E+03</pdfrwt>
<pdfrwt beam="1">  1       -4 0.26285869E-03 0.12499735E+03</pdfrwt>
<totfact> 0.65567420E+02</totfact>
</mgrwt>
</event>
<event>
 5    1  0.3311405E-002  0.1249995E+03  0.7818608E-02  0.1235070E+00
         -4   -1    0    0    0  501 -0.00000000000E+00  0.00000000000E+00  0.57782067011E+02  0.57796022078E+02  0.12700000000E+01 0.  1.
          4   -1    0    0  501    0  0.00000000000E+00 -0.00000000000E+00 -0.67574522563E+02  0.67586455741E+02  0.12700000000E+01 0.  1.
         25    2    1    2    0    0  0.00000000000E+00  0.00000000000E+00 -0.97924555524E+01  0.12538247782E+03  0.12499949423E+03 0.  0.
    9000005    1    3    3    0    0 -0.45774831546E+02 -0.39243058639E+02  0.11581688969E+02  0.61404302568E+02  0.10000000000E+01 0.  0.
    9000005    1    3    3    0    0  0.45774831546E+02  0.39243058639E+02 -0.21374144522E+02  0.63978175251E+02  0.10000000000E+01 0.  0.
<mgrwt>
<rscale>  0 0.12499949E+03</rscale>
<asrwt>0</asrwt>
<pdfrwt beam="2">  1        4 0.10398072E-01 0.12499949E+03</pdfrwt>
<pdfrwt beam="1">  1       -4 0.88915402E-02 0.12499949E+03</pdfrwt>
<totfact> 0.10444674E+04</totfact>
</mgrwt>
</event>
<event>
 5    1  0.3311405E-002  0.1250007E+03  0.7818608E-02  0.1235068E+00
         -4   -1    0    0    0  501 -0.00000000000E+00  0.00000000000E+00  0.75698826020E+03  0.75698932554E+03  0.12700000000E+01 0.  1.
          4   -1    0    0  501    0  0.00000000000E+00 -0.00000000000E+00 -0.50810862960E+01  0.52373980131E+01  0.12700000000E+01 0.  1.
         25    2    1    2    0    0  0.00000000000E+00  0.00000000000E+00  0.75190717390E+03  0.76222672355E+03  0.12500071971E+03 0.  0.
    9000005    1    3    3    0    0 -0.34138898883E+02  0.34164052977E+02  0.61777092036E+03  0.61965680581E+03  0.10000000000E+01 0.  0.
    9000005    1    3    3    0    0  0.34138898883E+02 -0.34164052977E+02  0.13413625354E+03  0.14256991774E+03  0.10000000000E+01 0.  0.
<mgrwt>
<rscale>  0 0.12500072E+03</rscale>
<asrwt>0</asrwt>
<pdfrwt beam="2">  1        4 0.79381115E-03 0.12500072E+03</pdfrwt>
<pdfrwt beam="1">  1       -4 0.11647189E+00 0.12500072E+03</pdfrwt>
<totfact> 0.39995405E+03</totfact>
</mgrwt>
</event>
<event>
 4    1  0.3311405E-002  0.1246473E+03  0.7818608E-02  0.1235622E+00
          4   -1    0    0  501    0  0.00000000000E+00  0.00000000000E+00  0.74539429751E+03  0.74539537942E+03  0.12700000000E+01 0. -1.
         -4   -1    0    0    0  501 -0.00000000000E+00 -0.00000000000E+00 -0.51325012076E+01  0.52872931304E+01  0.12700000000E+01 0. -1.
    9000005    1    1    2    0    0  0.45144559836E+02  0.39850233986E+02  0.46670908831E+03  0.47057884095E+03  0.10000000000E+01 0.  0.
    9000005    1    1    2    0    0 -0.45144559836E+02 -0.39850233986E+02  0.27355270799E+03  0.28010383161E+03  0.10000000000E+01 0.  0.
<mgrwt>
<rscale>  0 0.12464729E+03</rscale>
<asrwt>0</asrwt>
<pdfrwt beam="1">  1        4 0.11468800E+00 0.12464729E+03</pdfrwt>
<pdfrwt beam="2">  1       -4 0.80160610E-03 0.12464729E+03</pdfrwt>
<totfact> 0.40855735E+03</totfact>
</mgrwt>
</event>
<event>
 5    1  0.3311405E-002  0.1250001E+03  0.7818608E-02  0.1235069E+00
         -4   -1    0    0    0  501 -0.00000000000E+00  0.00000000000E+00  0.46478811346E+03  0.46478984854E+03  0.12700000000E+01 0.  1.
          4   -1    0    0  501    0  0.00000000000E+00 -0.00000000000E+00 -0.83546451051E+01  0.84506209732E+01  0.12700000000E+01 0.  1.
         25    2    1    2    0    0  0.00000000000E+00  0.00000000000E+00  0.45643346835E+03  0.47324046952E+03  0.12500012383E+03 0.  0.
    9000005    1    3    3    0    0  0.35395461445E+02  0.47449374424E+02  0.15240602189E+03  0.16350191843E+03  0.10000000000E+01 0.  0.
    9000005    1    3    3    0    0 -0.35395461445E+02 -0.47449374424E+02  0.30402744646E+03  0.30973855108E+03  0.10000000000E+01 0.  0.
<mgrwt>
<rscale>  0 0.12500012E+03</rscale>
<asrwt>0</asrwt>
<pdfrwt beam="2">  1        4 0.12928462E-02 0.12500012E+03</pdfrwt>
<pdfrwt beam="1">  1       -4 0.71513382E-01 0.12500012E+03</pdfrwt>
<totfact> 0.58001884E+03</totfact>
</mgrwt>
</event>
<event>
 5    1  0.3311405E-002  0.1249997E+03  0.7818608E-02  0.1235070E+00
         -4   -1    0    0    0  501 -0.00000000000E+00  0.00000000000E+00  0.52932532330E+03  0.52932684684E+03  0.12700000000E+01 0. -1.
          4   -1    0    0  501    0  0.00000000000E+00 -0.00000000000E+00 -0.73234515719E+01  0.74327547333E+01  0.12700000000E+01 0. -1.
         25    2    1    2    0    0  0.00000000000E+00  0.00000000000E+00  0.52200187173E+03  0.53675960157E+03  0.12499966318E+03 0.  0.
    9000005    1    3    3    0    0  0.17941664053E+02 -0.49136921583E+02  0.40781157736E+03  0.41115401372E+03  0.10000000000E+01 0.  0.
    9000005    1    3    3    0    0 -0.17941664053E+02  0.49136921583E+02  0.11419029437E+03  0.12560558785E+03  0.10000000000E+01 0.  0.
<mgrwt>
<rscale>  0 0.12499966E+03</rscale>
<asrwt>0</asrwt>
<pdfrwt beam="2">  1        4 0.11352105E-02 0.12499966E+03</pdfrwt>
<pdfrwt beam="1">  1       -4 0.81443153E-01 0.12499966E+03</pdfrwt>
<totfact> 0.53121377E+03</totfact>
</mgrwt>
</event>
<event>
 5    1  0.3311405E-002  0.1250018E+03  0.7818608E-02  0.1235066E+00
          4   -1    0    0  501    0  0.00000000000E+00  0.00000000000E+00  0.62247643943E+02  0.62260598106E+02  0.12700000000E+01 0.  1.
         -4   -1    0    0    0  501 -0.00000000000E+00 -0.00000000000E+00 -0.62729319106E+02  0.62742173819E+02  0.12700000000E+01 0.  1.
         25    2    1    2    0    0  0.00000000000E+00  0.00000000000E+00 -0.48167516343E+00  0.12500277192E+03  0.12500184390E+03 0.  0.
    9000005    1    3    3    0    0 -0.43317525405E+02 -0.44893929827E+02 -0.39140517452E+01  0.62515540017E+02  0.10000000000E+01 0.  0.
    9000005    1    3    3    0    0  0.43317525405E+02  0.44893929827E+02  0.34323765818E+01  0.62487231908E+02  0.10000000000E+01 0.  0.
<mgrwt>
<rscale>  0 0.12500184E+03</rscale>
<asrwt>0</asrwt>
<pdfrwt beam="1">  1        4 0.95785458E-02 0.12500184E+03</pdfrwt>
<pdfrwt beam="2">  1       -4 0.96526498E-02 0.12500184E+03</pdfrwt>
<totfact> 0.10452367E+04</totfact>
</mgrwt>
</event>
<event>
 5    1  0.3311405E-002  0.1249961E+03  0.7818608E-02  0.1235075E+00
          4   -1    0    0  501    0  0.00000000000E+00  0.00000000000E+00  0.50869556035E+01  0.52430923425E+01  0.12700000000E+01 0.  1.
         -4   -1    0    0    0  501 -0.00000000000E+00 -0.00000000000E+00 -0.75608459185E+03  0.75608565847E+03  0.12700000000E+01 0.  1.
         25    2    1    2    0    0  0.00000000000E+00  0.00000000000E+00 -0.75099763625E+03  0.76132875081E+03  0.12499606856E+03 0.  0.
    9000005    1    3    3    0    0 -0.44247957701E+02 -0.17563705608E+02 -0.62205590531E+03  0.62387572067E+03  0.10000000000E+01 0.  0.
    9000005    1    3    3    0    0  0.44247957701E+02  0.17563705608E+02 -0.12894173094E+03  0.13745303014E+03  0.10000000000E+01 0.  0.
<mgrwt>
<rscale>  0 0.12499607E+03</rscale>
<asrwt>0</asrwt>
<pdfrwt beam="1">  1        4 0.79470172E-03 0.12499607E+03</pdfrwt>
<pdfrwt beam="2">  1       -4 0.11633271E+00 0.12499607E+03</pdfrwt>
<totfact> 0.40041525E+03</totfact>
</mgrwt>
</event>
<event>
 5    1  0.3311405E-002  0.1250005E+03  0.7818608E-02  0.1235068E+00
         -4   -1    0    0    0  501 -0.00000000000E+00  0.00000000000E+00  0.30032718915E+02  0.30059559302E+02  0.12700000000E+01 0.  1.
          4   -1    0    0  501    0  0.00000000000E+00 -0.00000000000E+00 -0.12997951193E+03  0.12998571622E+03  0.12700000000E+01 0.  1.
         25    2    1    2    0    0  0.00000000000E+00  0.00000000000E+00 -0.99946793015E+02  0.16004527552E+03  0.12500051513E+03 0.  0.
    9000005    1    3    3    0    0  0.46389437475E+01  0.58721508203E+02 -0.76694137954E+02  0.96709493439E+02  0.10000000000E+01 0.  0.
    9000005    1    3    3    0    0 -0.46389437475E+01 -0.58721508203E+02 -0.23252655060E+02  0.63335782083E+02  0.10000000000E+01 0.  0.
<mgrwt>
<rscale>  0 0.12500052E+03</rscale>
<asrwt>0</asrwt>
<pdfrwt beam="2">  1        4 0.19999389E-01 0.12500052E+03</pdfrwt>
<pdfrwt beam="1">  1       -4 0.46229603E-02 0.12500052E+03</pdfrwt>
<totfact> 0.97332930E+03</totfact>
</mgrwt>
</event>
<event>
 5    1  0.3311405E-002  0.1249993E+03  0.7818608E-02  0.1235070E+00
          4   -1    0    0  501    0  0.00000000000E+00  0.00000000000E+00  0.98497723226E+01  0.99313098233E+01  0.12700000000E+01 0.  1.
         -4   -1    0    0    0  501 -0.00000000000E+00 -0.00000000000E+00 -0.39486085328E+03  0.39486289564E+03  0.12700000000E+01 0.  1.
         25    2    1    2    0    0  0.00000000000E+00  0.00000000000E+00 -0.38501108096E+03  0.40479420547E+03  0.12499926526E+03 0.  0.
    9000005    1    3    3    0    0  0.33665366891E+02  0.52646934929E+02 -0.19374881347E+03  0.20357961441E+03  0.10000000000E+01 0.  0.
    9000005    1    3    3    0    0 -0.33665366891E+02 -0.52646934929E+02 -0.19126226749E+03  0.20121459105E+03  0.10000000000E+01 0.  0.
<mgrwt>
<rscale>  0 0.12499927E+03</rscale>
<asrwt>0</asrwt>
<pdfrwt beam="1">  1        4 0.15217791E-02 0.12499927E+03</pdfrwt>
<pdfrwt beam="2">  1       -4 0.60754241E-01 0.12499927E+03</pdfrwt>
<totfact> 0.64090211E+03</totfact>
</mgrwt>
</event>
<event>
 5    1  0.3311405E-002  0.1249979E+03  0.7818608E-02  0.1235073E+00
         -4   -1    0    0    0  501 -0.00000000000E+00  0.00000000000E+00  0.31368840396E+02  0.31394538503E+02  0.12700000000E+01 0.  1.
          4   -1    0    0  501    0  0.00000000000E+00 -0.00000000000E+00 -0.12444230543E+03  0.12444878577E+03  0.12700000000E+01 0.  1.
         25    2    1    2    0    0  0.00000000000E+00  0.00000000000E+00 -0.93073465032E+02  0.15584332428E+03  0.12499788729E+03 0.  0.
    9000005    1    3    3    0    0 -0.78962389518E-01  0.54271976049E+02 -0.79138032306E+01  0.54855099133E+02  0.10000000000E+01 0.  0.
    9000005    1    3    3    0    0  0.78962389518E-01 -0.54271976049E+02 -0.85159661802E+02  0.10098822514E+03  0.10000000000E+01 0.  0.
<mgrwt>
<rscale>  0 0.12499789E+03</rscale>
<asrwt>0</asrwt>
<pdfrwt beam="2">  1        4 0.19147445E-01 0.12499789E+03</pdfrwt>
<pdfrwt beam="1">  1       -4 0.48284508E-02 0.12499789E+03</pdfrwt>
<totfact> 0.98154861E+03</totfact>
</mgrwt>
</event>
<event>
 5    1  0.3311405E-002  0.1250016E+03  0.7818608E-02  0.1235067E+00
          4   -1    0    0  501    0  0.00000000000E+00  0.00000000000E+00  0.15233733927E+02  0.15286580695E+02  0.12700000000E+01 0.  1.
         -4   -1    0    0    0  501 -0.00000000000E+00 -0.00000000000E+00 -0.25592926447E+03  0.25593241551E+03  0.12700000000E+01 0.  1.
         25    2    1    2    0    0  0.00000000000E+00  0.00000000000E+00 -0.24069553054E+03  0.27121899621E+03  0.12500162192E+03 0.  0.
    9000005    1    3    3    0    0  0.33297008273E+02 -0.20229322451E+02 -0.22636348001E+03  0.22969401675E+03  0.10000000000E+01 0.  0.
    9000005    1    3    3    0    0 -0.33297008273E+02  0.20229322451E+02 -0.14332050526E+02  0.41524979459E+02  0.10000000000E+01 0.  0.
<mgrwt>
<rscale>  0 0.12500162E+03</rscale>
<asrwt>0</asrwt>
<pdfrwt beam="1">  1        4 0.23479591E-02 0.12500162E+03</pdfrwt>
<pdfrwt beam="2">  1       -4 0.39378037E-01 0.12500162E+03</pdfrwt>
<totfact> 0.79354104E+03</totfact>
</mgrwt>
</event>
<event>
 5    1  0.3311405E-002  0.1249957E+03  0.7818608E-02  0.1235076E+00
          4   -1    0    0  501    0  0.00000000000E+00  0.00000000000E+00  0.71895930042E+03  0.71896042211E+03  0.12700000000E+01 0. -1.
         -4   -1    0    0    0  501 -0.00000000000E+00 -0.00000000000E+00 -0.53574652403E+01  0.55059362330E+01  0.12700000000E+01 0. -1.
         25    2    1    2    0    0  0.00000000000E+00  0.00000000000E+00  0.71360183518E+03  0.72446635835E+03  0.12499570072E+03 0.  0.
    9000005    1    3    3    0    0 -0.26860675310E+02  0.47716900166E+02  0.53131356208E+03  0.53412872951E+03  0.10000000000E+01 0.  0.
    9000005    1    3    3    0    0  0.26860675310E+02 -0.47716900166E+02  0.18228827311E+03  0.19033762884E+03  0.10000000000E+01 0.  0.
<mgrwt>
<rscale>  0 0.12499570E+03</rscale>
<asrwt>0</asrwt>
<pdfrwt beam="1">  1        4 0.11062055E+00 0.12499570E+03</pdfrwt>
<pdfrwt beam="2">  1       -4 0.83573312E-03 0.12499570E+03</pdfrwt>
<totfact> 0.41830133E+03</totfact>
</mgrwt>
</event>
<event>
 5    1  0.3311405E-002  0.1250000E+03  0.7818608E-02  0.1235069E+00
          4   -1    0    0  501    0  0.00000000000E+00  0.00000000000E+00  0.96967900706E+02  0.96976217019E+02  0.12700000000E+01 0. -1.
         -4   -1    0    0    0  501 -0.00000000000E+00 -0.00000000000E+00 -0.40263910083E+02  0.40283934206E+02  0.12700000000E+01 0. -1.
         25    2    1    2    0    0  0.00000000000E+00  0.00000000000E+00  0.56703990623E+02  0.13726015123E+03  0.12500002625E+03 0.  0.
    9000005    1    3    3    0    0  0.16225962654E+02 -0.10631810222E+02 -0.36879323766E+02  0.41682151745E+02  0.10000000000E+01 0.  0.
    9000005    1    3    3    0    0 -0.16225962654E+02  0.10631810222E+02  0.93583314389E+02  0.95577999481E+02  0.10000000000E+01 0.  0.
<mgrwt>
<rscale>  0 0.12500003E+03</rscale>
<asrwt>0</asrwt>
<pdfrwt beam="1">  1        4 0.14920319E-01 0.12500003E+03</pdfrwt>
<pdfrwt beam="2">  1       -4 0.61966277E-02 0.12500003E+03</pdfrwt>
<totfact> 0.10190643E+04</totfact>
</mgrwt>
</event>
<event>
 5    1  0.3311405E-002  0.1249982E+03  0.7818608E-02  0.1235072E+00
         -4   -1    0    0    0  501 -0.00000000000E+00  0.00000000000E+00  0.29754853347E+02  0.29781944156E+02  0.12700000000E+01 0. -1.
          4   -1    0    0  501    0  0.00000000000E+00 -0.00000000000E+00 -0.13118744128E+03  0.13119358845E+03  0.12700000000E+01 0. -1.
         25    2    1    2    0    0  0.00000000000E+00  0.00000000000E+00 -0.10143258793E+03  0.16097553260E+03  0.12499820880E+03 0.  0.
    9000005    1    3    3    0    0  0.50996802027E+02 -0.25917984580E+02 -0.18322437416E+02  0.60076013970E+02  0.10000000000E+01 0.  0.
    9000005    1    3    3    0    0 -0.50996802027E+02  0.25917984580E+02 -0.83110150518E+02  0.10089951863E+03  0.10000000000E+01 0.  0.
<mgrwt>
<rscale>  0 0.12499821E+03</rscale>
<asrwt>0</asrwt>
<pdfrwt beam="2">  1        4 0.20185240E-01 0.12499821E+03</pdfrwt>
<pdfrwt beam="1">  1       -4 0.45802266E-02 0.12499821E+03</pdfrwt>
<totfact> 0.97158950E+03</totfact>
</mgrwt>
</event>
<event>
 5    1  0.3311405E-002  0.1249986E+03  0.7818608E-02  0.1235071E+00
         -4   -1    0    0    0  501 -0.00000000000E+00  0.00000000000E+00  0.45269510561E+01  0.47017215852E+01  0.12700000000E+01 0. -1.
          4   -1    0    0  501    0  0.00000000000E+00 -0.00000000000E+00 -0.84635262869E+03  0.84635358154E+03  0.12700000000E+01 0. -1.
         25    2    1    2    0    0  0.00000000000E+00  0.00000000000E+00 -0.84182567763E+03  0.85105530312E+03  0.12499862983E+03 0.  0.
    9000005    1    3    3    0    0 -0.49201222017E+02  0.38414656551E+02 -0.44101616431E+03  0.44541295813E+03  0.10000000000E+01 0.  0.
    9000005    1    3    3    0    0  0.49201222017E+02 -0.38414656551E+02 -0.40080951332E+03  0.40564234500E+03  0.10000000000E+01 0.  0.
<mgrwt>
<rscale>  0 0.12499863E+03</rscale>
<asrwt>0</asrwt>
<pdfrwt beam="2">  1        4 0.13022149E+00 0.12499863E+03</pdfrwt>
<pdfrwt beam="1">  1       -4 0.70997187E-03 0.12499863E+03</pdfrwt>
<totfact> 0.36085288E+03</totfact>
</mgrwt>
</event>
<event>
 5    1  0.3311405E-002  0.1250002E+03  0.7818608E-02  0.1235069E+00
         -4   -1    0    0    0  501 -0.00000000000E+00  0.00000000000E+00  0.15612917405E+03  0.15613433924E+03  0.12700000000E+01 0. -1.
          4   -1    0    0  501    0  0.00000000000E+00 -0.00000000000E+00 -0.24997744778E+02  0.25029984898E+02  0.12700000000E+01 0. -1.
         25    2    1    2    0    0  0.00000000000E+00  0.00000000000E+00  0.13113142927E+03  0.18116432414E+03  0.12500024239E+03 0.  0.
    9000005    1    3    3    0    0 -0.29291442408E+02 -0.35981733547E+02  0.48917797227E+01  0.46664796756E+02  0.10000000000E+01 0.  0.
    9000005    1    3    3    0    0  0.29291442408E+02  0.35981733547E+02  0.12623964955E+03  0.13449952738E+03  0.10000000000E+01 0.  0.
<mgrwt>
<rscale>  0 0.12500024E+03</rscale>
<asrwt>0</asrwt>
<pdfrwt beam="2">  1        4 0.38486841E-02 0.12500024E+03</pdfrwt>
<pdfrwt beam="1">  1       -4 0.24022751E-01 0.12500024E+03</pdfrwt>
<totfact> 0.93407331E+03</totfact>
</mgrwt>
</event>
<event>
 5    1  0.3311405E-002  0.1249995E+03  0.7818608E-02  0.1235070E+00
         -4   -1    0    0    0  501 -0.00000000000E+00  0.00000000000E+00  0.21615396175E+03  0.21615769262E+03  0.12700000000E+01 0.  1.
          4   -1    0    0  501    0  0.00000000000E+00 -0.00000000000E+00 -0.18045263555E+02  0.18089898750E+02  0.12700000000E+01 0.  1.
         25    2    1    2    0    0  0.00000000000E+00  0.00000000000E+00  0.19810869819E+03  0.23424759137E+03  0.12499951105E+03 0.  0.
    9000005    1    3    3    0    0  0.34881879808E+01  0.36765492847E+02  0.19352547795E+03  0.19702025159E+03  0.10000000000E+01 0.  0.
    9000005    1    3    3    0    0 -0.34881879808E+01 -0.36765492847E+02  0.45832202450E+01  0.37227339786E+02  0.10000000000E+01 0.  0.
<mgrwt>
<rscale>  0 0.12499951E+03</rscale>
<asrwt>0</asrwt>
<pdfrwt beam="2">  1        4 0.27799146E-02 0.12499951E+03</pdfrwt>
<pdfrwt beam="1">  1       -4 0.33258179E-01 0.12499951E+03</pdfrwt>
<totfact> 0.84662534E+03</totfact>
</mgrwt>
</event>
<event>
 5    1  0.3311405E-002  0.1250181E+03  0.7818608E-02  0.1235041E+00
         -4   -1    0    0    0  501 -0.00000000000E+00  0.00000000000E+00  0.54075755416E+02  0.54090666698E+02  0.12700000000E+01 0.  1.
          4   -1    0    0  501    0  0.00000000000E+00 -0.00000000000E+00 -0.72227055728E+02  0.72238220348E+02  0.12700000000E+01 0.  1.
         25    2    1    2    0    0  0.00000000000E+00  0.00000000000E+00 -0.18151300312E+02  0.12632888705E+03  0.12501807069E+03 0.  0.
    9000005    1    3    3    0    0  0.39550411287E+02  0.29578403636E-01  0.39827477541E+02  0.56137900523E+02  0.10000000000E+01 0.  0.
    9000005    1    3    3    0    0 -0.39550411287E+02 -0.29578403636E-01 -0.57978777852E+02  0.70190986523E+02  0.10000000000E+01 0.  0.
<mgrwt>
<rscale>  0 0.12501807E+03</rscale>
<asrwt>0</asrwt>
<pdfrwt beam="2">  1        4 0.11113861E-01 0.12501807E+03</pdfrwt>
<pdfrwt beam="1">  1       -4 0.83213528E-02 0.12501807E+03</pdfrwt>
<totfact> 0.10419512E+04</totfact>
</mgrwt>
</event>
<event>
 5    1  0.3311405E-002  0.1250018E+03  0.7818608E-02  0.1235066E+00
         -4   -1    0    0    0  501 -0.00000000000E+00  0.00000000000E+00  0.22294059536E+02  0.22330203550E+02  0.12700000000E+01 0.  1.
          4   -1    0    0  501    0  0.00000000000E+00 -0.00000000000E+00 -0.17503960865E+03  0.17504421583E+03  0.12700000000E+01 0.  1.
         25    2    1    2    0    0  0.00000000000E+00  0.00000000000E+00 -0.15274554912E+03  0.19737441938E+03  0.12500183460E+03 0.  0.
    9000005    1    3    3    0    0  0.57059350651E+02 -0.37047967549E+01 -0.11618885690E+03  0.12950036866E+03  0.10000000000E+01 0.  0.
    9000005    1    3    3    0    0 -0.57059350651E+02  0.37047967549E+01 -0.36556692215E+02  0.67874050722E+02  0.10000000000E+01 0.  0.
<mgrwt>
<rscale>  0 0.12500183E+03</rscale>
<asrwt>0</asrwt>
<pdfrwt beam="2">  1        4 0.26932304E-01 0.12500183E+03</pdfrwt>
<pdfrwt beam="1">  1       -4 0.34329901E-02 0.12500183E+03</pdfrwt>
<totfact> 0.90576067E+03</totfact>
</mgrwt>
</event>
<event>
 5    1  0.3311405E-002  0.1250010E+03  0.7818608E-02  0.1235068E+00
         -4   -1    0    0    0  501 -0.00000000000E+00  0.00000000000E+00  0.47519928325E+03  0.47520098032E+03  0.12700000000E+01 0. -1.
          4   -1    0    0  501    0  0.00000000000E+00 -0.00000000000E+00 -0.81695945577E+01  0.82677188654E+01  0.12700000000E+01 0. -1.
         25    2    1    2    0    0  0.00000000000E+00  0.00000000000E+00  0.46702968869E+03  0.48346869919E+03  0.12500101190E+03 0.  0.
    9000005    1    3    3    0    0  0.53480880082E+02 -0.25585268619E+02  0.15708431352E+03  0.16790262671E+03  0.10000000000E+01 0.  0.
    9000005    1    3    3    0    0 -0.53480880082E+02  0.25585268619E+02  0.30994537517E+03  0.31556607247E+03  0.10000000000E+01 0.  0.
<mgrwt>
<rscale>  0 0.12500101E+03</rscale>
<asrwt>0</asrwt>
<pdfrwt beam="2">  1        4 0.12645392E-02 0.12500101E+03</pdfrwt>
<pdfrwt beam="1">  1       -4 0.73115262E-01 0.12500101E+03</pdfrwt>
<totfact> 0.57168923E+03</totfact>
</mgrwt>
</event>
<event>
 5    1  0.3311405E-002  0.1249903E+03  0.7818608E-02  0.1235084E+00
          4   -1    0    0  501    0  0.00000000000E+00  0.00000000000E+00  0.23824549383E+04  0.23824552768E+04  0.12700000000E+01 0.  1.
         -4   -1    0    0    0  501 -0.00000000000E+00 -0.00000000000E+00 -0.13929769035E+01  0.18850158232E+01  0.12700000000E+01 0.  1.
         25    2    1    2    0    0  0.00000000000E+00  0.00000000000E+00  0.23810619614E+04  0.23843402926E+04  0.12499026760E+03 0.  0.
    9000005    1    3    3    0    0 -0.55053956821E+02  0.24996939990E+02  0.88960020632E+03  0.89165313449E+03  0.10000000000E+01 0.  0.
    9000005    1    3    3    0    0  0.55053956821E+02 -0.24996939990E+02  0.14914617551E+04  0.14926871581E+04  0.10000000000E+01 0.  0.
<mgrwt>
<rscale>  0 0.12499027E+03</rscale>
<asrwt>0</asrwt>
<pdfrwt beam="1">  1        4 0.36657087E+00 0.12499027E+03</pdfrwt>
<pdfrwt beam="2">  1       -4 0.25217832E-03 0.12499027E+03</pdfrwt>
<totfact> 0.56438884E+02</totfact>
</mgrwt>
</event>
<event>
 5    1  0.3311405E-002  0.1249991E+03  0.7818608E-02  0.1235071E+00
         -4   -1    0    0    0  501 -0.00000000000E+00  0.00000000000E+00  0.86575054197E+01  0.87501600038E+01  0.12700000000E+01 0. -1.
          4   -1    0    0  501    0  0.00000000000E+00 -0.00000000000E+00 -0.44869652394E+03  0.44869832126E+03  0.12700000000E+01 0. -1.
         25    2    1    2    0    0  0.00000000000E+00  0.00000000000E+00 -0.44003901852E+03  0.45744848126E+03  0.12499910074E+03 0.  0.
    9000005    1    3    3    0    0  0.18245137356E+02  0.59768292352E+02 -0.21912317801E+03  0.22786202174E+03  0.10000000000E+01 0.  0.
    9000005    1    3    3    0    0 -0.18245137356E+02 -0.59768292352E+02 -0.22091584051E+03  0.22958645952E+03  0.10000000000E+01 0.  0.
<mgrwt>
<rscale>  0 0.12499910E+03</rscale>
<asrwt>0</asrwt>
<pdfrwt beam="2">  1        4 0.69037482E-01 0.12499910E+03</pdfrwt>
<pdfrwt beam="1">  1       -4 0.13391898E-02 0.12499910E+03</pdfrwt>
<totfact> 0.59325104E+03</totfact>
</mgrwt>
</event>
<event>
 5    1  0.3311405E-002  0.1250011E+03  0.7818608E-02  0.1235068E+00
          4   -1    0    0  501    0  0.00000000000E+00  0.00000000000E+00  0.56549443138E+03  0.56549585747E+03  0.12700000000E+01 0. -1.
         -4   -1    0    0    0  501 -0.00000000000E+00 -0.00000000000E+00 -0.68479697848E+01  0.69647390599E+01  0.12700000000E+01 0. -1.
         25    2    1    2    0    0  0.00000000000E+00  0.00000000000E+00  0.55864646159E+03  0.57246059653E+03  0.12500106213E+03 0.  0.
    9000005    1    3    3    0    0 -0.42520445924E+01 -0.51558075116E+02  0.11877405416E+03  0.12955535857E+03  0.10000000000E+01 0.  0.
    9000005    1    3    3    0    0  0.42520445924E+01  0.51558075116E+02  0.43987240744E+03  0.44290523797E+03  0.10000000000E+01 0.  0.
<mgrwt>
<rscale>  0 0.12500106E+03</rscale>
<asrwt>0</asrwt>
<pdfrwt beam="1">  1        4 0.87008262E-01 0.12500106E+03</pdfrwt>
<pdfrwt beam="2">  1       -4 0.10626254E-02 0.12500106E+03</pdfrwt>
<totfact> 0.50652243E+03</totfact>
</mgrwt>
</event>
<event>
 5    1  0.3311405E-002  0.1249983E+03  0.7818608E-02  0.1235072E+00
         -4   -1    0    0    0  501 -0.00000000000E+00  0.00000000000E+00  0.29169635601E+01  0.31814425047E+01  0.12700000000E+01 0.  1.
          4   -1    0    0  501    0  0.00000000000E+00 -0.00000000000E+00 -0.12807731193E+04  0.12807737489E+04  0.12700000000E+01 0.  1.
         25    2    1    2    0    0  0.00000000000E+00  0.00000000000E+00 -0.12778561557E+04  0.12839551915E+04  0.12499831568E+03 0.  0.
    9000005    1    3    3    0    0 -0.48025941368E+02  0.38392877815E+02 -0.52425129357E+03  0.52784554835E+03  0.10000000000E+01 0.  0.
    9000005    1    3    3    0    0  0.48025941368E+02 -0.38392877815E+02 -0.75360486217E+03  0.75610964310E+03  0.10000000000E+01 0.  0.
<mgrwt>
<rscale>  0 0.12499832E+03</rscale>
<asrwt>0</asrwt>
<pdfrwt beam="2">  1        4 0.19706198E+00 0.12499832E+03</pdfrwt>
<pdfrwt beam="1">  1       -4 0.46915762E-03 0.12499832E+03</pdfrwt>
<totfact> 0.22611295E+03</totfact>
</mgrwt>
</event>
<event>
 5    1  0.3311405E-002  0.1250181E+03  0.7818608E-02  0.1235041E+00
          4   -1    0    0  501    0  0.00000000000E+00  0.00000000000E+00  0.31509907268E+02  0.31535490420E+02  0.12700000000E+01 0. -1.
         -4   -1    0    0    0  501 -0.00000000000E+00 -0.00000000000E+00 -0.12392559357E+03  0.12393210093E+03  0.12700000000E+01 0. -1.
         25    2    1    2    0    0  0.00000000000E+00  0.00000000000E+00 -0.92415686300E+02  0.15546759135E+03  0.12501805024E+03 0.  0.
    9000005    1    3    3    0    0  0.46429572432E+02 -0.41214590173E+02 -0.37237759535E+02  0.72401646215E+02  0.10000000000E+01 0.  0.
    9000005    1    3    3    0    0 -0.46429572432E+02  0.41214590173E+02 -0.55177926765E+02  0.83065945137E+02  0.10000000000E+01 0.  0.
<mgrwt>
<rscale>  0 0.12501805E+03</rscale>
<asrwt>0</asrwt>
<pdfrwt beam="1">  1        4 0.48501466E-02 0.12501805E+03</pdfrwt>
<pdfrwt beam="2">  1       -4 0.19067944E-01 0.12501805E+03</pdfrwt>
<totfact> 0.98183922E+03</totfact>
</mgrwt>
</event>
<event>
 5    1  0.3311405E-002  0.1250006E+03  0.7818608E-02  0.1235068E+00
          4   -1    0    0  501    0  0.00000000000E+00  0.00000000000E+00  0.37966815346E+03  0.37967027755E+03  0.12700000000E+01 0.  1.
         -4   -1    0    0    0  501 -0.00000000000E+00 -0.00000000000E+00 -0.10247337588E+02  0.10325736179E+02  0.12700000000E+01 0.  1.
         25    2    1    2    0    0  0.00000000000E+00  0.00000000000E+00  0.36942081587E+03  0.38999601373E+03  0.12500060609E+03 0.  0.
    9000005    1    3    3    0    0  0.90909045863E+01 -0.57105191462E+02  0.25865003157E+03  0.26503676400E+03  0.10000000000E+01 0.  0.
    9000005    1    3    3    0    0 -0.90909045863E+01  0.57105191462E+02  0.11077078430E+03  0.12495924973E+03  0.10000000000E+01 0.  0.
<mgrwt>
<rscale>  0 0.12500061E+03</rscale>
<asrwt>0</asrwt>
<pdfrwt beam="1">  1        4 0.58416680E-01 0.12500061E+03</pdfrwt>
<pdfrwt beam="2">  1       -4 0.15827075E-02 0.12500061E+03</pdfrwt>
<totfact> 0.65536655E+03</totfact>
</mgrwt>
</event>
<event>
 5    1  0.3311405E-002  0.1250024E+03  0.7818608E-02  0.1235065E+00
         -4   -1    0    0    0  501 -0.00000000000E+00  0.00000000000E+00  0.52477812166E+02  0.52493177363E+02  0.12700000000E+01 0.  1.
          4   -1    0    0  501    0  0.00000000000E+00 -0.00000000000E+00 -0.74407441650E+02  0.74418279158E+02  0.12700000000E+01 0.  1.
         25    2    1    2    0    0  0.00000000000E+00  0.00000000000E+00 -0.21929629484E+02  0.12691145652E+03  0.12500243656E+03 0.  0.
    9000005    1    3    3    0    0 -0.51739805902E+02  0.17437112983E+02  0.19902486559E+02  0.58122021602E+02  0.10000000000E+01 0.  0.
    9000005    1    3    3    0    0  0.51739805902E+02 -0.17437112983E+02 -0.41832116042E+02  0.68789434919E+02  0.10000000000E+01 0.  0.
<mgrwt>
<rscale>  0 0.12500244E+03</rscale>
<asrwt>0</asrwt>
<pdfrwt beam="2">  1        4 0.11449314E-01 0.12500244E+03</pdfrwt>
<pdfrwt beam="1">  1       -4 0.80755252E-02 0.12500244E+03</pdfrwt>
<totfact> 0.10410497E+04</totfact>
</mgrwt>
</event>
<event>
 5    1  0.3311405E-002  0.1249914E+03  0.7818608E-02  0.1235083E+00
          4   -1    0    0  501    0  0.00000000000E+00  0.00000000000E+00  0.12885908038E+02  0.12948340664E+02  0.12700000000E+01 0.  1.
         -4   -1    0    0    0  501 -0.00000000000E+00 -0.00000000000E+00 -0.30230348541E+03  0.30230615308E+03  0.12700000000E+01 0.  1.
         25    2    1    2    0    0  0.00000000000E+00  0.00000000000E+00 -0.28941757737E+03  0.31525449375E+03  0.12499144665E+03 0.  0.
    9000005    1    3    3    0    0 -0.21573815716E+02 -0.58316927444E+02 -0.16034279606E+03  0.17197995756E+03  0.10000000000E+01 0.  0.
    9000005    1    3    3    0    0  0.21573815716E+02  0.58316927444E+02 -0.12907478131E+03  0.14327453619E+03  0.10000000000E+01 0.  0.
<mgrwt>
<rscale>  0 0.12499145E+03</rscale>
<asrwt>0</asrwt>
<pdfrwt beam="1">  1        4 0.19874553E-02 0.12499145E+03</pdfrwt>
<pdfrwt beam="2">  1       -4 0.46513231E-01 0.12499145E+03</pdfrwt>
<totfact> 0.73738104E+03</totfact>
</mgrwt>
</event>
<event>
 5    1  0.3311405E-002  0.1250009E+03  0.7818608E-02  0.1235068E+00
          4   -1    0    0  501    0  0.00000000000E+00  0.00000000000E+00  0.19154362550E+03  0.19154783572E+03  0.12700000000E+01 0. -1.
         -4   -1    0    0    0  501 -0.00000000000E+00 -0.00000000000E+00 -0.20369612063E+02  0.20409164500E+02  0.12700000000E+01 0. -1.
         25    2    1    2    0    0  0.00000000000E+00  0.00000000000E+00  0.17117401344E+03  0.21195700022E+03  0.12500090827E+03 0.  0.
    9000005    1    3    3    0    0 -0.98516456890E+01  0.34706409709E+02  0.17210998944E+03  0.17585345679E+03  0.10000000000E+01 0.  0.
    9000005    1    3    3    0    0  0.98516456890E+01 -0.34706409709E+02 -0.93597600493E+00  0.36103543437E+02  0.10000000000E+01 0.  0.
<mgrwt>
<rscale>  0 0.12500091E+03</rscale>
<asrwt>0</asrwt>
<pdfrwt beam="1">  1        4 0.29471615E-01 0.12500091E+03</pdfrwt>
<pdfrwt beam="2">  1       -4 0.31371530E-02 0.12500091E+03</pdfrwt>
<totfact> 0.88155482E+03</totfact>
</mgrwt>
</event>
<event>
 5    1  0.3311405E-002  0.1250007E+03  0.7818608E-02  0.1235068E+00
          4   -1    0    0  501    0  0.00000000000E+00  0.00000000000E+00  0.35079519306E+02  0.35102500975E+02  0.12700000000E+01 0. -1.
         -4   -1    0    0    0  501 -0.00000000000E+00 -0.00000000000E+00 -0.11129235843E+03  0.11129960442E+03  0.12700000000E+01 0. -1.
         25    2    1    2    0    0  0.00000000000E+00  0.00000000000E+00 -0.76212839123E+02  0.14640210540E+03  0.12500071847E+03 0.  0.
    9000005    1    3    3    0    0  0.41029145237E+02  0.10745580059E+02 -0.91860200219E+02  0.10118376665E+03  0.10000000000E+01 0.  0.
    9000005    1    3    3    0    0 -0.41029145237E+02 -0.10745580059E+02  0.15647361096E+02  0.45218338746E+02  0.10000000000E+01 0.  0.
<mgrwt>
<rscale>  0 0.12500072E+03</rscale>
<asrwt>0</asrwt>
<pdfrwt beam="1">  1        4 0.53991744E-02 0.12500072E+03</pdfrwt>
<pdfrwt beam="2">  1       -4 0.17124226E-01 0.12500072E+03</pdfrwt>
<totfact> 0.10002416E+04</totfact>
</mgrwt>
</event>
<event>
 5    1  0.3311405E-002  0.1249993E+03  0.7818608E-02  0.1235070E+00
         -4   -1    0    0    0  501 -0.00000000000E+00  0.00000000000E+00  0.59479517967E+02  0.59493074871E+02  0.12700000000E+01 0.  1.
          4   -1    0    0  501    0  0.00000000000E+00 -0.00000000000E+00 -0.65645973333E+02  0.65658257019E+02  0.12700000000E+01 0.  1.
         25    2    1    2    0    0  0.00000000000E+00  0.00000000000E+00 -0.61664553656E+01  0.12515133189E+03  0.12499932281E+03 0.  0.
    9000005    1    3    3    0    0  0.12193671780E+02 -0.38612991620E+02 -0.50738998278E+02  0.64923760670E+02  0.10000000000E+01 0.  0.
    9000005    1    3    3    0    0 -0.12193671780E+02  0.38612991620E+02  0.44572542913E+02  0.60227571220E+02  0.10000000000E+01 0.  0.
<mgrwt>
<rscale>  0 0.12499932E+03</rscale>
<asrwt>0</asrwt>
<pdfrwt beam="2">  1        4 0.10101368E-01 0.12499932E+03</pdfrwt>
<pdfrwt beam="1">  1       -4 0.91526828E-02 0.12499932E+03</pdfrwt>
<totfact> 0.10449737E+04</totfact>
</mgrwt>
</event>
<event>
 5    1  0.3311405E-002  0.1250015E+03  0.7818608E-02  0.1235067E+00
         -4   -1    0    0    0  501 -0.00000000000E+00  0.00000000000E+00  0.23721649152E+01  0.26907371453E+01  0.12700000000E+01 0.  1.
          4   -1    0    0  501    0  0.00000000000E+00 -0.00000000000E+00 -0.15428061911E+04  0.15428067139E+04  0.12700000000E+01 0.  1.
         25    2    1    2    0    0  0.00000000000E+00  0.00000000000E+00 -0.15404340262E+04  0.15454974510E+04  0.12500152759E+03 0.  0.
    9000005    1    3    3    0    0 -0.61055111366E+02  0.84644033834E+01 -0.89749404157E+03  0.89960876352E+03  0.10000000000E+01 0.  0.
    9000005    1    3    3    0    0  0.61055111366E+02 -0.84644033834E+01 -0.64293998466E+03  0.64588868748E+03  0.10000000000E+01 0.  0.
<mgrwt>
<rscale>  0 0.12500153E+03</rscale>
<asrwt>0</asrwt>
<pdfrwt beam="2">  1        4 0.23737859E+00 0.12500153E+03</pdfrwt>
<pdfrwt beam="1">  1       -4 0.38949545E-03 0.12500153E+03</pdfrwt>
<totfact> 0.17052720E+03</totfact>
</mgrwt>
</event>
<event>
 5    1  0.3311405E-002  0.1250014E+03  0.7818608E-02  0.1235067E+00
          4   -1    0    0  501    0  0.00000000000E+00  0.00000000000E+00  0.38784728570E+02  0.38805515977E+02  0.12700000000E+01 0.  1.
         -4   -1    0    0    0  501 -0.00000000000E+00 -0.00000000000E+00 -0.10066673901E+03  0.10067474978E+03  0.12700000000E+01 0.  1.
         25    2    1    2    0    0  0.00000000000E+00  0.00000000000E+00 -0.61882010441E+02  0.13948026576E+03  0.12500144527E+03 0.  0.
    9000005    1    3    3    0    0  0.36722358611E+02  0.28674559099E+01  0.25389988533E+02  0.44748245139E+02  0.10000000000E+01 0.  0.
    9000005    1    3    3    0    0 -0.36722358611E+02 -0.28674559099E+01 -0.87271998974E+02  0.94732020618E+02  0.10000000000E+01 0.  0.
<mgrwt>
<rscale>  0 0.12500145E+03</rscale>
<asrwt>0</asrwt>
<pdfrwt beam="1">  1        4 0.59690966E-02 0.12500145E+03</pdfrwt>
<pdfrwt beam="2">  1       -4 0.15489406E-01 0.12500145E+03</pdfrwt>
<totfact> 0.10144039E+04</totfact>
</mgrwt>
</event>
<event>
 5    1  0.3311405E-002  0.1249818E+03  0.7818608E-02  0.1235098E+00
          4   -1    0    0  501    0  0.00000000000E+00  0.00000000000E+00  0.60836525853E+02  0.60849780426E+02  0.12700000000E+01 0. -1.
         -4   -1    0    0    0  501 -0.00000000000E+00 -0.00000000000E+00 -0.64163733537E+02  0.64176300933E+02  0.12700000000E+01 0. -1.
         25    2    1    2    0    0  0.00000000000E+00  0.00000000000E+00 -0.33272076841E+01  0.12502608136E+03  0.12498180151E+03 0.  0.
    9000005    1    3    3    0    0  0.61843685636E+02  0.89063009488E+01 -0.20497815975E+01  0.62523317684E+02  0.10000000000E+01 0.  0.
    9000005    1    3    3    0    0 -0.61843685636E+02 -0.89063009488E+01 -0.12774260866E+01  0.62502763675E+02  0.10000000000E+01 0.  0.
<mgrwt>
<rscale>  0 0.12498180E+03</rscale>
<asrwt>0</asrwt>
<pdfrwt beam="1">  1        4 0.93614518E-02 0.12498180E+03</pdfrwt>
<pdfrwt beam="2">  1       -4 0.98733299E-02 0.12498180E+03</pdfrwt>
<totfact> 0.10456596E+04</totfact>
</mgrwt>
</event>
<event>
 5    1  0.3311405E-002  0.1249940E+03  0.7818608E-02  0.1235079E+00
          4   -1    0    0  501    0  0.00000000000E+00  0.00000000000E+00  0.22401367833E+02  0.22437338986E+02  0.12700000000E+01 0.  1.
         -4   -1    0    0    0  501 -0.00000000000E+00 -0.00000000000E+00 -0.17418069009E+03  0.17418531999E+03  0.12700000000E+01 0.  1.
         25    2    1    2    0    0  0.00000000000E+00  0.00000000000E+00 -0.15177932226E+03  0.19662265898E+03  0.12499402929E+03 0.  0.
    9000005    1    3    3    0    0  0.23058238699E+02  0.50894431442E+02 -0.31873549353E+02  0.64333884323E+02  0.10000000000E+01 0.  0.
    9000005    1    3    3    0    0 -0.23058238699E+02 -0.50894431442E+02 -0.11990577290E+03  0.13228877465E+03  0.10000000000E+01 0.  0.
<mgrwt>
<rscale>  0 0.12499403E+03</rscale>
<asrwt>0</asrwt>
<pdfrwt beam="1">  1        4 0.34494876E-02 0.12499403E+03</pdfrwt>
<pdfrwt beam="2">  1       -4 0.26800151E-01 0.12499403E+03</pdfrwt>
<totfact> 0.90719717E+03</totfact>
</mgrwt>
</event>
<event>
 5    1  0.3311405E-002  0.1250023E+03  0.7818608E-02  0.1235066E+00
          4   -1    0    0  501    0  0.00000000000E+00  0.00000000000E+00  0.23709937671E+02  0.23743926473E+02  0.12700000000E+01 0.  1.
         -4   -1    0    0    0  501 -0.00000000000E+00 -0.00000000000E+00 -0.16460327117E+03  0.16460817046E+03  0.12700000000E+01 0.  1.
         25    2    1    2    0    0  0.00000000000E+00  0.00000000000E+00 -0.14089333350E+03  0.18835209693E+03  0.12500232395E+03 0.  0.
    9000005    1    3    3    0    0 -0.21659705664E+02 -0.40969104977E+02 -0.13362020900E+03  0.14143185874E+03  0.10000000000E+01 0.  0.
    9000005    1    3    3    0    0  0.21659705664E+02  0.40969104977E+02 -0.72731245006E+01  0.46920238193E+02  0.10000000000E+01 0.  0.
<mgrwt>
<rscale>  0 0.12500232E+03</rscale>
<asrwt>0</asrwt>
<pdfrwt beam="1">  1        4 0.36506742E-02 0.12500232E+03</pdfrwt>
<pdfrwt beam="2">  1       -4 0.25326571E-01 0.12500232E+03</pdfrwt>
<totfact> 0.92130041E+03</totfact>
</mgrwt>
</event>
<event>
 5    1  0.3311405E-002  0.1250010E+03  0.7818608E-02  0.1235068E+00
         -4   -1    0    0    0  501 -0.00000000000E+00  0.00000000000E+00  0.84444021381E+02  0.84453570955E+02  0.12700000000E+01 0.  1.
          4   -1    0    0  501    0  0.00000000000E+00 -0.00000000000E+00 -0.46238317559E+02  0.46255755434E+02  0.12700000000E+01 0.  1.
         25    2    1    2    0    0  0.00000000000E+00  0.00000000000E+00  0.38205703822E+02  0.13070932639E+03  0.12500100880E+03 0.  0.
    9000005    1    3    3    0    0 -0.31863289728E+02  0.33296277957E+02  0.63236922860E+02  0.78254838642E+02  0.10000000000E+01 0.  0.
    9000005    1    3    3    0    0  0.31863289728E+02 -0.33296277957E+02 -0.25031219038E+02  0.52454487746E+02  0.10000000000E+01 0.  0.
<mgrwt>
<rscale>  0 0.12500101E+03</rscale>
<asrwt>0</asrwt>
<pdfrwt beam="2">  1        4 0.71156633E-02 0.12500101E+03</pdfrwt>
<pdfrwt beam="1">  1       -4 0.12993464E-01 0.12500101E+03</pdfrwt>
<totfact> 0.10329090E+04</totfact>
</mgrwt>
</event>
<event>
 5    1  0.3311405E-002  0.1250012E+03  0.7818608E-02  0.1235067E+00
         -4   -1    0    0    0  501 -0.00000000000E+00  0.00000000000E+00  0.12161194098E+02  0.12227327667E+02  0.12700000000E+01 0.  1.
          4   -1    0    0  501    0  0.00000000000E+00 -0.00000000000E+00 -0.32027403515E+03  0.32027655314E+03  0.12700000000E+01 0.  1.
         25    2    1    2    0    0  0.00000000000E+00  0.00000000000E+00 -0.30811284106E+03  0.33250388081E+03  0.12500123172E+03 0.  0.
    9000005    1    3    3    0    0  0.30467417899E+02  0.14332459745E+02 -0.14016726951E+02  0.36484950188E+02  0.10000000000E+01 0.  0.
    9000005    1    3    3    0    0 -0.30467417899E+02 -0.14332459745E+02 -0.29409611410E+03  0.29601893062E+03  0.10000000000E+01 0.  0.
<mgrwt>
<rscale>  0 0.12500123E+03</rscale>
<asrwt>0</asrwt>
<pdfrwt beam="2">  1        4 0.49278203E-01 0.12500123E+03</pdfrwt>
<pdfrwt beam="1">  1       -4 0.18762341E-02 0.12500123E+03</pdfrwt>
<totfact> 0.71691272E+03</totfact>
</mgrwt>
</event>
<event>
 5    1  0.3311405E-002  0.1250011E+03  0.7818608E-02  0.1235068E+00
         -4   -1    0    0    0  501 -0.00000000000E+00  0.00000000000E+00  0.90757768463E+01  0.91642034768E+01  0.12700000000E+01 0.  1.
          4   -1    0    0  501    0  0.00000000000E+00 -0.00000000000E+00 -0.42823528348E+03  0.42823716667E+03  0.12700000000E+01 0.  1.
         25    2    1    2    0    0  0.00000000000E+00  0.00000000000E+00 -0.41915950664E+03  0.43740137015E+03  0.12500106641E+03 0.  0.
    9000005    1    3    3    0    0 -0.34574887618E+02 -0.48386220954E+02 -0.27676652911E+03  0.28308543034E+03  0.10000000000E+01 0.  0.
    9000005    1    3    3    0    0  0.34574887618E+02  0.48386220954E+02 -0.14239297752E+03  0.15431593981E+03  0.10000000000E+01 0.  0.
<mgrwt>
<rscale>  0 0.12500107E+03</rscale>
<asrwt>0</asrwt>
<pdfrwt beam="2">  1        4 0.65889283E-01 0.12500107E+03</pdfrwt>
<pdfrwt beam="1">  1       -4 0.14032206E-02 0.12500107E+03</pdfrwt>
<totfact> 0.61069357E+03</totfact>
</mgrwt>
</event>
<event>
 5    1  0.3311405E-002  0.1250040E+03  0.7818608E-02  0.1235063E+00
          4   -1    0    0  501    0  0.00000000000E+00  0.00000000000E+00  0.20173692585E+02  0.20213628386E+02  0.12700000000E+01 0. -1.
         -4   -1    0    0    0  501 -0.00000000000E+00 -0.00000000000E+00 -0.19340965839E+03  0.19341382800E+03  0.12700000000E+01 0. -1.
         25    2    1    2    0    0  0.00000000000E+00  0.00000000000E+00 -0.17323596581E+03  0.21362745638E+03  0.12500396102E+03 0.  0.
    9000005    1    3    3    0    0  0.61292335642E+02  0.10865962153E+02 -0.96083557848E+02  0.11448960490E+03  0.10000000000E+01 0.  0.
    9000005    1    3    3    0    0 -0.61292335642E+02 -0.10865962153E+02 -0.77152407961E+02  0.99137851480E+02  0.10000000000E+01 0.  0.
<mgrwt>
<rscale>  0 0.12500396E+03</rscale>
<asrwt>0</asrwt>
<pdfrwt beam="1">  1        4 0.31070379E-02 0.12500396E+03</pdfrwt>
<pdfrwt beam="2">  1       -4 0.29758724E-01 0.12500396E+03</pdfrwt>
<totfact> 0.87879096E+03</totfact>
</mgrwt>
</event>
<event>
 5    1  0.3311405E-002  0.1249936E+03  0.7818608E-02  0.1235079E+00
         -4   -1    0    0    0  501 -0.00000000000E+00  0.00000000000E+00  0.58715769043E+03  0.58715906391E+03  0.12700000000E+01 0.  1.
          4   -1    0    0  501    0  0.00000000000E+00 -0.00000000000E+00 -0.65901204013E+01  0.67113774222E+01  0.12700000000E+01 0.  1.
         25    2    1    2    0    0  0.00000000000E+00  0.00000000000E+00  0.58056757003E+03  0.59387044133E+03  0.12499359071E+03 0.  0.
    9000005    1    3    3    0    0 -0.55742542596E+02 -0.69849449192E+01  0.16026824341E+03  0.16983206516E+03  0.10000000000E+01 0.  0.
    9000005    1    3    3    0    0  0.55742542596E+02  0.69849449192E+01  0.42029932662E+03  0.42403837617E+03  0.10000000000E+01 0.  0.
<mgrwt>
<rscale>  0 0.12499359E+03</rscale>
<asrwt>0</asrwt>
<pdfrwt beam="2">  1        4 0.10232974E-02 0.12499359E+03</pdfrwt>
<pdfrwt beam="1">  1       -4 0.90341417E-01 0.12499359E+03</pdfrwt>
<totfact> 0.49263736E+03</totfact>
</mgrwt>
</event>
<event>
 5    1  0.3311405E-002  0.1250189E+03  0.7818608E-02  0.1235040E+00
          4   -1    0    0  501    0  0.00000000000E+00  0.00000000000E+00  0.52428876504E+02  0.52444256039E+02  0.12700000000E+01 0.  1.
         -4   -1    0    0    0  501 -0.00000000000E+00 -0.00000000000E+00 -0.74496506695E+02  0.74507331249E+02  0.12700000000E+01 0.  1.
         25    2    1    2    0    0  0.00000000000E+00  0.00000000000E+00 -0.22067630191E+02  0.12695158729E+03  0.12501889942E+03 0.  0.
    9000005    1    3    3    0    0  0.66316179796E+01  0.53325564133E+02  0.21378858170E+02  0.57841591643E+02  0.10000000000E+01 0.  0.
    9000005    1    3    3    0    0 -0.66316179796E+01 -0.53325564133E+02 -0.43446488361E+02  0.69109995645E+02  0.10000000000E+01 0.  0.
<mgrwt>
<rscale>  0 0.12501890E+03</rscale>
<asrwt>0</asrwt>
<pdfrwt beam="1">  1        4 0.80679967E-02 0.12501890E+03</pdfrwt>
<pdfrwt beam="2">  1       -4 0.11463017E-01 0.12501890E+03</pdfrwt>
<totfact> 0.10405758E+04</totfact>
</mgrwt>
</event>
<event>
 5    1  0.3311405E-002  0.1250005E+03  0.7818608E-02  0.1235068E+00
         -4   -1    0    0    0  501 -0.00000000000E+00  0.00000000000E+00  0.21227219997E+03  0.21227599907E+03  0.12700000000E+01 0. -1.
          4   -1    0    0  501    0  0.00000000000E+00 -0.00000000000E+00 -0.18376355022E+02  0.18420187944E+02  0.12700000000E+01 0. -1.
         25    2    1    2    0    0  0.00000000000E+00  0.00000000000E+00  0.19389584495E+03  0.23069618701E+03  0.12500052805E+03 0.  0.
    9000005    1    3    3    0    0  0.29092012617E+02  0.49184170887E+01 -0.47213726733E+01  0.29896946076E+02  0.10000000000E+01 0.  0.
    9000005    1    3    3    0    0 -0.29092012617E+02 -0.49184170887E+01  0.19861721762E+03  0.20079924094E+03  0.10000000000E+01 0.  0.
<mgrwt>
<rscale>  0 0.12500053E+03</rscale>
<asrwt>0</asrwt>
<pdfrwt beam="2">  1        4 0.28307955E-02 0.12500053E+03</pdfrwt>
<pdfrwt beam="1">  1       -4 0.32660926E-01 0.12500053E+03</pdfrwt>
<totfact> 0.85201807E+03</totfact>
</mgrwt>
</event>
<event>
 5    1  0.3311405E-002  0.1249981E+03  0.7818608E-02  0.1235072E+00
         -4   -1    0    0    0  501 -0.00000000000E+00  0.00000000000E+00  0.10587701641E+02  0.10663598175E+02  0.12700000000E+01 0.  1.
          4   -1    0    0  501    0  0.00000000000E+00 -0.00000000000E+00 -0.36753643210E+03  0.36753862630E+03  0.12700000000E+01 0.  1.
         25    2    1    2    0    0  0.00000000000E+00  0.00000000000E+00 -0.35694873046E+03  0.37820222447E+03  0.12499810567E+03 0.  0.
    9000005    1    3    3    0    0  0.21038521571E+02  0.50776431779E+02 -0.88501374296E+02  0.10418425345E+03  0.10000000000E+01 0.  0.
    9000005    1    3    3    0    0 -0.21038521571E+02 -0.50776431779E+02 -0.26844735616E+03  0.27401797103E+03  0.10000000000E+01 0.  0.
<mgrwt>
<rscale>  0 0.12499811E+03</rscale>
<asrwt>0</asrwt>
<pdfrwt beam="2">  1        4 0.56550064E-01 0.12499811E+03</pdfrwt>
<pdfrwt beam="1">  1       -4 0.16348844E-02 0.12499811E+03</pdfrwt>
<totfact> 0.66732270E+03</totfact>
</mgrwt>
</event>
<event>
 5    1  0.3311405E-002  0.1249897E+03  0.7818608E-02  0.1235085E+00
         -4   -1    0    0    0  501 -0.00000000000E+00  0.00000000000E+00  0.71046445351E+03  0.71046558861E+03  0.12700000000E+01 0.  1.
          4   -1    0    0  501    0  0.00000000000E+00 -0.00000000000E+00 -0.54227551204E+01  0.55694858916E+01  0.12700000000E+01 0.  1.
         25    2    1    2    0    0  0.00000000000E+00  0.00000000000E+00  0.70504169839E+03  0.71603507450E+03  0.12498972538E+03 0.  0.
    9000005    1    3    3    0    0  0.31854367300E+02 -0.53709754642E+02  0.33949577601E+03  0.34519243965E+03  0.10000000000E+01 0.  0.
    9000005    1    3    3    0    0 -0.31854367300E+02  0.53709754642E+02  0.36554592238E+03  0.37084263486E+03  0.10000000000E+01 0.  0.
<mgrwt>
<rscale>  0 0.12498973E+03</rscale>
<asrwt>0</asrwt>
<pdfrwt beam="2">  1        4 0.84564484E-03 0.12498973E+03</pdfrwt>
<pdfrwt beam="1">  1       -4 0.10931353E+00 0.12498973E+03</pdfrwt>
<totfact> 0.42263152E+03</totfact>
</mgrwt>
</event>
<event>
 5    1  0.3311405E-002  0.1249949E+03  0.7818608E-02  0.1235077E+00
         -4   -1    0    0    0  501 -0.00000000000E+00  0.00000000000E+00  0.95911860368E+00  0.15914799703E+01  0.12700000000E+01 0. -1.
          4   -1    0    0  501    0  0.00000000000E+00 -0.00000000000E+00 -0.30621219305E+04  0.30621221938E+04  0.12700000000E+01 0. -1.
         25    2    1    2    0    0  0.00000000000E+00  0.00000000000E+00 -0.30611628119E+04  0.30637136738E+04  0.12499485708E+03 0.  0.
    9000005    1    3    3    0    0  0.11427450839E+02 -0.39486699348E+02 -0.37697710386E+03  0.37921303102E+03  0.10000000000E+01 0.  0.
    9000005    1    3    3    0    0 -0.11427450839E+02  0.39486699348E+02 -0.26841857080E+04  0.26845006428E+04  0.10000000000E+01 0.  0.
<mgrwt>
<rscale>  0 0.12499486E+03</rscale>
<asrwt>0</asrwt>
<pdfrwt beam="2">  1        4 0.47113846E+00 0.12499486E+03</pdfrwt>
<pdfrwt beam="1">  1       -4 0.19622260E-03 0.12499486E+03</pdfrwt>
<totfact> 0.15883311E+02</totfact>
</mgrwt>
</event>
<event>
 5    1  0.3311405E-002  0.1249999E+03  0.7818608E-02  0.1235069E+00
         -4   -1    0    0    0  501 -0.00000000000E+00  0.00000000000E+00  0.24141941868E+03  0.24142275911E+03  0.12700000000E+01 0.  1.
          4   -1    0    0  501    0  0.00000000000E+00 -0.00000000000E+00 -0.16151944413E+02  0.16201796454E+02  0.12700000000E+01 0.  1.
         25    2    1    2    0    0  0.00000000000E+00  0.00000000000E+00  0.22526747426E+03  0.25762455556E+03  0.12499990666E+03 0.  0.
    9000005    1    3    3    0    0  0.17124046672E+02  0.30578776438E+00  0.23649813307E+03  0.23711957622E+03  0.10000000000E+01 0.  0.
    9000005    1    3    3    0    0 -0.17124046672E+02 -0.30578776438E+00 -0.11230658805E+02  0.20504979342E+02  0.10000000000E+01 0.  0.
<mgrwt>
<rscale>  0 0.12499991E+03</rscale>
<asrwt>0</asrwt>
<pdfrwt beam="2">  1        4 0.24890063E-02 0.12499991E+03</pdfrwt>
<pdfrwt beam="1">  1       -4 0.37145540E-01 0.12499991E+03</pdfrwt>
<totfact> 0.81240749E+03</totfact>
</mgrwt>
</event>
<event>
 5    1  0.3311405E-002  0.1250063E+03  0.7818608E-02  0.1235059E+00
         -4   -1    0    0    0  501 -0.00000000000E+00  0.00000000000E+00  0.55165408675E+01  0.56608412045E+01  0.12700000000E+01 0. -1.
          4   -1    0    0  501    0  0.00000000000E+00 -0.00000000000E+00 -0.69888192474E+03  0.69888307866E+03  0.12700000000E+01 0. -1.
         25    2    1    2    0    0  0.00000000000E+00  0.00000000000E+00 -0.69336538387E+03  0.70454391986E+03  0.12500631767E+03 0.  0.
    9000005    1    3    3    0    0  0.50775166733E+02  0.21468531982E+01 -0.55167738864E+03  0.55401414032E+03  0.10000000000E+01 0.  0.
    9000005    1    3    3    0    0 -0.50775166733E+02 -0.21468531982E+01 -0.14168799523E+03  0.15052977954E+03  0.10000000000E+01 0.  0.
<mgrwt>
<rscale>  0 0.12500632E+03</rscale>
<asrwt>0</asrwt>
<pdfrwt beam="2">  1        4 0.10753142E+00 0.12500632E+03</pdfrwt>
<pdfrwt beam="1">  1       -4 0.85988793E-03 0.12500632E+03</pdfrwt>
<totfact> 0.42842011E+03</totfact>
</mgrwt>
</event>
<event>
 5    1  0.3311405E-002  0.1249998E+03  0.7818608E-02  0.1235070E+00
         -4   -1    0    0    0  501 -0.00000000000E+00  0.00000000000E+00  0.81953290890E+01  0.82931489120E+01  0.12700000000E+01 0. -1.
          4   -1    0    0  501    0  0.00000000000E+00 -0.00000000000E+00 -0.47371584690E+03  0.47371754929E+03  0.12700000000E+01 0. -1.
         25    2    1    2    0    0  0.00000000000E+00  0.00000000000E+00 -0.46552051781E+03  0.48201069820E+03  0.12499984271E+03 0.  0.
    9000005    1    3    3    0    0 -0.53805979440E+02 -0.22504699121E+02 -0.14621741863E+03  0.15742324612E+03  0.10000000000E+01 0.  0.
    9000005    1    3    3    0    0  0.53805979440E+02  0.22504699121E+02 -0.31930309918E+03  0.32458745209E+03  0.10000000000E+01 0.  0.
<mgrwt>
<rscale>  0 0.12499984E+03</rscale>
<asrwt>0</asrwt>
<pdfrwt beam="2">  1        4 0.72886995E-01 0.12499984E+03</pdfrwt>
<pdfrwt beam="1">  1       -4 0.12684758E-02 0.12499984E+03</pdfrwt>
<totfact> 0.57287845E+03</totfact>
</mgrwt>
</event>
<event>
 5    1  0.3311405E-002  0.1249991E+03  0.7818608E-02  0.1235071E+00
          4   -1    0    0  501    0  0.00000000000E+00  0.00000000000E+00  0.21991049017E+04  0.21991052684E+04  0.12700000000E+01 0.  1.
         -4   -1    0    0    0  501 -0.00000000000E+00 -0.00000000000E+00 -0.15488454672E+01  0.20029533897E+01  0.12700000000E+01 0.  1.
         25    2    1    2    0    0  0.00000000000E+00  0.00000000000E+00  0.21975560562E+04  0.22011082218E+04  0.12499913528E+03 0.  0.
    9000005    1    3    3    0    0  0.96778738407E+01  0.35414901486E+02  0.20829247183E+03  0.21150562714E+03  0.10000000000E+01 0.  0.
    9000005    1    3    3    0    0 -0.96778738407E+01 -0.35414901486E+02  0.19892635844E+04  0.19896025947E+04  0.10000000000E+01 0.  0.
<mgrwt>
<rscale>  0 0.12499914E+03</rscale>
<asrwt>0</asrwt>
<pdfrwt beam="1">  1        4 0.33835839E+00 0.12499914E+03</pdfrwt>
<pdfrwt beam="2">  1       -4 0.27324383E-03 0.12499914E+03</pdfrwt>
<totfact> 0.74596465E+02</totfact>
</mgrwt>
</event>
<event>
 5    1  0.3311405E-002  0.1250001E+03  0.7818608E-02  0.1235069E+00
          4   -1    0    0  501    0  0.00000000000E+00  0.00000000000E+00  0.65266197213E+02  0.65278552363E+02  0.12700000000E+01 0.  1.
         -4   -1    0    0    0  501 -0.00000000000E+00 -0.00000000000E+00 -0.59826408216E+02  0.59839886531E+02  0.12700000000E+01 0.  1.
         25    2    1    2    0    0  0.00000000000E+00  0.00000000000E+00  0.54397889969E+01  0.12511843889E+03  0.12500012979E+03 0.  0.
    9000005    1    3    3    0    0  0.42201743570E+02  0.28483204038E+02 -0.33549439778E+02  0.60982333360E+02  0.10000000000E+01 0.  0.
    9000005    1    3    3    0    0 -0.42201743570E+02 -0.28483204038E+02  0.38989228775E+02  0.64136105534E+02  0.10000000000E+01 0.  0.
<mgrwt>
<rscale>  0 0.12500013E+03</rscale>
<asrwt>0</asrwt>
<pdfrwt beam="1">  1        4 0.10042941E-01 0.12500013E+03</pdfrwt>
<pdfrwt beam="2">  1       -4 0.92060500E-02 0.12500013E+03</pdfrwt>
<totfact> 0.10450260E+04</totfact>
</mgrwt>
</event>
<event>
 5    1  0.3311405E-002  0.1249682E+03  0.7818608E-02  0.1235119E+00
         -4   -1    0    0    0  501 -0.00000000000E+00  0.00000000000E+00  0.51662028039E+02  0.51677635793E+02  0.12700000000E+01 0. -1.
          4   -1    0    0  501    0  0.00000000000E+00 -0.00000000000E+00 -0.75540839296E+02  0.75551514224E+02  0.12700000000E+01 0. -1.
         25    2    1    2    0    0  0.00000000000E+00  0.00000000000E+00 -0.23878811256E+02  0.12722915002E+03  0.12496823191E+03 0.  0.
    9000005    1    3    3    0    0  0.44334918090E+02  0.32934182971E+02  0.17795492071E+02  0.58033825551E+02  0.10000000000E+01 0.  0.
    9000005    1    3    3    0    0 -0.44334918090E+02 -0.32934182971E+02 -0.41674303328E+02  0.69195324465E+02  0.10000000000E+01 0.  0.
<mgrwt>
<rscale>  0 0.12496823E+03</rscale>
<asrwt>0</asrwt>
<pdfrwt beam="2">  1        4 0.11623689E-01 0.12496823E+03</pdfrwt>
<pdfrwt beam="1">  1       -4 0.79500260E-02 0.12496823E+03</pdfrwt>
<totfact> 0.10411636E+04</totfact>
</mgrwt>
</event>
<event>
 5    1  0.3311405E-002  0.1249968E+03  0.7818608E-02  0.1235074E+00
         -4   -1    0    0    0  501 -0.00000000000E+00  0.00000000000E+00  0.62482722391E+02  0.62495627826E+02  0.12700000000E+01 0.  1.
          4   -1    0    0  501    0  0.00000000000E+00 -0.00000000000E+00 -0.62488249781E+02  0.62501154075E+02  0.12700000000E+01 0.  1.
         25    2    1    2    0    0  0.00000000000E+00  0.00000000000E+00 -0.55273903839E-02  0.12499678190E+03  0.12499678178E+03 0.  0.
    9000005    1    3    3    0    0 -0.22641776120E+02 -0.57763632480E+02  0.74646053679E+01  0.62498060742E+02  0.10000000000E+01 0.  0.
    9000005    1    3    3    0    0  0.22641776120E+02  0.57763632480E+02 -0.74701327583E+01  0.62498721160E+02  0.10000000000E+01 0.  0.
<mgrwt>
<rscale>  0 0.12499678E+03</rscale>
<asrwt>0</asrwt>
<pdfrwt beam="2">  1        4 0.96155623E-02 0.12499678E+03</pdfrwt>
<pdfrwt beam="1">  1       -4 0.96147119E-02 0.12499678E+03</pdfrwt>
<totfact> 0.10453693E+04</totfact>
</mgrwt>
</event>
<event>
 5    1  0.3311405E-002  0.1249970E+03  0.7818608E-02  0.1235074E+00
          4   -1    0    0  501    0  0.00000000000E+00  0.00000000000E+00  0.10106882341E+04  0.10106890320E+04  0.12700000000E+01 0.  1.
         -4   -1    0    0    0  501 -0.00000000000E+00 -0.00000000000E+00 -0.37596027890E+01  0.39683136381E+01  0.12700000000E+01 0.  1.
         25    2    1    2    0    0  0.00000000000E+00  0.00000000000E+00  0.10069286313E+04  0.10146573457E+04  0.12499704215E+03 0.  0.
    9000005    1    3    3    0    0 -0.31530662701E+02 -0.42476821433E+02  0.77349642573E+03  0.77530392986E+03  0.10000000000E+01 0.  0.
    9000005    1    3    3    0    0  0.31530662701E+02  0.42476821433E+02  0.23343220559E+03  0.23935341581E+03  0.10000000000E+01 0.  0.
<mgrwt>
<rscale>  0 0.12499704E+03</rscale>
<asrwt>0</asrwt>
<pdfrwt beam="1">  1        4 0.15550685E+00 0.12499704E+03</pdfrwt>
<pdfrwt beam="2">  1       -4 0.59451558E-03 0.12499704E+03</pdfrwt>
<totfact> 0.30126327E+03</totfact>
</mgrwt>
</event>
<event>
 5    1  0.3311405E-002  0.1249775E+03  0.7818608E-02  0.1235104E+00
         -4   -1    0    0    0  501 -0.00000000000E+00  0.00000000000E+00  0.50282820245E+01  0.51861855075E+01  0.12700000000E+01 0. -1.
          4   -1    0    0  501    0  0.00000000000E+00 -0.00000000000E+00 -0.76441276394E+03  0.76441381893E+03  0.12700000000E+01 0. -1.
         25    2    1    2    0    0  0.00000000000E+00  0.00000000000E+00 -0.75938448191E+03  0.76960000444E+03  0.12497749981E+03 0.  0.
    9000005    1    3    3    0    0 -0.39096495523E+02 -0.43762541981E+02 -0.24759859891E+03  0.25445974578E+03  0.10000000000E+01 0.  0.
    9000005    1    3    3    0    0  0.39096495523E+02  0.43762541981E+02 -0.51178588301E+03  0.51514025866E+03  0.10000000000E+01 0.  0.
<mgrwt>
<rscale>  0 0.12497750E+03</rscale>
<asrwt>0</asrwt>
<pdfrwt beam="2">  1        4 0.11761410E+00 0.12497750E+03</pdfrwt>
<pdfrwt beam="1">  1       -4 0.78581003E-03 0.12497750E+03</pdfrwt>
<totfact> 0.39673279E+03</totfact>
</mgrwt>
</event>
<event>
 5    1  0.3311405E-002  0.1250008E+03  0.7818608E-02  0.1235068E+00
          4   -1    0    0  501    0  0.00000000000E+00  0.00000000000E+00  0.86343739250E+02  0.86353078739E+02  0.12700000000E+01 0. -1.
         -4   -1    0    0    0  501 -0.00000000000E+00 -0.00000000000E+00 -0.45220561905E+02  0.45238392091E+02  0.12700000000E+01 0. -1.
         25    2    1    2    0    0  0.00000000000E+00  0.00000000000E+00  0.41123177345E+02  0.13159147083E+03  0.12500079792E+03 0.  0.
    9000005    1    3    3    0    0  0.21165991087E+02  0.57639634632E+02  0.32791934732E+02  0.69617796882E+02  0.10000000000E+01 0.  0.
    9000005    1    3    3    0    0 -0.21165991087E+02 -0.57639634632E+02  0.83312426132E+01  0.61973673948E+02  0.10000000000E+01 0.  0.
<mgrwt>
<rscale>  0 0.12500080E+03</rscale>
<asrwt>0</asrwt>
<pdfrwt beam="1">  1        4 0.13285742E-01 0.12500080E+03</pdfrwt>
<pdfrwt beam="2">  1       -4 0.69590996E-02 0.12500080E+03</pdfrwt>
<totfact> 0.10310240E+04</totfact>
</mgrwt>
</event>
<event>
 5    1  0.3311405E-002  0.1249996E+03  0.7818608E-02  0.1235070E+00
         -4   -1    0    0    0  501 -0.00000000000E+00  0.00000000000E+00  0.17145252747E+03  0.17145723104E+03  0.12700000000E+01 0. -1.
          4   -1    0    0  501    0  0.00000000000E+00 -0.00000000000E+00 -0.22760406640E+02  0.22795811247E+02  0.12700000000E+01 0. -1.
         25    2    1    2    0    0  0.00000000000E+00  0.00000000000E+00  0.14869212083E+03  0.19425304229E+03  0.12499959056E+03 0.  0.
    9000005    1    3    3    0    0 -0.45648400930E+02  0.38409719868E+02  0.45433539299E+02  0.74995263724E+02  0.10000000000E+01 0.  0.
    9000005    1    3    3    0    0  0.45648400930E+02 -0.38409719868E+02  0.10325858153E+03  0.11925777856E+03  0.10000000000E+01 0.  0.
<mgrwt>
<rscale>  0 0.12499959E+03</rscale>
<asrwt>0</asrwt>
<pdfrwt beam="2">  1        4 0.35046863E-02 0.12499959E+03</pdfrwt>
<pdfrwt beam="1">  1       -4 0.26380397E-01 0.12499959E+03</pdfrwt>
<totfact> 0.91113355E+03</totfact>
</mgrwt>
</event>
<event>
 5    1  0.3311405E-002  0.1249987E+03  0.7818608E-02  0.1235071E+00
         -4   -1    0    0    0  501 -0.00000000000E+00  0.00000000000E+00  0.58762395912E+02  0.58776118223E+02  0.12700000000E+01 0.  1.
          4   -1    0    0  501    0  0.00000000000E+00 -0.00000000000E+00 -0.66446389111E+02  0.66458524855E+02  0.12700000000E+01 0.  1.
         25    2    1    2    0    0  0.00000000000E+00  0.00000000000E+00 -0.76839931985E+01  0.12523464308E+03  0.12499868829E+03 0.  0.
    9000005    1    3    3    0    0  0.22196230767E+02 -0.68862278391E+01  0.54276773503E+02  0.59051341525E+02  0.10000000000E+01 0.  0.
    9000005    1    3    3    0    0 -0.22196230767E+02  0.68862278391E+01 -0.61960766701E+02  0.66183301552E+02  0.10000000000E+01 0.  0.
<mgrwt>
<rscale>  0 0.12499869E+03</rscale>
<asrwt>0</asrwt>
<pdfrwt beam="2">  1        4 0.10224510E-01 0.12499869E+03</pdfrwt>
<pdfrwt beam="1">  1       -4 0.90423577E-02 0.12499869E+03</pdfrwt>
<totfact> 0.10448078E+04</totfact>
</mgrwt>
</event>
<event>
 5    1  0.3311405E-002  0.1250009E+03  0.7818608E-02  0.1235068E+00
          4   -1    0    0  501    0  0.00000000000E+00  0.00000000000E+00  0.62900301108E+03  0.62900429319E+03  0.12700000000E+01 0. -1.
         -4   -1    0    0    0  501 -0.00000000000E+00 -0.00000000000E+00 -0.61440835010E+01  0.62739670120E+01  0.12700000000E+01 0. -1.
         25    2    1    2    0    0  0.00000000000E+00  0.00000000000E+00  0.62285892758E+03  0.63527826020E+03  0.12500089686E+03 0.  0.
    9000005    1    3    3    0    0 -0.15887437316E+02  0.44123401771E+02  0.52134424773E+03  0.52345019810E+03  0.10000000000E+01 0.  0.
    9000005    1    3    3    0    0  0.15887437316E+02 -0.44123401771E+02  0.10151467985E+03  0.11182806210E+03  0.10000000000E+01 0.  0.
<mgrwt>
<rscale>  0 0.12500090E+03</rscale>
<asrwt>0</asrwt>
<pdfrwt beam="1">  1        4 0.96779803E-01 0.12500090E+03</pdfrwt>
<pdfrwt beam="2">  1       -4 0.95533309E-03 0.12500090E+03</pdfrwt>
<totfact> 0.46712944E+03</totfact>
</mgrwt>
</event>
<event>
 5    1  0.3311405E-002  0.1249995E+03  0.7818608E-02  0.1235070E+00
         -4   -1    0    0    0  501 -0.00000000000E+00  0.00000000000E+00  0.37096729986E+02  0.37118462733E+02  0.12700000000E+01 0. -1.
          4   -1    0    0  501    0  0.00000000000E+00 -0.00000000000E+00 -0.10524172582E+03  0.10524938838E+03  0.12700000000E+01 0. -1.
         25    2    1    2    0    0  0.00000000000E+00  0.00000000000E+00 -0.68144995834E+02  0.14236785111E+03  0.12499945829E+03 0.  0.
    9000005    1    3    3    0    0 -0.61898814561E+02 -0.83421074379E+01 -0.31748893096E+02  0.70071721924E+02  0.10000000000E+01 0.  0.
    9000005    1    3    3    0    0  0.61898814561E+02  0.83421074379E+01 -0.36396102738E+02  0.72296129185E+02  0.10000000000E+01 0.  0.
<mgrwt>
<rscale>  0 0.12499946E+03</rscale>
<asrwt>0</asrwt>
<pdfrwt beam="2">  1        4 0.16193296E-01 0.12499946E+03</pdfrwt>
<pdfrwt beam="1">  1       -4 0.57094504E-02 0.12499946E+03</pdfrwt>
<totfact> 0.10084868E+04</totfact>
</mgrwt>
</event>
<event>
 5    1  0.3311405E-002  0.1249976E+03  0.7818608E-02  0.1235073E+00
         -4   -1    0    0    0  501 -0.00000000000E+00  0.00000000000E+00  0.25861661910E+03  0.25861973741E+03  0.12700000000E+01 0.  1.
          4   -1    0    0  501    0  0.00000000000E+00 -0.00000000000E+00 -0.15073914372E+02  0.15127319475E+02  0.12700000000E+01 0.  1.
         25    2    1    2    0    0  0.00000000000E+00  0.00000000000E+00  0.24354270473E+03  0.27374705688E+03  0.12499760847E+03 0.  0.
    9000005    1    3    3    0    0  0.40356644384E+02 -0.46301255296E+02  0.14699324744E+03  0.15931252236E+03  0.10000000000E+01 0.  0.
    9000005    1    3    3    0    0 -0.40356644384E+02  0.46301255296E+02  0.96549457295E+02  0.11443453453E+03  0.10000000000E+01 0.  0.
<mgrwt>
<rscale>  0 0.12499761E+03</rscale>
<asrwt>0</asrwt>
<pdfrwt beam="2">  1        4 0.23234119E-02 0.12499761E+03</pdfrwt>
<pdfrwt beam="1">  1       -4 0.39791517E-01 0.12499761E+03</pdfrwt>
<totfact> 0.79018776E+03</totfact>
</mgrwt>
</event>
<event>
 5    1  0.3311405E-002  0.1250154E+03  0.7818608E-02  0.1235045E+00
          4   -1    0    0  501    0  0.00000000000E+00  0.00000000000E+00  0.13295557977E+02  0.13356075843E+02  0.12700000000E+01 0. -1.
         -4   -1    0    0    0  501 -0.00000000000E+00 -0.00000000000E+00 -0.29314446675E+03  0.29314721776E+03  0.12700000000E+01 0. -1.
         25    2    1    2    0    0  0.00000000000E+00  0.00000000000E+00 -0.27984890877E+03  0.30650329361E+03  0.12501542806E+03 0.  0.
    9000005    1    3    3    0    0 -0.39853315487E+02 -0.75571723201E+01 -0.23349780251E+02  0.46814632825E+02  0.10000000000E+01 0.  0.
    9000005    1    3    3    0    0  0.39853315487E+02  0.75571723201E+01 -0.25649912852E+03  0.25968866078E+03  0.10000000000E+01 0.  0.
<mgrwt>
<rscale>  0 0.12501543E+03</rscale>
<asrwt>0</asrwt>
<pdfrwt beam="1">  1        4 0.20503375E-02 0.12501543E+03</pdfrwt>
<pdfrwt beam="2">  1       -4 0.45104011E-01 0.12501543E+03</pdfrwt>
<totfact> 0.74764656E+03</totfact>
</mgrwt>
</event>
<event>
 5    1  0.3311405E-002  0.1249959E+03  0.7818608E-02  0.1235076E+00
          4   -1    0    0  501    0  0.00000000000E+00  0.00000000000E+00  0.47129405676E+02  0.47146513969E+02  0.12700000000E+01 0. -1.
         -4   -1    0    0    0  501 -0.00000000000E+00 -0.00000000000E+00 -0.82841066208E+02  0.82850800542E+02  0.12700000000E+01 0. -1.
         25    2    1    2    0    0  0.00000000000E+00  0.00000000000E+00 -0.35711660532E+02  0.12999731451E+03  0.12499591626E+03 0.  0.
    9000005    1    3    3    0    0 -0.51656117036E+02 -0.30047689053E+02 -0.36856398156E+02  0.70218317623E+02  0.10000000000E+01 0.  0.
    9000005    1    3    3    0    0  0.51656117036E+02  0.30047689053E+02  0.11447376241E+01  0.59778996888E+02  0.10000000000E+01 0.  0.
<mgrwt>
<rscale>  0 0.12499592E+03</rscale>
<asrwt>0</asrwt>
<pdfrwt beam="1">  1        4 0.72527426E-02 0.12499592E+03</pdfrwt>
<pdfrwt beam="2">  1       -4 0.12746844E-01 0.12499592E+03</pdfrwt>
<totfact> 0.10345519E+04</totfact>
</mgrwt>
</event>
<event>
 5    1  0.3311405E-002  0.1250029E+03  0.7818608E-02  0.1235065E+00
         -4   -1    0    0    0  501 -0.00000000000E+00  0.00000000000E+00  0.16614790816E+03  0.16615276189E+03  0.12700000000E+01 0. -1.
          4   -1    0    0  501    0  0.00000000000E+00 -0.00000000000E+00 -0.23489418492E+02  0.23523725919E+02  0.12700000000E+01 0. -1.
         25    2    1    2    0    0  0.00000000000E+00  0.00000000000E+00  0.14265848967E+03  0.18967648781E+03  0.12500290139E+03 0.  0.
    9000005    1    3    3    0    0  0.61754933314E+01  0.20128861269E+02  0.16061140471E+03  0.16198867583E+03  0.10000000000E+01 0.  0.
    9000005    1    3    3    0    0 -0.61754933314E+01 -0.20128861269E+02 -0.17952915044E+02  0.27687811984E+02  0.10000000000E+01 0.  0.
<mgrwt>
<rscale>  0 0.12500290E+03</rscale>
<asrwt>0</asrwt>
<pdfrwt beam="2">  1        4 0.36167692E-02 0.12500290E+03</pdfrwt>
<pdfrwt beam="1">  1       -4 0.25564228E-01 0.12500290E+03</pdfrwt>
<totfact> 0.91897663E+03</totfact>
</mgrwt>
</event>
<event>
 5    1  0.3311405E-002  0.1249968E+03  0.7818608E-02  0.1235074E+00
         -4   -1    0    0    0  501 -0.00000000000E+00  0.00000000000E+00  0.12967259394E+01  0.18150477024E+01  0.12700000000E+01 0. -1.
          4   -1    0    0  501    0  0.00000000000E+00 -0.00000000000E+00 -0.25099772954E+04  0.25099776167E+04  0.12700000000E+01 0. -1.
         25    2    1    2    0    0  0.00000000000E+00  0.00000000000E+00 -0.25086805695E+04  0.25117926644E+04  0.12499675734E+03 0.  0.
    9000005    1    3    3    0    0  0.14512272489E+02  0.60037695759E+02 -0.14448882990E+04  0.14462082587E+04  0.10000000000E+01 0.  0.
    9000005    1    3    3    0    0 -0.14512272489E+02 -0.60037695759E+02 -0.10637922705E+04  0.10655844057E+04  0.10000000000E+01 0.  0.
<mgrwt>
<rscale>  0 0.12499676E+03</rscale>
<asrwt>0</asrwt>
<pdfrwt beam="2">  1        4 0.38618701E+00 0.12499676E+03</pdfrwt>
<pdfrwt beam="1">  1       -4 0.23939393E-03 0.12499676E+03</pdfrwt>
<totfact> 0.45778483E+02</totfact>
</mgrwt>
</event>
<event>
 5    1  0.3311405E-002  0.1249983E+03  0.7818608E-02  0.1235072E+00
         -4   -1    0    0    0  501 -0.00000000000E+00  0.00000000000E+00  0.56700462239E+02  0.56714683443E+02  0.12700000000E+01 0.  1.
          4   -1    0    0  501    0  0.00000000000E+00 -0.00000000000E+00 -0.68862102196E+02  0.68873812287E+02  0.12700000000E+01 0.  1.
         25    2    1    2    0    0  0.00000000000E+00  0.00000000000E+00 -0.12161639958E+02  0.12558849573E+03  0.12499825908E+03 0.  0.
    9000005    1    3    3    0    0 -0.40656096477E+02 -0.20579747254E+02 -0.49046013500E+02  0.66954877477E+02  0.10000000000E+01 0.  0.
    9000005    1    3    3    0    0  0.40656096477E+02  0.20579747254E+02  0.36884373542E+02  0.58633618253E+02  0.10000000000E+01 0.  0.
<mgrwt>
<rscale>  0 0.12499826E+03</rscale>
<asrwt>0</asrwt>
<pdfrwt beam="2">  1        4 0.10596164E-01 0.12499826E+03</pdfrwt>
<pdfrwt beam="1">  1       -4 0.87251428E-02 0.12499826E+03</pdfrwt>
<totfact> 0.10440411E+04</totfact>
</mgrwt>
</event>
<event>
 5    1  0.3311405E-002  0.1250042E+03  0.7818608E-02  0.1235063E+00
         -4   -1    0    0    0  501 -0.00000000000E+00  0.00000000000E+00  0.88884802979E+02  0.88893875495E+02  0.12700000000E+01 0.  1.
          4   -1    0    0  501    0  0.00000000000E+00 -0.00000000000E+00 -0.43929763850E+02  0.43948117729E+02  0.12700000000E+01 0.  1.
         25    2    1    2    0    0  0.00000000000E+00  0.00000000000E+00  0.44955039129E+02  0.13284199322E+03  0.12500415841E+03 0.  0.
    9000005    1    3    3    0    0 -0.36001267556E+02 -0.49822370791E+02  0.34460617786E+02  0.70476195095E+02  0.10000000000E+01 0.  0.
    9000005    1    3    3    0    0  0.36001267556E+02  0.49822370791E+02  0.10494421343E+02  0.62365798129E+02  0.10000000000E+01 0.  0.
<mgrwt>
<rscale>  0 0.12500416E+03</rscale>
<asrwt>0</asrwt>
<pdfrwt beam="2">  1        4 0.67605350E-02 0.12500416E+03</pdfrwt>
<pdfrwt beam="1">  1       -4 0.13676695E-01 0.12500416E+03</pdfrwt>
<totfact> 0.10282795E+04</totfact>
</mgrwt>
</event>
<event>
 5    1  0.3311405E-002  0.1250012E+03  0.7818608E-02  0.1235067E+00
         -4   -1    0    0    0  501 -0.00000000000E+00  0.00000000000E+00  0.16219261554E+03  0.16219758764E+03  0.12700000000E+01 0.  1.
          4   -1    0    0  501    0  0.00000000000E+00 -0.00000000000E+00 -0.24062387991E+02  0.24095879644E+02  0.12700000000E+01 0.  1.
         25    2    1    2    0    0  0.00000000000E+00  0.00000000000E+00  0.13813022755E+03  0.18629346728E+03  0.12500118475E+03 0.  0.
    9000005    1    3    3    0    0 -0.41922996067E+02 -0.25665222445E+02  0.11555172921E+02  0.50505081563E+02  0.10000000000E+01 0.  0.
    9000005    1    3    3    0    0  0.41922996067E+02  0.25665222445E+02  0.12657505463E+03  0.13578838572E+03  0.10000000000E+01 0.  0.
<mgrwt>
<rscale>  0 0.12500118E+03</rscale>
<asrwt>0</asrwt>
<pdfrwt beam="2">  1        4 0.37048644E-02 0.12500118E+03</pdfrwt>
<pdfrwt beam="1">  1       -4 0.24955670E-01 0.12500118E+03</pdfrwt>
<totfact> 0.92493812E+03</totfact>
</mgrwt>
</event>
<event>
 5    1  0.3311405E-002  0.1249842E+03  0.7818608E-02  0.1235094E+00
          4   -1    0    0  501    0  0.00000000000E+00  0.00000000000E+00  0.43247840823E+03  0.43248027294E+03  0.12700000000E+01 0. -1.
         -4   -1    0    0    0  501 -0.00000000000E+00 -0.00000000000E+00 -0.89834189348E+01  0.90727457673E+01  0.12700000000E+01 0. -1.
         25    2    1    2    0    0  0.00000000000E+00  0.00000000000E+00  0.42349498929E+03  0.44155301871E+03  0.12498424850E+03 0.  0.
    9000005    1    3    3    0    0  0.59916974632E+02 -0.17704651699E+02  0.21484163635E+03  0.22374411109E+03  0.10000000000E+01 0.  0.
    9000005    1    3    3    0    0 -0.59916974632E+02  0.17704651699E+02  0.20865335295E+03  0.21780890762E+03  0.10000000000E+01 0.  0.
<mgrwt>
<rscale>  0 0.12498425E+03</rscale>
<asrwt>0</asrwt>
<pdfrwt beam="1">  1        4 0.66542140E-01 0.12498425E+03</pdfrwt>
<pdfrwt beam="2">  1       -4 0.13890795E-02 0.12498425E+03</pdfrwt>
<totfact> 0.60723644E+03</totfact>
</mgrwt>
</event>
<event>
 5    1  0.3311405E-002  0.1250119E+03  0.7818608E-02  0.1235051E+00
          4   -1    0    0  501    0  0.00000000000E+00  0.00000000000E+00  0.25189284386E+03  0.25189604540E+03  0.12700000000E+01 0. -1.
         -4   -1    0    0    0  501 -0.00000000000E+00 -0.00000000000E+00 -0.15481240773E+02  0.15533245503E+02  0.12700000000E+01 0. -1.
         25    2    1    2    0    0  0.00000000000E+00  0.00000000000E+00  0.23641160309E+03  0.26742929090E+03  0.12501191767E+03 0.  0.
    9000005    1    3    3    0    0  0.19464885130E+02 -0.53559799346E+02  0.17309951288E+03  0.18224152990E+03  0.10000000000E+01 0.  0.
    9000005    1    3    3    0    0 -0.19464885130E+02  0.53559799346E+02  0.63312090207E+02  0.85187761008E+02  0.10000000000E+01 0.  0.
<mgrwt>
<rscale>  0 0.12501192E+03</rscale>
<asrwt>0</asrwt>
<pdfrwt beam="1">  1        4 0.38756991E-01 0.12501192E+03</pdfrwt>
<pdfrwt beam="2">  1       -4 0.23859761E-02 0.12501192E+03</pdfrwt>
<totfact> 0.79853465E+03</totfact>
</mgrwt>
</event>
<event>
 5    1  0.3311405E-002  0.1249993E+03  0.7818608E-02  0.1235070E+00
         -4   -1    0    0    0  501 -0.00000000000E+00  0.00000000000E+00  0.41981428677E+01  0.43860350588E+01  0.12700000000E+01 0.  1.
          4   -1    0    0  501    0  0.00000000000E+00 -0.00000000000E+00 -0.90990555391E+03  0.90990644021E+03  0.12700000000E+01 0.  1.
         25    2    1    2    0    0  0.00000000000E+00  0.00000000000E+00 -0.90570741105E+03  0.91429247527E+03  0.12499926367E+03 0.  0.
    9000005    1    3    3    0    0 -0.19585026043E+02 -0.98135295685E+01 -0.88093732156E+03  0.88121021506E+03  0.10000000000E+01 0.  0.
    9000005    1    3    3    0    0  0.19585026043E+02  0.98135295685E+01 -0.24770089485E+02  0.33082260213E+02  0.10000000000E+01 0.  0.
<mgrwt>
<rscale>  0 0.12499926E+03</rscale>
<asrwt>0</asrwt>
<pdfrwt beam="2">  1        4 0.13999984E+00 0.12499926E+03</pdfrwt>
<pdfrwt beam="1">  1       -4 0.66039028E-03 0.12499926E+03</pdfrwt>
<totfact> 0.33619104E+03</totfact>
</mgrwt>
</event>
<event>
 5    1  0.3311405E-002  0.1250005E+03  0.7818608E-02  0.1235069E+00
          4   -1    0    0  501    0  0.00000000000E+00  0.00000000000E+00  0.47289607115E+02  0.47306657471E+02  0.12700000000E+01 0. -1.
         -4   -1    0    0    0  501 -0.00000000000E+00 -0.00000000000E+00 -0.82566534700E+02  0.82576301397E+02  0.12700000000E+01 0. -1.
         25    2    1    2    0    0  0.00000000000E+00  0.00000000000E+00 -0.35276927586E+02  0.12988295887E+03  0.12500048554E+03 0.  0.
    9000005    1    3    3    0    0  0.11478230812E+01 -0.62941039688E+01 -0.82230434954E+02  0.82485014853E+02  0.10000000000E+01 0.  0.
    9000005    1    3    3    0    0 -0.11478230812E+01  0.62941039688E+01  0.46953507368E+02  0.47397944014E+02  0.10000000000E+01 0.  0.
<mgrwt>
<rscale>  0 0.12500049E+03</rscale>
<asrwt>0</asrwt>
<pdfrwt beam="1">  1        4 0.72773870E-02 0.12500049E+03</pdfrwt>
<pdfrwt beam="2">  1       -4 0.12704607E-01 0.12500049E+03</pdfrwt>
<totfact> 0.10346898E+04</totfact>
</mgrwt>
</event>
<event>
 5    1  0.3311405E-002  0.1249993E+03  0.7818608E-02  0.1235070E+00
          4   -1    0    0  501    0  0.00000000000E+00  0.00000000000E+00  0.71190340961E+01  0.72314276918E+01  0.12700000000E+01 0. -1.
         -4   -1    0    0    0  501 -0.00000000000E+00 -0.00000000000E+00 -0.54428830044E+03  0.54428978210E+03  0.12700000000E+01 0. -1.
         25    2    1    2    0    0  0.00000000000E+00  0.00000000000E+00 -0.53716926634E+03  0.55152120979E+03  0.12499929657E+03 0.  0.
    9000005    1    3    3    0    0 -0.49549574974E+02 -0.36396566470E+02 -0.21918862198E+03  0.22764999986E+03  0.10000000000E+01 0.  0.
    9000005    1    3    3    0    0  0.49549574974E+02  0.36396566470E+02 -0.31798064436E+03  0.32387120992E+03  0.10000000000E+01 0.  0.
<mgrwt>
<rscale>  0 0.12499930E+03</rscale>
<asrwt>0</asrwt>
<pdfrwt beam="1">  1        4 0.11039961E-02 0.12499930E+03</pdfrwt>
<pdfrwt beam="2">  1       -4 0.83745388E-01 0.12499930E+03</pdfrwt>
<totfact> 0.52078883E+03</totfact>
</mgrwt>
</event>
<event>
 5    1  0.3311405E-002  0.1249987E+03  0.7818608E-02  0.1235071E+00
         -4   -1    0    0    0  501 -0.00000000000E+00  0.00000000000E+00  0.31466221318E+02  0.31491839959E+02  0.12700000000E+01 0. -1.
          4   -1    0    0  501    0  0.00000000000E+00 -0.00000000000E+00 -0.12405904710E+03  0.12406554747E+03  0.12700000000E+01 0. -1.
         25    2    1    2    0    0  0.00000000000E+00  0.00000000000E+00 -0.92592825785E+02  0.15555738743E+03  0.12499867758E+03 0.  0.
    9000005    1    3    3    0    0  0.14243817352E+01 -0.61342163556E+02 -0.61035791091E+02  0.86552051895E+02  0.10000000000E+01 0.  0.
    9000005    1    3    3    0    0 -0.14243817352E+01  0.61342163556E+02 -0.31557034694E+02  0.69005335531E+02  0.10000000000E+01 0.  0.
<mgrwt>
<rscale>  0 0.12499868E+03</rscale>
<asrwt>0</asrwt>
<pdfrwt beam="2">  1        4 0.19088478E-01 0.12499868E+03</pdfrwt>
<pdfrwt beam="1">  1       -4 0.48434279E-02 0.12499868E+03</pdfrwt>
<totfact> 0.98209108E+03</totfact>
</mgrwt>
</event>
<event>
 5    1  0.3311405E-002  0.1249861E+03  0.7818608E-02  0.1235091E+00
         -4   -1    0    0    0  501 -0.00000000000E+00  0.00000000000E+00  0.14465717231E+02  0.14521359269E+02  0.12700000000E+01 0. -1.
          4   -1    0    0  501    0  0.00000000000E+00 -0.00000000000E+00 -0.26939937705E+03  0.26940237055E+03  0.12700000000E+01 0. -1.
         25    2    1    2    0    0  0.00000000000E+00  0.00000000000E+00 -0.25493365982E+03  0.28392372982E+03  0.12498605299E+03 0.  0.
    9000005    1    3    3    0    0  0.57769588422E+02 -0.20394802027E+02 -0.15539095973E+03  0.16703479776E+03  0.10000000000E+01 0.  0.
    9000005    1    3    3    0    0 -0.57769588422E+02  0.20394802027E+02 -0.99542700091E+02  0.11688893206E+03  0.10000000000E+01 0.  0.
<mgrwt>
<rscale>  0 0.12498605E+03</rscale>
<asrwt>0</asrwt>
<pdfrwt beam="2">  1        4 0.41450565E-01 0.12498605E+03</pdfrwt>
<pdfrwt beam="1">  1       -4 0.22300056E-02 0.12498605E+03</pdfrwt>
<totfact> 0.77684784E+03</totfact>
</mgrwt>
</event>
<event>
 5    1  0.3311405E-002  0.1249891E+03  0.7818608E-02  0.1235086E+00
          4   -1    0    0  501    0  0.00000000000E+00  0.00000000000E+00  0.13910795776E+03  0.13911375494E+03  0.12700000000E+01 0. -1.
         -4   -1    0    0    0  501 -0.00000000000E+00 -0.00000000000E+00 -0.28055073584E+02  0.28083804120E+02  0.12700000000E+01 0. -1.
         25    2    1    2    0    0  0.00000000000E+00  0.00000000000E+00  0.11105288418E+03  0.16719755906E+03  0.12498912221E+03 0.  0.
    9000005    1    3    3    0    0  0.40253489362E+02 -0.27117973843E+01  0.11935677513E+03  0.12599498807E+03  0.10000000000E+01 0.  0.
    9000005    1    3    3    0    0 -0.40253489362E+02  0.27117973843E+01 -0.83038909488E+01  0.41202570984E+02  0.10000000000E+01 0.  0.
<mgrwt>
<rscale>  0 0.12498912E+03</rscale>
<asrwt>0</asrwt>
<pdfrwt beam="1">  1        4 0.21403880E-01 0.12498912E+03</pdfrwt>
<pdfrwt beam="2">  1       -4 0.43188211E-02 0.12498912E+03</pdfrwt>
<totfact> 0.95996271E+03</totfact>
</mgrwt>
</event>
<event>
 5    1  0.3311405E-002  0.1250382E+03  0.7818608E-02  0.1235010E+00
         -4   -1    0    0    0  501 -0.00000000000E+00  0.00000000000E+00  0.27247260472E+03  0.27247556445E+03  0.12700000000E+01 0.  1.
          4   -1    0    0  501    0  0.00000000000E+00 -0.00000000000E+00 -0.14313922937E+02  0.14370152743E+02  0.12700000000E+01 0.  1.
         25    2    1    2    0    0  0.00000000000E+00  0.00000000000E+00  0.25815868179E+03  0.28684571720E+03  0.12503823612E+03 0.  0.
    9000005    1    3    3    0    0 -0.49613976352E+02 -0.15771384832E+02  0.49698199179E+02  0.71980512853E+02  0.10000000000E+01 0.  0.
    9000005    1    3    3    0    0  0.49613976352E+02  0.15771384832E+02  0.20846048261E+03  0.21486520434E+03  0.10000000000E+01 0.  0.
<mgrwt>
<rscale>  0 0.12503824E+03</rscale>
<asrwt>0</asrwt>
<pdfrwt beam="2">  1        4 0.22066951E-02 0.12503824E+03</pdfrwt>
<pdfrwt beam="1">  1       -4 0.41923413E-01 0.12503824E+03</pdfrwt>
<totfact> 0.77213467E+03</totfact>
</mgrwt>
</event>
<event>
 5    1  0.3311405E-002  0.1250002E+03  0.7818608E-02  0.1235069E+00
         -4   -1    0    0    0  501 -0.00000000000E+00  0.00000000000E+00  0.81989434415E+03  0.81989532775E+03  0.12700000000E+01 0.  1.
          4   -1    0    0  501    0  0.00000000000E+00 -0.00000000000E+00 -0.46787129966E+01  0.48480156048E+01  0.12700000000E+01 0.  1.
         25    2    1    2    0    0  0.00000000000E+00  0.00000000000E+00  0.81521563116E+03  0.82474334336E+03  0.12500022854E+03 0.  0.
    9000005    1    3    3    0    0  0.45589849641E+02 -0.38538869283E+02  0.28566458618E+03  0.29183717144E+03  0.10000000000E+01 0.  0.
    9000005    1    3    3    0    0 -0.45589849641E+02  0.38538869283E+02  0.52955104497E+03  0.53290617192E+03  0.10000000000E+01 0.  0.
<mgrwt>
<rscale>  0 0.12500023E+03</rscale>
<asrwt>0</asrwt>
<pdfrwt beam="2">  1        4 0.73290081E-03 0.12500023E+03</pdfrwt>
<pdfrwt beam="1">  1       -4 0.12615071E+00 0.12500023E+03</pdfrwt>
<totfact> 0.37183505E+03</totfact>
</mgrwt>
</event>
<event>
 5    1  0.3311405E-002  0.1250009E+03  0.7818608E-02  0.1235068E+00
         -4   -1    0    0    0  501 -0.00000000000E+00  0.00000000000E+00  0.18245364177E+03  0.18245806174E+03  0.12700000000E+01 0. -1.
          4   -1    0    0  501    0  0.00000000000E+00 -0.00000000000E+00 -0.21386343186E+02  0.21424018645E+02  0.12700000000E+01 0. -1.
         25    2    1    2    0    0  0.00000000000E+00  0.00000000000E+00  0.16106729858E+03  0.20388208039E+03  0.12500091212E+03 0.  0.
    9000005    1    3    3    0    0  0.17290786405E+02 -0.44517154348E+02  0.14627423607E+03  0.15387625049E+03  0.10000000000E+01 0.  0.
    9000005    1    3    3    0    0 -0.17290786405E+02  0.44517154348E+02  0.14793062515E+02  0.50005829903E+02  0.10000000000E+01 0.  0.
<mgrwt>
<rscale>  0 0.12500091E+03</rscale>
<asrwt>0</asrwt>
<pdfrwt beam="2">  1        4 0.32934448E-02 0.12500091E+03</pdfrwt>
<pdfrwt beam="1">  1       -4 0.28073029E-01 0.12500091E+03</pdfrwt>
<totfact> 0.89483041E+03</totfact>
</mgrwt>
</event>
<event>
 5    1  0.3311405E-002  0.1249992E+03  0.7818608E-02  0.1235071E+00
          4   -1    0    0  501    0  0.00000000000E+00  0.00000000000E+00  0.27036007430E+02  0.27065819731E+02  0.12700000000E+01 0.  1.
         -4   -1    0    0    0  501 -0.00000000000E+00 -0.00000000000E+00 -0.14436909753E+03  0.14437468345E+03  0.12700000000E+01 0.  1.
         25    2    1    2    0    0  0.00000000000E+00  0.00000000000E+00 -0.11733309010E+03  0.17144050318E+03  0.12499916839E+03 0.  0.
    9000005    1    3    3    0    0  0.58029176695E+02  0.16503325786E+02 -0.36320531476E+02  0.70426742907E+02  0.10000000000E+01 0.  0.
    9000005    1    3    3    0    0 -0.58029176695E+02 -0.16503325786E+02 -0.81012558620E+02  0.10101376027E+03  0.10000000000E+01 0.  0.
<mgrwt>
<rscale>  0 0.12499917E+03</rscale>
<asrwt>0</asrwt>
<pdfrwt beam="1">  1        4 0.41621088E-02 0.12499917E+03</pdfrwt>
<pdfrwt beam="2">  1       -4 0.22213353E-01 0.12499917E+03</pdfrwt>
<totfact> 0.95182603E+03</totfact>
</mgrwt>
</event>
<event>
 5    1  0.3311405E-002  0.1250025E+03  0.7818608E-02  0.1235065E+00
          4   -1    0    0  501    0  0.00000000000E+00  0.00000000000E+00  0.40552448433E+01  0.42494600526E+01  0.12700000000E+01 0. -1.
         -4   -1    0    0    0  501 -0.00000000000E+00 -0.00000000000E+00 -0.94057527005E+03  0.94057612745E+03  0.12700000000E+01 0. -1.
         25    2    1    2    0    0  0.00000000000E+00  0.00000000000E+00 -0.93652002520E+03  0.94482558750E+03  0.12500253272E+03 0.  0.
    9000005    1    3    3    0    0 -0.51763273536E+02  0.34973302261E+02 -0.45552242132E+03  0.45978717325E+03  0.10000000000E+01 0.  0.
    9000005    1    3    3    0    0  0.51763273536E+02 -0.34973302261E+02 -0.48099760388E+03  0.48503841425E+03  0.10000000000E+01 0.  0.
<mgrwt>
<rscale>  0 0.12500253E+03</rscale>
<asrwt>0</asrwt>
<pdfrwt beam="1">  1        4 0.63889016E-03 0.12500253E+03</pdfrwt>
<pdfrwt beam="2">  1       -4 0.14471872E+00 0.12500253E+03</pdfrwt>
<totfact> 0.32498641E+03</totfact>
</mgrwt>
</event>
<event>
 5    1  0.3311405E-002  0.1250003E+03  0.7818608E-02  0.1235069E+00
         -4   -1    0    0    0  501 -0.00000000000E+00  0.00000000000E+00  0.51177974260E+02  0.51193729590E+02  0.12700000000E+01 0.  1.
          4   -1    0    0  501    0  0.00000000000E+00 -0.00000000000E+00 -0.76294353760E+02  0.76304923272E+02  0.12700000000E+01 0.  1.
         25    2    1    2    0    0  0.00000000000E+00  0.00000000000E+00 -0.25116379500E+02  0.12749865286E+03  0.12500029585E+03 0.  0.
    9000005    1    3    3    0    0  0.34576026540E+02  0.31613726106E+02  0.29624637084E+02  0.55439592459E+02  0.10000000000E+01 0.  0.
    9000005    1    3    3    0    0 -0.34576026540E+02 -0.31613726106E+02 -0.54741016584E+02  0.72059060404E+02  0.10000000000E+01 0.  0.
<mgrwt>
<rscale>  0 0.12500030E+03</rscale>
<asrwt>0</asrwt>
<pdfrwt beam="2">  1        4 0.11739618E-01 0.12500030E+03</pdfrwt>
<pdfrwt beam="1">  1       -4 0.78755595E-02 0.12500030E+03</pdfrwt>
<totfact> 0.10398260E+04</totfact>
</mgrwt>
</event>
<event>
 5    1  0.3311405E-002  0.1249973E+03  0.7818608E-02  0.1235073E+00
          4   -1    0    0  501    0  0.00000000000E+00  0.00000000000E+00  0.36967999377E+02  0.36989807758E+02  0.12700000000E+01 0. -1.
         -4   -1    0    0    0  501 -0.00000000000E+00 -0.00000000000E+00 -0.10560443863E+03  0.10561207487E+03  0.12700000000E+01 0. -1.
         25    2    1    2    0    0  0.00000000000E+00  0.00000000000E+00 -0.68636439248E+02  0.14260188262E+03  0.12499734451E+03 0.  0.
    9000005    1    3    3    0    0  0.48912665480E+02  0.22856676586E+01 -0.78611750313E+02  0.92620086419E+02  0.10000000000E+01 0.  0.
    9000005    1    3    3    0    0 -0.48912665480E+02 -0.22856676586E+01  0.99753110646E+01  0.49981796205E+02  0.10000000000E+01 0.  0.
<mgrwt>
<rscale>  0 0.12499734E+03</rscale>
<asrwt>0</asrwt>
<pdfrwt beam="1">  1        4 0.56896495E-02 0.12499734E+03</pdfrwt>
<pdfrwt beam="2">  1       -4 0.16249102E-01 0.12499734E+03</pdfrwt>
<totfact> 0.10080545E+04</totfact>
</mgrwt>
</event>
<event>
 5    1  0.3311405E-002  0.1249998E+03  0.7818608E-02  0.1235070E+00
         -4   -1    0    0    0  501 -0.00000000000E+00  0.00000000000E+00  0.78384774071E+02  0.78395061746E+02  0.12700000000E+01 0. -1.
          4   -1    0    0  501    0  0.00000000000E+00 -0.00000000000E+00 -0.49812521595E+02  0.49828708669E+02  0.12700000000E+01 0. -1.
         25    2    1    2    0    0  0.00000000000E+00  0.00000000000E+00  0.28572252476E+02  0.12822377042E+03  0.12499984675E+03 0.  0.
    9000005    1    3    3    0    0  0.50768109306E+02 -0.36322524785E+02  0.17279204338E+02  0.64778836295E+02  0.10000000000E+01 0.  0.
    9000005    1    3    3    0    0 -0.50768109306E+02  0.36322524785E+02  0.11293048138E+02  0.63444934120E+02  0.10000000000E+01 0.  0.
<mgrwt>
<rscale>  0 0.12499985E+03</rscale>
<asrwt>0</asrwt>
<pdfrwt beam="2">  1        4 0.76655014E-02 0.12499985E+03</pdfrwt>
<pdfrwt beam="1">  1       -4 0.12061233E-01 0.12499985E+03</pdfrwt>
<totfact> 0.10382694E+04</totfact>
</mgrwt>
</event>
<event>
 5    1  0.3311405E-002  0.1249977E+03  0.7818608E-02  0.1235073E+00
          4   -1    0    0  501    0  0.00000000000E+00  0.00000000000E+00  0.31414392411E+03  0.31414649124E+03  0.12700000000E+01 0.  1.
         -4   -1    0    0    0  501 -0.00000000000E+00 -0.00000000000E+00 -0.12399077025E+02  0.12463948454E+02  0.12700000000E+01 0.  1.
         25    2    1    2    0    0  0.00000000000E+00  0.00000000000E+00  0.30174484709E+03  0.32661043969E+03  0.12499770627E+03 0.  0.
    9000005    1    3    3    0    0  0.14361270987E+02  0.44369065805E+02  0.25956052762E+03  0.26371865236E+03  0.10000000000E+01 0.  0.
    9000005    1    3    3    0    0 -0.14361270987E+02 -0.44369065805E+02  0.42184319469E+02  0.62891787332E+02  0.10000000000E+01 0.  0.
<mgrwt>
<rscale>  0 0.12499771E+03</rscale>
<asrwt>0</asrwt>
<pdfrwt beam="1">  1        4 0.48335018E-01 0.12499771E+03</pdfrwt>
<pdfrwt beam="2">  1       -4 0.19127380E-02 0.12499771E+03</pdfrwt>
<totfact> 0.72380418E+03</totfact>
</mgrwt>
</event>
<event>
 5    1  0.3311405E-002  0.1250024E+03  0.7818608E-02  0.1235066E+00
         -4   -1    0    0    0  501 -0.00000000000E+00  0.00000000000E+00  0.13287916078E+03  0.13288522969E+03  0.12700000000E+01 0. -1.
          4   -1    0    0  501    0  0.00000000000E+00 -0.00000000000E+00 -0.29377661885E+02  0.29405100201E+02  0.12700000000E+01 0. -1.
         25    2    1    2    0    0  0.00000000000E+00  0.00000000000E+00  0.10350149889E+03  0.16229032989E+03  0.12500236359E+03 0.  0.
    9000005    1    3    3    0    0 -0.57488309510E+02  0.20934938155E+02  0.35214877583E+02  0.70599326973E+02  0.10000000000E+01 0.  0.
    9000005    1    3    3    0    0  0.57488309510E+02 -0.20934938155E+02  0.68286621309E+02  0.91691002915E+02  0.10000000000E+01 0.  0.
<mgrwt>
<rscale>  0 0.12500236E+03</rscale>
<asrwt>0</asrwt>
<pdfrwt beam="2">  1        4 0.45222178E-02 0.12500236E+03</pdfrwt>
<pdfrwt beam="1">  1       -4 0.20445525E-01 0.12500236E+03</pdfrwt>
<totfact> 0.96897889E+03</totfact>
</mgrwt>
</event>
<event>
 5    1  0.3311405E-002  0.1249585E+03  0.7818608E-02  0.1235134E+00
         -4   -1    0    0    0  501 -0.00000000000E+00  0.00000000000E+00  0.27178342360E+03  0.27178639084E+03  0.12700000000E+01 0.  1.
          4   -1    0    0  501    0  0.00000000000E+00 -0.00000000000E+00 -0.14331979448E+02  0.14388138687E+02  0.12700000000E+01 0.  1.
         25    2    1    2    0    0  0.00000000000E+00  0.00000000000E+00  0.25745144415E+03  0.28617452952E+03  0.12495845410E+03 0.  0.
    9000005    1    3    3    0    0 -0.30061204925E+02  0.44900480172E+02  0.56925556231E+02  0.78493618298E+02  0.10000000000E+01 0.  0.
    9000005    1    3    3    0    0  0.30061204925E+02 -0.44900480172E+02  0.20052588792E+03  0.20768091123E+03  0.10000000000E+01 0.  0.
<mgrwt>
<rscale>  0 0.12495845E+03</rscale>
<asrwt>0</asrwt>
<pdfrwt beam="2">  1        4 0.22094681E-02 0.12495845E+03</pdfrwt>
<pdfrwt beam="1">  1       -4 0.41817383E-01 0.12495845E+03</pdfrwt>
<totfact> 0.77437926E+03</totfact>
</mgrwt>
</event>
<event>
 4    1  0.3311405E-002  0.1247689E+03  0.7818608E-02  0.1235431E+00
          4   -1    0    0  501    0  0.00000000000E+00  0.00000000000E+00  0.12207724934E+02  0.12273607785E+02  0.12700000000E+01 0.  1.
         -4   -1    0    0    0  501 -0.00000000000E+00 -0.00000000000E+00 -0.31787457056E+03  0.31787710755E+03  0.12700000000E+01 0.  1.
    9000005    1    1    2    0    0  0.33093628534E+01  0.58446350211E+02 -0.20982541714E+03  0.21784084422E+03  0.10000000000E+01 0.  0.
    9000005    1    1    2    0    0 -0.33093628534E+01 -0.58446350211E+02 -0.95841428488E+02  0.11230987112E+03  0.10000000000E+01 0.  0.
<mgrwt>
<rscale>  0 0.12476888E+03</rscale>
<asrwt>0</asrwt>
<pdfrwt beam="1">  1        4 0.18833748E-02 0.12476888E+03</pdfrwt>
<pdfrwt beam="2">  1       -4 0.48909037E-01 0.12476888E+03</pdfrwt>
<totfact> 0.72334604E+03</totfact>
</mgrwt>
</event>
<event>
 5    1  0.3311405E-002  0.1250005E+03  0.7818608E-02  0.1235069E+00
         -4   -1    0    0    0  501 -0.00000000000E+00  0.00000000000E+00  0.30326346552E+03  0.30326612475E+03  0.12700000000E+01 0.  1.
          4   -1    0    0  501    0  0.00000000000E+00 -0.00000000000E+00 -0.12846786783E+02  0.12909408610E+02  0.12700000000E+01 0.  1.
         25    2    1    2    0    0  0.00000000000E+00  0.00000000000E+00  0.29041667874E+03  0.31617553336E+03  0.12500048242E+03 0.  0.
    9000005    1    3    3    0    0 -0.51357436065E+02  0.34156034766E+02  0.17063588844E+03  0.18144373060E+03  0.10000000000E+01 0.  0.
    9000005    1    3    3    0    0  0.51357436065E+02 -0.34156034766E+02  0.11978079030E+03  0.13473180276E+03  0.10000000000E+01 0.  0.
<mgrwt>
<rscale>  0 0.12500048E+03</rscale>
<asrwt>0</asrwt>
<pdfrwt beam="2">  1        4 0.19814503E-02 0.12500048E+03</pdfrwt>
<pdfrwt beam="1">  1       -4 0.46660940E-01 0.12500048E+03</pdfrwt>
<totfact> 0.73612526E+03</totfact>
</mgrwt>
</event>
<event>
 5    1  0.3311405E-002  0.1250054E+03  0.7818608E-02  0.1235061E+00
         -4   -1    0    0    0  501 -0.00000000000E+00  0.00000000000E+00  0.58176630013E+03  0.58176768633E+03  0.12700000000E+01 0.  1.
          4   -1    0    0  501    0  0.00000000000E+00 -0.00000000000E+00 -0.66535898666E+01  0.67737108082E+01  0.12700000000E+01 0.  1.
         25    2    1    2    0    0  0.00000000000E+00  0.00000000000E+00  0.57511271026E+03  0.58854139714E+03  0.12500538648E+03 0.  0.
    9000005    1    3    3    0    0 -0.38193711940E+01 -0.62356416790E+02  0.27985406626E+03  0.28674415201E+03  0.10000000000E+01 0.  0.
    9000005    1    3    3    0    0  0.38193711940E+01  0.62356416790E+02  0.29525864400E+03  0.30179724513E+03  0.10000000000E+01 0.  0.
<mgrwt>
<rscale>  0 0.12500539E+03</rscale>
<asrwt>0</asrwt>
<pdfrwt beam="2">  1        4 0.10329761E-02 0.12500539E+03</pdfrwt>
<pdfrwt beam="1">  1       -4 0.89511842E-01 0.12500539E+03</pdfrwt>
<totfact> 0.49593137E+03</totfact>
</mgrwt>
</event>
<event>
 5    1  0.3311405E-002  0.1250226E+03  0.7818608E-02  0.1235034E+00
          4   -1    0    0  501    0  0.00000000000E+00  0.00000000000E+00  0.57372780970E+01  0.58761603077E+01  0.12700000000E+01 0.  1.
         -4   -1    0    0    0  501 -0.00000000000E+00 -0.00000000000E+00 -0.67281539491E+03  0.67281659353E+03  0.12700000000E+01 0.  1.
         25    2    1    2    0    0  0.00000000000E+00  0.00000000000E+00 -0.66707811681E+03  0.67869275384E+03  0.12502255868E+03 0.  0.
    9000005    1    3    3    0    0 -0.30119812130E+02 -0.22836793606E+02 -0.60376686224E+03  0.60494970548E+03  0.10000000000E+01 0.  0.
    9000005    1    3    3    0    0  0.30119812130E+02  0.22836793606E+02 -0.63311254577E+02  0.73743048358E+02  0.10000000000E+01 0.  0.
<mgrwt>
<rscale>  0 0.12502256E+03</rscale>
<asrwt>0</asrwt>
<pdfrwt beam="1">  1        4 0.89343415E-03 0.12502256E+03</pdfrwt>
<pdfrwt beam="2">  1       -4 0.10352077E+00 0.12502256E+03</pdfrwt>
<totfact> 0.44213787E+03</totfact>
</mgrwt>
</event>
<event>
 5    1  0.3311405E-002  0.1249996E+03  0.7818608E-02  0.1235070E+00
          4   -1    0    0  501    0  0.00000000000E+00  0.00000000000E+00  0.20338968280E+03  0.20339364781E+03  0.12700000000E+01 0. -1.
         -4   -1    0    0    0  501 -0.00000000000E+00 -0.00000000000E+00 -0.19180461086E+02  0.19222460495E+02  0.12700000000E+01 0. -1.
         25    2    1    2    0    0  0.00000000000E+00  0.00000000000E+00  0.18420922172E+03  0.22261610831E+03  0.12499957725E+03 0.  0.
    9000005    1    3    3    0    0  0.42705701489E+02 -0.16508924433E+02  0.16784988955E+03  0.17398536418E+03  0.10000000000E+01 0.  0.
    9000005    1    3    3    0    0 -0.42705701489E+02  0.16508924433E+02  0.16359332164E+02  0.48630744129E+02  0.10000000000E+01 0.  0.
<mgrwt>
<rscale>  0 0.12499958E+03</rscale>
<asrwt>0</asrwt>
<pdfrwt beam="1">  1        4 0.31294256E-01 0.12499958E+03</pdfrwt>
<pdfrwt beam="2">  1       -4 0.29543759E-02 0.12499958E+03</pdfrwt>
<totfact> 0.86456886E+03</totfact>
</mgrwt>
</event>
<event>
 5    1  0.3311405E-002  0.1249998E+03  0.7818608E-02  0.1235070E+00
          4   -1    0    0  501    0  0.00000000000E+00  0.00000000000E+00  0.39978590000E+02  0.39998756961E+02  0.12700000000E+01 0. -1.
         -4   -1    0    0    0  501 -0.00000000000E+00 -0.00000000000E+00 -0.97659243416E+02  0.97667500862E+02  0.12700000000E+01 0. -1.
         25    2    1    2    0    0  0.00000000000E+00  0.00000000000E+00 -0.57680653416E+02  0.13766625782E+03  0.12499976306E+03 0.  0.
    9000005    1    3    3    0    0  0.49309809787E+02 -0.29532550997E+02 -0.18272222205E+01  0.57514934154E+02  0.10000000000E+01 0.  0.
    9000005    1    3    3    0    0 -0.49309809787E+02  0.29532550997E+02 -0.55853431195E+02  0.80151323669E+02  0.10000000000E+01 0.  0.
<mgrwt>
<rscale>  0 0.12499976E+03</rscale>
<asrwt>0</asrwt>
<pdfrwt beam="1">  1        4 0.61527388E-02 0.12499976E+03</pdfrwt>
<pdfrwt beam="2">  1       -4 0.15026685E-01 0.12499976E+03</pdfrwt>
<totfact> 0.10182228E+04</totfact>
</mgrwt>
</event>
<event>
 5    1  0.3311405E-002  0.1250002E+03  0.7818608E-02  0.1235069E+00
         -4   -1    0    0    0  501 -0.00000000000E+00  0.00000000000E+00  0.30836798398E+03  0.30837059919E+03  0.12700000000E+01 0.  1.
          4   -1    0    0  501    0  0.00000000000E+00 -0.00000000000E+00 -0.12633025688E+02  0.12696701856E+02  0.12700000000E+01 0.  1.
         25    2    1    2    0    0  0.00000000000E+00  0.00000000000E+00  0.29573495829E+03  0.32106730104E+03  0.12500018498E+03 0.  0.
    9000005    1    3    3    0    0 -0.23215230106E+02  0.56638866581E+02  0.18018955008E+03  0.19030549670E+03  0.10000000000E+01 0.  0.
    9000005    1    3    3    0    0  0.23215230106E+02 -0.56638866581E+02  0.11554540821E+03  0.13076180434E+03  0.10000000000E+01 0.  0.
<mgrwt>
<rscale>  0 0.12500018E+03</rscale>
<asrwt>0</asrwt>
<pdfrwt beam="2">  1        4 0.19486419E-02 0.12500018E+03</pdfrwt>
<pdfrwt beam="1">  1       -4 0.47446324E-01 0.12500018E+03</pdfrwt>
<totfact> 0.73029065E+03</totfact>
</mgrwt>
</event>
<event>
 5    1  0.3311405E-002  0.1250015E+03  0.7818608E-02  0.1235067E+00
         -4   -1    0    0    0  501 -0.00000000000E+00  0.00000000000E+00  0.18041237921E+03  0.18041684919E+03  0.12700000000E+01 0.  1.
          4   -1    0    0  501    0  0.00000000000E+00 -0.00000000000E+00 -0.21628930644E+02  0.21666184270E+02  0.12700000000E+01 0.  1.
         25    2    1    2    0    0  0.00000000000E+00  0.00000000000E+00  0.15878344857E+03  0.20208303346E+03  0.12500147549E+03 0.  0.
    9000005    1    3    3    0    0  0.56338408223E+02 -0.47519499199E+01  0.12243047947E+03  0.13485851687E+03  0.10000000000E+01 0.  0.
    9000005    1    3    3    0    0 -0.56338408223E+02  0.47519499199E+01  0.36352969099E+02  0.67224516595E+02  0.10000000000E+01 0.  0.
<mgrwt>
<rscale>  0 0.12500148E+03</rscale>
<asrwt>0</asrwt>
<pdfrwt beam="2">  1        4 0.33307372E-02 0.12500148E+03</pdfrwt>
<pdfrwt beam="1">  1       -4 0.27758961E-01 0.12500148E+03</pdfrwt>
<totfact> 0.89782406E+03</totfact>
</mgrwt>
</event>
<event>
 5    1  0.3311405E-002  0.1250002E+03  0.7818608E-02  0.1235069E+00
         -4   -1    0    0    0  501 -0.00000000000E+00  0.00000000000E+00  0.59516117539E+02  0.59529666108E+02  0.12700000000E+01 0. -1.
          4   -1    0    0  501    0  0.00000000000E+00 -0.00000000000E+00 -0.65606522889E+02  0.65618813960E+02  0.12700000000E+01 0. -1.
         25    2    1    2    0    0  0.00000000000E+00  0.00000000000E+00 -0.60904053501E+01  0.12514848007E+03  0.12500019610E+03 0.  0.
    9000005    1    3    3    0    0 -0.22048453537E+02 -0.55280437955E+02 -0.22125646927E+02  0.63502798173E+02  0.10000000000E+01 0.  0.
    9000005    1    3    3    0    0  0.22048453537E+02  0.55280437955E+02  0.16035241577E+02  0.61645681895E+02  0.10000000000E+01 0.  0.
<mgrwt>
<rscale>  0 0.12500020E+03</rscale>
<asrwt>0</asrwt>
<pdfrwt beam="2">  1        4 0.10095299E-01 0.12500020E+03</pdfrwt>
<pdfrwt beam="1">  1       -4 0.91583135E-02 0.12500020E+03</pdfrwt>
<totfact> 0.10449592E+04</totfact>
</mgrwt>
</event>
<event>
 5    1  0.3311405E-002  0.1249992E+03  0.7818608E-02  0.1235071E+00
         -4   -1    0    0    0  501 -0.00000000000E+00  0.00000000000E+00  0.10934374942E+03  0.10935112453E+03  0.12700000000E+01 0. -1.
          4   -1    0    0  501    0  0.00000000000E+00 -0.00000000000E+00 -0.35704167307E+02  0.35726747166E+02  0.12700000000E+01 0. -1.
         25    2    1    2    0    0  0.00000000000E+00  0.00000000000E+00  0.73639582109E+02  0.14507787170E+03  0.12499920321E+03 0.  0.
    9000005    1    3    3    0    0 -0.23353637525E+02  0.30574505020E+02  0.93974296404E+02  0.10154979629E+03  0.10000000000E+01 0.  0.
    9000005    1    3    3    0    0  0.23353637525E+02 -0.30574505020E+02 -0.20334714295E+02  0.43528075403E+02  0.10000000000E+01 0.  0.
<mgrwt>
<rscale>  0 0.12499920E+03</rscale>
<asrwt>0</asrwt>
<pdfrwt beam="2">  1        4 0.54952531E-02 0.12499920E+03</pdfrwt>
<pdfrwt beam="1">  1       -4 0.16824419E-01 0.12499920E+03</pdfrwt>
<totfact> 0.10029586E+04</totfact>
</mgrwt>
</event>
<event>
 5    1  0.3311405E-002  0.1250047E+03  0.7818608E-02  0.1235062E+00
         -4   -1    0    0    0  501 -0.00000000000E+00  0.00000000000E+00  0.66566353034E+02  0.66578466911E+02  0.12700000000E+01 0. -1.
          4   -1    0    0  501    0  0.00000000000E+00 -0.00000000000E+00 -0.58662181660E+02  0.58675927407E+02  0.12700000000E+01 0. -1.
         25    2    1    2    0    0  0.00000000000E+00  0.00000000000E+00  0.79041713739E+01  0.12525439432E+03  0.12500474939E+03 0.  0.
    9000005    1    3    3    0    0  0.46195932377E+02 -0.35376742490E+02  0.26800448457E+02  0.64069041782E+02  0.10000000000E+01 0.  0.
    9000005    1    3    3    0    0 -0.46195932377E+02  0.35376742490E+02 -0.18896277083E+02  0.61185352536E+02  0.10000000000E+01 0.  0.
<mgrwt>
<rscale>  0 0.12500475E+03</rscale>
<asrwt>0</asrwt>
<pdfrwt beam="2">  1        4 0.90269402E-02 0.12500475E+03</pdfrwt>
<pdfrwt beam="1">  1       -4 0.10242967E-01 0.12500475E+03</pdfrwt>
<totfact> 0.10446218E+04</totfact>
</mgrwt>
</event>
<event>
 5    1  0.3311405E-002  0.1250025E+03  0.7818608E-02  0.1235065E+00
          4   -1    0    0  501    0  0.00000000000E+00  0.00000000000E+00  0.13592297165E+04  0.13592303099E+04  0.12700000000E+01 0. -1.
         -4   -1    0    0    0  501 -0.00000000000E+00 -0.00000000000E+00 -0.27330603256E+01  0.30137217428E+01  0.12700000000E+01 0. -1.
         25    2    1    2    0    0  0.00000000000E+00  0.00000000000E+00  0.13564966562E+04  0.13622440316E+04  0.12500249317E+03 0.  0.
    9000005    1    3    3    0    0 -0.17782271108E+02 -0.10570657084E+02  0.13208874746E+04  0.13210498357E+04  0.10000000000E+01 0.  0.
    9000005    1    3    3    0    0  0.17782271108E+02  0.10570657084E+02  0.35609181614E+02  0.41194195855E+02  0.10000000000E+01 0.  0.
<mgrwt>
<rscale>  0 0.12500249E+03</rscale>
<asrwt>0</asrwt>
<pdfrwt beam="1">  1        4 0.20913333E+00 0.12500249E+03</pdfrwt>
<pdfrwt beam="2">  1       -4 0.44210700E-03 0.12500249E+03</pdfrwt>
<totfact> 0.20804228E+03</totfact>
</mgrwt>
</event>
<event>
 5    1  0.3311405E-002  0.1249997E+03  0.7818608E-02  0.1235070E+00
          4   -1    0    0  501    0  0.00000000000E+00  0.00000000000E+00  0.12118362672E+03  0.12119028131E+03  0.12700000000E+01 0.  1.
         -4   -1    0    0    0  501 -0.00000000000E+00 -0.00000000000E+00 -0.32213932832E+02  0.32238957311E+02  0.12700000000E+01 0.  1.
         25    2    1    2    0    0  0.00000000000E+00  0.00000000000E+00  0.88969693884E+02  0.15342923862E+03  0.12499969934E+03 0.  0.
    9000005    1    3    3    0    0  0.25432831634E+02  0.55552045577E+02  0.28369740750E+02  0.67369881126E+02  0.10000000000E+01 0.  0.
    9000005    1    3    3    0    0 -0.25432831634E+02 -0.55552045577E+02  0.60599953134E+02  0.86059357495E+02  0.10000000000E+01 0.  0.
<mgrwt>
<rscale>  0 0.12499970E+03</rscale>
<asrwt>0</asrwt>
<pdfrwt beam="1">  1        4 0.18646072E-01 0.12499970E+03</pdfrwt>
<pdfrwt beam="2">  1       -4 0.49584265E-02 0.12499970E+03</pdfrwt>
<totfact> 0.98625137E+03</totfact>
</mgrwt>
</event>
<event>
 5    1  0.3311405E-002  0.1249948E+03  0.7818608E-02  0.1235077E+00
         -4   -1    0    0    0  501 -0.00000000000E+00  0.00000000000E+00  0.82325993743E+01  0.83299815401E+01  0.12700000000E+01 0. -1.
          4   -1    0    0  501    0  0.00000000000E+00 -0.00000000000E+00 -0.47155823591E+03  0.47155994609E+03  0.12700000000E+01 0. -1.
         25    2    1    2    0    0  0.00000000000E+00  0.00000000000E+00 -0.46332563653E+03  0.47988992763E+03  0.12499478856E+03 0.  0.
    9000005    1    3    3    0    0 -0.43622676083E+02  0.37163588116E+02 -0.32732593357E+03  0.33230608923E+03  0.10000000000E+01 0.  0.
    9000005    1    3    3    0    0  0.43622676083E+02 -0.37163588116E+02 -0.13599970297E+03  0.14758383840E+03  0.10000000000E+01 0.  0.
<mgrwt>
<rscale>  0 0.12499479E+03</rscale>
<asrwt>0</asrwt>
<pdfrwt beam="2">  1        4 0.72555022E-01 0.12499479E+03</pdfrwt>
<pdfrwt beam="1">  1       -4 0.12741766E-02 0.12499479E+03</pdfrwt>
<totfact> 0.57465730E+03</totfact>
</mgrwt>
</event>
<event>
 5    1  0.3311405E-002  0.1250060E+03  0.7818608E-02  0.1235060E+00
          4   -1    0    0  501    0  0.00000000000E+00  0.00000000000E+00  0.59344186942E+02  0.59357774755E+02  0.12700000000E+01 0.  1.
         -4   -1    0    0    0  501 -0.00000000000E+00 -0.00000000000E+00 -0.65802656677E+02  0.65814911120E+02  0.12700000000E+01 0.  1.
         25    2    1    2    0    0  0.00000000000E+00  0.00000000000E+00 -0.64584697343E+01  0.12517268587E+03  0.12500595769E+03 0.  0.
    9000005    1    3    3    0    0  0.22515154013E+02 -0.56180660004E+02  0.12361491475E+02  0.61781916369E+02  0.10000000000E+01 0.  0.
    9000005    1    3    3    0    0 -0.22515154013E+02  0.56180660004E+02 -0.18819961209E+02  0.63390769506E+02  0.10000000000E+01 0.  0.
<mgrwt>
<rscale>  0 0.12500596E+03</rscale>
<asrwt>0</asrwt>
<pdfrwt beam="1">  1        4 0.91318628E-02 0.12500596E+03</pdfrwt>
<pdfrwt beam="2">  1       -4 0.10125474E-01 0.12500596E+03</pdfrwt>
<totfact> 0.10447706E+04</totfact>
</mgrwt>
</event>
<event>
 5    1  0.3311405E-002  0.1250195E+03  0.7818608E-02  0.1235039E+00
         -4   -1    0    0    0  501 -0.00000000000E+00  0.00000000000E+00  0.14619553378E+03  0.14620104991E+03  0.12700000000E+01 0. -1.
          4   -1    0    0  501    0  0.00000000000E+00 -0.00000000000E+00 -0.26706594509E+02  0.26736774118E+02  0.12700000000E+01 0. -1.
         25    2    1    2    0    0  0.00000000000E+00  0.00000000000E+00  0.11948893927E+03  0.17293782403E+03  0.12501953597E+03 0.  0.
    9000005    1    3    3    0    0  0.17763360210E+02  0.42427739233E+02  0.12064258065E+01  0.46022880023E+02  0.10000000000E+01 0.  0.
    9000005    1    3    3    0    0 -0.17763360210E+02 -0.42427739233E+02  0.11828251346E+03  0.12691494401E+03  0.10000000000E+01 0.  0.
<mgrwt>
<rscale>  0 0.12501954E+03</rscale>
<asrwt>0</asrwt>
<pdfrwt beam="2">  1        4 0.41114526E-02 0.12501954E+03</pdfrwt>
<pdfrwt beam="1">  1       -4 0.22494367E-01 0.12501954E+03</pdfrwt>
<totfact> 0.94862296E+03</totfact>
</mgrwt>
</event>
<event>
 5    1  0.3311405E-002  0.1249983E+03  0.7818608E-02  0.1235072E+00
          4   -1    0    0  501    0  0.00000000000E+00  0.00000000000E+00  0.24392847637E+04  0.24392850943E+04  0.12700000000E+01 0. -1.
         -4   -1    0    0    0  501 -0.00000000000E+00 -0.00000000000E+00 -0.13491617278E+01  0.18528727338E+01  0.12700000000E+01 0. -1.
         25    2    1    2    0    0  0.00000000000E+00  0.00000000000E+00  0.24379356020E+04  0.24411379670E+04  0.12499829909E+03 0.  0.
    9000005    1    3    3    0    0  0.53130286935E+02  0.20338564034E+01  0.18602272887E+04  0.18609872460E+04  0.10000000000E+01 0.  0.
    9000005    1    3    3    0    0 -0.53130286935E+02 -0.20338564034E+01  0.57770831324E+03  0.58015072106E+03  0.10000000000E+01 0.  0.
<mgrwt>
<rscale>  0 0.12499830E+03</rscale>
<asrwt>0</asrwt>
<pdfrwt beam="1">  1        4 0.37531081E+00 0.12499830E+03</pdfrwt>
<pdfrwt beam="2">  1       -4 0.24633744E-03 0.12499830E+03</pdfrwt>
<totfact> 0.51487955E+02</totfact>
</mgrwt>
</event>
<event>
 5    1  0.3311405E-002  0.1250027E+03  0.7818608E-02  0.1235065E+00
         -4   -1    0    0    0  501 -0.00000000000E+00  0.00000000000E+00  0.33361077005E+02  0.33385241634E+02  0.12700000000E+01 0. -1.
          4   -1    0    0  501    0  0.00000000000E+00 -0.00000000000E+00 -0.11702502969E+03  0.11703192074E+03  0.12700000000E+01 0. -1.
         25    2    1    2    0    0  0.00000000000E+00  0.00000000000E+00 -0.83663952681E+02  0.15041716238E+03  0.12500266301E+03 0.  0.
    9000005    1    3    3    0    0  0.11849078951E+02 -0.49167800929E+01 -0.11542942401E+03  0.11614442442E+03  0.10000000000E+01 0.  0.
    9000005    1    3    3    0    0 -0.11849078951E+02  0.49167800929E+01  0.31765471324E+02  0.34272737955E+02  0.10000000000E+01 0.  0.
<mgrwt>
<rscale>  0 0.12500266E+03</rscale>
<asrwt>0</asrwt>
<pdfrwt beam="2">  1        4 0.18006239E-01 0.12500266E+03</pdfrwt>
<pdfrwt beam="1">  1       -4 0.51348623E-02 0.12500266E+03</pdfrwt>
<totfact> 0.99214662E+03</totfact>
</mgrwt>
</event>
<event>
 5    1  0.3311405E-002  0.1249887E+03  0.7818608E-02  0.1235087E+00
          4   -1    0    0  501    0  0.00000000000E+00  0.00000000000E+00  0.45252325436E+02  0.45270143112E+02  0.12700000000E+01 0. -1.
         -4   -1    0    0    0  501 -0.00000000000E+00 -0.00000000000E+00 -0.86266505374E+02  0.86275853224E+02  0.12700000000E+01 0. -1.
         25    2    1    2    0    0  0.00000000000E+00  0.00000000000E+00 -0.41014179938E+02  0.13154599634E+03  0.12498874428E+03 0.  0.
    9000005    1    3    3    0    0  0.19163200557E+02 -0.38680358920E+02 -0.68056375013E+02  0.80598192298E+02  0.10000000000E+01 0.  0.
    9000005    1    3    3    0    0 -0.19163200557E+02  0.38680358920E+02  0.27042195074E+02  0.50947804037E+02  0.10000000000E+01 0.  0.
<mgrwt>
<rscale>  0 0.12498874E+03</rscale>
<asrwt>0</asrwt>
<pdfrwt beam="1">  1        4 0.69639859E-02 0.12498874E+03</pdfrwt>
<pdfrwt beam="2">  1       -4 0.13273860E-01 0.12498874E+03</pdfrwt>
<totfact> 0.10314017E+04</totfact>
</mgrwt>
</event>
<event>
 5    1  0.3311405E-002  0.1250012E+03  0.7818608E-02  0.1235067E+00
         -4   -1    0    0    0  501 -0.00000000000E+00  0.00000000000E+00  0.60248524747E+02  0.60261908651E+02  0.12700000000E+01 0.  1.
          4   -1    0    0  501    0  0.00000000000E+00 -0.00000000000E+00 -0.64810060992E+02  0.64822503082E+02  0.12700000000E+01 0.  1.
         25    2    1    2    0    0  0.00000000000E+00  0.00000000000E+00 -0.45615362446E+01  0.12508441173E+03  0.12500120978E+03 0.  0.
    9000005    1    3    3    0    0  0.35681308356E+02  0.45111931113E+01 -0.53420743100E+02  0.64407161269E+02  0.10000000000E+01 0.  0.
    9000005    1    3    3    0    0 -0.35681308356E+02 -0.45111931113E+01  0.48859206856E+02  0.60677250464E+02  0.10000000000E+01 0.  0.
<mgrwt>
<rscale>  0 0.12500121E+03</rscale>
<asrwt>0</asrwt>
<pdfrwt beam="2">  1        4 0.99727652E-02 0.12500121E+03</pdfrwt>
<pdfrwt beam="1">  1       -4 0.92709904E-02 0.12500121E+03</pdfrwt>
<totfact> 0.10450744E+04</totfact>
</mgrwt>
</event>
<event>
 5    1  0.3311405E-002  0.1250001E+03  0.7818608E-02  0.1235069E+00
         -4   -1    0    0    0  501 -0.00000000000E+00  0.00000000000E+00  0.29408816863E+02  0.29436226139E+02  0.12700000000E+01 0. -1.
          4   -1    0    0  501    0  0.00000000000E+00 -0.00000000000E+00 -0.13273365749E+03  0.13273973306E+03  0.12700000000E+01 0. -1.
         25    2    1    2    0    0  0.00000000000E+00  0.00000000000E+00 -0.10332484063E+03  0.16217595920E+03  0.12500007620E+03 0.  0.
    9000005    1    3    3    0    0  0.26175776245E+01 -0.57171847709E+02 -0.19103377969E+02  0.60344104375E+02  0.10000000000E+01 0.  0.
    9000005    1    3    3    0    0 -0.26175776245E+01  0.57171847709E+02 -0.84221462663E+02  0.10183185482E+03  0.10000000000E+01 0.  0.
<mgrwt>
<rscale>  0 0.12500008E+03</rscale>
<asrwt>0</asrwt>
<pdfrwt beam="2">  1        4 0.20423138E-01 0.12500008E+03</pdfrwt>
<pdfrwt beam="1">  1       -4 0.45270092E-02 0.12500008E+03</pdfrwt>
<totfact> 0.96924744E+03</totfact>
</mgrwt>
</event>
<event>
 5    1  0.3311405E-002  0.1249978E+03  0.7818608E-02  0.1235073E+00
         -4   -1    0    0    0  501 -0.00000000000E+00  0.00000000000E+00  0.11622909728E+03  0.11623603553E+03  0.12700000000E+01 0. -1.
          4   -1    0    0  501    0  0.00000000000E+00 -0.00000000000E+00 -0.33587070208E+02  0.33611072360E+02  0.12700000000E+01 0. -1.
         25    2    1    2    0    0  0.00000000000E+00  0.00000000000E+00  0.82642027073E+02  0.14984710789E+03  0.12499780439E+03 0.  0.
    9000005    1    3    3    0    0  0.38329377377E+02 -0.15979209409E+02  0.97301622244E+02  0.10579736289E+03  0.10000000000E+01 0.  0.
    9000005    1    3    3    0    0 -0.38329377377E+02  0.15979209409E+02 -0.14659595171E+02  0.44049744994E+02  0.10000000000E+01 0.  0.
<mgrwt>
<rscale>  0 0.12499780E+03</rscale>
<asrwt>0</asrwt>
<pdfrwt beam="2">  1        4 0.51696216E-02 0.12499780E+03</pdfrwt>
<pdfrwt beam="1">  1       -4 0.17883780E-01 0.12499780E+03</pdfrwt>
<totfact> 0.99339092E+03</totfact>
</mgrwt>
</event>
<event>
 5    1  0.3311405E-002  0.1249957E+03  0.7818608E-02  0.1235076E+00
         -4   -1    0    0    0  501 -0.00000000000E+00  0.00000000000E+00  0.27145619586E+04  0.27145622557E+04  0.12700000000E+01 0.  1.
          4   -1    0    0  501    0  0.00000000000E+00 -0.00000000000E+00 -0.11583138071E+01  0.17188923398E+01  0.12700000000E+01 0.  1.
         25    2    1    2    0    0  0.00000000000E+00  0.00000000000E+00  0.27134036448E+04  0.27162811481E+04  0.12499574204E+03 0.  0.
    9000005    1    3    3    0    0  0.12995736629E+02  0.17245428575E+00  0.28430762450E+02  0.31276623291E+02  0.10000000000E+01 0.  0.
    9000005    1    3    3    0    0 -0.12995736629E+02 -0.17245428575E+00  0.26849728824E+04  0.26850045248E+04  0.10000000000E+01 0.  0.
<mgrwt>
<rscale>  0 0.12499574E+03</rscale>
<asrwt>0</asrwt>
<pdfrwt beam="2">  1        4 0.22134760E-03 0.12499574E+03</pdfrwt>
<pdfrwt beam="1">  1       -4 0.41766580E+00 0.12499574E+03</pdfrwt>
<totfact> 0.31847633E+02</totfact>
</mgrwt>
</event>
<event>
 5    1  0.3311405E-002  0.1250066E+03  0.7818608E-02  0.1235059E+00
          4   -1    0    0  501    0  0.00000000000E+00  0.00000000000E+00  0.53016842397E+02  0.53032051419E+02  0.12700000000E+01 0.  1.
         -4   -1    0    0    0  501 -0.00000000000E+00 -0.00000000000E+00 -0.73655988040E+02  0.73666936098E+02  0.12700000000E+01 0.  1.
         25    2    1    2    0    0  0.00000000000E+00  0.00000000000E+00 -0.20639145643E+02  0.12669898752E+03  0.12500663624E+03 0.  0.
    9000005    1    3    3    0    0 -0.58391873280E+02  0.22102173704E+02 -0.75350479937E+01  0.62895897289E+02  0.10000000000E+01 0.  0.
    9000005    1    3    3    0    0  0.58391873280E+02 -0.22102173704E+02 -0.13104097649E+02  0.63803090229E+02  0.10000000000E+01 0.  0.
<mgrwt>
<rscale>  0 0.12500664E+03</rscale>
<asrwt>0</asrwt>
<pdfrwt beam="1">  1        4 0.81584494E-02 0.12500664E+03</pdfrwt>
<pdfrwt beam="2">  1       -4 0.11333703E-01 0.12500664E+03</pdfrwt>
<totfact> 0.10414132E+04</totfact>
</mgrwt>
</event>
<event>
 5    1  0.3311405E-002  0.1250034E+03  0.7818608E-02  0.1235064E+00
          4   -1    0    0  501    0  0.00000000000E+00  0.00000000000E+00  0.34365535953E+01  0.36637140464E+01  0.12700000000E+01 0.  1.
         -4   -1    0    0    0  501 -0.00000000000E+00 -0.00000000000E+00 -0.11001429829E+04  0.11001437159E+04  0.12700000000E+01 0.  1.
         25    2    1    2    0    0  0.00000000000E+00  0.00000000000E+00 -0.10967064293E+04  0.11038074300E+04  0.12500340162E+03 0.  0.
    9000005    1    3    3    0    0  0.55495631303E+02 -0.19798682241E+02 -0.73224869067E+03  0.73461615684E+03  0.10000000000E+01 0.  0.
    9000005    1    3    3    0    0 -0.55495631303E+02  0.19798682241E+02 -0.36445773861E+03  0.36919127312E+03  0.10000000000E+01 0.  0.
<mgrwt>
<rscale>  0 0.12500340E+03</rscale>
<asrwt>0</asrwt>
<pdfrwt beam="1">  1        4 0.54623170E-03 0.12500340E+03</pdfrwt>
<pdfrwt beam="2">  1       -4 0.16927003E+00 0.12500340E+03</pdfrwt>
<totfact> 0.27370245E+03</totfact>
</mgrwt>
</event>
<event>
 5    1  0.3311405E-002  0.1249991E+03  0.7818608E-02  0.1235071E+00
          4   -1    0    0  501    0  0.00000000000E+00  0.00000000000E+00  0.13127579320E+02  0.13188867988E+02  0.12700000000E+01 0. -1.
         -4   -1    0    0    0  501 -0.00000000000E+00 -0.00000000000E+00 -0.29680084307E+03  0.29680356019E+03  0.12700000000E+01 0. -1.
         25    2    1    2    0    0  0.00000000000E+00  0.00000000000E+00 -0.28367326374E+03  0.30999242818E+03  0.12499913987E+03 0.  0.
    9000005    1    3    3    0    0  0.29366841598E+01  0.11168688406E+02 -0.29414377153E+03  0.29437208095E+03  0.10000000000E+01 0.  0.
    9000005    1    3    3    0    0 -0.29366841598E+01 -0.11168688406E+02  0.10470507780E+02  0.15620347235E+02  0.10000000000E+01 0.  0.
<mgrwt>
<rscale>  0 0.12499914E+03</rscale>
<asrwt>0</asrwt>
<pdfrwt beam="1">  1        4 0.20245513E-02 0.12499914E+03</pdfrwt>
<pdfrwt beam="2">  1       -4 0.45666587E-01 0.12499914E+03</pdfrwt>
<totfact> 0.74363683E+03</totfact>
</mgrwt>
</event>
<event>
 5    1  0.3311405E-002  0.1249983E+03  0.7818608E-02  0.1235072E+00
          4   -1    0    0  501    0  0.00000000000E+00  0.00000000000E+00  0.36323223142E+02  0.36345418411E+02  0.12700000000E+01 0. -1.
         -4   -1    0    0    0  501 -0.00000000000E+00 -0.00000000000E+00 -0.10747970462E+03  0.10748720764E+03  0.12700000000E+01 0. -1.
         25    2    1    2    0    0  0.00000000000E+00  0.00000000000E+00 -0.71156481478E+02  0.14383262605E+03  0.12499831782E+03 0.  0.
    9000005    1    3    3    0    0 -0.18135685700E+02  0.35302815596E+02  0.19964437786E+02  0.44438391745E+02  0.10000000000E+01 0.  0.
    9000005    1    3    3    0    0  0.18135685700E+02 -0.35302815596E+02 -0.91120919264E+02  0.99394234301E+02  0.10000000000E+01 0.  0.
<mgrwt>
<rscale>  0 0.12499832E+03</rscale>
<asrwt>0</asrwt>
<pdfrwt beam="1">  1        4 0.55904727E-02 0.12499832E+03</pdfrwt>
<pdfrwt beam="2">  1       -4 0.16537624E-01 0.12499832E+03</pdfrwt>
<totfact> 0.10055142E+04</totfact>
</mgrwt>
</event>
<event>
 5    1  0.3311405E-002  0.1250001E+03  0.7818608E-02  0.1235069E+00
          4   -1    0    0  501    0  0.00000000000E+00  0.00000000000E+00  0.13726254711E+02  0.13784881878E+02  0.12700000000E+01 0.  1.
         -4   -1    0    0    0  501 -0.00000000000E+00 -0.00000000000E+00 -0.28391634674E+03  0.28391918717E+03  0.12700000000E+01 0.  1.
         25    2    1    2    0    0  0.00000000000E+00  0.00000000000E+00 -0.27019009203E+03  0.29770406905E+03  0.12500010760E+03 0.  0.
    9000005    1    3    3    0    0  0.57028012615E+02 -0.25552228179E+02 -0.13418459827E+03  0.14802573087E+03  0.10000000000E+01 0.  0.
    9000005    1    3    3    0    0 -0.57028012615E+02  0.25552228179E+02 -0.13600549376E+03  0.14967833818E+03  0.10000000000E+01 0.  0.
<mgrwt>
<rscale>  0 0.12500011E+03</rscale>
<asrwt>0</asrwt>
<pdfrwt beam="1">  1        4 0.21164600E-02 0.12500011E+03</pdfrwt>
<pdfrwt beam="2">  1       -4 0.43684162E-01 0.12500011E+03</pdfrwt>
<totfact> 0.75887562E+03</totfact>
</mgrwt>
</event>
<event>
 5    1  0.3311405E-002  0.1249994E+03  0.7818608E-02  0.1235070E+00
          4   -1    0    0  501    0  0.00000000000E+00  0.00000000000E+00  0.17865746235E+04  0.17865750749E+04  0.12700000000E+01 0. -1.
         -4   -1    0    0    0  501 -0.00000000000E+00 -0.00000000000E+00 -0.20015153370E+01  0.23704353280E+01  0.12700000000E+01 0. -1.
         25    2    1    2    0    0  0.00000000000E+00  0.00000000000E+00  0.17845731081E+04  0.17889455102E+04  0.12499944066E+03 0.  0.
    9000005    1    3    3    0    0 -0.61970529611E+02  0.80090016670E+01  0.90446736913E+03  0.90662379875E+03  0.10000000000E+01 0.  0.
    9000005    1    3    3    0    0  0.61970529611E+02 -0.80090016670E+01  0.88010573900E+03  0.88232171143E+03  0.10000000000E+01 0.  0.
<mgrwt>
<rscale>  0 0.12499944E+03</rscale>
<asrwt>0</asrwt>
<pdfrwt beam="1">  1        4 0.27488702E+00 0.12499944E+03</pdfrwt>
<pdfrwt beam="2">  1       -4 0.33633743E-03 0.12499944E+03</pdfrwt>
<totfact> 0.12874629E+03</totfact>
</mgrwt>
</event>
<event>
 5    1  0.3311405E-002  0.1249987E+03  0.7818608E-02  0.1235071E+00
          4   -1    0    0  501    0  0.00000000000E+00  0.00000000000E+00  0.55578149105E+03  0.55578294207E+03  0.12700000000E+01 0. -1.
         -4   -1    0    0    0  501 -0.00000000000E+00 -0.00000000000E+00 -0.69693957295E+01  0.70841638063E+01  0.12700000000E+01 0. -1.
         25    2    1    2    0    0  0.00000000000E+00  0.00000000000E+00  0.54881209532E+03  0.56286710588E+03  0.12499865161E+03 0.  0.
    9000005    1    3    3    0    0  0.12938384870E+02  0.43130630561E+02  0.79290456285E+02  0.91190073766E+02  0.10000000000E+01 0.  0.
    9000005    1    3    3    0    0 -0.12938384870E+02 -0.43130630561E+02  0.46952163904E+03  0.47167703211E+03  0.10000000000E+01 0.  0.
<mgrwt>
<rscale>  0 0.12499865E+03</rscale>
<asrwt>0</asrwt>
<pdfrwt beam="1">  1        4 0.85513814E-01 0.12499865E+03</pdfrwt>
<pdfrwt beam="2">  1       -4 0.10811543E-02 0.12499865E+03</pdfrwt>
<totfact> 0.51300201E+03</totfact>
</mgrwt>
</event>
<event>
 5    1  0.3311405E-002  0.1250008E+03  0.7818608E-02  0.1235068E+00
         -4   -1    0    0    0  501 -0.00000000000E+00  0.00000000000E+00  0.43044576972E+02  0.43063308126E+02  0.12700000000E+01 0. -1.
          4   -1    0    0  501    0  0.00000000000E+00 -0.00000000000E+00 -0.90707160316E+02  0.90716050579E+02  0.12700000000E+01 0. -1.
         25    2    1    2    0    0  0.00000000000E+00  0.00000000000E+00 -0.47662583344E+02  0.13377935870E+03  0.12500077986E+03 0.  0.
    9000005    1    3    3    0    0 -0.19685148310E+02 -0.46228815801E+02 -0.63598446384E+02  0.81057824156E+02  0.10000000000E+01 0.  0.
    9000005    1    3    3    0    0  0.19685148310E+02  0.46228815801E+02  0.15935863040E+02  0.52721534549E+02  0.10000000000E+01 0.  0.
<mgrwt>
<rscale>  0 0.12500078E+03</rscale>
<asrwt>0</asrwt>
<pdfrwt beam="2">  1        4 0.13957072E-01 0.12500078E+03</pdfrwt>
<pdfrwt beam="1">  1       -4 0.66243674E-02 0.12500078E+03</pdfrwt>
<totfact> 0.10263683E+04</totfact>
</mgrwt>
</event>
<event>
 5    1  0.3311405E-002  0.1250006E+03  0.7818608E-02  0.1235068E+00
          4   -1    0    0  501    0  0.00000000000E+00  0.00000000000E+00  0.17112655464E+02  0.17159716695E+02  0.12700000000E+01 0.  1.
         -4   -1    0    0    0  501 -0.00000000000E+00 -0.00000000000E+00 -0.22790676388E+03  0.22791030236E+03  0.12700000000E+01 0.  1.
         25    2    1    2    0    0  0.00000000000E+00  0.00000000000E+00 -0.21079410842E+03  0.24507001906E+03  0.12500063239E+03 0.  0.
    9000005    1    3    3    0    0  0.59518006822E+01 -0.56772194092E+02 -0.15525765008E+03  0.16542201746E+03  0.10000000000E+01 0.  0.
    9000005    1    3    3    0    0 -0.59518006822E+01  0.56772194092E+02 -0.55536458344E+02  0.79648001600E+02  0.10000000000E+01 0.  0.
<mgrwt>
<rscale>  0 0.12500063E+03</rscale>
<asrwt>0</asrwt>
<pdfrwt beam="1">  1        4 0.26366087E-02 0.12500063E+03</pdfrwt>
<pdfrwt beam="2">  1       -4 0.35066469E-01 0.12500063E+03</pdfrwt>
<totfact> 0.83046856E+03</totfact>
</mgrwt>
</event>
<event>
 5    1  0.3311405E-002  0.1250015E+03  0.7818608E-02  0.1235067E+00
         -4   -1    0    0    0  501 -0.00000000000E+00  0.00000000000E+00  0.36494581620E+02  0.36516672735E+02  0.12700000000E+01 0.  1.
          4   -1    0    0  501    0  0.00000000000E+00 -0.00000000000E+00 -0.10698074669E+03  0.10698828469E+03  0.12700000000E+01 0.  1.
         25    2    1    2    0    0  0.00000000000E+00  0.00000000000E+00 -0.70486165067E+02  0.14350495743E+03  0.12500149335E+03 0.  0.
    9000005    1    3    3    0    0  0.16121004443E+02 -0.60250173928E+02 -0.39744324134E+02  0.73963379746E+02  0.10000000000E+01 0.  0.
    9000005    1    3    3    0    0 -0.16121004443E+02  0.60250173928E+02 -0.30741840933E+02  0.69541577682E+02  0.10000000000E+01 0.  0.
<mgrwt>
<rscale>  0 0.12500149E+03</rscale>
<asrwt>0</asrwt>
<pdfrwt beam="2">  1        4 0.16460855E-01 0.12500149E+03</pdfrwt>
<pdfrwt beam="1">  1       -4 0.56168302E-02 0.12500149E+03</pdfrwt>
<totfact> 0.10061115E+04</totfact>
</mgrwt>
</event>
<event>
 5    1  0.3311405E-002  0.1249990E+03  0.7818608E-02  0.1235071E+00
          4   -1    0    0  501    0  0.00000000000E+00  0.00000000000E+00  0.60806494501E+02  0.60819755618E+02  0.12700000000E+01 0. -1.
         -4   -1    0    0    0  501 -0.00000000000E+00 -0.00000000000E+00 -0.64213109653E+02  0.64225667387E+02  0.12700000000E+01 0. -1.
         25    2    1    2    0    0  0.00000000000E+00  0.00000000000E+00 -0.34066151518E+01  0.12504542300E+03  0.12499901115E+03 0.  0.
    9000005    1    3    3    0    0 -0.77508386504E+01  0.37996201908E+02 -0.50725597800E+02  0.63858226811E+02  0.10000000000E+01 0.  0.
    9000005    1    3    3    0    0  0.77508386504E+01 -0.37996201908E+02  0.47318982649E+02  0.61187196194E+02  0.10000000000E+01 0.  0.
<mgrwt>
<rscale>  0 0.12499901E+03</rscale>
<asrwt>0</asrwt>
<pdfrwt beam="1">  1        4 0.93568314E-02 0.12499901E+03</pdfrwt>
<pdfrwt beam="2">  1       -4 0.98809260E-02 0.12499901E+03</pdfrwt>
<totfact> 0.10452110E+04</totfact>
</mgrwt>
</event>
<event>
 5    1  0.3311405E-002  0.1250017E+03  0.7818608E-02  0.1235067E+00
          4   -1    0    0  501    0  0.00000000000E+00  0.00000000000E+00  0.35302490772E+03  0.35302719212E+03  0.12700000000E+01 0. -1.
         -4   -1    0    0    0  501 -0.00000000000E+00 -0.00000000000E+00 -0.11026615822E+02  0.11099511543E+02  0.12700000000E+01 0. -1.
         25    2    1    2    0    0  0.00000000000E+00  0.00000000000E+00  0.34199829190E+03  0.36412670366E+03  0.12500169860E+03 0.  0.
    9000005    1    3    3    0    0 -0.33155384991E+02  0.47344870917E+02  0.24021154458E+03  0.24706963089E+03  0.10000000000E+01 0.  0.
    9000005    1    3    3    0    0  0.33155384991E+02 -0.47344870917E+02  0.10178674732E+03  0.11705707277E+03  0.10000000000E+01 0.  0.
<mgrwt>
<rscale>  0 0.12500170E+03</rscale>
<asrwt>0</asrwt>
<pdfrwt beam="1">  1        4 0.54317301E-01 0.12500170E+03</pdfrwt>
<pdfrwt beam="2">  1       -4 0.17021857E-02 0.12500170E+03</pdfrwt>
<totfact> 0.68195344E+03</totfact>
</mgrwt>
</event>
<event>
 5    1  0.3311405E-002  0.1250105E+03  0.7818608E-02  0.1235053E+00
         -4   -1    0    0    0  501 -0.00000000000E+00  0.00000000000E+00  0.41685984899E+03  0.41686178357E+03  0.12700000000E+01 0. -1.
          4   -1    0    0  501    0  0.00000000000E+00 -0.00000000000E+00 -0.93272414938E+01  0.94133062143E+01  0.12700000000E+01 0. -1.
         25    2    1    2    0    0  0.00000000000E+00  0.00000000000E+00  0.40753260750E+03  0.42627508978E+03  0.12501050355E+03 0.  0.
    9000005    1    3    3    0    0  0.69885132584E+01 -0.18663929177E+02  0.17817722723E+01  0.20033878364E+02  0.10000000000E+01 0.  0.
    9000005    1    3    3    0    0 -0.69885132584E+01  0.18663929177E+02  0.40575083522E+03  0.40624121142E+03  0.10000000000E+01 0.  0.
<mgrwt>
<rscale>  0 0.12501050E+03</rscale>
<asrwt>0</asrwt>
<pdfrwt beam="2">  1        4 0.14417295E-02 0.12501050E+03</pdfrwt>
<pdfrwt beam="1">  1       -4 0.64139047E-01 0.12501050E+03</pdfrwt>
<totfact> 0.62060715E+03</totfact>
</mgrwt>
</event>
<event>
 5    1  0.3311405E-002  0.1250042E+03  0.7818608E-02  0.1235063E+00
         -4   -1    0    0    0  501 -0.00000000000E+00  0.00000000000E+00  0.25213022775E+04  0.25213025973E+04  0.12700000000E+01 0. -1.
          4   -1    0    0  501    0  0.00000000000E+00 -0.00000000000E+00 -0.12887821869E+01  0.18093809785E+01  0.12700000000E+01 0. -1.
         25    2    1    2    0    0  0.00000000000E+00  0.00000000000E+00  0.25200134953E+04  0.25231119783E+04  0.12500415452E+03 0.  0.
    9000005    1    3    3    0    0 -0.13176459431E+02 -0.50404664649E+02  0.56335549286E+03  0.56576025014E+03  0.10000000000E+01 0.  0.
    9000005    1    3    3    0    0  0.13176459431E+02  0.50404664649E+02  0.19566580024E+04  0.19573517282E+04  0.10000000000E+01 0.  0.
<mgrwt>
<rscale>  0 0.12500415E+03</rscale>
<asrwt>0</asrwt>
<pdfrwt beam="2">  1        4 0.23834599E-03 0.12500415E+03</pdfrwt>
<pdfrwt beam="1">  1       -4 0.38793087E+00 0.12500415E+03</pdfrwt>
<totfact> 0.44899757E+02</totfact>
</mgrwt>
</event>
<event>
 5    1  0.3311405E-002  0.1249976E+03  0.7818608E-02  0.1235073E+00
         -4   -1    0    0    0  501 -0.00000000000E+00  0.00000000000E+00  0.52700153870E+02  0.52715454261E+02  0.12700000000E+01 0.  1.
          4   -1    0    0  501    0  0.00000000000E+00 -0.00000000000E+00 -0.74087827138E+02  0.74098711392E+02  0.12700000000E+01 0.  1.
         25    2    1    2    0    0  0.00000000000E+00  0.00000000000E+00 -0.21387673268E+02  0.12681416565E+03  0.12499760015E+03 0.  0.
    9000005    1    3    3    0    0 -0.40018866701E+02 -0.60610370042E+01  0.37609583574E+02  0.55260534183E+02  0.10000000000E+01 0.  0.
    9000005    1    3    3    0    0  0.40018866701E+02  0.60610370042E+01 -0.58997256842E+02  0.71553631470E+02  0.10000000000E+01 0.  0.
<mgrwt>
<rscale>  0 0.12499760E+03</rscale>
<asrwt>0</asrwt>
<pdfrwt beam="2">  1        4 0.11400141E-01 0.12499760E+03</pdfrwt>
<pdfrwt beam="1">  1       -4 0.81097302E-02 0.12499760E+03</pdfrwt>
<totfact> 0.10413750E+04</totfact>
</mgrwt>
</event>
<event>
 5    1  0.3311405E-002  0.1249956E+03  0.7818608E-02  0.1235076E+00
          4   -1    0    0  501    0  0.00000000000E+00  0.00000000000E+00  0.52073297416E+02  0.52088781938E+02  0.12700000000E+01 0. -1.
         -4   -1    0    0    0  501 -0.00000000000E+00 -0.00000000000E+00 -0.74977148397E+02  0.74987903569E+02  0.12700000000E+01 0. -1.
         25    2    1    2    0    0  0.00000000000E+00  0.00000000000E+00 -0.22903850981E+02  0.12707668551E+03  0.12499559036E+03 0.  0.
    9000005    1    3    3    0    0  0.30125822028E+02 -0.16353062426E+02  0.41667264544E+02  0.53964328386E+02  0.10000000000E+01 0.  0.
    9000005    1    3    3    0    0 -0.30125822028E+02  0.16353062426E+02 -0.64571115525E+02  0.73112357121E+02  0.10000000000E+01 0.  0.
<mgrwt>
<rscale>  0 0.12499559E+03</rscale>
<asrwt>0</asrwt>
<pdfrwt beam="1">  1        4 0.80132950E-02 0.12499559E+03</pdfrwt>
<pdfrwt beam="2">  1       -4 0.11536964E-01 0.12499559E+03</pdfrwt>
<totfact> 0.10408516E+04</totfact>
</mgrwt>
</event>
<event>
 5    1  0.3311405E-002  0.1250015E+03  0.7818608E-02  0.1235067E+00
          4   -1    0    0  501    0  0.00000000000E+00  0.00000000000E+00  0.10608147017E+03  0.10608907207E+03  0.12700000000E+01 0. -1.
         -4   -1    0    0    0  501 -0.00000000000E+00 -0.00000000000E+00 -0.36804130733E+02  0.36826036157E+02  0.12700000000E+01 0. -1.
         25    2    1    2    0    0  0.00000000000E+00  0.00000000000E+00  0.69277339438E+02  0.14291510823E+03  0.12500151360E+03 0.  0.
    9000005    1    3    3    0    0  0.15684763359E+02  0.15943844263E+02  0.10135459356E+03  0.10379774375E+03  0.10000000000E+01 0.  0.
    9000005    1    3    3    0    0 -0.15684763359E+02 -0.15943844263E+02 -0.32077254126E+02  0.39117364479E+02  0.10000000000E+01 0.  0.
<mgrwt>
<rscale>  0 0.12500151E+03</rscale>
<asrwt>0</asrwt>
<pdfrwt beam="1">  1        4 0.16322496E-01 0.12500151E+03</pdfrwt>
<pdfrwt beam="2">  1       -4 0.56644438E-02 0.12500151E+03</pdfrwt>
<totfact> 0.10073179E+04</totfact>
</mgrwt>
</event>
<event>
 5    1  0.3311405E-002  0.1250047E+03  0.7818608E-02  0.1235062E+00
          4   -1    0    0  501    0  0.00000000000E+00  0.00000000000E+00  0.21633882258E+03  0.21634255026E+03  0.12700000000E+01 0. -1.
         -4   -1    0    0    0  501 -0.00000000000E+00 -0.00000000000E+00 -0.18031297700E+02  0.18075967381E+02  0.12700000000E+01 0. -1.
         25    2    1    2    0    0  0.00000000000E+00  0.00000000000E+00  0.19830752488E+03  0.23441851764E+03  0.12500466788E+03 0.  0.
    9000005    1    3    3    0    0  0.35779864897E+02 -0.49492208271E+02  0.74284977124E+02  0.96171384715E+02  0.10000000000E+01 0.  0.
    9000005    1    3    3    0    0 -0.35779864897E+02  0.49492208271E+02  0.12402254775E+03  0.13824713293E+03  0.10000000000E+01 0.  0.
<mgrwt>
<rscale>  0 0.12500467E+03</rscale>
<asrwt>0</asrwt>
<pdfrwt beam="1">  1        4 0.33286620E-01 0.12500467E+03</pdfrwt>
<pdfrwt beam="2">  1       -4 0.27777686E-02 0.12500467E+03</pdfrwt>
<totfact> 0.84626902E+03</totfact>
</mgrwt>
</event>
<event>
 5    1  0.3311405E-002  0.1249973E+03  0.7818608E-02  0.1235074E+00
         -4   -1    0    0    0  501 -0.00000000000E+00  0.00000000000E+00  0.22324552739E+03  0.22324913975E+03  0.12700000000E+01 0.  1.
          4   -1    0    0  501    0  0.00000000000E+00 -0.00000000000E+00 -0.17469986948E+02  0.17516088147E+02  0.12700000000E+01 0.  1.
         25    2    1    2    0    0  0.00000000000E+00  0.00000000000E+00  0.20577554044E+03  0.24076522789E+03  0.12499728765E+03 0.  0.
    9000005    1    3    3    0    0  0.43564175109E+02  0.28103275892E+02  0.17009539798E+03  0.17782315901E+03  0.10000000000E+01 0.  0.
    9000005    1    3    3    0    0 -0.43564175109E+02 -0.28103275892E+02  0.35680142460E+02  0.62942068878E+02  0.10000000000E+01 0.  0.
<mgrwt>
<rscale>  0 0.12499729E+03</rscale>
<asrwt>0</asrwt>
<pdfrwt beam="2">  1        4 0.26915144E-02 0.12499729E+03</pdfrwt>
<pdfrwt beam="1">  1       -4 0.34349290E-01 0.12499729E+03</pdfrwt>
<totfact> 0.83688592E+03</totfact>
</mgrwt>
</event>
<event>
 5    1  0.3311405E-002  0.1250008E+03  0.7818608E-02  0.1235068E+00
         -4   -1    0    0    0  501 -0.00000000000E+00  0.00000000000E+00  0.12422644906E+04  0.12422651398E+04  0.12700000000E+01 0.  1.
          4   -1    0    0  501    0  0.00000000000E+00 -0.00000000000E+00 -0.30155892233E+01  0.32721061052E+01  0.12700000000E+01 0.  1.
         25    2    1    2    0    0  0.00000000000E+00  0.00000000000E+00  0.12392489014E+04  0.12455372459E+04  0.12500076527E+03 0.  0.
    9000005    1    3    3    0    0 -0.61344463001E+02  0.94668190345E+01  0.54740330248E+03  0.55091209768E+03  0.10000000000E+01 0.  0.
    9000005    1    3    3    0    0  0.61344463001E+02 -0.94668190345E+01  0.69184559894E+03  0.69462514825E+03  0.10000000000E+01 0.  0.
<mgrwt>
<rscale>  0 0.12500077E+03</rscale>
<asrwt>0</asrwt>
<pdfrwt beam="2">  1        4 0.48371896E-03 0.12500077E+03</pdfrwt>
<pdfrwt beam="1">  1       -4 0.19113734E+00 0.12500077E+03</pdfrwt>
<totfact> 0.23550554E+03</totfact>
</mgrwt>
</event>
<event>
 5    1  0.3311405E-002  0.1250026E+03  0.7818608E-02  0.1235065E+00
          4   -1    0    0  501    0  0.00000000000E+00  0.00000000000E+00  0.10917722139E+03  0.10918460775E+03  0.12700000000E+01 0. -1.
         -4   -1    0    0    0  501 -0.00000000000E+00 -0.00000000000E+00 -0.35760623716E+02  0.35783167950E+02  0.12700000000E+01 0. -1.
         25    2    1    2    0    0  0.00000000000E+00  0.00000000000E+00  0.73416597670E+02  0.14496777570E+03  0.12500263668E+03 0.  0.
    9000005    1    3    3    0    0 -0.53193352391E+02  0.18699909934E+02  0.67960388078E+02  0.88311005644E+02  0.10000000000E+01 0.  0.
    9000005    1    3    3    0    0  0.53193352391E+02 -0.18699909934E+02  0.54562095925E+01  0.56656770057E+02  0.10000000000E+01 0.  0.
<mgrwt>
<rscale>  0 0.12500264E+03</rscale>
<asrwt>0</asrwt>
<pdfrwt beam="1">  1        4 0.16798798E-01 0.12500264E+03</pdfrwt>
<pdfrwt beam="2">  1       -4 0.55039367E-02 0.12500264E+03</pdfrwt>
<totfact> 0.10031048E+04</totfact>
</mgrwt>
</event>
<event>
 5    1  0.3311405E-002  0.1250010E+03  0.7818608E-02  0.1235068E+00
         -4   -1    0    0    0  501 -0.00000000000E+00  0.00000000000E+00  0.29885058917E+03  0.29885328767E+03  0.12700000000E+01 0.  1.
          4   -1    0    0  501    0  0.00000000000E+00 -0.00000000000E+00 -0.13037507297E+02  0.13099217401E+02  0.12700000000E+01 0.  1.
         25    2    1    2    0    0  0.00000000000E+00  0.00000000000E+00  0.28581308188E+03  0.31195250507E+03  0.12500099058E+03 0.  0.
    9000005    1    3    3    0    0 -0.28538149032E+02  0.18888554382E+02  0.27339824226E+03  0.27553366819E+03  0.10000000000E+01 0.  0.
    9000005    1    3    3    0    0  0.28538149032E+02 -0.18888554382E+02  0.12414839620E+02  0.36418836879E+02  0.10000000000E+01 0.  0.
<mgrwt>
<rscale>  0 0.12500099E+03</rscale>
<asrwt>0</asrwt>
<pdfrwt beam="2">  1        4 0.20107251E-02 0.12500099E+03</pdfrwt>
<pdfrwt beam="1">  1       -4 0.45981963E-01 0.12500099E+03</pdfrwt>
<totfact> 0.74121962E+03</totfact>
</mgrwt>
</event>
<event>
 5    1  0.3311405E-002  0.1249991E+03  0.7818608E-02  0.1235071E+00
         -4   -1    0    0    0  501 -0.00000000000E+00  0.00000000000E+00  0.10661773538E+03  0.10662529905E+03  0.12700000000E+01 0.  1.
          4   -1    0    0  501    0  0.00000000000E+00 -0.00000000000E+00 -0.36617519413E+02  0.36639536405E+02  0.12700000000E+01 0.  1.
         25    2    1    2    0    0  0.00000000000E+00  0.00000000000E+00  0.70000215966E+02  0.14326483545E+03  0.12499913137E+03 0.  0.
    9000005    1    3    3    0    0 -0.39260317546E+02  0.44252776112E+02  0.11920094249E+02  0.60355359119E+02  0.10000000000E+01 0.  0.
    9000005    1    3    3    0    0  0.39260317546E+02 -0.44252776112E+02  0.58080121717E+02  0.82909476335E+02  0.10000000000E+01 0.  0.
<mgrwt>
<rscale>  0 0.12499913E+03</rscale>
<asrwt>0</asrwt>
<pdfrwt beam="2">  1        4 0.56357401E-02 0.12499913E+03</pdfrwt>
<pdfrwt beam="1">  1       -4 0.16405004E-01 0.12499913E+03</pdfrwt>
<totfact> 0.10066560E+04</totfact>
</mgrwt>
</event>
<event>
 5    1  0.3311405E-002  0.1249985E+03  0.7818608E-02  0.1235072E+00
          4   -1    0    0  501    0  0.00000000000E+00  0.00000000000E+00  0.86105665359E+02  0.86115030668E+02  0.12700000000E+01 0.  1.
         -4   -1    0    0    0  501 -0.00000000000E+00 -0.00000000000E+00 -0.45343974824E+02  0.45361756501E+02  0.12700000000E+01 0.  1.
         25    2    1    2    0    0  0.00000000000E+00  0.00000000000E+00  0.40761690535E+02  0.13147678717E+03  0.12499852059E+03 0.  0.
    9000005    1    3    3    0    0 -0.40815833556E+02 -0.99818302867E+01 -0.28272120664E+02  0.50654535942E+02  0.10000000000E+01 0.  0.
    9000005    1    3    3    0    0  0.40815833556E+02  0.99818302867E+01  0.69033811199E+02  0.80822251226E+02  0.10000000000E+01 0.  0.
<mgrwt>
<rscale>  0 0.12499852E+03</rscale>
<asrwt>0</asrwt>
<pdfrwt beam="1">  1        4 0.13249113E-01 0.12499852E+03</pdfrwt>
<pdfrwt beam="2">  1       -4 0.69780845E-02 0.12499852E+03</pdfrwt>
<totfact> 0.10313223E+04</totfact>
</mgrwt>
</event>
<event>
 5    1  0.3311405E-002  0.1249968E+03  0.7818608E-02  0.1235074E+00
         -4   -1    0    0    0  501 -0.00000000000E+00  0.00000000000E+00  0.28594220542E+02  0.28622409898E+02  0.12700000000E+01 0. -1.
          4   -1    0    0  501    0  0.00000000000E+00 -0.00000000000E+00 -0.13650433854E+03  0.13651024628E+03  0.12700000000E+01 0. -1.
         25    2    1    2    0    0  0.00000000000E+00  0.00000000000E+00 -0.10791011800E+03  0.16513265618E+03  0.12499680224E+03 0.  0.
    9000005    1    3    3    0    0 -0.46022119046E+02  0.98309504422E+01 -0.10827065901E+03  0.11806023306E+03  0.10000000000E+01 0.  0.
    9000005    1    3    3    0    0  0.46022119046E+02 -0.98309504422E+01  0.36054101639E+00  0.47072423115E+02  0.10000000000E+01 0.  0.
<mgrwt>
<rscale>  0 0.12499680E+03</rscale>
<asrwt>0</asrwt>
<pdfrwt beam="2">  1        4 0.21003290E-01 0.12499680E+03</pdfrwt>
<pdfrwt beam="1">  1       -4 0.44017338E-02 0.12499680E+03</pdfrwt>
<totfact> 0.96369198E+03</totfact>
</mgrwt>
</event>
<event>
 5    1  0.3311405E-002  0.1250017E+03  0.7818608E-02  0.1235067E+00
          4   -1    0    0  501    0  0.00000000000E+00  0.00000000000E+00  0.27701198773E+02  0.27730295950E+02  0.12700000000E+01 0.  1.
         -4   -1    0    0    0  501 -0.00000000000E+00 -0.00000000000E+00 -0.14091166290E+03  0.14091738588E+03  0.12700000000E+01 0.  1.
         25    2    1    2    0    0  0.00000000000E+00  0.00000000000E+00 -0.11321046413E+03  0.16864768183E+03  0.12500172558E+03 0.  0.
    9000005    1    3    3    0    0 -0.15804157200E+02  0.28724723056E+02  0.15173232437E+02  0.36140117349E+02  0.10000000000E+01 0.  0.
    9000005    1    3    3    0    0  0.15804157200E+02 -0.28724723056E+02 -0.12838369657E+03  0.13250756448E+03  0.10000000000E+01 0.  0.
<mgrwt>
<rscale>  0 0.12500173E+03</rscale>
<asrwt>0</asrwt>
<pdfrwt beam="1">  1        4 0.42644014E-02 0.12500173E+03</pdfrwt>
<pdfrwt beam="2">  1       -4 0.21681395E-01 0.12500173E+03</pdfrwt>
<totfact> 0.95697296E+03</totfact>
</mgrwt>
</event>
<event>
 5    1  0.3311405E-002  0.1249986E+03  0.7818608E-02  0.1235072E+00
         -4   -1    0    0    0  501 -0.00000000000E+00  0.00000000000E+00  0.96384702986E+02  0.96393069614E+02  0.12700000000E+01 0.  1.
          4   -1    0    0  501    0  0.00000000000E+00 -0.00000000000E+00 -0.40506687018E+02  0.40526591186E+02  0.12700000000E+01 0.  1.
         25    2    1    2    0    0  0.00000000000E+00  0.00000000000E+00  0.55878015968E+02  0.13691966080E+03  0.12499856337E+03 0.  0.
    9000005    1    3    3    0    0  0.13452236381E+02 -0.60853144890E+02  0.22908372950E+02  0.66406787739E+02  0.10000000000E+01 0.  0.
    9000005    1    3    3    0    0 -0.13452236381E+02  0.60853144890E+02  0.32969643018E+02  0.70512873061E+02  0.10000000000E+01 0.  0.
<mgrwt>
<rscale>  0 0.12499856E+03</rscale>
<asrwt>0</asrwt>
<pdfrwt beam="2">  1        4 0.62339728E-02 0.12499856E+03</pdfrwt>
<pdfrwt beam="1">  1       -4 0.14830590E-01 0.12499856E+03</pdfrwt>
<totfact> 0.10198096E+04</totfact>
</mgrwt>
</event>
<event>
 5    1  0.3311405E-002  0.1250013E+03  0.7818608E-02  0.1235067E+00
          4   -1    0    0  501    0  0.00000000000E+00  0.00000000000E+00  0.26615288790E+03  0.26615591791E+03  0.12700000000E+01 0. -1.
         -4   -1    0    0    0  501 -0.00000000000E+00 -0.00000000000E+00 -0.14646438283E+02  0.14701396341E+02  0.12700000000E+01 0. -1.
         25    2    1    2    0    0  0.00000000000E+00  0.00000000000E+00  0.25150644962E+03  0.28085731425E+03  0.12500134707E+03 0.  0.
    9000005    1    3    3    0    0 -0.35755561258E+01 -0.59026638858E+02  0.80346849548E+02  0.99767454256E+02  0.10000000000E+01 0.  0.
    9000005    1    3    3    0    0  0.35755561258E+01  0.59026638858E+02  0.17115960007E+03  0.18108986000E+03  0.10000000000E+01 0.  0.
<mgrwt>
<rscale>  0 0.12500135E+03</rscale>
<asrwt>0</asrwt>
<pdfrwt beam="1">  1        4 0.40951056E-01 0.12500135E+03</pdfrwt>
<pdfrwt beam="2">  1       -4 0.22577590E-02 0.12500135E+03</pdfrwt>
<totfact> 0.78062232E+03</totfact>
</mgrwt>
</event>
<event>
 5    1  0.3311405E-002  0.1250009E+03  0.7818608E-02  0.1235068E+00
          4   -1    0    0  501    0  0.00000000000E+00  0.00000000000E+00  0.53594623707E+01  0.55078795287E+01  0.12700000000E+01 0. -1.
         -4   -1    0    0    0  501 -0.00000000000E+00 -0.00000000000E+00 -0.71875840845E+03  0.71875953045E+03  0.12700000000E+01 0. -1.
         25    2    1    2    0    0  0.00000000000E+00  0.00000000000E+00 -0.71339894608E+03  0.72426740998E+03  0.12500089958E+03 0.  0.
    9000005    1    3    3    0    0  0.47464159165E+02  0.37627037494E+02 -0.26756337489E+03  0.27433519631E+03  0.10000000000E+01 0.  0.
    9000005    1    3    3    0    0 -0.47464159165E+02 -0.37627037494E+02 -0.44583557119E+03  0.44993221367E+03  0.10000000000E+01 0.  0.
<mgrwt>
<rscale>  0 0.12500090E+03</rscale>
<asrwt>0</asrwt>
<pdfrwt beam="1">  1        4 0.83603626E-03 0.12500090E+03</pdfrwt>
<pdfrwt beam="2">  1       -4 0.11058964E+00 0.12500090E+03</pdfrwt>
<totfact> 0.41835381E+03</totfact>
</mgrwt>
</event>
<event>
 5    1  0.3311405E-002  0.1249966E+03  0.7818608E-02  0.1235075E+00
         -4   -1    0    0    0  501 -0.00000000000E+00  0.00000000000E+00  0.41420861864E+03  0.41421056560E+03  0.12700000000E+01 0.  1.
          4   -1    0    0  501    0  0.00000000000E+00 -0.00000000000E+00 -0.93853780966E+01  0.94709145290E+01  0.12700000000E+01 0.  1.
         25    2    1    2    0    0  0.00000000000E+00  0.00000000000E+00  0.40482324054E+03  0.42368148013E+03  0.12499656204E+03 0.  0.
    9000005    1    3    3    0    0  0.50024948755E+02  0.14010341322E+02  0.32013428118E+03  0.32432351618E+03  0.10000000000E+01 0.  0.
    9000005    1    3    3    0    0 -0.50024948755E+02 -0.14010341322E+02  0.84688959366E+02  0.99357963951E+02  0.10000000000E+01 0.  0.
<mgrwt>
<rscale>  0 0.12499656E+03</rscale>
<asrwt>0</asrwt>
<pdfrwt beam="2">  1        4 0.14506340E-02 0.12499656E+03</pdfrwt>
<pdfrwt beam="1">  1       -4 0.63731124E-01 0.12499656E+03</pdfrwt>
<totfact> 0.62317660E+03</totfact>
</mgrwt>
</event>
<event>
 5    1  0.3311405E-002  0.1250001E+03  0.7818608E-02  0.1235069E+00
          4   -1    0    0  501    0  0.00000000000E+00  0.00000000000E+00  0.52674242789E+01  0.54183630862E+01  0.12700000000E+01 0.  1.
         -4   -1    0    0    0  501 -0.00000000000E+00 -0.00000000000E+00 -0.73096046931E+03  0.73096157258E+03  0.12700000000E+01 0.  1.
         25    2    1    2    0    0  0.00000000000E+00  0.00000000000E+00 -0.72569304503E+03  0.73637993567E+03  0.12500005620E+03 0.  0.
    9000005    1    3    3    0    0 -0.28488349521E+02  0.52180644394E+02 -0.47629262884E+03  0.47998966030E+03  0.10000000000E+01 0.  0.
    9000005    1    3    3    0    0  0.28488349521E+02 -0.52180644394E+02 -0.24940041619E+03  0.25639027536E+03  0.10000000000E+01 0.  0.
<mgrwt>
<rscale>  0 0.12500006E+03</rscale>
<asrwt>0</asrwt>
<pdfrwt beam="1">  1        4 0.82206909E-03 0.12500006E+03</pdfrwt>
<pdfrwt beam="2">  1       -4 0.11246707E+00 0.12500006E+03</pdfrwt>
<totfact> 0.41234185E+03</totfact>
</mgrwt>
</event>
<event>
 5    1  0.3311405E-002  0.1249966E+03  0.7818608E-02  0.1235075E+00
          4   -1    0    0  501    0  0.00000000000E+00  0.00000000000E+00  0.98697172668E+03  0.98697254378E+03  0.12700000000E+01 0. -1.
         -4   -1    0    0    0  501 -0.00000000000E+00 -0.00000000000E+00 -0.38548699262E+01  0.40586847805E+01  0.12700000000E+01 0. -1.
         25    2    1    2    0    0  0.00000000000E+00  0.00000000000E+00  0.98311685676E+03  0.99103122856E+03  0.12499656771E+03 0.  0.
    9000005    1    3    3    0    0  0.55654269761E+02 -0.15588918866E+02  0.30316373333E+03  0.30862543859E+03  0.10000000000E+01 0.  0.
    9000005    1    3    3    0    0 -0.55654269761E+02  0.15588918866E+02  0.67995312342E+03  0.68240578997E+03  0.10000000000E+01 0.  0.
<mgrwt>
<rscale>  0 0.12499657E+03</rscale>
<asrwt>0</asrwt>
<pdfrwt beam="1">  1        4 0.15185769E+00 0.12499657E+03</pdfrwt>
<pdfrwt beam="2">  1       -4 0.60879723E-03 0.12499657E+03</pdfrwt>
<totfact> 0.30904755E+03</totfact>
</mgrwt>
</event>
<event>
 5    1  0.3311405E-002  0.1249556E+03  0.7818608E-02  0.1235139E+00
         -4   -1    0    0    0  501 -0.00000000000E+00  0.00000000000E+00  0.63824583784E+02  0.63837217947E+02  0.12700000000E+01 0.  1.
          4   -1    0    0  501    0  0.00000000000E+00 -0.00000000000E+00 -0.61134182169E+02  0.61147372220E+02  0.12700000000E+01 0.  1.
         25    2    1    2    0    0  0.00000000000E+00  0.00000000000E+00  0.26904016151E+01  0.12498459017E+03  0.12495563020E+03 0.  0.
    9000005    1    3    3    0    0  0.90786807166E+00 -0.62130260684E+02 -0.50970886487E+01  0.62353619220E+02  0.10000000000E+01 0.  0.
    9000005    1    3    3    0    0 -0.90786807166E+00  0.62130260684E+02  0.77874902639E+01  0.62630970947E+02  0.10000000000E+01 0.  0.
<mgrwt>
<rscale>  0 0.12495563E+03</rscale>
<asrwt>0</asrwt>
<pdfrwt beam="2">  1        4 0.94072453E-02 0.12495563E+03</pdfrwt>
<pdfrwt beam="1">  1       -4 0.98211532E-02 0.12495563E+03</pdfrwt>
<totfact> 0.10463686E+04</totfact>
</mgrwt>
</event>
<event>
 5    1  0.3311405E-002  0.1249982E+03  0.7818608E-02  0.1235072E+00
          4   -1    0    0  501    0  0.00000000000E+00  0.00000000000E+00  0.49814807509E+03  0.49814969398E+03  0.12700000000E+01 0.  1.
         -4   -1    0    0    0  501 -0.00000000000E+00 -0.00000000000E+00 -0.77882490684E+01  0.78911167493E+01  0.12700000000E+01 0.  1.
         25    2    1    2    0    0  0.00000000000E+00  0.00000000000E+00  0.49035982602E+03  0.50604081073E+03  0.12499817259E+03 0.  0.
    9000005    1    3    3    0    0  0.44748408567E+02  0.41123038123E+02  0.18628856916E+03  0.19595396228E+03  0.10000000000E+01 0.  0.
    9000005    1    3    3    0    0 -0.44748408567E+02 -0.41123038123E+02  0.30407125686E+03  0.31008684845E+03  0.10000000000E+01 0.  0.
<mgrwt>
<rscale>  0 0.12499817E+03</rscale>
<asrwt>0</asrwt>
<pdfrwt beam="1">  1        4 0.76646204E-01 0.12499817E+03</pdfrwt>
<pdfrwt beam="2">  1       -4 0.12062296E-02 0.12499817E+03</pdfrwt>
<totfact> 0.55400925E+03</totfact>
</mgrwt>
</event>
<event>
 5    1  0.3311405E-002  0.1249967E+03  0.7818608E-02  0.1235074E+00
         -4   -1    0    0    0  501 -0.00000000000E+00  0.00000000000E+00  0.57327216304E+01  0.58717116152E+01  0.12700000000E+01 0.  1.
          4   -1    0    0  501    0  0.00000000000E+00 -0.00000000000E+00 -0.67305931677E+03  0.67306051495E+03  0.12700000000E+01 0.  1.
         25    2    1    2    0    0  0.00000000000E+00  0.00000000000E+00 -0.66732659514E+03  0.67893222657E+03  0.12499673473E+03 0.  0.
    9000005    1    3    3    0    0 -0.60608399472E+02  0.90142196969E+01 -0.26704883370E+03  0.27399035352E+03  0.10000000000E+01 0.  0.
    9000005    1    3    3    0    0  0.60608399472E+02 -0.90142196969E+01 -0.40027776144E+03  0.40494187305E+03  0.10000000000E+01 0.  0.
<mgrwt>
<rscale>  0 0.12499673E+03</rscale>
<asrwt>0</asrwt>
<pdfrwt beam="2">  1        4 0.10355831E+00 0.12499673E+03</pdfrwt>
<pdfrwt beam="1">  1       -4 0.89274141E-03 0.12499673E+03</pdfrwt>
<totfact> 0.44225598E+03</totfact>
</mgrwt>
</event>
<event>
 4    1  0.3311405E-002  0.1251854E+03  0.7818608E-02  0.1234780E+00
          4   -1    0    0  501    0  0.00000000000E+00  0.00000000000E+00  0.24721541688E+02  0.24754141541E+02  0.12700000000E+01 0.  1.
         -4   -1    0    0    0  501 -0.00000000000E+00 -0.00000000000E+00 -0.15833937228E+03  0.15834446537E+03  0.12700000000E+01 0.  1.
    9000005    1    1    2    0    0 -0.52754421684E+02  0.12532129749E+02 -0.11252042173E+03  0.12490768027E+03  0.10000000000E+01 0.  0.
    9000005    1    1    2    0    0  0.52754421684E+02 -0.12532129749E+02 -0.21097408861E+02  0.58190926646E+02  0.10000000000E+01 0.  0.
<mgrwt>
<rscale>  0 0.12518536E+03</rscale>
<asrwt>0</asrwt>
<pdfrwt beam="1">  1        4 0.38062137E-02 0.12518536E+03</pdfrwt>
<pdfrwt beam="2">  1       -4 0.24362802E-01 0.12518536E+03</pdfrwt>
<totfact> 0.92676587E+03</totfact>
</mgrwt>
</event>
<event>
 5    1  0.3311405E-002  0.1249998E+03  0.7818608E-02  0.1235070E+00
         -4   -1    0    0    0  501 -0.00000000000E+00  0.00000000000E+00  0.48858992746E+03  0.48859157802E+03  0.12700000000E+01 0.  1.
          4   -1    0    0  501    0  0.00000000000E+00 -0.00000000000E+00 -0.79428108255E+01  0.80437021209E+01  0.12700000000E+01 0.  1.
         25    2    1    2    0    0  0.00000000000E+00  0.00000000000E+00  0.48064711663E+03  0.49663528014E+03  0.12499980302E+03 0.  0.
    9000005    1    3    3    0    0  0.10506223973E+02  0.16696543777E+02  0.47330660209E+01  0.20311504874E+02  0.10000000000E+01 0.  0.
    9000005    1    3    3    0    0 -0.10506223973E+02 -0.16696543777E+02  0.47591405061E+03  0.47632377527E+03  0.10000000000E+01 0.  0.
<mgrwt>
<rscale>  0 0.12499980E+03</rscale>
<asrwt>0</asrwt>
<pdfrwt beam="2">  1        4 0.12298586E-02 0.12499980E+03</pdfrwt>
<pdfrwt beam="1">  1       -4 0.75175576E-01 0.12499980E+03</pdfrwt>
<totfact> 0.56126613E+03</totfact>
</mgrwt>
</event>
<event>
 5    1  0.3311405E-002  0.1250008E+03  0.7818608E-02  0.1235068E+00
         -4   -1    0    0    0  501 -0.00000000000E+00  0.00000000000E+00  0.82686479217E+02  0.82696231748E+02  0.12700000000E+01 0. -1.
          4   -1    0    0  501    0  0.00000000000E+00 -0.00000000000E+00 -0.47221212132E+02  0.47238287175E+02  0.12700000000E+01 0. -1.
         25    2    1    2    0    0  0.00000000000E+00  0.00000000000E+00  0.35465267085E+02  0.12993451892E+03  0.12500077615E+03 0.  0.
    9000005    1    3    3    0    0 -0.28744334749E+02  0.55012571509E+02  0.25277114725E+02  0.67026504706E+02  0.10000000000E+01 0.  0.
    9000005    1    3    3    0    0  0.28744334749E+02 -0.55012571509E+02  0.10188152360E+02  0.62908014217E+02  0.10000000000E+01 0.  0.
<mgrwt>
<rscale>  0 0.12500078E+03</rscale>
<asrwt>0</asrwt>
<pdfrwt beam="2">  1        4 0.72668656E-02 0.12500078E+03</pdfrwt>
<pdfrwt beam="1">  1       -4 0.12723060E-01 0.12500078E+03</pdfrwt>
<totfact> 0.10345727E+04</totfact>
</mgrwt>
</event>
<event>
 5    1  0.3311405E-002  0.1250040E+03  0.7818608E-02  0.1235063E+00
          4   -1    0    0  501    0  0.00000000000E+00  0.00000000000E+00  0.36382123662E+03  0.36382345323E+03  0.12700000000E+01 0. -1.
         -4   -1    0    0    0  501 -0.00000000000E+00 -0.00000000000E+00 -0.10697598107E+02  0.10772720421E+02  0.12700000000E+01 0. -1.
         25    2    1    2    0    0  0.00000000000E+00  0.00000000000E+00  0.35312363852E+03  0.37459617365E+03  0.12500395687E+03 0.  0.
    9000005    1    3    3    0    0  0.28962127299E+02 -0.53292513537E+02  0.22167152563E+03  0.22982202264E+03  0.10000000000E+01 0.  0.
    9000005    1    3    3    0    0 -0.28962127299E+02  0.53292513537E+02  0.13145211289E+03  0.14477415101E+03  0.10000000000E+01 0.  0.
<mgrwt>
<rscale>  0 0.12500396E+03</rscale>
<asrwt>0</asrwt>
<pdfrwt beam="1">  1        4 0.55978432E-01 0.12500396E+03</pdfrwt>
<pdfrwt beam="2">  1       -4 0.16517339E-02 0.12500396E+03</pdfrwt>
<totfact> 0.67094957E+03</totfact>
</mgrwt>
</event>
<event>
 5    1  0.3311405E-002  0.1249547E+03  0.7818608E-02  0.1235140E+00
          4   -1    0    0  501    0  0.00000000000E+00  0.00000000000E+00  0.14755013068E+02  0.14809568212E+02  0.12700000000E+01 0. -1.
         -4   -1    0    0    0  501 -0.00000000000E+00 -0.00000000000E+00 -0.26400434193E+03  0.26400739660E+03  0.12700000000E+01 0. -1.
         25    2    1    2    0    0  0.00000000000E+00  0.00000000000E+00 -0.24924932886E+03  0.27881696481E+03  0.12495467949E+03 0.  0.
    9000005    1    3    3    0    0  0.16418030101E+02 -0.59693051621E+02 -0.10600852751E+03  0.12276652650E+03  0.10000000000E+01 0.  0.
    9000005    1    3    3    0    0 -0.16418030101E+02  0.59693051621E+02 -0.14324080135E+03  0.15605043831E+03  0.10000000000E+01 0.  0.
<mgrwt>
<rscale>  0 0.12495468E+03</rscale>
<asrwt>0</asrwt>
<pdfrwt beam="1">  1        4 0.22744337E-02 0.12495468E+03</pdfrwt>
<pdfrwt beam="2">  1       -4 0.40620480E-01 0.12495468E+03</pdfrwt>
<totfact> 0.78414204E+03</totfact>
</mgrwt>
</event>
<event>
 5    1  0.3311405E-002  0.1250014E+03  0.7818608E-02  0.1235067E+00
         -4   -1    0    0    0  501 -0.00000000000E+00  0.00000000000E+00  0.26214724339E+03  0.26215031970E+03  0.12700000000E+01 0. -1.
          4   -1    0    0  501    0  0.00000000000E+00 -0.00000000000E+00 -0.14871082750E+02  0.14925213639E+02  0.12700000000E+01 0. -1.
         25    2    1    2    0    0  0.00000000000E+00  0.00000000000E+00  0.24727616064E+03  0.27707553334E+03  0.12500140620E+03 0.  0.
    9000005    1    3    3    0    0  0.87710586976E+01 -0.58615964580E+02  0.16755629344E+03  0.17773259196E+03  0.10000000000E+01 0.  0.
    9000005    1    3    3    0    0 -0.87710586976E+01  0.58615964580E+02  0.79719867204E+02  0.99342941377E+02  0.10000000000E+01 0.  0.
<mgrwt>
<rscale>  0 0.12500141E+03</rscale>
<asrwt>0</asrwt>
<pdfrwt beam="2">  1        4 0.22922595E-02 0.12500141E+03</pdfrwt>
<pdfrwt beam="1">  1       -4 0.40334745E-01 0.12500141E+03</pdfrwt>
<totfact> 0.78565016E+03</totfact>
</mgrwt>
</event>
<event>
 5    1  0.3311405E-002  0.1250224E+03  0.7818608E-02  0.1235034E+00
         -4   -1    0    0    0  501 -0.00000000000E+00  0.00000000000E+00  0.84733886609E+02  0.84743403519E+02  0.12700000000E+01 0.  1.
          4   -1    0    0  501    0  0.00000000000E+00 -0.00000000000E+00 -0.46095879739E+02  0.46113371477E+02  0.12700000000E+01 0.  1.
         25    2    1    2    0    0  0.00000000000E+00  0.00000000000E+00  0.38638006870E+02  0.13085677500E+03  0.12502239794E+03 0.  0.
    9000005    1    3    3    0    0  0.36064062063E+02  0.28073841998E+01  0.72669770424E+02  0.81181238670E+02  0.10000000000E+01 0.  0.
    9000005    1    3    3    0    0 -0.36064062063E+02 -0.28073841998E+01 -0.34031763554E+02  0.49675536325E+02  0.10000000000E+01 0.  0.
<mgrwt>
<rscale>  0 0.12502240E+03</rscale>
<asrwt>0</asrwt>
<pdfrwt beam="2">  1        4 0.70937515E-02 0.12502240E+03</pdfrwt>
<pdfrwt beam="1">  1       -4 0.13038060E-01 0.12502240E+03</pdfrwt>
<totfact> 0.10320945E+04</totfact>
</mgrwt>
</event>
<event>
 5    1  0.3311405E-002  0.1250028E+03  0.7818608E-02  0.1235065E+00
          4   -1    0    0  501    0  0.00000000000E+00  0.00000000000E+00  0.91758904096E+01  0.92633614206E+01  0.12700000000E+01 0. -1.
         -4   -1    0    0    0  501 -0.00000000000E+00 -0.00000000000E+00 -0.42361921436E+03  0.42362111807E+03  0.12700000000E+01 0. -1.
         25    2    1    2    0    0  0.00000000000E+00  0.00000000000E+00 -0.41444332395E+03  0.43288447949E+03  0.12500281524E+03 0.  0.
    9000005    1    3    3    0    0 -0.14309460132E+02  0.59747347306E+02 -0.16759797547E+03  0.17850654761E+03  0.10000000000E+01 0.  0.
    9000005    1    3    3    0    0  0.14309460132E+02 -0.59747347306E+02 -0.24684534848E+03  0.25437793188E+03  0.10000000000E+01 0.  0.
<mgrwt>
<rscale>  0 0.12500282E+03</rscale>
<asrwt>0</asrwt>
<pdfrwt beam="1">  1        4 0.14185508E-02 0.12500282E+03</pdfrwt>
<pdfrwt beam="2">  1       -4 0.65179047E-01 0.12500282E+03</pdfrwt>
<totfact> 0.61471590E+03</totfact>
</mgrwt>
</event>
<event>
 5    1  0.3311405E-002  0.1249999E+03  0.7818608E-02  0.1235069E+00
         -4   -1    0    0    0  501 -0.00000000000E+00  0.00000000000E+00  0.21334166094E+02  0.21371933533E+02  0.12700000000E+01 0. -1.
          4   -1    0    0  501    0  0.00000000000E+00 -0.00000000000E+00 -0.18289604934E+03  0.18290045862E+03  0.12700000000E+01 0. -1.
         25    2    1    2    0    0  0.00000000000E+00  0.00000000000E+00 -0.16156188324E+03  0.20427239215E+03  0.12499987231E+03 0.  0.
    9000005    1    3    3    0    0  0.19649638784E+02  0.13631433617E+02  0.13568310448E+02  0.27514057047E+02  0.10000000000E+01 0.  0.
    9000005    1    3    3    0    0 -0.19649638784E+02 -0.13631433617E+02 -0.17513019369E+03  0.17675833511E+03  0.10000000000E+01 0.  0.
<mgrwt>
<rscale>  0 0.12499987E+03</rscale>
<asrwt>0</asrwt>
<pdfrwt beam="2">  1        4 0.28141097E-01 0.12499987E+03</pdfrwt>
<pdfrwt beam="1">  1       -4 0.32854239E-02 0.12499987E+03</pdfrwt>
<totfact> 0.89420157E+03</totfact>
</mgrwt>
</event>
<event>
 5    1  0.3311405E-002  0.1250006E+03  0.7818608E-02  0.1235068E+00
         -4   -1    0    0    0  501 -0.00000000000E+00  0.00000000000E+00  0.33944536564E+03  0.33944774142E+03  0.12700000000E+01 0. -1.
          4   -1    0    0  501    0  0.00000000000E+00 -0.00000000000E+00 -0.11470399542E+02  0.11540492435E+02  0.12700000000E+01 0. -1.
         25    2    1    2    0    0  0.00000000000E+00  0.00000000000E+00  0.32797496609E+03  0.35098823385E+03  0.12500064767E+03 0.  0.
    9000005    1    3    3    0    0 -0.21711682675E+02  0.46835656877E+02  0.65098885992E+02  0.83089354775E+02  0.10000000000E+01 0.  0.
    9000005    1    3    3    0    0  0.21711682675E+02 -0.46835656877E+02  0.26287608010E+03  0.26789887908E+03  0.10000000000E+01 0.  0.
<mgrwt>
<rscale>  0 0.12500065E+03</rscale>
<asrwt>0</asrwt>
<pdfrwt beam="2">  1        4 0.17702514E-02 0.12500065E+03</pdfrwt>
<pdfrwt beam="1">  1       -4 0.52227939E-01 0.12500065E+03</pdfrwt>
<totfact> 0.69614975E+03</totfact>
</mgrwt>
</event>
<event>
 5    1  0.3311405E-002  0.1249998E+03  0.7818608E-02  0.1235070E+00
         -4   -1    0    0    0  501 -0.00000000000E+00  0.00000000000E+00  0.17969379787E+03  0.17969828572E+03  0.12700000000E+01 0. -1.
          4   -1    0    0  501    0  0.00000000000E+00 -0.00000000000E+00 -0.21714982904E+02  0.21752089153E+02  0.12700000000E+01 0. -1.
         25    2    1    2    0    0  0.00000000000E+00  0.00000000000E+00  0.15797881496E+03  0.20145037488E+03  0.12499979024E+03 0.  0.
    9000005    1    3    3    0    0 -0.39891084137E+02  0.25406168280E+02  0.14481841907E+03  0.15234876594E+03  0.10000000000E+01 0.  0.
    9000005    1    3    3    0    0  0.39891084137E+02 -0.25406168280E+02  0.13160395892E+02  0.49101608939E+02  0.10000000000E+01 0.  0.
<mgrwt>
<rscale>  0 0.12499979E+03</rscale>
<asrwt>0</asrwt>
<pdfrwt beam="2">  1        4 0.33439661E-02 0.12499979E+03</pdfrwt>
<pdfrwt beam="1">  1       -4 0.27648400E-01 0.12499979E+03</pdfrwt>
<totfact> 0.89891885E+03</totfact>
</mgrwt>
</event>
<event>
 5    1  0.3311405E-002  0.1250014E+03  0.7818608E-02  0.1235067E+00
         -4   -1    0    0    0  501 -0.00000000000E+00  0.00000000000E+00  0.43463160855E+01  0.45280639919E+01  0.12700000000E+01 0.  1.
          4   -1    0    0  501    0  0.00000000000E+00 -0.00000000000E+00 -0.88018077410E+03  0.88018169033E+03  0.12700000000E+01 0.  1.
         25    2    1    2    0    0  0.00000000000E+00  0.00000000000E+00 -0.87583445801E+03  0.88470975432E+03  0.12500140619E+03 0.  0.
    9000005    1    3    3    0    0 -0.20685989398E+02  0.55992229111E+02 -0.30697247513E+03  0.31272374449E+03  0.10000000000E+01 0.  0.
    9000005    1    3    3    0    0  0.20685989398E+02 -0.55992229111E+02 -0.56886198288E+03  0.57198600983E+03  0.10000000000E+01 0.  0.
<mgrwt>
<rscale>  0 0.12500141E+03</rscale>
<asrwt>0</asrwt>
<pdfrwt beam="2">  1        4 0.13542634E+00 0.12500141E+03</pdfrwt>
<pdfrwt beam="1">  1       -4 0.68271580E-03 0.12500141E+03</pdfrwt>
<totfact> 0.34746460E+03</totfact>
</mgrwt>
</event>
<event>
 5    1  0.3311405E-002  0.1249975E+03  0.7818608E-02  0.1235073E+00
         -4   -1    0    0    0  501 -0.00000000000E+00  0.00000000000E+00  0.47724707211E+02  0.47741602177E+02  0.12700000000E+01 0. -1.
          4   -1    0    0  501    0  0.00000000000E+00 -0.00000000000E+00 -0.81809990089E+02  0.81819847093E+02  0.12700000000E+01 0. -1.
         25    2    1    2    0    0  0.00000000000E+00  0.00000000000E+00 -0.34085282878E+02  0.12956144927E+03  0.12499745049E+03 0.  0.
    9000005    1    3    3    0    0 -0.13088208363E+02  0.24307902843E+02 -0.75151317707E+02  0.80068070365E+02  0.10000000000E+01 0.  0.
    9000005    1    3    3    0    0  0.13088208363E+02 -0.24307902843E+02  0.41066034830E+02  0.49493378905E+02  0.10000000000E+01 0.  0.
<mgrwt>
<rscale>  0 0.12499745E+03</rscale>
<asrwt>0</asrwt>
<pdfrwt beam="2">  1        4 0.12588210E-01 0.12499745E+03</pdfrwt>
<pdfrwt beam="1">  1       -4 0.73443205E-02 0.12499745E+03</pdfrwt>
<totfact> 0.10354494E+04</totfact>
</mgrwt>
</event>
<event>
 5    1  0.3311405E-002  0.1249930E+03  0.7818608E-02  0.1235080E+00
         -4   -1    0    0    0  501 -0.00000000000E+00  0.00000000000E+00  0.15308507998E+03  0.15309034788E+03  0.12700000000E+01 0.  1.
          4   -1    0    0  501    0  0.00000000000E+00 -0.00000000000E+00 -0.25492489038E+02  0.25524104242E+02  0.12700000000E+01 0.  1.
         25    2    1    2    0    0  0.00000000000E+00  0.00000000000E+00  0.12759259094E+03  0.17861445212E+03  0.12499301277E+03 0.  0.
    9000005    1    3    3    0    0  0.58205047158E+02  0.22688055778E+02  0.65934027256E+02  0.90834307064E+02  0.10000000000E+01 0.  0.
    9000005    1    3    3    0    0 -0.58205047158E+02 -0.22688055778E+02  0.61658563688E+02  0.87780145054E+02  0.10000000000E+01 0.  0.
<mgrwt>
<rscale>  0 0.12499301E+03</rscale>
<asrwt>0</asrwt>
<pdfrwt beam="2">  1        4 0.39247585E-02 0.12499301E+03</pdfrwt>
<pdfrwt beam="1">  1       -4 0.23554388E-01 0.12499301E+03</pdfrwt>
<totfact> 0.93881712E+03</totfact>
</mgrwt>
</event>
<event>
 5    1  0.3311405E-002  0.1249985E+03  0.7818608E-02  0.1235072E+00
          4   -1    0    0  501    0  0.00000000000E+00  0.00000000000E+00  0.75222788762E+02  0.75233508818E+02  0.12700000000E+01 0. -1.
         -4   -1    0    0    0  501 -0.00000000000E+00 -0.00000000000E+00 -0.51905627480E+02  0.51921162007E+02  0.12700000000E+01 0. -1.
         25    2    1    2    0    0  0.00000000000E+00  0.00000000000E+00  0.23317161281E+02  0.12715467082E+03  0.12499848120E+03 0.  0.
    9000005    1    3    3    0    0  0.32317676173E+02  0.26634981639E+02  0.58840774920E+02  0.72229434675E+02  0.10000000000E+01 0.  0.
    9000005    1    3    3    0    0 -0.32317676173E+02 -0.26634981639E+02 -0.35523613639E+02  0.54925236150E+02  0.10000000000E+01 0.  0.
<mgrwt>
<rscale>  0 0.12499848E+03</rscale>
<asrwt>0</asrwt>
<pdfrwt beam="1">  1        4 0.11574756E-01 0.12499848E+03</pdfrwt>
<pdfrwt beam="2">  1       -4 0.79875008E-02 0.12499848E+03</pdfrwt>
<totfact> 0.10406144E+04</totfact>
</mgrwt>
</event>
<event>
 5    1  0.3311405E-002  0.1250012E+03  0.7818608E-02  0.1235067E+00
         -4   -1    0    0    0  501 -0.00000000000E+00  0.00000000000E+00  0.13502144584E+03  0.13502741846E+03  0.12700000000E+01 0.  1.
          4   -1    0    0  501    0  0.00000000000E+00 -0.00000000000E+00 -0.28910587449E+02  0.28938468630E+02  0.12700000000E+01 0.  1.
         25    2    1    2    0    0  0.00000000000E+00  0.00000000000E+00  0.10611085839E+03  0.16396588709E+03  0.12500119144E+03 0.  0.
    9000005    1    3    3    0    0 -0.57941878739E+02 -0.87967654558E+01  0.81513290321E+02  0.10039950644E+03  0.10000000000E+01 0.  0.
    9000005    1    3    3    0    0  0.57941878739E+02  0.87967654558E+01  0.24597568068E+02  0.63566380651E+02  0.10000000000E+01 0.  0.
<mgrwt>
<rscale>  0 0.12500119E+03</rscale>
<asrwt>0</asrwt>
<pdfrwt beam="2">  1        4 0.44503867E-02 0.12500119E+03</pdfrwt>
<pdfrwt beam="1">  1       -4 0.20775135E-01 0.12500119E+03</pdfrwt>
<totfact> 0.96581010E+03</totfact>
</mgrwt>
</event>
<event>
 5    1  0.3311405E-002  0.1249967E+03  0.7818608E-02  0.1235074E+00
          4   -1    0    0  501    0  0.00000000000E+00  0.00000000000E+00  0.29958132056E+02  0.29985039207E+02  0.12700000000E+01 0. -1.
         -4   -1    0    0    0  501 -0.00000000000E+00 -0.00000000000E+00 -0.13029487880E+03  0.13030106808E+03  0.12700000000E+01 0. -1.
         25    2    1    2    0    0  0.00000000000E+00  0.00000000000E+00 -0.10033674675E+03  0.16028610729E+03  0.12499669372E+03 0.  0.
    9000005    1    3    3    0    0  0.35279635304E+02  0.46113599919E+02 -0.20537931157E+02  0.61594832421E+02  0.10000000000E+01 0.  0.
    9000005    1    3    3    0    0 -0.35279635304E+02 -0.46113599919E+02 -0.79798815591E+02  0.98691274865E+02  0.10000000000E+01 0.  0.
<mgrwt>
<rscale>  0 0.12499669E+03</rscale>
<asrwt>0</asrwt>
<pdfrwt beam="1">  1        4 0.46114893E-02 0.12499669E+03</pdfrwt>
<pdfrwt beam="2">  1       -4 0.20047912E-01 0.12499669E+03</pdfrwt>
<totfact> 0.97294884E+03</totfact>
</mgrwt>
</event>
<event>
 5    1  0.3311405E-002  0.1250032E+03  0.7818608E-02  0.1235064E+00
         -4   -1    0    0    0  501 -0.00000000000E+00  0.00000000000E+00  0.52282632154E+01  0.53803007583E+01  0.12700000000E+01 0.  1.
          4   -1    0    0  501    0  0.00000000000E+00 -0.00000000000E+00 -0.73631895031E+03  0.73632004555E+03  0.12700000000E+01 0.  1.
         25    2    1    2    0    0  0.00000000000E+00  0.00000000000E+00 -0.73109068709E+03  0.74170034631E+03  0.12500324382E+03 0.  0.
    9000005    1    3    3    0    0  0.53196480241E+02 -0.32727834519E+02 -0.35299209693E+03  0.35847649457E+03  0.10000000000E+01 0.  0.
    9000005    1    3    3    0    0 -0.53196480241E+02  0.32727834519E+02 -0.37809859017E+03  0.38322385175E+03  0.10000000000E+01 0.  0.
<mgrwt>
<rscale>  0 0.12500324E+03</rscale>
<asrwt>0</asrwt>
<pdfrwt beam="2">  1        4 0.11329154E+00 0.12500324E+03</pdfrwt>
<pdfrwt beam="1">  1       -4 0.81612821E-03 0.12500324E+03</pdfrwt>
<totfact> 0.40971408E+03</totfact>
</mgrwt>
</event>
<event>
 5    1  0.3311405E-002  0.1250001E+03  0.7818608E-02  0.1235069E+00
         -4   -1    0    0    0  501 -0.00000000000E+00  0.00000000000E+00  0.25833919997E+03  0.25834232162E+03  0.12700000000E+01 0.  1.
          4   -1    0    0  501    0  0.00000000000E+00 -0.00000000000E+00 -0.15090771771E+02  0.15144117427E+02  0.12700000000E+01 0.  1.
         25    2    1    2    0    0  0.00000000000E+00  0.00000000000E+00  0.24324842820E+03  0.27348643905E+03  0.12500013809E+03 0.  0.
    9000005    1    3    3    0    0  0.16163851652E+02  0.49667893597E+02  0.46560520347E+02  0.69978938329E+02  0.10000000000E+01 0.  0.
    9000005    1    3    3    0    0 -0.16163851652E+02 -0.49667893597E+02  0.19668790785E+03  0.20350750072E+03  0.10000000000E+01 0.  0.
<mgrwt>
<rscale>  0 0.12500014E+03</rscale>
<asrwt>0</asrwt>
<pdfrwt beam="2">  1        4 0.23260007E-02 0.12500014E+03</pdfrwt>
<pdfrwt beam="1">  1       -4 0.39748838E-01 0.12500014E+03</pdfrwt>
<totfact> 0.79049513E+03</totfact>
</mgrwt>
</event>
<event>
 5    1  0.3311405E-002  0.1250012E+03  0.7818608E-02  0.1235067E+00
         -4   -1    0    0    0  501 -0.00000000000E+00  0.00000000000E+00  0.96220593778E+02  0.96228974675E+02  0.12700000000E+01 0.  1.
          4   -1    0    0  501    0  0.00000000000E+00 -0.00000000000E+00 -0.40577519010E+02  0.40597388450E+02  0.12700000000E+01 0.  1.
         25    2    1    2    0    0  0.00000000000E+00  0.00000000000E+00  0.55643074768E+02  0.13682636313E+03  0.12500120750E+03 0.  0.
    9000005    1    3    3    0    0 -0.60035594118E+02  0.91533053544E+01  0.43956032003E+02  0.74974584423E+02  0.10000000000E+01 0.  0.
    9000005    1    3    3    0    0  0.60035594118E+02 -0.91533053544E+01  0.11687042765E+02  0.61851778702E+02  0.10000000000E+01 0.  0.
<mgrwt>
<rscale>  0 0.12500121E+03</rscale>
<asrwt>0</asrwt>
<pdfrwt beam="2">  1        4 0.62448684E-02 0.12500121E+03</pdfrwt>
<pdfrwt beam="1">  1       -4 0.14805341E-01 0.12500121E+03</pdfrwt>
<totfact> 0.10199440E+04</totfact>
</mgrwt>
</event>
<event>
 5    1  0.3311405E-002  0.1249974E+03  0.7818608E-02  0.1235073E+00
         -4   -1    0    0    0  501 -0.00000000000E+00  0.00000000000E+00  0.28185631133E+02  0.28214228722E+02  0.12700000000E+01 0.  1.
          4   -1    0    0  501    0  0.00000000000E+00 -0.00000000000E+00 -0.13848250474E+03  0.13848832810E+03  0.12700000000E+01 0.  1.
         25    2    1    2    0    0  0.00000000000E+00  0.00000000000E+00 -0.11029687361E+03  0.16670255682E+03  0.12499736846E+03 0.  0.
    9000005    1    3    3    0    0  0.51958609084E+02  0.43047511439E+00 -0.88494462329E+01  0.52718071526E+02  0.10000000000E+01 0.  0.
    9000005    1    3    3    0    0 -0.51958609084E+02 -0.43047511439E+00 -0.10144742737E+03  0.11398448529E+03  0.10000000000E+01 0.  0.
<mgrwt>
<rscale>  0 0.12499737E+03</rscale>
<asrwt>0</asrwt>
<pdfrwt beam="2">  1        4 0.21307648E-01 0.12499737E+03</pdfrwt>
<pdfrwt beam="1">  1       -4 0.43388988E-02 0.12499737E+03</pdfrwt>
<totfact> 0.96071602E+03</totfact>
</mgrwt>
</event>
<event>
 5    1  0.3311405E-002  0.1249992E+03  0.7818608E-02  0.1235071E+00
         -4   -1    0    0    0  501 -0.00000000000E+00  0.00000000000E+00  0.29769852439E+02  0.29796929611E+02  0.12700000000E+01 0.  1.
          4   -1    0    0  501    0  0.00000000000E+00 -0.00000000000E+00 -0.13112343046E+03  0.13112958063E+03  0.12700000000E+01 0.  1.
         25    2    1    2    0    0  0.00000000000E+00  0.00000000000E+00 -0.10135357802E+03  0.16092651024E+03  0.12499917568E+03 0.  0.
    9000005    1    3    3    0    0  0.35579471789E+02  0.43108674585E+02 -0.14699387664E+02  0.57804226791E+02  0.10000000000E+01 0.  0.
    9000005    1    3    3    0    0 -0.35579471789E+02 -0.43108674585E+02 -0.86654190354E+02  0.10312228345E+03  0.10000000000E+01 0.  0.
<mgrwt>
<rscale>  0 0.12499918E+03</rscale>
<asrwt>0</asrwt>
<pdfrwt beam="2">  1        4 0.20175391E-01 0.12499918E+03</pdfrwt>
<pdfrwt beam="1">  1       -4 0.45825333E-02 0.12499918E+03</pdfrwt>
<totfact> 0.97166258E+03</totfact>
</mgrwt>
</event>
<event>
 5    1  0.3311405E-002  0.1249981E+03  0.7818608E-02  0.1235072E+00
          4   -1    0    0  501    0  0.00000000000E+00  0.00000000000E+00  0.97600078699E+01  0.98422890438E+01  0.12700000000E+01 0. -1.
         -4   -1    0    0    0  501 -0.00000000000E+00 -0.00000000000E+00 -0.39845451904E+03  0.39845654298E+03  0.12700000000E+01 0. -1.
         25    2    1    2    0    0  0.00000000000E+00  0.00000000000E+00 -0.38869451117E+03  0.40829883202E+03  0.12499805286E+03 0.  0.
    9000005    1    3    3    0    0 -0.57952129799E+01  0.60231448907E+02 -0.14335347119E+03  0.15560407975E+03  0.10000000000E+01 0.  0.
    9000005    1    3    3    0    0  0.57952129799E+01 -0.60231448907E+02 -0.24534103998E+03  0.25269475228E+03  0.10000000000E+01 0.  0.
<mgrwt>
<rscale>  0 0.12499805E+03</rscale>
<asrwt>0</asrwt>
<pdfrwt beam="1">  1        4 0.15080250E-02 0.12499805E+03</pdfrwt>
<pdfrwt beam="2">  1       -4 0.61307168E-01 0.12499805E+03</pdfrwt>
<totfact> 0.63756325E+03</totfact>
</mgrwt>
</event>
<event>
 5    1  0.3311405E-002  0.1249996E+03  0.7818608E-02  0.1235070E+00
          4   -1    0    0  501    0  0.00000000000E+00  0.00000000000E+00  0.17085689554E+03  0.17086161550E+03  0.12700000000E+01 0. -1.
         -4   -1    0    0    0  501 -0.00000000000E+00 -0.00000000000E+00 -0.22839890391E+02  0.22875171980E+02  0.12700000000E+01 0. -1.
         25    2    1    2    0    0  0.00000000000E+00  0.00000000000E+00  0.14801700514E+03  0.19373678748E+03  0.12499963605E+03 0.  0.
    9000005    1    3    3    0    0 -0.16188216427E+02  0.26206395404E+02  0.15828073187E+03  0.16125329017E+03  0.10000000000E+01 0.  0.
    9000005    1    3    3    0    0  0.16188216427E+02 -0.26206395404E+02 -0.10263726723E+02  0.32483497309E+02  0.10000000000E+01 0.  0.
<mgrwt>
<rscale>  0 0.12499964E+03</rscale>
<asrwt>0</asrwt>
<pdfrwt beam="1">  1        4 0.26288752E-01 0.12499964E+03</pdfrwt>
<pdfrwt beam="2">  1       -4 0.35169064E-02 0.12499964E+03</pdfrwt>
<totfact> 0.91201904E+03</totfact>
</mgrwt>
</event>
<event>
 5    1  0.3311405E-002  0.1250010E+03  0.7818608E-02  0.1235068E+00
          4   -1    0    0  501    0  0.00000000000E+00  0.00000000000E+00  0.15530920449E+03  0.15531439695E+03  0.12700000000E+01 0. -1.
         -4   -1    0    0    0  501 -0.00000000000E+00 -0.00000000000E+00 -0.25130180417E+02  0.25162250849E+02  0.12700000000E+01 0. -1.
         25    2    1    2    0    0  0.00000000000E+00  0.00000000000E+00  0.13017902407E+03  0.18047664780E+03  0.12500096836E+03 0.  0.
    9000005    1    3    3    0    0 -0.45998521208E+02  0.32623929436E+02  0.26210580930E+02  0.62194688501E+02  0.10000000000E+01 0.  0.
    9000005    1    3    3    0    0  0.45998521208E+02 -0.32623929436E+02  0.10396844314E+03  0.11828195930E+03  0.10000000000E+01 0.  0.
<mgrwt>
<rscale>  0 0.12500097E+03</rscale>
<asrwt>0</asrwt>
<pdfrwt beam="1">  1        4 0.23896590E-01 0.12500097E+03</pdfrwt>
<pdfrwt beam="2">  1       -4 0.38690480E-02 0.12500097E+03</pdfrwt>
<totfact> 0.93529244E+03</totfact>
</mgrwt>
</event>
<event>
 5    1  0.3311405E-002  0.1250002E+03  0.7818608E-02  0.1235069E+00
          4   -1    0    0  501    0  0.00000000000E+00  0.00000000000E+00  0.21148821081E+03  0.21149202399E+03  0.12700000000E+01 0.  1.
         -4   -1    0    0    0  501 -0.00000000000E+00 -0.00000000000E+00 -0.18444535914E+02  0.18488207190E+02  0.12700000000E+01 0.  1.
         25    2    1    2    0    0  0.00000000000E+00  0.00000000000E+00  0.19304367490E+03  0.22998023118E+03  0.12500018527E+03 0.  0.
    9000005    1    3    3    0    0 -0.42753381857E+01  0.12836358237E+02  0.20877028465E+03  0.20921061723E+03  0.10000000000E+01 0.  0.
    9000005    1    3    3    0    0  0.42753381857E+01 -0.12836358237E+02 -0.15726609752E+02  0.20769613952E+02  0.10000000000E+01 0.  0.
<mgrwt>
<rscale>  0 0.12500019E+03</rscale>
<asrwt>0</asrwt>
<pdfrwt beam="1">  1        4 0.32540300E-01 0.12500019E+03</pdfrwt>
<pdfrwt beam="2">  1       -4 0.28412736E-02 0.12500019E+03</pdfrwt>
<totfact> 0.85312279E+03</totfact>
</mgrwt>
</event>
<event>
 5    1  0.3311405E-002  0.1250070E+03  0.7818608E-02  0.1235058E+00
          4   -1    0    0  501    0  0.00000000000E+00  0.00000000000E+00  0.24012861182E+02  0.24046421816E+02  0.12700000000E+01 0.  1.
         -4   -1    0    0    0  501 -0.00000000000E+00 -0.00000000000E+00 -0.16254176066E+03  0.16254672208E+03  0.12700000000E+01 0.  1.
         25    2    1    2    0    0  0.00000000000E+00  0.00000000000E+00 -0.13852889948E+03  0.18659314389E+03  0.12500698124E+03 0.  0.
    9000005    1    3    3    0    0 -0.60536444127E+02  0.41337624805E+01 -0.46927461603E+02  0.76713334645E+02  0.10000000000E+01 0.  0.
    9000005    1    3    3    0    0  0.60536444127E+02 -0.41337624805E+01 -0.91601437874E+02  0.10987980925E+03  0.10000000000E+01 0.  0.
<mgrwt>
<rscale>  0 0.12500698E+03</rscale>
<asrwt>0</asrwt>
<pdfrwt beam="1">  1        4 0.36972497E-02 0.12500698E+03</pdfrwt>
<pdfrwt beam="2">  1       -4 0.25009387E-01 0.12500698E+03</pdfrwt>
<totfact> 0.92429039E+03</totfact>
</mgrwt>
</event>
<event>
 5    1  0.3311405E-002  0.1250021E+03  0.7818608E-02  0.1235066E+00
         -4   -1    0    0    0  501 -0.00000000000E+00  0.00000000000E+00  0.14195631883E+02  0.14252328390E+02  0.12700000000E+01 0.  1.
          4   -1    0    0  501    0  0.00000000000E+00 -0.00000000000E+00 -0.27457546678E+03  0.27457840384E+03  0.12700000000E+01 0.  1.
         25    2    1    2    0    0  0.00000000000E+00  0.00000000000E+00 -0.26037983490E+03  0.28883073223E+03  0.12500213383E+03 0.  0.
    9000005    1    3    3    0    0 -0.36749262993E+02  0.37925479476E+02 -0.52982013123E+02  0.74812726448E+02  0.10000000000E+01 0.  0.
    9000005    1    3    3    0    0  0.36749262993E+02 -0.37925479476E+02 -0.20739782177E+03  0.21401800579E+03  0.10000000000E+01 0.  0.
<mgrwt>
<rscale>  0 0.12500213E+03</rscale>
<asrwt>0</asrwt>
<pdfrwt beam="2">  1        4 0.42246963E-01 0.12500213E+03</pdfrwt>
<pdfrwt beam="1">  1       -4 0.21885308E-02 0.12500213E+03</pdfrwt>
<totfact> 0.77017948E+03</totfact>
</mgrwt>
</event>
<event>
 5    1  0.3311405E-002  0.1249944E+03  0.7818608E-02  0.1235078E+00
         -4   -1    0    0    0  501 -0.00000000000E+00  0.00000000000E+00  0.18223441578E+02  0.18267641417E+02  0.12700000000E+01 0. -1.
          4   -1    0    0  501    0  0.00000000000E+00 -0.00000000000E+00 -0.21402824268E+03  0.21403201061E+03  0.12700000000E+01 0. -1.
         25    2    1    2    0    0  0.00000000000E+00  0.00000000000E+00 -0.19580480110E+03  0.23229965202E+03  0.12499443266E+03 0.  0.
    9000005    1    3    3    0    0 -0.79127382743E+01  0.52064081705E+01  0.16890658686E+02  0.19391040815E+02  0.10000000000E+01 0.  0.
    9000005    1    3    3    0    0  0.79127382743E+01 -0.52064081705E+01 -0.21269545979E+03  0.21290861121E+03  0.10000000000E+01 0.  0.
<mgrwt>
<rscale>  0 0.12499443E+03</rscale>
<asrwt>0</asrwt>
<pdfrwt beam="2">  1        4 0.32931110E-01 0.12499443E+03</pdfrwt>
<pdfrwt beam="1">  1       -4 0.28072964E-02 0.12499443E+03</pdfrwt>
<totfact> 0.84968282E+03</totfact>
</mgrwt>
</event>
<event>
 5    1  0.3311405E-002  0.1250009E+03  0.7818608E-02  0.1235068E+00
         -4   -1    0    0    0  501 -0.00000000000E+00  0.00000000000E+00  0.27246436241E+02  0.27276018548E+02  0.12700000000E+01 0. -1.
          4   -1    0    0  501    0  0.00000000000E+00 -0.00000000000E+00 -0.14325915666E+03  0.14326478586E+03  0.12700000000E+01 0. -1.
         25    2    1    2    0    0  0.00000000000E+00  0.00000000000E+00 -0.11601272042E+03  0.17054080441E+03  0.12500085867E+03 0.  0.
    9000005    1    3    3    0    0 -0.35772592358E+02 -0.50025907177E+02 -0.42873266157E+02  0.74975907490E+02  0.10000000000E+01 0.  0.
    9000005    1    3    3    0    0  0.35772592358E+02  0.50025907177E+02 -0.73139454264E+02  0.95564896918E+02  0.10000000000E+01 0.  0.
<mgrwt>
<rscale>  0 0.12500086E+03</rscale>
<asrwt>0</asrwt>
<pdfrwt beam="2">  1        4 0.22042578E-01 0.12500086E+03</pdfrwt>
<pdfrwt beam="1">  1       -4 0.41944681E-02 0.12500086E+03</pdfrwt>
<totfact> 0.95346096E+03</totfact>
</mgrwt>
</event>
<event>
 5    1  0.3311405E-002  0.1249928E+03  0.7818608E-02  0.1235080E+00
         -4   -1    0    0    0  501 -0.00000000000E+00  0.00000000000E+00  0.40751570658E+03  0.40751768552E+03  0.12700000000E+01 0.  1.
          4   -1    0    0  501    0  0.00000000000E+00 -0.00000000000E+00 -0.95403414886E+01  0.96245008036E+01  0.12700000000E+01 0.  1.
         25    2    1    2    0    0  0.00000000000E+00  0.00000000000E+00  0.39797536509E+03  0.41714218632E+03  0.12499284935E+03 0.  0.
    9000005    1    3    3    0    0 -0.21289648926E+02 -0.35258451683E+02  0.35582065525E+03  0.35819791494E+03  0.10000000000E+01 0.  0.
    9000005    1    3    3    0    0  0.21289648926E+02  0.35258451683E+02  0.42154709840E+02  0.58944271378E+02  0.10000000000E+01 0.  0.
<mgrwt>
<rscale>  0 0.12499285E+03</rscale>
<asrwt>0</asrwt>
<pdfrwt beam="2">  1        4 0.14743710E-02 0.12499285E+03</pdfrwt>
<pdfrwt beam="1">  1       -4 0.62701346E-01 0.12499285E+03</pdfrwt>
<totfact> 0.62928949E+03</totfact>
</mgrwt>
</event>
<event>
 5    1  0.3311405E-002  0.1249984E+03  0.7818608E-02  0.1235072E+00
         -4   -1    0    0    0  501 -0.00000000000E+00  0.00000000000E+00  0.30388645568E+02  0.30415171863E+02  0.12700000000E+01 0.  1.
          4   -1    0    0  501    0  0.00000000000E+00 -0.00000000000E+00 -0.12845401644E+03  0.12846029440E+03  0.12700000000E+01 0.  1.
         25    2    1    2    0    0  0.00000000000E+00  0.00000000000E+00 -0.98065370868E+02  0.15887546627E+03  0.12499838726E+03 0.  0.
    9000005    1    3    3    0    0 -0.32192297483E+02 -0.38528900294E+02 -0.17423829985E+01  0.50247945964E+02  0.10000000000E+01 0.  0.
    9000005    1    3    3    0    0  0.32192297483E+02  0.38528900294E+02 -0.96322987869E+02  0.10862752030E+03  0.10000000000E+01 0.  0.
<mgrwt>
<rscale>  0 0.12499839E+03</rscale>
<asrwt>0</asrwt>
<pdfrwt beam="2">  1        4 0.19764679E-01 0.12499839E+03</pdfrwt>
<pdfrwt beam="1">  1       -4 0.46776997E-02 0.12499839E+03</pdfrwt>
<totfact> 0.97563562E+03</totfact>
</mgrwt>
</event>
<event>
 5    1  0.3311405E-002  0.1250417E+03  0.7818608E-02  0.1235004E+00
          4   -1    0    0  501    0  0.00000000000E+00  0.00000000000E+00  0.76795874825E+01  0.77838913084E+01  0.12700000000E+01 0.  1.
         -4   -1    0    0    0  501 -0.00000000000E+00 -0.00000000000E+00 -0.50545473368E+03  0.50545632918E+03  0.12700000000E+01 0.  1.
         25    2    1    2    0    0  0.00000000000E+00  0.00000000000E+00 -0.49777514620E+03  0.51324022048E+03  0.12504170403E+03 0.  0.
    9000005    1    3    3    0    0 -0.27081847290E+02  0.55599352838E+02 -0.28631389968E+03  0.29291869800E+03  0.10000000000E+01 0.  0.
    9000005    1    3    3    0    0  0.27081847290E+02 -0.55599352838E+02 -0.21146124652E+03  0.22032152248E+03  0.10000000000E+01 0.  0.
<mgrwt>
<rscale>  0 0.12504170E+03</rscale>
<asrwt>0</asrwt>
<pdfrwt beam="1">  1        4 0.11896215E-02 0.12504170E+03</pdfrwt>
<pdfrwt beam="2">  1       -4 0.77770387E-01 0.12504170E+03</pdfrwt>
<totfact> 0.54801289E+03</totfact>
</mgrwt>
</event>
<event>
 5    1  0.3311405E-002  0.1249997E+03  0.7818608E-02  0.1235070E+00
          4   -1    0    0  501    0  0.00000000000E+00  0.00000000000E+00  0.12564261013E+03  0.12564902857E+03  0.12700000000E+01 0.  1.
         -4   -1    0    0    0  501 -0.00000000000E+00 -0.00000000000E+00 -0.31069815157E+02  0.31095760385E+02  0.12700000000E+01 0.  1.
         25    2    1    2    0    0  0.00000000000E+00  0.00000000000E+00  0.94572794977E+02  0.15674478896E+03  0.12499966126E+03 0.  0.
    9000005    1    3    3    0    0 -0.29216117966E+02 -0.20258039802E+02 -0.17158684239E+02  0.39489114582E+02  0.10000000000E+01 0.  0.
    9000005    1    3    3    0    0  0.29216117966E+02  0.20258039802E+02  0.11173147922E+03  0.11725567438E+03  0.10000000000E+01 0.  0.
<mgrwt>
<rscale>  0 0.12499966E+03</rscale>
<asrwt>0</asrwt>
<pdfrwt beam="1">  1        4 0.19332122E-01 0.12499966E+03</pdfrwt>
<pdfrwt beam="2">  1       -4 0.47824611E-02 0.12499966E+03</pdfrwt>
<totfact> 0.97974806E+03</totfact>
</mgrwt>
</event>
<event>
 5    1  0.3311405E-002  0.1250009E+03  0.7818608E-02  0.1235068E+00
         -4   -1    0    0    0  501 -0.00000000000E+00  0.00000000000E+00  0.76098737515E+02  0.76109334193E+02  0.12700000000E+01 0.  1.
          4   -1    0    0  501    0  0.00000000000E+00 -0.00000000000E+00 -0.51310022130E+02  0.51325736926E+02  0.12700000000E+01 0.  1.
         25    2    1    2    0    0  0.00000000000E+00  0.00000000000E+00  0.24788715385E+02  0.12743507112E+03  0.12500086776E+03 0.  0.
    9000005    1    3    3    0    0  0.16841785144E+02 -0.26940830897E+02  0.67255390506E+02  0.74389123186E+02  0.10000000000E+01 0.  0.
    9000005    1    3    3    0    0 -0.16841785144E+02  0.26940830897E+02 -0.42466675121E+02  0.53045947933E+02  0.10000000000E+01 0.  0.
<mgrwt>
<rscale>  0 0.12500087E+03</rscale>
<asrwt>0</asrwt>
<pdfrwt beam="2">  1        4 0.78958736E-02 0.12500087E+03</pdfrwt>
<pdfrwt beam="1">  1       -4 0.11709522E-01 0.12500087E+03</pdfrwt>
<totfact> 0.10399503E+04</totfact>
</mgrwt>
</event>
<event>
 5    1  0.3311405E-002  0.1249993E+03  0.7818608E-02  0.1235070E+00
          4   -1    0    0  501    0  0.00000000000E+00  0.00000000000E+00  0.21113430603E+03  0.21113812560E+03  0.12700000000E+01 0. -1.
         -4   -1    0    0    0  501 -0.00000000000E+00 -0.00000000000E+00 -0.18475262508E+02  0.18518861324E+02  0.12700000000E+01 0. -1.
         25    2    1    2    0    0  0.00000000000E+00  0.00000000000E+00  0.19265904352E+03  0.22965698693E+03  0.12499929837E+03 0.  0.
    9000005    1    3    3    0    0  0.99334370914E+01 -0.87253246409E+00 -0.17013151461E+02  0.19745424989E+02  0.10000000000E+01 0.  0.
    9000005    1    3    3    0    0 -0.99334370914E+01  0.87253246409E+00  0.20967219499E+03  0.20991156194E+03  0.10000000000E+01 0.  0.
<mgrwt>
<rscale>  0 0.12499930E+03</rscale>
<asrwt>0</asrwt>
<pdfrwt beam="1">  1        4 0.32485851E-01 0.12499930E+03</pdfrwt>
<pdfrwt beam="2">  1       -4 0.28459955E-02 0.12499930E+03</pdfrwt>
<totfact> 0.85363628E+03</totfact>
</mgrwt>
</event>
<event>
 5    1  0.3311405E-002  0.1249912E+03  0.7818608E-02  0.1235083E+00
          4   -1    0    0  501    0  0.00000000000E+00  0.00000000000E+00  0.35389103768E+03  0.35389331648E+03  0.12700000000E+01 0.  1.
         -4   -1    0    0    0  501 -0.00000000000E+00 -0.00000000000E+00 -0.10997596037E+02  0.11070682842E+02  0.12700000000E+01 0.  1.
         25    2    1    2    0    0  0.00000000000E+00  0.00000000000E+00  0.34289344164E+03  0.36496399932E+03  0.12499123361E+03 0.  0.
    9000005    1    3    3    0    0  0.49964227080E+02  0.11564084169E+02  0.67203234729E+02  0.84542455538E+02  0.10000000000E+01 0.  0.
    9000005    1    3    3    0    0 -0.49964227080E+02 -0.11564084169E+02  0.27569020692E+03  0.28042154379E+03  0.10000000000E+01 0.  0.
<mgrwt>
<rscale>  0 0.12499123E+03</rscale>
<asrwt>0</asrwt>
<pdfrwt beam="1">  1        4 0.54450570E-01 0.12499123E+03</pdfrwt>
<pdfrwt beam="2">  1       -4 0.16977353E-02 0.12499123E+03</pdfrwt>
<totfact> 0.68122313E+03</totfact>
</mgrwt>
</event>
<event>
 5    1  0.3311405E-002  0.1249998E+03  0.7818608E-02  0.1235070E+00
         -4   -1    0    0    0  501 -0.00000000000E+00  0.00000000000E+00  0.82433368915E+03  0.82433466745E+03  0.12700000000E+01 0.  1.
          4   -1    0    0  501    0  0.00000000000E+00 -0.00000000000E+00 -0.46525684398E+01  0.48227889324E+01  0.12700000000E+01 0.  1.
         25    2    1    2    0    0  0.00000000000E+00  0.00000000000E+00  0.81968112071E+03  0.82915745639E+03  0.12499979133E+03 0.  0.
    9000005    1    3    3    0    0  0.18606692007E+02 -0.59012921780E+02  0.35182198617E+03  0.35722324095E+03  0.10000000000E+01 0.  0.
    9000005    1    3    3    0    0 -0.18606692007E+02  0.59012921780E+02  0.46785913454E+03  0.47193421543E+03  0.10000000000E+01 0.  0.
<mgrwt>
<rscale>  0 0.12499979E+03</rscale>
<asrwt>0</asrwt>
<pdfrwt beam="2">  1        4 0.72894931E-03 0.12499979E+03</pdfrwt>
<pdfrwt beam="1">  1       -4 0.12683366E+00 0.12499979E+03</pdfrwt>
<totfact> 0.36995906E+03</totfact>
</mgrwt>
</event>
<event>
 5    1  0.3311405E-002  0.1250027E+03  0.7818608E-02  0.1235065E+00
          4   -1    0    0  501    0  0.00000000000E+00  0.00000000000E+00  0.22409718065E+03  0.22410077928E+03  0.12700000000E+01 0.  1.
         -4   -1    0    0    0  501 -0.00000000000E+00 -0.00000000000E+00 -0.17404939338E+02  0.17451212376E+02  0.12700000000E+01 0.  1.
         25    2    1    2    0    0  0.00000000000E+00  0.00000000000E+00  0.20669224131E+03  0.24155199166E+03  0.12500272819E+03 0.  0.
    9000005    1    3    3    0    0 -0.43648012373E+02  0.96180667605E+01  0.18943974025E+02  0.48554406022E+02  0.10000000000E+01 0.  0.
    9000005    1    3    3    0    0  0.43648012373E+02 -0.96180667605E+01  0.18774826729E+03  0.19299758564E+03  0.10000000000E+01 0.  0.
<mgrwt>
<rscale>  0 0.12500273E+03</rscale>
<asrwt>0</asrwt>
<pdfrwt beam="1">  1        4 0.34480324E-01 0.12500273E+03</pdfrwt>
<pdfrwt beam="2">  1       -4 0.26815194E-02 0.12500273E+03</pdfrwt>
<totfact> 0.83561686E+03</totfact>
</mgrwt>
</event>
<event>
 5    1  0.3311405E-002  0.1250473E+03  0.7818608E-02  0.1234995E+00
          4   -1    0    0  501    0  0.00000000000E+00  0.00000000000E+00  0.40459192332E+03  0.40459391656E+03  0.12700000000E+01 0.  1.
         -4   -1    0    0    0  501 -0.00000000000E+00 -0.00000000000E+00 -0.96183379772E+01  0.97018207282E+01  0.12700000000E+01 0.  1.
         25    2    1    2    0    0  0.00000000000E+00  0.00000000000E+00  0.39497358534E+03  0.41429573729E+03  0.12504729031E+03 0.  0.
    9000005    1    3    3    0    0 -0.14200085426E+02  0.47693617453E+02  0.72117871068E+02  0.87625971602E+02  0.10000000000E+01 0.  0.
    9000005    1    3    3    0    0  0.14200085426E+02 -0.47693617453E+02  0.32285571427E+03  0.32666976568E+03  0.10000000000E+01 0.  0.
<mgrwt>
<rscale>  0 0.12504729E+03</rscale>
<asrwt>0</asrwt>
<pdfrwt beam="1">  1        4 0.62251491E-01 0.12504729E+03</pdfrwt>
<pdfrwt beam="2">  1       -4 0.14863193E-02 0.12504729E+03</pdfrwt>
<totfact> 0.63119867E+03</totfact>
</mgrwt>
</event>
<event>
 5    1  0.3311405E-002  0.1249881E+03  0.7818608E-02  0.1235088E+00
         -4   -1    0    0    0  501 -0.00000000000E+00  0.00000000000E+00  0.78893408534E+03  0.78893510754E+03  0.12700000000E+01 0.  1.
          4   -1    0    0  501    0  0.00000000000E+00 -0.00000000000E+00 -0.48678595410E+01  0.50308007823E+01  0.12700000000E+01 0.  1.
         25    2    1    2    0    0  0.00000000000E+00  0.00000000000E+00  0.78406622580E+03  0.79396590832E+03  0.12498806800E+03 0.  0.
    9000005    1    3    3    0    0  0.52349428169E+02  0.22797962735E+01  0.60827798753E+03  0.61053154727E+03  0.10000000000E+01 0.  0.
    9000005    1    3    3    0    0 -0.52349428169E+02 -0.22797962735E+01  0.17578823826E+03  0.18343436105E+03  0.10000000000E+01 0.  0.
<mgrwt>
<rscale>  0 0.12498807E+03</rscale>
<asrwt>0</asrwt>
<pdfrwt beam="2">  1        4 0.76151448E-03 0.12498807E+03</pdfrwt>
<pdfrwt beam="1">  1       -4 0.12138702E+00 0.12498807E+03</pdfrwt>
<totfact> 0.38545595E+03</totfact>
</mgrwt>
</event>
<event>
 5    1  0.3311405E-002  0.1249924E+03  0.7818608E-02  0.1235081E+00
          4   -1    0    0  501    0  0.00000000000E+00  0.00000000000E+00  0.53054106449E+02  0.53069304792E+02  0.12700000000E+01 0.  1.
         -4   -1    0    0    0  501 -0.00000000000E+00 -0.00000000000E+00 -0.73587511404E+02  0.73598469649E+02  0.12700000000E+01 0.  1.
         25    2    1    2    0    0  0.00000000000E+00  0.00000000000E+00 -0.20533404955E+02  0.12666777444E+03  0.12499241722E+03 0.  0.
    9000005    1    3    3    0    0  0.48901940314E+02  0.23030860892E+01  0.29087718635E+02  0.56954361970E+02  0.10000000000E+01 0.  0.
    9000005    1    3    3    0    0 -0.48901940314E+02 -0.23030860892E+01 -0.49621123590E+02  0.69713412471E+02  0.10000000000E+01 0.  0.
<mgrwt>
<rscale>  0 0.12499242E+03</rscale>
<asrwt>0</asrwt>
<pdfrwt beam="1">  1        4 0.81641823E-02 0.12499242E+03</pdfrwt>
<pdfrwt beam="2">  1       -4 0.11323168E-01 0.12499242E+03</pdfrwt>
<totfact> 0.10418155E+04</totfact>
</mgrwt>
</event>
<event>
 5    1  0.3311405E-002  0.1249999E+03  0.7818608E-02  0.1235069E+00
         -4   -1    0    0    0  501 -0.00000000000E+00  0.00000000000E+00  0.10580063603E+03  0.10580825811E+03  0.12700000000E+01 0. -1.
          4   -1    0    0  501    0  0.00000000000E+00 -0.00000000000E+00 -0.36900921659E+02  0.36922769659E+02  0.12700000000E+01 0. -1.
         25    2    1    2    0    0  0.00000000000E+00  0.00000000000E+00  0.68899714369E+02  0.14273102777E+03  0.12499990259E+03 0.  0.
    9000005    1    3    3    0    0 -0.12104315013E+02  0.50011749568E+02  0.74942125382E+02  0.90912109719E+02  0.10000000000E+01 0.  0.
    9000005    1    3    3    0    0  0.12104315013E+02 -0.50011749568E+02 -0.60424110134E+01  0.51818918048E+02  0.10000000000E+01 0.  0.
<mgrwt>
<rscale>  0 0.12499990E+03</rscale>
<asrwt>0</asrwt>
<pdfrwt beam="2">  1        4 0.56793319E-02 0.12499990E+03</pdfrwt>
<pdfrwt beam="1">  1       -4 0.16279288E-01 0.12499990E+03</pdfrwt>
<totfact> 0.10077316E+04</totfact>
</mgrwt>
</event>
<event>
 5    1  0.3311405E-002  0.1250011E+03  0.7818608E-02  0.1235068E+00
          4   -1    0    0  501    0  0.00000000000E+00  0.00000000000E+00  0.45085604423E+03  0.45085783293E+03  0.12700000000E+01 0. -1.
         -4   -1    0    0    0  501 -0.00000000000E+00 -0.00000000000E+00 -0.86158761343E+01  0.87089736227E+01  0.12700000000E+01 0. -1.
         25    2    1    2    0    0  0.00000000000E+00  0.00000000000E+00  0.44224016810E+03  0.45956680656E+03  0.12500113364E+03 0.  0.
    9000005    1    3    3    0    0 -0.55615558258E+02 -0.27972037243E+02  0.24118841450E+03  0.24909511532E+03  0.10000000000E+01 0.  0.
    9000005    1    3    3    0    0  0.55615558258E+02  0.27972037243E+02  0.20105175360E+03  0.21047169124E+03  0.10000000000E+01 0.  0.
<mgrwt>
<rscale>  0 0.12500113E+03</rscale>
<asrwt>0</asrwt>
<pdfrwt beam="1">  1        4 0.69369744E-01 0.12500113E+03</pdfrwt>
<pdfrwt beam="2">  1       -4 0.13328188E-02 0.12500113E+03</pdfrwt>
<totfact> 0.59142426E+03</totfact>
</mgrwt>
</event>
<event>
 4    1  0.3311405E-002  0.1249372E+03  0.7818608E-02  0.1235167E+00
          4   -1    0    0  501    0  0.00000000000E+00  0.00000000000E+00  0.33811122110E+02  0.33834965322E+02  0.12700000000E+01 0.  1.
         -4   -1    0    0    0  501 -0.00000000000E+00 -0.00000000000E+00 -0.11534743923E+03  0.11535443050E+03  0.12700000000E+01 0.  1.
    9000005    1    1    2    0    0  0.49924953497E+02 -0.25383170598E+02 -0.73785383150E+02  0.92639565510E+02  0.10000000000E+01 0.  0.
    9000005    1    1    2    0    0 -0.49924953497E+02  0.25383170598E+02 -0.77509339680E+01  0.56549830315E+02  0.10000000000E+01 0.  0.
<mgrwt>
<rscale>  0 0.12493720E+03</rscale>
<asrwt>0</asrwt>
<pdfrwt beam="1">  1        4 0.52040830E-02 0.12493720E+03</pdfrwt>
<pdfrwt beam="2">  1       -4 0.17748132E-01 0.12493720E+03</pdfrwt>
<totfact> 0.99606241E+03</totfact>
</mgrwt>
</event>
<event>
 5    1  0.3311405E-002  0.1250017E+03  0.7818608E-02  0.1235067E+00
          4   -1    0    0  501    0  0.00000000000E+00  0.00000000000E+00  0.48393520294E+02  0.48410181847E+02  0.12700000000E+01 0. -1.
         -4   -1    0    0    0  501 -0.00000000000E+00 -0.00000000000E+00 -0.80685131698E+02  0.80695126105E+02  0.12700000000E+01 0. -1.
         25    2    1    2    0    0  0.00000000000E+00  0.00000000000E+00 -0.32291611404E+02  0.12910530795E+03  0.12500172949E+03 0.  0.
    9000005    1    3    3    0    0 -0.22295421720E+02  0.81248810842E+01  0.43564335607E+02  0.49618049732E+02  0.10000000000E+01 0.  0.
    9000005    1    3    3    0    0  0.22295421720E+02 -0.81248810842E+01 -0.75855947012E+02  0.79487258220E+02  0.10000000000E+01 0.  0.
<mgrwt>
<rscale>  0 0.12500173E+03</rscale>
<asrwt>0</asrwt>
<pdfrwt beam="1">  1        4 0.74472075E-02 0.12500173E+03</pdfrwt>
<pdfrwt beam="2">  1       -4 0.12415148E-01 0.12500173E+03</pdfrwt>
<totfact> 0.10363280E+04</totfact>
</mgrwt>
</event>
<event>
 5    1  0.3311405E-002  0.1250024E+03  0.7818608E-02  0.1235066E+00
          4   -1    0    0  501    0  0.00000000000E+00  0.00000000000E+00  0.93303072401E+01  0.94163439399E+01  0.12700000000E+01 0. -1.
         -4   -1    0    0    0  501 -0.00000000000E+00 -0.00000000000E+00 -0.41667009834E+03  0.41667203380E+03  0.12700000000E+01 0. -1.
         25    2    1    2    0    0  0.00000000000E+00  0.00000000000E+00 -0.40733979110E+03  0.42608837774E+03  0.12500240090E+03 0.  0.
    9000005    1    3    3    0    0  0.26126788917E+02 -0.32760268677E+02 -0.36170577257E+03  0.36412622840E+03  0.10000000000E+01 0.  0.
    9000005    1    3    3    0    0 -0.26126788917E+02  0.32760268677E+02 -0.45634018532E+02  0.61962149336E+02  0.10000000000E+01 0.  0.
<mgrwt>
<rscale>  0 0.12500240E+03</rscale>
<asrwt>0</asrwt>
<pdfrwt beam="1">  1        4 0.14421993E-02 0.12500240E+03</pdfrwt>
<pdfrwt beam="2">  1       -4 0.64109845E-01 0.12500240E+03</pdfrwt>
<totfact> 0.62088882E+03</totfact>
</mgrwt>
</event>
<event>
 5    1  0.3311405E-002  0.1250044E+03  0.7818608E-02  0.1235062E+00
          4   -1    0    0  501    0  0.00000000000E+00  0.00000000000E+00  0.62119244244E+01  0.63404183659E+01  0.12700000000E+01 0.  1.
         -4   -1    0    0    0  501 -0.00000000000E+00 -0.00000000000E+00 -0.62230831458E+03  0.62230961048E+03  0.12700000000E+01 0.  1.
         25    2    1    2    0    0  0.00000000000E+00  0.00000000000E+00 -0.61609639016E+03  0.62865002885E+03  0.12500438714E+03 0.  0.
    9000005    1    3    3    0    0 -0.48830893549E+02 -0.30839357313E+02 -0.42811470967E+03  0.43199389667E+03  0.10000000000E+01 0.  0.
    9000005    1    3    3    0    0  0.48830893549E+02  0.30839357313E+02 -0.18798168049E+03  0.19665613218E+03  0.10000000000E+01 0.  0.
<mgrwt>
<rscale>  0 0.12500439E+03</rscale>
<asrwt>0</asrwt>
<pdfrwt beam="1">  1        4 0.96566501E-03 0.12500439E+03</pdfrwt>
<pdfrwt beam="2">  1       -4 0.95749676E-01 0.12500439E+03</pdfrwt>
<totfact> 0.47103168E+03</totfact>
</mgrwt>
</event>
<event>
 5    1  0.3311405E-002  0.1250046E+03  0.7818608E-02  0.1235062E+00
          4   -1    0    0  501    0  0.00000000000E+00  0.00000000000E+00  0.21608820236E+02  0.21646108472E+02  0.12700000000E+01 0. -1.
         -4   -1    0    0    0  501 -0.00000000000E+00 -0.00000000000E+00 -0.18058892272E+03  0.18059338833E+03  0.12700000000E+01 0. -1.
         25    2    1    2    0    0  0.00000000000E+00  0.00000000000E+00 -0.15898010248E+03  0.20223949680E+03  0.12500456424E+03 0.  0.
    9000005    1    3    3    0    0 -0.44702557424E+02  0.40496972372E+02 -0.10593653694E+03  0.12190928295E+03  0.10000000000E+01 0.  0.
    9000005    1    3    3    0    0  0.44702557424E+02 -0.40496972372E+02 -0.53043565542E+02  0.80330213848E+02  0.10000000000E+01 0.  0.
<mgrwt>
<rscale>  0 0.12500456E+03</rscale>
<asrwt>0</asrwt>
<pdfrwt beam="1">  1        4 0.33276458E-02 0.12500456E+03</pdfrwt>
<pdfrwt beam="2">  1       -4 0.27786122E-01 0.12500456E+03</pdfrwt>
<totfact> 0.89750002E+03</totfact>
</mgrwt>
</event>
<event>
 5    1  0.3311405E-002  0.1250069E+03  0.7818608E-02  0.1235059E+00
         -4   -1    0    0    0  501 -0.00000000000E+00  0.00000000000E+00  0.82257347498E+02  0.82267150902E+02  0.12700000000E+01 0.  1.
          4   -1    0    0  501    0  0.00000000000E+00 -0.00000000000E+00 -0.47472241974E+02  0.47489226758E+02  0.12700000000E+01 0.  1.
         25    2    1    2    0    0  0.00000000000E+00  0.00000000000E+00  0.34785105524E+02  0.12975637766E+03  0.12500685572E+03 0.  0.
    9000005    1    3    3    0    0  0.16384042808E+02  0.49512043461E+01 -0.44997085359E+02  0.48152767044E+02  0.10000000000E+01 0.  0.
    9000005    1    3    3    0    0 -0.16384042808E+02 -0.49512043461E+01  0.79782190884E+02  0.81603610615E+02  0.10000000000E+01 0.  0.
<mgrwt>
<rscale>  0 0.12500686E+03</rscale>
<asrwt>0</asrwt>
<pdfrwt beam="2">  1        4 0.73054825E-02 0.12500686E+03</pdfrwt>
<pdfrwt beam="1">  1       -4 0.12657037E-01 0.12500686E+03</pdfrwt>
<totfact> 0.10348120E+04</totfact>
</mgrwt>
</event>
<event>
 5    1  0.3311405E-002  0.1249998E+03  0.7818608E-02  0.1235070E+00
         -4   -1    0    0    0  501 -0.00000000000E+00  0.00000000000E+00  0.39826860185E+02  0.39847103937E+02  0.12700000000E+01 0. -1.
          4   -1    0    0  501    0  0.00000000000E+00 -0.00000000000E+00 -0.98031199766E+02  0.98039425884E+02  0.12700000000E+01 0. -1.
         25    2    1    2    0    0  0.00000000000E+00  0.00000000000E+00 -0.58204339581E+02  0.13788652982E+03  0.12499979984E+03 0.  0.
    9000005    1    3    3    0    0 -0.36749560141E+02  0.49882350163E+02 -0.20109520290E+02  0.65147308729E+02  0.10000000000E+01 0.  0.
    9000005    1    3    3    0    0  0.36749560141E+02 -0.49882350163E+02 -0.38094819291E+02  0.72739221092E+02  0.10000000000E+01 0.  0.
<mgrwt>
<rscale>  0 0.12499980E+03</rscale>
<asrwt>0</asrwt>
<pdfrwt beam="2">  1        4 0.15083913E-01 0.12499980E+03</pdfrwt>
<pdfrwt beam="1">  1       -4 0.61293993E-02 0.12499980E+03</pdfrwt>
<totfact> 0.10177624E+04</totfact>
</mgrwt>
</event>
<event>
 5    1  0.3311405E-002  0.1249983E+03  0.7818608E-02  0.1235072E+00
          4   -1    0    0  501    0  0.00000000000E+00  0.00000000000E+00  0.50606423637E+02  0.50622356852E+02  0.12700000000E+01 0.  1.
         -4   -1    0    0    0  501 -0.00000000000E+00 -0.00000000000E+00 -0.77153411858E+02  0.77163863702E+02  0.12700000000E+01 0.  1.
         25    2    1    2    0    0  0.00000000000E+00  0.00000000000E+00 -0.26546988222E+02  0.12778622055E+03  0.12499830231E+03 0.  0.
    9000005    1    3    3    0    0  0.39416279503E+02  0.20020639581E+02 -0.58425011205E+02  0.73273126270E+02  0.10000000000E+01 0.  0.
    9000005    1    3    3    0    0 -0.39416279503E+02 -0.20020639581E+02  0.31878022983E+02  0.54513094284E+02  0.10000000000E+01 0.  0.
<mgrwt>
<rscale>  0 0.12499830E+03</rscale>
<asrwt>0</asrwt>
<pdfrwt beam="1">  1        4 0.77876333E-02 0.12499830E+03</pdfrwt>
<pdfrwt beam="2">  1       -4 0.11871785E-01 0.12499830E+03</pdfrwt>
<totfact> 0.10392505E+04</totfact>
</mgrwt>
</event>
<event>
 5    1  0.3311405E-002  0.1249942E+03  0.7818608E-02  0.1235078E+00
          4   -1    0    0  501    0  0.00000000000E+00  0.00000000000E+00  0.11008160785E+02  0.11081177910E+02  0.12700000000E+01 0.  1.
         -4   -1    0    0    0  501 -0.00000000000E+00 -0.00000000000E+00 -0.35357062459E+03  0.35357290546E+03  0.12700000000E+01 0.  1.
         25    2    1    2    0    0  0.00000000000E+00  0.00000000000E+00 -0.34256246381E+03  0.36465408337E+03  0.12499423550E+03 0.  0.
    9000005    1    3    3    0    0 -0.49773935426E+02 -0.51637728846E+01 -0.62092921764E+02  0.79753621431E+02  0.10000000000E+01 0.  0.
    9000005    1    3    3    0    0  0.49773935426E+02  0.51637728846E+01 -0.28046954204E+03  0.28490046194E+03  0.10000000000E+01 0.  0.
<mgrwt>
<rscale>  0 0.12499424E+03</rscale>
<asrwt>0</asrwt>
<pdfrwt beam="1">  1        4 0.16993556E-02 0.12499424E+03</pdfrwt>
<pdfrwt beam="2">  1       -4 0.54401264E-01 0.12499424E+03</pdfrwt>
<totfact> 0.68150644E+03</totfact>
</mgrwt>
</event>
<event>
 5    1  0.3311405E-002  0.1249967E+03  0.7818608E-02  0.1235074E+00
          4   -1    0    0  501    0  0.00000000000E+00  0.00000000000E+00  0.33204396461E+02  0.33228675031E+02  0.12700000000E+01 0. -1.
         -4   -1    0    0    0  501 -0.00000000000E+00 -0.00000000000E+00 -0.11756563062E+03  0.11757249000E+03  0.12700000000E+01 0. -1.
         25    2    1    2    0    0  0.00000000000E+00  0.00000000000E+00 -0.84361234162E+02  0.15080116503E+03  0.12499669413E+03 0.  0.
    9000005    1    3    3    0    0  0.61533153311E+02 -0.93081103607E+01 -0.49013113652E+02  0.79222819848E+02  0.10000000000E+01 0.  0.
    9000005    1    3    3    0    0 -0.61533153311E+02  0.93081103607E+01 -0.35348120510E+02  0.71578345178E+02  0.10000000000E+01 0.  0.
<mgrwt>
<rscale>  0 0.12499669E+03</rscale>
<asrwt>0</asrwt>
<pdfrwt beam="1">  1        4 0.51107640E-02 0.12499669E+03</pdfrwt>
<pdfrwt beam="2">  1       -4 0.18089415E-01 0.12499669E+03</pdfrwt>
<totfact> 0.99151613E+03</totfact>
</mgrwt>
</event>
<event>
 5    1  0.3311405E-002  0.1250017E+03  0.7818608E-02  0.1235067E+00
         -4   -1    0    0    0  501 -0.00000000000E+00  0.00000000000E+00  0.50339338821E+02  0.50355356547E+02  0.12700000000E+01 0. -1.
          4   -1    0    0  501    0  0.00000000000E+00 -0.00000000000E+00 -0.77566885585E+02  0.77577281722E+02  0.12700000000E+01 0. -1.
         25    2    1    2    0    0  0.00000000000E+00  0.00000000000E+00 -0.27227546764E+02  0.12793263827E+03  0.12500168252E+03 0.  0.
    9000005    1    3    3    0    0 -0.26545242291E+02 -0.40514530761E+02  0.26799802786E+02  0.55365210380E+02  0.10000000000E+01 0.  0.
    9000005    1    3    3    0    0  0.26545242291E+02  0.40514530761E+02 -0.54027349549E+02  0.72567427889E+02  0.10000000000E+01 0.  0.
<mgrwt>
<rscale>  0 0.12500168E+03</rscale>
<asrwt>0</asrwt>
<pdfrwt beam="2">  1        4 0.11935399E-01 0.12500168E+03</pdfrwt>
<pdfrwt beam="1">  1       -4 0.77465455E-02 0.12500168E+03</pdfrwt>
<totfact> 0.10388548E+04</totfact>
</mgrwt>
</event>
<event>
 5    1  0.3311405E-002  0.1249966E+03  0.7818608E-02  0.1235075E+00
         -4   -1    0    0    0  501 -0.00000000000E+00  0.00000000000E+00  0.11339356622E+03  0.11340067795E+03  0.12700000000E+01 0.  1.
          4   -1    0    0  501    0  0.00000000000E+00 -0.00000000000E+00 -0.34426809350E+02  0.34450226443E+02  0.12700000000E+01 0.  1.
         25    2    1    2    0    0  0.00000000000E+00  0.00000000000E+00  0.78966756866E+02  0.14785090439E+03  0.12499656491E+03 0.  0.
    9000005    1    3    3    0    0  0.31887405511E+02  0.96875361961E+01  0.10201053283E+03  0.10732103147E+03  0.10000000000E+01 0.  0.
    9000005    1    3    3    0    0 -0.31887405511E+02 -0.96875361961E+01 -0.23043775968E+02  0.40529872917E+02  0.10000000000E+01 0.  0.
<mgrwt>
<rscale>  0 0.12499656E+03</rscale>
<asrwt>0</asrwt>
<pdfrwt beam="2">  1        4 0.52987806E-02 0.12499656E+03</pdfrwt>
<pdfrwt beam="1">  1       -4 0.17447512E-01 0.12499656E+03</pdfrwt>
<totfact> 0.99741538E+03</totfact>
</mgrwt>
</event>
<event>
 5    1  0.3311405E-002  0.1249971E+03  0.7818608E-02  0.1235074E+00
          4   -1    0    0  501    0  0.00000000000E+00  0.00000000000E+00  0.93591904054E+02  0.93600520321E+02  0.12700000000E+01 0. -1.
         -4   -1    0    0    0  501 -0.00000000000E+00 -0.00000000000E+00 -0.41714934836E+02  0.41734262763E+02  0.12700000000E+01 0. -1.
         25    2    1    2    0    0  0.00000000000E+00  0.00000000000E+00  0.51876969217E+02  0.13533478308E+03  0.12499713428E+03 0.  0.
    9000005    1    3    3    0    0 -0.58835768440E+02 -0.20748151287E+02  0.22044143753E+02  0.66174600139E+02  0.10000000000E+01 0.  0.
    9000005    1    3    3    0    0  0.58835768440E+02  0.20748151287E+02  0.29832825464E+02  0.69160182945E+02  0.10000000000E+01 0.  0.
<mgrwt>
<rscale>  0 0.12499713E+03</rscale>
<asrwt>0</asrwt>
<pdfrwt beam="1">  1        4 0.14400904E-01 0.12499713E+03</pdfrwt>
<pdfrwt beam="2">  1       -4 0.64198319E-02 0.12499713E+03</pdfrwt>
<totfact> 0.10231681E+04</totfact>
</mgrwt>
</event>
<event>
 5    1  0.3311405E-002  0.1249984E+03  0.7818608E-02  0.1235072E+00
         -4   -1    0    0    0  501 -0.00000000000E+00  0.00000000000E+00  0.17575339669E+03  0.17575798517E+03  0.12700000000E+01 0.  1.
          4   -1    0    0  501    0  0.00000000000E+00 -0.00000000000E+00 -0.22202161469E+02  0.22238454845E+02  0.12700000000E+01 0.  1.
         25    2    1    2    0    0  0.00000000000E+00  0.00000000000E+00  0.15355123523E+03  0.19799644001E+03  0.12499843366E+03 0.  0.
    9000005    1    3    3    0    0 -0.14197819309E+02 -0.60147143218E+02  0.91455995783E+02  0.11038322370E+03  0.10000000000E+01 0.  0.
    9000005    1    3    3    0    0  0.14197819309E+02  0.60147143218E+02  0.62095239442E+02  0.87613216308E+02  0.10000000000E+01 0.  0.
<mgrwt>
<rscale>  0 0.12499843E+03</rscale>
<asrwt>0</asrwt>
<pdfrwt beam="2">  1        4 0.34188619E-02 0.12499843E+03</pdfrwt>
<pdfrwt beam="1">  1       -4 0.27042129E-01 0.12499843E+03</pdfrwt>
<totfact> 0.90477446E+03</totfact>
</mgrwt>
</event>
<event>
 5    1  0.3311405E-002  0.1250056E+03  0.7818608E-02  0.1235060E+00
         -4   -1    0    0    0  501 -0.00000000000E+00  0.00000000000E+00  0.22305128029E+03  0.22305489579E+03  0.12700000000E+01 0. -1.
          4   -1    0    0  501    0  0.00000000000E+00 -0.00000000000E+00 -0.17487585484E+02  0.17533640411E+02  0.12700000000E+01 0. -1.
         25    2    1    2    0    0  0.00000000000E+00  0.00000000000E+00  0.20556369480E+03  0.24058853620E+03  0.12500564440E+03 0.  0.
    9000005    1    3    3    0    0 -0.83511330648E+00 -0.50943735192E+02  0.33131790852E+02  0.60783855872E+02  0.10000000000E+01 0.  0.
    9000005    1    3    3    0    0  0.83511330648E+00  0.50943735192E+02  0.17243190395E+03  0.17980468033E+03  0.10000000000E+01 0.  0.
<mgrwt>
<rscale>  0 0.12500564E+03</rscale>
<asrwt>0</asrwt>
<pdfrwt beam="2">  1        4 0.26942186E-02 0.12500564E+03</pdfrwt>
<pdfrwt beam="1">  1       -4 0.34319402E-01 0.12500564E+03</pdfrwt>
<totfact> 0.83699261E+03</totfact>
</mgrwt>
</event>
<event>
 5    1  0.3311405E-002  0.1249925E+03  0.7818608E-02  0.1235081E+00
          4   -1    0    0  501    0  0.00000000000E+00  0.00000000000E+00  0.11887239974E+03  0.11887918371E+03  0.12700000000E+01 0.  1.
         -4   -1    0    0    0  501 -0.00000000000E+00 -0.00000000000E+00 -0.32836912492E+02  0.32861462567E+02  0.12700000000E+01 0.  1.
         25    2    1    2    0    0  0.00000000000E+00  0.00000000000E+00  0.86035487244E+02  0.15174064628E+03  0.12499247444E+03 0.  0.
    9000005    1    3    3    0    0  0.50281862604E+02  0.34032792274E+02  0.25081643056E+02  0.65700726596E+02  0.10000000000E+01 0.  0.
    9000005    1    3    3    0    0 -0.50281862604E+02 -0.34032792274E+02  0.60953844189E+02  0.86039919679E+02  0.10000000000E+01 0.  0.
<mgrwt>
<rscale>  0 0.12499247E+03</rscale>
<asrwt>0</asrwt>
<pdfrwt beam="1">  1        4 0.18290472E-01 0.12499247E+03</pdfrwt>
<pdfrwt beam="2">  1       -4 0.50542430E-02 0.12499247E+03</pdfrwt>
<totfact> 0.98974610E+03</totfact>
</mgrwt>
</event>
<event>
 5    1  0.3311405E-002  0.1249646E+03  0.7818608E-02  0.1235125E+00
          4   -1    0    0  501    0  0.00000000000E+00  0.00000000000E+00  0.23051130810E+03  0.23051480660E+03  0.12700000000E+01 0. -1.
         -4   -1    0    0    0  501 -0.00000000000E+00 -0.00000000000E+00 -0.16908979722E+02  0.16956606241E+02  0.12700000000E+01 0. -1.
         25    2    1    2    0    0  0.00000000000E+00  0.00000000000E+00  0.21360232837E+03  0.24747141284E+03  0.12496457692E+03 0.  0.
    9000005    1    3    3    0    0 -0.41789829909E+01  0.19150860256E+02 -0.10671402205E+02  0.22340505196E+02  0.10000000000E+01 0.  0.
    9000005    1    3    3    0    0  0.41789829909E+01 -0.19150860256E+02  0.22427373058E+03  0.22513090764E+03  0.10000000000E+01 0.  0.
<mgrwt>
<rscale>  0 0.12496458E+03</rscale>
<asrwt>0</asrwt>
<pdfrwt beam="1">  1        4 0.35467212E-01 0.12496458E+03</pdfrwt>
<pdfrwt beam="2">  1       -4 0.26053141E-02 0.12496458E+03</pdfrwt>
<totfact> 0.82762367E+03</totfact>
</mgrwt>
</event>
<event>
 5    1  0.3311405E-002  0.1250074E+03  0.7818608E-02  0.1235058E+00
         -4   -1    0    0    0  501 -0.00000000000E+00  0.00000000000E+00  0.36313634187E+02  0.36335835312E+02  0.12700000000E+01 0.  1.
          4   -1    0    0  501    0  0.00000000000E+00 -0.00000000000E+00 -0.10752366377E+03  0.10753116371E+03  0.12700000000E+01 0.  1.
         25    2    1    2    0    0  0.00000000000E+00  0.00000000000E+00 -0.71210029580E+02  0.14386699903E+03  0.12500738017E+03 0.  0.
    9000005    1    3    3    0    0 -0.12542873709E+02  0.60470632580E+02 -0.24584878546E+02  0.66478848807E+02  0.10000000000E+01 0.  0.
    9000005    1    3    3    0    0  0.12542873709E+02 -0.60470632580E+02 -0.46625151034E+02  0.77388150220E+02  0.10000000000E+01 0.  0.
<mgrwt>
<rscale>  0 0.12500738E+03</rscale>
<asrwt>0</asrwt>
<pdfrwt beam="2">  1        4 0.16544387E-01 0.12500738E+03</pdfrwt>
<pdfrwt beam="1">  1       -4 0.55889977E-02 0.12500738E+03</pdfrwt>
<totfact> 0.10052389E+04</totfact>
</mgrwt>
</event>
<event>
 5    1  0.3311405E-002  0.1250000E+03  0.7818608E-02  0.1235069E+00
          4   -1    0    0  501    0  0.00000000000E+00  0.00000000000E+00  0.31761341932E+03  0.31761595840E+03  0.12700000000E+01 0.  1.
         -4   -1    0    0    0  501 -0.00000000000E+00 -0.00000000000E+00 -0.12263370872E+02  0.12328956369E+02  0.12700000000E+01 0.  1.
         25    2    1    2    0    0  0.00000000000E+00  0.00000000000E+00  0.30535004845E+03  0.32994491477E+03  0.12499997879E+03 0.  0.
    9000005    1    3    3    0    0  0.51965033302E+02  0.21323919588E+02  0.80379296818E+02  0.98065822739E+02  0.10000000000E+01 0.  0.
    9000005    1    3    3    0    0 -0.51965033302E+02 -0.21323919588E+02  0.22497075163E+03  0.23187909203E+03  0.10000000000E+01 0.  0.
<mgrwt>
<rscale>  0 0.12499998E+03</rscale>
<asrwt>0</asrwt>
<pdfrwt beam="1">  1        4 0.48868842E-01 0.12499998E+03</pdfrwt>
<pdfrwt beam="2">  1       -4 0.18919129E-02 0.12499998E+03</pdfrwt>
<totfact> 0.71988749E+03</totfact>
</mgrwt>
</event>
<event>
 5    1  0.3311405E-002  0.1249992E+03  0.7818608E-02  0.1235071E+00
          4   -1    0    0  501    0  0.00000000000E+00  0.00000000000E+00  0.55087305778E+03  0.55087452172E+03  0.12700000000E+01 0.  1.
         -4   -1    0    0    0  501 -0.00000000000E+00 -0.00000000000E+00 -0.70325728325E+01  0.71463263740E+01  0.12700000000E+01 0.  1.
         25    2    1    2    0    0  0.00000000000E+00  0.00000000000E+00  0.54384048494E+03  0.55802084810E+03  0.12499917539E+03 0.  0.
    9000005    1    3    3    0    0 -0.62058589733E+02 -0.99621930901E+00  0.30440089777E+03  0.31066568458E+03  0.10000000000E+01 0.  0.
    9000005    1    3    3    0    0  0.62058589733E+02  0.99621930901E+00  0.23943958717E+03  0.24735516351E+03  0.10000000000E+01 0.  0.
<mgrwt>
<rscale>  0 0.12499918E+03</rscale>
<asrwt>0</asrwt>
<pdfrwt beam="1">  1        4 0.84758587E-01 0.12499918E+03</pdfrwt>
<pdfrwt beam="2">  1       -4 0.10907969E-02 0.12499918E+03</pdfrwt>
<totfact> 0.51630331E+03</totfact>
</mgrwt>
</event>
<event>
 5    1  0.3311405E-002  0.1250094E+03  0.7818608E-02  0.1235055E+00
         -4   -1    0    0    0  501 -0.00000000000E+00  0.00000000000E+00  0.33375744854E+03  0.33375986480E+03  0.12700000000E+01 0. -1.
          4   -1    0    0  501    0  0.00000000000E+00 -0.00000000000E+00 -0.11668710120E+02  0.11737618833E+02  0.12700000000E+01 0. -1.
         25    2    1    2    0    0  0.00000000000E+00  0.00000000000E+00  0.32208873842E+03  0.34549748364E+03  0.12500942278E+03 0.  0.
    9000005    1    3    3    0    0 -0.41939078340E+02  0.88910520314E+01  0.28672463758E+03  0.28991370249E+03  0.10000000000E+01 0.  0.
    9000005    1    3    3    0    0  0.41939078340E+02 -0.88910520314E+01  0.35364100840E+02  0.55583781146E+02  0.10000000000E+01 0.  0.
<mgrwt>
<rscale>  0 0.12500942E+03</rscale>
<asrwt>0</asrwt>
<pdfrwt beam="2">  1        4 0.18006730E-02 0.12500942E+03</pdfrwt>
<pdfrwt beam="1">  1       -4 0.51352779E-01 0.12500942E+03</pdfrwt>
<totfact> 0.70208103E+03</totfact>
</mgrwt>
</event>
<event>
 5    1  0.3311405E-002  0.1249987E+03  0.7818608E-02  0.1235071E+00
         -4   -1    0    0    0  501 -0.00000000000E+00  0.00000000000E+00  0.20322143936E+02  0.20361788579E+02  0.12700000000E+01 0. -1.
          4   -1    0    0  501    0  0.00000000000E+00 -0.00000000000E+00 -0.19198340279E+03  0.19198760337E+03  0.12700000000E+01 0. -1.
         25    2    1    2    0    0  0.00000000000E+00  0.00000000000E+00 -0.17166125886E+03  0.21234939195E+03  0.12499870587E+03 0.  0.
    9000005    1    3    3    0    0 -0.46459780632E+02 -0.40786748946E+02 -0.10131677843E+03  0.11869355373E+03  0.10000000000E+01 0.  0.
    9000005    1    3    3    0    0  0.46459780632E+02  0.40786748946E+02 -0.70344480426E+02  0.93655838218E+02  0.10000000000E+01 0.  0.
<mgrwt>
<rscale>  0 0.12499871E+03</rscale>
<asrwt>0</asrwt>
<pdfrwt beam="2">  1        4 0.29539280E-01 0.12499871E+03</pdfrwt>
<pdfrwt beam="1">  1       -4 0.31298565E-02 0.12499871E+03</pdfrwt>
<totfact> 0.88096175E+03</totfact>
</mgrwt>
</event>
<event>
 5    1  0.3311405E-002  0.1249968E+03  0.7818608E-02  0.1235074E+00
          4   -1    0    0  501    0  0.00000000000E+00  0.00000000000E+00  0.22133530765E+03  0.22133895118E+03  0.12700000000E+01 0.  1.
         -4   -1    0    0    0  501 -0.00000000000E+00 -0.00000000000E+00 -0.17621003612E+02  0.17666710738E+02  0.12700000000E+01 0.  1.
         25    2    1    2    0    0  0.00000000000E+00  0.00000000000E+00  0.20371430404E+03  0.23900566192E+03  0.12499675501E+03 0.  0.
    9000005    1    3    3    0    0 -0.55034063915E+02  0.16623207789E+02  0.55021833213E+02  0.79583172582E+02  0.10000000000E+01 0.  0.
    9000005    1    3    3    0    0  0.55034063915E+02 -0.16623207789E+02  0.14869247082E+03  0.15942248934E+03  0.10000000000E+01 0.  0.
<mgrwt>
<rscale>  0 0.12499676E+03</rscale>
<asrwt>0</asrwt>
<pdfrwt beam="1">  1        4 0.34055381E-01 0.12499676E+03</pdfrwt>
<pdfrwt beam="2">  1       -4 0.27147199E-02 0.12499676E+03</pdfrwt>
<totfact> 0.83951753E+03</totfact>
</mgrwt>
</event>
<event>
 5    1  0.3311405E-002  0.1249994E+03  0.7818608E-02  0.1235070E+00
          4   -1    0    0  501    0  0.00000000000E+00  0.00000000000E+00  0.19743174284E+03  0.19743582750E+03  0.12700000000E+01 0. -1.
         -4   -1    0    0    0  501 -0.00000000000E+00 -0.00000000000E+00 -0.19760460960E+02  0.19801230198E+02  0.12700000000E+01 0. -1.
         25    2    1    2    0    0  0.00000000000E+00  0.00000000000E+00  0.17767128188E+03  0.21723705770E+03  0.12499941933E+03 0.  0.
    9000005    1    3    3    0    0  0.49054007940E+02 -0.38699979054E+02  0.86908498087E+02  0.10704237999E+03  0.10000000000E+01 0.  0.
    9000005    1    3    3    0    0 -0.49054007940E+02  0.38699979054E+02  0.90762783789E+02  0.11019467771E+03  0.10000000000E+01 0.  0.
<mgrwt>
<rscale>  0 0.12499942E+03</rscale>
<asrwt>0</asrwt>
<pdfrwt beam="1">  1        4 0.30377563E-01 0.12499942E+03</pdfrwt>
<pdfrwt beam="2">  1       -4 0.30435213E-02 0.12499942E+03</pdfrwt>
<totfact> 0.87308579E+03</totfact>
</mgrwt>
</event>
<event>
 5    1  0.3311405E-002  0.1249989E+03  0.7818608E-02  0.1235071E+00
          4   -1    0    0  501    0  0.00000000000E+00  0.00000000000E+00  0.24963224060E+02  0.24995508706E+02  0.12700000000E+01 0. -1.
         -4   -1    0    0    0  501 -0.00000000000E+00 -0.00000000000E+00 -0.15634134864E+03  0.15634650682E+03  0.12700000000E+01 0. -1.
         25    2    1    2    0    0  0.00000000000E+00  0.00000000000E+00 -0.13137812458E+03  0.18134201553E+03  0.12499885990E+03 0.  0.
    9000005    1    3    3    0    0 -0.27468943994E+02 -0.53018511808E+02 -0.92426702184E+02  0.11004181367E+03  0.10000000000E+01 0.  0.
    9000005    1    3    3    0    0  0.27468943994E+02  0.53018511808E+02 -0.38951422396E+02  0.71300201859E+02  0.10000000000E+01 0.  0.
<mgrwt>
<rscale>  0 0.12499886E+03</rscale>
<asrwt>0</asrwt>
<pdfrwt beam="1">  1        4 0.38433763E-02 0.12499886E+03</pdfrwt>
<pdfrwt beam="2">  1       -4 0.24055395E-01 0.12499886E+03</pdfrwt>
<totfact> 0.93378379E+03</totfact>
</mgrwt>
</event>
<event>
 5    1  0.3311405E-002  0.1249956E+03  0.7818608E-02  0.1235076E+00
          4   -1    0    0  501    0  0.00000000000E+00  0.00000000000E+00  0.26528046451E+03  0.26528350448E+03  0.12700000000E+01 0.  1.
         -4   -1    0    0    0  501 -0.00000000000E+00 -0.00000000000E+00 -0.14693439882E+02  0.14748222794E+02  0.12700000000E+01 0.  1.
         25    2    1    2    0    0  0.00000000000E+00  0.00000000000E+00  0.25058702463E+03  0.28003172728E+03  0.12499564540E+03 0.  0.
    9000005    1    3    3    0    0 -0.34190928077E+02  0.42482359926E+02  0.19365878640E+03  0.20119268380E+03  0.10000000000E+01 0.  0.
    9000005    1    3    3    0    0  0.34190928077E+02 -0.42482359926E+02  0.56928238233E+02  0.78839043474E+02  0.10000000000E+01 0.  0.
<mgrwt>
<rscale>  0 0.12499565E+03</rscale>
<asrwt>0</asrwt>
<pdfrwt beam="1">  1        4 0.40816826E-01 0.12499565E+03</pdfrwt>
<pdfrwt beam="2">  1       -4 0.22649772E-02 0.12499565E+03</pdfrwt>
<totfact> 0.78181466E+03</totfact>
</mgrwt>
</event>
<event>
 4    1  0.3311405E-002  0.1249386E+03  0.7818608E-02  0.1235165E+00
         -4   -1    0    0    0  501 -0.00000000000E+00  0.00000000000E+00  0.40727485964E+02  0.40747282277E+02  0.12700000000E+01 0. -1.
          4   -1    0    0  501    0  0.00000000000E+00 -0.00000000000E+00 -0.95770340933E+02  0.95778761229E+02  0.12700000000E+01 0. -1.
    9000005    1    1    2    0    0  0.30775000634E+02  0.52155921662E+02 -0.10803124612E+02  0.61522746442E+02  0.10000000000E+01 0.  0.
    9000005    1    1    2    0    0 -0.30775000634E+02 -0.52155921662E+02 -0.44239730357E+02  0.75003297064E+02  0.10000000000E+01 0.  0.
<mgrwt>
<rscale>  0 0.12493856E+03</rscale>
<asrwt>0</asrwt>
<pdfrwt beam="2">  1        4 0.14736069E-01 0.12493856E+03</pdfrwt>
<pdfrwt beam="1">  1       -4 0.62679376E-02 0.12493856E+03</pdfrwt>
<totfact> 0.10220156E+04</totfact>
</mgrwt>
</event>
<event>
 5    1  0.3311405E-002  0.1250130E+03  0.7818608E-02  0.1235049E+00
          4   -1    0    0  501    0  0.00000000000E+00  0.00000000000E+00  0.83688707849E+01  0.84646853583E+01  0.12700000000E+01 0. -1.
         -4   -1    0    0    0  501 -0.00000000000E+00 -0.00000000000E+00 -0.46410269714E+03  0.46410443479E+03  0.12700000000E+01 0. -1.
         25    2    1    2    0    0  0.00000000000E+00  0.00000000000E+00 -0.45573382635E+03  0.47256912015E+03  0.12501301066E+03 0.  0.
    9000005    1    3    3    0    0 -0.27926305010E+02 -0.55077826273E+02 -0.19148737023E+03  0.20120103980E+03  0.10000000000E+01 0.  0.
    9000005    1    3    3    0    0  0.27926305010E+02  0.55077826273E+02 -0.26424645613E+03  0.27136808035E+03  0.10000000000E+01 0.  0.
<mgrwt>
<rscale>  0 0.12501301E+03</rscale>
<asrwt>0</asrwt>
<pdfrwt beam="1">  1        4 0.12950230E-02 0.12501301E+03</pdfrwt>
<pdfrwt beam="2">  1       -4 0.71407899E-01 0.12501301E+03</pdfrwt>
<totfact> 0.58040689E+03</totfact>
</mgrwt>
</event>
<event>
 5    1  0.3311405E-002  0.1250010E+03  0.7818608E-02  0.1235068E+00
          4   -1    0    0  501    0  0.00000000000E+00  0.00000000000E+00  0.28446044030E+03  0.28446327530E+03  0.12700000000E+01 0. -1.
         -4   -1    0    0    0  501 -0.00000000000E+00 -0.00000000000E+00 -0.13700087364E+02  0.13758826032E+02  0.12700000000E+01 0. -1.
         25    2    1    2    0    0  0.00000000000E+00  0.00000000000E+00  0.27076035293E+03  0.29822210133E+03  0.12500101200E+03 0.  0.
    9000005    1    3    3    0    0  0.10002456786E+02 -0.13149109488E+01 -0.11756184998E+02  0.15523724368E+02  0.10000000000E+01 0.  0.
    9000005    1    3    3    0    0 -0.10002456786E+02  0.13149109488E+01  0.28251653793E+03  0.28269837696E+03  0.10000000000E+01 0.  0.
<mgrwt>
<rscale>  0 0.12500101E+03</rscale>
<asrwt>0</asrwt>
<pdfrwt beam="1">  1        4 0.43767883E-01 0.12500101E+03</pdfrwt>
<pdfrwt beam="2">  1       -4 0.21124421E-02 0.12500101E+03</pdfrwt>
<totfact> 0.75820691E+03</totfact>
</mgrwt>
</event>
<event>
 5    1  0.3311405E-002  0.1250013E+03  0.7818608E-02  0.1235067E+00
          4   -1    0    0  501    0  0.00000000000E+00  0.00000000000E+00  0.70805482295E+03  0.70805596191E+03  0.12700000000E+01 0. -1.
         -4   -1    0    0    0  501 -0.00000000000E+00 -0.00000000000E+00 -0.54427438616E+01  0.55889498783E+01  0.12700000000E+01 0. -1.
         25    2    1    2    0    0  0.00000000000E+00  0.00000000000E+00  0.70261207908E+03  0.71364491179E+03  0.12500130578E+03 0.  0.
    9000005    1    3    3    0    0 -0.58390479111E+02 -0.19584020975E+02  0.29079236150E+03  0.29724430934E+03  0.10000000000E+01 0.  0.
    9000005    1    3    3    0    0  0.58390479111E+02  0.19584020975E+02  0.41181971759E+03  0.41640060245E+03  0.10000000000E+01 0.  0.
<mgrwt>
<rscale>  0 0.12500131E+03</rscale>
<asrwt>0</asrwt>
<pdfrwt beam="1">  1        4 0.10894277E+00 0.12500131E+03</pdfrwt>
<pdfrwt beam="2">  1       -4 0.84868004E-03 0.12500131E+03</pdfrwt>
<totfact> 0.42374937E+03</totfact>
</mgrwt>
</event>
<event>
 5    1  0.3311405E-002  0.1249943E+03  0.7818608E-02  0.1235078E+00
          4   -1    0    0  501    0  0.00000000000E+00  0.00000000000E+00  0.14186533687E+03  0.14187102137E+03  0.12700000000E+01 0. -1.
         -4   -1    0    0    0  501 -0.00000000000E+00 -0.00000000000E+00 -0.27511518250E+02  0.27540815827E+02  0.12700000000E+01 0. -1.
         25    2    1    2    0    0  0.00000000000E+00  0.00000000000E+00  0.11435381862E+03  0.16941183720E+03  0.12499429887E+03 0.  0.
    9000005    1    3    3    0    0 -0.40886445203E+02 -0.40420749042E+02  0.23995430733E+02  0.62308258285E+02  0.10000000000E+01 0.  0.
    9000005    1    3    3    0    0  0.40886445203E+02  0.40420749042E+02  0.90358387884E+02  0.10710357891E+03  0.10000000000E+01 0.  0.
<mgrwt>
<rscale>  0 0.12499430E+03</rscale>
<asrwt>0</asrwt>
<pdfrwt beam="1">  1        4 0.21828127E-01 0.12499430E+03</pdfrwt>
<pdfrwt beam="2">  1       -4 0.42352322E-02 0.12499430E+03</pdfrwt>
<totfact> 0.95570556E+03</totfact>
</mgrwt>
</event>
<event>
 5    1  0.3311405E-002  0.1249998E+03  0.7818608E-02  0.1235070E+00
          4   -1    0    0  501    0  0.00000000000E+00  0.00000000000E+00  0.12857834285E+02  0.12920402568E+02  0.12700000000E+01 0. -1.
         -4   -1    0    0    0  501 -0.00000000000E+00 -0.00000000000E+00 -0.30300076368E+03  0.30300342521E+03  0.12700000000E+01 0. -1.
         25    2    1    2    0    0  0.00000000000E+00  0.00000000000E+00 -0.29014292940E+03  0.31592382778E+03  0.12499978193E+03 0.  0.
    9000005    1    3    3    0    0  0.47390771158E+02  0.37815287078E+02 -0.10679538384E+03  0.12280934467E+03  0.10000000000E+01 0.  0.
    9000005    1    3    3    0    0 -0.47390771158E+02 -0.37815287078E+02 -0.18334754555E+03  0.19311448311E+03  0.10000000000E+01 0.  0.
<mgrwt>
<rscale>  0 0.12499978E+03</rscale>
<asrwt>0</asrwt>
<pdfrwt beam="1">  1        4 0.19831463E-02 0.12499978E+03</pdfrwt>
<pdfrwt beam="2">  1       -4 0.46620514E-01 0.12499978E+03</pdfrwt>
<totfact> 0.73643927E+03</totfact>
</mgrwt>
</event>
<event>
 5    1  0.3311405E-002  0.1249972E+03  0.7818608E-02  0.1235074E+00
         -4   -1    0    0    0  501 -0.00000000000E+00  0.00000000000E+00  0.21512720334E+03  0.21513095202E+03  0.12700000000E+01 0.  1.
          4   -1    0    0  501    0  0.00000000000E+00 -0.00000000000E+00 -0.18130914906E+02  0.18175339758E+02  0.12700000000E+01 0.  1.
         25    2    1    2    0    0  0.00000000000E+00  0.00000000000E+00  0.19699628844E+03  0.23330629178E+03  0.12499715247E+03 0.  0.
    9000005    1    3    3    0    0  0.23699559474E+02  0.51076088779E+02  0.14908788506E+03  0.15936948716E+03  0.10000000000E+01 0.  0.
    9000005    1    3    3    0    0 -0.23699559474E+02 -0.51076088779E+02  0.47908403374E+02  0.73936804624E+02  0.10000000000E+01 0.  0.
<mgrwt>
<rscale>  0 0.12499715E+03</rscale>
<asrwt>0</asrwt>
<pdfrwt beam="2">  1        4 0.27930772E-02 0.12499715E+03</pdfrwt>
<pdfrwt beam="1">  1       -4 0.33100198E-01 0.12499715E+03</pdfrwt>
<totfact> 0.84809871E+03</totfact>
</mgrwt>
</event>
<event>
 5    1  0.3311405E-002  0.1250000E+03  0.7818608E-02  0.1235069E+00
         -4   -1    0    0    0  501 -0.00000000000E+00  0.00000000000E+00  0.55629116045E+03  0.55629261014E+03  0.12700000000E+01 0.  1.
          4   -1    0    0  501    0  0.00000000000E+00 -0.00000000000E+00 -0.69630634962E+01  0.70779342504E+01  0.12700000000E+01 0.  1.
         25    2    1    2    0    0  0.00000000000E+00  0.00000000000E+00  0.54932809696E+03  0.56337054439E+03  0.12500004873E+03 0.  0.
    9000005    1    3    3    0    0 -0.25366257113E+02 -0.53110739229E+02  0.36931621035E+03  0.37397815558E+03  0.10000000000E+01 0.  0.
    9000005    1    3    3    0    0  0.25366257113E+02  0.53110739229E+02  0.18001188661E+03  0.18939238882E+03  0.10000000000E+01 0.  0.
<mgrwt>
<rscale>  0 0.12500005E+03</rscale>
<asrwt>0</asrwt>
<pdfrwt beam="2">  1        4 0.10801878E-02 0.12500005E+03</pdfrwt>
<pdfrwt beam="1">  1       -4 0.85592240E-01 0.12500005E+03</pdfrwt>
<totfact> 0.51264454E+03</totfact>
</mgrwt>
</event>
<event>
 4    1  0.3311405E-002  0.1245248E+03  0.7818608E-02  0.1235814E+00
          4   -1    0    0  501    0  0.00000000000E+00  0.00000000000E+00  0.49454809014E+02  0.49471113133E+02  0.12700000000E+01 0. -1.
         -4   -1    0    0    0  501 -0.00000000000E+00 -0.00000000000E+00 -0.78352524997E+02  0.78362816905E+02  0.12700000000E+01 0. -1.
    9000005    1    1    2    0    0 -0.48987931704E+02 -0.58696211369E+01 -0.53422700065E+02  0.72727263026E+02  0.10000000000E+01 0.  0.
    9000005    1    1    2    0    0  0.48987931704E+02  0.58696211369E+01  0.24524984083E+02  0.55106667012E+02  0.10000000000E+01 0.  0.
<mgrwt>
<rscale>  0 0.12452484E+03</rscale>
<asrwt>0</asrwt>
<pdfrwt beam="1">  1        4 0.76104780E-02 0.12452484E+03</pdfrwt>
<pdfrwt beam="2">  1       -4 0.12056280E-01 0.12452484E+03</pdfrwt>
<totfact> 0.10503329E+04</totfact>
</mgrwt>
</event>
<event>
 5    1  0.3311405E-002  0.1249997E+03  0.7818608E-02  0.1235070E+00
         -4   -1    0    0    0  501 -0.00000000000E+00  0.00000000000E+00  0.78266723715E+02  0.78277026905E+02  0.12700000000E+01 0. -1.
          4   -1    0    0  501    0  0.00000000000E+00 -0.00000000000E+00 -0.49887542682E+02  0.49903705422E+02  0.12700000000E+01 0. -1.
         25    2    1    2    0    0  0.00000000000E+00  0.00000000000E+00  0.28379181033E+02  0.12818073233E+03  0.12499968889E+03 0.  0.
    9000005    1    3    3    0    0  0.35495053857E+02 -0.61784872173E+01  0.66549331835E+02  0.75682799369E+02  0.10000000000E+01 0.  0.
    9000005    1    3    3    0    0 -0.35495053857E+02  0.61784872173E+01 -0.38170150802E+02  0.52497932958E+02  0.10000000000E+01 0.  0.
<mgrwt>
<rscale>  0 0.12499969E+03</rscale>
<asrwt>0</asrwt>
<pdfrwt beam="2">  1        4 0.76770425E-02 0.12499969E+03</pdfrwt>
<pdfrwt beam="1">  1       -4 0.12043070E-01 0.12499969E+03</pdfrwt>
<totfact> 0.10383659E+04</totfact>
</mgrwt>
</event>
<event>
 5    1  0.3311405E-002  0.1249953E+03  0.7818608E-02  0.1235077E+00
          4   -1    0    0  501    0  0.00000000000E+00  0.00000000000E+00  0.87164875815E+02  0.87174127330E+02  0.12700000000E+01 0.  1.
         -4   -1    0    0    0  501 -0.00000000000E+00 -0.00000000000E+00 -0.44790485747E+02  0.44808487070E+02  0.12700000000E+01 0.  1.
         25    2    1    2    0    0  0.00000000000E+00  0.00000000000E+00  0.42374390067E+02  0.13198261440E+03  0.12499528619E+03 0.  0.
    9000005    1    3    3    0    0 -0.24491217386E+02 -0.38067231796E+02  0.66677054607E+02  0.80596299399E+02  0.10000000000E+01 0.  0.
    9000005    1    3    3    0    0  0.24491217386E+02  0.38067231796E+02 -0.24302664540E+02  0.51386315001E+02  0.10000000000E+01 0.  0.
<mgrwt>
<rscale>  0 0.12499529E+03</rscale>
<asrwt>0</asrwt>
<pdfrwt beam="1">  1        4 0.13412077E-01 0.12499529E+03</pdfrwt>
<pdfrwt beam="2">  1       -4 0.68929404E-02 0.12499529E+03</pdfrwt>
<totfact> 0.10303165E+04</totfact>
</mgrwt>
</event>
<event>
 5    1  0.3311405E-002  0.1250163E+03  0.7818608E-02  0.1235044E+00
         -4   -1    0    0    0  501 -0.00000000000E+00  0.00000000000E+00  0.25517356444E+02  0.25548940876E+02  0.12700000000E+01 0.  1.
          4   -1    0    0  501    0  0.00000000000E+00 -0.00000000000E+00 -0.15299315240E+03  0.15299842346E+03  0.12700000000E+01 0.  1.
         25    2    1    2    0    0  0.00000000000E+00  0.00000000000E+00 -0.12747579596E+03  0.17854736434E+03  0.12501632996E+03 0.  0.
    9000005    1    3    3    0    0 -0.27832109030E+02 -0.19215408518E+02  0.11325973769E+02  0.35681029965E+02  0.10000000000E+01 0.  0.
    9000005    1    3    3    0    0  0.27832109030E+02  0.19215408518E+02 -0.13880176973E+03  0.14286633437E+03  0.10000000000E+01 0.  0.
<mgrwt>
<rscale>  0 0.12501633E+03</rscale>
<asrwt>0</asrwt>
<pdfrwt beam="2">  1        4 0.23540243E-01 0.12501633E+03</pdfrwt>
<pdfrwt beam="1">  1       -4 0.39285823E-02 0.12501633E+03</pdfrwt>
<totfact> 0.93844767E+03</totfact>
</mgrwt>
</event>
<event>
 4    1  0.3311405E-002  0.1249170E+03  0.7818608E-02  0.1235199E+00
         -4   -1    0    0    0  501 -0.00000000000E+00  0.00000000000E+00  0.51724186398E+02  0.51739775401E+02  0.12700000000E+01 0. -1.
          4   -1    0    0  501    0  0.00000000000E+00 -0.00000000000E+00 -0.75388198690E+02  0.75398895229E+02  0.12700000000E+01 0. -1.
    9000005    1    1    2    0    0 -0.42709872220E+02  0.14402795826E+02  0.32162815003E+02  0.55380685997E+02  0.10000000000E+01 0.  0.
    9000005    1    1    2    0    0  0.42709872220E+02 -0.14402795826E+02 -0.55826827295E+02  0.71757984632E+02  0.10000000000E+01 0.  0.
<mgrwt>
<rscale>  0 0.12491700E+03</rscale>
<asrwt>0</asrwt>
<pdfrwt beam="2">  1        4 0.11600206E-01 0.12491700E+03</pdfrwt>
<pdfrwt beam="1">  1       -4 0.79595891E-02 0.12491700E+03</pdfrwt>
<totfact> 0.10425656E+04</totfact>
</mgrwt>
</event>
<event>
 5    1  0.3311405E-002  0.1250016E+03  0.7818608E-02  0.1235067E+00
          4   -1    0    0  501    0  0.00000000000E+00  0.00000000000E+00  0.31218676990E+02  0.31244498604E+02  0.12700000000E+01 0.  1.
         -4   -1    0    0    0  501 -0.00000000000E+00 -0.00000000000E+00 -0.12504782601E+03  0.12505427497E+03  0.12700000000E+01 0.  1.
         25    2    1    2    0    0  0.00000000000E+00  0.00000000000E+00 -0.93829149016E+02  0.15629877358E+03  0.12500158966E+03 0.  0.
    9000005    1    3    3    0    0 -0.10419902245E+02  0.34934929704E+02 -0.11038047045E+03  0.11624918035E+03  0.10000000000E+01 0.  0.
    9000005    1    3    3    0    0  0.10419902245E+02 -0.34934929704E+02  0.16551321433E+02  0.40049593223E+02  0.10000000000E+01 0.  0.
<mgrwt>
<rscale>  0 0.12500159E+03</rscale>
<asrwt>0</asrwt>
<pdfrwt beam="1">  1        4 0.48053558E-02 0.12500159E+03</pdfrwt>
<pdfrwt beam="2">  1       -4 0.19240609E-01 0.12500159E+03</pdfrwt>
<totfact> 0.98057630E+03</totfact>
</mgrwt>
</event>
<event>
 5    1  0.3311405E-002  0.1249965E+03  0.7818608E-02  0.1235075E+00
          4   -1    0    0  501    0  0.00000000000E+00  0.00000000000E+00  0.13751231361E+02  0.13809752494E+02  0.12700000000E+01 0. -1.
         -4   -1    0    0    0  501 -0.00000000000E+00 -0.00000000000E+00 -0.28338660892E+03  0.28338945466E+03  0.12700000000E+01 0. -1.
         25    2    1    2    0    0  0.00000000000E+00  0.00000000000E+00 -0.26963537756E+03  0.29719920716E+03  0.12499652757E+03 0.  0.
    9000005    1    3    3    0    0  0.56208194494E+02 -0.12383567494E+02 -0.19268423580E+03  0.20109930034E+03  0.10000000000E+01 0.  0.
    9000005    1    3    3    0    0 -0.56208194494E+02  0.12383567494E+02 -0.76951141761E+02  0.96099906818E+02  0.10000000000E+01 0.  0.
<mgrwt>
<rscale>  0 0.12499653E+03</rscale>
<asrwt>0</asrwt>
<pdfrwt beam="1">  1        4 0.21202948E-02 0.12499653E+03</pdfrwt>
<pdfrwt beam="2">  1       -4 0.43602656E-01 0.12499653E+03</pdfrwt>
<totfact> 0.75957371E+03</totfact>
</mgrwt>
</event>
<event>
 5    1  0.3311405E-002  0.1250012E+03  0.7818608E-02  0.1235067E+00
          4   -1    0    0  501    0  0.00000000000E+00  0.00000000000E+00  0.12375862309E+03  0.12376513923E+03  0.12700000000E+01 0. -1.
         -4   -1    0    0    0  501 -0.00000000000E+00 -0.00000000000E+00 -0.31543943100E+02  0.31569498671E+02  0.12700000000E+01 0. -1.
         25    2    1    2    0    0  0.00000000000E+00  0.00000000000E+00  0.92214679992E+02  0.15533463790E+03  0.12500121010E+03 0.  0.
    9000005    1    3    3    0    0  0.38462253131E+02 -0.47515971942E+02  0.29990346403E+02  0.68099437463E+02  0.10000000000E+01 0.  0.
    9000005    1    3    3    0    0 -0.38462253131E+02  0.47515971942E+02  0.62224333589E+02  0.87235200442E+02  0.10000000000E+01 0.  0.
<mgrwt>
<rscale>  0 0.12500121E+03</rscale>
<asrwt>0</asrwt>
<pdfrwt beam="1">  1        4 0.19042255E-01 0.12500121E+03</pdfrwt>
<pdfrwt beam="2">  1       -4 0.48553814E-02 0.12500121E+03</pdfrwt>
<totfact> 0.98247172E+03</totfact>
</mgrwt>
</event>
<event>
 5    1  0.3311405E-002  0.1250007E+03  0.7818608E-02  0.1235068E+00
          4   -1    0    0  501    0  0.00000000000E+00  0.00000000000E+00  0.59580661278E+03  0.59580796632E+03  0.12700000000E+01 0. -1.
         -4   -1    0    0    0  501 -0.00000000000E+00 -0.00000000000E+00 -0.64934355348E+01  0.66164646938E+01  0.12700000000E+01 0. -1.
         25    2    1    2    0    0  0.00000000000E+00  0.00000000000E+00  0.58931317724E+03  0.60242443101E+03  0.12500069684E+03 0.  0.
    9000005    1    3    3    0    0 -0.35981899815E+01 -0.60305153599E+02  0.21760167724E+03  0.22583433853E+03  0.10000000000E+01 0.  0.
    9000005    1    3    3    0    0  0.35981899815E+01  0.60305153599E+02  0.37171150001E+03  0.37659009249E+03  0.10000000000E+01 0.  0.
<mgrwt>
<rscale>  0 0.12500070E+03</rscale>
<asrwt>0</asrwt>
<pdfrwt beam="1">  1        4 0.91672122E-01 0.12500070E+03</pdfrwt>
<pdfrwt beam="2">  1       -4 0.10085580E-02 0.12500070E+03</pdfrwt>
<totfact> 0.48714186E+03</totfact>
</mgrwt>
</event>
<event>
 5    1  0.3311405E-002  0.1250000E+03  0.7818608E-02  0.1235069E+00
          4   -1    0    0  501    0  0.00000000000E+00  0.00000000000E+00  0.18815375425E+02  0.18858187940E+02  0.12700000000E+01 0.  1.
         -4   -1    0    0    0  501 -0.00000000000E+00 -0.00000000000E+00 -0.20732866535E+03  0.20733255503E+03  0.12700000000E+01 0.  1.
         25    2    1    2    0    0  0.00000000000E+00  0.00000000000E+00 -0.18851328992E+03  0.22619074297E+03  0.12499996691E+03 0.  0.
    9000005    1    3    3    0    0  0.32482386367E+02 -0.35064445503E+01 -0.19065274080E+03  0.19343440271E+03  0.10000000000E+01 0.  0.
    9000005    1    3    3    0    0 -0.32482386367E+02  0.35064445503E+01  0.21394508708E+01  0.32756340264E+02  0.10000000000E+01 0.  0.
<mgrwt>
<rscale>  0 0.12499997E+03</rscale>
<asrwt>0</asrwt>
<pdfrwt beam="1">  1        4 0.28982658E-02 0.12499997E+03</pdfrwt>
<pdfrwt beam="2">  1       -4 0.31900309E-01 0.12499997E+03</pdfrwt>
<totfact> 0.85898029E+03</totfact>
</mgrwt>
</event>
<event>
 5    1  0.3311405E-002  0.1249914E+03  0.7818608E-02  0.1235083E+00
         -4   -1    0    0    0  501 -0.00000000000E+00  0.00000000000E+00  0.70002831827E+03  0.70002947029E+03  0.12700000000E+01 0. -1.
          4   -1    0    0  501    0  0.00000000000E+00 -0.00000000000E+00 -0.55059188743E+01  0.56504904787E+01  0.12700000000E+01 0. -1.
         25    2    1    2    0    0  0.00000000000E+00  0.00000000000E+00  0.69452239939E+03  0.70567996077E+03  0.12499137480E+03 0.  0.
    9000005    1    3    3    0    0  0.31749640114E+02 -0.45372317833E+02  0.51070030886E+03  0.51369494094E+03  0.10000000000E+01 0.  0.
    9000005    1    3    3    0    0 -0.31749640114E+02  0.45372317833E+02  0.18382209053E+03  0.19198501983E+03  0.10000000000E+01 0.  0.
<mgrwt>
<rscale>  0 0.12499137E+03</rscale>
<asrwt>0</asrwt>
<pdfrwt beam="2">  1        4 0.85827444E-03 0.12499137E+03</pdfrwt>
<pdfrwt beam="1">  1       -4 0.10770781E+00 0.12499137E+03</pdfrwt>
<totfact> 0.42796644E+03</totfact>
</mgrwt>
</event>
<event>
 5    1  0.3311405E-002  0.1249995E+03  0.7818608E-02  0.1235070E+00
          4   -1    0    0  501    0  0.00000000000E+00  0.00000000000E+00  0.13957992765E+03  0.13958570522E+03  0.12700000000E+01 0. -1.
         -4   -1    0    0    0  501 -0.00000000000E+00 -0.00000000000E+00 -0.27964751925E+02  0.27993575160E+02  0.12700000000E+01 0. -1.
         25    2    1    2    0    0  0.00000000000E+00  0.00000000000E+00  0.11161517572E+03  0.16757928038E+03  0.12499947104E+03 0.  0.
    9000005    1    3    3    0    0  0.14319744897E+02 -0.46739311453E+02  0.36155510996E+01  0.49027446790E+02  0.10000000000E+01 0.  0.
    9000005    1    3    3    0    0 -0.14319744897E+02  0.46739311453E+02  0.10799962462E+03  0.11855183359E+03  0.10000000000E+01 0.  0.
<mgrwt>
<rscale>  0 0.12499947E+03</rscale>
<asrwt>0</asrwt>
<pdfrwt beam="1">  1        4 0.21476496E-01 0.12499947E+03</pdfrwt>
<pdfrwt beam="2">  1       -4 0.43049313E-02 0.12499947E+03</pdfrwt>
<totfact> 0.95902275E+03</totfact>
</mgrwt>
</event>
<event>
 5    1  0.3311405E-002  0.1249974E+03  0.7818608E-02  0.1235073E+00
         -4   -1    0    0    0  501 -0.00000000000E+00  0.00000000000E+00  0.32855984866E+03  0.32856230315E+03  0.12700000000E+01 0.  1.
          4   -1    0    0  501    0  0.00000000000E+00 -0.00000000000E+00 -0.11852084160E+02  0.11919932841E+02  0.12700000000E+01 0.  1.
         25    2    1    2    0    0  0.00000000000E+00  0.00000000000E+00  0.31670776449E+03  0.34048223599E+03  0.12499737970E+03 0.  0.
    9000005    1    3    3    0    0 -0.11952851011E+02  0.49743555036E+02  0.60603874256E+02  0.79316590255E+02  0.10000000000E+01 0.  0.
    9000005    1    3    3    0    0  0.11952851011E+02 -0.49743555036E+02  0.25610389024E+03  0.26116564573E+03  0.10000000000E+01 0.  0.
<mgrwt>
<rscale>  0 0.12499738E+03</rscale>
<asrwt>0</asrwt>
<pdfrwt beam="2">  1        4 0.18288055E-02 0.12499738E+03</pdfrwt>
<pdfrwt beam="1">  1       -4 0.50553077E-01 0.12499738E+03</pdfrwt>
<totfact> 0.70788581E+03</totfact>
</mgrwt>
</event>
<event>
 5    1  0.3311405E-002  0.1249968E+03  0.7818608E-02  0.1235074E+00
         -4   -1    0    0    0  501 -0.00000000000E+00  0.00000000000E+00  0.61826943946E+02  0.61839986237E+02  0.12700000000E+01 0.  1.
          4   -1    0    0  501    0  0.00000000000E+00 -0.00000000000E+00 -0.63151062205E+02  0.63163831087E+02  0.12700000000E+01 0.  1.
         25    2    1    2    0    0  0.00000000000E+00  0.00000000000E+00 -0.13241182585E+01  0.12500381732E+03  0.12499680418E+03 0.  0.
    9000005    1    3    3    0    0  0.34382390961E+02 -0.39141730981E+02  0.33848228928E+02  0.62136354205E+02  0.10000000000E+01 0.  0.
    9000005    1    3    3    0    0 -0.34382390961E+02  0.39141730981E+02 -0.35172347186E+02  0.62867463118E+02  0.10000000000E+01 0.  0.
<mgrwt>
<rscale>  0 0.12499680E+03</rscale>
<asrwt>0</asrwt>
<pdfrwt beam="2">  1        4 0.97175335E-02 0.12499680E+03</pdfrwt>
<pdfrwt beam="1">  1       -4 0.95138230E-02 0.12499680E+03</pdfrwt>
<totfact> 0.10453535E+04</totfact>
</mgrwt>
</event>
<event>
 5    1  0.3311405E-002  0.1249980E+03  0.7818608E-02  0.1235072E+00
          4   -1    0    0  501    0  0.00000000000E+00  0.00000000000E+00  0.70783828675E+03  0.70783942607E+03  0.12700000000E+01 0. -1.
         -4   -1    0    0    0  501 -0.00000000000E+00 -0.00000000000E+00 -0.54441576564E+01  0.55903266978E+01  0.12700000000E+01 0. -1.
         25    2    1    2    0    0  0.00000000000E+00  0.00000000000E+00  0.70239412910E+03  0.71342975277E+03  0.12499799814E+03 0.  0.
    9000005    1    3    3    0    0 -0.61035772254E+02  0.13404469710E+02  0.35280717454E+03  0.35830008053E+03  0.10000000000E+01 0.  0.
    9000005    1    3    3    0    0  0.61035772254E+02 -0.13404469710E+02  0.34958695456E+03  0.35512967223E+03  0.10000000000E+01 0.  0.
<mgrwt>
<rscale>  0 0.12499800E+03</rscale>
<asrwt>0</asrwt>
<pdfrwt beam="1">  1        4 0.10890945E+00 0.12499800E+03</pdfrwt>
<pdfrwt beam="2">  1       -4 0.84889478E-03 0.12499800E+03</pdfrwt>
<totfact> 0.42389061E+03</totfact>
</mgrwt>
</event>
<event>
 5    1  0.3311405E-002  0.1250150E+03  0.7818608E-02  0.1235046E+00
         -4   -1    0    0    0  501 -0.00000000000E+00  0.00000000000E+00  0.52332783004E+01  0.53851742561E+01  0.12700000000E+01 0.  1.
          4   -1    0    0  501    0  0.00000000000E+00 -0.00000000000E+00 -0.73577195522E+03  0.73577305127E+03  0.12700000000E+01 0.  1.
         25    2    1    2    0    0  0.00000000000E+00  0.00000000000E+00 -0.73053867692E+03  0.74115822553E+03  0.12501502631E+03 0.  0.
    9000005    1    3    3    0    0  0.57471469957E+02 -0.77831145521E+01 -0.22716554548E+03  0.23445411445E+03  0.10000000000E+01 0.  0.
    9000005    1    3    3    0    0 -0.57471469957E+02  0.77831145521E+01 -0.50337313144E+03  0.50670411108E+03  0.10000000000E+01 0.  0.
<mgrwt>
<rscale>  0 0.12501503E+03</rscale>
<asrwt>0</asrwt>
<pdfrwt beam="2">  1        4 0.11320737E+00 0.12501503E+03</pdfrwt>
<pdfrwt beam="1">  1       -4 0.81688894E-03 0.12501503E+03</pdfrwt>
<totfact> 0.40987207E+03</totfact>
</mgrwt>
</event>
<event>
 5    1  0.3311405E-002  0.1249974E+03  0.7818608E-02  0.1235073E+00
         -4   -1    0    0    0  501 -0.00000000000E+00  0.00000000000E+00  0.23198642330E+03  0.23198989956E+03  0.12700000000E+01 0.  1.
          4   -1    0    0  501    0  0.00000000000E+00 -0.00000000000E+00 -0.16810012113E+02  0.16857918235E+02  0.12700000000E+01 0.  1.
         25    2    1    2    0    0  0.00000000000E+00  0.00000000000E+00  0.21517641119E+03  0.24884781779E+03  0.12499739392E+03 0.  0.
    9000005    1    3    3    0    0  0.19647513340E+02  0.19751946905E+02  0.21894848489E+03  0.22071611455E+03  0.10000000000E+01 0.  0.
    9000005    1    3    3    0    0 -0.19647513340E+02 -0.19751946905E+02 -0.37720737042E+01  0.28131703237E+02  0.10000000000E+01 0.  0.
<mgrwt>
<rscale>  0 0.12499739E+03</rscale>
<asrwt>0</asrwt>
<pdfrwt beam="2">  1        4 0.25901083E-02 0.12499739E+03</pdfrwt>
<pdfrwt beam="1">  1       -4 0.35694170E-01 0.12499739E+03</pdfrwt>
<totfact> 0.82501830E+03</totfact>
</mgrwt>
</event>
<event>
 5    1  0.3311405E-002  0.1250017E+03  0.7818608E-02  0.1235067E+00
          4   -1    0    0  501    0  0.00000000000E+00  0.00000000000E+00  0.22891730759E+03  0.22892083045E+03  0.12700000000E+01 0.  1.
         -4   -1    0    0    0  501 -0.00000000000E+00 -0.00000000000E+00 -0.17037200334E+02  0.17084469416E+02  0.12700000000E+01 0.  1.
         25    2    1    2    0    0  0.00000000000E+00  0.00000000000E+00  0.21188010725E+03  0.24600529986E+03  0.12500171084E+03 0.  0.
    9000005    1    3    3    0    0  0.81909897826E+00  0.13424221426E+02  0.22604506069E+03  0.22644701390E+03  0.10000000000E+01 0.  0.
    9000005    1    3    3    0    0 -0.81909897826E+00 -0.13424221426E+02 -0.14164953433E+02  0.19558285963E+02  0.10000000000E+01 0.  0.
<mgrwt>
<rscale>  0 0.12500171E+03</rscale>
<asrwt>0</asrwt>
<pdfrwt beam="1">  1        4 0.35221950E-01 0.12500171E+03</pdfrwt>
<pdfrwt beam="2">  1       -4 0.26250151E-02 0.12500171E+03</pdfrwt>
<totfact> 0.82907878E+03</totfact>
</mgrwt>
</event>
<event>
 5    1  0.3311405E-002  0.1249975E+03  0.7818608E-02  0.1235073E+00
          4   -1    0    0  501    0  0.00000000000E+00  0.00000000000E+00  0.16208445271E+01  0.20591350080E+01  0.12700000000E+01 0.  1.
         -4   -1    0    0    0  501 -0.00000000000E+00 -0.00000000000E+00 -0.21224508204E+04  0.21224512004E+04  0.12700000000E+01 0.  1.
         25    2    1    2    0    0  0.00000000000E+00  0.00000000000E+00 -0.21208299759E+04  0.21245103354E+04  0.12499751410E+03 0.  0.
    9000005    1    3    3    0    0 -0.58072558579E+02  0.20725762582E+02 -0.12330063706E+04  0.12345475646E+04  0.10000000000E+01 0.  0.
    9000005    1    3    3    0    0  0.58072558579E+02 -0.20725762582E+02 -0.88782360531E+03  0.88996277082E+03  0.10000000000E+01 0.  0.
<mgrwt>
<rscale>  0 0.12499751E+03</rscale>
<asrwt>0</asrwt>
<pdfrwt beam="1">  1        4 0.28310628E-03 0.12499751E+03</pdfrwt>
<pdfrwt beam="2">  1       -4 0.32656268E+00 0.12499751E+03</pdfrwt>
<totfact> 0.83229948E+02</totfact>
</mgrwt>
</event>
<event>
 5    1  0.3311405E-002  0.1250053E+03  0.7818608E-02  0.1235061E+00
         -4   -1    0    0    0  501 -0.00000000000E+00  0.00000000000E+00  0.33165754502E+03  0.33165997658E+03  0.12700000000E+01 0.  1.
          4   -1    0    0  501    0  0.00000000000E+00 -0.00000000000E+00 -0.11742251037E+02  0.11810730690E+02  0.12700000000E+01 0.  1.
         25    2    1    2    0    0  0.00000000000E+00  0.00000000000E+00  0.31991529398E+03  0.34347070727E+03  0.12500532562E+03 0.  0.
    9000005    1    3    3    0    0  0.30334642467E+02  0.16965458312E+02  0.17250017570E+02  0.38814693293E+02  0.10000000000E+01 0.  0.
    9000005    1    3    3    0    0 -0.30334642467E+02 -0.16965458312E+02  0.30266527641E+03  0.30465601398E+03  0.10000000000E+01 0.  0.
<mgrwt>
<rscale>  0 0.12500533E+03</rscale>
<asrwt>0</asrwt>
<pdfrwt beam="2">  1        4 0.18119548E-02 0.12500533E+03</pdfrwt>
<pdfrwt beam="1">  1       -4 0.51029694E-01 0.12500533E+03</pdfrwt>
<totfact> 0.70440573E+03</totfact>
</mgrwt>
</event>
<event>
 5    1  0.3311405E-002  0.1250024E+03  0.7818608E-02  0.1235066E+00
         -4   -1    0    0    0  501 -0.00000000000E+00  0.00000000000E+00  0.82768326272E+01  0.83737003970E+01  0.12700000000E+01 0.  1.
          4   -1    0    0  501    0  0.00000000000E+00 -0.00000000000E+00 -0.46912453123E+03  0.46912625028E+03  0.12700000000E+01 0.  1.
         25    2    1    2    0    0  0.00000000000E+00  0.00000000000E+00 -0.46084769860E+03  0.47749995067E+03  0.12500240633E+03 0.  0.
    9000005    1    3    3    0    0  0.34183604322E+02 -0.46544693760E+02 -0.13918652640E+03  0.15069444732E+03  0.10000000000E+01 0.  0.
    9000005    1    3    3    0    0 -0.34183604322E+02  0.46544693760E+02 -0.32166117220E+03  0.32680550335E+03  0.10000000000E+01 0.  0.
<mgrwt>
<rscale>  0 0.12500241E+03</rscale>
<asrwt>0</asrwt>
<pdfrwt beam="2">  1        4 0.72180568E-01 0.12500241E+03</pdfrwt>
<pdfrwt beam="1">  1       -4 0.12809428E-02 0.12500241E+03</pdfrwt>
<totfact> 0.57650311E+03</totfact>
</mgrwt>
</event>
<event>
 5    1  0.3311405E-002  0.1250089E+03  0.7818608E-02  0.1235055E+00
          4   -1    0    0  501    0  0.00000000000E+00  0.00000000000E+00  0.48762848397E+02  0.48779383798E+02  0.12700000000E+01 0.  1.
         -4   -1    0    0    0  501 -0.00000000000E+00 -0.00000000000E+00 -0.80083316065E+02  0.80093385569E+02  0.12700000000E+01 0.  1.
         25    2    1    2    0    0  0.00000000000E+00  0.00000000000E+00 -0.31320467668E+02  0.12887276937E+03  0.12500887564E+03 0.  0.
    9000005    1    3    3    0    0 -0.44578711174E+02 -0.34477044659E+02 -0.43511506617E+02  0.71205191570E+02  0.10000000000E+01 0.  0.
    9000005    1    3    3    0    0  0.44578711174E+02  0.34477044659E+02  0.12191038949E+02  0.57667577798E+02  0.10000000000E+01 0.  0.
<mgrwt>
<rscale>  0 0.12500888E+03</rscale>
<asrwt>0</asrwt>
<pdfrwt beam="1">  1        4 0.75040232E-02 0.12500888E+03</pdfrwt>
<pdfrwt beam="2">  1       -4 0.12322557E-01 0.12500888E+03</pdfrwt>
<totfact> 0.10366604E+04</totfact>
</mgrwt>
</event>
<event>
 5    1  0.3311405E-002  0.1249999E+03  0.7818608E-02  0.1235069E+00
         -4   -1    0    0    0  501 -0.00000000000E+00  0.00000000000E+00  0.17081586468E+03  0.17082058578E+03  0.12700000000E+01 0.  1.
          4   -1    0    0  501    0  0.00000000000E+00 -0.00000000000E+00 -0.22845493056E+02  0.22880766005E+02  0.12700000000E+01 0.  1.
         25    2    1    2    0    0  0.00000000000E+00  0.00000000000E+00  0.14797037162E+03  0.19370135178E+03  0.12499993122E+03 0.  0.
    9000005    1    3    3    0    0 -0.16725895441E+02  0.58788365610E+02  0.94155046500E+02  0.11225863125E+03  0.10000000000E+01 0.  0.
    9000005    1    3    3    0    0  0.16725895441E+02 -0.58788365610E+02  0.53815325119E+02  0.81442720528E+02  0.10000000000E+01 0.  0.
<mgrwt>
<rscale>  0 0.12499993E+03</rscale>
<asrwt>0</asrwt>
<pdfrwt beam="2">  1        4 0.35177676E-02 0.12499993E+03</pdfrwt>
<pdfrwt beam="1">  1       -4 0.26282441E-01 0.12499993E+03</pdfrwt>
<totfact> 0.91207390E+03</totfact>
</mgrwt>
</event>
<event>
 5    1  0.3311405E-002  0.1250007E+03  0.7818608E-02  0.1235068E+00
         -4   -1    0    0    0  501 -0.00000000000E+00  0.00000000000E+00  0.97582794857E+03  0.97582877500E+03  0.12700000000E+01 0.  1.
          4   -1    0    0  501    0  0.00000000000E+00 -0.00000000000E+00 -0.39014749842E+01  0.41029753901E+01  0.12700000000E+01 0.  1.
         25    2    1    2    0    0  0.00000000000E+00  0.00000000000E+00  0.97192647359E+03  0.97993175039E+03  0.12500066143E+03 0.  0.
    9000005    1    3    3    0    0 -0.22251551570E+02  0.30779484609E+01  0.94312172371E+03  0.94338973444E+03  0.10000000000E+01 0.  0.
    9000005    1    3    3    0    0  0.22251551570E+02 -0.30779484609E+01  0.28804749879E+02  0.36542015948E+02  0.10000000000E+01 0.  0.
<mgrwt>
<rscale>  0 0.12500066E+03</rscale>
<asrwt>0</asrwt>
<pdfrwt beam="2">  1        4 0.61579016E-03 0.12500066E+03</pdfrwt>
<pdfrwt beam="1">  1       -4 0.15014303E+00 0.12500066E+03</pdfrwt>
<totfact> 0.31276066E+03</totfact>
</mgrwt>
</event>
<event>
 5    1  0.3311405E-002  0.1249986E+03  0.7818608E-02  0.1235071E+00
         -4   -1    0    0    0  501 -0.00000000000E+00  0.00000000000E+00  0.26466526739E+03  0.26466831443E+03  0.12700000000E+01 0.  1.
          4   -1    0    0  501    0  0.00000000000E+00 -0.00000000000E+00 -0.14728428563E+02  0.14783081815E+02  0.12700000000E+01 0.  1.
         25    2    1    2    0    0  0.00000000000E+00  0.00000000000E+00  0.24993683883E+03  0.27945139625E+03  0.12499863783E+03 0.  0.
    9000005    1    3    3    0    0  0.38827244506E+02 -0.48961890579E+02  0.12627816596E+03  0.14089711439E+03  0.10000000000E+01 0.  0.
    9000005    1    3    3    0    0 -0.38827244506E+02  0.48961890579E+02  0.12365867287E+03  0.13855428186E+03  0.10000000000E+01 0.  0.
<mgrwt>
<rscale>  0 0.12499864E+03</rscale>
<asrwt>0</asrwt>
<pdfrwt beam="2">  1        4 0.22703507E-02 0.12499864E+03</pdfrwt>
<pdfrwt beam="1">  1       -4 0.40722170E-01 0.12499864E+03</pdfrwt>
<totfact> 0.78253272E+03</totfact>
</mgrwt>
</event>
<event>
 5    1  0.3311405E-002  0.1249907E+03  0.7818608E-02  0.1235084E+00
          4   -1    0    0  501    0  0.00000000000E+00  0.00000000000E+00  0.23735809583E+02  0.23769761390E+02  0.12700000000E+01 0.  1.
         -4   -1    0    0    0  501 -0.00000000000E+00 -0.00000000000E+00 -0.16439343009E+03  0.16439833562E+03  0.12700000000E+01 0.  1.
         25    2    1    2    0    0  0.00000000000E+00  0.00000000000E+00 -0.14065762050E+03  0.18816809701E+03  0.12499066576E+03 0.  0.
    9000005    1    3    3    0    0  0.33907102545E+02  0.14115876113E+02  0.57782239533E+01  0.37193244461E+02  0.10000000000E+01 0.  0.
    9000005    1    3    3    0    0 -0.33907102545E+02 -0.14115876113E+02 -0.14643584446E+03  0.15097485255E+03  0.10000000000E+01 0.  0.
<mgrwt>
<rscale>  0 0.12499067E+03</rscale>
<asrwt>0</asrwt>
<pdfrwt beam="1">  1        4 0.36546521E-02 0.12499067E+03</pdfrwt>
<pdfrwt beam="2">  1       -4 0.25294285E-01 0.12499067E+03</pdfrwt>
<totfact> 0.92186317E+03</totfact>
</mgrwt>
</event>
<event>
 5    1  0.3311405E-002  0.1249980E+03  0.7818608E-02  0.1235072E+00
         -4   -1    0    0    0  501 -0.00000000000E+00  0.00000000000E+00  0.47886881945E+02  0.47903719714E+02  0.12700000000E+01 0. -1.
          4   -1    0    0  501    0  0.00000000000E+00 -0.00000000000E+00 -0.81533713620E+02  0.81543604021E+02  0.12700000000E+01 0. -1.
         25    2    1    2    0    0  0.00000000000E+00  0.00000000000E+00 -0.33646831675E+02  0.12944732373E+03  0.12499800135E+03 0.  0.
    9000005    1    3    3    0    0  0.18583799188E+02  0.46552534555E+01 -0.78422580105E+02  0.80734936968E+02  0.10000000000E+01 0.  0.
    9000005    1    3    3    0    0 -0.18583799188E+02 -0.46552534555E+01  0.44775748430E+02  0.48712386766E+02  0.10000000000E+01 0.  0.
<mgrwt>
<rscale>  0 0.12499800E+03</rscale>
<asrwt>0</asrwt>
<pdfrwt beam="2">  1        4 0.12545704E-01 0.12499800E+03</pdfrwt>
<pdfrwt beam="1">  1       -4 0.73692686E-02 0.12499800E+03</pdfrwt>
<totfact> 0.10356812E+04</totfact>
</mgrwt>
</event>
<event>
 5    1  0.3311405E-002  0.1249949E+03  0.7818608E-02  0.1235077E+00
          4   -1    0    0  501    0  0.00000000000E+00  0.00000000000E+00  0.50969746986E+02  0.50985566662E+02  0.12700000000E+01 0.  1.
         -4   -1    0    0    0  501 -0.00000000000E+00 -0.00000000000E+00 -0.76599315002E+02  0.76609842440E+02  0.12700000000E+01 0.  1.
         25    2    1    2    0    0  0.00000000000E+00  0.00000000000E+00 -0.25629568015E+02  0.12759540910E+03  0.12499485456E+03 0.  0.
    9000005    1    3    3    0    0  0.28417154153E+02 -0.36084391058E+02 -0.56067431645E+02  0.72485686997E+02  0.10000000000E+01 0.  0.
    9000005    1    3    3    0    0 -0.28417154153E+02  0.36084391058E+02  0.30437863630E+02  0.55109722105E+02  0.10000000000E+01 0.  0.
<mgrwt>
<rscale>  0 0.12499485E+03</rscale>
<asrwt>0</asrwt>
<pdfrwt beam="1">  1        4 0.78435262E-02 0.12499485E+03</pdfrwt>
<pdfrwt beam="2">  1       -4 0.11786537E-01 0.12499485E+03</pdfrwt>
<totfact> 0.10397442E+04</totfact>
</mgrwt>
</event>
<event>
 5    1  0.3311405E-002  0.1250004E+03  0.7818608E-02  0.1235069E+00
         -4   -1    0    0    0  501 -0.00000000000E+00  0.00000000000E+00  0.84553994206E+03  0.84554089583E+03  0.12700000000E+01 0.  1.
          4   -1    0    0  501    0  0.00000000000E+00 -0.00000000000E+00 -0.45316019118E+01  0.47061997287E+01  0.12700000000E+01 0.  1.
         25    2    1    2    0    0  0.00000000000E+00  0.00000000000E+00  0.84100834015E+03  0.85024709556E+03  0.12500038122E+03 0.  0.
    9000005    1    3    3    0    0  0.99796775723E+01 -0.21746510193E+02  0.27826291349E+02  0.36712493245E+02  0.10000000000E+01 0.  0.
    9000005    1    3    3    0    0 -0.99796775723E+01  0.21746510193E+02  0.81318204880E+03  0.81353460232E+03  0.10000000000E+01 0.  0.
<mgrwt>
<rscale>  0 0.12500038E+03</rscale>
<asrwt>0</asrwt>
<pdfrwt beam="2">  1        4 0.71067313E-03 0.12500038E+03</pdfrwt>
<pdfrwt beam="1">  1       -4 0.13009664E+00 0.12500038E+03</pdfrwt>
<totfact> 0.36116894E+03</totfact>
</mgrwt>
</event>
<event>
 5    1  0.3311405E-002  0.1249643E+03  0.7818608E-02  0.1235125E+00
          4   -1    0    0  501    0  0.00000000000E+00  0.00000000000E+00  0.65895433162E+01  0.67108107644E+01  0.12700000000E+01 0.  1.
         -4   -1    0    0    0  501 -0.00000000000E+00 -0.00000000000E+00 -0.58693268978E+03  0.58693406379E+03  0.12700000000E+01 0.  1.
         25    2    1    2    0    0  0.00000000000E+00  0.00000000000E+00 -0.58034314646E+03  0.59364487455E+03  0.12496427262E+03 0.  0.
    9000005    1    3    3    0    0  0.57518099838E+01  0.12876592044E+02 -0.57929535482E+03  0.57946785765E+03  0.10000000000E+01 0.  0.
    9000005    1    3    3    0    0 -0.57518099838E+01 -0.12876592044E+02 -0.10477916463E+01  0.14177016897E+02  0.10000000000E+01 0.  0.
<mgrwt>
<rscale>  0 0.12496427E+03</rscale>
<asrwt>0</asrwt>
<pdfrwt beam="1">  1        4 0.10232103E-02 0.12496427E+03</pdfrwt>
<pdfrwt beam="2">  1       -4 0.90306730E-01 0.12496427E+03</pdfrwt>
<totfact> 0.49309879E+03</totfact>
</mgrwt>
</event>
<event>
 5    1  0.3311405E-002  0.1249990E+03  0.7818608E-02  0.1235071E+00
         -4   -1    0    0    0  501 -0.00000000000E+00  0.00000000000E+00  0.36875050360E+01  0.39000760749E+01  0.12700000000E+01 0. -1.
          4   -1    0    0  501    0  0.00000000000E+00 -0.00000000000E+00 -0.10294143363E+04  0.10294151197E+04  0.12700000000E+01 0. -1.
         25    2    1    2    0    0  0.00000000000E+00  0.00000000000E+00 -0.10257268313E+04  0.10333151958E+04  0.12499904583E+03 0.  0.
    9000005    1    3    3    0    0 -0.47771431316E+02 -0.35183801859E+02 -0.35062323009E+03  0.35560885681E+03  0.10000000000E+01 0.  0.
    9000005    1    3    3    0    0  0.47771431316E+02  0.35183801859E+02 -0.67510360120E+03  0.67770633899E+03  0.10000000000E+01 0.  0.
<mgrwt>
<rscale>  0 0.12499905E+03</rscale>
<asrwt>0</asrwt>
<pdfrwt beam="2">  1        4 0.15838763E+00 0.12499905E+03</pdfrwt>
<pdfrwt beam="1">  1       -4 0.58372117E-03 0.12499905E+03</pdfrwt>
<totfact> 0.29522163E+03</totfact>
</mgrwt>
</event>
<event>
 4    1  0.3311405E-002  0.1251377E+03  0.7818608E-02  0.1234854E+00
          4   -1    0    0  501    0  0.00000000000E+00  0.00000000000E+00  0.13724921697E+03  0.13725509265E+03  0.12700000000E+01 0. -1.
         -4   -1    0    0    0  501 -0.00000000000E+00 -0.00000000000E+00 -0.28503134398E+02  0.28531413749E+02  0.12700000000E+01 0. -1.
    9000005    1    1    2    0    0 -0.28466715087E+02 -0.39677844594E+02  0.25658605643E+01  0.48910825591E+02  0.10000000000E+01 0.  0.
    9000005    1    1    2    0    0  0.28466715087E+02  0.39677844594E+02  0.10618022201E+03  0.11687568081E+03  0.10000000000E+01 0.  0.
<mgrwt>
<rscale>  0 0.12513775E+03</rscale>
<asrwt>0</asrwt>
<pdfrwt beam="1">  1        4 0.21117892E-01 0.12513775E+03</pdfrwt>
<pdfrwt beam="2">  1       -4 0.43877249E-02 0.12513775E+03</pdfrwt>
<totfact> 0.95941475E+03</totfact>
</mgrwt>
</event>
<event>
 5    1  0.3311405E-002  0.1250017E+03  0.7818608E-02  0.1235067E+00
         -4   -1    0    0    0  501 -0.00000000000E+00  0.00000000000E+00  0.57302532844E+02  0.57316604665E+02  0.12700000000E+01 0. -1.
          4   -1    0    0  501    0  0.00000000000E+00 -0.00000000000E+00 -0.68142391517E+02  0.68154225266E+02  0.12700000000E+01 0. -1.
         25    2    1    2    0    0  0.00000000000E+00  0.00000000000E+00 -0.10839858673E+02  0.12547082993E+03  0.12500170650E+03 0.  0.
    9000005    1    3    3    0    0 -0.41856195775E+02  0.16096707422E+02 -0.49106960406E+02  0.66509688579E+02  0.10000000000E+01 0.  0.
    9000005    1    3    3    0    0  0.41856195775E+02 -0.16096707422E+02  0.38267101733E+02  0.58961141353E+02  0.10000000000E+01 0.  0.
<mgrwt>
<rscale>  0 0.12500171E+03</rscale>
<asrwt>0</asrwt>
<pdfrwt beam="2">  1        4 0.10485438E-01 0.12500171E+03</pdfrwt>
<pdfrwt beam="1">  1       -4 0.88177671E-02 0.12500171E+03</pdfrwt>
<totfact> 0.10442197E+04</totfact>
</mgrwt>
</event>
<event>
 5    1  0.3311405E-002  0.1249975E+03  0.7818608E-02  0.1235073E+00
          4   -1    0    0  501    0  0.00000000000E+00  0.00000000000E+00  0.71988391513E+01  0.73100058226E+01  0.12700000000E+01 0.  1.
         -4   -1    0    0    0  501 -0.00000000000E+00 -0.00000000000E+00 -0.53833144558E+03  0.53833294363E+03  0.12700000000E+01 0.  1.
         25    2    1    2    0    0  0.00000000000E+00  0.00000000000E+00 -0.53113260643E+03  0.54564294945E+03  0.12499753069E+03 0.  0.
    9000005    1    3    3    0    0 -0.70554269322E+00  0.46320555423E+02 -0.82486460477E+02  0.94610294405E+02  0.10000000000E+01 0.  0.
    9000005    1    3    3    0    0  0.70554269322E+00 -0.46320555423E+02 -0.44864614595E+03  0.45103265505E+03  0.10000000000E+01 0.  0.
<mgrwt>
<rscale>  0 0.12499753E+03</rscale>
<asrwt>0</asrwt>
<pdfrwt beam="1">  1        4 0.11161807E-02 0.12499753E+03</pdfrwt>
<pdfrwt beam="2">  1       -4 0.82828857E-01 0.12499753E+03</pdfrwt>
<totfact> 0.52492013E+03</totfact>
</mgrwt>
</event>
<event>
 5    1  0.3311405E-002  0.1250018E+03  0.7818608E-02  0.1235066E+00
         -4   -1    0    0    0  501 -0.00000000000E+00  0.00000000000E+00  0.45606093254E+02  0.45623772772E+02  0.12700000000E+01 0.  1.
          4   -1    0    0  501    0  0.00000000000E+00 -0.00000000000E+00 -0.85615471344E+02  0.85624890268E+02  0.12700000000E+01 0.  1.
         25    2    1    2    0    0  0.00000000000E+00  0.00000000000E+00 -0.40009378089E+02  0.13124866304E+03  0.12500184484E+03 0.  0.
    9000005    1    3    3    0    0  0.43146138081E+02  0.32501362193E+02  0.12989182554E+02  0.55566596433E+02  0.10000000000E+01 0.  0.
    9000005    1    3    3    0    0 -0.43146138081E+02 -0.32501362193E+02 -0.52998560643E+02  0.75682066607E+02  0.10000000000E+01 0.  0.
<mgrwt>
<rscale>  0 0.12500184E+03</rscale>
<asrwt>0</asrwt>
<pdfrwt beam="2">  1        4 0.13173696E-01 0.12500184E+03</pdfrwt>
<pdfrwt beam="1">  1       -4 0.70184065E-02 0.12500184E+03</pdfrwt>
<totfact> 0.10317332E+04</totfact>
</mgrwt>
</event>
<event>
 5    1  0.3311405E-002  0.1250082E+03  0.7818608E-02  0.1235056E+00
          4   -1    0    0  501    0  0.00000000000E+00  0.00000000000E+00  0.85831471080E+01  0.86765957770E+01  0.12700000000E+01 0.  1.
         -4   -1    0    0    0  501 -0.00000000000E+00 -0.00000000000E+00 -0.45260779838E+03  0.45260958016E+03  0.12700000000E+01 0.  1.
         25    2    1    2    0    0  0.00000000000E+00  0.00000000000E+00 -0.44402465127E+03  0.46128617594E+03  0.12500818043E+03 0.  0.
    9000005    1    3    3    0    0  0.86424511564E+01  0.27378471374E+01 -0.45018662662E+03  0.45027900967E+03  0.10000000000E+01 0.  0.
    9000005    1    3    3    0    0 -0.86424511564E+01 -0.27378471374E+01  0.61619753472E+01  0.11007166262E+02  0.10000000000E+01 0.  0.
<mgrwt>
<rscale>  0 0.12500818E+03</rscale>
<asrwt>0</asrwt>
<pdfrwt beam="1">  1        4 0.13278099E-02 0.12500818E+03</pdfrwt>
<pdfrwt beam="2">  1       -4 0.69639276E-01 0.12500818E+03</pdfrwt>
<totfact> 0.58987777E+03</totfact>
</mgrwt>
</event>
<event>
 5    1  0.3311405E-002  0.1249997E+03  0.7818608E-02  0.1235070E+00
         -4   -1    0    0    0  501 -0.00000000000E+00  0.00000000000E+00  0.22328750664E+03  0.22329111832E+03  0.12700000000E+01 0. -1.
          4   -1    0    0  501    0  0.00000000000E+00 -0.00000000000E+00 -0.17467366014E+02  0.17513474112E+02  0.12700000000E+01 0. -1.
         25    2    1    2    0    0  0.00000000000E+00  0.00000000000E+00  0.20582014063E+03  0.24080459244E+03  0.12499968580E+03 0.  0.
    9000005    1    3    3    0    0 -0.21548280554E+01 -0.58508072415E+02  0.60818642475E+02  0.84425974049E+02  0.10000000000E+01 0.  0.
    9000005    1    3    3    0    0  0.21548280554E+01  0.58508072415E+02  0.14500149815E+03  0.15637861839E+03  0.10000000000E+01 0.  0.
<mgrwt>
<rscale>  0 0.12499969E+03</rscale>
<asrwt>0</asrwt>
<pdfrwt beam="2">  1        4 0.26911117E-02 0.12499969E+03</pdfrwt>
<pdfrwt beam="1">  1       -4 0.34355748E-01 0.12499969E+03</pdfrwt>
<totfact> 0.83678269E+03</totfact>
</mgrwt>
</event>
<event>
 4    1  0.3311405E-002  0.1248362E+03  0.7818608E-02  0.1235326E+00
         -4   -1    0    0    0  501 -0.00000000000E+00  0.00000000000E+00  0.44521343435E+01  0.46297300366E+01  0.12700000000E+01 0.  1.
          4   -1    0    0  501    0  0.00000000000E+00 -0.00000000000E+00 -0.85779959889E+03  0.85780053903E+03  0.12700000000E+01 0.  1.
    9000005    1    1    2    0    0  0.53733364622E+02  0.31630281136E+02 -0.40804732184E+03  0.41278489074E+03  0.10000000000E+01 0.  0.
    9000005    1    1    2    0    0 -0.53733364622E+02 -0.31630281136E+02 -0.44530014271E+03  0.44964537833E+03  0.10000000000E+01 0.  0.
<mgrwt>
<rscale>  0 0.12483619E+03</rscale>
<asrwt>0</asrwt>
<pdfrwt beam="2">  1        4 0.13198277E+00 0.12483619E+03</pdfrwt>
<pdfrwt beam="1">  1       -4 0.69867795E-03 0.12483619E+03</pdfrwt>
<totfact> 0.35751747E+03</totfact>
</mgrwt>
</event>
<event>
 5    1  0.3311405E-002  0.1250020E+03  0.7818608E-02  0.1235066E+00
          4   -1    0    0  501    0  0.00000000000E+00  0.00000000000E+00  0.13529353278E+02  0.13588829976E+02  0.12700000000E+01 0.  1.
         -4   -1    0    0    0  501 -0.00000000000E+00 -0.00000000000E+00 -0.28803921628E+03  0.28804201606E+03  0.12700000000E+01 0.  1.
         25    2    1    2    0    0  0.00000000000E+00  0.00000000000E+00 -0.27450986300E+03  0.30163084604E+03  0.12500200956E+03 0.  0.
    9000005    1    3    3    0    0 -0.20341353658E+01 -0.30712049303E+02 -0.60172880131E+01  0.31377945027E+02  0.10000000000E+01 0.  0.
    9000005    1    3    3    0    0  0.20341353658E+01  0.30712049303E+02 -0.26849257499E+03  0.27025290101E+03  0.10000000000E+01 0.  0.
<mgrwt>
<rscale>  0 0.12500201E+03</rscale>
<asrwt>0</asrwt>
<pdfrwt beam="1">  1        4 0.20862297E-02 0.12500201E+03</pdfrwt>
<pdfrwt beam="2">  1       -4 0.44318511E-01 0.12500201E+03</pdfrwt>
<totfact> 0.75391362E+03</totfact>
</mgrwt>
</event>
<event>
 5    1  0.3311405E-002  0.1249959E+03  0.7818608E-02  0.1235076E+00
         -4   -1    0    0    0  501 -0.00000000000E+00  0.00000000000E+00  0.99068901176E+02  0.99077041136E+02  0.12700000000E+01 0. -1.
          4   -1    0    0  501    0  0.00000000000E+00 -0.00000000000E+00 -0.39407041827E+02  0.39427501132E+02  0.12700000000E+01 0. -1.
         25    2    1    2    0    0  0.00000000000E+00  0.00000000000E+00  0.59661859349E+02  0.13850454227E+03  0.12499588300E+03 0.  0.
    9000005    1    3    3    0    0 -0.71212708677E+01 -0.92712333646E+01  0.97851841619E+02  0.98552783700E+02  0.10000000000E+01 0.  0.
    9000005    1    3    3    0    0  0.71212708677E+01  0.92712333646E+01 -0.38189982270E+02  0.39951758568E+02  0.10000000000E+01 0.  0.
<mgrwt>
<rscale>  0 0.12499588E+03</rscale>
<asrwt>0</asrwt>
<pdfrwt beam="2">  1        4 0.60648219E-02 0.12499588E+03</pdfrwt>
<pdfrwt beam="1">  1       -4 0.15243569E-01 0.12499588E+03</pdfrwt>
<totfact> 0.10165617E+04</totfact>
</mgrwt>
</event>
<event>
 5    1  0.3311405E-002  0.1249980E+03  0.7818608E-02  0.1235072E+00
         -4   -1    0    0    0  501 -0.00000000000E+00  0.00000000000E+00  0.14912501398E+02  0.14966482484E+02  0.12700000000E+01 0.  1.
          4   -1    0    0  501    0  0.00000000000E+00 -0.00000000000E+00 -0.26140738516E+03  0.26141047018E+03  0.12700000000E+01 0.  1.
         25    2    1    2    0    0  0.00000000000E+00  0.00000000000E+00 -0.24649488377E+03  0.27637695266E+03  0.12499796894E+03 0.  0.
    9000005    1    3    3    0    0  0.31941647030E+02 -0.53677349177E+02 -0.12744053676E+03  0.14192821086E+03  0.10000000000E+01 0.  0.
    9000005    1    3    3    0    0 -0.31941647030E+02  0.53677349177E+02 -0.11905434701E+03  0.13444874180E+03  0.10000000000E+01 0.  0.
<mgrwt>
<rscale>  0 0.12499797E+03</rscale>
<asrwt>0</asrwt>
<pdfrwt beam="2">  1        4 0.40220907E-01 0.12499797E+03</pdfrwt>
<pdfrwt beam="1">  1       -4 0.22986209E-02 0.12499797E+03</pdfrwt>
<totfact> 0.78664514E+03</totfact>
</mgrwt>
</event>
<event>
 5    1  0.3311405E-002  0.1250001E+03  0.7818608E-02  0.1235069E+00
         -4   -1    0    0    0  501 -0.00000000000E+00  0.00000000000E+00  0.13379094808E+03  0.13379697563E+03  0.12700000000E+01 0. -1.
          4   -1    0    0  501    0  0.00000000000E+00 -0.00000000000E+00 -0.29176217724E+02  0.29203845306E+02  0.12700000000E+01 0. -1.
         25    2    1    2    0    0  0.00000000000E+00  0.00000000000E+00  0.10461473036E+03  0.16300082094E+03  0.12500010328E+03 0.  0.
    9000005    1    3    3    0    0  0.42751718109E+02  0.44617794073E+02  0.64456295624E+02  0.89297653915E+02  0.10000000000E+01 0.  0.
    9000005    1    3    3    0    0 -0.42751718109E+02 -0.44617794073E+02  0.40158434735E+02  0.73703167025E+02  0.10000000000E+01 0.  0.
<mgrwt>
<rscale>  0 0.12500010E+03</rscale>
<asrwt>0</asrwt>
<pdfrwt beam="2">  1        4 0.44912378E-02 0.12500010E+03</pdfrwt>
<pdfrwt beam="1">  1       -4 0.20585812E-01 0.12500010E+03</pdfrwt>
<totfact> 0.96767126E+03</totfact>
</mgrwt>
</event>
<event>
 5    1  0.3311405E-002  0.1249989E+03  0.7818608E-02  0.1235071E+00
         -4   -1    0    0    0  501 -0.00000000000E+00  0.00000000000E+00  0.11761528684E+04  0.11761535541E+04  0.12700000000E+01 0.  1.
          4   -1    0    0  501    0  0.00000000000E+00 -0.00000000000E+00 -0.31990255880E+01  0.34418984170E+01  0.12700000000E+01 0.  1.
         25    2    1    2    0    0  0.00000000000E+00  0.00000000000E+00  0.11729538428E+04  0.11795954525E+04  0.12499885661E+03 0.  0.
    9000005    1    3    3    0    0 -0.57007161132E+02 -0.14570987621E+02  0.38784334869E+03  0.39228254259E+03  0.10000000000E+01 0.  0.
    9000005    1    3    3    0    0  0.57007161132E+02  0.14570987621E+02  0.78511049416E+03  0.78731290993E+03  0.10000000000E+01 0.  0.
<mgrwt>
<rscale>  0 0.12499886E+03</rscale>
<asrwt>0</asrwt>
<pdfrwt beam="2">  1        4 0.51089257E-03 0.12499886E+03</pdfrwt>
<pdfrwt beam="1">  1       -4 0.18096550E+00 0.12499886E+03</pdfrwt>
<totfact> 0.25253771E+03</totfact>
</mgrwt>
</event>
<event>
 5    1  0.3311405E-002  0.1249943E+03  0.7818608E-02  0.1235078E+00
         -4   -1    0    0    0  501 -0.00000000000E+00  0.00000000000E+00  0.80442860427E+02  0.80452884931E+02  0.12700000000E+01 0. -1.
          4   -1    0    0  501    0  0.00000000000E+00 -0.00000000000E+00 -0.48533520128E+02  0.48550133636E+02  0.12700000000E+01 0. -1.
         25    2    1    2    0    0  0.00000000000E+00  0.00000000000E+00  0.31909340299E+02  0.12900301857E+03  0.12499429107E+03 0.  0.
    9000005    1    3    3    0    0  0.25664179585E+02 -0.23180920830E+02  0.69670862361E+02  0.77788394163E+02  0.10000000000E+01 0.  0.
    9000005    1    3    3    0    0 -0.25664179585E+02  0.23180920830E+02 -0.37761522063E+02  0.51214624403E+02  0.10000000000E+01 0.  0.
<mgrwt>
<rscale>  0 0.12499429E+03</rscale>
<asrwt>0</asrwt>
<pdfrwt beam="2">  1        4 0.74687446E-02 0.12499429E+03</pdfrwt>
<pdfrwt beam="1">  1       -4 0.12377874E-01 0.12499429E+03</pdfrwt>
<totfact> 0.10367218E+04</totfact>
</mgrwt>
</event>
<event>
 5    1  0.3311405E-002  0.1249965E+03  0.7818608E-02  0.1235075E+00
         -4   -1    0    0    0  501 -0.00000000000E+00  0.00000000000E+00  0.18626084797E+02  0.18669331398E+02  0.12700000000E+01 0. -1.
          4   -1    0    0  501    0  0.00000000000E+00 -0.00000000000E+00 -0.20941915235E+03  0.20942300320E+03  0.12700000000E+01 0. -1.
         25    2    1    2    0    0  0.00000000000E+00  0.00000000000E+00 -0.19079306755E+03  0.22809233460E+03  0.12499647386E+03 0.  0.
    9000005    1    3    3    0    0 -0.22490313073E+02 -0.30866616777E+01  0.10844622525E+02  0.25178314085E+02  0.10000000000E+01 0.  0.
    9000005    1    3    3    0    0  0.22490313073E+02  0.30866616777E+01 -0.20163769008E+03  0.20291402052E+03  0.10000000000E+01 0.  0.
<mgrwt>
<rscale>  0 0.12499647E+03</rscale>
<asrwt>0</asrwt>
<pdfrwt beam="2">  1        4 0.32221952E-01 0.12499647E+03</pdfrwt>
<pdfrwt beam="1">  1       -4 0.28691745E-02 0.12499647E+03</pdfrwt>
<totfact> 0.85610121E+03</totfact>
</mgrwt>
</event>
<event>
 5    1  0.3311405E-002  0.1250018E+03  0.7818608E-02  0.1235066E+00
         -4   -1    0    0    0  501 -0.00000000000E+00  0.00000000000E+00  0.12580848214E+02  0.12644787139E+02  0.12700000000E+01 0. -1.
          4   -1    0    0  501    0  0.00000000000E+00 -0.00000000000E+00 -0.30964839928E+03  0.30965100367E+03  0.12700000000E+01 0. -1.
         25    2    1    2    0    0  0.00000000000E+00  0.00000000000E+00 -0.29706755106E+03  0.32229579081E+03  0.12500178751E+03 0.  0.
    9000005    1    3    3    0    0  0.56277306221E+02 -0.15767094632E+02 -0.91481849036E+02  0.10856180347E+03  0.10000000000E+01 0.  0.
    9000005    1    3    3    0    0 -0.56277306221E+02  0.15767094632E+02 -0.20558570202E+03  0.21373398734E+03  0.10000000000E+01 0.  0.
<mgrwt>
<rscale>  0 0.12500179E+03</rscale>
<asrwt>0</asrwt>
<pdfrwt beam="2">  1        4 0.47643328E-01 0.12500179E+03</pdfrwt>
<pdfrwt beam="1">  1       -4 0.19406341E-02 0.12500179E+03</pdfrwt>
<totfact> 0.72881016E+03</totfact>
</mgrwt>
</event>
<event>
 5    1  0.3311405E-002  0.1249980E+03  0.7818608E-02  0.1235072E+00
          4   -1    0    0  501    0  0.00000000000E+00  0.00000000000E+00  0.96042636484E+02  0.96051032908E+02  0.12700000000E+01 0.  1.
         -4   -1    0    0    0  501 -0.00000000000E+00 -0.00000000000E+00 -0.40650630568E+02  0.40670464290E+02  0.12700000000E+01 0.  1.
         25    2    1    2    0    0  0.00000000000E+00  0.00000000000E+00  0.55392005916E+02  0.13672149720E+03  0.12499797389E+03 0.  0.
    9000005    1    3    3    0    0 -0.43269608386E+02  0.34432123477E+01 -0.21476002142E+02  0.48438965608E+02  0.10000000000E+01 0.  0.
    9000005    1    3    3    0    0  0.43269608386E+02 -0.34432123477E+01  0.76868008058E+02  0.88282531590E+02  0.10000000000E+01 0.  0.
<mgrwt>
<rscale>  0 0.12499797E+03</rscale>
<asrwt>0</asrwt>
<pdfrwt beam="1">  1        4 0.14777962E-01 0.12499797E+03</pdfrwt>
<pdfrwt beam="2">  1       -4 0.62561148E-02 0.12499797E+03</pdfrwt>
<totfact> 0.10202378E+04</totfact>
</mgrwt>
</event>
<event>
 5    1  0.3311405E-002  0.1250034E+03  0.7818608E-02  0.1235064E+00
         -4   -1    0    0    0  501 -0.00000000000E+00  0.00000000000E+00  0.12254295241E+04  0.12254301822E+04  0.12700000000E+01 0.  1.
          4   -1    0    0  501    0  0.00000000000E+00 -0.00000000000E+00 -0.30606587171E+01  0.33136885464E+01  0.12700000000E+01 0.  1.
         25    2    1    2    0    0  0.00000000000E+00  0.00000000000E+00  0.12223688654E+04  0.12287438708E+04  0.12500342727E+03 0.  0.
    9000005    1    3    3    0    0 -0.61728276144E+01 -0.58751624673E+02  0.41079220489E+03  0.41501938847E+03  0.10000000000E+01 0.  0.
    9000005    1    3    3    0    0  0.61728276144E+01  0.58751624673E+02  0.81157666051E+03  0.81372448229E+03  0.10000000000E+01 0.  0.
<mgrwt>
<rscale>  0 0.12500343E+03</rscale>
<asrwt>0</asrwt>
<pdfrwt beam="2">  1        4 0.49038501E-03 0.12500343E+03</pdfrwt>
<pdfrwt beam="1">  1       -4 0.18854714E+00 0.12500343E+03</pdfrwt>
<totfact> 0.23970748E+03</totfact>
</mgrwt>
</event>
<event>
 5    1  0.3311405E-002  0.1250012E+03  0.7818608E-02  0.1235067E+00
          4   -1    0    0  501    0  0.00000000000E+00  0.00000000000E+00  0.23533246346E+03  0.23533589029E+03  0.12700000000E+01 0.  1.
         -4   -1    0    0    0  501 -0.00000000000E+00 -0.00000000000E+00 -0.16571337909E+02  0.16619932013E+02  0.12700000000E+01 0.  1.
         25    2    1    2    0    0  0.00000000000E+00  0.00000000000E+00  0.21876112555E+03  0.25195582230E+03  0.12500122535E+03 0.  0.
    9000005    1    3    3    0    0 -0.10205440060E+01 -0.30039515477E+02  0.21981617652E+03  0.22186384442E+03  0.10000000000E+01 0.  0.
    9000005    1    3    3    0    0  0.10205440060E+01  0.30039515477E+02 -0.10550509727E+01  0.30091977880E+02  0.10000000000E+01 0.  0.
<mgrwt>
<rscale>  0 0.12500123E+03</rscale>
<asrwt>0</asrwt>
<pdfrwt beam="1">  1        4 0.36208993E-01 0.12500123E+03</pdfrwt>
<pdfrwt beam="2">  1       -4 0.25534384E-02 0.12500123E+03</pdfrwt>
<totfact> 0.82046133E+03</totfact>
</mgrwt>
</event>
<event>
 5    1  0.3311405E-002  0.1250012E+03  0.7818608E-02  0.1235067E+00
         -4   -1    0    0    0  501 -0.00000000000E+00  0.00000000000E+00  0.21752839239E+03  0.21753209969E+03  0.12700000000E+01 0. -1.
          4   -1    0    0  501    0  0.00000000000E+00 -0.00000000000E+00 -0.17931464390E+02  0.17976382149E+02  0.12700000000E+01 0. -1.
         25    2    1    2    0    0  0.00000000000E+00  0.00000000000E+00  0.19959692800E+03  0.23550848184E+03  0.12500124540E+03 0.  0.
    9000005    1    3    3    0    0  0.52071641610E+02 -0.12493432756E+02  0.16049251720E+03  0.16919335034E+03  0.10000000000E+01 0.  0.
    9000005    1    3    3    0    0 -0.52071641610E+02  0.12493432756E+02  0.39104410803E+02  0.66315131502E+02  0.10000000000E+01 0.  0.
<mgrwt>
<rscale>  0 0.12500125E+03</rscale>
<asrwt>0</asrwt>
<pdfrwt beam="2">  1        4 0.27624272E-02 0.12500125E+03</pdfrwt>
<pdfrwt beam="1">  1       -4 0.33469647E-01 0.12500125E+03</pdfrwt>
<totfact> 0.84468532E+03</totfact>
</mgrwt>
</event>
<event>
 5    1  0.3311405E-002  0.1250000E+03  0.7818608E-02  0.1235069E+00
         -4   -1    0    0    0  501 -0.00000000000E+00  0.00000000000E+00  0.18058209462E+02  0.18102812737E+02  0.12700000000E+01 0. -1.
          4   -1    0    0  501    0  0.00000000000E+00 -0.00000000000E+00 -0.21600117363E+03  0.21600490714E+03  0.12700000000E+01 0. -1.
         25    2    1    2    0    0  0.00000000000E+00  0.00000000000E+00 -0.19794296416E+03  0.23410771988E+03  0.12500002977E+03 0.  0.
    9000005    1    3    3    0    0  0.15931072822E+02  0.10823354110E+02 -0.21031317039E+03  0.21119558166E+03  0.10000000000E+01 0.  0.
    9000005    1    3    3    0    0 -0.15931072822E+02 -0.10823354110E+02  0.12370206224E+02  0.22912138212E+02  0.10000000000E+01 0.  0.
<mgrwt>
<rscale>  0 0.12500003E+03</rscale>
<asrwt>0</asrwt>
<pdfrwt beam="2">  1        4 0.33234666E-01 0.12500003E+03</pdfrwt>
<pdfrwt beam="1">  1       -4 0.27819044E-02 0.12500003E+03</pdfrwt>
<totfact> 0.84682763E+03</totfact>
</mgrwt>
</event>
<event>
 5    1  0.3311405E-002  0.1249901E+03  0.7818608E-02  0.1235085E+00
         -4   -1    0    0    0  501 -0.00000000000E+00  0.00000000000E+00  0.46198582692E+03  0.46198757253E+03  0.12700000000E+01 0.  1.
          4   -1    0    0  501    0  0.00000000000E+00 -0.00000000000E+00 -0.84045377595E+01  0.84999502911E+01  0.12700000000E+01 0.  1.
         25    2    1    2    0    0  0.00000000000E+00  0.00000000000E+00  0.45358128916E+03  0.47048752283E+03  0.12499009263E+03 0.  0.
    9000005    1    3    3    0    0 -0.11683210578E+02 -0.22790115476E+02  0.12239780170E+02  0.28402446927E+02  0.10000000000E+01 0.  0.
    9000005    1    3    3    0    0  0.11683210578E+02  0.22790115476E+02  0.44134150899E+03  0.44208507590E+03  0.10000000000E+01 0.  0.
<mgrwt>
<rscale>  0 0.12499009E+03</rscale>
<asrwt>0</asrwt>
<pdfrwt beam="2">  1        4 0.13004799E-02 0.12499009E+03</pdfrwt>
<pdfrwt beam="1">  1       -4 0.71082194E-01 0.12499009E+03</pdfrwt>
<totfact> 0.58241866E+03</totfact>
</mgrwt>
</event>
<event>
 5    1  0.3311405E-002  0.1250030E+03  0.7818608E-02  0.1235065E+00
          4   -1    0    0  501    0  0.00000000000E+00  0.00000000000E+00  0.33752191751E+02  0.33776076563E+02  0.12700000000E+01 0. -1.
         -4   -1    0    0    0  501 -0.00000000000E+00 -0.00000000000E+00 -0.11567049590E+03  0.11567746765E+03  0.12700000000E+01 0. -1.
         25    2    1    2    0    0  0.00000000000E+00  0.00000000000E+00 -0.81918304150E+02  0.14945354421E+03  0.12500301325E+03 0.  0.
    9000005    1    3    3    0    0  0.58053264386E+00  0.60277071707E+02 -0.60669361512E+02  0.85530309353E+02  0.10000000000E+01 0.  0.
    9000005    1    3    3    0    0 -0.58053264386E+00 -0.60277071707E+02 -0.21248942638E+02  0.63923234860E+02  0.10000000000E+01 0.  0.
<mgrwt>
<rscale>  0 0.12500301E+03</rscale>
<asrwt>0</asrwt>
<pdfrwt beam="1">  1        4 0.51950185E-02 0.12500301E+03</pdfrwt>
<pdfrwt beam="2">  1       -4 0.17797834E-01 0.12500301E+03</pdfrwt>
<totfact> 0.99405995E+03</totfact>
</mgrwt>
</event>
<event>
 5    1  0.3311405E-002  0.1250138E+03  0.7818608E-02  0.1235048E+00
          4   -1    0    0  501    0  0.00000000000E+00  0.00000000000E+00  0.17776408425E+02  0.17821716991E+02  0.12700000000E+01 0. -1.
         -4   -1    0    0    0  501 -0.00000000000E+00 -0.00000000000E+00 -0.21946495555E+03  0.21946863014E+03  0.12700000000E+01 0. -1.
         25    2    1    2    0    0  0.00000000000E+00  0.00000000000E+00 -0.20168854713E+03  0.23729034713E+03  0.12501375444E+03 0.  0.
    9000005    1    3    3    0    0 -0.44793116122E+02 -0.13580891122E+02 -0.22232886125E+02  0.51828226683E+02  0.10000000000E+01 0.  0.
    9000005    1    3    3    0    0  0.44793116122E+02  0.13580891122E+02 -0.17945566100E+03  0.18546212045E+03  0.10000000000E+01 0.  0.
<mgrwt>
<rscale>  0 0.12501375E+03</rscale>
<asrwt>0</asrwt>
<pdfrwt beam="1">  1        4 0.27386002E-02 0.12501375E+03</pdfrwt>
<pdfrwt beam="2">  1       -4 0.33767605E-01 0.12501375E+03</pdfrwt>
<totfact> 0.84176765E+03</totfact>
</mgrwt>
</event>
<event>
 5    1  0.3311405E-002  0.1250003E+03  0.7818608E-02  0.1235069E+00
          4   -1    0    0  501    0  0.00000000000E+00  0.00000000000E+00  0.24893365181E+02  0.24925740310E+02  0.12700000000E+01 0.  1.
         -4   -1    0    0    0  501 -0.00000000000E+00 -0.00000000000E+00 -0.15678304220E+03  0.15678818585E+03  0.12700000000E+01 0.  1.
         25    2    1    2    0    0  0.00000000000E+00  0.00000000000E+00 -0.13188967702E+03  0.18171392616E+03  0.12500025622E+03 0.  0.
    9000005    1    3    3    0    0  0.51031855766E+02 -0.20133454813E+02 -0.10945080566E+03  0.12243400331E+03  0.10000000000E+01 0.  0.
    9000005    1    3    3    0    0 -0.51031855766E+02  0.20133454813E+02 -0.22438871358E+02  0.59279922853E+02  0.10000000000E+01 0.  0.
<mgrwt>
<rscale>  0 0.12500026E+03</rscale>
<asrwt>0</asrwt>
<pdfrwt beam="1">  1        4 0.38326346E-02 0.12500026E+03</pdfrwt>
<pdfrwt beam="2">  1       -4 0.24123354E-01 0.12500026E+03</pdfrwt>
<totfact> 0.93308862E+03</totfact>
</mgrwt>
</event>
<event>
 5    1  0.3311405E-002  0.1249519E+03  0.7818608E-02  0.1235144E+00
         -4   -1    0    0    0  501 -0.00000000000E+00  0.00000000000E+00  0.13878061807E+02  0.13936050355E+02  0.12700000000E+01 0. -1.
          4   -1    0    0  501    0  0.00000000000E+00 -0.00000000000E+00 -0.28060700078E+03  0.28060987472E+03  0.12700000000E+01 0. -1.
         25    2    1    2    0    0  0.00000000000E+00  0.00000000000E+00 -0.26672893897E+03  0.29454592507E+03  0.12495189110E+03 0.  0.
    9000005    1    3    3    0    0  0.74488561894E+01 -0.19008025048E+02  0.58036693893E+01  0.21247895263E+02  0.10000000000E+01 0.  0.
    9000005    1    3    3    0    0 -0.74488561894E+01  0.19008025048E+02 -0.27253260836E+03  0.27329802981E+03  0.10000000000E+01 0.  0.
<mgrwt>
<rscale>  0 0.12495189E+03</rscale>
<asrwt>0</asrwt>
<pdfrwt beam="2">  1        4 0.43174985E-01 0.12495189E+03</pdfrwt>
<pdfrwt beam="1">  1       -4 0.21397684E-02 0.12495189E+03</pdfrwt>
<totfact> 0.76369682E+03</totfact>
</mgrwt>
</event>
<event>
 5    1  0.3311405E-002  0.1249975E+03  0.7818608E-02  0.1235073E+00
          4   -1    0    0  501    0  0.00000000000E+00  0.00000000000E+00  0.14556363631E+02  0.14611660486E+02  0.12700000000E+01 0.  1.
         -4   -1    0    0    0  501 -0.00000000000E+00 -0.00000000000E+00 -0.26777713008E+03  0.26778014171E+03  0.12700000000E+01 0.  1.
         25    2    1    2    0    0  0.00000000000E+00  0.00000000000E+00 -0.25322076645E+03  0.28239180219E+03  0.12499749352E+03 0.  0.
    9000005    1    3    3    0    0  0.20353384011E+00 -0.62394971231E+02 -0.13441011262E+03  0.14818991948E+03  0.10000000000E+01 0.  0.
    9000005    1    3    3    0    0 -0.20353384011E+00  0.62394971231E+02 -0.11881065382E+03  0.13420188271E+03  0.10000000000E+01 0.  0.
<mgrwt>
<rscale>  0 0.12499749E+03</rscale>
<asrwt>0</asrwt>
<pdfrwt beam="1">  1        4 0.22439260E-02 0.12499749E+03</pdfrwt>
<pdfrwt beam="2">  1       -4 0.41200963E-01 0.12499749E+03</pdfrwt>
<totfact> 0.77866374E+03</totfact>
</mgrwt>
</event>
<event>
 5    1  0.3311405E-002  0.1249819E+03  0.7818608E-02  0.1235098E+00
         -4   -1    0    0    0  501 -0.00000000000E+00  0.00000000000E+00  0.12500978363E+04  0.12500984814E+04  0.12700000000E+01 0.  1.
          4   -1    0    0  501    0  0.00000000000E+00 -0.00000000000E+00 -0.29940997156E+01  0.32523119633E+01  0.12700000000E+01 0.  1.
         25    2    1    2    0    0  0.00000000000E+00  0.00000000000E+00  0.12471037366E+04  0.12533507933E+04  0.12498192447E+03 0.  0.
    9000005    1    3    3    0    0  0.36449255358E+02 -0.50698067230E+02  0.64659095349E+03  0.64959964853E+03  0.10000000000E+01 0.  0.
    9000005    1    3    3    0    0 -0.36449255358E+02  0.50698067230E+02  0.60051278307E+03  0.60375114482E+03  0.10000000000E+01 0.  0.
<mgrwt>
<rscale>  0 0.12498192E+03</rscale>
<asrwt>0</asrwt>
<pdfrwt beam="2">  1        4 0.48054268E-03 0.12498192E+03</pdfrwt>
<pdfrwt beam="1">  1       -4 0.19234271E+00 0.12498192E+03</pdfrwt>
<totfact> 0.23366180E+03</totfact>
</mgrwt>
</event>
<event>
 5    1  0.3311405E-002  0.1250004E+03  0.7818608E-02  0.1235069E+00
          4   -1    0    0  501    0  0.00000000000E+00  0.00000000000E+00  0.95791198580E+03  0.95791282768E+03  0.12700000000E+01 0.  1.
         -4   -1    0    0    0  501 -0.00000000000E+00 -0.00000000000E+00 -0.39781626931E+01  0.41759643692E+01  0.12700000000E+01 0.  1.
         25    2    1    2    0    0  0.00000000000E+00  0.00000000000E+00  0.95393382311E+03  0.96208879205E+03  0.12500041970E+03 0.  0.
    9000005    1    3    3    0    0  0.19886815709E+02  0.26261889069E+02  0.68237166415E+02  0.75779173503E+02  0.10000000000E+01 0.  0.
    9000005    1    3    3    0    0 -0.19886815709E+02 -0.26261889069E+02  0.88569665669E+03  0.88630961855E+03  0.10000000000E+01 0.  0.
<mgrwt>
<rscale>  0 0.12500042E+03</rscale>
<asrwt>0</asrwt>
<pdfrwt beam="1">  1        4 0.14738659E+00 0.12500042E+03</pdfrwt>
<pdfrwt beam="2">  1       -4 0.62730430E-03 0.12500042E+03</pdfrwt>
<totfact> 0.31890275E+03</totfact>
</mgrwt>
</event>
<event>
 5    1  0.3311405E-002  0.1250023E+03  0.7818608E-02  0.1235066E+00
         -4   -1    0    0    0  501 -0.00000000000E+00  0.00000000000E+00  0.57544942756E+01  0.58929707592E+01  0.12700000000E+01 0.  1.
          4   -1    0    0  501    0  0.00000000000E+00 -0.00000000000E+00 -0.67063188799E+03  0.67063309052E+03  0.12700000000E+01 0.  1.
         25    2    1    2    0    0  0.00000000000E+00  0.00000000000E+00 -0.66487739372E+03  0.67652606127E+03  0.12500225160E+03 0.  0.
    9000005    1    3    3    0    0  0.56785647467E+02 -0.30015256210E+01 -0.47271282684E+03  0.47612187051E+03  0.10000000000E+01 0.  0.
    9000005    1    3    3    0    0 -0.56785647467E+02  0.30015256210E+01 -0.19216456687E+03  0.20040419077E+03  0.10000000000E+01 0.  0.
<mgrwt>
<rscale>  0 0.12500225E+03</rscale>
<asrwt>0</asrwt>
<pdfrwt beam="2">  1        4 0.10318482E+00 0.12500225E+03</pdfrwt>
<pdfrwt beam="1">  1       -4 0.89605188E-03 0.12500225E+03</pdfrwt>
<totfact> 0.44352996E+03</totfact>
</mgrwt>
</event>
<event>
 5    1  0.3311405E-002  0.1249895E+03  0.7818608E-02  0.1235086E+00
          4   -1    0    0  501    0  0.00000000000E+00  0.00000000000E+00  0.14380320907E+03  0.14380881697E+03  0.12700000000E+01 0.  1.
         -4   -1    0    0    0  501 -0.00000000000E+00 -0.00000000000E+00 -0.27138285893E+02  0.27167985962E+02  0.12700000000E+01 0.  1.
         25    2    1    2    0    0  0.00000000000E+00  0.00000000000E+00  0.11666492318E+03  0.17097680294E+03  0.12498945092E+03 0.  0.
    9000005    1    3    3    0    0 -0.13271914028E+02 -0.28127895671E+02 -0.15804648893E+02  0.34901420365E+02  0.10000000000E+01 0.  0.
    9000005    1    3    3    0    0  0.13271914028E+02  0.28127895671E+02  0.13246957207E+03  0.13607538257E+03  0.10000000000E+01 0.  0.
<mgrwt>
<rscale>  0 0.12498945E+03</rscale>
<asrwt>0</asrwt>
<pdfrwt beam="1">  1        4 0.22126287E-01 0.12498945E+03</pdfrwt>
<pdfrwt beam="2">  1       -4 0.41778369E-02 0.12498945E+03</pdfrwt>
<totfact> 0.95289444E+03</totfact>
</mgrwt>
</event>
<event>
 5    1  0.3311405E-002  0.1250011E+03  0.7818608E-02  0.1235068E+00
          4   -1    0    0  501    0  0.00000000000E+00  0.00000000000E+00  0.30922086347E+03  0.30922347146E+03  0.12700000000E+01 0.  1.
         -4   -1    0    0    0  501 -0.00000000000E+00 -0.00000000000E+00 -0.12598189178E+02  0.12662040538E+02  0.12700000000E+01 0.  1.
         25    2    1    2    0    0  0.00000000000E+00  0.00000000000E+00  0.29662267429E+03  0.32188551200E+03  0.12500108773E+03 0.  0.
    9000005    1    3    3    0    0  0.19546986496E+02 -0.32458785509E+02  0.20341897192E+02  0.43016859708E+02  0.10000000000E+01 0.  0.
    9000005    1    3    3    0    0 -0.19546986496E+02  0.32458785509E+02  0.27628077709E+03  0.27886865229E+03  0.10000000000E+01 0.  0.
<mgrwt>
<rscale>  0 0.12500109E+03</rscale>
<asrwt>0</asrwt>
<pdfrwt beam="1">  1        4 0.47577548E-01 0.12500109E+03</pdfrwt>
<pdfrwt beam="2">  1       -4 0.19432954E-02 0.12500109E+03</pdfrwt>
<totfact> 0.72930672E+03</totfact>
</mgrwt>
</event>
<event>
 5    1  0.3311405E-002  0.1250023E+03  0.7818608E-02  0.1235066E+00
          4   -1    0    0  501    0  0.00000000000E+00  0.00000000000E+00  0.90432250236E+02  0.90441167522E+02  0.12700000000E+01 0. -1.
         -4   -1    0    0    0  501 -0.00000000000E+00 -0.00000000000E+00 -0.43176509753E+02  0.43195183696E+02  0.12700000000E+01 0. -1.
         25    2    1    2    0    0  0.00000000000E+00  0.00000000000E+00  0.47255740483E+02  0.13363635122E+03  0.12500227741E+03 0.  0.
    9000005    1    3    3    0    0  0.50484813005E+02  0.15015373170E+02  0.59584516514E+02  0.79532964133E+02  0.10000000000E+01 0.  0.
    9000005    1    3    3    0    0 -0.50484813005E+02 -0.15015373170E+02 -0.12328776031E+02  0.54103387085E+02  0.10000000000E+01 0.  0.
<mgrwt>
<rscale>  0 0.12500228E+03</rscale>
<asrwt>0</asrwt>
<pdfrwt beam="1">  1        4 0.13914776E-01 0.12500228E+03</pdfrwt>
<pdfrwt beam="2">  1       -4 0.66446623E-02 0.12500228E+03</pdfrwt>
<totfact> 0.10266366E+04</totfact>
</mgrwt>
</event>
<event>
 5    1  0.3311405E-002  0.1249994E+03  0.7818608E-02  0.1235070E+00
          4   -1    0    0  501    0  0.00000000000E+00  0.00000000000E+00  0.24829744768E+03  0.24830069558E+03  0.12700000000E+01 0. -1.
         -4   -1    0    0    0  501 -0.00000000000E+00 -0.00000000000E+00 -0.15702994174E+02  0.15754266915E+02  0.12700000000E+01 0. -1.
         25    2    1    2    0    0  0.00000000000E+00  0.00000000000E+00  0.23259445351E+03  0.26405496249E+03  0.12499937366E+03 0.  0.
    9000005    1    3    3    0    0  0.24539559531E+02  0.53500969693E+02  0.71952516921E+02  0.92966168208E+02  0.10000000000E+01 0.  0.
    9000005    1    3    3    0    0 -0.24539559531E+02 -0.53500969693E+02  0.16064193659E+03  0.17108879429E+03  0.10000000000E+01 0.  0.
<mgrwt>
<rscale>  0 0.12499937E+03</rscale>
<asrwt>0</asrwt>
<pdfrwt beam="1">  1        4 0.38203801E-01 0.12499937E+03</pdfrwt>
<pdfrwt beam="2">  1       -4 0.24200392E-02 0.12499937E+03</pdfrwt>
<totfact> 0.80341470E+03</totfact>
</mgrwt>
</event>
<event>
 5    1  0.3311405E-002  0.1250005E+03  0.7818608E-02  0.1235068E+00
          4   -1    0    0  501    0  0.00000000000E+00  0.00000000000E+00  0.22082672395E+02  0.22119161831E+02  0.12700000000E+01 0.  1.
         -4   -1    0    0    0  501 -0.00000000000E+00 -0.00000000000E+00 -0.17670881069E+03  0.17671337435E+03  0.12700000000E+01 0.  1.
         25    2    1    2    0    0  0.00000000000E+00  0.00000000000E+00 -0.15462613829E+03  0.19883253618E+03  0.12500053920E+03 0.  0.
    9000005    1    3    3    0    0 -0.67381611382E+01  0.57708016309E+02 -0.11392111160E+03  0.12788525181E+03  0.10000000000E+01 0.  0.
    9000005    1    3    3    0    0  0.67381611382E+01 -0.57708016309E+02 -0.40705026692E+02  0.70947284373E+02  0.10000000000E+01 0.  0.
<mgrwt>
<rscale>  0 0.12500054E+03</rscale>
<asrwt>0</asrwt>
<pdfrwt beam="1">  1        4 0.34004923E-02 0.12500054E+03</pdfrwt>
<pdfrwt beam="2">  1       -4 0.27189128E-01 0.12500054E+03</pdfrwt>
<totfact> 0.90331693E+03</totfact>
</mgrwt>
</event>
<event>
 5    1  0.3311405E-002  0.1250008E+03  0.7818608E-02  0.1235068E+00
          4   -1    0    0  501    0  0.00000000000E+00  0.00000000000E+00  0.80037544916E+01  0.81038870897E+01  0.12700000000E+01 0.  1.
         -4   -1    0    0    0  501 -0.00000000000E+00 -0.00000000000E+00 -0.48492354956E+03  0.48492521260E+03  0.12700000000E+01 0.  1.
         25    2    1    2    0    0  0.00000000000E+00  0.00000000000E+00 -0.47691979507E+03  0.49302909969E+03  0.12500080886E+03 0.  0.
    9000005    1    3    3    0    0  0.48304999810E+02 -0.34537052510E+02 -0.16166226704E+03  0.17222621632E+03  0.10000000000E+01 0.  0.
    9000005    1    3    3    0    0 -0.48304999810E+02  0.34537052510E+02 -0.31525752802E+03  0.32080288337E+03  0.10000000000E+01 0.  0.
<mgrwt>
<rscale>  0 0.12500081E+03</rscale>
<asrwt>0</asrwt>
<pdfrwt beam="1">  1        4 0.12391777E-02 0.12500081E+03</pdfrwt>
<pdfrwt beam="2">  1       -4 0.74611431E-01 0.12500081E+03</pdfrwt>
<totfact> 0.56408314E+03</totfact>
</mgrwt>
</event>
<event>
 4    1  0.3311405E-002  0.1260514E+03  0.7818608E-02  0.1233435E+00
          4   -1    0    0  501    0  0.00000000000E+00  0.00000000000E+00  0.48697477455E+02  0.48714035046E+02  0.12700000000E+01 0. -1.
         -4   -1    0    0    0  501 -0.00000000000E+00 -0.00000000000E+00 -0.81534367221E+02  0.81544257543E+02  0.12700000000E+01 0. -1.
    9000005    1    1    2    0    0  0.42858636879E+02  0.38766076812E+02  0.95513185085E+01  0.58582413332E+02  0.10000000000E+01 0.  0.
    9000005    1    1    2    0    0 -0.42858636879E+02 -0.38766076812E+02 -0.42388208274E+02  0.71675879257E+02  0.10000000000E+01 0.  0.
<mgrwt>
<rscale>  0 0.12605142E+03</rscale>
<asrwt>0</asrwt>
<pdfrwt beam="1">  1        4 0.74939541E-02 0.12605142E+03</pdfrwt>
<pdfrwt beam="2">  1       -4 0.12545783E-01 0.12605142E+03</pdfrwt>
<totfact> 0.10097393E+04</totfact>
</mgrwt>
</event>
<event>
 5    1  0.3311405E-002  0.1250002E+03  0.7818608E-02  0.1235069E+00
         -4   -1    0    0    0  501 -0.00000000000E+00  0.00000000000E+00  0.20144619237E+01  0.23813770894E+01  0.12700000000E+01 0. -1.
          4   -1    0    0  501    0  0.00000000000E+00 -0.00000000000E+00 -0.17768871942E+04  0.17768876481E+04  0.12700000000E+01 0. -1.
         25    2    1    2    0    0  0.00000000000E+00  0.00000000000E+00 -0.17748727323E+04  0.17792690252E+04  0.12500019225E+03 0.  0.
    9000005    1    3    3    0    0 -0.20699385405E+02  0.58956179323E+02 -0.90142916786E+03  0.90359274029E+03  0.10000000000E+01 0.  0.
    9000005    1    3    3    0    0  0.20699385405E+02 -0.58956179323E+02 -0.87344356442E+03  0.87567628486E+03  0.10000000000E+01 0.  0.
<mgrwt>
<rscale>  0 0.12500019E+03</rscale>
<asrwt>0</asrwt>
<pdfrwt beam="2">  1        4 0.27339437E+00 0.12500019E+03</pdfrwt>
<pdfrwt beam="1">  1       -4 0.33817780E-03 0.12500019E+03</pdfrwt>
<totfact> 0.13025663E+03</totfact>
</mgrwt>
</event>
<event>
 5    1  0.3311405E-002  0.1249891E+03  0.7818608E-02  0.1235086E+00
         -4   -1    0    0    0  501 -0.00000000000E+00  0.00000000000E+00  0.10960292297E+02  0.11033626205E+02  0.12700000000E+01 0. -1.
          4   -1    0    0  501    0  0.00000000000E+00 -0.00000000000E+00 -0.35507544931E+03  0.35507772051E+03  0.12700000000E+01 0. -1.
         25    2    1    2    0    0  0.00000000000E+00  0.00000000000E+00 -0.34411515702E+03  0.36611134672E+03  0.12498910715E+03 0.  0.
    9000005    1    3    3    0    0  0.18211460988E+02 -0.36481241632E+02 -0.33362253524E+02  0.52693246840E+02  0.10000000000E+01 0.  0.
    9000005    1    3    3    0    0 -0.18211460988E+02  0.36481241632E+02 -0.31075290349E+03  0.31341809988E+03  0.10000000000E+01 0.  0.
<mgrwt>
<rscale>  0 0.12498911E+03</rscale>
<asrwt>0</asrwt>
<pdfrwt beam="2">  1        4 0.54632799E-01 0.12498911E+03</pdfrwt>
<pdfrwt beam="1">  1       -4 0.16920149E-02 0.12498911E+03</pdfrwt>
<totfact> 0.68004117E+03</totfact>
</mgrwt>
</event>
<event>
 5    1  0.3311405E-002  0.1250005E+03  0.7818608E-02  0.1235069E+00
          4   -1    0    0  501    0  0.00000000000E+00  0.00000000000E+00  0.18435708273E+02  0.18479400411E+02  0.12700000000E+01 0.  1.
         -4   -1    0    0    0  501 -0.00000000000E+00 -0.00000000000E+00 -0.21159026927E+03  0.21159408061E+03  0.12700000000E+01 0.  1.
         25    2    1    2    0    0  0.00000000000E+00  0.00000000000E+00 -0.19315456100E+03  0.23007348102E+03  0.12500048894E+03 0.  0.
    9000005    1    3    3    0    0 -0.51115401074E+02  0.30216892459E+02 -0.60724406837E+02  0.84937026099E+02  0.10000000000E+01 0.  0.
    9000005    1    3    3    0    0  0.51115401074E+02 -0.30216892459E+02 -0.13243015416E+03  0.14513645492E+03  0.10000000000E+01 0.  0.
<mgrwt>
<rscale>  0 0.12500049E+03</rscale>
<asrwt>0</asrwt>
<pdfrwt beam="1">  1        4 0.28399171E-02 0.12500049E+03</pdfrwt>
<pdfrwt beam="2">  1       -4 0.32556002E-01 0.12500049E+03</pdfrwt>
<totfact> 0.85297385E+03</totfact>
</mgrwt>
</event>
<event>
 5    1  0.3311405E-002  0.1250003E+03  0.7818608E-02  0.1235069E+00
         -4   -1    0    0    0  501 -0.00000000000E+00  0.00000000000E+00  0.87132193344E+02  0.87141448329E+02  0.12700000000E+01 0. -1.
          4   -1    0    0  501    0  0.00000000000E+00 -0.00000000000E+00 -0.44810918847E+02  0.44828911964E+02  0.12700000000E+01 0. -1.
         25    2    1    2    0    0  0.00000000000E+00  0.00000000000E+00  0.42321274497E+02  0.13197036029E+03  0.12500034288E+03 0.  0.
    9000005    1    3    3    0    0  0.50260188913E+02 -0.17153742045E+02  0.55935614351E+02  0.77137088411E+02  0.10000000000E+01 0.  0.
    9000005    1    3    3    0    0 -0.50260188913E+02  0.17153742045E+02 -0.13614339854E+02  0.54833271883E+02  0.10000000000E+01 0.  0.
<mgrwt>
<rscale>  0 0.12500034E+03</rscale>
<asrwt>0</asrwt>
<pdfrwt beam="2">  1        4 0.68960836E-02 0.12500034E+03</pdfrwt>
<pdfrwt beam="1">  1       -4 0.13407049E-01 0.12500034E+03</pdfrwt>
<totfact> 0.10302251E+04</totfact>
</mgrwt>
</event>
<event>
 5    1  0.3311405E-002  0.1249905E+03  0.7818608E-02  0.1235084E+00
         -4   -1    0    0    0  501 -0.00000000000E+00  0.00000000000E+00  0.67715375597E+03  0.67715494691E+03  0.12700000000E+01 0. -1.
          4   -1    0    0  501    0  0.00000000000E+00 -0.00000000000E+00 -0.56966342430E+01  0.58364836758E+01  0.12700000000E+01 0. -1.
         25    2    1    2    0    0  0.00000000000E+00  0.00000000000E+00  0.67145712173E+03  0.68299143058E+03  0.12499051138E+03 0.  0.
    9000005    1    3    3    0    0  0.30722474503E+02  0.98305632276E+01  0.62816792385E+03  0.62899638391E+03  0.10000000000E+01 0.  0.
    9000005    1    3    3    0    0 -0.30722474503E+02 -0.98305632276E+01  0.43289197872E+02  0.53995046675E+02  0.10000000000E+01 0.  0.
<mgrwt>
<rscale>  0 0.12499051E+03</rscale>
<asrwt>0</asrwt>
<pdfrwt beam="2">  1        4 0.88725556E-03 0.12499051E+03</pdfrwt>
<pdfrwt beam="1">  1       -4 0.10418823E+00 0.12499051E+03</pdfrwt>
<totfact> 0.44009074E+03</totfact>
</mgrwt>
</event>
<event>
 5    1  0.3311405E-002  0.1250011E+03  0.7818608E-02  0.1235068E+00
          4   -1    0    0  501    0  0.00000000000E+00  0.00000000000E+00  0.64859703443E+02  0.64872136012E+02  0.12700000000E+01 0.  1.
         -4   -1    0    0    0  501 -0.00000000000E+00 -0.00000000000E+00 -0.60202281970E+02  0.60215676152E+02  0.12700000000E+01 0.  1.
         25    2    1    2    0    0  0.00000000000E+00  0.00000000000E+00  0.46574214734E+01  0.12508781216E+03  0.12500107670E+03 0.  0.
    9000005    1    3    3    0    0 -0.42362036214E+02  0.45902835332E+02  0.42548555354E+01  0.62615622646E+02  0.10000000000E+01 0.  0.
    9000005    1    3    3    0    0  0.42362036214E+02 -0.45902835332E+02  0.40256593803E+00  0.62472189517E+02  0.10000000000E+01 0.  0.
<mgrwt>
<rscale>  0 0.12500108E+03</rscale>
<asrwt>0</asrwt>
<pdfrwt beam="1">  1        4 0.99804025E-02 0.12500108E+03</pdfrwt>
<pdfrwt beam="2">  1       -4 0.92638763E-02 0.12500108E+03</pdfrwt>
<totfact> 0.10450701E+04</totfact>
</mgrwt>
</event>
<event>
 5    1  0.3311405E-002  0.1249973E+03  0.7818608E-02  0.1235074E+00
         -4   -1    0    0    0  501 -0.00000000000E+00  0.00000000000E+00  0.65888105722E+02  0.65900344275E+02  0.12700000000E+01 0. -1.
          4   -1    0    0  501    0  0.00000000000E+00 -0.00000000000E+00 -0.59258969613E+02  0.59272576961E+02  0.12700000000E+01 0. -1.
         25    2    1    2    0    0  0.00000000000E+00  0.00000000000E+00  0.66291361089E+01  0.12517292124E+03  0.12499725903E+03 0.  0.
    9000005    1    3    3    0    0 -0.17465821747E+02  0.36400534664E+02 -0.44449682652E+02  0.60056874219E+02  0.10000000000E+01 0.  0.
    9000005    1    3    3    0    0  0.17465821747E+02 -0.36400534664E+02  0.51078818761E+02  0.65116047017E+02  0.10000000000E+01 0.  0.
<mgrwt>
<rscale>  0 0.12499726E+03</rscale>
<asrwt>0</asrwt>
<pdfrwt beam="2">  1        4 0.91187527E-02 0.12499726E+03</pdfrwt>
<pdfrwt beam="1">  1       -4 0.10138620E-01 0.12499726E+03</pdfrwt>
<totfact> 0.10449755E+04</totfact>
</mgrwt>
</event>
<event>
 5    1  0.3311405E-002  0.1250006E+03  0.7818608E-02  0.1235068E+00
         -4   -1    0    0    0  501 -0.00000000000E+00  0.00000000000E+00  0.63512795776E+02  0.63525491948E+02  0.12700000000E+01 0. -1.
          4   -1    0    0  501    0  0.00000000000E+00 -0.00000000000E+00 -0.61478505375E+02  0.61491621569E+02  0.12700000000E+01 0. -1.
         25    2    1    2    0    0  0.00000000000E+00  0.00000000000E+00  0.20342904007E+01  0.12501711352E+03  0.12500056134E+03 0.  0.
    9000005    1    3    3    0    0  0.52004476182E+02 -0.33619246331E+02 -0.73843133854E+01  0.62371847423E+02  0.10000000000E+01 0.  0.
    9000005    1    3    3    0    0 -0.52004476182E+02  0.33619246331E+02  0.94186037861E+01  0.62645266095E+02  0.10000000000E+01 0.  0.
<mgrwt>
<rscale>  0 0.12500056E+03</rscale>
<asrwt>0</asrwt>
<pdfrwt beam="2">  1        4 0.94602172E-02 0.12500056E+03</pdfrwt>
<pdfrwt beam="1">  1       -4 0.97731849E-02 0.12500056E+03</pdfrwt>
<totfact> 0.10452358E+04</totfact>
</mgrwt>
</event>
<event>
 5    1  0.3311405E-002  0.1250064E+03  0.7818608E-02  0.1235059E+00
          4   -1    0    0  501    0  0.00000000000E+00  0.00000000000E+00  0.36923146723E+02  0.36944981580E+02  0.12700000000E+01 0.  1.
         -4   -1    0    0    0  501 -0.00000000000E+00 -0.00000000000E+00 -0.10574791280E+03  0.10575553868E+03  0.12700000000E+01 0.  1.
         25    2    1    2    0    0  0.00000000000E+00  0.00000000000E+00 -0.68824766076E+02  0.14270052026E+03  0.12500636007E+03 0.  0.
    9000005    1    3    3    0    0 -0.20934237285E+02  0.22885129456E+02  0.27522946948E+02  0.41478718033E+02  0.10000000000E+01 0.  0.
    9000005    1    3    3    0    0  0.20934237285E+02 -0.22885129456E+02 -0.96347713024E+02  0.10122180223E+03  0.10000000000E+01 0.  0.
<mgrwt>
<rscale>  0 0.12500636E+03</rscale>
<asrwt>0</asrwt>
<pdfrwt beam="1">  1        4 0.56827504E-02 0.12500636E+03</pdfrwt>
<pdfrwt beam="2">  1       -4 0.16271176E-01 0.12500636E+03</pdfrwt>
<totfact> 0.10076476E+04</totfact>
</mgrwt>
</event>
<event>
 5    1  0.3311405E-002  0.1250282E+03  0.7818608E-02  0.1235025E+00
          4   -1    0    0  501    0  0.00000000000E+00  0.00000000000E+00  0.65082102766E+01  0.66309653147E+01  0.12700000000E+01 0. -1.
         -4   -1    0    0    0  501 -0.00000000000E+00 -0.00000000000E+00 -0.59474039604E+03  0.59474175201E+03  0.12700000000E+01 0. -1.
         25    2    1    2    0    0  0.00000000000E+00  0.00000000000E+00 -0.58823218576E+03  0.60137271732E+03  0.12502815992E+03 0.  0.
    9000005    1    3    3    0    0 -0.22100036014E+02  0.58147250095E+02 -0.26466320951E+03  0.27187704713E+03  0.10000000000E+01 0.  0.
    9000005    1    3    3    0    0  0.22100036014E+02 -0.58147250095E+02 -0.32356897625E+03  0.32949567020E+03  0.10000000000E+01 0.  0.
<mgrwt>
<rscale>  0 0.12502816E+03</rscale>
<asrwt>0</asrwt>
<pdfrwt beam="1">  1        4 0.10108106E-02 0.12502816E+03</pdfrwt>
<pdfrwt beam="2">  1       -4 0.91508027E-01 0.12502816E+03</pdfrwt>
<totfact> 0.48750984E+03</totfact>
</mgrwt>
</event>
<event>
 5    1  0.3311405E-002  0.1249898E+03  0.7818608E-02  0.1235085E+00
          4   -1    0    0  501    0  0.00000000000E+00  0.00000000000E+00  0.14173209044E+03  0.14173778029E+03  0.12700000000E+01 0.  1.
         -4   -1    0    0    0  501 -0.00000000000E+00 -0.00000000000E+00 -0.27535407624E+02  0.27564679810E+02  0.12700000000E+01 0.  1.
         25    2    1    2    0    0  0.00000000000E+00  0.00000000000E+00  0.11419668282E+03  0.16930246010E+03  0.12498976210E+03 0.  0.
    9000005    1    3    3    0    0 -0.13785466356E+02 -0.52356493986E+02  0.14838535691E+02  0.56146448566E+02  0.10000000000E+01 0.  0.
    9000005    1    3    3    0    0  0.13785466356E+02  0.52356493986E+02  0.99358147128E+02  0.11315601153E+03  0.10000000000E+01 0.  0.
<mgrwt>
<rscale>  0 0.12498976E+03</rscale>
<asrwt>0</asrwt>
<pdfrwt beam="1">  1        4 0.21807627E-01 0.12498976E+03</pdfrwt>
<pdfrwt beam="2">  1       -4 0.42389059E-02 0.12498976E+03</pdfrwt>
<totfact> 0.95600696E+03</totfact>
</mgrwt>
</event>
<event>
 5    1  0.3311405E-002  0.1250073E+03  0.7818608E-02  0.1235058E+00
          4   -1    0    0  501    0  0.00000000000E+00  0.00000000000E+00  0.25430358267E+01  0.28425219816E+01  0.12700000000E+01 0. -1.
         -4   -1    0    0    0  501 -0.00000000000E+00 -0.00000000000E+00 -0.14505079153E+04  0.14505084713E+04  0.12700000000E+01 0. -1.
         25    2    1    2    0    0  0.00000000000E+00  0.00000000000E+00 -0.14479648795E+04  0.14533509933E+04  0.12500726947E+03 0.  0.
    9000005    1    3    3    0    0  0.31201876478E+02 -0.11805694524E+01 -0.13533797608E+04  0.13537402733E+04  0.10000000000E+01 0.  0.
    9000005    1    3    3    0    0 -0.31201876478E+02  0.11805694524E+01 -0.94585118719E+02  0.99610719920E+02  0.10000000000E+01 0.  0.
<mgrwt>
<rscale>  0 0.12500727E+03</rscale>
<asrwt>0</asrwt>
<pdfrwt beam="1">  1        4 0.41431760E-03 0.12500727E+03</pdfrwt>
<pdfrwt beam="2">  1       -4 0.22317752E+00 0.12500727E+03</pdfrwt>
<totfact> 0.18861288E+03</totfact>
</mgrwt>
</event>
<event>
 5    1  0.3311405E-002  0.1249992E+03  0.7818608E-02  0.1235071E+00
         -4   -1    0    0    0  501 -0.00000000000E+00  0.00000000000E+00  0.13424586267E+03  0.13425186979E+03  0.12700000000E+01 0.  1.
          4   -1    0    0  501    0  0.00000000000E+00 -0.00000000000E+00 -0.29076822363E+02  0.29104544297E+02  0.12700000000E+01 0.  1.
         25    2    1    2    0    0  0.00000000000E+00  0.00000000000E+00  0.10516904030E+03  0.16335641409E+03  0.12499916394E+03 0.  0.
    9000005    1    3    3    0    0  0.61013457170E+02  0.97686134456E+01  0.40385838560E+02  0.73824682327E+02  0.10000000000E+01 0.  0.
    9000005    1    3    3    0    0 -0.61013457170E+02 -0.97686134456E+01  0.64783201745E+02  0.89531731765E+02  0.10000000000E+01 0.  0.
<mgrwt>
<rscale>  0 0.12499916E+03</rscale>
<asrwt>0</asrwt>
<pdfrwt beam="2">  1        4 0.44759519E-02 0.12499916E+03</pdfrwt>
<pdfrwt beam="1">  1       -4 0.20655804E-01 0.12499916E+03</pdfrwt>
<totfact> 0.96701386E+03</totfact>
</mgrwt>
</event>
<event>
 5    1  0.3311405E-002  0.1250011E+03  0.7818608E-02  0.1235068E+00
         -4   -1    0    0    0  501 -0.00000000000E+00  0.00000000000E+00  0.14207467704E+03  0.14208035317E+03  0.12700000000E+01 0.  1.
          4   -1    0    0  501    0  0.00000000000E+00 -0.00000000000E+00 -0.27473915637E+02  0.27503253270E+02  0.12700000000E+01 0.  1.
         25    2    1    2    0    0  0.00000000000E+00  0.00000000000E+00  0.11460076140E+03  0.16958360644E+03  0.12500106023E+03 0.  0.
    9000005    1    3    3    0    0  0.34616196843E+02 -0.31638137036E+02  0.11333646265E+03  0.12265971859E+03  0.10000000000E+01 0.  0.
    9000005    1    3    3    0    0 -0.34616196843E+02  0.31638137036E+02  0.12642987497E+01  0.46923887843E+02  0.10000000000E+01 0.  0.
<mgrwt>
<rscale>  0 0.12500106E+03</rscale>
<asrwt>0</asrwt>
<pdfrwt beam="2">  1        4 0.42294497E-02 0.12500106E+03</pdfrwt>
<pdfrwt beam="1">  1       -4 0.21860336E-01 0.12500106E+03</pdfrwt>
<totfact> 0.95524028E+03</totfact>
</mgrwt>
</event>
<event>
 5    1  0.3311405E-002  0.1250055E+03  0.7818608E-02  0.1235061E+00
          4   -1    0    0  501    0  0.00000000000E+00  0.00000000000E+00  0.11488114722E+03  0.11488816687E+03  0.12700000000E+01 0. -1.
         -4   -1    0    0    0  501 -0.00000000000E+00 -0.00000000000E+00 -0.33985624433E+02  0.34009345306E+02  0.12700000000E+01 0. -1.
         25    2    1    2    0    0  0.00000000000E+00  0.00000000000E+00  0.80895522783E+02  0.14889751217E+03  0.12500553398E+03 0.  0.
    9000005    1    3    3    0    0 -0.60960093785E+02  0.13117943912E+02  0.45413833270E+02  0.77146806409E+02  0.10000000000E+01 0.  0.
    9000005    1    3    3    0    0  0.60960093785E+02 -0.13117943912E+02  0.35481689513E+02  0.71750705763E+02  0.10000000000E+01 0.  0.
<mgrwt>
<rscale>  0 0.12500553E+03</rscale>
<asrwt>0</asrwt>
<pdfrwt beam="1">  1        4 0.17676387E-01 0.12500553E+03</pdfrwt>
<pdfrwt beam="2">  1       -4 0.52309223E-02 0.12500553E+03</pdfrwt>
<totfact> 0.99511522E+03</totfact>
</mgrwt>
</event>
<event>
 5    1  0.3311405E-002  0.1249942E+03  0.7818608E-02  0.1235078E+00
         -4   -1    0    0    0  501 -0.00000000000E+00  0.00000000000E+00  0.77294417249E+02  0.77304850028E+02  0.12700000000E+01 0. -1.
          4   -1    0    0  501    0  0.00000000000E+00 -0.00000000000E+00 -0.50510741145E+02  0.50526704533E+02  0.12700000000E+01 0. -1.
         25    2    1    2    0    0  0.00000000000E+00  0.00000000000E+00  0.26783676104E+02  0.12783155456E+03  0.12499416401E+03 0.  0.
    9000005    1    3    3    0    0  0.13756865445E+02 -0.75494824847E+01 -0.48467907229E+02  0.50954725628E+02  0.10000000000E+01 0.  0.
    9000005    1    3    3    0    0 -0.13756865445E+02  0.75494824847E+01  0.75251583333E+02  0.76876828933E+02  0.10000000000E+01 0.  0.
<mgrwt>
<rscale>  0 0.12499416E+03</rscale>
<asrwt>0</asrwt>
<pdfrwt beam="2">  1        4 0.77729137E-02 0.12499416E+03</pdfrwt>
<pdfrwt beam="1">  1       -4 0.11893479E-01 0.12499416E+03</pdfrwt>
<totfact> 0.10392496E+04</totfact>
</mgrwt>
</event>
<event>
 5    1  0.3311405E-002  0.1249999E+03  0.7818608E-02  0.1235069E+00
          4   -1    0    0  501    0  0.00000000000E+00  0.00000000000E+00  0.15379374544E+03  0.15379898906E+03  0.12700000000E+01 0. -1.
         -4   -1    0    0    0  501 -0.00000000000E+00 -0.00000000000E+00 -0.25377667394E+02  0.25409425463E+02  0.12700000000E+01 0. -1.
         25    2    1    2    0    0  0.00000000000E+00  0.00000000000E+00  0.12841607805E+03  0.17920841453E+03  0.12499986694E+03 0.  0.
    9000005    1    3    3    0    0 -0.55320759158E+02  0.28900076404E+02  0.68659545914E+02  0.92794041054E+02  0.10000000000E+01 0.  0.
    9000005    1    3    3    0    0  0.55320759158E+02 -0.28900076404E+02  0.59756532135E+02  0.86414373473E+02  0.10000000000E+01 0.  0.
<mgrwt>
<rscale>  0 0.12499987E+03</rscale>
<asrwt>0</asrwt>
<pdfrwt beam="1">  1        4 0.23663422E-01 0.12499987E+03</pdfrwt>
<pdfrwt beam="2">  1       -4 0.39071029E-02 0.12499987E+03</pdfrwt>
<totfact> 0.93759965E+03</totfact>
</mgrwt>
</event>
<event>
 5    1  0.3311405E-002  0.1250004E+03  0.7818608E-02  0.1235069E+00
          4   -1    0    0  501    0  0.00000000000E+00  0.00000000000E+00  0.28534991170E+02  0.28563238981E+02  0.12700000000E+01 0. -1.
         -4   -1    0    0    0  501 -0.00000000000E+00 -0.00000000000E+00 -0.13679538117E+03  0.13680127634E+03  0.12700000000E+01 0. -1.
         25    2    1    2    0    0  0.00000000000E+00  0.00000000000E+00 -0.10826039000E+03  0.16536451532E+03  0.12500044354E+03 0.  0.
    9000005    1    3    3    0    0 -0.55219413040E+02  0.29026129073E+02 -0.49255490593E+02  0.79490899473E+02  0.10000000000E+01 0.  0.
    9000005    1    3    3    0    0  0.55219413040E+02 -0.29026129073E+02 -0.59004899406E+02  0.85873615851E+02  0.10000000000E+01 0.  0.
<mgrwt>
<rscale>  0 0.12500044E+03</rscale>
<asrwt>0</asrwt>
<pdfrwt beam="1">  1        4 0.43926251E-02 0.12500044E+03</pdfrwt>
<pdfrwt beam="2">  1       -4 0.21048069E-01 0.12500044E+03</pdfrwt>
<totfact> 0.96317444E+03</totfact>
</mgrwt>
</event>
<event>
 5    1  0.3311405E-002  0.1249983E+03  0.7818608E-02  0.1235072E+00
          4   -1    0    0  501    0  0.00000000000E+00  0.00000000000E+00  0.69808971887E+01  0.70954792340E+01  0.12700000000E+01 0.  1.
         -4   -1    0    0    0  501 -0.00000000000E+00 -0.00000000000E+00 -0.55487738538E+03  0.55487883876E+03  0.12700000000E+01 0.  1.
         25    2    1    2    0    0  0.00000000000E+00  0.00000000000E+00 -0.54789648819E+03  0.56197431799E+03  0.12499828925E+03 0.  0.
    9000005    1    3    3    0    0 -0.50590890920E+02 -0.23103108317E+02 -0.14583991426E+03  0.15608802789E+03  0.10000000000E+01 0.  0.
    9000005    1    3    3    0    0  0.50590890920E+02  0.23103108317E+02 -0.40205657393E+03  0.40588629011E+03  0.10000000000E+01 0.  0.
<mgrwt>
<rscale>  0 0.12499829E+03</rscale>
<asrwt>0</asrwt>
<pdfrwt beam="1">  1        4 0.10829104E-02 0.12499829E+03</pdfrwt>
<pdfrwt beam="2">  1       -4 0.85374643E-01 0.12499829E+03</pdfrwt>
<totfact> 0.51361321E+03</totfact>
</mgrwt>
</event>
<event>
 5    1  0.3311405E-002  0.1250016E+03  0.7818608E-02  0.1235067E+00
         -4   -1    0    0    0  501 -0.00000000000E+00  0.00000000000E+00  0.47697732074E+02  0.47714636591E+02  0.12700000000E+01 0.  1.
          4   -1    0    0  501    0  0.00000000000E+00 -0.00000000000E+00 -0.81861641302E+02  0.81871492087E+02  0.12700000000E+01 0.  1.
         25    2    1    2    0    0  0.00000000000E+00  0.00000000000E+00 -0.34163909227E+02  0.12958612868E+03  0.12500156820E+03 0.  0.
    9000005    1    3    3    0    0  0.22399042735E+01  0.58544431733E+02 -0.39625316897E+02  0.70736365452E+02  0.10000000000E+01 0.  0.
    9000005    1    3    3    0    0 -0.22399042735E+01 -0.58544431733E+02  0.54614076700E+01  0.58849763227E+02  0.10000000000E+01 0.  0.
<mgrwt>
<rscale>  0 0.12500157E+03</rscale>
<asrwt>0</asrwt>
<pdfrwt beam="2">  1        4 0.12596157E-01 0.12500157E+03</pdfrwt>
<pdfrwt beam="1">  1       -4 0.73401707E-02 0.12500157E+03</pdfrwt>
<totfact> 0.10353002E+04</totfact>
</mgrwt>
</event>
<event>
 5    1  0.3311405E-002  0.1250072E+03  0.7818608E-02  0.1235058E+00
          4   -1    0    0  501    0  0.00000000000E+00  0.00000000000E+00  0.18053492815E+02  0.18098107714E+02  0.12700000000E+01 0.  1.
         -4   -1    0    0    0  501 -0.00000000000E+00 -0.00000000000E+00 -0.21608236534E+03  0.21608609745E+03  0.12700000000E+01 0.  1.
         25    2    1    2    0    0  0.00000000000E+00  0.00000000000E+00 -0.19802887253E+03  0.23418420516E+03  0.12500723017E+03 0.  0.
    9000005    1    3    3    0    0 -0.51244979653E+02  0.29415345248E+02 -0.60879076601E+02  0.84844401368E+02  0.10000000000E+01 0.  0.
    9000005    1    3    3    0    0  0.51244979653E+02 -0.29415345248E+02 -0.13714979592E+03  0.14933980380E+03  0.10000000000E+01 0.  0.
<mgrwt>
<rscale>  0 0.12500723E+03</rscale>
<asrwt>0</asrwt>
<pdfrwt beam="1">  1        4 0.27811796E-02 0.12500723E+03</pdfrwt>
<pdfrwt beam="2">  1       -4 0.33247158E-01 0.12500723E+03</pdfrwt>
<totfact> 0.84657570E+03</totfact>
</mgrwt>
</event>
<event>
 5    1  0.3311405E-002  0.1250025E+03  0.7818608E-02  0.1235065E+00
          4   -1    0    0  501    0  0.00000000000E+00  0.00000000000E+00  0.82083094421E+02  0.82092918633E+02  0.12700000000E+01 0.  1.
         -4   -1    0    0    0  501 -0.00000000000E+00 -0.00000000000E+00 -0.47569741025E+02  0.47586691009E+02  0.12700000000E+01 0.  1.
         25    2    1    2    0    0  0.00000000000E+00  0.00000000000E+00  0.34513353395E+02  0.12967960964E+03  0.12500251835E+03 0.  0.
    9000005    1    3    3    0    0 -0.56450917541E+02  0.16038274231E+02  0.39542416355E+02  0.70771004110E+02  0.10000000000E+01 0.  0.
    9000005    1    3    3    0    0  0.56450917541E+02 -0.16038274231E+02 -0.50290629593E+01  0.58908605533E+02  0.10000000000E+01 0.  0.
<mgrwt>
<rscale>  0 0.12500252E+03</rscale>
<asrwt>0</asrwt>
<pdfrwt beam="1">  1        4 0.12630228E-01 0.12500252E+03</pdfrwt>
<pdfrwt beam="2">  1       -4 0.73204814E-02 0.12500252E+03</pdfrwt>
<totfact> 0.10350778E+04</totfact>
</mgrwt>
</event>
<event>
 5    1  0.3311405E-002  0.1250091E+03  0.7818608E-02  0.1235055E+00
         -4   -1    0    0    0  501 -0.00000000000E+00  0.00000000000E+00  0.35523030134E+03  0.35523257155E+03  0.12700000000E+01 0.  1.
          4   -1    0    0  501    0  0.00000000000E+00 -0.00000000000E+00 -0.10959005331E+02  0.11032347794E+02  0.12700000000E+01 0.  1.
         25    2    1    2    0    0  0.00000000000E+00  0.00000000000E+00  0.34427129601E+03  0.36626491934E+03  0.12500906322E+03 0.  0.
    9000005    1    3    3    0    0 -0.17556385623E+02 -0.28874385610E+02  0.18103342320E+02  0.38349547893E+02  0.10000000000E+01 0.  0.
    9000005    1    3    3    0    0  0.17556385623E+02  0.28874385610E+02  0.32616795369E+03  0.32791537145E+03  0.10000000000E+01 0.  0.
<mgrwt>
<rscale>  0 0.12500906E+03</rscale>
<asrwt>0</asrwt>
<pdfrwt beam="2">  1        4 0.16918174E-02 0.12500906E+03</pdfrwt>
<pdfrwt beam="1">  1       -4 0.54656626E-01 0.12500906E+03</pdfrwt>
<totfact> 0.67957897E+03</totfact>
</mgrwt>
</event>
<event>
 5    1  0.3311405E-002  0.1249990E+03  0.7818608E-02  0.1235071E+00
         -4   -1    0    0    0  501 -0.00000000000E+00  0.00000000000E+00  0.10272155029E+02  0.10350365643E+02  0.12700000000E+01 0. -1.
          4   -1    0    0  501    0  0.00000000000E+00 -0.00000000000E+00 -0.37874817332E+03  0.37875030256E+03  0.12700000000E+01 0. -1.
         25    2    1    2    0    0  0.00000000000E+00  0.00000000000E+00 -0.36847601829E+03  0.38910066820E+03  0.12499901577E+03 0.  0.
    9000005    1    3    3    0    0  0.48807059689E+01  0.22796011610E+02 -0.37553650443E+01  0.23634343712E+02  0.10000000000E+01 0.  0.
    9000005    1    3    3    0    0 -0.48807059689E+01 -0.22796011610E+02 -0.36472065324E+03  0.36546632449E+03  0.10000000000E+01 0.  0.
<mgrwt>
<rscale>  0 0.12499902E+03</rscale>
<asrwt>0</asrwt>
<pdfrwt beam="2">  1        4 0.58275119E-01 0.12499902E+03</pdfrwt>
<pdfrwt beam="1">  1       -4 0.15865118E-02 0.12499902E+03</pdfrwt>
<totfact> 0.65628262E+03</totfact>
</mgrwt>
</event>
<event>
 5    1  0.3311405E-002  0.1250030E+03  0.7818608E-02  0.1235065E+00
          4   -1    0    0  501    0  0.00000000000E+00  0.00000000000E+00  0.36811213473E+03  0.36811432549E+03  0.12700000000E+01 0. -1.
         -4   -1    0    0    0  501 -0.00000000000E+00 -0.00000000000E+00 -0.10571857952E+02  0.10647867418E+02  0.12700000000E+01 0. -1.
         25    2    1    2    0    0  0.00000000000E+00  0.00000000000E+00  0.35754027677E+03  0.37876219291E+03  0.12500299702E+03 0.  0.
    9000005    1    3    3    0    0  0.11371624933E+02 -0.35909133089E+02  0.32986656495E+03  0.33201164191E+03  0.10000000000E+01 0.  0.
    9000005    1    3    3    0    0 -0.11371624933E+02  0.35909133089E+02  0.27673711829E+02  0.46750551004E+02  0.10000000000E+01 0.  0.
<mgrwt>
<rscale>  0 0.12500300E+03</rscale>
<asrwt>0</asrwt>
<pdfrwt beam="1">  1        4 0.56638650E-01 0.12500300E+03</pdfrwt>
<pdfrwt beam="2">  1       -4 0.16324551E-02 0.12500300E+03</pdfrwt>
<totfact> 0.66667686E+03</totfact>
</mgrwt>
</event>
<event>
 5    1  0.3311405E-002  0.1250011E+03  0.7818608E-02  0.1235068E+00
          4   -1    0    0  501    0  0.00000000000E+00  0.00000000000E+00  0.34064860325E+03  0.34065097063E+03  0.12700000000E+01 0.  1.
         -4   -1    0    0    0  501 -0.00000000000E+00 -0.00000000000E+00 -0.11429715250E+02  0.11500056117E+02  0.12700000000E+01 0.  1.
         25    2    1    2    0    0  0.00000000000E+00  0.00000000000E+00  0.32921888800E+03  0.35215102675E+03  0.12500107771E+03 0.  0.
    9000005    1    3    3    0    0 -0.39594892528E+02  0.80153864993E+01  0.30288093166E+02  0.50501193279E+02  0.10000000000E+01 0.  0.
    9000005    1    3    3    0    0  0.39594892528E+02 -0.80153864993E+01  0.29893079483E+03  0.30164983347E+03  0.10000000000E+01 0.  0.
<mgrwt>
<rscale>  0 0.12500108E+03</rscale>
<asrwt>0</asrwt>
<pdfrwt beam="1">  1        4 0.52413077E-01 0.12500108E+03</pdfrwt>
<pdfrwt beam="2">  1       -4 0.17640104E-02 0.12500108E+03</pdfrwt>
<totfact> 0.69486899E+03</totfact>
</mgrwt>
</event>
<event>
 5    1  0.3311405E-002  0.1249963E+03  0.7818608E-02  0.1235075E+00
          4   -1    0    0  501    0  0.00000000000E+00  0.00000000000E+00  0.86496877394E+02  0.86506200350E+02  0.12700000000E+01 0.  1.
         -4   -1    0    0    0  501 -0.00000000000E+00 -0.00000000000E+00 -0.45137255978E+02  0.45155119059E+02  0.12700000000E+01 0.  1.
         25    2    1    2    0    0  0.00000000000E+00  0.00000000000E+00  0.41359621416E+02  0.13166131941E+03  0.12499633892E+03 0.  0.
    9000005    1    3    3    0    0 -0.17495630230E+02  0.58546281699E+02  0.68954989681E+01  0.61500504746E+02  0.10000000000E+01 0.  0.
    9000005    1    3    3    0    0  0.17495630230E+02 -0.58546281699E+02  0.34464122448E+02  0.70160814662E+02  0.10000000000E+01 0.  0.
<mgrwt>
<rscale>  0 0.12499634E+03</rscale>
<asrwt>0</asrwt>
<pdfrwt beam="1">  1        4 0.13309303E-01 0.12499634E+03</pdfrwt>
<pdfrwt beam="2">  1       -4 0.69462846E-02 0.12499634E+03</pdfrwt>
<totfact> 0.10309784E+04</totfact>
</mgrwt>
</event>
<event>
 5    1  0.3311405E-002  0.1249974E+03  0.7818608E-02  0.1235073E+00
          4   -1    0    0  501    0  0.00000000000E+00  0.00000000000E+00  0.60889445019E+02  0.60902688075E+02  0.12700000000E+01 0. -1.
         -4   -1    0    0    0  501 -0.00000000000E+00 -0.00000000000E+00 -0.64123969571E+02  0.64136544758E+02  0.12700000000E+01 0. -1.
         25    2    1    2    0    0  0.00000000000E+00  0.00000000000E+00 -0.32345245512E+01  0.12503923283E+03  0.12499739037E+03 0.  0.
    9000005    1    3    3    0    0 -0.44466134182E+02  0.33859531574E+02  0.26345304663E+02  0.61796278571E+02  0.10000000000E+01 0.  0.
    9000005    1    3    3    0    0  0.44466134182E+02 -0.33859531574E+02 -0.29579829214E+02  0.63242954262E+02  0.10000000000E+01 0.  0.
<mgrwt>
<rscale>  0 0.12499739E+03</rscale>
<asrwt>0</asrwt>
<pdfrwt beam="1">  1        4 0.93695930E-02 0.12499739E+03</pdfrwt>
<pdfrwt beam="2">  1       -4 0.98672120E-02 0.12499739E+03</pdfrwt>
<totfact> 0.10452627E+04</totfact>
</mgrwt>
</event>
<event>
 5    1  0.3311405E-002  0.1249920E+03  0.7818608E-02  0.1235082E+00
         -4   -1    0    0    0  501 -0.00000000000E+00  0.00000000000E+00  0.31804437373E+01  0.34246346325E+01  0.12700000000E+01 0.  1.
          4   -1    0    0  501    0  0.00000000000E+00 -0.00000000000E+00 -0.11824059719E+04  0.11824066540E+04  0.12700000000E+01 0.  1.
         25    2    1    2    0    0  0.00000000000E+00  0.00000000000E+00 -0.11792255282E+04  0.11858312886E+04  0.12499199451E+03 0.  0.
    9000005    1    3    3    0    0  0.16584406625E+02  0.55194653447E+02 -0.81873688993E+03  0.82076341734E+03  0.10000000000E+01 0.  0.
    9000005    1    3    3    0    0 -0.16584406625E+02 -0.55194653447E+02 -0.36048863824E+03  0.36506787124E+03  0.10000000000E+01 0.  0.
<mgrwt>
<rscale>  0 0.12499199E+03</rscale>
<asrwt>0</asrwt>
<pdfrwt beam="2">  1        4 0.18192711E+00 0.12499199E+03</pdfrwt>
<pdfrwt beam="1">  1       -4 0.50813636E-03 0.12499199E+03</pdfrwt>
<totfact> 0.25091094E+03</totfact>
</mgrwt>
</event>
<event>
 5    1  0.3311405E-002  0.1249977E+03  0.7818608E-02  0.1235073E+00
         -4   -1    0    0    0  501 -0.00000000000E+00  0.00000000000E+00  0.14054437654E+02  0.14111701449E+02  0.12700000000E+01 0.  1.
          4   -1    0    0  501    0  0.00000000000E+00 -0.00000000000E+00 -0.27730308181E+03  0.27730598999E+03  0.12700000000E+01 0.  1.
         25    2    1    2    0    0  0.00000000000E+00  0.00000000000E+00 -0.26324864416E+03  0.29141769144E+03  0.12499768890E+03 0.  0.
    9000005    1    3    3    0    0  0.49442472905E+02 -0.78575804448E+01 -0.44429107320E+02  0.66942103901E+02  0.10000000000E+01 0.  0.
    9000005    1    3    3    0    0 -0.49442472905E+02  0.78575804448E+01 -0.21881953684E+03  0.22447558754E+03  0.10000000000E+01 0.  0.
<mgrwt>
<rscale>  0 0.12499769E+03</rscale>
<asrwt>0</asrwt>
<pdfrwt beam="2">  1        4 0.42666637E-01 0.12499769E+03</pdfrwt>
<pdfrwt beam="1">  1       -4 0.21668500E-02 0.12499769E+03</pdfrwt>
<totfact> 0.76692093E+03</totfact>
</mgrwt>
</event>
<event>
 5    1  0.3311405E-002  0.1250023E+03  0.7818608E-02  0.1235066E+00
         -4   -1    0    0    0  501 -0.00000000000E+00  0.00000000000E+00  0.85394142513E+02  0.85403585847E+02  0.12700000000E+01 0.  1.
          4   -1    0    0  501    0  0.00000000000E+00 -0.00000000000E+00 -0.45724669667E+02  0.45742303355E+02  0.12700000000E+01 0.  1.
         25    2    1    2    0    0  0.00000000000E+00  0.00000000000E+00  0.39669472845E+02  0.13114588920E+03  0.12500230869E+03 0.  0.
    9000005    1    3    3    0    0 -0.33475654001E+02  0.49195569787E+02  0.39866887498E+02  0.71632340575E+02  0.10000000000E+01 0.  0.
    9000005    1    3    3    0    0  0.33475654001E+02 -0.49195569787E+02 -0.19741465314E+00  0.59513548626E+02  0.10000000000E+01 0.  0.
<mgrwt>
<rscale>  0 0.12500231E+03</rscale>
<asrwt>0</asrwt>
<pdfrwt beam="2">  1        4 0.70366474E-02 0.12500231E+03</pdfrwt>
<pdfrwt beam="1">  1       -4 0.13139643E-01 0.12500231E+03</pdfrwt>
<totfact> 0.10319425E+04</totfact>
</mgrwt>
</event>
<event>
 5    1  0.3311405E-002  0.1249999E+03  0.7818608E-02  0.1235069E+00
         -4   -1    0    0    0  501 -0.00000000000E+00  0.00000000000E+00  0.14253483173E+03  0.14254048953E+03  0.12700000000E+01 0. -1.
          4   -1    0    0  501    0  0.00000000000E+00 -0.00000000000E+00 -0.27384625879E+02  0.27414059068E+02  0.12700000000E+01 0. -1.
         25    2    1    2    0    0  0.00000000000E+00  0.00000000000E+00  0.11515020585E+03  0.16995454860E+03  0.12499991473E+03 0.  0.
    9000005    1    3    3    0    0  0.15923895083E+00  0.68508918033E+01 -0.26878893416E+02  0.27756710663E+02  0.10000000000E+01 0.  0.
    9000005    1    3    3    0    0 -0.15923895083E+00 -0.68508918033E+01  0.14202909927E+03  0.14219783794E+03  0.10000000000E+01 0.  0.
<mgrwt>
<rscale>  0 0.12499991E+03</rscale>
<asrwt>0</asrwt>
<pdfrwt beam="2">  1        4 0.42157188E-02 0.12499991E+03</pdfrwt>
<pdfrwt beam="1">  1       -4 0.21931135E-01 0.12499991E+03</pdfrwt>
<totfact> 0.95457291E+03</totfact>
</mgrwt>
</event>
<event>
 5    1  0.3311405E-002  0.1250020E+03  0.7818608E-02  0.1235066E+00
          4   -1    0    0  501    0  0.00000000000E+00  0.00000000000E+00  0.30389710903E+03  0.30389976271E+03  0.12700000000E+01 0. -1.
         -4   -1    0    0    0  501 -0.00000000000E+00 -0.00000000000E+00 -0.12820181603E+02  0.12882932753E+02  0.12700000000E+01 0. -1.
         25    2    1    2    0    0  0.00000000000E+00  0.00000000000E+00  0.29107692743E+03  0.31678269546E+03  0.12500199385E+03 0.  0.
    9000005    1    3    3    0    0 -0.64765863587E+01 -0.19390800525E+02  0.29519544006E+03  0.29590420265E+03  0.10000000000E+01 0.  0.
    9000005    1    3    3    0    0  0.64765863587E+01  0.19390800525E+02 -0.41185126314E+01  0.20878492814E+02  0.10000000000E+01 0.  0.
<mgrwt>
<rscale>  0 0.12500199E+03</rscale>
<asrwt>0</asrwt>
<pdfrwt beam="1">  1        4 0.46758428E-01 0.12500199E+03</pdfrwt>
<pdfrwt beam="2">  1       -4 0.19773670E-02 0.12500199E+03</pdfrwt>
<totfact> 0.73537172E+03</totfact>
</mgrwt>
</event>
<event>
 5    1  0.3311405E-002  0.1249995E+03  0.7818608E-02  0.1235070E+00
         -4   -1    0    0    0  501 -0.00000000000E+00  0.00000000000E+00  0.89554419508E+02  0.89563424194E+02  0.12700000000E+01 0. -1.
          4   -1    0    0  501    0  0.00000000000E+00 -0.00000000000E+00 -0.43597963285E+02  0.43616456786E+02  0.12700000000E+01 0. -1.
         25    2    1    2    0    0  0.00000000000E+00  0.00000000000E+00  0.45956456223E+02  0.13317988098E+03  0.12499953932E+03 0.  0.
    9000005    1    3    3    0    0 -0.36098388522E+02  0.40793334878E+02  0.55609867597E+02  0.77850158629E+02  0.10000000000E+01 0.  0.
    9000005    1    3    3    0    0  0.36098388522E+02 -0.40793334878E+02 -0.96534113743E+01  0.55329722352E+02  0.10000000000E+01 0.  0.
<mgrwt>
<rscale>  0 0.12499954E+03</rscale>
<asrwt>0</asrwt>
<pdfrwt beam="2">  1        4 0.67094943E-02 0.12499954E+03</pdfrwt>
<pdfrwt beam="1">  1       -4 0.13779718E-01 0.12499954E+03</pdfrwt>
<totfact> 0.10276685E+04</totfact>
</mgrwt>
</event>
<event>
 5    1  0.3311405E-002  0.1250021E+03  0.7818608E-02  0.1235066E+00
          4   -1    0    0  501    0  0.00000000000E+00  0.00000000000E+00  0.22941199025E+03  0.22941550551E+03  0.12700000000E+01 0.  1.
         -4   -1    0    0    0  501 -0.00000000000E+00 -0.00000000000E+00 -0.17000475824E+02  0.17047846733E+02  0.12700000000E+01 0.  1.
         25    2    1    2    0    0  0.00000000000E+00  0.00000000000E+00  0.21241151442E+03  0.24646335224E+03  0.12500213014E+03 0.  0.
    9000005    1    3    3    0    0  0.42924843743E+02 -0.28136221585E+02  0.35908100650E+02  0.62646475301E+02  0.10000000000E+01 0.  0.
    9000005    1    3    3    0    0 -0.42924843743E+02  0.28136221585E+02  0.17650341377E+03  0.18381687694E+03  0.10000000000E+01 0.  0.
<mgrwt>
<rscale>  0 0.12500213E+03</rscale>
<asrwt>0</asrwt>
<pdfrwt beam="1">  1        4 0.35298061E-01 0.12500213E+03</pdfrwt>
<pdfrwt beam="2">  1       -4 0.26193726E-02 0.12500213E+03</pdfrwt>
<totfact> 0.82840157E+03</totfact>
</mgrwt>
</event>
<event>
 5    1  0.3311405E-002  0.1249999E+03  0.7818608E-02  0.1235069E+00
         -4   -1    0    0    0  501 -0.00000000000E+00  0.00000000000E+00  0.27348021705E+03  0.27348316587E+03  0.12700000000E+01 0. -1.
          4   -1    0    0  501    0  0.00000000000E+00 -0.00000000000E+00 -0.14252209267E+02  0.14308681595E+02  0.12700000000E+01 0. -1.
         25    2    1    2    0    0  0.00000000000E+00  0.00000000000E+00  0.25922800778E+03  0.28779184747E+03  0.12499994981E+03 0.  0.
    9000005    1    3    3    0    0 -0.39818079030E+02  0.22125773852E+02  0.31117682834E+02  0.55175533265E+02  0.10000000000E+01 0.  0.
    9000005    1    3    3    0    0  0.39818079030E+02 -0.22125773852E+02  0.22811032495E+03  0.23261631420E+03  0.10000000000E+01 0.  0.
<mgrwt>
<rscale>  0 0.12499995E+03</rscale>
<asrwt>0</asrwt>
<pdfrwt beam="2">  1        4 0.21972185E-02 0.12499995E+03</pdfrwt>
<pdfrwt beam="1">  1       -4 0.42078449E-01 0.12499995E+03</pdfrwt>
<totfact> 0.77156264E+03</totfact>
</mgrwt>
</event>
<event>
 5    1  0.3311405E-002  0.1250036E+03  0.7818608E-02  0.1235064E+00
          4   -1    0    0  501    0  0.00000000000E+00  0.00000000000E+00  0.48416167883E+03  0.48416334448E+03  0.12700000000E+01 0.  1.
         -4   -1    0    0    0  501 -0.00000000000E+00 -0.00000000000E+00 -0.80168694563E+01  0.81168402645E+01  0.12700000000E+01 0.  1.
         25    2    1    2    0    0  0.00000000000E+00  0.00000000000E+00  0.47614480937E+03  0.49228018475E+03  0.12500360318E+03 0.  0.
    9000005    1    3    3    0    0 -0.84764078552E+00 -0.34804703530E+02  0.33691936279E+02  0.48458564289E+02  0.10000000000E+01 0.  0.
    9000005    1    3    3    0    0  0.84764078552E+00  0.34804703530E+02  0.44245287309E+03  0.44382162046E+03  0.10000000000E+01 0.  0.
<mgrwt>
<rscale>  0 0.12500360E+03</rscale>
<asrwt>0</asrwt>
<pdfrwt beam="1">  1        4 0.74494219E-01 0.12500360E+03</pdfrwt>
<pdfrwt beam="2">  1       -4 0.12411829E-02 0.12500360E+03</pdfrwt>
<totfact> 0.56463872E+03</totfact>
</mgrwt>
</event>
<event>
 5    1  0.3311405E-002  0.1250008E+03  0.7818608E-02  0.1235068E+00
         -4   -1    0    0    0  501 -0.00000000000E+00  0.00000000000E+00  0.18772235746E+03  0.18772665339E+03  0.12700000000E+01 0. -1.
          4   -1    0    0  501    0  0.00000000000E+00 -0.00000000000E+00 -0.20785002371E+02  0.20823765835E+02  0.12700000000E+01 0. -1.
         25    2    1    2    0    0  0.00000000000E+00  0.00000000000E+00  0.16693735509E+03  0.20855041922E+03  0.12500078733E+03 0.  0.
    9000005    1    3    3    0    0 -0.29063939046E+02 -0.92154704804E+01 -0.75415291338E+01  0.31424705420E+02  0.10000000000E+01 0.  0.
    9000005    1    3    3    0    0  0.29063939046E+02  0.92154704804E+01  0.17447888423E+03  0.17712571380E+03  0.10000000000E+01 0.  0.
<mgrwt>
<rscale>  0 0.12500079E+03</rscale>
<asrwt>0</asrwt>
<pdfrwt beam="2">  1        4 0.32010050E-02 0.12500079E+03</pdfrwt>
<pdfrwt beam="1">  1       -4 0.28883674E-01 0.12500079E+03</pdfrwt>
<totfact> 0.88711603E+03</totfact>
</mgrwt>
</event>
<event>
 5    1  0.3311405E-002  0.1250009E+03  0.7818608E-02  0.1235068E+00
         -4   -1    0    0    0  501 -0.00000000000E+00  0.00000000000E+00  0.25759595437E+03  0.25759908503E+03  0.12700000000E+01 0. -1.
          4   -1    0    0  501    0  0.00000000000E+00 -0.00000000000E+00 -0.15134647832E+02  0.15187839379E+02  0.12700000000E+01 0. -1.
         25    2    1    2    0    0  0.00000000000E+00  0.00000000000E+00  0.24246130654E+03  0.27278692440E+03  0.12500088383E+03 0.  0.
    9000005    1    3    3    0    0 -0.67335673239E+00 -0.43360332965E+02  0.21942678601E+03  0.22367316849E+03  0.10000000000E+01 0.  0.
    9000005    1    3    3    0    0  0.67335673239E+00  0.43360332965E+02  0.23034520525E+02  0.49113755914E+02  0.10000000000E+01 0.  0.
<mgrwt>
<rscale>  0 0.12500088E+03</rscale>
<asrwt>0</asrwt>
<pdfrwt beam="2">  1        4 0.23327398E-02 0.12500088E+03</pdfrwt>
<pdfrwt beam="1">  1       -4 0.39634479E-01 0.12500088E+03</pdfrwt>
<totfact> 0.79142774E+03</totfact>
</mgrwt>
</event>
<event>
 5    1  0.3311405E-002  0.1249984E+03  0.7818608E-02  0.1235072E+00
         -4   -1    0    0    0  501 -0.00000000000E+00  0.00000000000E+00  0.10058652313E+04  0.10058660330E+04  0.12700000000E+01 0.  1.
          4   -1    0    0  501    0  0.00000000000E+00 -0.00000000000E+00 -0.37787156779E+01  0.39864259900E+01  0.12700000000E+01 0.  1.
         25    2    1    2    0    0  0.00000000000E+00  0.00000000000E+00  0.10020865156E+04  0.10098524590E+04  0.12499841692E+03 0.  0.
    9000005    1    3    3    0    0 -0.52027875511E+02 -0.34115624324E+02  0.45367610014E+03  0.45792333364E+03  0.10000000000E+01 0.  0.
    9000005    1    3    3    0    0  0.52027875511E+02  0.34115624324E+02  0.54841041548E+03  0.55192912539E+03  0.10000000000E+01 0.  0.
<mgrwt>
<rscale>  0 0.12499842E+03</rscale>
<asrwt>0</asrwt>
<pdfrwt beam="2">  1        4 0.59737963E-03 0.12499842E+03</pdfrwt>
<pdfrwt beam="1">  1       -4 0.15476470E+00 0.12499842E+03</pdfrwt>
<totfact> 0.30282375E+03</totfact>
</mgrwt>
</event>
<event>
 5    1  0.3311405E-002  0.1249951E+03  0.7818608E-02  0.1235077E+00
         -4   -1    0    0    0  501 -0.00000000000E+00  0.00000000000E+00  0.10413393261E+03  0.10414167667E+03  0.12700000000E+01 0.  1.
          4   -1    0    0  501    0  0.00000000000E+00 -0.00000000000E+00 -0.37488935020E+02  0.37510440533E+02  0.12700000000E+01 0.  1.
         25    2    1    2    0    0  0.00000000000E+00  0.00000000000E+00  0.66644997589E+02  0.14165211721E+03  0.12499506633E+03 0.  0.
    9000005    1    3    3    0    0  0.42709907252E+02  0.40468873901E+02  0.57176935971E+02  0.82049180005E+02  0.10000000000E+01 0.  0.
    9000005    1    3    3    0    0 -0.42709907252E+02 -0.40468873901E+02  0.94680616171E+01  0.59602937202E+02  0.10000000000E+01 0.  0.
<mgrwt>
<rscale>  0 0.12499507E+03</rscale>
<asrwt>0</asrwt>
<pdfrwt beam="2">  1        4 0.57697785E-02 0.12499507E+03</pdfrwt>
<pdfrwt beam="1">  1       -4 0.16022855E-01 0.12499507E+03</pdfrwt>
<totfact> 0.10100581E+04</totfact>
</mgrwt>
</event>
<event>
 5    1  0.3311405E-002  0.1249934E+03  0.7818608E-02  0.1235080E+00
         -4   -1    0    0    0  501 -0.00000000000E+00  0.00000000000E+00  0.55005675919E+02  0.55020335180E+02  0.12700000000E+01 0. -1.
          4   -1    0    0  501    0  0.00000000000E+00 -0.00000000000E+00 -0.70978112152E+02  0.70989473196E+02  0.12700000000E+01 0. -1.
         25    2    1    2    0    0  0.00000000000E+00  0.00000000000E+00 -0.15972436233E+02  0.12600980838E+03  0.12499341218E+03 0.  0.
    9000005    1    3    3    0    0  0.74414535302E+01 -0.61530824616E+02  0.42248709598E-01  0.61987251863E+02  0.10000000000E+01 0.  0.
    9000005    1    3    3    0    0 -0.74414535302E+01  0.61530824616E+02 -0.16014684942E+02  0.64022556512E+02  0.10000000000E+01 0.  0.
<mgrwt>
<rscale>  0 0.12499341E+03</rscale>
<asrwt>0</asrwt>
<pdfrwt beam="2">  1        4 0.10921711E-01 0.12499341E+03</pdfrwt>
<pdfrwt beam="1">  1       -4 0.84644133E-02 0.12499341E+03</pdfrwt>
<totfact> 0.10432293E+04</totfact>
</mgrwt>
</event>
<event>
 5    1  0.3311405E-002  0.1249879E+03  0.7818608E-02  0.1235088E+00
          4   -1    0    0  501    0  0.00000000000E+00  0.00000000000E+00  0.27670238974E+02  0.27699368672E+02  0.12700000000E+01 0. -1.
         -4   -1    0    0    0  501 -0.00000000000E+00 -0.00000000000E+00 -0.14103786054E+03  0.14104357839E+03  0.12700000000E+01 0. -1.
         25    2    1    2    0    0  0.00000000000E+00  0.00000000000E+00 -0.11336762157E+03  0.16874294706E+03  0.12498785767E+03 0.  0.
    9000005    1    3    3    0    0 -0.44824458424E+02  0.35277592072E+02 -0.22243656945E+02  0.61233331199E+02  0.10000000000E+01 0.  0.
    9000005    1    3    3    0    0  0.44824458424E+02 -0.35277592072E+02 -0.91123964621E+02  0.10750961587E+03  0.10000000000E+01 0.  0.
<mgrwt>
<rscale>  0 0.12498786E+03</rscale>
<asrwt>0</asrwt>
<pdfrwt beam="1">  1        4 0.42596405E-02 0.12498786E+03</pdfrwt>
<pdfrwt beam="2">  1       -4 0.21700813E-01 0.12498786E+03</pdfrwt>
<totfact> 0.95709290E+03</totfact>
</mgrwt>
</event>
<event>
 5    1  0.3311405E-002  0.1250022E+03  0.7818608E-02  0.1235066E+00
          4   -1    0    0  501    0  0.00000000000E+00  0.00000000000E+00  0.45582953451E+02  0.45600641939E+02  0.12700000000E+01 0. -1.
         -4   -1    0    0    0  501 -0.00000000000E+00 -0.00000000000E+00 -0.85659359868E+02  0.85668773967E+02  0.12700000000E+01 0. -1.
         25    2    1    2    0    0  0.00000000000E+00  0.00000000000E+00 -0.40076406417E+02  0.13126941591E+03  0.12500216479E+03 0.  0.
    9000005    1    3    3    0    0  0.27181343775E+02  0.46912954485E+02  0.12596142031E+02  0.55671478712E+02  0.10000000000E+01 0.  0.
    9000005    1    3    3    0    0 -0.27181343775E+02 -0.46912954485E+02 -0.52672548449E+02  0.75597937194E+02  0.10000000000E+01 0.  0.
<mgrwt>
<rscale>  0 0.12500216E+03</rscale>
<asrwt>0</asrwt>
<pdfrwt beam="1">  1        4 0.70148469E-02 0.12500216E+03</pdfrwt>
<pdfrwt beam="2">  1       -4 0.13180448E-01 0.12500216E+03</pdfrwt>
<totfact> 0.10316813E+04</totfact>
</mgrwt>
</event>
<event>
 5    1  0.3311405E-002  0.1250022E+03  0.7818608E-02  0.1235066E+00
          4   -1    0    0  501    0  0.00000000000E+00  0.00000000000E+00  0.15884905600E+01  0.20337655369E+01  0.12700000000E+01 0. -1.
         -4   -1    0    0    0  501 -0.00000000000E+00 -0.00000000000E+00 -0.21564339635E+04  0.21564343375E+04  0.12700000000E+01 0. -1.
         25    2    1    2    0    0  0.00000000000E+00  0.00000000000E+00 -0.21548454730E+04  0.21584681030E+04  0.12500215784E+03 0.  0.
    9000005    1    3    3    0    0  0.54402685053E+02 -0.28722915140E+02 -0.12671501550E+04  0.12686430441E+04  0.10000000000E+01 0.  0.
    9000005    1    3    3    0    0 -0.54402685053E+02  0.28722915140E+02 -0.88769531791E+03  0.88982505889E+03  0.10000000000E+01 0.  0.
<mgrwt>
<rscale>  0 0.12500216E+03</rscale>
<asrwt>0</asrwt>
<pdfrwt beam="1">  1        4 0.27866558E-03 0.12500216E+03</pdfrwt>
<pdfrwt beam="2">  1       -4 0.33179130E+00 0.12500216E+03</pdfrwt>
<totfact> 0.79318406E+02</totfact>
</mgrwt>
</event>
<event>
 4    1  0.3311405E-002  0.1250802E+03  0.7818608E-02  0.1234944E+00
          4   -1    0    0  501    0  0.00000000000E+00  0.00000000000E+00  0.58094755422E+02  0.58108635395E+02  0.12700000000E+01 0. -1.
         -4   -1    0    0    0  501 -0.00000000000E+00 -0.00000000000E+00 -0.67297677344E+02  0.67309659603E+02  0.12700000000E+01 0. -1.
    9000005    1    1    2    0    0  0.25796543416E+02 -0.35409312555E+02 -0.49342502083E+02  0.65992147863E+02  0.10000000000E+01 0.  0.
    9000005    1    1    2    0    0 -0.25796543416E+02  0.35409312555E+02  0.40139580161E+02  0.59426147135E+02  0.10000000000E+01 0.  0.
<mgrwt>
<rscale>  0 0.12508019E+03</rscale>
<asrwt>0</asrwt>
<pdfrwt beam="1">  1        4 0.89396441E-02 0.12508019E+03</pdfrwt>
<pdfrwt beam="2">  1       -4 0.10355478E-01 0.12508019E+03</pdfrwt>
<totfact> 0.10424879E+04</totfact>
</mgrwt>
</event>
<event>
 5    1  0.3311405E-002  0.1250015E+03  0.7818608E-02  0.1235067E+00
         -4   -1    0    0    0  501 -0.00000000000E+00  0.00000000000E+00  0.52084901528E+02  0.52100382601E+02  0.12700000000E+01 0.  1.
          4   -1    0    0  501    0  0.00000000000E+00 -0.00000000000E+00 -0.74967549078E+02  0.74978305627E+02  0.12700000000E+01 0.  1.
         25    2    1    2    0    0  0.00000000000E+00  0.00000000000E+00 -0.22882647550E+02  0.12707868823E+03  0.12500150976E+03 0.  0.
    9000005    1    3    3    0    0  0.29339973924E+02 -0.17958068969E+02  0.41598609016E+02  0.53988615309E+02  0.10000000000E+01 0.  0.
    9000005    1    3    3    0    0 -0.29339973924E+02  0.17958068969E+02 -0.64481256566E+02  0.73090072919E+02  0.10000000000E+01 0.  0.
<mgrwt>
<rscale>  0 0.12500151E+03</rscale>
<asrwt>0</asrwt>
<pdfrwt beam="2">  1        4 0.11535487E-01 0.12500151E+03</pdfrwt>
<pdfrwt beam="1">  1       -4 0.80150800E-02 0.12500151E+03</pdfrwt>
<totfact> 0.10407082E+04</totfact>
</mgrwt>
</event>
<event>
 5    1  0.3311405E-002  0.1250016E+03  0.7818608E-02  0.1235067E+00
          4   -1    0    0  501    0  0.00000000000E+00  0.00000000000E+00  0.11901016436E+04  0.11901023212E+04  0.12700000000E+01 0. -1.
         -4   -1    0    0    0  501 -0.00000000000E+00 -0.00000000000E+00 -0.31588152668E+01  0.34045578112E+01  0.12700000000E+01 0. -1.
         25    2    1    2    0    0  0.00000000000E+00  0.00000000000E+00  0.11869428283E+04  0.11935068790E+04  0.12500157035E+03 0.  0.
    9000005    1    3    3    0    0 -0.12458212195E+02  0.56966579973E+02  0.80802391773E+03  0.81012594694E+03  0.10000000000E+01 0.  0.
    9000005    1    3    3    0    0  0.12458212195E+02 -0.56966579973E+02  0.37891891058E+03  0.38338093207E+03  0.10000000000E+01 0.  0.
<mgrwt>
<rscale>  0 0.12500157E+03</rscale>
<asrwt>0</asrwt>
<pdfrwt beam="1">  1        4 0.18311167E+00 0.12500157E+03</pdfrwt>
<pdfrwt beam="2">  1       -4 0.50492656E-03 0.12500157E+03</pdfrwt>
<totfact> 0.24882461E+03</totfact>
</mgrwt>
</event>
<event>
 5    1  0.3311405E-002  0.1250002E+03  0.7818608E-02  0.1235069E+00
         -4   -1    0    0    0  501 -0.00000000000E+00  0.00000000000E+00  0.10176398517E+04  0.10176406442E+04  0.12700000000E+01 0. -1.
          4   -1    0    0  501    0  0.00000000000E+00 -0.00000000000E+00 -0.37326879030E+01  0.39428237319E+01  0.12700000000E+01 0. -1.
         25    2    1    2    0    0  0.00000000000E+00  0.00000000000E+00  0.10139071638E+04  0.10215834679E+04  0.12500018037E+03 0.  0.
    9000005    1    3    3    0    0 -0.34492866173E+02  0.23133579933E+02  0.12533859608E+03  0.13204425017E+03  0.10000000000E+01 0.  0.
    9000005    1    3    3    0    0  0.34492866173E+02 -0.23133579933E+02  0.88856856771E+03  0.88953921772E+03  0.10000000000E+01 0.  0.
<mgrwt>
<rscale>  0 0.12500018E+03</rscale>
<asrwt>0</asrwt>
<pdfrwt beam="2">  1        4 0.59048528E-03 0.12500018E+03</pdfrwt>
<pdfrwt beam="1">  1       -4 0.15657611E+00 0.12500018E+03</pdfrwt>
<totfact> 0.29898782E+03</totfact>
</mgrwt>
</event>
<event>
 5    1  0.3311405E-002  0.1249974E+03  0.7818608E-02  0.1235073E+00
         -4   -1    0    0    0  501 -0.00000000000E+00  0.00000000000E+00  0.33374672921E+03  0.33374914556E+03  0.12700000000E+01 0.  1.
          4   -1    0    0  501    0  0.00000000000E+00 -0.00000000000E+00 -0.11666822334E+02  0.11735742131E+02  0.12700000000E+01 0.  1.
         25    2    1    2    0    0  0.00000000000E+00  0.00000000000E+00  0.32207990688E+03  0.34548488769E+03  0.12499736480E+03 0.  0.
    9000005    1    3    3    0    0  0.41919276293E+02 -0.18458136814E+02  0.43543133825E+02  0.63205482696E+02  0.10000000000E+01 0.  0.
    9000005    1    3    3    0    0 -0.41919276293E+02  0.18458136814E+02  0.27853677305E+03  0.28227940499E+03  0.10000000000E+01 0.  0.
<mgrwt>
<rscale>  0 0.12499736E+03</rscale>
<asrwt>0</asrwt>
<pdfrwt beam="2">  1        4 0.18003831E-02 0.12499736E+03</pdfrwt>
<pdfrwt beam="1">  1       -4 0.51351138E-01 0.12499736E+03</pdfrwt>
<totfact> 0.70228241E+03</totfact>
</mgrwt>
</event>
<event>
 5    1  0.3311405E-002  0.1249982E+03  0.7818608E-02  0.1235072E+00
         -4   -1    0    0    0  501 -0.00000000000E+00  0.00000000000E+00  0.70605300364E+02  0.70616721387E+02  0.12700000000E+01 0.  1.
          4   -1    0    0  501    0  0.00000000000E+00 -0.00000000000E+00 -0.55300382427E+02  0.55314963586E+02  0.12700000000E+01 0.  1.
         25    2    1    2    0    0  0.00000000000E+00  0.00000000000E+00  0.15304917937E+02  0.12593168497E+03  0.12499819506E+03 0.  0.
    9000005    1    3    3    0    0 -0.37129123040E+02 -0.36282242649E+02  0.42699667909E+02  0.67225252316E+02  0.10000000000E+01 0.  0.
    9000005    1    3    3    0    0  0.37129123040E+02  0.36282242649E+02 -0.27394749972E+02  0.58706432658E+02  0.10000000000E+01 0.  0.
<mgrwt>
<rscale>  0 0.12499820E+03</rscale>
<asrwt>0</asrwt>
<pdfrwt beam="2">  1        4 0.85097513E-02 0.12499820E+03</pdfrwt>
<pdfrwt beam="1">  1       -4 0.10864354E-01 0.12499820E+03</pdfrwt>
<totfact> 0.10432879E+04</totfact>
</mgrwt>
</event>
<event>
 5    1  0.3311405E-002  0.1250003E+03  0.7818608E-02  0.1235069E+00
          4   -1    0    0  501    0  0.00000000000E+00  0.00000000000E+00  0.26310208214E+03  0.26310514728E+03  0.12700000000E+01 0. -1.
         -4   -1    0    0    0  501 -0.00000000000E+00 -0.00000000000E+00 -0.14816644279E+02  0.14870973327E+02  0.12700000000E+01 0. -1.
         25    2    1    2    0    0  0.00000000000E+00  0.00000000000E+00  0.24828543786E+03  0.27797612061E+03  0.12500025990E+03 0.  0.
    9000005    1    3    3    0    0 -0.21011975029E+02 -0.28527699332E+02  0.96668198644E+01  0.36739353969E+02  0.10000000000E+01 0.  0.
    9000005    1    3    3    0    0  0.21011975029E+02  0.28527699332E+02  0.23861861800E+03  0.24123676664E+03  0.10000000000E+01 0.  0.
<mgrwt>
<rscale>  0 0.12500026E+03</rscale>
<asrwt>0</asrwt>
<pdfrwt beam="1">  1        4 0.40481657E-01 0.12500026E+03</pdfrwt>
<pdfrwt beam="2">  1       -4 0.22838988E-02 0.12500026E+03</pdfrwt>
<totfact> 0.78446771E+03</totfact>
</mgrwt>
</event>
<event>
 5    1  0.3311405E-002  0.1249978E+03  0.7818608E-02  0.1235073E+00
          4   -1    0    0  501    0  0.00000000000E+00  0.00000000000E+00  0.16125404389E+02  0.16175338225E+02  0.12700000000E+01 0. -1.
         -4   -1    0    0    0  501 -0.00000000000E+00 -0.00000000000E+00 -0.24180728107E+03  0.24181061614E+03  0.12700000000E+01 0. -1.
         25    2    1    2    0    0  0.00000000000E+00  0.00000000000E+00 -0.22568187668E+03  0.25798595436E+03  0.12499777273E+03 0.  0.
    9000005    1    3    3    0    0  0.29656165781E+02 -0.52885062590E+02 -0.14405964794E+03  0.15630259172E+03  0.10000000000E+01 0.  0.
    9000005    1    3    3    0    0 -0.29656165781E+02  0.52885062590E+02 -0.81622228734E+02  0.10168336264E+03  0.10000000000E+01 0.  0.
<mgrwt>
<rscale>  0 0.12499777E+03</rscale>
<asrwt>0</asrwt>
<pdfrwt beam="1">  1        4 0.24849292E-02 0.12499777E+03</pdfrwt>
<pdfrwt beam="2">  1       -4 0.37205215E-01 0.12499777E+03</pdfrwt>
<totfact> 0.81193564E+03</totfact>
</mgrwt>
</event>
<event>
 4    1  0.3311405E-002  0.1251132E+03  0.7818608E-02  0.1234892E+00
         -4   -1    0    0    0  501 -0.00000000000E+00  0.00000000000E+00  0.81789332408E+01  0.82769468379E+01  0.12700000000E+01 0. -1.
          4   -1    0    0  501    0  0.00000000000E+00 -0.00000000000E+00 -0.47551595033E+03  0.47551764627E+03  0.12700000000E+01 0. -1.
    9000005    1    1    2    0    0  0.43146254931E+02  0.18445806075E+02 -0.39359380483E+03  0.39638230318E+03  0.10000000000E+01 0.  0.
    9000005    1    1    2    0    0 -0.43146254931E+02 -0.18445806075E+02 -0.73743212260E+02  0.87412289929E+02  0.10000000000E+01 0.  0.
<mgrwt>
<rscale>  0 0.12511323E+03</rscale>
<asrwt>0</asrwt>
<pdfrwt beam="2">  1        4 0.73163949E-01 0.12511323E+03</pdfrwt>
<pdfrwt beam="1">  1       -4 0.12659678E-02 0.12511323E+03</pdfrwt>
<totfact> 0.57001890E+03</totfact>
</mgrwt>
</event>
<event>
 5    1  0.3311405E-002  0.1250012E+03  0.7818608E-02  0.1235067E+00
          4   -1    0    0  501    0  0.00000000000E+00  0.00000000000E+00  0.87759321794E+02  0.87768510650E+02  0.12700000000E+01 0.  1.
         -4   -1    0    0    0  501 -0.00000000000E+00 -0.00000000000E+00 -0.44491194551E+02  0.44509316919E+02  0.12700000000E+01 0.  1.
         25    2    1    2    0    0  0.00000000000E+00  0.00000000000E+00  0.43268127242E+02  0.13227782757E+03  0.12500117132E+03 0.  0.
    9000005    1    3    3    0    0  0.30570527329E+02  0.11408782867E+02 -0.34765851626E+02  0.47690480255E+02  0.10000000000E+01 0.  0.
    9000005    1    3    3    0    0 -0.30570527329E+02 -0.11408782867E+02  0.78033978868E+02  0.84587347314E+02  0.10000000000E+01 0.  0.
<mgrwt>
<rscale>  0 0.12500117E+03</rscale>
<asrwt>0</asrwt>
<pdfrwt beam="1">  1        4 0.13503535E-01 0.12500117E+03</pdfrwt>
<pdfrwt beam="2">  1       -4 0.68469000E-02 0.12500117E+03</pdfrwt>
<totfact> 0.10295500E+04</totfact>
</mgrwt>
</event>
<event>
 5    1  0.3311405E-002  0.1249864E+03  0.7818608E-02  0.1235091E+00
          4   -1    0    0  501    0  0.00000000000E+00  0.00000000000E+00  0.36207848816E+03  0.36208071544E+03  0.12700000000E+01 0. -1.
         -4   -1    0    0    0  501 -0.00000000000E+00 -0.00000000000E+00 -0.10746406682E+02  0.10821190164E+02  0.12700000000E+01 0. -1.
         25    2    1    2    0    0  0.00000000000E+00  0.00000000000E+00  0.35133208148E+03  0.37290190560E+03  0.12498639815E+03 0.  0.
    9000005    1    3    3    0    0 -0.45669087611E+02 -0.56280681898E+00  0.30289285859E+03  0.30631856963E+03  0.10000000000E+01 0.  0.
    9000005    1    3    3    0    0  0.45669087611E+02  0.56280681898E+00  0.48439222890E+02  0.66583335970E+02  0.10000000000E+01 0.  0.
<mgrwt>
<rscale>  0 0.12498640E+03</rscale>
<asrwt>0</asrwt>
<pdfrwt beam="1">  1        4 0.55710306E-01 0.12498640E+03</pdfrwt>
<pdfrwt beam="2">  1       -4 0.16592173E-02 0.12498640E+03</pdfrwt>
<totfact> 0.67296663E+03</totfact>
</mgrwt>
</event>
<event>
 5    1  0.3311405E-002  0.1249995E+03  0.7818608E-02  0.1235070E+00
          4   -1    0    0  501    0  0.00000000000E+00  0.00000000000E+00  0.22532318141E+03  0.22532676046E+03  0.12700000000E+01 0. -1.
         -4   -1    0    0    0  501 -0.00000000000E+00 -0.00000000000E+00 -0.17309087087E+02  0.17355615684E+02  0.12700000000E+01 0. -1.
         25    2    1    2    0    0  0.00000000000E+00  0.00000000000E+00  0.20801409432E+03  0.24268237615E+03  0.12499948902E+03 0.  0.
    9000005    1    3    3    0    0  0.57280936337E+02 -0.17609126577E+02  0.69602463902E+02  0.91851456100E+02  0.10000000000E+01 0.  0.
    9000005    1    3    3    0    0 -0.57280936337E+02  0.17609126577E+02  0.13841163042E+03  0.15083092005E+03  0.10000000000E+01 0.  0.
<mgrwt>
<rscale>  0 0.12499949E+03</rscale>
<asrwt>0</asrwt>
<pdfrwt beam="1">  1        4 0.34668958E-01 0.12499949E+03</pdfrwt>
<pdfrwt beam="2">  1       -4 0.26667910E-02 0.12499949E+03</pdfrwt>
<totfact> 0.83400440E+03</totfact>
</mgrwt>
</event>
<event>
 5    1  0.3311405E-002  0.1250005E+03  0.7818608E-02  0.1235069E+00
          4   -1    0    0  501    0  0.00000000000E+00  0.00000000000E+00  0.61655243706E+02  0.61668322310E+02  0.12700000000E+01 0.  1.
         -4   -1    0    0    0  501 -0.00000000000E+00 -0.00000000000E+00 -0.63330652494E+02  0.63343385174E+02  0.12700000000E+01 0.  1.
         25    2    1    2    0    0  0.00000000000E+00  0.00000000000E+00 -0.16754087873E+01  0.12501170748E+03  0.12500048005E+03 0.  0.
    9000005    1    3    3    0    0 -0.25262800738E+02 -0.27914511101E+02  0.49045137400E+02  0.61837323144E+02  0.10000000000E+01 0.  0.
    9000005    1    3    3    0    0  0.25262800738E+02  0.27914511101E+02 -0.50720546187E+02  0.63174384339E+02  0.10000000000E+01 0.  0.
<mgrwt>
<rscale>  0 0.12500048E+03</rscale>
<asrwt>0</asrwt>
<pdfrwt beam="1">  1        4 0.94874076E-02 0.12500048E+03</pdfrwt>
<pdfrwt beam="2">  1       -4 0.97451628E-02 0.12500048E+03</pdfrwt>
<totfact> 0.10452495E+04</totfact>
</mgrwt>
</event>
<event>
 5    1  0.3311405E-002  0.1249970E+03  0.7818608E-02  0.1235074E+00
         -4   -1    0    0    0  501 -0.00000000000E+00  0.00000000000E+00  0.66100295631E+02  0.66112494904E+02  0.12700000000E+01 0. -1.
          4   -1    0    0  501    0  0.00000000000E+00 -0.00000000000E+00 -0.59068502993E+02  0.59082154208E+02  0.12700000000E+01 0. -1.
         25    2    1    2    0    0  0.00000000000E+00  0.00000000000E+00  0.70317926380E+01  0.12519464911E+03  0.12499701620E+03 0.  0.
    9000005    1    3    3    0    0  0.21584187315E+02 -0.28206588878E+02  0.55012894703E+02  0.65489750204E+02  0.10000000000E+01 0.  0.
    9000005    1    3    3    0    0 -0.21584187315E+02  0.28206588878E+02 -0.47981102065E+02  0.59704898908E+02  0.10000000000E+01 0.  0.
<mgrwt>
<rscale>  0 0.12499702E+03</rscale>
<asrwt>0</asrwt>
<pdfrwt beam="2">  1        4 0.90894505E-02 0.12499702E+03</pdfrwt>
<pdfrwt beam="1">  1       -4 0.10171265E-01 0.12499702E+03</pdfrwt>
<totfact> 0.10449341E+04</totfact>
</mgrwt>
</event>
<event>
 5    1  0.3311405E-002  0.1250000E+03  0.7818608E-02  0.1235069E+00
          4   -1    0    0  501    0  0.00000000000E+00  0.00000000000E+00  0.43851717855E+01  0.45653731051E+01  0.12700000000E+01 0.  1.
         -4   -1    0    0    0  501 -0.00000000000E+00 -0.00000000000E+00 -0.87267176982E+03  0.87267269393E+03  0.12700000000E+01 0.  1.
         25    2    1    2    0    0  0.00000000000E+00  0.00000000000E+00 -0.86828659803E+03  0.87723806704E+03  0.12500003976E+03 0.  0.
    9000005    1    3    3    0    0 -0.20013710035E+02  0.13588672676E+02 -0.83851406675E+03  0.83886354120E+03  0.10000000000E+01 0.  0.
    9000005    1    3    3    0    0  0.20013710035E+02 -0.13588672676E+02 -0.29772531282E+02  0.38374525840E+02  0.10000000000E+01 0.  0.
<mgrwt>
<rscale>  0 0.12500004E+03</rscale>
<asrwt>0</asrwt>
<pdfrwt beam="1">  1        4 0.68857523E-03 0.12500004E+03</pdfrwt>
<pdfrwt beam="2">  1       -4 0.13427099E+00 0.12500004E+03</pdfrwt>
<totfact> 0.35037899E+03</totfact>
</mgrwt>
</event>
<event>
 5    1  0.3311405E-002  0.1250059E+03  0.7818608E-02  0.1235060E+00
         -4   -1    0    0    0  501 -0.00000000000E+00  0.00000000000E+00  0.81339835351E+01  0.82325323048E+01  0.12700000000E+01 0.  1.
          4   -1    0    0  501    0  0.00000000000E+00 -0.00000000000E+00 -0.47729194510E+03  0.47729363473E+03  0.12700000000E+01 0.  1.
         25    2    1    2    0    0  0.00000000000E+00  0.00000000000E+00 -0.46915796156E+03  0.48552616704E+03  0.12500586378E+03 0.  0.
    9000005    1    3    3    0    0 -0.17630856783E+02 -0.20513218134E+02 -0.45339754360E+03  0.45420476854E+03  0.10000000000E+01 0.  0.
    9000005    1    3    3    0    0  0.17630856783E+02  0.20513218134E+02 -0.15760417969E+02  0.31321398495E+02  0.10000000000E+01 0.  0.
<mgrwt>
<rscale>  0 0.12500586E+03</rscale>
<asrwt>0</asrwt>
<pdfrwt beam="2">  1        4 0.73437219E-01 0.12500586E+03</pdfrwt>
<pdfrwt beam="1">  1       -4 0.12590931E-02 0.12500586E+03</pdfrwt>
<totfact> 0.56997766E+03</totfact>
</mgrwt>
</event>
<event>
 4    1  0.3311405E-002  0.1249342E+03  0.7818608E-02  0.1235172E+00
          4   -1    0    0  501    0  0.00000000000E+00  0.00000000000E+00  0.94300829846E+01  0.95152175538E+01  0.12700000000E+01 0.  1.
         -4   -1    0    0    0  501 -0.00000000000E+00 -0.00000000000E+00 -0.41185137317E+03  0.41185333127E+03  0.12700000000E+01 0.  1.
    9000005    1    1    2    0    0 -0.48272086034E+02  0.36851589601E+02 -0.15199825055E+03  0.16368476446E+03  0.10000000000E+01 0.  0.
    9000005    1    1    2    0    0  0.48272086034E+02 -0.36851589601E+02 -0.25042303963E+03  0.25768378436E+03  0.10000000000E+01 0.  0.
<mgrwt>
<rscale>  0 0.12493422E+03</rscale>
<asrwt>0</asrwt>
<pdfrwt beam="1">  1        4 0.14574818E-02 0.12493422E+03</pdfrwt>
<pdfrwt beam="2">  1       -4 0.63368435E-01 0.12493422E+03</pdfrwt>
<totfact> 0.62617061E+03</totfact>
</mgrwt>
</event>
<event>
 5    1  0.3311405E-002  0.1249976E+03  0.7818608E-02  0.1235073E+00
         -4   -1    0    0    0  501 -0.00000000000E+00  0.00000000000E+00  0.42437973905E+02  0.42456972680E+02  0.12700000000E+01 0.  1.
          4   -1    0    0  501    0  0.00000000000E+00 -0.00000000000E+00 -0.91998530785E+02  0.92007296268E+02  0.12700000000E+01 0.  1.
         25    2    1    2    0    0  0.00000000000E+00  0.00000000000E+00 -0.49560556880E+02  0.13446426895E+03  0.12499756328E+03 0.  0.
    9000005    1    3    3    0    0  0.59957931125E+02  0.72085151824E+01 -0.74953368322E+01  0.60861287122E+02  0.10000000000E+01 0.  0.
    9000005    1    3    3    0    0 -0.59957931125E+02 -0.72085151824E+01 -0.42065220048E+02  0.73602981826E+02  0.10000000000E+01 0.  0.
<mgrwt>
<rscale>  0 0.12499756E+03</rscale>
<asrwt>0</asrwt>
<pdfrwt beam="2">  1        4 0.14155756E-01 0.12499756E+03</pdfrwt>
<pdfrwt beam="1">  1       -4 0.65310548E-02 0.12499756E+03</pdfrwt>
<totfact> 0.10249938E+04</totfact>
</mgrwt>
</event>
<event>
 5    1  0.3311405E-002  0.1250019E+03  0.7818608E-02  0.1235066E+00
         -4   -1    0    0    0  501 -0.00000000000E+00  0.00000000000E+00  0.26825029626E+02  0.26855076139E+02  0.12700000000E+01 0. -1.
          4   -1    0    0  501    0  0.00000000000E+00 -0.00000000000E+00 -0.14550960027E+03  0.14551514241E+03  0.12700000000E+01 0. -1.
         25    2    1    2    0    0  0.00000000000E+00  0.00000000000E+00 -0.11868457064E+03  0.17237021855E+03  0.12500185972E+03 0.  0.
    9000005    1    3    3    0    0 -0.42193925338E+02 -0.11645867426E+02 -0.12084697020E+03  0.12853382345E+03  0.10000000000E+01 0.  0.
    9000005    1    3    3    0    0  0.42193925338E+02  0.11645867426E+02  0.21623995572E+01  0.43836395101E+02  0.10000000000E+01 0.  0.
<mgrwt>
<rscale>  0 0.12500186E+03</rscale>
<asrwt>0</asrwt>
<pdfrwt beam="2">  1        4 0.22388830E-01 0.12500186E+03</pdfrwt>
<pdfrwt beam="1">  1       -4 0.41296653E-02 0.12500186E+03</pdfrwt>
<totfact> 0.95004733E+03</totfact>
</mgrwt>
</event>
<event>
 5    1  0.3311405E-002  0.1249897E+03  0.7818608E-02  0.1235085E+00
          4   -1    0    0  501    0  0.00000000000E+00  0.00000000000E+00  0.20227884426E+02  0.20267713447E+02  0.12700000000E+01 0.  1.
         -4   -1    0    0    0  501 -0.00000000000E+00 -0.00000000000E+00 -0.19284850650E+03  0.19285268824E+03  0.12700000000E+01 0.  1.
         25    2    1    2    0    0  0.00000000000E+00  0.00000000000E+00 -0.17262062208E+03  0.21312040168E+03  0.12498970537E+03 0.  0.
    9000005    1    3    3    0    0  0.16618682791E+02 -0.60187231713E+02 -0.90460104872E+02  0.10992139943E+03  0.10000000000E+01 0.  0.
    9000005    1    3    3    0    0 -0.16618682791E+02  0.60187231713E+02 -0.82160517204E+02  0.10319900225E+03  0.10000000000E+01 0.  0.
<mgrwt>
<rscale>  0 0.12498971E+03</rscale>
<asrwt>0</asrwt>
<pdfrwt beam="1">  1        4 0.31153678E-02 0.12498971E+03</pdfrwt>
<pdfrwt beam="2">  1       -4 0.29672385E-01 0.12498971E+03</pdfrwt>
<totfact> 0.87989045E+03</totfact>
</mgrwt>
</event>
<event>
 5    1  0.3311405E-002  0.1249997E+03  0.7818608E-02  0.1235070E+00
          4   -1    0    0  501    0  0.00000000000E+00  0.00000000000E+00  0.69628534617E+02  0.69640115830E+02  0.12700000000E+01 0. -1.
         -4   -1    0    0    0  501 -0.00000000000E+00 -0.00000000000E+00 -0.56077592248E+02  0.56091971371E+02  0.12700000000E+01 0. -1.
         25    2    1    2    0    0  0.00000000000E+00  0.00000000000E+00  0.13550942369E+02  0.12573208720E+03  0.12499971885E+03 0.  0.
    9000005    1    3    3    0    0  0.14947021686E+02 -0.59741725865E+02 -0.39048926037E+01  0.61714953236E+02  0.10000000000E+01 0.  0.
    9000005    1    3    3    0    0 -0.14947021686E+02  0.59741725865E+02  0.17455834972E+02  0.64017133966E+02  0.10000000000E+01 0.  0.
<mgrwt>
<rscale>  0 0.12499972E+03</rscale>
<asrwt>0</asrwt>
<pdfrwt beam="1">  1        4 0.10714079E-01 0.12499972E+03</pdfrwt>
<pdfrwt beam="2">  1       -4 0.86293188E-02 0.12499972E+03</pdfrwt>
<totfact> 0.10436905E+04</totfact>
</mgrwt>
</event>
<event>
 5    1  0.3311405E-002  0.1249985E+03  0.7818608E-02  0.1235072E+00
         -4   -1    0    0    0  501 -0.00000000000E+00  0.00000000000E+00  0.41725649095E+03  0.41725842369E+03  0.12700000000E+01 0. -1.
          4   -1    0    0  501    0  0.00000000000E+00 -0.00000000000E+00 -0.93164829450E+01  0.94026461416E+01  0.12700000000E+01 0. -1.
         25    2    1    2    0    0  0.00000000000E+00  0.00000000000E+00  0.40794000801E+03  0.42666106984E+03  0.12499847350E+03 0.  0.
    9000005    1    3    3    0    0  0.61960060769E+02  0.61343466486E+01  0.18575571926E+03  0.19591545773E+03  0.10000000000E+01 0.  0.
    9000005    1    3    3    0    0 -0.61960060769E+02 -0.61343466486E+01  0.22218428875E+03  0.23074561211E+03  0.10000000000E+01 0.  0.
<mgrwt>
<rscale>  0 0.12499847E+03</rscale>
<asrwt>0</asrwt>
<pdfrwt beam="2">  1        4 0.14400814E-02 0.12499847E+03</pdfrwt>
<pdfrwt beam="1">  1       -4 0.64200094E-01 0.12499847E+03</pdfrwt>
<totfact> 0.62041895E+03</totfact>
</mgrwt>
</event>
<event>
 5    1  0.3311405E-002  0.1250004E+03  0.7818608E-02  0.1235069E+00
          4   -1    0    0  501    0  0.00000000000E+00  0.00000000000E+00  0.58845958030E+02  0.58859660859E+02  0.12700000000E+01 0.  1.
         -4   -1    0    0    0  501 -0.00000000000E+00 -0.00000000000E+00 -0.66353820613E+02  0.66365973284E+02  0.12700000000E+01 0.  1.
         25    2    1    2    0    0  0.00000000000E+00  0.00000000000E+00 -0.75078625833E+01  0.12522563414E+03  0.12500036578E+03 0.  0.
    9000005    1    3    3    0    0  0.60039382639E+02  0.10124158462E+02  0.10344340561E+02  0.61767559721E+02  0.10000000000E+01 0.  0.
    9000005    1    3    3    0    0 -0.60039382639E+02 -0.10124158462E+02 -0.17852203144E+02  0.63458074422E+02  0.10000000000E+01 0.  0.
<mgrwt>
<rscale>  0 0.12500037E+03</rscale>
<asrwt>0</asrwt>
<pdfrwt beam="1">  1        4 0.90552131E-02 0.12500037E+03</pdfrwt>
<pdfrwt beam="2">  1       -4 0.10210269E-01 0.12500037E+03</pdfrwt>
<totfact> 0.10447877E+04</totfact>
</mgrwt>
</event>
<event>
 5    1  0.3311405E-002  0.1250046E+03  0.7818608E-02  0.1235062E+00
          4   -1    0    0  501    0  0.00000000000E+00  0.00000000000E+00  0.85658274155E+02  0.85667688373E+02  0.12700000000E+01 0.  1.
         -4   -1    0    0    0  501 -0.00000000000E+00 -0.00000000000E+00 -0.45585287472E+02  0.45602975056E+02  0.12700000000E+01 0.  1.
         25    2    1    2    0    0  0.00000000000E+00  0.00000000000E+00  0.40072986682E+02  0.13127066343E+03  0.12500457118E+03 0.  0.
    9000005    1    3    3    0    0 -0.28388946624E+02 -0.57418688171E+01  0.78189581700E+02  0.83387721125E+02  0.10000000000E+01 0.  0.
    9000005    1    3    3    0    0  0.28388946624E+02  0.57418688171E+01 -0.38116595018E+02  0.47882942304E+02  0.10000000000E+01 0.  0.
<mgrwt>
<rscale>  0 0.12500457E+03</rscale>
<asrwt>0</asrwt>
<pdfrwt beam="1">  1        4 0.13180281E-01 0.12500457E+03</pdfrwt>
<pdfrwt beam="2">  1       -4 0.70152059E-02 0.12500457E+03</pdfrwt>
<totfact> 0.10316226E+04</totfact>
</mgrwt>
</event>
<event>
 5    1  0.3311405E-002  0.1250001E+03  0.7818608E-02  0.1235069E+00
          4   -1    0    0  501    0  0.00000000000E+00  0.00000000000E+00  0.94033509070E+03  0.94033594832E+03  0.12700000000E+01 0.  1.
         -4   -1    0    0    0  501 -0.00000000000E+00 -0.00000000000E+00 -0.40561638553E+01  0.42503370715E+01  0.12700000000E+01 0.  1.
         25    2    1    2    0    0  0.00000000000E+00  0.00000000000E+00  0.93627892684E+03  0.94458628539E+03  0.12500008678E+03 0.  0.
    9000005    1    3    3    0    0 -0.43412564623E+02  0.39764461175E+02  0.30973860373E+03  0.31528537197E+03  0.10000000000E+01 0.  0.
    9000005    1    3    3    0    0  0.43412564623E+02 -0.39764461175E+02  0.62654032311E+03  0.62930091342E+03  0.10000000000E+01 0.  0.
<mgrwt>
<rscale>  0 0.12500009E+03</rscale>
<asrwt>0</asrwt>
<pdfrwt beam="1">  1        4 0.14468212E+00 0.12500009E+03</pdfrwt>
<pdfrwt beam="2">  1       -4 0.63902680E-03 0.12500009E+03</pdfrwt>
<totfact> 0.32508859E+03</totfact>
</mgrwt>
</event>
<event>
 5    1  0.3311405E-002  0.1250094E+03  0.7818608E-02  0.1235055E+00
         -4   -1    0    0    0  501 -0.00000000000E+00  0.00000000000E+00  0.21765323210E+03  0.21765693728E+03  0.12700000000E+01 0.  1.
          4   -1    0    0  501    0  0.00000000000E+00 -0.00000000000E+00 -0.17923493047E+02  0.17968430733E+02  0.12700000000E+01 0.  1.
         25    2    1    2    0    0  0.00000000000E+00  0.00000000000E+00  0.19972973906E+03  0.23562536801E+03  0.12500938119E+03 0.  0.
    9000005    1    3    3    0    0 -0.57739685955E+02 -0.68295764084E+01  0.14306570970E+03  0.15443222377E+03  0.10000000000E+01 0.  0.
    9000005    1    3    3    0    0  0.57739685955E+02  0.68295764084E+01  0.56664029360E+02  0.81193144239E+02  0.10000000000E+01 0.  0.
<mgrwt>
<rscale>  0 0.12500938E+03</rscale>
<asrwt>0</asrwt>
<pdfrwt beam="2">  1        4 0.27612019E-02 0.12500938E+03</pdfrwt>
<pdfrwt beam="1">  1       -4 0.33488858E-01 0.12500938E+03</pdfrwt>
<totfact> 0.84435565E+03</totfact>
</mgrwt>
</event>
<event>
 5    1  0.3311405E-002  0.1249975E+03  0.7818608E-02  0.1235073E+00
          4   -1    0    0  501    0  0.00000000000E+00  0.00000000000E+00  0.13581298312E+02  0.13640548517E+02  0.12700000000E+01 0.  1.
         -4   -1    0    0    0  501 -0.00000000000E+00 -0.00000000000E+00 -0.28692182126E+03  0.28692463195E+03  0.12700000000E+01 0.  1.
         25    2    1    2    0    0  0.00000000000E+00  0.00000000000E+00 -0.27334052295E+03  0.30056518046E+03  0.12499754485E+03 0.  0.
    9000005    1    3    3    0    0 -0.62032611850E+02 -0.72233944378E+01 -0.13136155613E+03  0.14545473794E+03  0.10000000000E+01 0.  0.
    9000005    1    3    3    0    0  0.62032611850E+02  0.72233944378E+01 -0.14197896682E+03  0.15511044252E+03  0.10000000000E+01 0.  0.
<mgrwt>
<rscale>  0 0.12499754E+03</rscale>
<asrwt>0</asrwt>
<pdfrwt beam="1">  1        4 0.20942046E-02 0.12499754E+03</pdfrwt>
<pdfrwt beam="2">  1       -4 0.44146588E-01 0.12499754E+03</pdfrwt>
<totfact> 0.75532117E+03</totfact>
</mgrwt>
</event>
<event>
 5    1  0.3311405E-002  0.1250016E+03  0.7818608E-02  0.1235067E+00
          4   -1    0    0  501    0  0.00000000000E+00  0.00000000000E+00  0.13595354904E+02  0.13654544114E+02  0.12700000000E+01 0.  1.
         -4   -1    0    0    0  501 -0.00000000000E+00 -0.00000000000E+00 -0.28664492241E+03  0.28664773581E+03  0.12700000000E+01 0.  1.
         25    2    1    2    0    0  0.00000000000E+00  0.00000000000E+00 -0.27304956750E+03  0.30030227992E+03  0.12500157203E+03 0.  0.
    9000005    1    3    3    0    0  0.51971652916E+02  0.33883872298E+02 -0.11851828950E+03  0.13377875188E+03  0.10000000000E+01 0.  0.
    9000005    1    3    3    0    0 -0.51971652916E+02 -0.33883872298E+02 -0.15453127800E+03  0.16652352804E+03  0.10000000000E+01 0.  0.
<mgrwt>
<rscale>  0 0.12500157E+03</rscale>
<asrwt>0</asrwt>
<pdfrwt beam="1">  1        4 0.20963627E-02 0.12500157E+03</pdfrwt>
<pdfrwt beam="2">  1       -4 0.44103984E-01 0.12500157E+03</pdfrwt>
<totfact> 0.75558302E+03</totfact>
</mgrwt>
</event>
<event>
 5    1  0.3311405E-002  0.1250040E+03  0.7818608E-02  0.1235063E+00
          4   -1    0    0  501    0  0.00000000000E+00  0.00000000000E+00  0.18341412589E+01  0.22309133013E+01  0.12700000000E+01 0.  1.
         -4   -1    0    0    0  501 -0.00000000000E+00 -0.00000000000E+00 -0.19215943334E+04  0.19215947531E+04  0.12700000000E+01 0.  1.
         25    2    1    2    0    0  0.00000000000E+00  0.00000000000E+00 -0.19197601922E+04  0.19238256664E+04  0.12500399709E+03 0.  0.
    9000005    1    3    3    0    0 -0.27824267589E+02 -0.48124208478E+02 -0.13993400596E+04  0.14004441195E+04  0.10000000000E+01 0.  0.
    9000005    1    3    3    0    0  0.27824267589E+02  0.48124208478E+02 -0.52042013253E+03  0.52338154691E+03  0.10000000000E+01 0.  0.
<mgrwt>
<rscale>  0 0.12500400E+03</rscale>
<asrwt>0</asrwt>
<pdfrwt beam="1">  1        4 0.31273033E-03 0.12500400E+03</pdfrwt>
<pdfrwt beam="2">  1       -4 0.29565900E+00 0.12500400E+03</pdfrwt>
<totfact> 0.10887596E+03</totfact>
</mgrwt>
</event>
<event>
 5    1  0.3311405E-002  0.1250048E+03  0.7818608E-02  0.1235062E+00
         -4   -1    0    0    0  501 -0.00000000000E+00  0.00000000000E+00  0.17841739335E+02  0.17886882414E+02  0.12700000000E+01 0.  1.
          4   -1    0    0  501    0  0.00000000000E+00 -0.00000000000E+00 -0.21863216356E+03  0.21863585215E+03  0.12700000000E+01 0.  1.
         25    2    1    2    0    0  0.00000000000E+00  0.00000000000E+00 -0.20079042423E+03  0.23652273456E+03  0.12500483792E+03 0.  0.
    9000005    1    3    3    0    0 -0.29867280935E+02 -0.47645474647E+02 -0.15198447127E+03  0.16205685802E+03  0.10000000000E+01 0.  0.
    9000005    1    3    3    0    0  0.29867280935E+02  0.47645474647E+02 -0.48805952960E+02  0.74465876541E+02  0.10000000000E+01 0.  0.
<mgrwt>
<rscale>  0 0.12500484E+03</rscale>
<asrwt>0</asrwt>
<pdfrwt beam="2">  1        4 0.33639472E-01 0.12500484E+03</pdfrwt>
<pdfrwt beam="1">  1       -4 0.27486394E-02 0.12500484E+03</pdfrwt>
<totfact> 0.84308890E+03</totfact>
</mgrwt>
</event>
<event>
 5    1  0.3311405E-002  0.1249962E+03  0.7818608E-02  0.1235075E+00
         -4   -1    0    0    0  501 -0.00000000000E+00  0.00000000000E+00  0.19253443463E+02  0.19295284014E+02  0.12700000000E+01 0. -1.
          4   -1    0    0  501    0  0.00000000000E+00 -0.00000000000E+00 -0.20260931142E+03  0.20261329170E+03  0.12700000000E+01 0. -1.
         25    2    1    2    0    0  0.00000000000E+00  0.00000000000E+00 -0.18335586795E+03  0.22190857571E+03  0.12499616659E+03 0.  0.
    9000005    1    3    3    0    0 -0.38084832416E+02  0.47236489517E+02 -0.65150661952E+02  0.89035662265E+02  0.10000000000E+01 0.  0.
    9000005    1    3    3    0    0  0.38084832416E+02 -0.47236489517E+02 -0.11820520600E+03  0.13287291345E+03  0.10000000000E+01 0.  0.
<mgrwt>
<rscale>  0 0.12499617E+03</rscale>
<asrwt>0</asrwt>
<pdfrwt beam="2">  1        4 0.31174186E-01 0.12499617E+03</pdfrwt>
<pdfrwt beam="1">  1       -4 0.29655930E-02 0.12499617E+03</pdfrwt>
<totfact> 0.86574653E+03</totfact>
</mgrwt>
</event>
<event>
 5    1  0.3311405E-002  0.1249989E+03  0.7818608E-02  0.1235071E+00
         -4   -1    0    0    0  501 -0.00000000000E+00  0.00000000000E+00  0.54410868088E+03  0.54411016303E+03  0.12700000000E+01 0.  1.
          4   -1    0    0  501    0  0.00000000000E+00 -0.00000000000E+00 -0.71213737783E+01  0.72337310214E+01  0.12700000000E+01 0.  1.
         25    2    1    2    0    0  0.00000000000E+00  0.00000000000E+00  0.53698730710E+03  0.55134389405E+03  0.12499888606E+03 0.  0.
    9000005    1    3    3    0    0 -0.18612084065E+02  0.10244009479E+02  0.92745725649E+01  0.23202739057E+02  0.10000000000E+01 0.  0.
    9000005    1    3    3    0    0  0.18612084065E+02 -0.10244009479E+02  0.52771273454E+03  0.52814115499E+03  0.10000000000E+01 0.  0.
<mgrwt>
<rscale>  0 0.12499889E+03</rscale>
<asrwt>0</asrwt>
<pdfrwt beam="2">  1        4 0.11043528E-02 0.12499889E+03</pdfrwt>
<pdfrwt beam="1">  1       -4 0.83717785E-01 0.12499889E+03</pdfrwt>
<totfact> 0.52091661E+03</totfact>
</mgrwt>
</event>
<event>
 5    1  0.3311405E-002  0.1250073E+03  0.7818608E-02  0.1235058E+00
          4   -1    0    0  501    0  0.00000000000E+00  0.00000000000E+00  0.64629374165E+02  0.64641851033E+02  0.12700000000E+01 0.  1.
         -4   -1    0    0    0  501 -0.00000000000E+00 -0.00000000000E+00 -0.60422902186E+02  0.60436247472E+02  0.12700000000E+01 0.  1.
         25    2    1    2    0    0  0.00000000000E+00  0.00000000000E+00  0.42064719796E+01  0.12507809851E+03  0.12500734506E+03 0.  0.
    9000005    1    3    3    0    0 -0.32276556684E+02 -0.19431523323E+02 -0.47788288189E+02  0.60861159191E+02  0.10000000000E+01 0.  0.
    9000005    1    3    3    0    0  0.32276556684E+02  0.19431523323E+02  0.51994760168E+02  0.64216939315E+02  0.10000000000E+01 0.  0.
<mgrwt>
<rscale>  0 0.12500735E+03</rscale>
<asrwt>0</asrwt>
<pdfrwt beam="1">  1        4 0.99449670E-02 0.12500735E+03</pdfrwt>
<pdfrwt beam="2">  1       -4 0.92978174E-02 0.12500735E+03</pdfrwt>
<totfact> 0.10449432E+04</totfact>
</mgrwt>
</event>
<event>
 5    1  0.3311405E-002  0.1249997E+03  0.7818608E-02  0.1235070E+00
         -4   -1    0    0    0  501 -0.00000000000E+00  0.00000000000E+00  0.93220377713E+01  0.94081500950E+01  0.12700000000E+01 0.  1.
          4   -1    0    0  501    0  0.00000000000E+00 -0.00000000000E+00 -0.41701842343E+03  0.41702035727E+03  0.12700000000E+01 0.  1.
         25    2    1    2    0    0  0.00000000000E+00  0.00000000000E+00 -0.40769638566E+03  0.42642850737E+03  0.12499971607E+03 0.  0.
    9000005    1    3    3    0    0 -0.21309870830E+02 -0.48588846378E+02 -0.31648994265E+03  0.32090788458E+03  0.10000000000E+01 0.  0.
    9000005    1    3    3    0    0  0.21309870830E+02  0.48588846378E+02 -0.91206443006E+02  0.10552062278E+03  0.10000000000E+01 0.  0.
<mgrwt>
<rscale>  0 0.12499972E+03</rscale>
<asrwt>0</asrwt>
<pdfrwt beam="2">  1        4 0.64163439E-01 0.12499972E+03</pdfrwt>
<pdfrwt beam="1">  1       -4 0.14409328E-02 0.12499972E+03</pdfrwt>
<totfact> 0.62061460E+03</totfact>
</mgrwt>
</event>
<event>
 5    1  0.3311405E-002  0.1249982E+03  0.7818608E-02  0.1235072E+00
          4   -1    0    0  501    0  0.00000000000E+00  0.00000000000E+00  0.85287962050E+03  0.85288056607E+03  0.12700000000E+01 0. -1.
         -4   -1    0    0    0  501 -0.00000000000E+00 -0.00000000000E+00 -0.44909319856E+01  0.46670515424E+01  0.12700000000E+01 0. -1.
         25    2    1    2    0    0  0.00000000000E+00  0.00000000000E+00  0.84838868852E+03  0.85754761761E+03  0.12499819862E+03 0.  0.
    9000005    1    3    3    0    0 -0.20946730247E+02  0.95211771284E+01  0.82279466188E+03  0.82311692605E+03  0.10000000000E+01 0.  0.
    9000005    1    3    3    0    0  0.20946730247E+02 -0.95211771284E+01  0.25594026638E+02  0.34430691563E+02  0.10000000000E+01 0.  0.
<mgrwt>
<rscale>  0 0.12499820E+03</rscale>
<asrwt>0</asrwt>
<pdfrwt beam="1">  1        4 0.13122592E+00 0.12499820E+03</pdfrwt>
<pdfrwt beam="2">  1       -4 0.70453275E-03 0.12499820E+03</pdfrwt>
<totfact> 0.35821839E+03</totfact>
</mgrwt>
</event>
<event>
 5    1  0.3311405E-002  0.1250066E+03  0.7818608E-02  0.1235059E+00
         -4   -1    0    0    0  501 -0.00000000000E+00  0.00000000000E+00  0.15899576522E+02  0.15950217352E+02  0.12700000000E+01 0.  1.
          4   -1    0    0  501    0  0.00000000000E+00 -0.00000000000E+00 -0.24526560523E+03  0.24526889327E+03  0.12700000000E+01 0.  1.
         25    2    1    2    0    0  0.00000000000E+00  0.00000000000E+00 -0.22936602870E+03  0.26121911062E+03  0.12500659435E+03 0.  0.
    9000005    1    3    3    0    0 -0.39911739611E+02  0.31377508738E+02 -0.19083800854E+03  0.19747820264E+03  0.10000000000E+01 0.  0.
    9000005    1    3    3    0    0  0.39911739611E+02 -0.31377508738E+02 -0.38528020165E+02  0.63740907988E+02  0.10000000000E+01 0.  0.
<mgrwt>
<rscale>  0 0.12500659E+03</rscale>
<asrwt>0</asrwt>
<pdfrwt beam="2">  1        4 0.37737316E-01 0.12500659E+03</pdfrwt>
<pdfrwt beam="1">  1       -4 0.24502373E-02 0.12500659E+03</pdfrwt>
<totfact> 0.80723432E+03</totfact>
</mgrwt>
</event>
<event>
 5    1  0.3311405E-002  0.1249986E+03  0.7818608E-02  0.1235072E+00
         -4   -1    0    0    0  501 -0.00000000000E+00  0.00000000000E+00  0.25755689583E+02  0.25786982102E+02  0.12700000000E+01 0. -1.
          4   -1    0    0  501    0  0.00000000000E+00 -0.00000000000E+00 -0.15153598606E+03  0.15154130781E+03  0.12700000000E+01 0. -1.
         25    2    1    2    0    0  0.00000000000E+00  0.00000000000E+00 -0.12578029648E+03  0.17732828991E+03  0.12499855767E+03 0.  0.
    9000005    1    3    3    0    0 -0.42631539315E+02 -0.85956894280E+01  0.77239409505E+00  0.43507822443E+02  0.10000000000E+01 0.  0.
    9000005    1    3    3    0    0  0.42631539315E+02  0.85956894280E+01 -0.12655269057E+03  0.13382046747E+03  0.10000000000E+01 0.  0.
<mgrwt>
<rscale>  0 0.12499856E+03</rscale>
<asrwt>0</asrwt>
<pdfrwt beam="2">  1        4 0.23316045E-01 0.12499856E+03</pdfrwt>
<pdfrwt beam="1">  1       -4 0.39652304E-02 0.12499856E+03</pdfrwt>
<totfact> 0.94103186E+03</totfact>
</mgrwt>
</event>
<event>
 5    1  0.3311405E-002  0.1250067E+03  0.7818608E-02  0.1235059E+00
         -4   -1    0    0    0  501 -0.00000000000E+00  0.00000000000E+00  0.85387301130E+01  0.86326596100E+01  0.12700000000E+01 0.  1.
          4   -1    0    0  501    0  0.00000000000E+00 -0.00000000000E+00 -0.45492557107E+03  0.45492734378E+03  0.12700000000E+01 0.  1.
         25    2    1    2    0    0  0.00000000000E+00  0.00000000000E+00 -0.44638684096E+03  0.46356000339E+03  0.12500665965E+03 0.  0.
    9000005    1    3    3    0    0 -0.42028572972E+02 -0.32626465892E+02 -0.34476509438E+03  0.34884790027E+03  0.10000000000E+01 0.  0.
    9000005    1    3    3    0    0  0.42028572972E+02  0.32626465892E+02 -0.10162174658E+03  0.11471210311E+03  0.10000000000E+01 0.  0.
<mgrwt>
<rscale>  0 0.12500666E+03</rscale>
<asrwt>0</asrwt>
<pdfrwt beam="2">  1        4 0.69995892E-01 0.12500666E+03</pdfrwt>
<pdfrwt beam="1">  1       -4 0.13210129E-02 0.12500666E+03</pdfrwt>
<totfact> 0.58798219E+03</totfact>
</mgrwt>
</event>
<event>
 5    1  0.3311405E-002  0.1249978E+03  0.7818608E-02  0.1235073E+00
         -4   -1    0    0    0  501 -0.00000000000E+00  0.00000000000E+00  0.23976440864E+03  0.23976777212E+03  0.12700000000E+01 0. -1.
          4   -1    0    0  501    0  0.00000000000E+00 -0.00000000000E+00 -0.16263234407E+02  0.16312746347E+02  0.12700000000E+01 0. -1.
         25    2    1    2    0    0  0.00000000000E+00  0.00000000000E+00  0.22350117423E+03  0.25608051847E+03  0.12499782821E+03 0.  0.
    9000005    1    3    3    0    0  0.33945824582E+02 -0.27707374161E+01  0.21908886007E+03  0.22172262988E+03  0.10000000000E+01 0.  0.
    9000005    1    3    3    0    0 -0.33945824582E+02  0.27707374161E+01  0.44123141591E+01  0.34357888594E+02  0.10000000000E+01 0.  0.
<mgrwt>
<rscale>  0 0.12499783E+03</rscale>
<asrwt>0</asrwt>
<pdfrwt beam="2">  1        4 0.25061035E-02 0.12499783E+03</pdfrwt>
<pdfrwt beam="1">  1       -4 0.36890898E-01 0.12499783E+03</pdfrwt>
<totfact> 0.81463210E+03</totfact>
</mgrwt>
</event>
<event>
 5    1  0.3311405E-002  0.1250001E+03  0.7818608E-02  0.1235069E+00
         -4   -1    0    0    0  501 -0.00000000000E+00  0.00000000000E+00  0.33924401207E+03  0.33924638925E+03  0.12700000000E+01 0.  1.
          4   -1    0    0  501    0  0.00000000000E+00 -0.00000000000E+00 -0.11477146403E+02  0.11547198342E+02  0.12700000000E+01 0.  1.
         25    2    1    2    0    0  0.00000000000E+00  0.00000000000E+00  0.32776686566E+03  0.35079358760E+03  0.12500009149E+03 0.  0.
    9000005    1    3    3    0    0  0.52978738274E+01  0.58428098478E+02  0.22429134388E+03  0.23183942093E+03  0.10000000000E+01 0.  0.
    9000005    1    3    3    0    0 -0.52978738274E+01 -0.58428098478E+02  0.10347552179E+03  0.11895416667E+03  0.10000000000E+01 0.  0.
<mgrwt>
<rscale>  0 0.12500009E+03</rscale>
<asrwt>0</asrwt>
<pdfrwt beam="2">  1        4 0.17712862E-02 0.12500009E+03</pdfrwt>
<pdfrwt beam="1">  1       -4 0.52196960E-01 0.12500009E+03</pdfrwt>
<totfact> 0.69637195E+03</totfact>
</mgrwt>
</event>
<event>
 5    1  0.3311405E-002  0.1249991E+03  0.7818608E-02  0.1235071E+00
          4   -1    0    0  501    0  0.00000000000E+00  0.00000000000E+00  0.12834727885E+02  0.12897408262E+02  0.12700000000E+01 0. -1.
         -4   -1    0    0    0  501 -0.00000000000E+00 -0.00000000000E+00 -0.30354007805E+03  0.30354273485E+03  0.12700000000E+01 0. -1.
         25    2    1    2    0    0  0.00000000000E+00  0.00000000000E+00 -0.29070535016E+03  0.31644014311E+03  0.12499905424E+03 0.  0.
    9000005    1    3    3    0    0  0.54187263136E+02  0.30626288834E+02 -0.13126633402E+03  0.14527931546E+03  0.10000000000E+01 0.  0.
    9000005    1    3    3    0    0 -0.54187263136E+02 -0.30626288834E+02 -0.15943901614E+03  0.17116082765E+03  0.10000000000E+01 0.  0.
<mgrwt>
<rscale>  0 0.12499905E+03</rscale>
<asrwt>0</asrwt>
<pdfrwt beam="1">  1        4 0.19795997E-02 0.12499905E+03</pdfrwt>
<pdfrwt beam="2">  1       -4 0.46703494E-01 0.12499905E+03</pdfrwt>
<totfact> 0.73583078E+03</totfact>
</mgrwt>
</event>
<event>
 5    1  0.3311405E-002  0.1249995E+03  0.7818608E-02  0.1235070E+00
         -4   -1    0    0    0  501 -0.00000000000E+00  0.00000000000E+00  0.10891492683E+03  0.10892233098E+03  0.12700000000E+01 0.  1.
          4   -1    0    0  501    0  0.00000000000E+00 -0.00000000000E+00 -0.35845012580E+02  0.35867503772E+02  0.12700000000E+01 0.  1.
         25    2    1    2    0    0  0.00000000000E+00  0.00000000000E+00  0.73069914248E+02  0.14478983475E+03  0.12499953552E+03 0.  0.
    9000005    1    3    3    0    0  0.30377475205E+02  0.41402179996E+02 -0.47164592910E+01  0.51576898865E+02  0.10000000000E+01 0.  0.
    9000005    1    3    3    0    0 -0.30377475205E+02 -0.41402179996E+02  0.77786373539E+02  0.93212935887E+02  0.10000000000E+01 0.  0.
<mgrwt>
<rscale>  0 0.12499954E+03</rscale>
<asrwt>0</asrwt>
<pdfrwt beam="2">  1        4 0.55169170E-02 0.12499954E+03</pdfrwt>
<pdfrwt beam="1">  1       -4 0.16758442E-01 0.12499954E+03</pdfrwt>
<totfact> 0.10035365E+04</totfact>
</mgrwt>
</event>
<event>
 5    1  0.3311405E-002  0.1250025E+03  0.7818608E-02  0.1235065E+00
          4   -1    0    0  501    0  0.00000000000E+00  0.00000000000E+00  0.69801118069E+03  0.69801233604E+03  0.12700000000E+01 0. -1.
         -4   -1    0    0    0  501 -0.00000000000E+00 -0.00000000000E+00 -0.55232564434E+01  0.56673857942E+01  0.12700000000E+01 0. -1.
         25    2    1    2    0    0  0.00000000000E+00  0.00000000000E+00  0.69248792424E+03  0.70367972183E+03  0.12500250276E+03 0.  0.
    9000005    1    3    3    0    0  0.42063720966E+02 -0.12497804410E+02  0.59672392237E+03  0.59833601870E+03  0.10000000000E+01 0.  0.
    9000005    1    3    3    0    0 -0.42063720966E+02  0.12497804410E+02  0.95764001870E+02  0.10534370314E+03  0.10000000000E+01 0.  0.
<mgrwt>
<rscale>  0 0.12500250E+03</rscale>
<asrwt>0</asrwt>
<pdfrwt beam="1">  1        4 0.10739748E+00 0.12500250E+03</pdfrwt>
<pdfrwt beam="2">  1       -4 0.86090773E-03 0.12500250E+03</pdfrwt>
<totfact> 0.42890816E+03</totfact>
</mgrwt>
</event>
<event>
 5    1  0.3311405E-002  0.1250018E+03  0.7818608E-02  0.1235067E+00
         -4   -1    0    0    0  501 -0.00000000000E+00  0.00000000000E+00  0.36619159004E+03  0.36619379230E+03  0.12700000000E+01 0.  1.
          4   -1    0    0  501    0  0.00000000000E+00 -0.00000000000E+00 -0.10627492049E+02  0.10703106430E+02  0.12700000000E+01 0.  1.
         25    2    1    2    0    0  0.00000000000E+00  0.00000000000E+00  0.35556409799E+03  0.37689689873E+03  0.12500177795E+03 0.  0.
    9000005    1    3    3    0    0  0.48273233922E+02 -0.37821195018E+02  0.21404059352E+03  0.22265471830E+03  0.10000000000E+01 0.  0.
    9000005    1    3    3    0    0 -0.48273233922E+02  0.37821195018E+02  0.14152350448E+03  0.15424218043E+03  0.10000000000E+01 0.  0.
<mgrwt>
<rscale>  0 0.12500178E+03</rscale>
<asrwt>0</asrwt>
<pdfrwt beam="2">  1        4 0.16409845E-02 0.12500178E+03</pdfrwt>
<pdfrwt beam="1">  1       -4 0.56343159E-01 0.12500178E+03</pdfrwt>
<totfact> 0.66860879E+03</totfact>
</mgrwt>
</event>
<event>
 5    1  0.3311405E-002  0.1249973E+03  0.7818608E-02  0.1235073E+00
          4   -1    0    0  501    0  0.00000000000E+00  0.00000000000E+00  0.29728918038E+02  0.29756032459E+02  0.12700000000E+01 0.  1.
         -4   -1    0    0    0  501 -0.00000000000E+00 -0.00000000000E+00 -0.13129995298E+03  0.13130609488E+03  0.12700000000E+01 0.  1.
         25    2    1    2    0    0  0.00000000000E+00  0.00000000000E+00 -0.10157103494E+03  0.16106212733E+03  0.12499733486E+03 0.  0.
    9000005    1    3    3    0    0  0.28799102219E+02 -0.30486356368E+02 -0.11048019157E+03  0.11817647373E+03  0.10000000000E+01 0.  0.
    9000005    1    3    3    0    0 -0.28799102219E+02  0.30486356368E+02  0.89091566344E+01  0.42885653605E+02  0.10000000000E+01 0.  0.
<mgrwt>
<rscale>  0 0.12499733E+03</rscale>
<asrwt>0</asrwt>
<pdfrwt beam="1">  1        4 0.45762380E-02 0.12499733E+03</pdfrwt>
<pdfrwt beam="2">  1       -4 0.20202551E-01 0.12499733E+03</pdfrwt>
<totfact> 0.97144224E+03</totfact>
</mgrwt>
</event>
<event>
 5    1  0.3311405E-002  0.1249983E+03  0.7818608E-02  0.1235072E+00
          4   -1    0    0  501    0  0.00000000000E+00  0.00000000000E+00  0.47382300473E+02  0.47399317486E+02  0.12700000000E+01 0. -1.
         -4   -1    0    0    0  501 -0.00000000000E+00 -0.00000000000E+00 -0.82402225558E+02  0.82412011727E+02  0.12700000000E+01 0. -1.
         25    2    1    2    0    0  0.00000000000E+00  0.00000000000E+00 -0.35019925085E+02  0.12981132921E+03  0.12499834415E+03 0.  0.
    9000005    1    3    3    0    0  0.49924594541E+02  0.21418538255E+02  0.14564991416E+02  0.56252625681E+02  0.10000000000E+01 0.  0.
    9000005    1    3    3    0    0 -0.49924594541E+02 -0.21418538255E+02 -0.49584916501E+02  0.73558703533E+02  0.10000000000E+01 0.  0.
<mgrwt>
<rscale>  0 0.12499834E+03</rscale>
<asrwt>0</asrwt>
<pdfrwt beam="1">  1        4 0.72916465E-02 0.12499834E+03</pdfrwt>
<pdfrwt beam="2">  1       -4 0.12679327E-01 0.12499834E+03</pdfrwt>
<totfact> 0.10348932E+04</totfact>
</mgrwt>
</event>
<event>
 5    1  0.3311405E-002  0.1250485E+03  0.7818608E-02  0.1234993E+00
          4   -1    0    0  501    0  0.00000000000E+00  0.00000000000E+00  0.48216806467E+03  0.48216973721E+03  0.12700000000E+01 0. -1.
         -4   -1    0    0    0  501 -0.00000000000E+00 -0.00000000000E+00 -0.80562892765E+01  0.81557769039E+01  0.12700000000E+01 0. -1.
         25    2    1    2    0    0  0.00000000000E+00  0.00000000000E+00  0.47411177539E+03  0.49032551412E+03  0.12504852750E+03 0.  0.
    9000005    1    3    3    0    0  0.62174086842E+02 -0.44769469191E+01  0.25570615792E+03  0.26319631328E+03  0.10000000000E+01 0.  0.
    9000005    1    3    3    0    0 -0.62174086842E+02  0.44769469191E+01  0.21840561747E+03  0.22712920083E+03  0.10000000000E+01 0.  0.
<mgrwt>
<rscale>  0 0.12504853E+03</rscale>
<asrwt>0</asrwt>
<pdfrwt beam="1">  1        4 0.74187478E-01 0.12504853E+03</pdfrwt>
<pdfrwt beam="2">  1       -4 0.12472108E-02 0.12504853E+03</pdfrwt>
<totfact> 0.56562484E+03</totfact>
</mgrwt>
</event>
<event>
 5    1  0.3311405E-002  0.1250145E+03  0.7818608E-02  0.1235047E+00
          4   -1    0    0  501    0  0.00000000000E+00  0.00000000000E+00  0.71942894774E+02  0.71954103486E+02  0.12700000000E+01 0. -1.
         -4   -1    0    0    0  501 -0.00000000000E+00 -0.00000000000E+00 -0.54286228211E+02  0.54301081696E+02  0.12700000000E+01 0. -1.
         25    2    1    2    0    0  0.00000000000E+00  0.00000000000E+00  0.17656666563E+02  0.12625518518E+03  0.12501445481E+03 0.  0.
    9000005    1    3    3    0    0  0.21882821737E+02 -0.49522214673E+02 -0.22704062161E+02  0.58717817329E+02  0.10000000000E+01 0.  0.
    9000005    1    3    3    0    0 -0.21882821737E+02  0.49522214673E+02  0.40360728725E+02  0.67537367853E+02  0.10000000000E+01 0.  0.
<mgrwt>
<rscale>  0 0.12501445E+03</rscale>
<asrwt>0</asrwt>
<pdfrwt beam="1">  1        4 0.11070142E-01 0.12501445E+03</pdfrwt>
<pdfrwt beam="2">  1       -4 0.83537322E-02 0.12501445E+03</pdfrwt>
<totfact> 0.10421972E+04</totfact>
</mgrwt>
</event>
<event>
 5    1  0.3311405E-002  0.1250001E+03  0.7818608E-02  0.1235069E+00
         -4   -1    0    0    0  501 -0.00000000000E+00  0.00000000000E+00  0.20525638889E+02  0.20564891242E+02  0.12700000000E+01 0.  1.
          4   -1    0    0  501    0  0.00000000000E+00 -0.00000000000E+00 -0.19008797211E+03  0.19009221457E+03  0.12700000000E+01 0.  1.
         25    2    1    2    0    0  0.00000000000E+00  0.00000000000E+00 -0.16956233322E+03  0.21065710581E+03  0.12500012553E+03 0.  0.
    9000005    1    3    3    0    0 -0.31868185426E+02  0.51497796857E+02 -0.58801247668E+02  0.84416769962E+02  0.10000000000E+01 0.  0.
    9000005    1    3    3    0    0  0.31868185426E+02 -0.51497796857E+02 -0.11076108555E+03  0.12624033585E+03  0.10000000000E+01 0.  0.
<mgrwt>
<rscale>  0 0.12500013E+03</rscale>
<asrwt>0</asrwt>
<pdfrwt beam="2">  1        4 0.29247648E-01 0.12500013E+03</pdfrwt>
<pdfrwt beam="1">  1       -4 0.31611365E-02 0.12500013E+03</pdfrwt>
<totfact> 0.88368432E+03</totfact>
</mgrwt>
</event>
<event>
 5    1  0.3311405E-002  0.1249976E+03  0.7818608E-02  0.1235073E+00
         -4   -1    0    0    0  501 -0.00000000000E+00  0.00000000000E+00  0.52105169055E+03  0.52105323828E+03  0.12700000000E+01 0.  1.
          4   -1    0    0  501    0  0.00000000000E+00 -0.00000000000E+00 -0.74412146726E+01  0.75488128738E+01  0.12700000000E+01 0.  1.
         25    2    1    2    0    0  0.00000000000E+00  0.00000000000E+00  0.51361047587E+03  0.52860205115E+03  0.12499763020E+03 0.  0.
    9000005    1    3    3    0    0  0.42208591866E+02 -0.24321565848E+02  0.42232741027E+03  0.42512885724E+03  0.10000000000E+01 0.  0.
    9000005    1    3    3    0    0 -0.42208591866E+02  0.24321565848E+02  0.91283065606E+02  0.10347319392E+03  0.10000000000E+01 0.  0.
<mgrwt>
<rscale>  0 0.12499763E+03</rscale>
<asrwt>0</asrwt>
<pdfrwt beam="2">  1        4 0.11531985E-02 0.12499763E+03</pdfrwt>
<pdfrwt beam="1">  1       -4 0.80170165E-01 0.12499763E+03</pdfrwt>
<totfact> 0.53714347E+03</totfact>
</mgrwt>
</event>
<event>
 5    1  0.3311405E-002  0.1249985E+03  0.7818608E-02  0.1235072E+00
         -4   -1    0    0    0  501 -0.00000000000E+00  0.00000000000E+00  0.34389107270E+02  0.34412550019E+02  0.12700000000E+01 0.  1.
          4   -1    0    0  501    0  0.00000000000E+00 -0.00000000000E+00 -0.11352133365E+03  0.11352843738E+03  0.12700000000E+01 0.  1.
         25    2    1    2    0    0  0.00000000000E+00  0.00000000000E+00 -0.79132226378E+02  0.14794098740E+03  0.12499850599E+03 0.  0.
    9000005    1    3    3    0    0  0.29920390523E+02  0.51790016478E+02 -0.18140371782E+02  0.62510068503E+02  0.10000000000E+01 0.  0.
    9000005    1    3    3    0    0 -0.29920390523E+02 -0.51790016478E+02 -0.60991854597E+02  0.85430918893E+02  0.10000000000E+01 0.  0.
<mgrwt>
<rscale>  0 0.12499851E+03</rscale>
<asrwt>0</asrwt>
<pdfrwt beam="2">  1        4 0.17467170E-01 0.12499851E+03</pdfrwt>
<pdfrwt beam="1">  1       -4 0.52929817E-02 0.12499851E+03</pdfrwt>
<totfact> 0.99719079E+03</totfact>
</mgrwt>
</event>
<event>
 5    1  0.3311405E-002  0.1250089E+03  0.7818608E-02  0.1235055E+00
          4   -1    0    0  501    0  0.00000000000E+00  0.00000000000E+00  0.66719610068E+02  0.66731696124E+02  0.12700000000E+01 0.  1.
         -4   -1    0    0    0  501 -0.00000000000E+00 -0.00000000000E+00 -0.58531338513E+02  0.58545114981E+02  0.12700000000E+01 0.  1.
         25    2    1    2    0    0  0.00000000000E+00  0.00000000000E+00  0.81882715548E+01  0.12527681110E+03  0.12500892612E+03 0.  0.
    9000005    1    3    3    0    0 -0.40367454093E+02 -0.23120182757E+02  0.45917652079E+02  0.65372050397E+02  0.10000000000E+01 0.  0.
    9000005    1    3    3    0    0  0.40367454093E+02  0.23120182757E+02 -0.37729380524E+02  0.59904760707E+02  0.10000000000E+01 0.  0.
<mgrwt>
<rscale>  0 0.12500893E+03</rscale>
<asrwt>0</asrwt>
<pdfrwt beam="1">  1        4 0.10266545E-01 0.12500893E+03</pdfrwt>
<pdfrwt beam="2">  1       -4 0.90068108E-02 0.12500893E+03</pdfrwt>
<totfact> 0.10444746E+04</totfact>
</mgrwt>
</event>
<event>
 5    1  0.3311405E-002  0.1249989E+03  0.7818608E-02  0.1235071E+00
         -4   -1    0    0    0  501 -0.00000000000E+00  0.00000000000E+00  0.26537448823E+03  0.26537752713E+03  0.12700000000E+01 0. -1.
          4   -1    0    0  501    0  0.00000000000E+00 -0.00000000000E+00 -0.14688978981E+02  0.14743778468E+02  0.12700000000E+01 0. -1.
         25    2    1    2    0    0  0.00000000000E+00  0.00000000000E+00  0.25068550925E+03  0.28012130559E+03  0.12499888520E+03 0.  0.
    9000005    1    3    3    0    0 -0.10035758299E+01 -0.44941012716E+02  0.22262545109E+03  0.22712065793E+03  0.10000000000E+01 0.  0.
    9000005    1    3    3    0    0  0.10035758299E+01  0.44941012716E+02  0.28060058163E+02  0.53000647661E+02  0.10000000000E+01 0.  0.
<mgrwt>
<rscale>  0 0.12499889E+03</rscale>
<asrwt>0</asrwt>
<pdfrwt beam="2">  1        4 0.22642919E-02 0.12499889E+03</pdfrwt>
<pdfrwt beam="1">  1       -4 0.40831297E-01 0.12499889E+03</pdfrwt>
<totfact> 0.78163957E+03</totfact>
</mgrwt>
</event>
<event>
 5    1  0.3311405E-002  0.1250002E+03  0.7818608E-02  0.1235069E+00
          4   -1    0    0  501    0  0.00000000000E+00  0.00000000000E+00  0.20327508944E+03  0.20327905669E+03  0.12700000000E+01 0.  1.
         -4   -1    0    0    0  501 -0.00000000000E+00 -0.00000000000E+00 -0.19191481471E+02  0.19233456815E+02  0.12700000000E+01 0.  1.
         25    2    1    2    0    0  0.00000000000E+00  0.00000000000E+00  0.18408360797E+03  0.22251251350E+03  0.12500017577E+03 0.  0.
    9000005    1    3    3    0    0  0.44140345417E+02 -0.38861463929E+02  0.54419892213E+02  0.80131817281E+02  0.10000000000E+01 0.  0.
    9000005    1    3    3    0    0 -0.44140345417E+02  0.38861463929E+02  0.12966371576E+03  0.14238069622E+03  0.10000000000E+01 0.  0.
<mgrwt>
<rscale>  0 0.12500018E+03</rscale>
<asrwt>0</asrwt>
<pdfrwt beam="1">  1        4 0.31276624E-01 0.12500018E+03</pdfrwt>
<pdfrwt beam="2">  1       -4 0.29560697E-02 0.12500018E+03</pdfrwt>
<totfact> 0.86471992E+03</totfact>
</mgrwt>
</event>
<event>
 5    1  0.3311405E-002  0.1250008E+03  0.7818608E-02  0.1235068E+00
         -4   -1    0    0    0  501 -0.00000000000E+00  0.00000000000E+00  0.69608244017E+03  0.69608359872E+03  0.12700000000E+01 0. -1.
          4   -1    0    0  501    0  0.00000000000E+00 -0.00000000000E+00 -0.55388086632E+01  0.56825435684E+01  0.12700000000E+01 0. -1.
         25    2    1    2    0    0  0.00000000000E+00  0.00000000000E+00  0.69054363150E+03  0.70176614229E+03  0.12500084581E+03 0.  0.
    9000005    1    3    3    0    0  0.32890673202E+02  0.57559473165E+01  0.64183059721E+03  0.64269934092E+03  0.10000000000E+01 0.  0.
    9000005    1    3    3    0    0 -0.32890673202E+02 -0.57559473165E+01  0.48713034298E+02  0.59066801367E+02  0.10000000000E+01 0.  0.
<mgrwt>
<rscale>  0 0.12500085E+03</rscale>
<asrwt>0</asrwt>
<pdfrwt beam="2">  1        4 0.86327057E-03 0.12500085E+03</pdfrwt>
<pdfrwt beam="1">  1       -4 0.10710069E+00 0.12500085E+03</pdfrwt>
<totfact> 0.42992848E+03</totfact>
</mgrwt>
</event>
<event>
 5    1  0.3311405E-002  0.1250007E+03  0.7818608E-02  0.1235068E+00
         -4   -1    0    0    0  501 -0.00000000000E+00  0.00000000000E+00  0.57050410304E+02  0.57064544297E+02  0.12700000000E+01 0.  1.
          4   -1    0    0  501    0  0.00000000000E+00 -0.00000000000E+00 -0.68442356868E+02  0.68454138762E+02  0.12700000000E+01 0.  1.
         25    2    1    2    0    0  0.00000000000E+00  0.00000000000E+00 -0.11391946564E+02  0.12551868306E+03  0.12500065340E+03 0.  0.
    9000005    1    3    3    0    0  0.18418977058E+02 -0.59688441773E+02 -0.38657733022E+01  0.62593234462E+02  0.10000000000E+01 0.  0.
    9000005    1    3    3    0    0 -0.18418977058E+02  0.59688441773E+02 -0.75261732617E+01  0.62925448597E+02  0.10000000000E+01 0.  0.
<mgrwt>
<rscale>  0 0.12500065E+03</rscale>
<asrwt>0</asrwt>
<pdfrwt beam="2">  1        4 0.10531587E-01 0.12500065E+03</pdfrwt>
<pdfrwt beam="1">  1       -4 0.87789798E-02 0.12500065E+03</pdfrwt>
<totfact> 0.10441388E+04</totfact>
</mgrwt>
</event>
<event>
 5    1  0.3311405E-002  0.1250039E+03  0.7818608E-02  0.1235063E+00
         -4   -1    0    0    0  501 -0.00000000000E+00  0.00000000000E+00  0.34976535625E+02  0.34999584916E+02  0.12700000000E+01 0. -1.
          4   -1    0    0  501    0  0.00000000000E+00 -0.00000000000E+00 -0.11162545872E+03  0.11163268309E+03  0.12700000000E+01 0. -1.
         25    2    1    2    0    0  0.00000000000E+00  0.00000000000E+00 -0.76648923097E+02  0.14663226801E+03  0.12500385838E+03 0.  0.
    9000005    1    3    3    0    0  0.22130414118E+02  0.58430098619E+02 -0.39835566425E+02  0.74106032184E+02  0.10000000000E+01 0.  0.
    9000005    1    3    3    0    0 -0.22130414118E+02 -0.58430098619E+02 -0.36813356672E+02  0.72526235826E+02  0.10000000000E+01 0.  0.
<mgrwt>
<rscale>  0 0.12500386E+03</rscale>
<asrwt>0</asrwt>
<pdfrwt beam="2">  1        4 0.17175476E-01 0.12500386E+03</pdfrwt>
<pdfrwt beam="1">  1       -4 0.53833343E-02 0.12500386E+03</pdfrwt>
<totfact> 0.99970608E+03</totfact>
</mgrwt>
</event>
<event>
 5    1  0.3311405E-002  0.1250013E+03  0.7818608E-02  0.1235067E+00
          4   -1    0    0  501    0  0.00000000000E+00  0.00000000000E+00  0.29536164938E+03  0.29536437975E+03  0.12700000000E+01 0. -1.
         -4   -1    0    0    0  501 -0.00000000000E+00 -0.00000000000E+00 -0.13192303711E+02  0.13253293070E+02  0.12700000000E+01 0. -1.
         25    2    1    2    0    0  0.00000000000E+00  0.00000000000E+00  0.28216934567E+03  0.30861767282E+03  0.12500131336E+03 0.  0.
    9000005    1    3    3    0    0  0.51977338635E+02  0.26775084805E+02  0.19555675811E+03  0.20411270058E+03  0.10000000000E+01 0.  0.
    9000005    1    3    3    0    0 -0.51977338635E+02 -0.26775084805E+02  0.86612587563E+02  0.10450497224E+03  0.10000000000E+01 0.  0.
<mgrwt>
<rscale>  0 0.12500131E+03</rscale>
<asrwt>0</asrwt>
<pdfrwt beam="1">  1        4 0.45445160E-01 0.12500131E+03</pdfrwt>
<pdfrwt beam="2">  1       -4 0.20344865E-02 0.12500131E+03</pdfrwt>
<totfact> 0.74528238E+03</totfact>
</mgrwt>
</event>
<event>
 5    1  0.3311405E-002  0.1250130E+03  0.7818608E-02  0.1235049E+00
          4   -1    0    0  501    0  0.00000000000E+00  0.00000000000E+00  0.64231311568E+02  0.64243865744E+02  0.12700000000E+01 0.  1.
         -4   -1    0    0    0  501 -0.00000000000E+00 -0.00000000000E+00 -0.60802901754E+02  0.60816163655E+02  0.12700000000E+01 0.  1.
         25    2    1    2    0    0  0.00000000000E+00  0.00000000000E+00  0.34284098134E+01  0.12506002940E+03  0.12501302716E+03 0.  0.
    9000005    1    3    3    0    0 -0.56622805178E+02  0.21938689466E+02  0.16505435383E+02  0.62935503167E+02  0.10000000000E+01 0.  0.
    9000005    1    3    3    0    0  0.56622805178E+02 -0.21938689466E+02 -0.13077025570E+02  0.62124526232E+02  0.10000000000E+01 0.  0.
<mgrwt>
<rscale>  0 0.12501303E+03</rscale>
<asrwt>0</asrwt>
<pdfrwt beam="1">  1        4 0.98837260E-02 0.12501303E+03</pdfrwt>
<pdfrwt beam="2">  1       -4 0.93562785E-02 0.12501303E+03</pdfrwt>
<totfact> 0.10448482E+04</totfact>
</mgrwt>
</event>
<event>
 5    1  0.3311405E-002  0.1249992E+03  0.7818608E-02  0.1235071E+00
          4   -1    0    0  501    0  0.00000000000E+00  0.00000000000E+00  0.41651901940E+02  0.41671259103E+02  0.12700000000E+01 0. -1.
         -4   -1    0    0    0  501 -0.00000000000E+00 -0.00000000000E+00 -0.93736554176E+02  0.93745157149E+02  0.12700000000E+01 0. -1.
         25    2    1    2    0    0  0.00000000000E+00  0.00000000000E+00 -0.52084652237E+02  0.13541641625E+03  0.12499917916E+03 0.  0.
    9000005    1    3    3    0    0 -0.11123794397E+02  0.21814436501E+01  0.40534098470E+02  0.42101195196E+02  0.10000000000E+01 0.  0.
    9000005    1    3    3    0    0  0.11123794397E+02 -0.21814436501E+01 -0.92618750706E+02  0.93315221055E+02  0.10000000000E+01 0.  0.
<mgrwt>
<rscale>  0 0.12499918E+03</rscale>
<asrwt>0</asrwt>
<pdfrwt beam="1">  1        4 0.64101357E-02 0.12499918E+03</pdfrwt>
<pdfrwt beam="2">  1       -4 0.14423159E-01 0.12499918E+03</pdfrwt>
<totfact> 0.10229491E+04</totfact>
</mgrwt>
</event>
<event>
 5    1  0.3311405E-002  0.1249994E+03  0.7818608E-02  0.1235070E+00
          4   -1    0    0  501    0  0.00000000000E+00  0.00000000000E+00  0.48863172176E+02  0.48879673640E+02  0.12700000000E+01 0.  1.
         -4   -1    0    0    0  501 -0.00000000000E+00 -0.00000000000E+00 -0.79906762485E+02  0.79916854235E+02  0.12700000000E+01 0.  1.
         25    2    1    2    0    0  0.00000000000E+00  0.00000000000E+00 -0.31043590309E+02  0.12879652788E+03  0.12499936437E+03 0.  0.
    9000005    1    3    3    0    0  0.29199685572E+02  0.32371760806E+02 -0.61655301928E+02  0.75517738254E+02  0.10000000000E+01 0.  0.
    9000005    1    3    3    0    0 -0.29199685572E+02 -0.32371760806E+02  0.30611711619E+02  0.53278789621E+02  0.10000000000E+01 0.  0.
<mgrwt>
<rscale>  0 0.12499936E+03</rscale>
<asrwt>0</asrwt>
<pdfrwt beam="1">  1        4 0.75194567E-02 0.12499936E+03</pdfrwt>
<pdfrwt beam="2">  1       -4 0.12295394E-01 0.12499936E+03</pdfrwt>
<totfact> 0.10370470E+04</totfact>
</mgrwt>
</event>
<event>
 5    1  0.3311405E-002  0.1249565E+03  0.7818608E-02  0.1235137E+00
          4   -1    0    0  501    0  0.00000000000E+00  0.00000000000E+00  0.14203181950E+03  0.14203749734E+03  0.12700000000E+01 0. -1.
         -4   -1    0    0    0  501 -0.00000000000E+00 -0.00000000000E+00 -0.27462580063E+02  0.27491929793E+02  0.12700000000E+01 0. -1.
         25    2    1    2    0    0  0.00000000000E+00  0.00000000000E+00  0.11456923944E+03  0.16952942714E+03  0.12495645657E+03 0.  0.
    9000005    1    3    3    0    0 -0.53038498215E+02 -0.32291224597E+02  0.66558344884E+02  0.91031965553E+02  0.10000000000E+01 0.  0.
    9000005    1    3    3    0    0  0.53038498215E+02  0.32291224597E+02  0.48010894558E+02  0.78497461584E+02  0.10000000000E+01 0.  0.
<mgrwt>
<rscale>  0 0.12495646E+03</rscale>
<asrwt>0</asrwt>
<pdfrwt beam="1">  1        4 0.21853744E-01 0.12495646E+03</pdfrwt>
<pdfrwt beam="2">  1       -4 0.42277067E-02 0.12495646E+03</pdfrwt>
<totfact> 0.95629853E+03</totfact>
</mgrwt>
</event>
<event>
 5    1  0.3311405E-002  0.1250030E+03  0.7818608E-02  0.1235065E+00
          4   -1    0    0  501    0  0.00000000000E+00  0.00000000000E+00  0.72762285962E+02  0.72773368469E+02  0.12700000000E+01 0. -1.
         -4   -1    0    0    0  501 -0.00000000000E+00 -0.00000000000E+00 -0.53664954893E+02  0.53679980287E+02  0.12700000000E+01 0. -1.
         25    2    1    2    0    0  0.00000000000E+00  0.00000000000E+00  0.19097331069E+02  0.12645334876E+03  0.12500296540E+03 0.  0.
    9000005    1    3    3    0    0  0.52589878566E+02 -0.33755412271E+02  0.10113855722E+02  0.63312030948E+02  0.10000000000E+01 0.  0.
    9000005    1    3    3    0    0 -0.52589878566E+02  0.33755412271E+02  0.89834753472E+01  0.63141317808E+02  0.10000000000E+01 0.  0.
<mgrwt>
<rscale>  0 0.12500297E+03</rscale>
<asrwt>0</asrwt>
<pdfrwt beam="1">  1        4 0.11196206E-01 0.12500297E+03</pdfrwt>
<pdfrwt beam="2">  1       -4 0.82581552E-02 0.12500297E+03</pdfrwt>
<totfact> 0.10420348E+04</totfact>
</mgrwt>
</event>
<event>
 5    1  0.3311405E-002  0.1249954E+03  0.7818608E-02  0.1235076E+00
         -4   -1    0    0    0  501 -0.00000000000E+00  0.00000000000E+00  0.11970384242E+03  0.11971057928E+03  0.12700000000E+01 0. -1.
          4   -1    0    0  501    0  0.00000000000E+00 -0.00000000000E+00 -0.32610226305E+02  0.32634946908E+02  0.12700000000E+01 0. -1.
         25    2    1    2    0    0  0.00000000000E+00  0.00000000000E+00  0.87093616120E+02  0.15234552619E+03  0.12499544544E+03 0.  0.
    9000005    1    3    3    0    0  0.65215324275E+01 -0.24428176660E+02 -0.26103590009E+02  0.36354691740E+02  0.10000000000E+01 0.  0.
    9000005    1    3    3    0    0 -0.65215324275E+01  0.24428176660E+02  0.11319720613E+03  0.11599083445E+03  0.10000000000E+01 0.  0.
<mgrwt>
<rscale>  0 0.12499545E+03</rscale>
<asrwt>0</asrwt>
<pdfrwt beam="2">  1        4 0.50193778E-02 0.12499545E+03</pdfrwt>
<pdfrwt beam="1">  1       -4 0.18418395E-01 0.12499545E+03</pdfrwt>
<totfact> 0.98848321E+03</totfact>
</mgrwt>
</event>
<event>
 5    1  0.3311405E-002  0.1249995E+03  0.7818608E-02  0.1235070E+00
          4   -1    0    0  501    0  0.00000000000E+00  0.00000000000E+00  0.56088307760E+03  0.56088451542E+03  0.12700000000E+01 0.  1.
         -4   -1    0    0    0  501 -0.00000000000E+00 -0.00000000000E+00 -0.69050534178E+01  0.70208733576E+01  0.12700000000E+01 0.  1.
         25    2    1    2    0    0  0.00000000000E+00  0.00000000000E+00  0.55397802418E+03  0.56790538877E+03  0.12499951730E+03 0.  0.
    9000005    1    3    3    0    0 -0.56724431690E+02  0.19939723127E+01  0.39577444994E+03  0.39982502711E+03  0.10000000000E+01 0.  0.
    9000005    1    3    3    0    0  0.56724431690E+02 -0.19939723127E+01  0.15820357423E+03  0.16808036166E+03  0.10000000000E+01 0.  0.
<mgrwt>
<rscale>  0 0.12499952E+03</rscale>
<asrwt>0</asrwt>
<pdfrwt beam="1">  1        4 0.86298719E-01 0.12499952E+03</pdfrwt>
<pdfrwt beam="2">  1       -4 0.10713358E-02 0.12499952E+03</pdfrwt>
<totfact> 0.50958819E+03</totfact>
</mgrwt>
</event>
<event>
 5    1  0.3311405E-002  0.1249992E+03  0.7818608E-02  0.1235071E+00
         -4   -1    0    0    0  501 -0.00000000000E+00  0.00000000000E+00  0.46519931539E+03  0.46520104895E+03  0.12700000000E+01 0.  1.
          4   -1    0    0  501    0  0.00000000000E+00 -0.00000000000E+00 -0.83470502752E+01  0.84431124768E+01  0.12700000000E+01 0.  1.
         25    2    1    2    0    0  0.00000000000E+00  0.00000000000E+00  0.45685226512E+03  0.47364416142E+03  0.12499919803E+03 0.  0.
    9000005    1    3    3    0    0  0.13371740715E+02  0.23780574158E+02  0.44146017833E+03  0.44230352498E+03  0.10000000000E+01 0.  0.
    9000005    1    3    3    0    0 -0.13371740715E+02 -0.23780574158E+02  0.15392086783E+02  0.31340636442E+02  0.10000000000E+01 0.  0.
<mgrwt>
<rscale>  0 0.12499920E+03</rscale>
<asrwt>0</asrwt>
<pdfrwt beam="2">  1        4 0.12916843E-02 0.12499920E+03</pdfrwt>
<pdfrwt beam="1">  1       -4 0.71576652E-01 0.12499920E+03</pdfrwt>
<totfact> 0.57969876E+03</totfact>
</mgrwt>
</event>
<event>
 5    1  0.3311405E-002  0.1249997E+03  0.7818608E-02  0.1235070E+00
          4   -1    0    0  501    0  0.00000000000E+00  0.00000000000E+00  0.87390298061E+02  0.87399525715E+02  0.12700000000E+01 0. -1.
         -4   -1    0    0    0  501 -0.00000000000E+00 -0.00000000000E+00 -0.44678100766E+02  0.44696147352E+02  0.12700000000E+01 0. -1.
         25    2    1    2    0    0  0.00000000000E+00  0.00000000000E+00  0.42712197294E+02  0.13209567307E+03  0.12499974018E+03 0.  0.
    9000005    1    3    3    0    0 -0.61525874131E+02  0.86443206658E+01  0.14261079317E+02  0.63753712445E+02  0.10000000000E+01 0.  0.
    9000005    1    3    3    0    0  0.61525874131E+02 -0.86443206658E+01  0.28451117978E+02  0.68341960621E+02  0.10000000000E+01 0.  0.
<mgrwt>
<rscale>  0 0.12499974E+03</rscale>
<asrwt>0</asrwt>
<pdfrwt beam="1">  1        4 0.13446759E-01 0.12499974E+03</pdfrwt>
<pdfrwt beam="2">  1       -4 0.68756519E-02 0.12499974E+03</pdfrwt>
<totfact> 0.10299717E+04</totfact>
</mgrwt>
</event>
<event>
 5    1  0.3311405E-002  0.1249716E+03  0.7818608E-02  0.1235114E+00
          4   -1    0    0  501    0  0.00000000000E+00  0.00000000000E+00  0.61889312717E+02  0.61902341866E+02  0.12700000000E+01 0. -1.
         -4   -1    0    0    0  501 -0.00000000000E+00 -0.00000000000E+00 -0.63061955263E+02  0.63074742184E+02  0.12700000000E+01 0. -1.
         25    2    1    2    0    0  0.00000000000E+00  0.00000000000E+00 -0.11726425466E+01  0.12497708405E+03  0.12497158256E+03 0.  0.
    9000005    1    3    3    0    0 -0.33462530598E+02 -0.35879831912E+02 -0.39270976745E+02  0.62851514752E+02  0.10000000000E+01 0.  0.
    9000005    1    3    3    0    0  0.33462530598E+02  0.35879831912E+02  0.38098334199E+02  0.62125569299E+02  0.10000000000E+01 0.  0.
<mgrwt>
<rscale>  0 0.12497158E+03</rscale>
<asrwt>0</asrwt>
<pdfrwt beam="1">  1        4 0.95234186E-02 0.12497158E+03</pdfrwt>
<pdfrwt beam="2">  1       -4 0.97038251E-02 0.12497158E+03</pdfrwt>
<totfact> 0.10460077E+04</totfact>
</mgrwt>
</event>
<event>
 5    1  0.3311405E-002  0.1250043E+03  0.7818608E-02  0.1235063E+00
          4   -1    0    0  501    0  0.00000000000E+00  0.00000000000E+00  0.34372940348E+03  0.34373174965E+03  0.12700000000E+01 0.  1.
         -4   -1    0    0    0  501 -0.00000000000E+00 -0.00000000000E+00 -0.11327232654E+02  0.11398205982E+02  0.12700000000E+01 0.  1.
         25    2    1    2    0    0  0.00000000000E+00  0.00000000000E+00  0.33240217083E+03  0.35512995563E+03  0.12500432879E+03 0.  0.
    9000005    1    3    3    0    0 -0.33271752031E+01 -0.60434793343E+02  0.21040363123E+03  0.21893862696E+03  0.10000000000E+01 0.  0.
    9000005    1    3    3    0    0  0.33271752031E+01  0.60434793343E+02  0.12199853960E+03  0.13619132867E+03  0.10000000000E+01 0.  0.
<mgrwt>
<rscale>  0 0.12500433E+03</rscale>
<asrwt>0</asrwt>
<pdfrwt beam="1">  1        4 0.52887082E-01 0.12500433E+03</pdfrwt>
<pdfrwt beam="2">  1       -4 0.17482913E-02 0.12500433E+03</pdfrwt>
<totfact> 0.69157239E+03</totfact>
</mgrwt>
</event>
<event>
 5    1  0.3311405E-002  0.1249934E+03  0.7818608E-02  0.1235080E+00
          4   -1    0    0  501    0  0.00000000000E+00  0.00000000000E+00  0.93418627766E+02  0.93427260013E+02  0.12700000000E+01 0.  1.
         -4   -1    0    0    0  501 -0.00000000000E+00 -0.00000000000E+00 -0.41789825729E+02  0.41809119034E+02  0.12700000000E+01 0.  1.
         25    2    1    2    0    0  0.00000000000E+00  0.00000000000E+00  0.51628802037E+02  0.13523637905E+03  0.12499337990E+03 0.  0.
    9000005    1    3    3    0    0  0.86357511579E+01  0.17143866351E+02  0.90154839189E+02  0.92181252870E+02  0.10000000000E+01 0.  0.
    9000005    1    3    3    0    0 -0.86357511579E+01 -0.17143866351E+02 -0.38526037152E+02  0.43055126178E+02  0.10000000000E+01 0.  0.
<mgrwt>
<rscale>  0 0.12499338E+03</rscale>
<asrwt>0</asrwt>
<pdfrwt beam="1">  1        4 0.14374245E-01 0.12499338E+03</pdfrwt>
<pdfrwt beam="2">  1       -4 0.64313521E-02 0.12499338E+03</pdfrwt>
<totfact> 0.10234619E+04</totfact>
</mgrwt>
</event>
<event>
 5    1  0.3311405E-002  0.1250108E+03  0.7818608E-02  0.1235052E+00
         -4   -1    0    0    0  501 -0.00000000000E+00  0.00000000000E+00  0.93931087513E+02  0.93939672670E+02  0.12700000000E+01 0.  1.
          4   -1    0    0  501    0  0.00000000000E+00 -0.00000000000E+00 -0.41573349691E+02  0.41592743412E+02  0.12700000000E+01 0.  1.
         25    2    1    2    0    0  0.00000000000E+00  0.00000000000E+00  0.52357737822E+02  0.13553241608E+03  0.12501081193E+03 0.  0.
    9000005    1    3    3    0    0  0.50506687283E+02 -0.69982139174E+01 -0.13001759951E+02  0.52630278549E+02  0.10000000000E+01 0.  0.
    9000005    1    3    3    0    0 -0.50506687283E+02  0.69982139174E+01  0.65359497773E+02  0.82902137533E+02  0.10000000000E+01 0.  0.
<mgrwt>
<rscale>  0 0.12501081E+03</rscale>
<asrwt>0</asrwt>
<pdfrwt beam="2">  1        4 0.63980523E-02 0.12501081E+03</pdfrwt>
<pdfrwt beam="1">  1       -4 0.14453089E-01 0.12501081E+03</pdfrwt>
<totfact> 0.10224368E+04</totfact>
</mgrwt>
</event>
<event>
 5    1  0.3311405E-002  0.1249933E+03  0.7818608E-02  0.1235080E+00
         -4   -1    0    0    0  501 -0.00000000000E+00  0.00000000000E+00  0.16681114554E+03  0.16681597998E+03  0.12700000000E+01 0.  1.
          4   -1    0    0  501    0  0.00000000000E+00 -0.00000000000E+00 -0.23392282735E+02  0.23426732413E+02  0.12700000000E+01 0.  1.
         25    2    1    2    0    0  0.00000000000E+00  0.00000000000E+00  0.14341886281E+03  0.19024271240E+03  0.12499327746E+03 0.  0.
    9000005    1    3    3    0    0  0.36757532897E+02  0.48297891565E+02  0.49081527228E+02  0.78062787993E+02  0.10000000000E+01 0.  0.
    9000005    1    3    3    0    0 -0.36757532897E+02 -0.48297891565E+02  0.94337335581E+02  0.11217992440E+03  0.10000000000E+01 0.  0.
<mgrwt>
<rscale>  0 0.12499328E+03</rscale>
<asrwt>0</asrwt>
<pdfrwt beam="2">  1        4 0.36018345E-02 0.12499328E+03</pdfrwt>
<pdfrwt beam="1">  1       -4 0.25666276E-01 0.12499328E+03</pdfrwt>
<totfact> 0.91818925E+03</totfact>
</mgrwt>
</event>
<event>
 5    1  0.3311405E-002  0.1249851E+03  0.7818608E-02  0.1235093E+00
          4   -1    0    0  501    0  0.00000000000E+00  0.00000000000E+00  0.47262038056E+03  0.47262208690E+03  0.12700000000E+01 0.  1.
         -4   -1    0    0    0  501 -0.00000000000E+00 -0.00000000000E+00 -0.82125892192E+01  0.83102058749E+01  0.12700000000E+01 0.  1.
         25    2    1    2    0    0  0.00000000000E+00  0.00000000000E+00  0.46440779134E+03  0.48093229277E+03  0.12498509339E+03 0.  0.
    9000005    1    3    3    0    0  0.41390291567E+02 -0.34026402705E+02  0.35589908800E+03  0.35991125734E+03  0.10000000000E+01 0.  0.
    9000005    1    3    3    0    0 -0.41390291567E+02  0.34026402705E+02  0.10850870334E+03  0.12102103544E+03  0.10000000000E+01 0.  0.
<mgrwt>
<rscale>  0 0.12498509E+03</rscale>
<asrwt>0</asrwt>
<pdfrwt beam="1">  1        4 0.72718465E-01 0.12498509E+03</pdfrwt>
<pdfrwt beam="2">  1       -4 0.12711155E-02 0.12498509E+03</pdfrwt>
<totfact> 0.57393564E+03</totfact>
</mgrwt>
</event>
<event>
 5    1  0.3311405E-002  0.1249979E+03  0.7818608E-02  0.1235073E+00
         -4   -1    0    0    0  501 -0.00000000000E+00  0.00000000000E+00  0.12011353753E+03  0.12012025141E+03  0.12700000000E+01 0.  1.
          4   -1    0    0  501    0  0.00000000000E+00 -0.00000000000E+00 -0.32500210476E+02  0.32525014696E+02  0.12700000000E+01 0.  1.
         25    2    1    2    0    0  0.00000000000E+00  0.00000000000E+00  0.87613327056E+02  0.15264526610E+03  0.12499792873E+03 0.  0.
    9000005    1    3    3    0    0  0.45015406383E+02 -0.15771745972E+01  0.96702981546E+02  0.10668336764E+03  0.10000000000E+01 0.  0.
    9000005    1    3    3    0    0 -0.45015406383E+02  0.15771745972E+01 -0.90896544902E+01  0.45961898463E+02  0.10000000000E+01 0.  0.
<mgrwt>
<rscale>  0 0.12499793E+03</rscale>
<asrwt>0</asrwt>
<pdfrwt beam="2">  1        4 0.50024569E-02 0.12499793E+03</pdfrwt>
<pdfrwt beam="1">  1       -4 0.18481430E-01 0.12499793E+03</pdfrwt>
<totfact> 0.98783597E+03</totfact>
</mgrwt>
</event>
<event>
 4    1  0.3311405E-002  0.1250652E+03  0.7818608E-02  0.1234967E+00
          4   -1    0    0  501    0  0.00000000000E+00  0.00000000000E+00  0.54146352592E+02  0.54161244437E+02  0.12700000000E+01 0. -1.
         -4   -1    0    0    0  501 -0.00000000000E+00 -0.00000000000E+00 -0.72187333480E+02  0.72198504243E+02  0.12700000000E+01 0. -1.
    9000005    1    1    2    0    0 -0.46212552761E+02  0.32007011053E+02 -0.36676775017E+02  0.67128493316E+02  0.10000000000E+01 0.  0.
    9000005    1    1    2    0    0  0.46212552761E+02 -0.32007011053E+02  0.18635794129E+02  0.59231255364E+02  0.10000000000E+01 0.  0.
<mgrwt>
<rscale>  0 0.12506522E+03</rscale>
<asrwt>0</asrwt>
<pdfrwt beam="1">  1        4 0.83322129E-02 0.12506522E+03</pdfrwt>
<pdfrwt beam="2">  1       -4 0.11107748E-01 0.12506522E+03</pdfrwt>
<totfact> 0.10407760E+04</totfact>
</mgrwt>
</event>
<event>
 5    1  0.3311405E-002  0.1249996E+03  0.7818608E-02  0.1235070E+00
         -4   -1    0    0    0  501 -0.00000000000E+00  0.00000000000E+00  0.17385021671E+03  0.17385485541E+03  0.12700000000E+01 0. -1.
          4   -1    0    0  501    0  0.00000000000E+00 -0.00000000000E+00 -0.22446014693E+02  0.22481914411E+02  0.12700000000E+01 0. -1.
         25    2    1    2    0    0  0.00000000000E+00  0.00000000000E+00  0.15140420201E+03  0.19633676982E+03  0.12499957918E+03 0.  0.
    9000005    1    3    3    0    0 -0.19524333169E+02  0.41281858006E+02  0.86968595252E+01  0.46497599419E+02  0.10000000000E+01 0.  0.
    9000005    1    3    3    0    0  0.19524333169E+02 -0.41281858006E+02  0.14270734249E+03  0.14983917040E+03  0.10000000000E+01 0.  0.
<mgrwt>
<rscale>  0 0.12499958E+03</rscale>
<asrwt>0</asrwt>
<pdfrwt beam="2">  1        4 0.34563515E-02 0.12499958E+03</pdfrwt>
<pdfrwt beam="1">  1       -4 0.26749305E-01 0.12499958E+03</pdfrwt>
<totfact> 0.90757133E+03</totfact>
</mgrwt>
</event>
<event>
 5    1  0.3311405E-002  0.1249975E+03  0.7818608E-02  0.1235073E+00
         -4   -1    0    0    0  501 -0.00000000000E+00  0.00000000000E+00  0.18415555424E+01  0.22370129226E+01  0.12700000000E+01 0.  1.
          4   -1    0    0  501    0  0.00000000000E+00 -0.00000000000E+00 -0.19150294265E+04  0.19150298476E+04  0.12700000000E+01 0.  1.
         25    2    1    2    0    0  0.00000000000E+00  0.00000000000E+00 -0.19131878709E+04  0.19172668605E+04  0.12499753974E+03 0.  0.
    9000005    1    3    3    0    0 -0.44570195519E+02  0.26354794963E+02 -0.14932241542E+04  0.14941219670E+04  0.10000000000E+01 0.  0.
    9000005    1    3    3    0    0  0.44570195519E+02 -0.26354794963E+02 -0.41996371673E+03  0.42314489353E+03  0.10000000000E+01 0.  0.
<mgrwt>
<rscale>  0 0.12499754E+03</rscale>
<asrwt>0</asrwt>
<pdfrwt beam="2">  1        4 0.29464893E+00 0.12499754E+03</pdfrwt>
<pdfrwt beam="1">  1       -4 0.31376996E-03 0.12499754E+03</pdfrwt>
<totfact> 0.10980709E+03</totfact>
</mgrwt>
</event>
<event>
 5    1  0.3311405E-002  0.1250071E+03  0.7818608E-02  0.1235058E+00
         -4   -1    0    0    0  501 -0.00000000000E+00  0.00000000000E+00  0.19199746929E+03  0.19200166956E+03  0.12700000000E+01 0.  1.
          4   -1    0    0  501    0  0.00000000000E+00 -0.00000000000E+00 -0.20323396327E+02  0.20363038532E+02  0.12700000000E+01 0.  1.
         25    2    1    2    0    0  0.00000000000E+00  0.00000000000E+00  0.17167407297E+03  0.21236470810E+03  0.12500712746E+03 0.  0.
    9000005    1    3    3    0    0  0.33907514437E+02  0.46120287726E+02  0.43234383796E+02  0.71742681978E+02  0.10000000000E+01 0.  0.
    9000005    1    3    3    0    0 -0.33907514437E+02 -0.46120287726E+02  0.12843968917E+03  0.14062202612E+03  0.10000000000E+01 0.  0.
<mgrwt>
<rscale>  0 0.12500713E+03</rscale>
<asrwt>0</asrwt>
<pdfrwt beam="2">  1        4 0.31300490E-02 0.12500713E+03</pdfrwt>
<pdfrwt beam="1">  1       -4 0.29541444E-01 0.12500713E+03</pdfrwt>
<totfact> 0.88077111E+03</totfact>
</mgrwt>
</event>
<event>
 5    1  0.3311405E-002  0.1249981E+03  0.7818608E-02  0.1235072E+00
          4   -1    0    0  501    0  0.00000000000E+00  0.00000000000E+00  0.35136873216E+03  0.35137102731E+03  0.12700000000E+01 0. -1.
         -4   -1    0    0    0  501 -0.00000000000E+00 -0.00000000000E+00 -0.11078295164E+02  0.11150853050E+02  0.12700000000E+01 0. -1.
         25    2    1    2    0    0  0.00000000000E+00  0.00000000000E+00  0.34029043699E+03  0.36252188037E+03  0.12499812893E+03 0.  0.
    9000005    1    3    3    0    0 -0.55431079376E+02  0.18032384129E+02  0.23547173763E+03  0.24258134855E+03  0.10000000000E+01 0.  0.
    9000005    1    3    3    0    0  0.55431079376E+02 -0.18032384129E+02  0.10481869936E+03  0.11994053182E+03  0.10000000000E+01 0.  0.
<mgrwt>
<rscale>  0 0.12499813E+03</rscale>
<asrwt>0</asrwt>
<pdfrwt beam="1">  1        4 0.54062482E-01 0.12499813E+03</pdfrwt>
<pdfrwt beam="2">  1       -4 0.17101112E-02 0.12499813E+03</pdfrwt>
<totfact> 0.68371443E+03</totfact>
</mgrwt>
</event>
<event>
 5    1  0.3311405E-002  0.1250003E+03  0.7818608E-02  0.1235069E+00
          4   -1    0    0  501    0  0.00000000000E+00  0.00000000000E+00  0.61971027327E+02  0.61984039300E+02  0.12700000000E+01 0. -1.
         -4   -1    0    0    0  501 -0.00000000000E+00 -0.00000000000E+00 -0.63007735184E+02  0.63020533106E+02  0.12700000000E+01 0. -1.
         25    2    1    2    0    0  0.00000000000E+00  0.00000000000E+00 -0.10367078569E+01  0.12500457241E+03  0.12500027344E+03 0.  0.
    9000005    1    3    3    0    0 -0.49154989246E+02  0.21596588692E+01  0.38010753234E+02  0.62182750467E+02  0.10000000000E+01 0.  0.
    9000005    1    3    3    0    0  0.49154989246E+02 -0.21596588692E+01 -0.39047461091E+02  0.62821821940E+02  0.10000000000E+01 0.  0.
<mgrwt>
<rscale>  0 0.12500027E+03</rscale>
<asrwt>0</asrwt>
<pdfrwt beam="1">  1        4 0.95359895E-02 0.12500027E+03</pdfrwt>
<pdfrwt beam="2">  1       -4 0.96954832E-02 0.12500027E+03</pdfrwt>
<totfact> 0.10452699E+04</totfact>
</mgrwt>
</event>
<event>
 5    1  0.3311405E-002  0.1249936E+03  0.7818608E-02  0.1235079E+00
          4   -1    0    0  501    0  0.00000000000E+00  0.00000000000E+00  0.36012323564E+02  0.36034710329E+02  0.12700000000E+01 0. -1.
         -4   -1    0    0    0  501 -0.00000000000E+00 -0.00000000000E+00 -0.10839894313E+03  0.10840638253E+03  0.12700000000E+01 0. -1.
         25    2    1    2    0    0  0.00000000000E+00  0.00000000000E+00 -0.72386619570E+02  0.14444109286E+03  0.12499362629E+03 0.  0.
    9000005    1    3    3    0    0 -0.21898569975E+02  0.10190811605E+02 -0.10279218047E+03  0.10559655474E+03  0.10000000000E+01 0.  0.
    9000005    1    3    3    0    0  0.21898569975E+02 -0.10190811605E+02  0.30405560895E+02  0.38844538116E+02  0.10000000000E+01 0.  0.
<mgrwt>
<rscale>  0 0.12499363E+03</rscale>
<asrwt>0</asrwt>
<pdfrwt beam="1">  1        4 0.55426518E-02 0.12499363E+03</pdfrwt>
<pdfrwt beam="2">  1       -4 0.16679055E-01 0.12499363E+03</pdfrwt>
<totfact> 0.10043798E+04</totfact>
</mgrwt>
</event>
<event>
 5    1  0.3311405E-002  0.1249997E+03  0.7818608E-02  0.1235070E+00
         -4   -1    0    0    0  501 -0.00000000000E+00  0.00000000000E+00  0.42521524295E+02  0.42540485756E+02  0.12700000000E+01 0.  1.
          4   -1    0    0  501    0  0.00000000000E+00 -0.00000000000E+00 -0.91820941016E+02  0.91829723451E+02  0.12700000000E+01 0.  1.
         25    2    1    2    0    0  0.00000000000E+00  0.00000000000E+00 -0.49299416722E+02  0.13437020921E+03  0.12499968253E+03 0.  0.
    9000005    1    3    3    0    0  0.67236169675E+01 -0.61556689008E+02 -0.15604844446E+02  0.63866612224E+02  0.10000000000E+01 0.  0.
    9000005    1    3    3    0    0 -0.67236169675E+01  0.61556689008E+02 -0.33694572275E+02  0.70503596983E+02  0.10000000000E+01 0.  0.
<mgrwt>
<rscale>  0 0.12499968E+03</rscale>
<asrwt>0</asrwt>
<pdfrwt beam="2">  1        4 0.14128433E-01 0.12499968E+03</pdfrwt>
<pdfrwt beam="1">  1       -4 0.65439071E-02 0.12499968E+03</pdfrwt>
<totfact> 0.10251436E+04</totfact>
</mgrwt>
</event>
<event>
 5    1  0.3311405E-002  0.1249979E+03  0.7818608E-02  0.1235073E+00
          4   -1    0    0  501    0  0.00000000000E+00  0.00000000000E+00  0.30921110527E+03  0.30921371334E+03  0.12700000000E+01 0.  1.
         -4   -1    0    0    0  501 -0.00000000000E+00 -0.00000000000E+00 -0.12597943615E+02  0.12661796213E+02  0.12700000000E+01 0.  1.
         25    2    1    2    0    0  0.00000000000E+00  0.00000000000E+00  0.29661316165E+03  0.32187550956E+03  0.12499790393E+03 0.  0.
    9000005    1    3    3    0    0  0.16477358017E+02  0.25435219309E+02  0.75792402059E+01  0.31255376987E+02  0.10000000000E+01 0.  0.
    9000005    1    3    3    0    0 -0.16477358017E+02 -0.25435219309E+02  0.28903392145E+03  0.29062013257E+03  0.10000000000E+01 0.  0.
<mgrwt>
<rscale>  0 0.12499790E+03</rscale>
<asrwt>0</asrwt>
<pdfrwt beam="1">  1        4 0.47576052E-01 0.12499790E+03</pdfrwt>
<pdfrwt beam="2">  1       -4 0.19432575E-02 0.12499790E+03</pdfrwt>
<totfact> 0.72936998E+03</totfact>
</mgrwt>
</event>
<event>
 5    1  0.3311405E-002  0.1250013E+03  0.7818608E-02  0.1235067E+00
         -4   -1    0    0    0  501 -0.00000000000E+00  0.00000000000E+00  0.19200097142E+03  0.19200517161E+03  0.12700000000E+01 0.  1.
          4   -1    0    0  501    0  0.00000000000E+00 -0.00000000000E+00 -0.20321138167E+02  0.20360784769E+02  0.12700000000E+01 0.  1.
         25    2    1    2    0    0  0.00000000000E+00  0.00000000000E+00  0.17167983325E+03  0.21236595638E+03  0.12500133713E+03 0.  0.
    9000005    1    3    3    0    0 -0.18604936076E+01 -0.21419283150E+02 -0.13848386227E+02  0.25593454792E+02  0.10000000000E+01 0.  0.
    9000005    1    3    3    0    0  0.18604936076E+01  0.21419283150E+02  0.18552821948E+03  0.18677250159E+03  0.10000000000E+01 0.  0.
<mgrwt>
<rscale>  0 0.12500134E+03</rscale>
<asrwt>0</asrwt>
<pdfrwt beam="2">  1        4 0.31297019E-02 0.12500134E+03</pdfrwt>
<pdfrwt beam="1">  1       -4 0.29541983E-01 0.12500134E+03</pdfrwt>
<totfact> 0.88088309E+03</totfact>
</mgrwt>
</event>
<event>
 5    1  0.3311405E-002  0.1250171E+03  0.7818608E-02  0.1235042E+00
          4   -1    0    0  501    0  0.00000000000E+00  0.00000000000E+00  0.39640270734E+01  0.41625005272E+01  0.12700000000E+01 0. -1.
         -4   -1    0    0    0  501 -0.00000000000E+00 -0.00000000000E+00 -0.96142252591E+03  0.96142336472E+03  0.12700000000E+01 0. -1.
         25    2    1    2    0    0  0.00000000000E+00  0.00000000000E+00 -0.95745849884E+03  0.96558586525E+03  0.12501714350E+03 0.  0.
    9000005    1    3    3    0    0  0.58881237938E+02  0.14485407388E+02 -0.59573502827E+03  0.59881387018E+03  0.10000000000E+01 0.  0.
    9000005    1    3    3    0    0 -0.58881237938E+02 -0.14485407388E+02 -0.36172347057E+03  0.36677199507E+03  0.10000000000E+01 0.  0.
<mgrwt>
<rscale>  0 0.12501714E+03</rscale>
<asrwt>0</asrwt>
<pdfrwt beam="1">  1        4 0.62518280E-03 0.12501714E+03</pdfrwt>
<pdfrwt beam="2">  1       -4 0.14792631E+00 0.12501714E+03</pdfrwt>
<totfact> 0.31757156E+03</totfact>
</mgrwt>
</event>
<event>
 5    1  0.3311405E-002  0.1250038E+03  0.7818608E-02  0.1235063E+00
         -4   -1    0    0    0  501 -0.00000000000E+00  0.00000000000E+00  0.62288780867E+01  0.63570293548E+01  0.12700000000E+01 0.  1.
          4   -1    0    0  501    0  0.00000000000E+00 -0.00000000000E+00 -0.62064257457E+03  0.62064387395E+03  0.12700000000E+01 0.  1.
         25    2    1    2    0    0  0.00000000000E+00  0.00000000000E+00 -0.61441369649E+03  0.62700090331E+03  0.12500376921E+03 0.  0.
    9000005    1    3    3    0    0 -0.13710803256E+02  0.16236779111E+01 -0.61292164997E+03  0.61307794893E+03  0.10000000000E+01 0.  0.
    9000005    1    3    3    0    0  0.13710803256E+02 -0.16236779111E+01 -0.14920465160E+01  0.13922954380E+02  0.10000000000E+01 0.  0.
<mgrwt>
<rscale>  0 0.12500377E+03</rscale>
<asrwt>0</asrwt>
<pdfrwt beam="2">  1        4 0.95493383E-01 0.12500377E+03</pdfrwt>
<pdfrwt beam="1">  1       -4 0.96824717E-03 0.12500377E+03</pdfrwt>
<totfact> 0.47202537E+03</totfact>
</mgrwt>
</event>
<event>
 5    1  0.3311405E-002  0.1250275E+03  0.7818608E-02  0.1235026E+00
         -4   -1    0    0    0  501 -0.00000000000E+00  0.00000000000E+00  0.71384085402E+03  0.71384198375E+03  0.12700000000E+01 0. -1.
          4   -1    0    0  501    0  0.00000000000E+00 -0.00000000000E+00 -0.53997595174E+01  0.55470985971E+01  0.12700000000E+01 0. -1.
         25    2    1    2    0    0  0.00000000000E+00  0.00000000000E+00  0.70844109450E+03  0.71938908235E+03  0.12502746668E+03 0.  0.
    9000005    1    3    3    0    0 -0.52367362558E+02  0.25221378865E+02  0.22194356037E+03  0.22943060520E+03  0.10000000000E+01 0.  0.
    9000005    1    3    3    0    0  0.52367362558E+02 -0.25221378865E+02  0.48649753413E+03  0.48995847714E+03  0.10000000000E+01 0.  0.
<mgrwt>
<rscale>  0 0.12502747E+03</rscale>
<asrwt>0</asrwt>
<pdfrwt beam="2">  1        4 0.84215365E-03 0.12502747E+03</pdfrwt>
<pdfrwt beam="1">  1       -4 0.10983299E+00 0.12502747E+03</pdfrwt>
<totfact> 0.42057488E+03</totfact>
</mgrwt>
</event>
<event>
 5    1  0.3311405E-002  0.1250048E+03  0.7818608E-02  0.1235062E+00
          4   -1    0    0  501    0  0.00000000000E+00  0.00000000000E+00  0.14862706307E+03  0.14863248897E+03  0.12700000000E+01 0. -1.
         -4   -1    0    0    0  501 -0.00000000000E+00 -0.00000000000E+00 -0.26262998779E+02  0.26293687548E+02  0.12700000000E+01 0. -1.
         25    2    1    2    0    0  0.00000000000E+00  0.00000000000E+00  0.12236406429E+03  0.17492617652E+03  0.12500481191E+03 0.  0.
    9000005    1    3    3    0    0 -0.17781594251E+02 -0.43951415382E+02  0.42085168073E+01  0.47609070794E+02  0.10000000000E+01 0.  0.
    9000005    1    3    3    0    0  0.17781594251E+02  0.43951415382E+02  0.11815554748E+03  0.12731710572E+03  0.10000000000E+01 0.  0.
<mgrwt>
<rscale>  0 0.12500481E+03</rscale>
<asrwt>0</asrwt>
<pdfrwt beam="1">  1        4 0.22868480E-01 0.12500481E+03</pdfrwt>
<pdfrwt beam="2">  1       -4 0.40432394E-02 0.12500481E+03</pdfrwt>
<totfact> 0.94528158E+03</totfact>
</mgrwt>
</event>
<event>
 5    1  0.3311405E-002  0.1250045E+03  0.7818608E-02  0.1235062E+00
         -4   -1    0    0    0  501 -0.00000000000E+00  0.00000000000E+00  0.52900898682E+02  0.52916141028E+02  0.12700000000E+01 0. -1.
          4   -1    0    0  501    0  0.00000000000E+00 -0.00000000000E+00 -0.73814858660E+02  0.73825783159E+02  0.12700000000E+01 0. -1.
         25    2    1    2    0    0  0.00000000000E+00  0.00000000000E+00 -0.20913959979E+02  0.12674192419E+03  0.12500448642E+03 0.  0.
    9000005    1    3    3    0    0  0.62203194637E+02  0.10541072025E+01 -0.44431108000E+01  0.62378600487E+02  0.10000000000E+01 0.  0.
    9000005    1    3    3    0    0 -0.62203194637E+02 -0.10541072025E+01 -0.16470849179E+02  0.64363323700E+02  0.10000000000E+01 0.  0.
<mgrwt>
<rscale>  0 0.12500449E+03</rscale>
<asrwt>0</asrwt>
<pdfrwt beam="2">  1        4 0.11358145E-01 0.12500449E+03</pdfrwt>
<pdfrwt beam="1">  1       -4 0.81406126E-02 0.12500449E+03</pdfrwt>
<totfact> 0.10413703E+04</totfact>
</mgrwt>
</event>
<event>
 5    1  0.3311405E-002  0.1249965E+03  0.7818608E-02  0.1235075E+00
         -4   -1    0    0    0  501 -0.00000000000E+00  0.00000000000E+00  0.21677304753E+03  0.21677676775E+03  0.12700000000E+01 0.  1.
          4   -1    0    0  501    0  0.00000000000E+00 -0.00000000000E+00 -0.17992744062E+02  0.18037509220E+02  0.12700000000E+01 0.  1.
         25    2    1    2    0    0  0.00000000000E+00  0.00000000000E+00  0.19878030347E+03  0.23481427697E+03  0.12499654244E+03 0.  0.
    9000005    1    3    3    0    0 -0.50292365779E+02  0.25892018762E+02  0.14928068258E+03  0.15964160135E+03  0.10000000000E+01 0.  0.
    9000005    1    3    3    0    0  0.50292365779E+02 -0.25892018762E+02  0.49499620892E+02  0.75172675619E+02  0.10000000000E+01 0.  0.
<mgrwt>
<rscale>  0 0.12499654E+03</rscale>
<asrwt>0</asrwt>
<pdfrwt beam="2">  1        4 0.27718442E-02 0.12499654E+03</pdfrwt>
<pdfrwt beam="1">  1       -4 0.33353429E-01 0.12499654E+03</pdfrwt>
<totfact> 0.84582323E+03</totfact>
</mgrwt>
</event>
<event>
 5    1  0.3311405E-002  0.1249835E+03  0.7818608E-02  0.1235095E+00
         -4   -1    0    0    0  501 -0.00000000000E+00  0.00000000000E+00  0.85794828034E+02  0.85804227270E+02  0.12700000000E+01 0.  1.
          4   -1    0    0  501    0  0.00000000000E+00 -0.00000000000E+00 -0.45497332092E+02  0.45515053855E+02  0.12700000000E+01 0.  1.
         25    2    1    2    0    0  0.00000000000E+00  0.00000000000E+00  0.40297495943E+02  0.13131928113E+03  0.12498346057E+03 0.  0.
    9000005    1    3    3    0    0 -0.31681563267E+02 -0.25212435180E+01  0.76673099239E+02  0.83005073742E+02  0.10000000000E+01 0.  0.
    9000005    1    3    3    0    0  0.31681563267E+02  0.25212435180E+01 -0.36375603297E+02  0.48314207384E+02  0.10000000000E+01 0.  0.
<mgrwt>
<rscale>  0 0.12498346E+03</rscale>
<asrwt>0</asrwt>
<pdfrwt beam="2">  1        4 0.70016759E-02 0.12498346E+03</pdfrwt>
<pdfrwt beam="1">  1       -4 0.13201290E-01 0.12498346E+03</pdfrwt>
<totfact> 0.10320100E+04</totfact>
</mgrwt>
</event>
<event>
 5    1  0.3311405E-002  0.1250007E+03  0.7818608E-02  0.1235068E+00
          4   -1    0    0  501    0  0.00000000000E+00  0.00000000000E+00  0.55990848257E+01  0.57413109030E+01  0.12700000000E+01 0.  1.
         -4   -1    0    0    0  501 -0.00000000000E+00 -0.00000000000E+00 -0.68877386693E+03  0.68877503778E+03  0.12700000000E+01 0.  1.
         25    2    1    2    0    0  0.00000000000E+00  0.00000000000E+00 -0.68317478210E+03  0.69451634868E+03  0.12500070272E+03 0.  0.
    9000005    1    3    3    0    0  0.52057349189E+01  0.34239704119E+02 -0.63060268615E+03  0.63155380198E+03  0.10000000000E+01 0.  0.
    9000005    1    3    3    0    0 -0.52057349189E+01 -0.34239704119E+02 -0.52572095955E+02  0.62962546703E+02  0.10000000000E+01 0.  0.
<mgrwt>
<rscale>  0 0.12500070E+03</rscale>
<asrwt>0</asrwt>
<pdfrwt beam="1">  1        4 0.87242874E-03 0.12500070E+03</pdfrwt>
<pdfrwt beam="2">  1       -4 0.10597617E+00 0.12500070E+03</pdfrwt>
<totfact> 0.43377102E+03</totfact>
</mgrwt>
</event>
<event>
 5    1  0.3311405E-002  0.1250025E+03  0.7818608E-02  0.1235065E+00
          4   -1    0    0  501    0  0.00000000000E+00  0.00000000000E+00  0.23119723474E+03  0.23120072286E+03  0.12700000000E+01 0.  1.
         -4   -1    0    0    0  501 -0.00000000000E+00 -0.00000000000E+00 -0.16868948823E+02  0.16916688045E+02  0.12700000000E+01 0.  1.
         25    2    1    2    0    0  0.00000000000E+00  0.00000000000E+00  0.21432828592E+03  0.24811741091E+03  0.12500254178E+03 0.  0.
    9000005    1    3    3    0    0 -0.53422440266E+02 -0.44248243696E+01  0.17092460438E+03  0.17913613978E+03  0.10000000000E+01 0.  0.
    9000005    1    3    3    0    0  0.53422440266E+02  0.44248243696E+01  0.43403681541E+02  0.68981271125E+02  0.10000000000E+01 0.  0.
<mgrwt>
<rscale>  0 0.12500254E+03</rscale>
<asrwt>0</asrwt>
<pdfrwt beam="1">  1        4 0.35572745E-01 0.12500254E+03</pdfrwt>
<pdfrwt beam="2">  1       -4 0.25991635E-02 0.12500254E+03</pdfrwt>
<totfact> 0.82598406E+03</totfact>
</mgrwt>
</event>
<event>
 5    1  0.3311405E-002  0.1249730E+03  0.7818608E-02  0.1235111E+00
         -4   -1    0    0    0  501 -0.00000000000E+00  0.00000000000E+00  0.16257759928E+02  0.16307288490E+02  0.12700000000E+01 0.  1.
          4   -1    0    0  501    0  0.00000000000E+00 -0.00000000000E+00 -0.23974979249E+03  0.23975315618E+03  0.12700000000E+01 0.  1.
         25    2    1    2    0    0  0.00000000000E+00  0.00000000000E+00 -0.22349203256E+03  0.25606044467E+03  0.12497304792E+03 0.  0.
    9000005    1    3    3    0    0  0.18075022120E+02 -0.33981890086E+02 -0.21258333926E+03  0.21604201307E+03  0.10000000000E+01 0.  0.
    9000005    1    3    3    0    0 -0.18075022120E+02  0.33981890086E+02 -0.10908693298E+02  0.40018431602E+02  0.10000000000E+01 0.  0.
<mgrwt>
<rscale>  0 0.12497305E+03</rscale>
<asrwt>0</asrwt>
<pdfrwt beam="2">  1        4 0.36888650E-01 0.12497305E+03</pdfrwt>
<pdfrwt beam="1">  1       -4 0.25052626E-02 0.12497305E+03</pdfrwt>
<totfact> 0.81511027E+03</totfact>
</mgrwt>
</event>
<event>
 5    1  0.3311405E-002  0.1249941E+03  0.7818608E-02  0.1235079E+00
         -4   -1    0    0    0  501 -0.00000000000E+00  0.00000000000E+00  0.21974495003E+02  0.22011163773E+02  0.12700000000E+01 0.  1.
          4   -1    0    0  501    0  0.00000000000E+00 -0.00000000000E+00 -0.17755886533E+03  0.17756340714E+03  0.12700000000E+01 0.  1.
         25    2    1    2    0    0  0.00000000000E+00  0.00000000000E+00 -0.15558437032E+03  0.19957457092E+03  0.12499405213E+03 0.  0.
    9000005    1    3    3    0    0  0.12887842823E+02 -0.77122132536E+01 -0.17464197127E+03  0.17528945449E+03  0.10000000000E+01 0.  0.
    9000005    1    3    3    0    0 -0.12887842823E+02  0.77122132536E+01  0.19057600948E+02  0.24285116425E+02  0.10000000000E+01 0.  0.
<mgrwt>
<rscale>  0 0.12499405E+03</rscale>
<asrwt>0</asrwt>
<pdfrwt beam="2">  1        4 0.27319918E-01 0.12499405E+03</pdfrwt>
<pdfrwt beam="1">  1       -4 0.33838617E-02 0.12499405E+03</pdfrwt>
<totfact> 0.90219316E+03</totfact>
</mgrwt>
</event>
<event>
 5    1  0.3311405E-002  0.1249969E+03  0.7818608E-02  0.1235074E+00
         -4   -1    0    0    0  501 -0.00000000000E+00  0.00000000000E+00  0.41138263284E+01  0.43053997562E+01  0.12700000000E+01 0. -1.
          4   -1    0    0  501    0  0.00000000000E+00 -0.00000000000E+00 -0.92769760393E+03  0.92769847323E+03  0.12700000000E+01 0. -1.
         25    2    1    2    0    0  0.00000000000E+00  0.00000000000E+00 -0.92358377760E+03  0.93200387299E+03  0.12499690003E+03 0.  0.
    9000005    1    3    3    0    0 -0.39792863298E+02  0.47924424203E+02 -0.49894887634E+03  0.50282323296E+03  0.10000000000E+01 0.  0.
    9000005    1    3    3    0    0  0.39792863298E+02 -0.47924424203E+02 -0.42463490126E+03  0.42918064003E+03  0.10000000000E+01 0.  0.
<mgrwt>
<rscale>  0 0.12499690E+03</rscale>
<asrwt>0</asrwt>
<pdfrwt beam="2">  1        4 0.14273735E+00 0.12499690E+03</pdfrwt>
<pdfrwt beam="1">  1       -4 0.64770038E-03 0.12499690E+03</pdfrwt>
<totfact> 0.32965913E+03</totfact>
</mgrwt>
</event>
<event>
 5    1  0.3311405E-002  0.1250039E+03  0.7818608E-02  0.1235063E+00
          4   -1    0    0  501    0  0.00000000000E+00  0.00000000000E+00  0.25222852459E+03  0.25223172187E+03  0.12700000000E+01 0. -1.
         -4   -1    0    0    0  501 -0.00000000000E+00 -0.00000000000E+00 -0.15458584307E+02  0.15510665001E+02  0.12700000000E+01 0. -1.
         25    2    1    2    0    0  0.00000000000E+00  0.00000000000E+00  0.23676994028E+03  0.26774238687E+03  0.12500392436E+03 0.  0.
    9000005    1    3    3    0    0 -0.15927370465E+02 -0.39831104721E+02  0.21572349626E+03  0.21994959621E+03  0.10000000000E+01 0.  0.
    9000005    1    3    3    0    0  0.15927370465E+02  0.39831104721E+02  0.21046444023E+02  0.47792790662E+02  0.10000000000E+01 0.  0.
<mgrwt>
<rscale>  0 0.12500392E+03</rscale>
<asrwt>0</asrwt>
<pdfrwt beam="1">  1        4 0.38808641E-01 0.12500392E+03</pdfrwt>
<pdfrwt beam="2">  1       -4 0.23824959E-02 0.12500392E+03</pdfrwt>
<totfact> 0.79824686E+03</totfact>
</mgrwt>
</event>
<event>
 5    1  0.3311405E-002  0.1249948E+03  0.7818608E-02  0.1235077E+00
          4   -1    0    0  501    0  0.00000000000E+00  0.00000000000E+00  0.14020484715E+02  0.14077886618E+02  0.12700000000E+01 0. -1.
         -4   -1    0    0    0  501 -0.00000000000E+00 -0.00000000000E+00 -0.27795915587E+03  0.27796205718E+03  0.12700000000E+01 0. -1.
         25    2    1    2    0    0  0.00000000000E+00  0.00000000000E+00 -0.26393867116E+03  0.29203994380E+03  0.12499482647E+03 0.  0.
    9000005    1    3    3    0    0 -0.40875822555E+02  0.13605207857E+02 -0.23772907238E+03  0.24160307615E+03  0.10000000000E+01 0.  0.
    9000005    1    3    3    0    0  0.40875822555E+02 -0.13605207857E+02 -0.26209598776E+02  0.50436867650E+02  0.10000000000E+01 0.  0.
<mgrwt>
<rscale>  0 0.12499483E+03</rscale>
<asrwt>0</asrwt>
<pdfrwt beam="1">  1        4 0.21616366E-02 0.12499483E+03</pdfrwt>
<pdfrwt beam="2">  1       -4 0.42767582E-01 0.12499483E+03</pdfrwt>
<totfact> 0.76617112E+03</totfact>
</mgrwt>
</event>
<event>
 5    1  0.3311405E-002  0.1250022E+03  0.7818608E-02  0.1235066E+00
          4   -1    0    0  501    0  0.00000000000E+00  0.00000000000E+00  0.16879191361E+03  0.16879669132E+03  0.12700000000E+01 0.  1.
         -4   -1    0    0    0  501 -0.00000000000E+00 -0.00000000000E+00 -0.23120679127E+02  0.23155532887E+02  0.12700000000E+01 0.  1.
         25    2    1    2    0    0  0.00000000000E+00  0.00000000000E+00  0.14567123448E+03  0.19195222421E+03  0.12500219127E+03 0.  0.
    9000005    1    3    3    0    0  0.17713166836E+02  0.53509130874E+02  0.11427960733E+03  0.12742767367E+03  0.10000000000E+01 0.  0.
    9000005    1    3    3    0    0 -0.17713166836E+02 -0.53509130874E+02  0.31391627157E+02  0.64524550536E+02  0.10000000000E+01 0.  0.
<mgrwt>
<rscale>  0 0.12500219E+03</rscale>
<asrwt>0</asrwt>
<pdfrwt beam="1">  1        4 0.25971035E-01 0.12500219E+03</pdfrwt>
<pdfrwt beam="2">  1       -4 0.35600761E-02 0.12500219E+03</pdfrwt>
<totfact> 0.91504248E+03</totfact>
</mgrwt>
</event>
<event>
 5    1  0.3311405E-002  0.1250024E+03  0.7818608E-02  0.1235066E+00
         -4   -1    0    0    0  501 -0.00000000000E+00  0.00000000000E+00  0.93503591757E+02  0.93512216162E+02  0.12700000000E+01 0.  1.
          4   -1    0    0  501    0  0.00000000000E+00 -0.00000000000E+00 -0.41757862692E+02  0.41777170759E+02  0.12700000000E+01 0.  1.
         25    2    1    2    0    0  0.00000000000E+00  0.00000000000E+00  0.51745729065E+02  0.13528938692E+03  0.12500239092E+03 0.  0.
    9000005    1    3    3    0    0  0.24373773414E+01 -0.58334233088E+02  0.49990693865E+02  0.76869324384E+02  0.10000000000E+01 0.  0.
    9000005    1    3    3    0    0 -0.24373773414E+01  0.58334233088E+02  0.17550352004E+01  0.58420062536E+02  0.10000000000E+01 0.  0.
<mgrwt>
<rscale>  0 0.12500239E+03</rscale>
<asrwt>0</asrwt>
<pdfrwt beam="2">  1        4 0.64264353E-02 0.12500239E+03</pdfrwt>
<pdfrwt beam="1">  1       -4 0.14387316E-01 0.12500239E+03</pdfrwt>
<totfact> 0.10231423E+04</totfact>
</mgrwt>
</event>
<event>
 5    1  0.3311405E-002  0.1250000E+03  0.7818608E-02  0.1235069E+00
          4   -1    0    0  501    0  0.00000000000E+00  0.00000000000E+00  0.31416601307E+01  0.33886469832E+01  0.12700000000E+01 0.  1.
         -4   -1    0    0    0  501 -0.00000000000E+00 -0.00000000000E+00 -0.11960978228E+04  0.11960984970E+04  0.12700000000E+01 0.  1.
         25    2    1    2    0    0  0.00000000000E+00  0.00000000000E+00 -0.11929561626E+04  0.11994871440E+04  0.12500001045E+03 0.  0.
    9000005    1    3    3    0    0  0.47454931258E+02 -0.22568785143E+01 -0.98605098695E+03  0.98719532661E+03  0.10000000000E+01 0.  0.
    9000005    1    3    3    0    0 -0.47454931258E+02  0.22568785143E+01 -0.20690517569E+03  0.21229181739E+03  0.10000000000E+01 0.  0.
<mgrwt>
<rscale>  0 0.12500001E+03</rscale>
<asrwt>0</asrwt>
<pdfrwt beam="1">  1        4 0.50238414E-03 0.12500001E+03</pdfrwt>
<pdfrwt beam="2">  1       -4 0.18403375E+00 0.12500001E+03</pdfrwt>
<totfact> 0.24726228E+03</totfact>
</mgrwt>
</event>
<event>
 5    1  0.3311405E-002  0.1249998E+03  0.7818608E-02  0.1235070E+00
         -4   -1    0    0    0  501 -0.00000000000E+00  0.00000000000E+00  0.35148391165E+01  0.37372441738E+01  0.12700000000E+01 0. -1.
          4   -1    0    0  501    0  0.00000000000E+00 -0.00000000000E+00 -0.10770500675E+04  0.10770508163E+04  0.12700000000E+01 0. -1.
         25    2    1    2    0    0  0.00000000000E+00  0.00000000000E+00 -0.10735352284E+04  0.10807880604E+04  0.12499977997E+03 0.  0.
    9000005    1    3    3    0    0 -0.56702981788E+02 -0.24210441140E+02 -0.44865035571E+03  0.45286809921E+03  0.10000000000E+01 0.  0.
    9000005    1    3    3    0    0  0.56702981788E+02  0.24210441140E+02 -0.62488487268E+03  0.62791996123E+03  0.10000000000E+01 0.  0.
<mgrwt>
<rscale>  0 0.12499978E+03</rscale>
<asrwt>0</asrwt>
<pdfrwt beam="2">  1        4 0.16571692E+00 0.12499978E+03</pdfrwt>
<pdfrwt beam="1">  1       -4 0.55791102E-03 0.12499978E+03</pdfrwt>
<totfact> 0.28052764E+03</totfact>
</mgrwt>
</event>
<event>
 5    1  0.3311405E-002  0.1249954E+03  0.7818608E-02  0.1235076E+00
         -4   -1    0    0    0  501 -0.00000000000E+00  0.00000000000E+00  0.13184308925E+02  0.13245335097E+02  0.12700000000E+01 0. -1.
          4   -1    0    0  501    0  0.00000000000E+00 -0.00000000000E+00 -0.29551195206E+03  0.29551468104E+03  0.12700000000E+01 0. -1.
         25    2    1    2    0    0  0.00000000000E+00  0.00000000000E+00 -0.28232764313E+03  0.30876001613E+03  0.12499539786E+03 0.  0.
    9000005    1    3    3    0    0 -0.32096013021E+02  0.53617083673E+02 -0.14148263907E+03  0.15467153219E+03  0.10000000000E+01 0.  0.
    9000005    1    3    3    0    0  0.32096013021E+02 -0.53617083673E+02 -0.14084500406E+03  0.15408848394E+03  0.10000000000E+01 0.  0.
<mgrwt>
<rscale>  0 0.12499540E+03</rscale>
<asrwt>0</asrwt>
<pdfrwt beam="2">  1        4 0.45468276E-01 0.12499540E+03</pdfrwt>
<pdfrwt beam="1">  1       -4 0.20332597E-02 0.12499540E+03</pdfrwt>
<totfact> 0.74520586E+03</totfact>
</mgrwt>
</event>
<event>
 5    1  0.3311405E-002  0.1249993E+03  0.7818608E-02  0.1235070E+00
          4   -1    0    0  501    0  0.00000000000E+00  0.00000000000E+00  0.71074628902E+02  0.71085974521E+02  0.12700000000E+01 0.  1.
         -4   -1    0    0    0  501 -0.00000000000E+00 -0.00000000000E+00 -0.54936135923E+02  0.54950813736E+02  0.12700000000E+01 0.  1.
         25    2    1    2    0    0  0.00000000000E+00  0.00000000000E+00  0.16138492979E+02  0.12603678826E+03  0.12499928415E+03 0.  0.
    9000005    1    3    3    0    0 -0.48429312401E+02 -0.20781208997E+02 -0.25794452980E+02  0.58682286523E+02  0.10000000000E+01 0.  0.
    9000005    1    3    3    0    0  0.48429312401E+02  0.20781208997E+02  0.41932945959E+02  0.67354501734E+02  0.10000000000E+01 0.  0.
<mgrwt>
<rscale>  0 0.12499928E+03</rscale>
<asrwt>0</asrwt>
<pdfrwt beam="1">  1        4 0.10936560E-01 0.12499928E+03</pdfrwt>
<pdfrwt beam="2">  1       -4 0.84537150E-02 0.12499928E+03</pdfrwt>
<totfact> 0.10430319E+04</totfact>
</mgrwt>
</event>
<event>
 5    1  0.3311405E-002  0.1249969E+03  0.7818608E-02  0.1235074E+00
          4   -1    0    0  501    0  0.00000000000E+00  0.00000000000E+00  0.12054801242E+04  0.12054807932E+04  0.12700000000E+01 0. -1.
         -4   -1    0    0    0  501 -0.00000000000E+00 -0.00000000000E+00 -0.31151117323E+01  0.33640483208E+01  0.12700000000E+01 0. -1.
         25    2    1    2    0    0  0.00000000000E+00  0.00000000000E+00  0.12023650125E+04  0.12088448415E+04  0.12499691049E+03 0.  0.
    9000005    1    3    3    0    0  0.49429192580E+02  0.20312628252E+02  0.28792442850E+03  0.29284351534E+03  0.10000000000E+01 0.  0.
    9000005    1    3    3    0    0 -0.49429192580E+02 -0.20312628252E+02  0.91444058400E+03  0.91600132621E+03  0.10000000000E+01 0.  0.
<mgrwt>
<rscale>  0 0.12499691E+03</rscale>
<asrwt>0</asrwt>
<pdfrwt beam="1">  1        4 0.18547763E+00 0.12499691E+03</pdfrwt>
<pdfrwt beam="2">  1       -4 0.49844853E-03 0.12499691E+03</pdfrwt>
<totfact> 0.24484063E+03</totfact>
</mgrwt>
</event>
<event>
 5    1  0.3311405E-002  0.1249939E+03  0.7818608E-02  0.1235079E+00
          4   -1    0    0  501    0  0.00000000000E+00  0.00000000000E+00  0.30814939022E+03  0.30815200728E+03  0.12700000000E+01 0.  1.
         -4   -1    0    0    0  501 -0.00000000000E+00 -0.00000000000E+00 -0.12640747060E+02  0.12704384528E+02  0.12700000000E+01 0.  1.
         25    2    1    2    0    0  0.00000000000E+00  0.00000000000E+00  0.29550864316E+03  0.32085639181E+03  0.12499386379E+03 0.  0.
    9000005    1    3    3    0    0 -0.60069465278E+02 -0.10103552694E+02  0.11195957082E+03  0.12746124091E+03  0.10000000000E+01 0.  0.
    9000005    1    3    3    0    0  0.60069465278E+02  0.10103552694E+02  0.18354907234E+03  0.19339515090E+03  0.10000000000E+01 0.  0.
<mgrwt>
<rscale>  0 0.12499386E+03</rscale>
<asrwt>0</asrwt>
<pdfrwt beam="1">  1        4 0.47412696E-01 0.12499386E+03</pdfrwt>
<pdfrwt beam="2">  1       -4 0.19498268E-02 0.12499386E+03</pdfrwt>
<totfact> 0.73064319E+03</totfact>
</mgrwt>
</event>
<event>
 5    1  0.3311405E-002  0.1249984E+03  0.7818608E-02  0.1235072E+00
          4   -1    0    0  501    0  0.00000000000E+00  0.00000000000E+00  0.80400186132E+01  0.81397051114E+01  0.12700000000E+01 0.  1.
         -4   -1    0    0    0  501 -0.00000000000E+00 -0.00000000000E+00 -0.48274420944E+03  0.48274587999E+03  0.12700000000E+01 0.  1.
         25    2    1    2    0    0  0.00000000000E+00  0.00000000000E+00 -0.47470419082E+03  0.49088558510E+03  0.12499835548E+03 0.  0.
    9000005    1    3    3    0    0  0.36051832767E+02 -0.24973227298E+02 -0.62528331179E+02  0.76381862557E+02  0.10000000000E+01 0.  0.
    9000005    1    3    3    0    0 -0.36051832767E+02  0.24973227298E+02 -0.41217585964E+03  0.41450372254E+03  0.10000000000E+01 0.  0.
<mgrwt>
<rscale>  0 0.12499836E+03</rscale>
<asrwt>0</asrwt>
<pdfrwt beam="1">  1        4 0.12447230E-02 0.12499836E+03</pdfrwt>
<pdfrwt beam="2">  1       -4 0.74276114E-01 0.12499836E+03</pdfrwt>
<totfact> 0.56580589E+03</totfact>
</mgrwt>
</event>
<event>
 5    1  0.3311405E-002  0.1249890E+03  0.7818608E-02  0.1235086E+00
          4   -1    0    0  501    0  0.00000000000E+00  0.00000000000E+00  0.13940379553E+03  0.13940958040E+03  0.12700000000E+01 0. -1.
         -4   -1    0    0    0  501 -0.00000000000E+00 -0.00000000000E+00 -0.27995426919E+02  0.28024218604E+02  0.12700000000E+01 0. -1.
         25    2    1    2    0    0  0.00000000000E+00  0.00000000000E+00  0.11140836861E+03  0.16743379900E+03  0.12498900933E+03 0.  0.
    9000005    1    3    3    0    0  0.22545405860E+02  0.16956985268E+02  0.13039422542E+03  0.13341472445E+03  0.10000000000E+01 0.  0.
    9000005    1    3    3    0    0 -0.22545405860E+02 -0.16956985268E+02 -0.18985856817E+02  0.34019074559E+02  0.10000000000E+01 0.  0.
<mgrwt>
<rscale>  0 0.12498901E+03</rscale>
<asrwt>0</asrwt>
<pdfrwt beam="1">  1        4 0.21449398E-01 0.12498901E+03</pdfrwt>
<pdfrwt beam="2">  1       -4 0.43096485E-02 0.12498901E+03</pdfrwt>
<totfact> 0.95952127E+03</totfact>
</mgrwt>
</event>
<event>
 5    1  0.3311405E-002  0.1249968E+03  0.7818608E-02  0.1235074E+00
         -4   -1    0    0    0  501 -0.00000000000E+00  0.00000000000E+00  0.97171963231E+02  0.97180262081E+02  0.12700000000E+01 0. -1.
          4   -1    0    0  501    0  0.00000000000E+00 -0.00000000000E+00 -0.40177248880E+02  0.40197316173E+02  0.12700000000E+01 0. -1.
         25    2    1    2    0    0  0.00000000000E+00  0.00000000000E+00  0.56994714352E+02  0.13737757825E+03  0.12499680613E+03 0.  0.
    9000005    1    3    3    0    0  0.21950962603E+01 -0.11163805198E+02 -0.39034704544E+02  0.40671330848E+02  0.10000000000E+01 0.  0.
    9000005    1    3    3    0    0 -0.21950962603E+01  0.11163805198E+02  0.96029418896E+02  0.96706247407E+02  0.10000000000E+01 0.  0.
<mgrwt>
<rscale>  0 0.12499681E+03</rscale>
<asrwt>0</asrwt>
<pdfrwt beam="2">  1        4 0.61832973E-02 0.12499681E+03</pdfrwt>
<pdfrwt beam="1">  1       -4 0.14951715E-01 0.12499681E+03</pdfrwt>
<totfact> 0.10188931E+04</totfact>
</mgrwt>
</event>
<event>
 5    1  0.3311405E-002  0.1249949E+03  0.7818608E-02  0.1235077E+00
         -4   -1    0    0    0  501 -0.00000000000E+00  0.00000000000E+00  0.16656591102E+01  0.20945931040E+01  0.12700000000E+01 0.  1.
          4   -1    0    0  501    0  0.00000000000E+00 -0.00000000000E+00 -0.20770557390E+04  0.20770561273E+04  0.12700000000E+01 0.  1.
         25    2    1    2    0    0  0.00000000000E+00  0.00000000000E+00 -0.20753900799E+04  0.20791507204E+04  0.12499493714E+03 0.  0.
    9000005    1    3    3    0    0  0.23254437915E+02 -0.57359583696E+02 -0.89456357273E+03  0.89670278040E+03  0.10000000000E+01 0.  0.
    9000005    1    3    3    0    0 -0.23254437915E+02  0.57359583696E+02 -0.11808265072E+04  0.11824479400E+04  0.10000000000E+01 0.  0.
<mgrwt>
<rscale>  0 0.12499494E+03</rscale>
<asrwt>0</asrwt>
<pdfrwt beam="2">  1        4 0.31957823E+00 0.12499494E+03</pdfrwt>
<pdfrwt beam="1">  1       -4 0.28928170E-03 0.12499494E+03</pdfrwt>
<totfact> 0.88644350E+02</totfact>
</mgrwt>
</event>
<event>
 5    1  0.3311405E-002  0.1250481E+03  0.7818608E-02  0.1234994E+00
         -4   -1    0    0    0  501 -0.00000000000E+00  0.00000000000E+00  0.13511918204E+02  0.13571471311E+02  0.12700000000E+01 0.  1.
          4   -1    0    0  501    0  0.00000000000E+00 -0.00000000000E+00 -0.28862222391E+03  0.28862501803E+03  0.12700000000E+01 0.  1.
         25    2    1    2    0    0  0.00000000000E+00  0.00000000000E+00 -0.27511030570E+03  0.30219648934E+03  0.12504814219E+03 0.  0.
    9000005    1    3    3    0    0 -0.11151094041E+02  0.56034952832E+02 -0.19888247025E+03  0.20692873123E+03  0.10000000000E+01 0.  0.
    9000005    1    3    3    0    0  0.11151094041E+02 -0.56034952832E+02 -0.76227835457E+02  0.95267758112E+02  0.10000000000E+01 0.  0.
<mgrwt>
<rscale>  0 0.12504814E+03</rscale>
<asrwt>0</asrwt>
<pdfrwt beam="2">  1        4 0.44408210E-01 0.12504814E+03</pdfrwt>
<pdfrwt beam="1">  1       -4 0.20835528E-02 0.12504814E+03</pdfrwt>
<totfact> 0.75243709E+03</totfact>
</mgrwt>
</event>
<event>
 5    1  0.3311405E-002  0.1249995E+03  0.7818608E-02  0.1235070E+00
         -4   -1    0    0    0  501 -0.00000000000E+00  0.00000000000E+00  0.23157997230E+02  0.23192794909E+02  0.12700000000E+01 0. -1.
          4   -1    0    0  501    0  0.00000000000E+00 -0.00000000000E+00 -0.16851299294E+03  0.16851777855E+03  0.12700000000E+01 0. -1.
         25    2    1    2    0    0  0.00000000000E+00  0.00000000000E+00 -0.14535499571E+03  0.19171057346E+03  0.12499947680E+03 0.  0.
    9000005    1    3    3    0    0  0.49577108794E+02  0.18566203249E+02 -0.12360490068E+03  0.13446845389E+03  0.10000000000E+01 0.  0.
    9000005    1    3    3    0    0 -0.49577108794E+02 -0.18566203249E+02 -0.21750095026E+02  0.57242119572E+02  0.10000000000E+01 0.  0.
<mgrwt>
<rscale>  0 0.12499948E+03</rscale>
<asrwt>0</asrwt>
<pdfrwt beam="2">  1        4 0.25928120E-01 0.12499948E+03</pdfrwt>
<pdfrwt beam="1">  1       -4 0.35658138E-02 0.12499948E+03</pdfrwt>
<totfact> 0.91551603E+03</totfact>
</mgrwt>
</event>
<event>
 5    1  0.3311405E-002  0.1249934E+03  0.7818608E-02  0.1235080E+00
         -4   -1    0    0    0  501 -0.00000000000E+00  0.00000000000E+00  0.18480988784E+02  0.18524574123E+02  0.12700000000E+01 0.  1.
          4   -1    0    0  501    0  0.00000000000E+00 -0.00000000000E+00 -0.21104919560E+03  0.21105301671E+03  0.12700000000E+01 0.  1.
         25    2    1    2    0    0  0.00000000000E+00  0.00000000000E+00 -0.19256820681E+03  0.22957759083E+03  0.12499342358E+03 0.  0.
    9000005    1    3    3    0    0  0.45741432289E+02  0.17337655482E+02 -0.24865171384E+02  0.54883054520E+02  0.10000000000E+01 0.  0.
    9000005    1    3    3    0    0 -0.45741432289E+02 -0.17337655482E+02 -0.16770303543E+03  0.17469453631E+03  0.10000000000E+01 0.  0.
<mgrwt>
<rscale>  0 0.12499342E+03</rscale>
<asrwt>0</asrwt>
<pdfrwt beam="2">  1        4 0.32472752E-01 0.12499342E+03</pdfrwt>
<pdfrwt beam="1">  1       -4 0.28468758E-02 0.12499342E+03</pdfrwt>
<totfact> 0.85387030E+03</totfact>
</mgrwt>
</event>
<event>
 5    1  0.3311405E-002  0.1250036E+03  0.7818608E-02  0.1235064E+00
          4   -1    0    0  501    0  0.00000000000E+00  0.00000000000E+00  0.17116894709E+03  0.17117365845E+03  0.12700000000E+01 0. -1.
         -4   -1    0    0    0  501 -0.00000000000E+00 -0.00000000000E+00 -0.22799651457E+02  0.22834995217E+02  0.12700000000E+01 0. -1.
         25    2    1    2    0    0  0.00000000000E+00  0.00000000000E+00  0.14836929563E+03  0.19400865367E+03  0.12500363919E+03 0.  0.
    9000005    1    3    3    0    0 -0.33198321132E+02 -0.12960921004E+02  0.15385903003E+03  0.15793579430E+03  0.10000000000E+01 0.  0.
    9000005    1    3    3    0    0  0.33198321132E+02  0.12960921004E+02 -0.54897343980E+01  0.36072859369E+02  0.10000000000E+01 0.  0.
<mgrwt>
<rscale>  0 0.12500364E+03</rscale>
<asrwt>0</asrwt>
<pdfrwt beam="1">  1        4 0.26336766E-01 0.12500364E+03</pdfrwt>
<pdfrwt beam="2">  1       -4 0.35107198E-02 0.12500364E+03</pdfrwt>
<totfact> 0.91147035E+03</totfact>
</mgrwt>
</event>
<event>
 5    1  0.3311405E-002  0.1250198E+03  0.7818608E-02  0.1235038E+00
          4   -1    0    0  501    0  0.00000000000E+00  0.00000000000E+00  0.12049348990E+02  0.12116093062E+02  0.12700000000E+01 0. -1.
         -4   -1    0    0    0  501 -0.00000000000E+00 -0.00000000000E+00 -0.32332649531E+03  0.32332898953E+03  0.12700000000E+01 0. -1.
         25    2    1    2    0    0  0.00000000000E+00  0.00000000000E+00 -0.31127714632E+03  0.33544508259E+03  0.12501976489E+03 0.  0.
    9000005    1    3    3    0    0  0.42047817012E+01 -0.53981051535E+02 -0.23941309103E+03  0.24546132541E+03  0.10000000000E+01 0.  0.
    9000005    1    3    3    0    0 -0.42047817012E+01  0.53981051535E+02 -0.71864055285E+02  0.89983757179E+02  0.10000000000E+01 0.  0.
<mgrwt>
<rscale>  0 0.12501976E+03</rscale>
<asrwt>0</asrwt>
<pdfrwt beam="1">  1        4 0.18590723E-02 0.12501976E+03</pdfrwt>
<pdfrwt beam="2">  1       -4 0.49747857E-01 0.12501976E+03</pdfrwt>
<totfact> 0.71324801E+03</totfact>
</mgrwt>
</event>
<event>
 5    1  0.3311405E-002  0.1249982E+03  0.7818608E-02  0.1235072E+00
          4   -1    0    0  501    0  0.00000000000E+00  0.00000000000E+00  0.87856614496E+02  0.87865793178E+02  0.12700000000E+01 0.  1.
         -4   -1    0    0    0  501 -0.00000000000E+00 -0.00000000000E+00 -0.44439794283E+02  0.44457937603E+02  0.12700000000E+01 0.  1.
         25    2    1    2    0    0  0.00000000000E+00  0.00000000000E+00  0.43416820214E+02  0.13232373078E+03  0.12499819779E+03 0.  0.
    9000005    1    3    3    0    0 -0.90716135103E+01  0.59023560343E+02  0.41201194327E+02  0.72557654739E+02  0.10000000000E+01 0.  0.
    9000005    1    3    3    0    0  0.90716135103E+01 -0.59023560343E+02  0.22156258868E+01  0.59766076041E+02  0.10000000000E+01 0.  0.
<mgrwt>
<rscale>  0 0.12499820E+03</rscale>
<asrwt>0</asrwt>
<pdfrwt beam="1">  1        4 0.13518504E-01 0.12499820E+03</pdfrwt>
<pdfrwt beam="2">  1       -4 0.68389932E-02 0.12499820E+03</pdfrwt>
<totfact> 0.10295212E+04</totfact>
</mgrwt>
</event>
<event>
 5    1  0.3311405E-002  0.1249969E+03  0.7818608E-02  0.1235074E+00
          4   -1    0    0  501    0  0.00000000000E+00  0.00000000000E+00  0.63101512911E+02  0.63114291818E+02  0.12700000000E+01 0. -1.
         -4   -1    0    0    0  501 -0.00000000000E+00 -0.00000000000E+00 -0.61875550276E+02  0.61888582323E+02  0.12700000000E+01 0. -1.
         25    2    1    2    0    0  0.00000000000E+00  0.00000000000E+00  0.12259626355E+01  0.12500287414E+03  0.12499686220E+03 0.  0.
    9000005    1    3    3    0    0 -0.26225092794E+02  0.22669084742E+02  0.52609818256E+02  0.63011394779E+02  0.10000000000E+01 0.  0.
    9000005    1    3    3    0    0  0.26225092794E+02 -0.22669084742E+02 -0.51383855620E+02  0.61991479362E+02  0.10000000000E+01 0.  0.
<mgrwt>
<rscale>  0 0.12499686E+03</rscale>
<asrwt>0</asrwt>
<pdfrwt beam="1">  1        4 0.97099105E-02 0.12499686E+03</pdfrwt>
<pdfrwt beam="2">  1       -4 0.95213009E-02 0.12499686E+03</pdfrwt>
<totfact> 0.10453541E+04</totfact>
</mgrwt>
</event>
<event>
 5    1  0.3311405E-002  0.1250109E+03  0.7818608E-02  0.1235052E+00
         -4   -1    0    0    0  501 -0.00000000000E+00  0.00000000000E+00  0.95618778827E+02  0.95627212468E+02  0.12700000000E+01 0.  1.
          4   -1    0    0  501    0  0.00000000000E+00 -0.00000000000E+00 -0.40839316690E+02  0.40859058821E+02  0.12700000000E+01 0.  1.
         25    2    1    2    0    0  0.00000000000E+00  0.00000000000E+00  0.54779462137E+02  0.13648627129E+03  0.12501085064E+03 0.  0.
    9000005    1    3    3    0    0  0.58021412945E+02 -0.23224839944E+02  0.27635430921E+02  0.68341748535E+02  0.10000000000E+01 0.  0.
    9000005    1    3    3    0    0 -0.58021412945E+02  0.23224839944E+02  0.27144031216E+02  0.68144522753E+02  0.10000000000E+01 0.  0.
<mgrwt>
<rscale>  0 0.12501085E+03</rscale>
<asrwt>0</asrwt>
<pdfrwt beam="2">  1        4 0.62851392E-02 0.12501085E+03</pdfrwt>
<pdfrwt beam="1">  1       -4 0.14712749E-01 0.12501085E+03</pdfrwt>
<totfact> 0.10204341E+04</totfact>
</mgrwt>
</event>
<event>
 5    1  0.3311405E-002  0.1250011E+03  0.7818608E-02  0.1235068E+00
          4   -1    0    0  501    0  0.00000000000E+00  0.00000000000E+00  0.25798224931E+03  0.25798537528E+03  0.12700000000E+01 0. -1.
         -4   -1    0    0    0  501 -0.00000000000E+00 -0.00000000000E+00 -0.15111951307E+02  0.15165222462E+02  0.12700000000E+01 0. -1.
         25    2    1    2    0    0  0.00000000000E+00  0.00000000000E+00  0.24287029800E+03  0.27315059774E+03  0.12500106958E+03 0.  0.
    9000005    1    3    3    0    0 -0.10014625058E+02  0.57619097616E+02  0.16956204191E+03  0.17936705155E+03  0.10000000000E+01 0.  0.
    9000005    1    3    3    0    0  0.10014625058E+02 -0.57619097616E+02  0.73308256093E+02  0.93783546193E+02  0.10000000000E+01 0.  0.
<mgrwt>
<rscale>  0 0.12500107E+03</rscale>
<asrwt>0</asrwt>
<pdfrwt beam="1">  1        4 0.39693914E-01 0.12500107E+03</pdfrwt>
<pdfrwt beam="2">  1       -4 0.23292539E-02 0.12500107E+03</pdfrwt>
<totfact> 0.79093259E+03</totfact>
</mgrwt>
</event>
<event>
 5    1  0.3311405E-002  0.1249984E+03  0.7818608E-02  0.1235072E+00
         -4   -1    0    0    0  501 -0.00000000000E+00  0.00000000000E+00  0.97716185857E+03  0.97716268387E+03  0.12700000000E+01 0.  1.
          4   -1    0    0  501    0  0.00000000000E+00 -0.00000000000E+00 -0.38957286459E+01  0.40975116452E+01  0.12700000000E+01 0.  1.
         25    2    1    2    0    0  0.00000000000E+00  0.00000000000E+00  0.97326612993E+03  0.98126019552E+03  0.12499844656E+03 0.  0.
    9000005    1    3    3    0    0  0.33701202186E+02  0.21412799670E+02  0.86400334092E+03  0.86492603854E+03  0.10000000000E+01 0.  0.
    9000005    1    3    3    0    0 -0.33701202186E+02 -0.21412799670E+02  0.10926278901E+03  0.11633415698E+03  0.10000000000E+01 0.  0.
<mgrwt>
<rscale>  0 0.12499845E+03</rscale>
<asrwt>0</asrwt>
<pdfrwt beam="2">  1        4 0.61492828E-03 0.12499845E+03</pdfrwt>
<pdfrwt beam="1">  1       -4 0.15034814E+00 0.12499845E+03</pdfrwt>
<totfact> 0.31232520E+03</totfact>
</mgrwt>
</event>
<event>
 5    1  0.3311405E-002  0.1249973E+03  0.7818608E-02  0.1235073E+00
         -4   -1    0    0    0  501 -0.00000000000E+00  0.00000000000E+00  0.49260504254E+02  0.49276872662E+02  0.12700000000E+01 0.  1.
          4   -1    0    0  501    0  0.00000000000E+00 -0.00000000000E+00 -0.79259763895E+02  0.79269938013E+02  0.12700000000E+01 0.  1.
         25    2    1    2    0    0  0.00000000000E+00  0.00000000000E+00 -0.29999259640E+02  0.12854681068E+03  0.12499730779E+03 0.  0.
    9000005    1    3    3    0    0  0.32249533886E+01  0.11422312199E+02  0.48095769847E+02  0.49548689363E+02  0.10000000000E+01 0.  0.
    9000005    1    3    3    0    0 -0.32249533886E+01 -0.11422312199E+02 -0.78095029488E+02  0.78998121313E+02  0.10000000000E+01 0.  0.
<mgrwt>
<rscale>  0 0.12499731E+03</rscale>
<asrwt>0</asrwt>
<pdfrwt beam="2">  1        4 0.12195852E-01 0.12499731E+03</pdfrwt>
<pdfrwt beam="1">  1       -4 0.75805808E-02 0.12499731E+03</pdfrwt>
<totfact> 0.10376326E+04</totfact>
</mgrwt>
</event>
<event>
 5    1  0.3311405E-002  0.1250155E+03  0.7818608E-02  0.1235045E+00
          4   -1    0    0  501    0  0.00000000000E+00  0.00000000000E+00  0.21510892851E+03  0.21511267751E+03  0.12700000000E+01 0.  1.
         -4   -1    0    0    0  501 -0.00000000000E+00 -0.00000000000E+00 -0.18137782957E+02  0.18182191029E+02  0.12700000000E+01 0.  1.
         25    2    1    2    0    0  0.00000000000E+00  0.00000000000E+00  0.19697114556E+03  0.23329486854E+03  0.12501545307E+03 0.  0.
    9000005    1    3    3    0    0 -0.38290999690E+01 -0.42477118654E+01 -0.17657650201E+02  0.18587567707E+02  0.10000000000E+01 0.  0.
    9000005    1    3    3    0    0  0.38290999690E+01  0.42477118654E+01  0.21462879576E+03  0.21470730083E+03  0.10000000000E+01 0.  0.
<mgrwt>
<rscale>  0 0.12501545E+03</rscale>
<asrwt>0</asrwt>
<pdfrwt beam="1">  1        4 0.33097387E-01 0.12501545E+03</pdfrwt>
<pdfrwt beam="2">  1       -4 0.27941324E-02 0.12501545E+03</pdfrwt>
<totfact> 0.84776994E+03</totfact>
</mgrwt>
</event>
<event>
 5    1  0.3311405E-002  0.1249859E+03  0.7818608E-02  0.1235091E+00
          4   -1    0    0  501    0  0.00000000000E+00  0.00000000000E+00  0.27655612123E+02  0.27684757212E+02  0.12700000000E+01 0.  1.
         -4   -1    0    0    0  501 -0.00000000000E+00 -0.00000000000E+00 -0.14110806925E+03  0.14111378426E+03  0.12700000000E+01 0.  1.
         25    2    1    2    0    0  0.00000000000E+00  0.00000000000E+00 -0.11345245713E+03  0.16879854147E+03  0.12498594951E+03 0.  0.
    9000005    1    3    3    0    0  0.56363300059E+02 -0.10309528897E+02 -0.23063791065E+02  0.61774156716E+02  0.10000000000E+01 0.  0.
    9000005    1    3    3    0    0 -0.56363300059E+02  0.10309528897E+02 -0.90388666064E+02  0.10702438476E+03  0.10000000000E+01 0.  0.
<mgrwt>
<rscale>  0 0.12498595E+03</rscale>
<asrwt>0</asrwt>
<pdfrwt beam="1">  1        4 0.42573912E-02 0.12498595E+03</pdfrwt>
<pdfrwt beam="2">  1       -4 0.21711615E-01 0.12498595E+03</pdfrwt>
<totfact> 0.95702998E+03</totfact>
</mgrwt>
</event>
<event>
 5    1  0.3311405E-002  0.1250003E+03  0.7818608E-02  0.1235069E+00
          4   -1    0    0  501    0  0.00000000000E+00  0.00000000000E+00  0.18740690778E+02  0.18783673518E+02  0.12700000000E+01 0.  1.
         -4   -1    0    0    0  501 -0.00000000000E+00 -0.00000000000E+00 -0.20815422954E+03  0.20815810380E+03  0.12700000000E+01 0.  1.
         25    2    1    2    0    0  0.00000000000E+00  0.00000000000E+00 -0.18941353876E+03  0.22694177731E+03  0.12500032649E+03 0.  0.
    9000005    1    3    3    0    0  0.62125211799E+02  0.33074204265E+01 -0.83998310041E+02  0.10453323424E+03  0.10000000000E+01 0.  0.
    9000005    1    3    3    0    0 -0.62125211799E+02 -0.33074204265E+01 -0.10541522872E+03  0.12240854307E+03  0.10000000000E+01 0.  0.
<mgrwt>
<rscale>  0 0.12500033E+03</rscale>
<asrwt>0</asrwt>
<pdfrwt beam="1">  1        4 0.28867877E-02 0.12500033E+03</pdfrwt>
<pdfrwt beam="2">  1       -4 0.32027330E-01 0.12500033E+03</pdfrwt>
<totfact> 0.85780788E+03</totfact>
</mgrwt>
</event>
<event>
 5    1  0.3311405E-002  0.1250044E+03  0.7818608E-02  0.1235062E+00
          4   -1    0    0  501    0  0.00000000000E+00  0.00000000000E+00  0.80634248509E+01  0.81628255112E+01  0.12700000000E+01 0.  1.
         -4   -1    0    0    0  501 -0.00000000000E+00 -0.00000000000E+00 -0.48140684719E+03  0.48140852238E+03  0.12700000000E+01 0.  1.
         25    2    1    2    0    0  0.00000000000E+00  0.00000000000E+00 -0.47334342233E+03  0.48957134789E+03  0.12500443674E+03 0.  0.
    9000005    1    3    3    0    0 -0.37955437370E+02 -0.22995417111E+02 -0.40900017731E+03  0.41140193178E+03  0.10000000000E+01 0.  0.
    9000005    1    3    3    0    0  0.37955437370E+02  0.22995417111E+02 -0.64343245024E+02  0.78169416106E+02  0.10000000000E+01 0.  0.
<mgrwt>
<rscale>  0 0.12500444E+03</rscale>
<asrwt>0</asrwt>
<pdfrwt beam="1">  1        4 0.12483023E-02 0.12500444E+03</pdfrwt>
<pdfrwt beam="2">  1       -4 0.74070345E-01 0.12500444E+03</pdfrwt>
<totfact> 0.56677156E+03</totfact>
</mgrwt>
</event>
<event>
 5    1  0.3311405E-002  0.1250124E+03  0.7818608E-02  0.1235050E+00
          4   -1    0    0  501    0  0.00000000000E+00  0.00000000000E+00  0.18278396437E+02  0.18322463707E+02  0.12700000000E+01 0.  1.
         -4   -1    0    0    0  501 -0.00000000000E+00 -0.00000000000E+00 -0.21344751470E+03  0.21345129288E+03  0.12700000000E+01 0.  1.
         25    2    1    2    0    0  0.00000000000E+00  0.00000000000E+00 -0.19516911826E+03  0.23177375659E+03  0.12501235746E+03 0.  0.
    9000005    1    3    3    0    0 -0.14735623453E+02  0.26541870355E+02 -0.19886854150E+03  0.20117481522E+03  0.10000000000E+01 0.  0.
    9000005    1    3    3    0    0  0.14735623453E+02 -0.26541870355E+02  0.36994232360E+01  0.30598941367E+02  0.10000000000E+01 0.  0.
<mgrwt>
<rscale>  0 0.12501236E+03</rscale>
<asrwt>0</asrwt>
<pdfrwt beam="1">  1        4 0.28157416E-02 0.12501236E+03</pdfrwt>
<pdfrwt beam="2">  1       -4 0.32841758E-01 0.12501236E+03</pdfrwt>
<totfact> 0.85014539E+03</totfact>
</mgrwt>
</event>
<event>
 5    1  0.3311405E-002  0.1249993E+03  0.7818608E-02  0.1235070E+00
          4   -1    0    0  501    0  0.00000000000E+00  0.00000000000E+00  0.10312117256E+03  0.10312899267E+03  0.12700000000E+01 0.  1.
         -4   -1    0    0    0  501 -0.00000000000E+00 -0.00000000000E+00 -0.37859874723E+02  0.37881169650E+02  0.12700000000E+01 0.  1.
         25    2    1    2    0    0  0.00000000000E+00  0.00000000000E+00  0.65261297837E+02  0.14101016232E+03  0.12499931553E+03 0.  0.
    9000005    1    3    3    0    0 -0.45455967901E+02 -0.20154911795E+02 -0.10069238828E+02  0.50743029649E+02  0.10000000000E+01 0.  0.
    9000005    1    3    3    0    0  0.45455967901E+02  0.20154911795E+02  0.75330536665E+02  0.90267132676E+02  0.10000000000E+01 0.  0.
<mgrwt>
<rscale>  0 0.12499932E+03</rscale>
<asrwt>0</asrwt>
<pdfrwt beam="1">  1        4 0.15867036E-01 0.12499932E+03</pdfrwt>
<pdfrwt beam="2">  1       -4 0.58268357E-02 0.12499932E+03</pdfrwt>
<totfact> 0.10112848E+04</totfact>
</mgrwt>
</event>
<event>
 5    1  0.3311405E-002  0.1250028E+03  0.7818608E-02  0.1235065E+00
          4   -1    0    0  501    0  0.00000000000E+00  0.00000000000E+00  0.22830954216E+02  0.22866249593E+02  0.12700000000E+01 0. -1.
         -4   -1    0    0    0  501 -0.00000000000E+00 -0.00000000000E+00 -0.17093244616E+03  0.17093716404E+03  0.12700000000E+01 0. -1.
         25    2    1    2    0    0  0.00000000000E+00  0.00000000000E+00 -0.14810149194E+03  0.19380341363E+03  0.12500284485E+03 0.  0.
    9000005    1    3    3    0    0 -0.48397702240E+02 -0.24462126690E+02 -0.25896293976E+02  0.60102839084E+02  0.10000000000E+01 0.  0.
    9000005    1    3    3    0    0  0.48397702240E+02  0.24462126690E+02 -0.12220519797E+03  0.13370057455E+03  0.10000000000E+01 0.  0.
<mgrwt>
<rscale>  0 0.12500284E+03</rscale>
<asrwt>0</asrwt>
<pdfrwt beam="1">  1        4 0.35155325E-02 0.12500284E+03</pdfrwt>
<pdfrwt beam="2">  1       -4 0.26300377E-01 0.12500284E+03</pdfrwt>
<totfact> 0.91183904E+03</totfact>
</mgrwt>
</event>
<event>
 5    1  0.3311405E-002  0.1249939E+03  0.7818608E-02  0.1235079E+00
         -4   -1    0    0    0  501 -0.00000000000E+00  0.00000000000E+00  0.16571353845E+03  0.16571840491E+03  0.12700000000E+01 0.  1.
          4   -1    0    0  501    0  0.00000000000E+00 -0.00000000000E+00 -0.23547672249E+02  0.23581894927E+02  0.12700000000E+01 0.  1.
         25    2    1    2    0    0  0.00000000000E+00  0.00000000000E+00  0.14216586621E+03  0.18930029984E+03  0.12499387987E+03 0.  0.
    9000005    1    3    3    0    0 -0.54998395073E+02 -0.22661744606E+02  0.42089927097E+02  0.72876197021E+02  0.10000000000E+01 0.  0.
    9000005    1    3    3    0    0  0.54998395073E+02  0.22661744606E+02  0.10007593911E+03  0.11642410282E+03  0.10000000000E+01 0.  0.
<mgrwt>
<rscale>  0 0.12499388E+03</rscale>
<asrwt>0</asrwt>
<pdfrwt beam="2">  1        4 0.36257257E-02 0.12499388E+03</pdfrwt>
<pdfrwt beam="1">  1       -4 0.25497397E-01 0.12499388E+03</pdfrwt>
<totfact> 0.91981813E+03</totfact>
</mgrwt>
</event>
<event>
 5    1  0.3311405E-002  0.1250173E+03  0.7818608E-02  0.1235042E+00
          4   -1    0    0  501    0  0.00000000000E+00  0.00000000000E+00  0.12862810793E+02  0.12925354985E+02  0.12700000000E+01 0. -1.
         -4   -1    0    0    0  501 -0.00000000000E+00 -0.00000000000E+00 -0.30296885788E+03  0.30297151969E+03  0.12700000000E+01 0. -1.
         25    2    1    2    0    0  0.00000000000E+00  0.00000000000E+00 -0.29010604709E+03  0.31589687468E+03  0.12501726631E+03 0.  0.
    9000005    1    3    3    0    0  0.27265433382E+02 -0.28809137106E+01 -0.31311782027E+01  0.27613543747E+02  0.10000000000E+01 0.  0.
    9000005    1    3    3    0    0 -0.27265433382E+02  0.28809137106E+01 -0.28697486888E+03  0.28828333093E+03  0.10000000000E+01 0.  0.
<mgrwt>
<rscale>  0 0.12501727E+03</rscale>
<asrwt>0</asrwt>
<pdfrwt beam="1">  1        4 0.19839100E-02 0.12501727E+03</pdfrwt>
<pdfrwt beam="2">  1       -4 0.46615604E-01 0.12501727E+03</pdfrwt>
<totfact> 0.73618624E+03</totfact>
</mgrwt>
</event>
<event>
 5    1  0.3311405E-002  0.1250007E+03  0.7818608E-02  0.1235068E+00
          4   -1    0    0  501    0  0.00000000000E+00  0.00000000000E+00  0.49546251971E+03  0.49546414738E+03  0.12700000000E+01 0.  1.
         -4   -1    0    0    0  501 -0.00000000000E+00 -0.00000000000E+00 -0.78313392436E+01  0.79336482370E+01  0.12700000000E+01 0.  1.
         25    2    1    2    0    0  0.00000000000E+00  0.00000000000E+00  0.48763118047E+03  0.50339779562E+03  0.12500068987E+03 0.  0.
    9000005    1    3    3    0    0 -0.14694833579E+02  0.49411713428E+02  0.38607399236E+03  0.38950171134E+03  0.10000000000E+01 0.  0.
    9000005    1    3    3    0    0  0.14694833579E+02 -0.49411713428E+02  0.10155718810E+03  0.11389608428E+03  0.10000000000E+01 0.  0.
<mgrwt>
<rscale>  0 0.12500069E+03</rscale>
<asrwt>0</asrwt>
<pdfrwt beam="1">  1        4 0.76233008E-01 0.12500069E+03</pdfrwt>
<pdfrwt beam="2">  1       -4 0.12128164E-02 0.12500069E+03</pdfrwt>
<totfact> 0.55600850E+03</totfact>
</mgrwt>
</event>
<event>
 5    1  0.3311405E-002  0.1249907E+03  0.7818608E-02  0.1235084E+00
          4   -1    0    0  501    0  0.00000000000E+00  0.00000000000E+00  0.38349787277E+01  0.40397972526E+01  0.12700000000E+01 0. -1.
         -4   -1    0    0    0  501 -0.00000000000E+00 -0.00000000000E+00 -0.99173925513E+03  0.99174006830E+03  0.12700000000E+01 0. -1.
         25    2    1    2    0    0  0.00000000000E+00  0.00000000000E+00 -0.98790427640E+03  0.99577986555E+03  0.12499072486E+03 0.  0.
    9000005    1    3    3    0    0  0.43241539359E+02  0.38519464945E+02 -0.30692829187E+03  0.31234525169E+03  0.10000000000E+01 0.  0.
    9000005    1    3    3    0    0 -0.43241539359E+02 -0.38519464945E+02 -0.68097598453E+03  0.68343461386E+03  0.10000000000E+01 0.  0.
<mgrwt>
<rscale>  0 0.12499072E+03</rscale>
<asrwt>0</asrwt>
<pdfrwt beam="1">  1        4 0.60581534E-03 0.12499072E+03</pdfrwt>
<pdfrwt beam="2">  1       -4 0.15259089E+00 0.12499072E+03</pdfrwt>
<totfact> 0.30750496E+03</totfact>
</mgrwt>
</event>
<event>
 5    1  0.3311405E-002  0.1250073E+03  0.7818608E-02  0.1235058E+00
         -4   -1    0    0    0  501 -0.00000000000E+00  0.00000000000E+00  0.11701844646E+03  0.11702533791E+03  0.12700000000E+01 0. -1.
          4   -1    0    0  501    0  0.00000000000E+00 -0.00000000000E+00 -0.33365457882E+02  0.33389619340E+02  0.12700000000E+01 0. -1.
         25    2    1    2    0    0  0.00000000000E+00  0.00000000000E+00  0.83652988580E+02  0.15041495725E+03  0.12500734725E+03 0.  0.
    9000005    1    3    3    0    0  0.51046691842E+02  0.35198600002E+02  0.32428586583E+02  0.69980850365E+02  0.10000000000E+01 0.  0.
    9000005    1    3    3    0    0 -0.51046691842E+02 -0.35198600002E+02  0.51224401997E+02  0.80434106883E+02  0.10000000000E+01 0.  0.
<mgrwt>
<rscale>  0 0.12500735E+03</rscale>
<asrwt>0</asrwt>
<pdfrwt beam="2">  1        4 0.51355361E-02 0.12500735E+03</pdfrwt>
<pdfrwt beam="1">  1       -4 0.18005227E-01 0.12500735E+03</pdfrwt>
<totfact> 0.99204643E+03</totfact>
</mgrwt>
</event>
<event>
 5    1  0.3311405E-002  0.1250030E+03  0.7818608E-02  0.1235065E+00
         -4   -1    0    0    0  501 -0.00000000000E+00  0.00000000000E+00  0.16465699902E+03  0.16466189671E+03  0.12700000000E+01 0. -1.
          4   -1    0    0  501    0  0.00000000000E+00 -0.00000000000E+00 -0.23702431348E+02  0.23736430898E+02  0.12700000000E+01 0. -1.
         25    2    1    2    0    0  0.00000000000E+00  0.00000000000E+00  0.14095456767E+03  0.18839832760E+03  0.12500295875E+03 0.  0.
    9000005    1    3    3    0    0 -0.23033663258E+02 -0.41107168270E+02  0.86090404196E+01  0.47911006075E+02  0.10000000000E+01 0.  0.
    9000005    1    3    3    0    0  0.23033663258E+02  0.41107168270E+02  0.13234552725E+03  0.14048732153E+03  0.10000000000E+01 0.  0.
<mgrwt>
<rscale>  0 0.12500296E+03</rscale>
<asrwt>0</asrwt>
<pdfrwt beam="2">  1        4 0.36495200E-02 0.12500296E+03</pdfrwt>
<pdfrwt beam="1">  1       -4 0.25334838E-01 0.12500296E+03</pdfrwt>
<totfact> 0.92120642E+03</totfact>
</mgrwt>
</event>
<event>
 5    1  0.3311405E-002  0.1250004E+03  0.7818608E-02  0.1235069E+00
          4   -1    0    0  501    0  0.00000000000E+00  0.00000000000E+00  0.45505775552E+02  0.45523494029E+02  0.12700000000E+01 0. -1.
         -4   -1    0    0    0  501 -0.00000000000E+00 -0.00000000000E+00 -0.85802130974E+02  0.85811529410E+02  0.12700000000E+01 0. -1.
         25    2    1    2    0    0  0.00000000000E+00  0.00000000000E+00 -0.40296355422E+02  0.13133502344E+03  0.12500036849E+03 0.  0.
    9000005    1    3    3    0    0 -0.41825173955E+02  0.34359427837E+02  0.12665219275E+02  0.55599669396E+02  0.10000000000E+01 0.  0.
    9000005    1    3    3    0    0  0.41825173955E+02 -0.34359427837E+02 -0.52961574697E+02  0.75735354043E+02  0.10000000000E+01 0.  0.
<mgrwt>
<rscale>  0 0.12500037E+03</rscale>
<asrwt>0</asrwt>
<pdfrwt beam="1">  1        4 0.70029745E-02 0.12500037E+03</pdfrwt>
<pdfrwt beam="2">  1       -4 0.13202414E-01 0.12500037E+03</pdfrwt>
<totfact> 0.10315827E+04</totfact>
</mgrwt>
</event>
<event>
 5    1  0.3311405E-002  0.1250279E+03  0.7818608E-02  0.1235026E+00
          4   -1    0    0  501    0  0.00000000000E+00  0.00000000000E+00  0.20860392879E+03  0.20860779469E+03  0.12700000000E+01 0.  1.
         -4   -1    0    0    0  501 -0.00000000000E+00 -0.00000000000E+00 -0.18708458067E+02  0.18751514692E+02  0.12700000000E+01 0.  1.
         25    2    1    2    0    0  0.00000000000E+00  0.00000000000E+00  0.18989547072E+03  0.22735930939E+03  0.12502785995E+03 0.  0.
    9000005    1    3    3    0    0 -0.44188216466E+01  0.58518550281E+02  0.55817053447E+02  0.80996852823E+02  0.10000000000E+01 0.  0.
    9000005    1    3    3    0    0  0.44188216466E+01 -0.58518550281E+02  0.13407841728E+03  0.14636245656E+03  0.10000000000E+01 0.  0.
<mgrwt>
<rscale>  0 0.12502786E+03</rscale>
<asrwt>0</asrwt>
<pdfrwt beam="1">  1        4 0.32096519E-01 0.12502786E+03</pdfrwt>
<pdfrwt beam="2">  1       -4 0.28818339E-02 0.12502786E+03</pdfrwt>
<totfact> 0.85663463E+03</totfact>
</mgrwt>
</event>
<event>
 5    1  0.3311405E-002  0.1249905E+03  0.7818608E-02  0.1235084E+00
          4   -1    0    0  501    0  0.00000000000E+00  0.00000000000E+00  0.59788675990E+03  0.59788810873E+03  0.12700000000E+01 0.  1.
         -4   -1    0    0    0  501 -0.00000000000E+00 -0.00000000000E+00 -0.64693419320E+01  0.65928207191E+01  0.12700000000E+01 0.  1.
         25    2    1    2    0    0  0.00000000000E+00  0.00000000000E+00  0.59141741797E+03  0.60448092945E+03  0.12499052682E+03 0.  0.
    9000005    1    3    3    0    0  0.40259485491E+02 -0.75401756708E+01  0.67483600208E+02  0.78947556759E+02  0.10000000000E+01 0.  0.
    9000005    1    3    3    0    0 -0.40259485491E+02  0.75401756708E+01  0.52393381776E+03  0.52553337269E+03  0.10000000000E+01 0.  0.
<mgrwt>
<rscale>  0 0.12499053E+03</rscale>
<asrwt>0</asrwt>
<pdfrwt beam="1">  1        4 0.91992201E-01 0.12499053E+03</pdfrwt>
<pdfrwt beam="2">  1       -4 0.10048853E-02 0.12499053E+03</pdfrwt>
<totfact> 0.48596061E+03</totfact>
</mgrwt>
</event>
<event>
 5    1  0.3311405E-002  0.1250043E+03  0.7818608E-02  0.1235062E+00
          4   -1    0    0  501    0  0.00000000000E+00  0.00000000000E+00  0.74227536168E+02  0.74238399940E+02  0.12700000000E+01 0. -1.
         -4   -1    0    0    0  501 -0.00000000000E+00 -0.00000000000E+00 -0.52606631498E+02  0.52621959081E+02  0.12700000000E+01 0. -1.
         25    2    1    2    0    0  0.00000000000E+00  0.00000000000E+00  0.21620904670E+02  0.12686035902E+03  0.12500434861E+03 0.  0.
    9000005    1    3    3    0    0  0.20759730098E+02 -0.54750421723E+02  0.32973819858E+02  0.67207498604E+02  0.10000000000E+01 0.  0.
    9000005    1    3    3    0    0 -0.20759730098E+02  0.54750421723E+02 -0.11352915188E+02  0.59652860417E+02  0.10000000000E+01 0.  0.
<mgrwt>
<rscale>  0 0.12500435E+03</rscale>
<asrwt>0</asrwt>
<pdfrwt beam="1">  1        4 0.11421636E-01 0.12500435E+03</pdfrwt>
<pdfrwt beam="2">  1       -4 0.80953427E-02 0.12500435E+03</pdfrwt>
<totfact> 0.10411159E+04</totfact>
</mgrwt>
</event>
<event>
 5    1  0.3311405E-002  0.1250108E+03  0.7818608E-02  0.1235052E+00
         -4   -1    0    0    0  501 -0.00000000000E+00  0.00000000000E+00  0.46404687913E+01  0.48111173965E+01  0.12700000000E+01 0. -1.
          4   -1    0    0  501    0  0.00000000000E+00 -0.00000000000E+00 -0.82655220703E+03  0.82655318271E+03  0.12700000000E+01 0. -1.
         25    2    1    2    0    0  0.00000000000E+00  0.00000000000E+00 -0.82191173824E+03  0.83136430011E+03  0.12501077568E+03 0.  0.
    9000005    1    3    3    0    0 -0.36310872423E+02  0.48773409604E+02 -0.50700635878E+03  0.51064055145E+03  0.10000000000E+01 0.  0.
    9000005    1    3    3    0    0  0.36310872423E+02 -0.48773409604E+02 -0.31490537947E+03  0.32072374866E+03  0.10000000000E+01 0.  0.
<mgrwt>
<rscale>  0 0.12501078E+03</rscale>
<asrwt>0</asrwt>
<pdfrwt beam="2">  1        4 0.12717497E+00 0.12501078E+03</pdfrwt>
<pdfrwt beam="1">  1       -4 0.72712080E-03 0.12501078E+03</pdfrwt>
<totfact> 0.36893627E+03</totfact>
</mgrwt>
</event>
<event>
 5    1  0.3311405E-002  0.1249968E+03  0.7818608E-02  0.1235074E+00
         -4   -1    0    0    0  501 -0.00000000000E+00  0.00000000000E+00  0.14628100595E+03  0.14628651886E+03  0.12700000000E+01 0.  1.
          4   -1    0    0  501    0  0.00000000000E+00 -0.00000000000E+00 -0.26681250952E+02  0.26711459196E+02  0.12700000000E+01 0.  1.
         25    2    1    2    0    0  0.00000000000E+00  0.00000000000E+00  0.11959975499E+03  0.17299797806E+03  0.12499679603E+03 0.  0.
    9000005    1    3    3    0    0 -0.29893861612E+02  0.19965962314E+02 -0.10944592771E+02  0.37590779775E+02  0.10000000000E+01 0.  0.
    9000005    1    3    3    0    0  0.29893861612E+02 -0.19965962314E+02  0.13054434776E+03  0.13540719828E+03  0.10000000000E+01 0.  0.
<mgrwt>
<rscale>  0 0.12499680E+03</rscale>
<asrwt>0</asrwt>
<pdfrwt beam="2">  1        4 0.41075556E-02 0.12499680E+03</pdfrwt>
<pdfrwt beam="1">  1       -4 0.22507518E-01 0.12499680E+03</pdfrwt>
<totfact> 0.94899612E+03</totfact>
</mgrwt>
</event>
<event>
 5    1  0.3311405E-002  0.1249994E+03  0.7818608E-02  0.1235070E+00
          4   -1    0    0  501    0  0.00000000000E+00  0.00000000000E+00  0.30177917326E+02  0.30204628687E+02  0.12700000000E+01 0.  1.
         -4   -1    0    0    0  501 -0.00000000000E+00 -0.00000000000E+00 -0.12935234133E+03  0.12935857570E+03  0.12700000000E+01 0.  1.
         25    2    1    2    0    0  0.00000000000E+00  0.00000000000E+00 -0.99174424004E+02  0.15956320439E+03  0.12499939927E+03 0.  0.
    9000005    1    3    3    0    0  0.59157501998E+02  0.54411361661E+01 -0.74339576700E+02  0.95166110929E+02  0.10000000000E+01 0.  0.
    9000005    1    3    3    0    0 -0.59157501998E+02 -0.54411361661E+01 -0.24834847303E+02  0.64397093459E+02  0.10000000000E+01 0.  0.
<mgrwt>
<rscale>  0 0.12499940E+03</rscale>
<asrwt>0</asrwt>
<pdfrwt beam="1">  1        4 0.46452909E-02 0.12499940E+03</pdfrwt>
<pdfrwt beam="2">  1       -4 0.19902894E-01 0.12499940E+03</pdfrwt>
<totfact> 0.97428377E+03</totfact>
</mgrwt>
</event>
<event>
 5    1  0.3311405E-002  0.1250037E+03  0.7818608E-02  0.1235063E+00
          4   -1    0    0  501    0  0.00000000000E+00  0.00000000000E+00  0.13958580276E+03  0.13959158009E+03  0.12700000000E+01 0.  1.
         -4   -1    0    0    0  501 -0.00000000000E+00 -0.00000000000E+00 -0.27965487014E+02  0.27994309492E+02  0.12700000000E+01 0.  1.
         25    2    1    2    0    0  0.00000000000E+00  0.00000000000E+00  0.11162031575E+03  0.16758588958E+03  0.12500374194E+03 0.  0.
    9000005    1    3    3    0    0 -0.43609706377E+02  0.16637288806E+02  0.11152171082E+03  0.12089953620E+03  0.10000000000E+01 0.  0.
    9000005    1    3    3    0    0  0.43609706377E+02 -0.16637288806E+02  0.98604924487E-01  0.46686353381E+02  0.10000000000E+01 0.  0.
<mgrwt>
<rscale>  0 0.12500374E+03</rscale>
<asrwt>0</asrwt>
<pdfrwt beam="1">  1        4 0.21477401E-01 0.12500374E+03</pdfrwt>
<pdfrwt beam="2">  1       -4 0.43050441E-02 0.12500374E+03</pdfrwt>
<totfact> 0.95891836E+03</totfact>
</mgrwt>
</event>
<event>
 5    1  0.3311405E-002  0.1250117E+03  0.7818608E-02  0.1235051E+00
          4   -1    0    0  501    0  0.00000000000E+00  0.00000000000E+00  0.70874718536E+01  0.72003581353E+01  0.12700000000E+01 0.  1.
         -4   -1    0    0    0  501 -0.00000000000E+00 -0.00000000000E+00 -0.54678316145E+03  0.54678463635E+03  0.12700000000E+01 0.  1.
         25    2    1    2    0    0  0.00000000000E+00  0.00000000000E+00 -0.53969568960E+03  0.55398499449E+03  0.12501174642E+03 0.  0.
    9000005    1    3    3    0    0  0.28624623795E+01 -0.17234359773E+02 -0.53576399173E+03  0.53604969143E+03  0.10000000000E+01 0.  0.
    9000005    1    3    3    0    0 -0.28624623795E+01  0.17234359773E+02 -0.39316978730E+01  0.17935303059E+02  0.10000000000E+01 0.  0.
<mgrwt>
<rscale>  0 0.12501175E+03</rscale>
<asrwt>0</asrwt>
<pdfrwt beam="1">  1        4 0.10991777E-02 0.12501175E+03</pdfrwt>
<pdfrwt beam="2">  1       -4 0.84129251E-01 0.12501175E+03</pdfrwt>
<totfact> 0.51893928E+03</totfact>
</mgrwt>
</event>
<event>
 5    1  0.3311405E-002  0.1250049E+03  0.7818608E-02  0.1235062E+00
          4   -1    0    0  501    0  0.00000000000E+00  0.00000000000E+00  0.15811573547E+02  0.15862495328E+02  0.12700000000E+01 0.  1.
         -4   -1    0    0    0  501 -0.00000000000E+00 -0.00000000000E+00 -0.24661950768E+03  0.24662277767E+03  0.12700000000E+01 0.  1.
         25    2    1    2    0    0  0.00000000000E+00  0.00000000000E+00 -0.23080793413E+03  0.26248527300E+03  0.12500486424E+03 0.  0.
    9000005    1    3    3    0    0 -0.26887987910E+02  0.49723316394E+02 -0.59445882625E+02  0.82037705040E+02  0.10000000000E+01 0.  0.
    9000005    1    3    3    0    0  0.26887987910E+02 -0.49723316394E+02 -0.17136205150E+03  0.18044756796E+03  0.10000000000E+01 0.  0.
<mgrwt>
<rscale>  0 0.12500486E+03</rscale>
<asrwt>0</asrwt>
<pdfrwt beam="1">  1        4 0.24367186E-02 0.12500486E+03</pdfrwt>
<pdfrwt beam="2">  1       -4 0.37945628E-01 0.12500486E+03</pdfrwt>
<totfact> 0.80549829E+03</totfact>
</mgrwt>
</event>
<event>
 5    1  0.3311405E-002  0.1250018E+03  0.7818608E-02  0.1235066E+00
          4   -1    0    0  501    0  0.00000000000E+00  0.00000000000E+00  0.17295325854E+02  0.17341891373E+02  0.12700000000E+01 0. -1.
         -4   -1    0    0    0  501 -0.00000000000E+00 -0.00000000000E+00 -0.22551041781E+03  0.22551399389E+03  0.12700000000E+01 0. -1.
         25    2    1    2    0    0  0.00000000000E+00  0.00000000000E+00 -0.20821509195E+03  0.24285588526E+03  0.12500182594E+03 0.  0.
    9000005    1    3    3    0    0 -0.22311570728E+02  0.19495742581E+02 -0.21100626064E+03  0.21307869953E+03  0.10000000000E+01 0.  0.
    9000005    1    3    3    0    0  0.22311570728E+02 -0.19495742581E+02  0.27911686848E+01  0.29777185726E+02  0.10000000000E+01 0.  0.
<mgrwt>
<rscale>  0 0.12500183E+03</rscale>
<asrwt>0</asrwt>
<pdfrwt beam="1">  1        4 0.26646766E-02 0.12500183E+03</pdfrwt>
<pdfrwt beam="2">  1       -4 0.34697765E-01 0.12500183E+03</pdfrwt>
<totfact> 0.83370472E+03</totfact>
</mgrwt>
</event>
<event>
 5    1  0.3311405E-002  0.1250033E+03  0.7818608E-02  0.1235064E+00
          4   -1    0    0  501    0  0.00000000000E+00  0.00000000000E+00  0.14966249764E+02  0.15020037683E+02  0.12700000000E+01 0. -1.
         -4   -1    0    0    0  501 -0.00000000000E+00 -0.00000000000E+00 -0.26049430454E+03  0.26049740037E+03  0.12700000000E+01 0. -1.
         25    2    1    2    0    0  0.00000000000E+00  0.00000000000E+00 -0.24552805478E+03  0.27551743805E+03  0.12500333190E+03 0.  0.
    9000005    1    3    3    0    0 -0.38129750436E+02  0.46744417753E-01 -0.13632463908E+02  0.40505852978E+02  0.10000000000E+01 0.  0.
    9000005    1    3    3    0    0  0.38129750436E+02 -0.46744417753E-01 -0.23189559087E+03  0.23501158507E+03  0.10000000000E+01 0.  0.
<mgrwt>
<rscale>  0 0.12500333E+03</rscale>
<asrwt>0</asrwt>
<pdfrwt beam="1">  1        4 0.23068758E-02 0.12500333E+03</pdfrwt>
<pdfrwt beam="2">  1       -4 0.40080419E-01 0.12500333E+03</pdfrwt>
<totfact> 0.78770405E+03</totfact>
</mgrwt>
</event>
<event>
 5    1  0.3311405E-002  0.1249997E+03  0.7818608E-02  0.1235070E+00
          4   -1    0    0  501    0  0.00000000000E+00  0.00000000000E+00  0.51208814427E+02  0.51224560271E+02  0.12700000000E+01 0. -1.
         -4   -1    0    0    0  501 -0.00000000000E+00 -0.00000000000E+00 -0.76247701926E+02  0.76258277905E+02  0.12700000000E+01 0. -1.
         25    2    1    2    0    0  0.00000000000E+00  0.00000000000E+00 -0.25038887499E+02  0.12748283818E+03  0.12499971257E+03 0.  0.
    9000005    1    3    3    0    0 -0.56046487489E+02 -0.15031906189E+02  0.11137580220E+02  0.59094946118E+02  0.10000000000E+01 0.  0.
    9000005    1    3    3    0    0  0.56046487489E+02  0.15031906189E+02 -0.36176467719E+02  0.68387892058E+02  0.10000000000E+01 0.  0.
<mgrwt>
<rscale>  0 0.12499971E+03</rscale>
<asrwt>0</asrwt>
<pdfrwt beam="1">  1        4 0.78803039E-02 0.12499971E+03</pdfrwt>
<pdfrwt beam="2">  1       -4 0.11732440E-01 0.12499971E+03</pdfrwt>
<totfact> 0.10398740E+04</totfact>
</mgrwt>
</event>
<event>
 5    1  0.3311405E-002  0.1250003E+03  0.7818608E-02  0.1235069E+00
          4   -1    0    0  501    0  0.00000000000E+00  0.00000000000E+00  0.10209259475E+03  0.10210049364E+03  0.12700000000E+01 0. -1.
         -4   -1    0    0    0  501 -0.00000000000E+00 -0.00000000000E+00 -0.38242091386E+02  0.38263173595E+02  0.12700000000E+01 0. -1.
         25    2    1    2    0    0  0.00000000000E+00  0.00000000000E+00  0.63850503363E+02  0.14036366724E+03  0.12500028921E+03 0.  0.
    9000005    1    3    3    0    0  0.10392985280E+02 -0.61620582286E+02  0.31479228676E+02  0.69978940706E+02  0.10000000000E+01 0.  0.
    9000005    1    3    3    0    0 -0.10392985280E+02  0.61620582286E+02  0.32371274686E+02  0.70384726533E+02  0.10000000000E+01 0.  0.
<mgrwt>
<rscale>  0 0.12500029E+03</rscale>
<asrwt>0</asrwt>
<pdfrwt beam="1">  1        4 0.15708782E-01 0.12500029E+03</pdfrwt>
<pdfrwt beam="2">  1       -4 0.58856281E-02 0.12500029E+03</pdfrwt>
<totfact> 0.10125988E+04</totfact>
</mgrwt>
</event>
<event>
 5    1  0.3311405E-002  0.1250040E+03  0.7818608E-02  0.1235063E+00
          4   -1    0    0  501    0  0.00000000000E+00  0.00000000000E+00  0.12904952954E+03  0.12905577854E+03  0.12700000000E+01 0. -1.
         -4   -1    0    0    0  501 -0.00000000000E+00 -0.00000000000E+00 -0.30251036221E+02  0.30277683076E+02  0.12700000000E+01 0. -1.
         25    2    1    2    0    0  0.00000000000E+00  0.00000000000E+00  0.98798493319E+02  0.15933346162E+03  0.12500403877E+03 0.  0.
    9000005    1    3    3    0    0  0.54540535151E+02  0.25037276365E+02  0.27176571391E+02  0.65887033739E+02  0.10000000000E+01 0.  0.
    9000005    1    3    3    0    0 -0.54540535151E+02 -0.25037276365E+02  0.71621921928E+02  0.93446427877E+02  0.10000000000E+01 0.  0.
<mgrwt>
<rscale>  0 0.12500404E+03</rscale>
<asrwt>0</asrwt>
<pdfrwt beam="1">  1        4 0.19856304E-01 0.12500404E+03</pdfrwt>
<pdfrwt beam="2">  1       -4 0.46565361E-02 0.12500404E+03</pdfrwt>
<totfact> 0.97462594E+03</totfact>
</mgrwt>
</event>
<event>
 5    1  0.3311405E-002  0.1250003E+03  0.7818608E-02  0.1235069E+00
         -4   -1    0    0    0  501 -0.00000000000E+00  0.00000000000E+00  0.36751280677E+03  0.36751500111E+03  0.12700000000E+01 0. -1.
          4   -1    0    0  501    0  0.00000000000E+00 -0.00000000000E+00 -0.10588759529E+02  0.10664648534E+02  0.12700000000E+01 0. -1.
         25    2    1    2    0    0  0.00000000000E+00  0.00000000000E+00  0.35692404724E+03  0.37817964964E+03  0.12500028762E+03 0.  0.
    9000005    1    3    3    0    0  0.26051185802E+02 -0.42800344544E+02  0.29145016592E+03  0.29572746405E+03  0.10000000000E+01 0.  0.
    9000005    1    3    3    0    0 -0.26051185802E+02  0.42800344544E+02  0.65473881319E+02  0.82452185597E+02  0.10000000000E+01 0.  0.
<mgrwt>
<rscale>  0 0.12500029E+03</rscale>
<asrwt>0</asrwt>
<pdfrwt beam="2">  1        4 0.16350463E-02 0.12500029E+03</pdfrwt>
<pdfrwt beam="1">  1       -4 0.56546440E-01 0.12500029E+03</pdfrwt>
<totfact> 0.66731360E+03</totfact>
</mgrwt>
</event>
<event>
 5    1  0.3311405E-002  0.1249954E+03  0.7818608E-02  0.1235076E+00
          4   -1    0    0  501    0  0.00000000000E+00  0.00000000000E+00  0.65627608165E+01  0.66845141584E+01  0.12700000000E+01 0.  1.
         -4   -1    0    0    0  501 -0.00000000000E+00 -0.00000000000E+00 -0.58957800647E+03  0.58957937432E+03  0.12700000000E+01 0.  1.
         25    2    1    2    0    0  0.00000000000E+00  0.00000000000E+00 -0.58301524566E+03  0.59626388847E+03  0.12499539203E+03 0.  0.
    9000005    1    3    3    0    0 -0.25959998072E+02 -0.17086303973E+02 -0.32893884552E+02  0.45264455418E+02  0.10000000000E+01 0.  0.
    9000005    1    3    3    0    0  0.25959998072E+02  0.17086303973E+02 -0.55012136111E+03  0.55099943306E+03  0.10000000000E+01 0.  0.
<mgrwt>
<rscale>  0 0.12499539E+03</rscale>
<asrwt>0</asrwt>
<pdfrwt beam="1">  1        4 0.10191268E-02 0.12499539E+03</pdfrwt>
<pdfrwt beam="2">  1       -4 0.90713738E-01 0.12499539E+03</pdfrwt>
<totfact> 0.49109276E+03</totfact>
</mgrwt>
</event>
<event>
 5    1  0.3311405E-002  0.1250050E+03  0.7818608E-02  0.1235061E+00
         -4   -1    0    0    0  501 -0.00000000000E+00  0.00000000000E+00  0.18928234627E+02  0.18970792448E+02  0.12700000000E+01 0.  1.
          4   -1    0    0  501    0  0.00000000000E+00 -0.00000000000E+00 -0.20611181487E+03  0.20611572752E+03  0.12700000000E+01 0.  1.
         25    2    1    2    0    0  0.00000000000E+00  0.00000000000E+00 -0.18718358024E+03  0.22508651996E+03  0.12500499493E+03 0.  0.
    9000005    1    3    3    0    0 -0.44621450730E+02  0.33478272255E+02 -0.42863694136E+02  0.70357407950E+02  0.10000000000E+01 0.  0.
    9000005    1    3    3    0    0  0.44621450730E+02 -0.33478272255E+02 -0.14431988611E+03  0.15472911201E+03  0.10000000000E+01 0.  0.
<mgrwt>
<rscale>  0 0.12500499E+03</rscale>
<asrwt>0</asrwt>
<pdfrwt beam="2">  1        4 0.31713083E-01 0.12500499E+03</pdfrwt>
<pdfrwt beam="1">  1       -4 0.29156109E-02 0.12500499E+03</pdfrwt>
<totfact> 0.86060222E+03</totfact>
</mgrwt>
</event>
<event>
 5    1  0.3311405E-002  0.1250008E+03  0.7818608E-02  0.1235068E+00
         -4   -1    0    0    0  501 -0.00000000000E+00  0.00000000000E+00  0.68588062744E+03  0.68588180322E+03  0.12700000000E+01 0. -1.
          4   -1    0    0  501    0  0.00000000000E+00 -0.00000000000E+00 -0.56233149209E+01  0.57649432521E+01  0.12700000000E+01 0. -1.
         25    2    1    2    0    0  0.00000000000E+00  0.00000000000E+00  0.68025731252E+03  0.69164674648E+03  0.12500084271E+03 0.  0.
    9000005    1    3    3    0    0  0.18358523590E+02 -0.52434702605E+02  0.49846429462E+03  0.50155167873E+03  0.10000000000E+01 0.  0.
    9000005    1    3    3    0    0 -0.18358523590E+02  0.52434702605E+02  0.18179301790E+03  0.19009506775E+03  0.10000000000E+01 0.  0.
<mgrwt>
<rscale>  0 0.12500084E+03</rscale>
<asrwt>0</asrwt>
<pdfrwt beam="2">  1        4 0.87611014E-03 0.12500084E+03</pdfrwt>
<pdfrwt beam="1">  1       -4 0.10553110E+00 0.12500084E+03</pdfrwt>
<totfact> 0.43530519E+03</totfact>
</mgrwt>
</event>
<event>
 5    1  0.3311405E-002  0.1250140E+03  0.7818608E-02  0.1235047E+00
         -4   -1    0    0    0  501 -0.00000000000E+00  0.00000000000E+00  0.15133597821E+03  0.15134130699E+03  0.12700000000E+01 0. -1.
          4   -1    0    0  501    0  0.00000000000E+00 -0.00000000000E+00 -0.25796141959E+02  0.25827385465E+02  0.12700000000E+01 0. -1.
         25    2    1    2    0    0  0.00000000000E+00  0.00000000000E+00  0.12553983625E+03  0.17716869246E+03  0.12501397962E+03 0.  0.
    9000005    1    3    3    0    0 -0.42924827360E+01  0.39525613328E+02 -0.55707938228E+01  0.40158850342E+02  0.10000000000E+01 0.  0.
    9000005    1    3    3    0    0  0.42924827360E+01 -0.39525613328E+02  0.13111063008E+03  0.13700984211E+03  0.10000000000E+01 0.  0.
<mgrwt>
<rscale>  0 0.12501398E+03</rscale>
<asrwt>0</asrwt>
<pdfrwt beam="2">  1        4 0.39714506E-02 0.12501398E+03</pdfrwt>
<pdfrwt beam="1">  1       -4 0.23285271E-01 0.12501398E+03</pdfrwt>
<totfact> 0.94099637E+03</totfact>
</mgrwt>
</event>
<event>
 5    1  0.3311405E-002  0.1250119E+03  0.7818608E-02  0.1235051E+00
         -4   -1    0    0    0  501 -0.00000000000E+00  0.00000000000E+00  0.45945646384E+01  0.47668568488E+01  0.12700000000E+01 0. -1.
          4   -1    0    0  501    0  0.00000000000E+00 -0.00000000000E+00 -0.83452834031E+03  0.83452930667E+03  0.12700000000E+01 0. -1.
         25    2    1    2    0    0  0.00000000000E+00  0.00000000000E+00 -0.82993377567E+03  0.83929616352E+03  0.12501191178E+03 0.  0.
    9000005    1    3    3    0    0 -0.53250764376E+02  0.29134049130E+02 -0.31503424811E+03  0.32083019528E+03  0.10000000000E+01 0.  0.
    9000005    1    3    3    0    0  0.53250764376E+02 -0.29134049130E+02 -0.51489952757E+03  0.51846596823E+03  0.10000000000E+01 0.  0.
<mgrwt>
<rscale>  0 0.12501191E+03</rscale>
<asrwt>0</asrwt>
<pdfrwt beam="2">  1        4 0.12840218E+00 0.12501191E+03</pdfrwt>
<pdfrwt beam="1">  1       -4 0.72018435E-03 0.12501191E+03</pdfrwt>
<totfact> 0.36559903E+03</totfact>
</mgrwt>
</event>
<event>
 5    1  0.3311405E-002  0.1250014E+03  0.7818608E-02  0.1235067E+00
         -4   -1    0    0    0  501 -0.00000000000E+00  0.00000000000E+00  0.19748284907E+01  0.23479453928E+01  0.12700000000E+01 0. -1.
          4   -1    0    0  501    0  0.00000000000E+00 -0.00000000000E+00 -0.18069561544E+04  0.18069566007E+04  0.12700000000E+01 0. -1.
         25    2    1    2    0    0  0.00000000000E+00  0.00000000000E+00 -0.18049813259E+04  0.18093045461E+04  0.12500141456E+03 0.  0.
    9000005    1    3    3    0    0  0.55037115596E+02  0.58965749507E+01 -0.48261581055E+03  0.48578068537E+03  0.10000000000E+01 0.  0.
    9000005    1    3    3    0    0 -0.55037115596E+02 -0.58965749507E+01 -0.13223655154E+04  0.13235238607E+04  0.10000000000E+01 0.  0.
<mgrwt>
<rscale>  0 0.12500141E+03</rscale>
<asrwt>0</asrwt>
<pdfrwt beam="2">  1        4 0.27802078E+00 0.12500141E+03</pdfrwt>
<pdfrwt beam="1">  1       -4 0.33255684E-03 0.12500141E+03</pdfrwt>
<totfact> 0.12560417E+03</totfact>
</mgrwt>
</event>
<event>
 5    1  0.3311405E-002  0.1249905E+03  0.7818608E-02  0.1235084E+00
          4   -1    0    0  501    0  0.00000000000E+00  0.00000000000E+00  0.62174538342E+02  0.62187507733E+02  0.12700000000E+01 0. -1.
         -4   -1    0    0    0  501 -0.00000000000E+00 -0.00000000000E+00 -0.62791711242E+02  0.62804553184E+02  0.12700000000E+01 0. -1.
         25    2    1    2    0    0  0.00000000000E+00  0.00000000000E+00 -0.61717290018E+00  0.12499206092E+03  0.12499053720E+03 0.  0.
    9000005    1    3    3    0    0 -0.48316388280E+02  0.25677121648E+02 -0.30489587979E+02  0.62645055093E+02  0.10000000000E+01 0.  0.
    9000005    1    3    3    0    0  0.48316388280E+02 -0.25677121648E+02  0.29872415079E+02  0.62347005824E+02  0.10000000000E+01 0.  0.
<mgrwt>
<rscale>  0 0.12499054E+03</rscale>
<asrwt>0</asrwt>
<pdfrwt beam="1">  1        4 0.95672991E-02 0.12499054E+03</pdfrwt>
<pdfrwt beam="2">  1       -4 0.96622487E-02 0.12499054E+03</pdfrwt>
<totfact> 0.10455271E+04</totfact>
</mgrwt>
</event>
<event>
 5    1  0.3311405E-002  0.1249999E+03  0.7818608E-02  0.1235069E+00
         -4   -1    0    0    0  501 -0.00000000000E+00  0.00000000000E+00  0.99878726984E+01  0.10068291863E+02  0.12700000000E+01 0.  1.
          4   -1    0    0  501    0  0.00000000000E+00 -0.00000000000E+00 -0.38944922312E+03  0.38945129386E+03  0.12700000000E+01 0.  1.
         25    2    1    2    0    0  0.00000000000E+00  0.00000000000E+00 -0.37946135042E+03  0.39951958573E+03  0.12499993165E+03 0.  0.
    9000005    1    3    3    0    0  0.26913410891E+02 -0.49175070079E+02 -0.27800059341E+03  0.28359804149E+03  0.10000000000E+01 0.  0.
    9000005    1    3    3    0    0 -0.26913410891E+02  0.49175070079E+02 -0.10146075702E+03  0.11592154423E+03  0.10000000000E+01 0.  0.
<mgrwt>
<rscale>  0 0.12499993E+03</rscale>
<asrwt>0</asrwt>
<pdfrwt beam="2">  1        4 0.59921599E-01 0.12499993E+03</pdfrwt>
<pdfrwt beam="1">  1       -4 0.15429415E-02 0.12499993E+03</pdfrwt>
<totfact> 0.64599643E+03</totfact>
</mgrwt>
</event>
<event>
 5    1  0.3311405E-002  0.1249995E+03  0.7818608E-02  0.1235070E+00
          4   -1    0    0  501    0  0.00000000000E+00  0.00000000000E+00  0.33062262276E+02  0.33086645143E+02  0.12700000000E+01 0.  1.
         -4   -1    0    0    0  501 -0.00000000000E+00 -0.00000000000E+00 -0.11807606117E+03  0.11808289089E+03  0.12700000000E+01 0.  1.
         25    2    1    2    0    0  0.00000000000E+00  0.00000000000E+00 -0.85013798893E+02  0.15116953603E+03  0.12499953049E+03 0.  0.
    9000005    1    3    3    0    0 -0.47492120799E+02  0.36498541597E+02 -0.64058495960E+02  0.87704823022E+02  0.10000000000E+01 0.  0.
    9000005    1    3    3    0    0  0.47492120799E+02 -0.36498541597E+02 -0.20955302933E+02  0.63464713012E+02  0.10000000000E+01 0.  0.
<mgrwt>
<rscale>  0 0.12499953E+03</rscale>
<asrwt>0</asrwt>
<pdfrwt beam="1">  1        4 0.50889029E-02 0.12499953E+03</pdfrwt>
<pdfrwt beam="2">  1       -4 0.18167949E-01 0.12499953E+03</pdfrwt>
<totfact> 0.99072125E+03</totfact>
</mgrwt>
</event>
<event>
 5    1  0.3311405E-002  0.1250012E+03  0.7818608E-02  0.1235067E+00
         -4   -1    0    0    0  501 -0.00000000000E+00  0.00000000000E+00  0.69321344209E+02  0.69332976735E+02  0.12700000000E+01 0. -1.
          4   -1    0    0  501    0  0.00000000000E+00 -0.00000000000E+00 -0.56327411165E+02  0.56341726531E+02  0.12700000000E+01 0. -1.
         25    2    1    2    0    0  0.00000000000E+00  0.00000000000E+00  0.12993933044E+02  0.12567470327E+03  0.12500115497E+03 0.  0.
    9000005    1    3    3    0    0 -0.11969514875E+02  0.85249559806E+01 -0.54570572845E+02  0.56523371993E+02  0.10000000000E+01 0.  0.
    9000005    1    3    3    0    0  0.11969514875E+02 -0.85249559806E+01  0.67564505889E+02  0.69151331273E+02  0.10000000000E+01 0.  0.
<mgrwt>
<rscale>  0 0.12500115E+03</rscale>
<asrwt>0</asrwt>
<pdfrwt beam="2">  1        4 0.86677516E-02 0.12500115E+03</pdfrwt>
<pdfrwt beam="1">  1       -4 0.10666818E-01 0.12500115E+03</pdfrwt>
<totfact> 0.10437829E+04</totfact>
</mgrwt>
</event>
<event>
 5    1  0.3311405E-002  0.1249994E+03  0.7818608E-02  0.1235070E+00
         -4   -1    0    0    0  501 -0.00000000000E+00  0.00000000000E+00  0.13837660230E+03  0.13838243011E+03  0.12700000000E+01 0.  1.
          4   -1    0    0  501    0  0.00000000000E+00 -0.00000000000E+00 -0.28208141920E+02  0.28236716710E+02  0.12700000000E+01 0.  1.
         25    2    1    2    0    0  0.00000000000E+00  0.00000000000E+00  0.11016846038E+03  0.16661914682E+03  0.12499940170E+03 0.  0.
    9000005    1    3    3    0    0  0.34330342096E+01 -0.55790447424E+02  0.92332111461E+02  0.10793784579E+03  0.10000000000E+01 0.  0.
    9000005    1    3    3    0    0 -0.34330342096E+01  0.55790447424E+02  0.17836348917E+02  0.58681301028E+02  0.10000000000E+01 0.  0.
<mgrwt>
<rscale>  0 0.12499940E+03</rscale>
<asrwt>0</asrwt>
<pdfrwt beam="2">  1        4 0.43423604E-02 0.12499940E+03</pdfrwt>
<pdfrwt beam="1">  1       -4 0.21291355E-01 0.12499940E+03</pdfrwt>
<totfact> 0.96082918E+03</totfact>
</mgrwt>
</event>
<event>
 5    1  0.3311405E-002  0.1249999E+03  0.7818608E-02  0.1235069E+00
         -4   -1    0    0    0  501 -0.00000000000E+00  0.00000000000E+00  0.40712385364E+03  0.40712583448E+03  0.12700000000E+01 0. -1.
          4   -1    0    0  501    0  0.00000000000E+00 -0.00000000000E+00 -0.95506865269E+01  0.96347554787E+01  0.12700000000E+01 0. -1.
         25    2    1    2    0    0  0.00000000000E+00  0.00000000000E+00  0.39757316711E+03  0.41676058996E+03  0.12499986454E+03 0.  0.
    9000005    1    3    3    0    0 -0.27870269219E+02  0.32260189218E+02  0.35112814735E+03  0.35370813897E+03  0.10000000000E+01 0.  0.
    9000005    1    3    3    0    0  0.27870269219E+02 -0.32260189218E+02  0.46445019764E+02  0.63052450988E+02  0.10000000000E+01 0.  0.
<mgrwt>
<rscale>  0 0.12499986E+03</rscale>
<asrwt>0</asrwt>
<pdfrwt beam="2">  1        4 0.14759556E-02 0.12499986E+03</pdfrwt>
<pdfrwt beam="1">  1       -4 0.62641060E-01 0.12499986E+03</pdfrwt>
<totfact> 0.62954862E+03</totfact>
</mgrwt>
</event>
<event>
 5    1  0.3311405E-002  0.1249925E+03  0.7818608E-02  0.1235081E+00
          4   -1    0    0  501    0  0.00000000000E+00  0.00000000000E+00  0.32065083502E+02  0.32090224056E+02  0.12700000000E+01 0.  1.
         -4   -1    0    0    0  501 -0.00000000000E+00 -0.00000000000E+00 -0.12173180029E+03  0.12173842492E+03  0.12700000000E+01 0.  1.
         25    2    1    2    0    0  0.00000000000E+00  0.00000000000E+00 -0.89666716790E+02  0.15382864898E+03  0.12499253236E+03 0.  0.
    9000005    1    3    3    0    0 -0.25154195931E+01 -0.58790572380E+02 -0.70711046504E+02  0.91998428433E+02  0.10000000000E+01 0.  0.
    9000005    1    3    3    0    0  0.25154195931E+01  0.58790572380E+02 -0.18955670286E+02  0.61830220544E+02  0.10000000000E+01 0.  0.
<mgrwt>
<rscale>  0 0.12499253E+03</rscale>
<asrwt>0</asrwt>
<pdfrwt beam="1">  1        4 0.49355333E-02 0.12499253E+03</pdfrwt>
<pdfrwt beam="2">  1       -4 0.18730413E-01 0.12499253E+03</pdfrwt>
<totfact> 0.98562473E+03</totfact>
</mgrwt>
</event>
<event>
 5    1  0.3311405E-002  0.1250006E+03  0.7818608E-02  0.1235068E+00
         -4   -1    0    0    0  501 -0.00000000000E+00  0.00000000000E+00  0.75176198699E+02  0.75186925399E+02  0.12700000000E+01 0. -1.
          4   -1    0    0  501    0  0.00000000000E+00 -0.00000000000E+00 -0.51939562238E+02  0.51955086618E+02  0.12700000000E+01 0. -1.
         25    2    1    2    0    0  0.00000000000E+00  0.00000000000E+00  0.23236636461E+02  0.12714201202E+03  0.12500059978E+03 0.  0.
    9000005    1    3    3    0    0  0.25314980978E+02 -0.19846365313E+02 -0.42877148149E+02  0.53611344989E+02  0.10000000000E+01 0.  0.
    9000005    1    3    3    0    0 -0.25314980978E+02  0.19846365313E+02  0.66113784611E+02  0.73530667028E+02  0.10000000000E+01 0.  0.
<mgrwt>
<rscale>  0 0.12500060E+03</rscale>
<asrwt>0</asrwt>
<pdfrwt beam="2">  1        4 0.79927212E-02 0.12500060E+03</pdfrwt>
<pdfrwt beam="1">  1       -4 0.11567588E-01 0.12500060E+03</pdfrwt>
<totfact> 0.10405921E+04</totfact>
</mgrwt>
</event>
<event>
 5    1  0.3311405E-002  0.1249931E+03  0.7818608E-02  0.1235080E+00
         -4   -1    0    0    0  501 -0.00000000000E+00  0.00000000000E+00  0.47980961615E+02  0.47997766381E+02  0.12700000000E+01 0.  1.
          4   -1    0    0  501    0  0.00000000000E+00 -0.00000000000E+00 -0.81367479515E+02  0.81377390119E+02  0.12700000000E+01 0.  1.
         25    2    1    2    0    0  0.00000000000E+00  0.00000000000E+00 -0.33386517900E+02  0.12937515650E+03  0.12499308598E+03 0.  0.
    9000005    1    3    3    0    0  0.49520373251E+01  0.46422703789E+02 -0.59685305517E+02  0.75782094161E+02  0.10000000000E+01 0.  0.
    9000005    1    3    3    0    0 -0.49520373251E+01 -0.46422703789E+02  0.26298787617E+02  0.53593062339E+02  0.10000000000E+01 0.  0.
<mgrwt>
<rscale>  0 0.12499309E+03</rscale>
<asrwt>0</asrwt>
<pdfrwt beam="2">  1        4 0.12520129E-01 0.12499309E+03</pdfrwt>
<pdfrwt beam="1">  1       -4 0.73837415E-02 0.12499309E+03</pdfrwt>
<totfact> 0.10359509E+04</totfact>
</mgrwt>
</event>
<event>
 5    1  0.3311405E-002  0.1249900E+03  0.7818608E-02  0.1235085E+00
         -4   -1    0    0    0  501 -0.00000000000E+00  0.00000000000E+00  0.14586439158E+04  0.14586444687E+04  0.12700000000E+01 0.  1.
          4   -1    0    0  501    0  0.00000000000E+00 -0.00000000000E+00 -0.25263955765E+01  0.28276447105E+01  0.12700000000E+01 0.  1.
         25    2    1    2    0    0  0.00000000000E+00  0.00000000000E+00  0.14561175202E+04  0.14614721134E+04  0.12499002162E+03 0.  0.
    9000005    1    3    3    0    0  0.53144692949E+02 -0.26149842774E+01  0.11111498250E+04  0.11124235390E+04  0.10000000000E+01 0.  0.
    9000005    1    3    3    0    0 -0.53144692949E+02  0.26149842774E+01  0.34496769524E+03  0.34904857440E+03  0.10000000000E+01 0.  0.
<mgrwt>
<rscale>  0 0.12499002E+03</rscale>
<asrwt>0</asrwt>
<pdfrwt beam="2">  1        4 0.41189174E-03 0.12499002E+03</pdfrwt>
<pdfrwt beam="1">  1       -4 0.22442999E+00 0.12499002E+03</pdfrwt>
<totfact> 0.18703058E+03</totfact>
</mgrwt>
</event>
<event>
 5    1  0.3311405E-002  0.1250108E+03  0.7818608E-02  0.1235052E+00
          4   -1    0    0  501    0  0.00000000000E+00  0.00000000000E+00  0.14362371453E+03  0.14362932944E+03  0.12700000000E+01 0. -1.
         -4   -1    0    0    0  501 -0.00000000000E+00 -0.00000000000E+00 -0.27181520773E+02  0.27211173652E+02  0.12700000000E+01 0. -1.
         25    2    1    2    0    0  0.00000000000E+00  0.00000000000E+00  0.11644219376E+03  0.17084050310E+03  0.12501077158E+03 0.  0.
    9000005    1    3    3    0    0 -0.31302421057E+02  0.36551057387E+02  0.11271599980E+03  0.12256311831E+03  0.10000000000E+01 0.  0.
    9000005    1    3    3    0    0  0.31302421057E+02 -0.36551057387E+02  0.37261939634E+01  0.48277384784E+02  0.10000000000E+01 0.  0.
<mgrwt>
<rscale>  0 0.12501077E+03</rscale>
<asrwt>0</asrwt>
<pdfrwt beam="1">  1        4 0.22098669E-01 0.12501077E+03</pdfrwt>
<pdfrwt beam="2">  1       -4 0.41844853E-02 0.12501077E+03</pdfrwt>
<totfact> 0.95269176E+03</totfact>
</mgrwt>
</event>
<event>
 5    1  0.3311405E-002  0.1250003E+03  0.7818608E-02  0.1235069E+00
          4   -1    0    0  501    0  0.00000000000E+00  0.00000000000E+00  0.64538039845E+03  0.64538164802E+03  0.12700000000E+01 0.  1.
         -4   -1    0    0    0  501 -0.00000000000E+00 -0.00000000000E+00 -0.59847690654E+01  0.61180356951E+01  0.12700000000E+01 0.  1.
         25    2    1    2    0    0  0.00000000000E+00  0.00000000000E+00  0.63939562938E+03  0.65149968371E+03  0.12500026803E+03 0.  0.
    9000005    1    3    3    0    0  0.37963410504E+02  0.46120911822E+02  0.41536406198E+03  0.41963872918E+03  0.10000000000E+01 0.  0.
    9000005    1    3    3    0    0 -0.37963410504E+02 -0.46120911822E+02  0.22403156740E+03  0.23186095453E+03  0.10000000000E+01 0.  0.
<mgrwt>
<rscale>  0 0.12500027E+03</rscale>
<asrwt>0</asrwt>
<pdfrwt beam="1">  1        4 0.99299588E-01 0.12500027E+03</pdfrwt>
<pdfrwt beam="2">  1       -4 0.93108159E-03 0.12500027E+03</pdfrwt>
<totfact> 0.45769764E+03</totfact>
</mgrwt>
</event>
<event>
 5    1  0.3311405E-002  0.1249989E+03  0.7818608E-02  0.1235071E+00
          4   -1    0    0  501    0  0.00000000000E+00  0.00000000000E+00  0.32006810661E+02  0.32031996951E+02  0.12700000000E+01 0.  1.
         -4   -1    0    0    0  501 -0.00000000000E+00 -0.00000000000E+00 -0.12196569151E+03  0.12197230344E+03  0.12700000000E+01 0.  1.
         25    2    1    2    0    0  0.00000000000E+00  0.00000000000E+00 -0.89958880852E+02  0.15400430039E+03  0.12499889717E+03 0.  0.
    9000005    1    3    3    0    0 -0.52854964707E+02 -0.49904783050E+01 -0.85592648262E+02  0.10072563529E+03  0.10000000000E+01 0.  0.
    9000005    1    3    3    0    0  0.52854964707E+02  0.49904783050E+01 -0.43662325897E+01  0.53278665101E+02  0.10000000000E+01 0.  0.
<mgrwt>
<rscale>  0 0.12499890E+03</rscale>
<asrwt>0</asrwt>
<pdfrwt beam="1">  1        4 0.49265708E-02 0.12499890E+03</pdfrwt>
<pdfrwt beam="2">  1       -4 0.18766398E-01 0.12499890E+03</pdfrwt>
<totfact> 0.98513766E+03</totfact>
</mgrwt>
</event>
<event>
 5    1  0.3311405E-002  0.1250019E+03  0.7818608E-02  0.1235066E+00
          4   -1    0    0  501    0  0.00000000000E+00  0.00000000000E+00  0.55403912604E+01  0.56840861463E+01  0.12700000000E+01 0.  1.
         -4   -1    0    0    0  501 -0.00000000000E+00 -0.00000000000E+00 -0.69590035368E+03  0.69590151254E+03  0.12700000000E+01 0.  1.
         25    2    1    2    0    0  0.00000000000E+00  0.00000000000E+00 -0.69035996242E+03  0.70158559869E+03  0.12500189826E+03 0.  0.
    9000005    1    3    3    0    0  0.56910825387E+02  0.28039114008E+01 -0.48922433657E+03  0.49253239026E+03  0.10000000000E+01 0.  0.
    9000005    1    3    3    0    0 -0.56910825387E+02 -0.28039114008E+01 -0.20113562585E+03  0.20905320843E+03  0.10000000000E+01 0.  0.
<mgrwt>
<rscale>  0 0.12500190E+03</rscale>
<asrwt>0</asrwt>
<pdfrwt beam="1">  1        4 0.86351103E-03 0.12500190E+03</pdfrwt>
<pdfrwt beam="2">  1       -4 0.10707267E+00 0.12500190E+03</pdfrwt>
<totfact> 0.43001358E+03</totfact>
</mgrwt>
</event>
<event>
 5    1  0.3311405E-002  0.1250017E+03  0.7818608E-02  0.1235067E+00
         -4   -1    0    0    0  501 -0.00000000000E+00  0.00000000000E+00  0.37422466068E+02  0.37444009756E+02  0.12700000000E+01 0. -1.
          4   -1    0    0  501    0  0.00000000000E+00 -0.00000000000E+00 -0.10432988099E+03  0.10433761051E+03  0.12700000000E+01 0. -1.
         25    2    1    2    0    0  0.00000000000E+00  0.00000000000E+00 -0.66907414918E+02  0.14178162026E+03  0.12500170268E+03 0.  0.
    9000005    1    3    3    0    0 -0.54129008608E+02  0.20588914418E+02 -0.60090266592E+02  0.83460727944E+02  0.10000000000E+01 0.  0.
    9000005    1    3    3    0    0  0.54129008608E+02 -0.20588914418E+02 -0.68171483258E+01  0.58320892321E+02  0.10000000000E+01 0.  0.
<mgrwt>
<rscale>  0 0.12500170E+03</rscale>
<asrwt>0</asrwt>
<pdfrwt beam="2">  1        4 0.16053003E-01 0.12500170E+03</pdfrwt>
<pdfrwt beam="1">  1       -4 0.57595543E-02 0.12500170E+03</pdfrwt>
<totfact> 0.10096406E+04</totfact>
</mgrwt>
</event>
<event>
 5    1  0.3311405E-002  0.1249865E+03  0.7818608E-02  0.1235090E+00
          4   -1    0    0  501    0  0.00000000000E+00  0.00000000000E+00  0.12593406170E+03  0.12594046528E+03  0.12700000000E+01 0.  1.
         -4   -1    0    0    0  501 -0.00000000000E+00 -0.00000000000E+00 -0.30991335133E+02  0.31017346007E+02  0.12700000000E+01 0.  1.
         25    2    1    2    0    0  0.00000000000E+00  0.00000000000E+00  0.94942726564E+02  0.15695781129E+03  0.12498653206E+03 0.  0.
    9000005    1    3    3    0    0 -0.56791130215E+01  0.60508620108E+02  0.29235775356E+02  0.67448320904E+02  0.10000000000E+01 0.  0.
    9000005    1    3    3    0    0  0.56791130215E+01 -0.60508620108E+02  0.65706951208E+02  0.89509490385E+02  0.10000000000E+01 0.  0.
<mgrwt>
<rscale>  0 0.12498653E+03</rscale>
<asrwt>0</asrwt>
<pdfrwt beam="1">  1        4 0.19376964E-01 0.12498653E+03</pdfrwt>
<pdfrwt beam="2">  1       -4 0.47703912E-02 0.12498653E+03</pdfrwt>
<totfact> 0.97962184E+03</totfact>
</mgrwt>
</event>
<event>
 5    1  0.3311405E-002  0.1249948E+03  0.7818608E-02  0.1235077E+00
         -4   -1    0    0    0  501 -0.00000000000E+00  0.00000000000E+00  0.14374663400E+02  0.14430656529E+02  0.12700000000E+01 0. -1.
          4   -1    0    0  501    0  0.00000000000E+00 -0.00000000000E+00 -0.27113726307E+03  0.27114023737E+03  0.12700000000E+01 0. -1.
         25    2    1    2    0    0  0.00000000000E+00  0.00000000000E+00 -0.25676259967E+03  0.28557089390E+03  0.12499481132E+03 0.  0.
    9000005    1    3    3    0    0 -0.45033102695E+02 -0.40839074909E+02 -0.95343212408E+02  0.11308023050E+03  0.10000000000E+01 0.  0.
    9000005    1    3    3    0    0  0.45033102695E+02  0.40839074909E+02 -0.16141938726E+03  0.17249066340E+03  0.10000000000E+01 0.  0.
<mgrwt>
<rscale>  0 0.12499481E+03</rscale>
<asrwt>0</asrwt>
<pdfrwt beam="2">  1        4 0.41717957E-01 0.12499481E+03</pdfrwt>
<pdfrwt beam="1">  1       -4 0.22160228E-02 0.12499481E+03</pdfrwt>
<totfact> 0.77454128E+03</totfact>
</mgrwt>
</event>
<event>
 5    1  0.3311405E-002  0.1249949E+03  0.7818608E-02  0.1235077E+00
          4   -1    0    0  501    0  0.00000000000E+00  0.00000000000E+00  0.42888776912E+03  0.42888964945E+03  0.12700000000E+01 0. -1.
         -4   -1    0    0    0  501 -0.00000000000E+00 -0.00000000000E+00 -0.90609358874E+01  0.91495059514E+01  0.12700000000E+01 0. -1.
         25    2    1    2    0    0  0.00000000000E+00  0.00000000000E+00  0.41982683323E+03  0.43803915540E+03  0.12499492693E+03 0.  0.
    9000005    1    3    3    0    0 -0.35830162655E+02 -0.50402760042E+02  0.17843291755E+03  0.18884794106E+03  0.10000000000E+01 0.  0.
    9000005    1    3    3    0    0  0.35830162655E+02  0.50402760042E+02  0.24139391568E+03  0.24919121434E+03  0.10000000000E+01 0.  0.
<mgrwt>
<rscale>  0 0.12499493E+03</rscale>
<asrwt>0</asrwt>
<pdfrwt beam="1">  1        4 0.65989676E-01 0.12499493E+03</pdfrwt>
<pdfrwt beam="2">  1       -4 0.14009482E-02 0.12499493E+03</pdfrwt>
<totfact> 0.61020820E+03</totfact>
</mgrwt>
</event>
<event>
 5    1  0.3311405E-002  0.1249988E+03  0.7818608E-02  0.1235071E+00
          4   -1    0    0  501    0  0.00000000000E+00  0.00000000000E+00  0.22698961395E+02  0.22734461691E+02  0.12700000000E+01 0.  1.
         -4   -1    0    0    0  501 -0.00000000000E+00 -0.00000000000E+00 -0.17191363462E+03  0.17191832558E+03  0.12700000000E+01 0.  1.
         25    2    1    2    0    0  0.00000000000E+00  0.00000000000E+00 -0.14921467323E+03  0.19465278727E+03  0.12499875553E+03 0.  0.
    9000005    1    3    3    0    0 -0.10415400650E+02 -0.58769992225E+02 -0.10343851958E+03  0.11942746707E+03  0.10000000000E+01 0.  0.
    9000005    1    3    3    0    0  0.10415400650E+02  0.58769992225E+02 -0.45776153648E+02  0.75225320203E+02  0.10000000000E+01 0.  0.
<mgrwt>
<rscale>  0 0.12499876E+03</rscale>
<asrwt>0</asrwt>
<pdfrwt beam="1">  1        4 0.34952397E-02 0.12499876E+03</pdfrwt>
<pdfrwt beam="2">  1       -4 0.26451342E-01 0.12499876E+03</pdfrwt>
<totfact> 0.91046526E+03</totfact>
</mgrwt>
</event>
<event>
 5    1  0.3311405E-002  0.1250007E+03  0.7818608E-02  0.1235068E+00
          4   -1    0    0  501    0  0.00000000000E+00  0.00000000000E+00  0.12004841404E+04  0.12004848122E+04  0.12700000000E+01 0.  1.
         -4   -1    0    0    0  501 -0.00000000000E+00 -0.00000000000E+00 -0.31293142979E+01  0.33772041655E+01  0.12700000000E+01 0.  1.
         25    2    1    2    0    0  0.00000000000E+00  0.00000000000E+00  0.11973548261E+04  0.12038620164E+04  0.12500069915E+03 0.  0.
    9000005    1    3    3    0    0 -0.28966085116E+02  0.55324696442E+02  0.57621963254E+03  0.57959461785E+03  0.10000000000E+01 0.  0.
    9000005    1    3    3    0    0  0.28966085116E+02 -0.55324696442E+02  0.62113519360E+03  0.62426739851E+03  0.10000000000E+01 0.  0.
<mgrwt>
<rscale>  0 0.12500070E+03</rscale>
<asrwt>0</asrwt>
<pdfrwt beam="1">  1        4 0.18470944E+00 0.12500070E+03</pdfrwt>
<pdfrwt beam="2">  1       -4 0.50055187E-03 0.12500070E+03</pdfrwt>
<totfact> 0.24611431E+03</totfact>
</mgrwt>
</event>
<event>
 5    1  0.3311405E-002  0.1250016E+03  0.7818608E-02  0.1235067E+00
          4   -1    0    0  501    0  0.00000000000E+00  0.00000000000E+00  0.12580442956E+03  0.12581083974E+03  0.12700000000E+01 0.  1.
         -4   -1    0    0    0  501 -0.00000000000E+00 -0.00000000000E+00 -0.31030762996E+02  0.31056740848E+02  0.12700000000E+01 0.  1.
         25    2    1    2    0    0  0.00000000000E+00  0.00000000000E+00  0.94773666560E+02  0.15686758059E+03  0.12500155985E+03 0.  0.
    9000005    1    3    3    0    0 -0.63789558178E+01  0.60449880690E+02  0.65592691340E+02  0.89433105224E+02  0.10000000000E+01 0.  0.
    9000005    1    3    3    0    0  0.63789558178E+01 -0.60449880690E+02  0.29180975219E+02  0.67434475363E+02  0.10000000000E+01 0.  0.
<mgrwt>
<rscale>  0 0.12500156E+03</rscale>
<asrwt>0</asrwt>
<pdfrwt beam="1">  1        4 0.19357019E-01 0.12500156E+03</pdfrwt>
<pdfrwt beam="2">  1       -4 0.47764549E-02 0.12500156E+03</pdfrwt>
<totfact> 0.97946677E+03</totfact>
</mgrwt>
</event>
<event>
 5    1  0.3311405E-002  0.1250035E+03  0.7818608E-02  0.1235064E+00
         -4   -1    0    0    0  501 -0.00000000000E+00  0.00000000000E+00  0.25165753358E+02  0.25197778515E+02  0.12700000000E+01 0. -1.
          4   -1    0    0  501    0  0.00000000000E+00 -0.00000000000E+00 -0.15509616692E+03  0.15510136651E+03  0.12700000000E+01 0. -1.
         25    2    1    2    0    0  0.00000000000E+00  0.00000000000E+00 -0.12993041356E+03  0.18029914502E+03  0.12500347726E+03 0.  0.
    9000005    1    3    3    0    0 -0.46548723055E+02 -0.29674535627E+02 -0.22713724094E+02  0.59701548932E+02  0.10000000000E+01 0.  0.
    9000005    1    3    3    0    0  0.46548723055E+02  0.29674535627E+02 -0.10721668947E+03  0.12059759609E+03  0.10000000000E+01 0.  0.
<mgrwt>
<rscale>  0 0.12500348E+03</rscale>
<asrwt>0</asrwt>
<pdfrwt beam="2">  1        4 0.23863812E-01 0.12500348E+03</pdfrwt>
<pdfrwt beam="1">  1       -4 0.38745179E-02 0.12500348E+03</pdfrwt>
<totfact> 0.93555890E+03</totfact>
</mgrwt>
</event>
<event>
 5    1  0.3311405E-002  0.1249650E+03  0.7818608E-02  0.1235124E+00
         -4   -1    0    0    0  501 -0.00000000000E+00  0.00000000000E+00  0.84312069605E+02  0.84321634123E+02  0.12700000000E+01 0. -1.
          4   -1    0    0  501    0  0.00000000000E+00 -0.00000000000E+00 -0.46284033343E+02  0.46301454000E+02  0.12700000000E+01 0. -1.
         25    2    1    2    0    0  0.00000000000E+00  0.00000000000E+00  0.38028036262E+02  0.13062308812E+03  0.12496503354E+03 0.  0.
    9000005    1    3    3    0    0 -0.43872478917E+01 -0.59692970663E+02  0.29899754353E+00  0.59863077854E+02  0.10000000000E+01 0.  0.
    9000005    1    3    3    0    0  0.43872478917E+01  0.59692970663E+02  0.37729038719E+02  0.70760010269E+02  0.10000000000E+01 0.  0.
<mgrwt>
<rscale>  0 0.12496503E+03</rscale>
<asrwt>0</asrwt>
<pdfrwt beam="2">  1        4 0.71226965E-02 0.12496503E+03</pdfrwt>
<pdfrwt beam="1">  1       -4 0.12973163E-01 0.12496503E+03</pdfrwt>
<totfact> 0.10339331E+04</totfact>
</mgrwt>
</event>
<event>
 5    1  0.3311405E-002  0.1249959E+03  0.7818608E-02  0.1235076E+00
         -4   -1    0    0    0  501 -0.00000000000E+00  0.00000000000E+00  0.18957256814E+02  0.18999749627E+02  0.12700000000E+01 0.  1.
          4   -1    0    0  501    0  0.00000000000E+00 -0.00000000000E+00 -0.20576686694E+03  0.20577078614E+03  0.12700000000E+01 0.  1.
         25    2    1    2    0    0  0.00000000000E+00  0.00000000000E+00 -0.18680961013E+03  0.22477053577E+03  0.12499585319E+03 0.  0.
    9000005    1    3    3    0    0  0.41550750438E+02 -0.69254717818E+01 -0.17640728113E+03  0.18136966631E+03  0.10000000000E+01 0.  0.
    9000005    1    3    3    0    0 -0.41550750438E+02  0.69254717818E+01 -0.10402328993E+02  0.43400869459E+02  0.10000000000E+01 0.  0.
<mgrwt>
<rscale>  0 0.12499585E+03</rscale>
<asrwt>0</asrwt>
<pdfrwt beam="2">  1        4 0.31660010E-01 0.12499585E+03</pdfrwt>
<pdfrwt beam="1">  1       -4 0.29200713E-02 0.12499585E+03</pdfrwt>
<totfact> 0.86127033E+03</totfact>
</mgrwt>
</event>
<event>
 5    1  0.3311405E-002  0.1249967E+03  0.7818608E-02  0.1235074E+00
          4   -1    0    0  501    0  0.00000000000E+00  0.00000000000E+00  0.31073713484E+02  0.31099655459E+02  0.12700000000E+01 0. -1.
         -4   -1    0    0    0  501 -0.00000000000E+00 -0.00000000000E+00 -0.12562097469E+03  0.12562739423E+03  0.12700000000E+01 0. -1.
         25    2    1    2    0    0  0.00000000000E+00  0.00000000000E+00 -0.94547261205E+02  0.15672704969E+03  0.12499673397E+03 0.  0.
    9000005    1    3    3    0    0 -0.37801486236E+02  0.27840525256E+02  0.44390772517E+01  0.47167283312E+02  0.10000000000E+01 0.  0.
    9000005    1    3    3    0    0  0.37801486236E+02 -0.27840525256E+02 -0.98986338457E+02  0.10955976638E+03  0.10000000000E+01 0.  0.
<mgrwt>
<rscale>  0 0.12499673E+03</rscale>
<asrwt>0</asrwt>
<pdfrwt beam="1">  1        4 0.47830607E-02 0.12499673E+03</pdfrwt>
<pdfrwt beam="2">  1       -4 0.19328793E-01 0.12499673E+03</pdfrwt>
<totfact> 0.97984716E+03</totfact>
</mgrwt>
</event>
<event>
 5    1  0.3311405E-002  0.1250037E+03  0.7818608E-02  0.1235063E+00
          4   -1    0    0  501    0  0.00000000000E+00  0.00000000000E+00  0.33912433744E+01  0.36212472471E+01  0.12700000000E+01 0. -1.
         -4   -1    0    0    0  501 -0.00000000000E+00 -0.00000000000E+00 -0.11139197545E+04  0.11139204785E+04  0.12700000000E+01 0. -1.
         25    2    1    2    0    0  0.00000000000E+00  0.00000000000E+00 -0.11105285111E+04  0.11175417257E+04  0.12500373877E+03 0.  0.
    9000005    1    3    3    0    0 -0.56096875560E+02 -0.11310037487E+02 -0.33074444502E+03  0.33566004276E+03  0.10000000000E+01 0.  0.
    9000005    1    3    3    0    0  0.56096875560E+02  0.11310037487E+02 -0.77978406609E+03  0.78188168294E+03  0.10000000000E+01 0.  0.
<mgrwt>
<rscale>  0 0.12500374E+03</rscale>
<asrwt>0</asrwt>
<pdfrwt beam="1">  1        4 0.53947893E-03 0.12500374E+03</pdfrwt>
<pdfrwt beam="2">  1       -4 0.17138974E+00 0.12500374E+03</pdfrwt>
<totfact> 0.26973443E+03</totfact>
</mgrwt>
</event>
<event>
 5    1  0.3311405E-002  0.1249993E+03  0.7818608E-02  0.1235070E+00
          4   -1    0    0  501    0  0.00000000000E+00  0.00000000000E+00  0.26623600245E+03  0.26623903152E+03  0.12700000000E+01 0.  1.
         -4   -1    0    0    0  501 -0.00000000000E+00 -0.00000000000E+00 -0.14641358629E+02  0.14696335683E+02  0.12700000000E+01 0.  1.
         25    2    1    2    0    0  0.00000000000E+00  0.00000000000E+00  0.25159464383E+03  0.28093536720E+03  0.12499926296E+03 0.  0.
    9000005    1    3    3    0    0  0.26767091031E+02 -0.24208108861E+01 -0.99944271559E+00  0.26913497977E+02  0.10000000000E+01 0.  0.
    9000005    1    3    3    0    0 -0.26767091031E+02  0.24208108861E+01  0.25259408654E+03  0.25402186922E+03  0.10000000000E+01 0.  0.
<mgrwt>
<rscale>  0 0.12499926E+03</rscale>
<asrwt>0</asrwt>
<pdfrwt beam="1">  1        4 0.40963842E-01 0.12499926E+03</pdfrwt>
<pdfrwt beam="2">  1       -4 0.22569790E-02 0.12499926E+03</pdfrwt>
<totfact> 0.78055527E+03</totfact>
</mgrwt>
</event>
<event>
 5    1  0.3311405E-002  0.1250041E+03  0.7818608E-02  0.1235063E+00
         -4   -1    0    0    0  501 -0.00000000000E+00  0.00000000000E+00  0.10472032879E+02  0.10548761663E+02  0.12700000000E+01 0. -1.
          4   -1    0    0  501    0  0.00000000000E+00 -0.00000000000E+00 -0.37160227549E+03  0.37160444568E+03  0.12700000000E+01 0. -1.
         25    2    1    2    0    0  0.00000000000E+00  0.00000000000E+00 -0.36113024261E+03  0.38215320734E+03  0.12500408695E+03 0.  0.
    9000005    1    3    3    0    0  0.22632867697E+02  0.57009919373E+02 -0.21713936400E+03  0.22563882867E+03  0.10000000000E+01 0.  0.
    9000005    1    3    3    0    0 -0.22632867697E+02 -0.57009919373E+02 -0.14399087861E+03  0.15651437867E+03  0.10000000000E+01 0.  0.
<mgrwt>
<rscale>  0 0.12500409E+03</rscale>
<asrwt>0</asrwt>
<pdfrwt beam="2">  1        4 0.57175640E-01 0.12500409E+03</pdfrwt>
<pdfrwt beam="1">  1       -4 0.16171514E-02 0.12500409E+03</pdfrwt>
<totfact> 0.66320378E+03</totfact>
</mgrwt>
</event>
<event>
 5    1  0.3311405E-002  0.1250024E+03  0.7818608E-02  0.1235065E+00
          4   -1    0    0  501    0  0.00000000000E+00  0.00000000000E+00  0.60131301769E+02  0.60144711758E+02  0.12700000000E+01 0.  1.
         -4   -1    0    0    0  501 -0.00000000000E+00 -0.00000000000E+00 -0.64937688254E+02  0.64950105895E+02  0.12700000000E+01 0.  1.
         25    2    1    2    0    0  0.00000000000E+00  0.00000000000E+00 -0.48063864846E+01  0.12509481765E+03  0.12500244819E+03 0.  0.
    9000005    1    3    3    0    0 -0.15638421613E+01 -0.34145993821E+02 -0.54758278844E+02  0.64558993164E+02  0.10000000000E+01 0.  0.
    9000005    1    3    3    0    0  0.15638421613E+01  0.34145993821E+02  0.49951892360E+02  0.60535824490E+02  0.10000000000E+01 0.  0.
<mgrwt>
<rscale>  0 0.12500245E+03</rscale>
<asrwt>0</asrwt>
<pdfrwt beam="1">  1        4 0.92529563E-02 0.12500245E+03</pdfrwt>
<pdfrwt beam="2">  1       -4 0.99924003E-02 0.12500245E+03</pdfrwt>
<totfact> 0.10450225E+04</totfact>
</mgrwt>
</event>
<event>
 4    1  0.3311405E-002  0.1250992E+03  0.7818608E-02  0.1234914E+00
         -4   -1    0    0    0  501 -0.00000000000E+00  0.00000000000E+00  0.23002853412E+03  0.23003203996E+03  0.12700000000E+01 0. -1.
          4   -1    0    0  501    0  0.00000000000E+00 -0.00000000000E+00 -0.16981196171E+02  0.17028620714E+02  0.12700000000E+01 0. -1.
    9000005    1    1    2    0    0 -0.20399465497E+02 -0.58001205740E+02  0.83904824609E+02  0.10402546637E+03  0.10000000000E+01 0.  0.
    9000005    1    1    2    0    0  0.20399465497E+02  0.58001205740E+02  0.12914251333E+03  0.14303519431E+03  0.10000000000E+01 0.  0.
<mgrwt>
<rscale>  0 0.12509917E+03</rscale>
<asrwt>0</asrwt>
<pdfrwt beam="2">  1        4 0.26164093E-02 0.12509917E+03</pdfrwt>
<pdfrwt beam="1">  1       -4 0.35392925E-01 0.12509917E+03</pdfrwt>
<totfact> 0.82574322E+03</totfact>
</mgrwt>
</event>
<event>
 5    1  0.3311405E-002  0.1249996E+03  0.7818608E-02  0.1235070E+00
         -4   -1    0    0    0  501 -0.00000000000E+00  0.00000000000E+00  0.37388363688E+02  0.37409927015E+02  0.12700000000E+01 0. -1.
          4   -1    0    0  501    0  0.00000000000E+00 -0.00000000000E+00 -0.10442142347E+03  0.10442914621E+03  0.12700000000E+01 0. -1.
         25    2    1    2    0    0  0.00000000000E+00  0.00000000000E+00 -0.67033059777E+02  0.14183907323E+03  0.12499956636E+03 0.  0.
    9000005    1    3    3    0    0 -0.37679380319E+02  0.49829844199E+02 -0.31731803105E+02  0.70076075821E+02  0.10000000000E+01 0.  0.
    9000005    1    3    3    0    0  0.37679380319E+02 -0.49829844199E+02 -0.35301256672E+02  0.71762997406E+02  0.10000000000E+01 0.  0.
<mgrwt>
<rscale>  0 0.12499957E+03</rscale>
<asrwt>0</asrwt>
<pdfrwt beam="2">  1        4 0.16067087E-01 0.12499957E+03</pdfrwt>
<pdfrwt beam="1">  1       -4 0.57543088E-02 0.12499957E+03</pdfrwt>
<totfact> 0.10095710E+04</totfact>
</mgrwt>
</event>
<event>
 5    1  0.3311405E-002  0.1249993E+03  0.7818608E-02  0.1235070E+00
         -4   -1    0    0    0  501 -0.00000000000E+00  0.00000000000E+00  0.36488265536E+02  0.36510360472E+02  0.12700000000E+01 0. -1.
          4   -1    0    0  501    0  0.00000000000E+00 -0.00000000000E+00 -0.10699556090E+03  0.10700309787E+03  0.12700000000E+01 0. -1.
         25    2    1    2    0    0  0.00000000000E+00  0.00000000000E+00 -0.70507295369E+02  0.14351345834E+03  0.12499933610E+03 0.  0.
    9000005    1    3    3    0    0  0.44194248966E+02  0.33178398628E+02 -0.17556557331E+01  0.55299368027E+02  0.10000000000E+01 0.  0.
    9000005    1    3    3    0    0 -0.44194248966E+02 -0.33178398628E+02 -0.68751639635E+02  0.88214090313E+02  0.10000000000E+01 0.  0.
<mgrwt>
<rscale>  0 0.12499934E+03</rscale>
<asrwt>0</asrwt>
<pdfrwt beam="2">  1        4 0.16463135E-01 0.12499934E+03</pdfrwt>
<pdfrwt beam="1">  1       -4 0.56158587E-02 0.12499934E+03</pdfrwt>
<totfact> 0.10061430E+04</totfact>
</mgrwt>
</event>
<event>
 5    1  0.3311405E-002  0.1249981E+03  0.7818608E-02  0.1235072E+00
         -4   -1    0    0    0  501 -0.00000000000E+00  0.00000000000E+00  0.91413922257E+02  0.91422743792E+02  0.12700000000E+01 0.  1.
          4   -1    0    0  501    0  0.00000000000E+00 -0.00000000000E+00 -0.42709855120E+02  0.42728733007E+02  0.12700000000E+01 0.  1.
         25    2    1    2    0    0  0.00000000000E+00  0.00000000000E+00  0.48704067137E+02  0.13415147680E+03  0.12499813027E+03 0.  0.
    9000005    1    3    3    0    0 -0.39255906049E+02  0.16519077677E+02 -0.24726608236E+02  0.49257600854E+02  0.10000000000E+01 0.  0.
    9000005    1    3    3    0    0  0.39255906049E+02 -0.16519077677E+02  0.73430675373E+02  0.84893875944E+02  0.10000000000E+01 0.  0.
<mgrwt>
<rscale>  0 0.12499813E+03</rscale>
<asrwt>0</asrwt>
<pdfrwt beam="2">  1        4 0.65728778E-02 0.12499813E+03</pdfrwt>
<pdfrwt beam="1">  1       -4 0.14065811E-01 0.12499813E+03</pdfrwt>
<totfact> 0.10256419E+04</totfact>
</mgrwt>
</event>
<event>
 5    1  0.3311405E-002  0.1249961E+03  0.7818608E-02  0.1235075E+00
         -4   -1    0    0    0  501 -0.00000000000E+00  0.00000000000E+00  0.19844686881E+02  0.19885283438E+02  0.12700000000E+01 0.  1.
          4   -1    0    0  501    0  0.00000000000E+00 -0.00000000000E+00 -0.19658501480E+03  0.19658911705E+03  0.12700000000E+01 0.  1.
         25    2    1    2    0    0  0.00000000000E+00  0.00000000000E+00 -0.17674032792E+03  0.21647440049E+03  0.12499609016E+03 0.  0.
    9000005    1    3    3    0    0  0.56841159367E+02 -0.54571302030E+01 -0.44410246436E+02  0.72346165459E+02  0.10000000000E+01 0.  0.
    9000005    1    3    3    0    0 -0.56841159367E+02  0.54571302030E+01 -0.13233008148E+03  0.14412823503E+03  0.10000000000E+01 0.  0.
<mgrwt>
<rscale>  0 0.12499609E+03</rscale>
<asrwt>0</asrwt>
<pdfrwt beam="2">  1        4 0.30247286E-01 0.12499609E+03</pdfrwt>
<pdfrwt beam="1">  1       -4 0.30564672E-02 0.12499609E+03</pdfrwt>
<totfact> 0.87436961E+03</totfact>
</mgrwt>
</event>
<event>
 5    1  0.3311405E-002  0.1250011E+03  0.7818608E-02  0.1235068E+00
          4   -1    0    0  501    0  0.00000000000E+00  0.00000000000E+00  0.30090120595E+03  0.30090388606E+03  0.12700000000E+01 0. -1.
         -4   -1    0    0    0  501 -0.00000000000E+00 -0.00000000000E+00 -0.12948259394E+02  0.13010392820E+02  0.12700000000E+01 0. -1.
         25    2    1    2    0    0  0.00000000000E+00  0.00000000000E+00  0.28795294656E+03  0.31391427888E+03  0.12500110020E+03 0.  0.
    9000005    1    3    3    0    0 -0.12594050453E+02 -0.49135521297E+02  0.52308834006E+02  0.72870595407E+02  0.10000000000E+01 0.  0.
    9000005    1    3    3    0    0  0.12594050453E+02  0.49135521297E+02  0.23564411255E+03  0.24104368347E+03  0.10000000000E+01 0.  0.
<mgrwt>
<rscale>  0 0.12500110E+03</rscale>
<asrwt>0</asrwt>
<pdfrwt beam="1">  1        4 0.46297479E-01 0.12500110E+03</pdfrwt>
<pdfrwt beam="2">  1       -4 0.19970256E-02 0.12500110E+03</pdfrwt>
<totfact> 0.73884031E+03</totfact>
</mgrwt>
</event>
<event>
 5    1  0.3311405E-002  0.1250018E+03  0.7818608E-02  0.1235066E+00
         -4   -1    0    0    0  501 -0.00000000000E+00  0.00000000000E+00  0.65383733823E+02  0.65396066768E+02  0.12700000000E+01 0. -1.
          4   -1    0    0  501    0  0.00000000000E+00 -0.00000000000E+00 -0.59720458781E+02  0.59733961002E+02  0.12700000000E+01 0. -1.
         25    2    1    2    0    0  0.00000000000E+00  0.00000000000E+00  0.56632750421E+01  0.12513002777E+03  0.12500180465E+03 0.  0.
    9000005    1    3    3    0    0 -0.31412667180E+02  0.17658051429E+02  0.53940844624E+02  0.64878171663E+02  0.10000000000E+01 0.  0.
    9000005    1    3    3    0    0  0.31412667180E+02 -0.17658051429E+02 -0.48277569582E+02  0.60251856107E+02  0.10000000000E+01 0.  0.
<mgrwt>
<rscale>  0 0.12500180E+03</rscale>
<asrwt>0</asrwt>
<pdfrwt beam="2">  1        4 0.91897503E-02 0.12500180E+03</pdfrwt>
<pdfrwt beam="1">  1       -4 0.10061023E-01 0.12500180E+03</pdfrwt>
<totfact> 0.10449613E+04</totfact>
</mgrwt>
</event>
<event>
 5    1  0.3311405E-002  0.1250015E+03  0.7818608E-02  0.1235067E+00
         -4   -1    0    0    0  501 -0.00000000000E+00  0.00000000000E+00  0.19113637930E+03  0.19114059849E+03  0.12700000000E+01 0. -1.
          4   -1    0    0  501    0  0.00000000000E+00 -0.00000000000E+00 -0.20413289735E+02  0.20452757706E+02  0.12700000000E+01 0. -1.
         25    2    1    2    0    0  0.00000000000E+00  0.00000000000E+00  0.17072308956E+03  0.21159335619E+03  0.12500150030E+03 0.  0.
    9000005    1    3    3    0    0 -0.47745893635E+02 -0.34785636983E+02  0.11987128933E+03  0.13364070078E+03  0.10000000000E+01 0.  0.
    9000005    1    3    3    0    0  0.47745893635E+02  0.34785636983E+02  0.50851800233E+02  0.77952655415E+02  0.10000000000E+01 0.  0.
<mgrwt>
<rscale>  0 0.12500150E+03</rscale>
<asrwt>0</asrwt>
<pdfrwt beam="2">  1        4 0.31438668E-02 0.12500150E+03</pdfrwt>
<pdfrwt beam="1">  1       -4 0.29408956E-01 0.12500150E+03</pdfrwt>
<totfact> 0.88213367E+03</totfact>
</mgrwt>
</event>
<event>
 5    1  0.3311405E-002  0.1249907E+03  0.7818608E-02  0.1235084E+00
         -4   -1    0    0    0  501 -0.00000000000E+00  0.00000000000E+00  0.33192145783E+03  0.33192388746E+03  0.12700000000E+01 0.  1.
          4   -1    0    0  501    0  0.00000000000E+00 -0.00000000000E+00 -0.11730105871E+02  0.11798656015E+02  0.12700000000E+01 0.  1.
         25    2    1    2    0    0  0.00000000000E+00  0.00000000000E+00  0.32019135196E+03  0.34372254347E+03  0.12499073976E+03 0.  0.
    9000005    1    3    3    0    0  0.17599402614E+02 -0.10159518426E+02  0.32259429108E+03  0.32323525709E+03  0.10000000000E+01 0.  0.
    9000005    1    3    3    0    0 -0.17599402614E+02  0.10159518426E+02 -0.24029391248E+01  0.20487286386E+02  0.10000000000E+01 0.  0.
<mgrwt>
<rscale>  0 0.12499074E+03</rscale>
<asrwt>0</asrwt>
<pdfrwt beam="2">  1        4 0.18100916E-02 0.12499074E+03</pdfrwt>
<pdfrwt beam="1">  1       -4 0.51070301E-01 0.12499074E+03</pdfrwt>
<totfact> 0.70435154E+03</totfact>
</mgrwt>
</event>
<event>
 5    1  0.3311405E-002  0.1249999E+03  0.7818608E-02  0.1235069E+00
         -4   -1    0    0    0  501 -0.00000000000E+00  0.00000000000E+00  0.77498888551E+02  0.77509293808E+02  0.12700000000E+01 0.  1.
          4   -1    0    0  501    0  0.00000000000E+00 -0.00000000000E+00 -0.50382053180E+02  0.50398057330E+02  0.12700000000E+01 0.  1.
         25    2    1    2    0    0  0.00000000000E+00  0.00000000000E+00  0.27116835371E+02  0.12790735114E+03  0.12499987086E+03 0.  0.
    9000005    1    3    3    0    0 -0.65038647903E+01 -0.44585301390E+02 -0.30751128029E+02  0.54559886660E+02  0.10000000000E+01 0.  0.
    9000005    1    3    3    0    0  0.65038647903E+01  0.44585301390E+02  0.57867963400E+02  0.73347464478E+02  0.10000000000E+01 0.  0.
<mgrwt>
<rscale>  0 0.12499987E+03</rscale>
<asrwt>0</asrwt>
<pdfrwt beam="2">  1        4 0.77531166E-02 0.12499987E+03</pdfrwt>
<pdfrwt beam="1">  1       -4 0.11924937E-01 0.12499987E+03</pdfrwt>
<totfact> 0.10389519E+04</totfact>
</mgrwt>
</event>
<event>
 5    1  0.3311405E-002  0.1249975E+03  0.7818608E-02  0.1235073E+00
          4   -1    0    0  501    0  0.00000000000E+00  0.00000000000E+00  0.14939935616E+02  0.14993817933E+02  0.12700000000E+01 0.  1.
         -4   -1    0    0    0  501 -0.00000000000E+00 -0.00000000000E+00 -0.26092706445E+03  0.26093015515E+03  0.12700000000E+01 0.  1.
         25    2    1    2    0    0  0.00000000000E+00  0.00000000000E+00 -0.24598712884E+03  0.27592397308E+03  0.12499748544E+03 0.  0.
    9000005    1    3    3    0    0  0.10959275667E+02 -0.26123979819E+01  0.12690384506E+02  0.16999300141E+02  0.10000000000E+01 0.  0.
    9000005    1    3    3    0    0 -0.10959275667E+02  0.26123979819E+01 -0.25867751334E+03  0.25892467294E+03  0.10000000000E+01 0.  0.
<mgrwt>
<rscale>  0 0.12499749E+03</rscale>
<asrwt>0</asrwt>
<pdfrwt beam="1">  1        4 0.23028344E-02 0.12499749E+03</pdfrwt>
<pdfrwt beam="2">  1       -4 0.40147005E-01 0.12499749E+03</pdfrwt>
<totfact> 0.78726082E+03</totfact>
</mgrwt>
</event>
<event>
 5    1  0.3311405E-002  0.1249959E+03  0.7818608E-02  0.1235076E+00
          4   -1    0    0  501    0  0.00000000000E+00  0.00000000000E+00  0.78496880744E+02  0.78507153729E+02  0.12700000000E+01 0.  1.
         -4   -1    0    0    0  501 -0.00000000000E+00 -0.00000000000E+00 -0.49738256246E+02  0.49754467482E+02  0.12700000000E+01 0.  1.
         25    2    1    2    0    0  0.00000000000E+00  0.00000000000E+00  0.28758624499E+02  0.12826162121E+03  0.12499593990E+03 0.  0.
    9000005    1    3    3    0    0  0.10687778752E+02 -0.47539925362E+02  0.54525946441E+02  0.73132427509E+02  0.10000000000E+01 0.  0.
    9000005    1    3    3    0    0 -0.10687778752E+02  0.47539925362E+02 -0.25767321943E+02  0.55129193701E+02  0.10000000000E+01 0.  0.
<mgrwt>
<rscale>  0 0.12499594E+03</rscale>
<asrwt>0</asrwt>
<pdfrwt beam="1">  1        4 0.12078480E-01 0.12499594E+03</pdfrwt>
<pdfrwt beam="2">  1       -4 0.76540767E-02 0.12499594E+03</pdfrwt>
<totfact> 0.10382793E+04</totfact>
</mgrwt>
</event>
<event>
 5    1  0.3311405E-002  0.1250002E+03  0.7818608E-02  0.1235069E+00
         -4   -1    0    0    0  501 -0.00000000000E+00  0.00000000000E+00  0.12785334383E+03  0.12785965129E+03  0.12700000000E+01 0.  1.
          4   -1    0    0  501    0  0.00000000000E+00 -0.00000000000E+00 -0.30532424646E+02  0.30558826135E+02  0.12700000000E+01 0.  1.
         25    2    1    2    0    0  0.00000000000E+00  0.00000000000E+00  0.97320919185E+02  0.15841847743E+03  0.12500021072E+03 0.  0.
    9000005    1    3    3    0    0 -0.31944265231E+02  0.44672986635E+02  0.10869933590E+02  0.55993457406E+02  0.10000000000E+01 0.  0.
    9000005    1    3    3    0    0  0.31944265231E+02 -0.44672986635E+02  0.86450985595E+02  0.10242502002E+03  0.10000000000E+01 0.  0.
<mgrwt>
<rscale>  0 0.12500021E+03</rscale>
<asrwt>0</asrwt>
<pdfrwt beam="2">  1        4 0.46998122E-02 0.12500021E+03</pdfrwt>
<pdfrwt beam="1">  1       -4 0.19672261E-01 0.12500021E+03</pdfrwt>
<totfact> 0.97648096E+03</totfact>
</mgrwt>
</event>
<event>
 5    1  0.3311405E-002  0.1250012E+03  0.7818608E-02  0.1235067E+00
          4   -1    0    0  501    0  0.00000000000E+00  0.00000000000E+00  0.50358573102E+02  0.50374584712E+02  0.12700000000E+01 0.  1.
         -4   -1    0    0    0  501 -0.00000000000E+00 -0.00000000000E+00 -0.77536698547E+02  0.77547098731E+02  0.12700000000E+01 0.  1.
         25    2    1    2    0    0  0.00000000000E+00  0.00000000000E+00 -0.27178125445E+02  0.12792168344E+03  0.12500122636E+03 0.  0.
    9000005    1    3    3    0    0 -0.60243897177E+02  0.70915244482E+01  0.17855817869E+01  0.60694358621E+02  0.10000000000E+01 0.  0.
    9000005    1    3    3    0    0  0.60243897177E+02 -0.70915244482E+01 -0.28963707232E+02  0.67227324822E+02  0.10000000000E+01 0.  0.
<mgrwt>
<rscale>  0 0.12500123E+03</rscale>
<asrwt>0</asrwt>
<pdfrwt beam="1">  1        4 0.77495045E-02 0.12500123E+03</pdfrwt>
<pdfrwt beam="2">  1       -4 0.11930755E-01 0.12500123E+03</pdfrwt>
<totfact> 0.10388892E+04</totfact>
</mgrwt>
</event>
<event>
 5    1  0.3311405E-002  0.1249999E+03  0.7818608E-02  0.1235069E+00
          4   -1    0    0  501    0  0.00000000000E+00  0.00000000000E+00  0.24821876033E+03  0.24822200925E+03  0.12700000000E+01 0.  1.
         -4   -1    0    0    0  501 -0.00000000000E+00 -0.00000000000E+00 -0.15708130042E+02  0.15759386074E+02  0.12700000000E+01 0.  1.
         25    2    1    2    0    0  0.00000000000E+00  0.00000000000E+00  0.23251063028E+03  0.26398139533E+03  0.12499993554E+03 0.  0.
    9000005    1    3    3    0    0  0.24334366750E+02 -0.83303213293E+01 -0.40218609189E+01  0.26052466751E+02  0.10000000000E+01 0.  0.
    9000005    1    3    3    0    0 -0.24334366750E+02  0.83303213293E+01  0.23653249120E+03  0.23792892858E+03  0.10000000000E+01 0.  0.
<mgrwt>
<rscale>  0 0.12499994E+03</rscale>
<asrwt>0</asrwt>
<pdfrwt beam="1">  1        4 0.38191690E-01 0.12499994E+03</pdfrwt>
<pdfrwt beam="2">  1       -4 0.24208284E-02 0.12499994E+03</pdfrwt>
<totfact> 0.80350673E+03</totfact>
</mgrwt>
</event>
<event>
 5    1  0.3311405E-002  0.1250012E+03  0.7818608E-02  0.1235067E+00
          4   -1    0    0  501    0  0.00000000000E+00  0.00000000000E+00  0.33543301388E+02  0.33567334836E+02  0.12700000000E+01 0. -1.
         -4   -1    0    0    0  501 -0.00000000000E+00 -0.00000000000E+00 -0.11638690842E+03  0.11639383726E+03  0.12700000000E+01 0. -1.
         25    2    1    2    0    0  0.00000000000E+00  0.00000000000E+00 -0.82843607035E+02  0.14996117210E+03  0.12500115963E+03 0.  0.
    9000005    1    3    3    0    0 -0.61538942130E+02  0.10781001538E+02 -0.43139935772E+02  0.75929740228E+02  0.10000000000E+01 0.  0.
    9000005    1    3    3    0    0  0.61538942130E+02 -0.10781001538E+02 -0.39703671263E+02  0.74031431868E+02  0.10000000000E+01 0.  0.
<mgrwt>
<rscale>  0 0.12500116E+03</rscale>
<asrwt>0</asrwt>
<pdfrwt beam="1">  1        4 0.51628897E-02 0.12500116E+03</pdfrwt>
<pdfrwt beam="2">  1       -4 0.17908060E-01 0.12500116E+03</pdfrwt>
<totfact> 0.99308846E+03</totfact>
</mgrwt>
</event>
<event>
 5    1  0.3311405E-002  0.1250006E+03  0.7818608E-02  0.1235068E+00
         -4   -1    0    0    0  501 -0.00000000000E+00  0.00000000000E+00  0.13304208083E+02  0.13364686780E+02  0.12700000000E+01 0.  1.
          4   -1    0    0  501    0  0.00000000000E+00 -0.00000000000E+00 -0.29288507493E+03  0.29288782839E+03  0.12700000000E+01 0.  1.
         25    2    1    2    0    0  0.00000000000E+00  0.00000000000E+00 -0.27958086685E+03  0.30625251517E+03  0.12500056776E+03 0.  0.
    9000005    1    3    3    0    0 -0.27238949444E+02  0.24184975353E+02 -0.15383712688E+02  0.39554165592E+02  0.10000000000E+01 0.  0.
    9000005    1    3    3    0    0  0.27238949444E+02 -0.24184975353E+02 -0.26419715416E+03  0.26669834958E+03  0.10000000000E+01 0.  0.
<mgrwt>
<rscale>  0 0.12500057E+03</rscale>
<asrwt>0</asrwt>
<pdfrwt beam="2">  1        4 0.45064101E-01 0.12500057E+03</pdfrwt>
<pdfrwt beam="1">  1       -4 0.20516655E-02 0.12500057E+03</pdfrwt>
<totfact> 0.74820229E+03</totfact>
</mgrwt>
</event>
<event>
 5    1  0.3311405E-002  0.1250007E+03  0.7818608E-02  0.1235068E+00
          4   -1    0    0  501    0  0.00000000000E+00  0.00000000000E+00  0.17731276610E+02  0.17776700206E+02  0.12700000000E+01 0. -1.
         -4   -1    0    0    0  501 -0.00000000000E+00 -0.00000000000E+00 -0.21997627396E+03  0.21997994000E+03  0.12700000000E+01 0. -1.
         25    2    1    2    0    0  0.00000000000E+00  0.00000000000E+00 -0.20224499735E+03  0.23775664021E+03  0.12500072405E+03 0.  0.
    9000005    1    3    3    0    0  0.60132520291E+02  0.20234434859E+01 -0.13324848717E+03  0.14620592892E+03  0.10000000000E+01 0.  0.
    9000005    1    3    3    0    0 -0.60132520291E+02 -0.20234434859E+01 -0.68996510179E+02  0.91550711286E+02  0.10000000000E+01 0.  0.
<mgrwt>
<rscale>  0 0.12500072E+03</rscale>
<asrwt>0</asrwt>
<pdfrwt beam="1">  1        4 0.27316650E-02 0.12500072E+03</pdfrwt>
<pdfrwt beam="2">  1       -4 0.33846278E-01 0.12500072E+03</pdfrwt>
<totfact> 0.84131257E+03</totfact>
</mgrwt>
</event>
<event>
 5    1  0.3311405E-002  0.1250027E+03  0.7818608E-02  0.1235065E+00
         -4   -1    0    0    0  501 -0.00000000000E+00  0.00000000000E+00  0.25898349393E+03  0.25898660782E+03  0.12700000000E+01 0. -1.
          4   -1    0    0  501    0  0.00000000000E+00 -0.00000000000E+00 -0.15053711168E+02  0.15107187691E+02  0.12700000000E+01 0. -1.
         25    2    1    2    0    0  0.00000000000E+00  0.00000000000E+00  0.24392978276E+03  0.27409379551E+03  0.12500267924E+03 0.  0.
    9000005    1    3    3    0    0  0.17743476398E+01  0.47784774003E+02  0.21018910951E+03  0.21556204372E+03  0.10000000000E+01 0.  0.
    9000005    1    3    3    0    0 -0.17743476398E+01 -0.47784774003E+02  0.33740673258E+02  0.58531751793E+02  0.10000000000E+01 0.  0.
<mgrwt>
<rscale>  0 0.12500268E+03</rscale>
<asrwt>0</asrwt>
<pdfrwt beam="2">  1        4 0.23203090E-02 0.12500268E+03</pdfrwt>
<pdfrwt beam="1">  1       -4 0.39847963E-01 0.12500268E+03</pdfrwt>
<totfact> 0.78963097E+03</totfact>
</mgrwt>
</event>
<event>
 5    1  0.3311405E-002  0.1250031E+03  0.7818608E-02  0.1235064E+00
         -4   -1    0    0    0  501 -0.00000000000E+00  0.00000000000E+00  0.57111456682E+02  0.57125575571E+02  0.12700000000E+01 0. -1.
          4   -1    0    0  501    0  0.00000000000E+00 -0.00000000000E+00 -0.68371848623E+02  0.68383642665E+02  0.12700000000E+01 0. -1.
         25    2    1    2    0    0  0.00000000000E+00  0.00000000000E+00 -0.11260391941E+02  0.12550921824E+03  0.12500306971E+03 0.  0.
    9000005    1    3    3    0    0 -0.30737946960E+02 -0.49626991163E+01  0.48773998854E+02  0.57873592683E+02  0.10000000000E+01 0.  0.
    9000005    1    3    3    0    0  0.30737946960E+02  0.49626991163E+01 -0.60034390796E+02  0.67635625554E+02  0.10000000000E+01 0.  0.
<mgrwt>
<rscale>  0 0.12500307E+03</rscale>
<asrwt>0</asrwt>
<pdfrwt beam="2">  1        4 0.10520739E-01 0.12500307E+03</pdfrwt>
<pdfrwt beam="1">  1       -4 0.87883712E-02 0.12500307E+03</pdfrwt>
<totfact> 0.10441028E+04</totfact>
</mgrwt>
</event>
<event>
 5    1  0.3311405E-002  0.1250000E+03  0.7818608E-02  0.1235069E+00
          4   -1    0    0  501    0  0.00000000000E+00  0.00000000000E+00  0.28444841480E+02  0.28473178727E+02  0.12700000000E+01 0. -1.
         -4   -1    0    0    0  501 -0.00000000000E+00 -0.00000000000E+00 -0.13722749529E+03  0.13723337190E+03  0.12700000000E+01 0. -1.
         25    2    1    2    0    0  0.00000000000E+00  0.00000000000E+00 -0.10878265381E+03  0.16570655063E+03  0.12499998061E+03 0.  0.
    9000005    1    3    3    0    0  0.27493836756E+02  0.56117342649E+02 -0.54956220451E+02  0.83224115326E+02  0.10000000000E+01 0.  0.
    9000005    1    3    3    0    0 -0.27493836756E+02 -0.56117342649E+02 -0.53826433361E+02  0.82482435305E+02  0.10000000000E+01 0.  0.
<mgrwt>
<rscale>  0 0.12499998E+03</rscale>
<asrwt>0</asrwt>
<pdfrwt beam="1">  1        4 0.43787614E-02 0.12499998E+03</pdfrwt>
<pdfrwt beam="2">  1       -4 0.21114554E-01 0.12499998E+03</pdfrwt>
<totfact> 0.96253792E+03</totfact>
</mgrwt>
</event>
<event>
 5    1  0.3311405E-002  0.1249936E+03  0.7818608E-02  0.1235079E+00
         -4   -1    0    0    0  501 -0.00000000000E+00  0.00000000000E+00  0.27602294799E+02  0.27631496126E+02  0.12700000000E+01 0.  1.
          4   -1    0    0  501    0  0.00000000000E+00 -0.00000000000E+00 -0.14139763742E+03  0.14140334072E+03  0.12700000000E+01 0.  1.
         25    2    1    2    0    0  0.00000000000E+00  0.00000000000E+00 -0.11379534262E+03  0.16903483685E+03  0.12499358410E+03 0.  0.
    9000005    1    3    3    0    0  0.29468674896E+01 -0.61595943968E+02 -0.70562724028E+02  0.93716820067E+02  0.10000000000E+01 0.  0.
    9000005    1    3    3    0    0 -0.29468674896E+01  0.61595943968E+02 -0.43232618590E+02  0.75318016778E+02  0.10000000000E+01 0.  0.
<mgrwt>
<rscale>  0 0.12499358E+03</rscale>
<asrwt>0</asrwt>
<pdfrwt beam="2">  1        4 0.21756167E-01 0.12499358E+03</pdfrwt>
<pdfrwt beam="1">  1       -4 0.42491920E-02 0.12499358E+03</pdfrwt>
<totfact> 0.95642446E+03</totfact>
</mgrwt>
</event>
<event>
 5    1  0.3311405E-002  0.1249994E+03  0.7818608E-02  0.1235070E+00
         -4   -1    0    0    0  501 -0.00000000000E+00  0.00000000000E+00  0.62787261773E+02  0.62800104625E+02  0.12700000000E+01 0. -1.
          4   -1    0    0  501    0  0.00000000000E+00 -0.00000000000E+00 -0.62187744452E+02  0.62200711090E+02  0.12700000000E+01 0. -1.
         25    2    1    2    0    0  0.00000000000E+00  0.00000000000E+00  0.59951732053E+00  0.12500081572E+03  0.12499937803E+03 0.  0.
    9000005    1    3    3    0    0  0.26080456018E+02 -0.67266877704E+01  0.56689879759E+02  0.62770860927E+02  0.10000000000E+01 0.  0.
    9000005    1    3    3    0    0 -0.26080456018E+02  0.67266877704E+01 -0.56090362438E+02  0.62229954788E+02  0.10000000000E+01 0.  0.
<mgrwt>
<rscale>  0 0.12499938E+03</rscale>
<asrwt>0</asrwt>
<pdfrwt beam="2">  1        4 0.95693306E-02 0.12499938E+03</pdfrwt>
<pdfrwt beam="1">  1       -4 0.96615641E-02 0.12499938E+03</pdfrwt>
<totfact> 0.10452992E+04</totfact>
</mgrwt>
</event>
<event>
 5    1  0.3311405E-002  0.1250000E+03  0.7818608E-02  0.1235069E+00
         -4   -1    0    0    0  501 -0.00000000000E+00  0.00000000000E+00  0.37186445317E+03  0.37186662183E+03  0.12700000000E+01 0. -1.
          4   -1    0    0  501    0  0.00000000000E+00 -0.00000000000E+00 -0.10463897992E+02  0.10540685993E+02  0.12700000000E+01 0. -1.
         25    2    1    2    0    0  0.00000000000E+00  0.00000000000E+00  0.36140055518E+03  0.38240730783E+03  0.12499995118E+03 0.  0.
    9000005    1    3    3    0    0  0.38152560270E+02  0.30280381137E+02  0.60930062286E+02  0.78012767078E+02  0.10000000000E+01 0.  0.
    9000005    1    3    3    0    0 -0.38152560270E+02 -0.30280381137E+02  0.30047049289E+03  0.30439454075E+03  0.10000000000E+01 0.  0.
<mgrwt>
<rscale>  0 0.12499995E+03</rscale>
<asrwt>0</asrwt>
<pdfrwt beam="2">  1        4 0.16159039E-02 0.12499995E+03</pdfrwt>
<pdfrwt beam="1">  1       -4 0.57215993E-01 0.12499995E+03</pdfrwt>
<totfact> 0.66300638E+03</totfact>
</mgrwt>
</event>
<event>
 5    1  0.3311405E-002  0.1250039E+03  0.7818608E-02  0.1235063E+00
         -4   -1    0    0    0  501 -0.00000000000E+00  0.00000000000E+00  0.11886011407E+02  0.11953667520E+02  0.12700000000E+01 0.  1.
          4   -1    0    0  501    0  0.00000000000E+00 -0.00000000000E+00 -0.32766129856E+03  0.32766375978E+03  0.12700000000E+01 0.  1.
         25    2    1    2    0    0  0.00000000000E+00  0.00000000000E+00 -0.31577528715E+03  0.33961742730E+03  0.12500385974E+03 0.  0.
    9000005    1    3    3    0    0  0.22314928405E+02  0.27459958279E+02 -0.29783829905E+03  0.29993442237E+03  0.10000000000E+01 0.  0.
    9000005    1    3    3    0    0 -0.22314928405E+02 -0.27459958279E+02 -0.17936988100E+02  0.39683004933E+02  0.10000000000E+01 0.  0.
<mgrwt>
<rscale>  0 0.12500386E+03</rscale>
<asrwt>0</asrwt>
<pdfrwt beam="2">  1        4 0.50414817E-01 0.12500386E+03</pdfrwt>
<pdfrwt beam="1">  1       -4 0.18340110E-02 0.12500386E+03</pdfrwt>
<totfact> 0.70876019E+03</totfact>
</mgrwt>
</event>
<event>
 5    1  0.3311405E-002  0.1249979E+03  0.7818608E-02  0.1235073E+00
         -4   -1    0    0    0  501 -0.00000000000E+00  0.00000000000E+00  0.35669867872E+02  0.35692469429E+02  0.12700000000E+01 0. -1.
          4   -1    0    0  501    0  0.00000000000E+00 -0.00000000000E+00 -0.10944652009E+03  0.10945388828E+03  0.12700000000E+01 0. -1.
         25    2    1    2    0    0  0.00000000000E+00  0.00000000000E+00 -0.73776652217E+02  0.14514635771E+03  0.12499788296E+03 0.  0.
    9000005    1    3    3    0    0 -0.10347319255E+02  0.57592623758E+02 -0.11417714208E+02  0.59626684670E+02  0.10000000000E+01 0.  0.
    9000005    1    3    3    0    0  0.10347319255E+02 -0.57592623758E+02 -0.62358938008E+02  0.85519673038E+02  0.10000000000E+01 0.  0.
<mgrwt>
<rscale>  0 0.12499788E+03</rscale>
<asrwt>0</asrwt>
<pdfrwt beam="2">  1        4 0.16840231E-01 0.12499788E+03</pdfrwt>
<pdfrwt beam="1">  1       -4 0.54899774E-02 0.12499788E+03</pdfrwt>
<totfact> 0.10028494E+04</totfact>
</mgrwt>
</event>
<event>
 5    1  0.3311405E-002  0.1250001E+03  0.7818608E-02  0.1235069E+00
         -4   -1    0    0    0  501 -0.00000000000E+00  0.00000000000E+00  0.22319710955E+03  0.22320072269E+03  0.12700000000E+01 0.  1.
          4   -1    0    0  501    0  0.00000000000E+00 -0.00000000000E+00 -0.17474582809E+02  0.17520671915E+02  0.12700000000E+01 0.  1.
         25    2    1    2    0    0  0.00000000000E+00  0.00000000000E+00  0.20572252674E+03  0.24072139461E+03  0.12500012726E+03 0.  0.
    9000005    1    3    3    0    0 -0.53471768961E+02 -0.19270168061E+02  0.15288266879E+03  0.16310941074E+03  0.10000000000E+01 0.  0.
    9000005    1    3    3    0    0  0.53471768961E+02  0.19270168061E+02  0.52839857942E+02  0.77611983870E+02  0.10000000000E+01 0.  0.
<mgrwt>
<rscale>  0 0.12500013E+03</rscale>
<asrwt>0</asrwt>
<pdfrwt beam="2">  1        4 0.26922205E-02 0.12500013E+03</pdfrwt>
<pdfrwt beam="1">  1       -4 0.34341842E-01 0.12500013E+03</pdfrwt>
<totfact> 0.83689806E+03</totfact>
</mgrwt>
</event>
<event>
 5    1  0.3311405E-002  0.1250004E+03  0.7818608E-02  0.1235069E+00
          4   -1    0    0  501    0  0.00000000000E+00  0.00000000000E+00  0.80347763192E+02  0.80357799559E+02  0.12700000000E+01 0.  1.
         -4   -1    0    0    0  501 -0.00000000000E+00 -0.00000000000E+00 -0.48595709013E+02  0.48612301267E+02  0.12700000000E+01 0.  1.
         25    2    1    2    0    0  0.00000000000E+00  0.00000000000E+00  0.31752054179E+02  0.12897010083E+03  0.12500037585E+03 0.  0.
    9000005    1    3    3    0    0  0.22618071589E+02  0.29803411092E+02  0.67520143567E+02  0.77199677865E+02  0.10000000000E+01 0.  0.
    9000005    1    3    3    0    0 -0.22618071589E+02 -0.29803411092E+02 -0.35768089388E+02  0.51770422961E+02  0.10000000000E+01 0.  0.
<mgrwt>
<rscale>  0 0.12500038E+03</rscale>
<asrwt>0</asrwt>
<pdfrwt beam="1">  1        4 0.12363243E-01 0.12500038E+03</pdfrwt>
<pdfrwt beam="2">  1       -4 0.74783113E-02 0.12500038E+03</pdfrwt>
<totfact> 0.10366501E+04</totfact>
</mgrwt>
</event>
<event>
 5    1  0.3311405E-002  0.1249934E+03  0.7818608E-02  0.1235080E+00
          4   -1    0    0  501    0  0.00000000000E+00  0.00000000000E+00  0.19295588864E+04  0.19295593043E+04  0.12700000000E+01 0.  1.
         -4   -1    0    0    0  501 -0.00000000000E+00 -0.00000000000E+00 -0.18245524584E+01  0.22230365885E+01  0.12700000000E+01 0.  1.
         25    2    1    2    0    0  0.00000000000E+00  0.00000000000E+00  0.19277343339E+04  0.19317823409E+04  0.12499340177E+03 0.  0.
    9000005    1    3    3    0    0  0.22694443454E+02  0.52764224633E+02  0.13442430384E+04  0.13454699727E+04  0.10000000000E+01 0.  0.
    9000005    1    3    3    0    0 -0.22694443454E+02 -0.52764224633E+02  0.58349129556E+03  0.58631236825E+03  0.10000000000E+01 0.  0.
<mgrwt>
<rscale>  0 0.12499340E+03</rscale>
<asrwt>0</asrwt>
<pdfrwt beam="1">  1        4 0.29688523E+00 0.12499340E+03</pdfrwt>
<pdfrwt beam="2">  1       -4 0.31138585E-03 0.12499340E+03</pdfrwt>
<totfact> 0.10779643E+03</totfact>
</mgrwt>
</event>
<event>
 5    1  0.3311405E-002  0.1249961E+03  0.7818608E-02  0.1235075E+00
         -4   -1    0    0    0  501 -0.00000000000E+00  0.00000000000E+00  0.63975844254E+01  0.65224218263E+01  0.12700000000E+01 0.  1.
          4   -1    0    0  501    0  0.00000000000E+00 -0.00000000000E+00 -0.60451877755E+03  0.60452011158E+03  0.12700000000E+01 0.  1.
         25    2    1    2    0    0  0.00000000000E+00  0.00000000000E+00 -0.59812119312E+03  0.61104253341E+03  0.12499606383E+03 0.  0.
    9000005    1    3    3    0    0 -0.24018222243E+02  0.54598446766E+02 -0.20797985437E+03  0.21636655289E+03  0.10000000000E+01 0.  0.
    9000005    1    3    3    0    0  0.24018222243E+02 -0.54598446766E+02 -0.39014133875E+03  0.39467598051E+03  0.10000000000E+01 0.  0.
<mgrwt>
<rscale>  0 0.12499606E+03</rscale>
<asrwt>0</asrwt>
<pdfrwt beam="2">  1        4 0.93012549E-01 0.12499606E+03</pdfrwt>
<pdfrwt beam="1">  1       -4 0.99394973E-03 0.12499606E+03</pdfrwt>
<totfact> 0.48182086E+03</totfact>
</mgrwt>
</event>
<event>
 5    1  0.3311405E-002  0.1250015E+03  0.7818608E-02  0.1235067E+00
          4   -1    0    0  501    0  0.00000000000E+00  0.00000000000E+00  0.33443467816E+02  0.33467572956E+02  0.12700000000E+01 0. -1.
         -4   -1    0    0    0  501 -0.00000000000E+00 -0.00000000000E+00 -0.11673479629E+03  0.11674170448E+03  0.12700000000E+01 0. -1.
         25    2    1    2    0    0  0.00000000000E+00  0.00000000000E+00 -0.83291328471E+02  0.15020927743E+03  0.12500152650E+03 0.  0.
    9000005    1    3    3    0    0 -0.46895486120E+00 -0.10808060465E+02  0.32315590646E+02  0.34092982980E+02  0.10000000000E+01 0.  0.
    9000005    1    3    3    0    0  0.46895486120E+00  0.10808060465E+02 -0.11560691912E+03  0.11611629445E+03  0.10000000000E+01 0.  0.
<mgrwt>
<rscale>  0 0.12500153E+03</rscale>
<asrwt>0</asrwt>
<pdfrwt beam="1">  1        4 0.51475346E-02 0.12500153E+03</pdfrwt>
<pdfrwt beam="2">  1       -4 0.17961585E-01 0.12500153E+03</pdfrwt>
<totfact> 0.99258588E+03</totfact>
</mgrwt>
</event>
<event>
 5    1  0.3311405E-002  0.1250248E+03  0.7818608E-02  0.1235030E+00
         -4   -1    0    0    0  501 -0.00000000000E+00  0.00000000000E+00  0.27984215069E+03  0.27984503247E+03  0.12700000000E+01 0.  1.
          4   -1    0    0  501    0  0.00000000000E+00 -0.00000000000E+00 -0.13932471035E+02  0.13990234063E+02  0.12700000000E+01 0.  1.
         25    2    1    2    0    0  0.00000000000E+00  0.00000000000E+00  0.26590967965E+03  0.29383526654E+03  0.12502482205E+03 0.  0.
    9000005    1    3    3    0    0  0.44922078521E+02 -0.95166338422E+01  0.33292345697E+02  0.56726887279E+02  0.10000000000E+01 0.  0.
    9000005    1    3    3    0    0 -0.44922078521E+02  0.95166338422E+01  0.23261733395E+03  0.23710837926E+03  0.10000000000E+01 0.  0.
<mgrwt>
<rscale>  0 0.12502482E+03</rscale>
<asrwt>0</asrwt>
<pdfrwt beam="2">  1        4 0.21481220E-02 0.12502482E+03</pdfrwt>
<pdfrwt beam="1">  1       -4 0.43057305E-01 0.12502482E+03</pdfrwt>
<totfact> 0.76336605E+03</totfact>
</mgrwt>
</event>
<event>
 5    1  0.3311405E-002  0.1249988E+03  0.7818608E-02  0.1235071E+00
         -4   -1    0    0    0  501 -0.00000000000E+00  0.00000000000E+00  0.38943715565E+03  0.38943922645E+03  0.12700000000E+01 0. -1.
          4   -1    0    0  501    0  0.00000000000E+00 -0.00000000000E+00 -0.99880059051E+01  0.10068424006E+02  0.12700000000E+01 0. -1.
         25    2    1    2    0    0  0.00000000000E+00  0.00000000000E+00  0.37944914974E+03  0.39950765045E+03  0.12499882213E+03 0.  0.
    9000005    1    3    3    0    0 -0.13760058062E+02  0.53519054883E+02  0.28299065700E+03  0.28833719910E+03  0.10000000000E+01 0.  0.
    9000005    1    3    3    0    0  0.13760058062E+02 -0.53519054883E+02  0.96458492736E+02  0.11117045135E+03  0.10000000000E+01 0.  0.
<mgrwt>
<rscale>  0 0.12499882E+03</rscale>
<asrwt>0</asrwt>
<pdfrwt beam="2">  1        4 0.15429616E-02 0.12499882E+03</pdfrwt>
<pdfrwt beam="1">  1       -4 0.59919754E-01 0.12499882E+03</pdfrwt>
<totfact> 0.64602381E+03</totfact>
</mgrwt>
</event>
<event>
 4    1  0.3311405E-002  0.1240929E+03  0.7818608E-02  0.1236494E+00
         -4   -1    0    0    0  501 -0.00000000000E+00  0.00000000000E+00  0.40727907769E+01  0.42662072983E+01  0.12700000000E+01 0. -1.
          4   -1    0    0  501    0  0.00000000000E+00 -0.00000000000E+00 -0.92312065533E+03  0.92312152895E+03  0.12700000000E+01 0. -1.
    9000005    1    1    2    0    0  0.57905895651E+02  0.20087233814E+02 -0.38777628100E+03  0.39259143371E+03  0.10000000000E+01 0.  0.
    9000005    1    1    2    0    0 -0.57905895651E+02 -0.20087233814E+02 -0.53127158356E+03  0.53479630254E+03  0.10000000000E+01 0.  0.
<mgrwt>
<rscale>  0 0.12409285E+03</rscale>
<asrwt>0</asrwt>
<pdfrwt beam="2">  1        4 0.14203334E+00 0.12409285E+03</pdfrwt>
<pdfrwt beam="1">  1       -4 0.64152933E-03 0.12409285E+03</pdfrwt>
<totfact> 0.33797220E+03</totfact>
</mgrwt>
</event>
<event>
 5    1  0.3311405E-002  0.1250048E+03  0.7818608E-02  0.1235062E+00
         -4   -1    0    0    0  501 -0.00000000000E+00  0.00000000000E+00  0.10164655095E+03  0.10165448450E+03  0.12700000000E+01 0. -1.
          4   -1    0    0  501    0  0.00000000000E+00 -0.00000000000E+00 -0.38412756545E+02  0.38433745138E+02  0.12700000000E+01 0. -1.
         25    2    1    2    0    0  0.00000000000E+00  0.00000000000E+00  0.63233794403E+02  0.14008822964E+03  0.12500479723E+03 0.  0.
    9000005    1    3    3    0    0  0.43846818579E+02  0.11041482768E+01 -0.18271950769E+02  0.47525012654E+02  0.10000000000E+01 0.  0.
    9000005    1    3    3    0    0 -0.43846818579E+02 -0.11041482768E+01  0.81505745172E+02  0.92563216987E+02  0.10000000000E+01 0.  0.
<mgrwt>
<rscale>  0 0.12500480E+03</rscale>
<asrwt>0</asrwt>
<pdfrwt beam="2">  1        4 0.59118798E-02 0.12500480E+03</pdfrwt>
<pdfrwt beam="1">  1       -4 0.15640155E-01 0.12500480E+03</pdfrwt>
<totfact> 0.10130663E+04</totfact>
</mgrwt>
</event>
<event>
 5    1  0.3311405E-002  0.1250033E+03  0.7818608E-02  0.1235064E+00
          4   -1    0    0  501    0  0.00000000000E+00  0.00000000000E+00  0.98256241047E+02  0.98264448325E+02  0.12700000000E+01 0. -1.
         -4   -1    0    0    0  501 -0.00000000000E+00 -0.00000000000E+00 -0.39737804712E+02  0.39758093809E+02  0.12700000000E+01 0. -1.
         25    2    1    2    0    0  0.00000000000E+00  0.00000000000E+00  0.58518436335E+02  0.13802254213E+03  0.12500325894E+03 0.  0.
    9000005    1    3    3    0    0 -0.26035117002E+01 -0.60262468694E+02  0.11213507576E+02  0.61360297900E+02  0.10000000000E+01 0.  0.
    9000005    1    3    3    0    0  0.26035117002E+01  0.60262468694E+02  0.47304928758E+02  0.76662244235E+02  0.10000000000E+01 0.  0.
<mgrwt>
<rscale>  0 0.12500326E+03</rscale>
<asrwt>0</asrwt>
<pdfrwt beam="1">  1        4 0.15118537E-01 0.12500326E+03</pdfrwt>
<pdfrwt beam="2">  1       -4 0.61157005E-02 0.12500326E+03</pdfrwt>
<totfact> 0.10173988E+04</totfact>
</mgrwt>
</event>
<event>
 5    1  0.3311405E-002  0.1249952E+03  0.7818608E-02  0.1235077E+00
          4   -1    0    0  501    0  0.00000000000E+00  0.00000000000E+00  0.18813518151E+02  0.18856334883E+02  0.12700000000E+01 0.  1.
         -4   -1    0    0    0  501 -0.00000000000E+00 -0.00000000000E+00 -0.20733342371E+03  0.20733731330E+03  0.12700000000E+01 0.  1.
         25    2    1    2    0    0  0.00000000000E+00  0.00000000000E+00 -0.18851990556E+03  0.22619364819E+03  0.12499524666E+03 0.  0.
    9000005    1    3    3    0    0 -0.58618842029E+02 -0.18423761554E+02 -0.11484106941E+03  0.13025004743E+03  0.10000000000E+01 0.  0.
    9000005    1    3    3    0    0  0.58618842029E+02  0.18423761554E+02 -0.73678836146E+02  0.95943600758E+02  0.10000000000E+01 0.  0.
<mgrwt>
<rscale>  0 0.12499525E+03</rscale>
<asrwt>0</asrwt>
<pdfrwt beam="1">  1        4 0.28979803E-02 0.12499525E+03</pdfrwt>
<pdfrwt beam="2">  1       -4 0.31901041E-01 0.12499525E+03</pdfrwt>
<totfact> 0.85906627E+03</totfact>
</mgrwt>
</event>
<event>
 5    1  0.3311405E-002  0.1250001E+03  0.7818608E-02  0.1235069E+00
          4   -1    0    0  501    0  0.00000000000E+00  0.00000000000E+00  0.17295187512E+03  0.17295653791E+03  0.12700000000E+01 0.  1.
         -4   -1    0    0    0  501 -0.00000000000E+00 -0.00000000000E+00 -0.22562958283E+02  0.22598672228E+02  0.12700000000E+01 0.  1.
         25    2    1    2    0    0  0.00000000000E+00  0.00000000000E+00  0.15038891683E+03  0.19555521014E+03  0.12500005563E+03 0.  0.
    9000005    1    3    3    0    0  0.59123871157E+02 -0.72296215730E+01  0.45620568433E+02  0.75034231073E+02  0.10000000000E+01 0.  0.
    9000005    1    3    3    0    0 -0.59123871157E+02  0.72296215730E+01  0.10476834840E+03  0.12052097907E+03  0.10000000000E+01 0.  0.
<mgrwt>
<rscale>  0 0.12500006E+03</rscale>
<asrwt>0</asrwt>
<pdfrwt beam="1">  1        4 0.26611086E-01 0.12500006E+03</pdfrwt>
<pdfrwt beam="2">  1       -4 0.34743304E-02 0.12500006E+03</pdfrwt>
<totfact> 0.90889497E+03</totfact>
</mgrwt>
</event>
<event>
 5    1  0.3311405E-002  0.1250027E+03  0.7818608E-02  0.1235065E+00
         -4   -1    0    0    0  501 -0.00000000000E+00  0.00000000000E+00  0.14168842096E+02  0.14225645375E+02  0.12700000000E+01 0.  1.
          4   -1    0    0  501    0  0.00000000000E+00 -0.00000000000E+00 -0.27509522096E+03  0.27509815247E+03  0.12700000000E+01 0.  1.
         25    2    1    2    0    0  0.00000000000E+00  0.00000000000E+00 -0.26092637886E+03  0.28932379785E+03  0.12500273923E+03 0.  0.
    9000005    1    3    3    0    0 -0.38310823123E+02  0.49083921543E+02 -0.11811328611E+03  0.13352415092E+03  0.10000000000E+01 0.  0.
    9000005    1    3    3    0    0  0.38310823123E+02 -0.49083921543E+02 -0.14281309275E+03  0.15579964693E+03  0.10000000000E+01 0.  0.
<mgrwt>
<rscale>  0 0.12500274E+03</rscale>
<asrwt>0</asrwt>
<pdfrwt beam="2">  1        4 0.42326933E-01 0.12500274E+03</pdfrwt>
<pdfrwt beam="1">  1       -4 0.21844171E-02 0.12500274E+03</pdfrwt>
<totfact> 0.76953178E+03</totfact>
</mgrwt>
</event>
<event>
 5    1  0.3311405E-002  0.1249978E+03  0.7818608E-02  0.1235073E+00
         -4   -1    0    0    0  501 -0.00000000000E+00  0.00000000000E+00  0.15142410333E+02  0.15195574708E+02  0.12700000000E+01 0.  1.
          4   -1    0    0  501    0  0.00000000000E+00 -0.00000000000E+00 -0.25745157033E+03  0.25745470275E+03  0.12700000000E+01 0.  1.
         25    2    1    2    0    0  0.00000000000E+00  0.00000000000E+00 -0.24230916000E+03  0.27265027745E+03  0.12499777909E+03 0.  0.
    9000005    1    3    3    0    0  0.58550835435E+02 -0.11896009379E+02 -0.81207736026E+02  0.10082366667E+03  0.10000000000E+01 0.  0.
    9000005    1    3    3    0    0 -0.58550835435E+02  0.11896009379E+02 -0.16110142397E+03  0.17182661079E+03  0.10000000000E+01 0.  0.
<mgrwt>
<rscale>  0 0.12499778E+03</rscale>
<asrwt>0</asrwt>
<pdfrwt beam="2">  1        4 0.39612261E-01 0.12499778E+03</pdfrwt>
<pdfrwt beam="1">  1       -4 0.23339323E-02 0.12499778E+03</pdfrwt>
<totfact> 0.79166739E+03</totfact>
</mgrwt>
</event>
<event>
 5    1  0.3311405E-002  0.1249910E+03  0.7818608E-02  0.1235083E+00
          4   -1    0    0  501    0  0.00000000000E+00  0.00000000000E+00  0.18390883127E+03  0.18391321627E+03  0.12700000000E+01 0.  1.
         -4   -1    0    0    0  501 -0.00000000000E+00 -0.00000000000E+00 -0.21213469121E+02  0.21251451059E+02  0.12700000000E+01 0.  1.
         25    2    1    2    0    0  0.00000000000E+00  0.00000000000E+00  0.16269536215E+03  0.20516466733E+03  0.12499103910E+03 0.  0.
    9000005    1    3    3    0    0 -0.37251129057E+02 -0.50135327327E+02  0.84415145799E+02  0.10501482992E+03  0.10000000000E+01 0.  0.
    9000005    1    3    3    0    0  0.37251129057E+02  0.50135327327E+02  0.78280216354E+02  0.10014983742E+03  0.10000000000E+01 0.  0.
<mgrwt>
<rscale>  0 0.12499104E+03</rscale>
<asrwt>0</asrwt>
<pdfrwt beam="1">  1        4 0.28296925E-01 0.12499104E+03</pdfrwt>
<pdfrwt beam="2">  1       -4 0.32668696E-02 0.12499104E+03</pdfrwt>
<totfact> 0.89289587E+03</totfact>
</mgrwt>
</event>
<event>
 5    1  0.3311405E-002  0.1250000E+03  0.7818608E-02  0.1235069E+00
          4   -1    0    0  501    0  0.00000000000E+00  0.00000000000E+00  0.27161771694E+03  0.27162068598E+03  0.12700000000E+01 0. -1.
         -4   -1    0    0    0  501 -0.00000000000E+00 -0.00000000000E+00 -0.14350334746E+02  0.14406422433E+02  0.12700000000E+01 0. -1.
         25    2    1    2    0    0  0.00000000000E+00  0.00000000000E+00  0.25726738219E+03  0.28602710842E+03  0.12500000324E+03 0.  0.
    9000005    1    3    3    0    0  0.39743228024E+02  0.21159382816E+02  0.29471589505E+02  0.53822098090E+02  0.10000000000E+01 0.  0.
    9000005    1    3    3    0    0 -0.39743228024E+02 -0.21159382816E+02  0.22779579269E+03  0.23220501033E+03  0.10000000000E+01 0.  0.
<mgrwt>
<rscale>  0 0.12500000E+03</rscale>
<asrwt>0</asrwt>
<pdfrwt beam="1">  1        4 0.41791883E-01 0.12500000E+03</pdfrwt>
<pdfrwt beam="2">  1       -4 0.22122867E-02 0.12500000E+03</pdfrwt>
<totfact> 0.77385676E+03</totfact>
</mgrwt>
</event>
<event>
 5    1  0.3311405E-002  0.1250029E+03  0.7818608E-02  0.1235065E+00
         -4   -1    0    0    0  501 -0.00000000000E+00  0.00000000000E+00  0.33545273805E+02  0.33569305841E+02  0.12700000000E+01 0.  1.
          4   -1    0    0  501    0  0.00000000000E+00 -0.00000000000E+00 -0.11638330331E+03  0.11639023236E+03  0.12700000000E+01 0.  1.
         25    2    1    2    0    0  0.00000000000E+00  0.00000000000E+00 -0.82838029507E+02  0.14995953820E+03  0.12500289583E+03 0.  0.
    9000005    1    3    3    0    0  0.39169906895E+02  0.42984135097E+02 -0.68867473874E+02  0.90142367586E+02  0.10000000000E+01 0.  0.
    9000005    1    3    3    0    0 -0.39169906895E+02 -0.42984135097E+02 -0.13970555632E+02  0.59817170619E+02  0.10000000000E+01 0.  0.
<mgrwt>
<rscale>  0 0.12500290E+03</rscale>
<asrwt>0</asrwt>
<pdfrwt beam="2">  1        4 0.17907505E-01 0.12500290E+03</pdfrwt>
<pdfrwt beam="1">  1       -4 0.51631930E-02 0.12500290E+03</pdfrwt>
<totfact> 0.99305292E+03</totfact>
</mgrwt>
</event>
<event>
 5    1  0.3311405E-002  0.1249980E+03  0.7818608E-02  0.1235072E+00
          4   -1    0    0  501    0  0.00000000000E+00  0.00000000000E+00  0.85567712354E+03  0.85567806601E+03  0.12700000000E+01 0. -1.
         -4   -1    0    0    0  501 -0.00000000000E+00 -0.00000000000E+00 -0.44756551809E+01  0.46523530927E+01  0.12700000000E+01 0. -1.
         25    2    1    2    0    0  0.00000000000E+00  0.00000000000E+00  0.85120146836E+03  0.86033041910E+03  0.12499796117E+03 0.  0.
    9000005    1    3    3    0    0  0.48052078868E+02  0.25092332625E+02  0.63957531550E+03  0.64186931041E+03  0.10000000000E+01 0.  0.
    9000005    1    3    3    0    0 -0.48052078868E+02 -0.25092332625E+02  0.21162615285E+03  0.21846110869E+03  0.10000000000E+01 0.  0.
<mgrwt>
<rscale>  0 0.12499796E+03</rscale>
<asrwt>0</asrwt>
<pdfrwt beam="1">  1        4 0.13165612E+00 0.12499796E+03</pdfrwt>
<pdfrwt beam="2">  1       -4 0.70222792E-03 0.12499796E+03</pdfrwt>
<totfact> 0.35709918E+03</totfact>
</mgrwt>
</event>
<event>
 5    1  0.3311405E-002  0.1250126E+03  0.7818608E-02  0.1235050E+00
          4   -1    0    0  501    0  0.00000000000E+00  0.00000000000E+00  0.34948389660E+03  0.34948620414E+03  0.12700000000E+01 0. -1.
         -4   -1    0    0    0  501 -0.00000000000E+00 -0.00000000000E+00 -0.11141029903E+02  0.11213181854E+02  0.12700000000E+01 0. -1.
         25    2    1    2    0    0  0.00000000000E+00  0.00000000000E+00  0.33834286670E+03  0.36069938599E+03  0.12501260581E+03 0.  0.
    9000005    1    3    3    0    0 -0.56669893613E+01  0.42108550879E+02  0.36925223538E+02  0.56300239421E+02  0.10000000000E+01 0.  0.
    9000005    1    3    3    0    0  0.56669893613E+01 -0.42108550879E+02  0.30141764316E+03  0.30439914657E+03  0.10000000000E+01 0.  0.
<mgrwt>
<rscale>  0 0.12501261E+03</rscale>
<asrwt>0</asrwt>
<pdfrwt beam="1">  1        4 0.53772481E-01 0.12501261E+03</pdfrwt>
<pdfrwt beam="2">  1       -4 0.17197322E-02 0.12501261E+03</pdfrwt>
<totfact> 0.68544197E+03</totfact>
</mgrwt>
</event>
<event>
 5    1  0.3311405E-002  0.1249968E+03  0.7818608E-02  0.1235074E+00
          4   -1    0    0  501    0  0.00000000000E+00  0.00000000000E+00  0.49518770066E+02  0.49535053132E+02  0.12700000000E+01 0. -1.
         -4   -1    0    0    0  501 -0.00000000000E+00 -0.00000000000E+00 -0.78845807714E+02  0.78856035242E+02  0.12700000000E+01 0. -1.
         25    2    1    2    0    0  0.00000000000E+00  0.00000000000E+00 -0.29327037649E+02  0.12839108837E+03  0.12499678571E+03 0.  0.
    9000005    1    3    3    0    0  0.10182229541E+02  0.52242776400E+02 -0.48295024842E+02  0.71877638448E+02  0.10000000000E+01 0.  0.
    9000005    1    3    3    0    0 -0.10182229541E+02 -0.52242776400E+02  0.18967987193E+02  0.56513449926E+02  0.10000000000E+01 0.  0.
<mgrwt>
<rscale>  0 0.12499679E+03</rscale>
<asrwt>0</asrwt>
<pdfrwt beam="1">  1        4 0.76203116E-02 0.12499679E+03</pdfrwt>
<pdfrwt beam="2">  1       -4 0.12132164E-01 0.12499679E+03</pdfrwt>
<totfact> 0.10379803E+04</totfact>
</mgrwt>
</event>
<event>
 5    1  0.3311405E-002  0.1249931E+03  0.7818608E-02  0.1235080E+00
         -4   -1    0    0    0  501 -0.00000000000E+00  0.00000000000E+00  0.90831533363E+03  0.90831622148E+03  0.12700000000E+01 0. -1.
          4   -1    0    0  501    0  0.00000000000E+00 -0.00000000000E+00 -0.42053902623E+01  0.43929724855E+01  0.12700000000E+01 0. -1.
         25    2    1    2    0    0  0.00000000000E+00  0.00000000000E+00  0.90410994336E+03  0.91270919396E+03  0.12499313204E+03 0.  0.
    9000005    1    3    3    0    0 -0.15630549023E+02 -0.36127126065E+02  0.80643794262E+03  0.80739868627E+03  0.10000000000E+01 0.  0.
    9000005    1    3    3    0    0  0.15630549023E+02  0.36127126065E+02  0.97672000745E+02  0.10531050769E+03  0.10000000000E+01 0.  0.
<mgrwt>
<rscale>  0 0.12499313E+03</rscale>
<asrwt>0</asrwt>
<pdfrwt beam="2">  1        4 0.66148017E-03 0.12499313E+03</pdfrwt>
<pdfrwt beam="1">  1       -4 0.13975546E+00 0.12499313E+03</pdfrwt>
<totfact> 0.33682939E+03</totfact>
</mgrwt>
</event>
<event>
 5    1  0.3311405E-002  0.1249972E+03  0.7818608E-02  0.1235074E+00
         -4   -1    0    0    0  501 -0.00000000000E+00  0.00000000000E+00  0.45117413870E+02  0.45135284804E+02  0.12700000000E+01 0.  1.
          4   -1    0    0  501    0  0.00000000000E+00 -0.00000000000E+00 -0.86536084569E+02  0.86545403301E+02  0.12700000000E+01 0.  1.
         25    2    1    2    0    0  0.00000000000E+00  0.00000000000E+00 -0.41418670698E+02  0.13168068810E+03  0.12499718932E+03 0.  0.
    9000005    1    3    3    0    0  0.39158499150E+02 -0.27299165279E+02  0.21776201513E+02  0.52476999084E+02  0.10000000000E+01 0.  0.
    9000005    1    3    3    0    0 -0.39158499150E+02  0.27299165279E+02 -0.63194872211E+02  0.79203689020E+02  0.10000000000E+01 0.  0.
<mgrwt>
<rscale>  0 0.12499719E+03</rscale>
<asrwt>0</asrwt>
<pdfrwt beam="2">  1        4 0.13315335E-01 0.12499719E+03</pdfrwt>
<pdfrwt beam="1">  1       -4 0.69432321E-02 0.12499719E+03</pdfrwt>
<totfact> 0.10309172E+04</totfact>
</mgrwt>
</event>
<event>
 5    1  0.3311405E-002  0.1250051E+03  0.7818608E-02  0.1235061E+00
         -4   -1    0    0    0  501 -0.00000000000E+00  0.00000000000E+00  0.34161566967E+03  0.34161803036E+03  0.12700000000E+01 0. -1.
          4   -1    0    0  501    0  0.00000000000E+00 -0.00000000000E+00 -0.11397897579E+02  0.11468433599E+02  0.12700000000E+01 0. -1.
         25    2    1    2    0    0  0.00000000000E+00  0.00000000000E+00  0.33021777209E+03  0.35308646396E+03  0.12500509599E+03 0.  0.
    9000005    1    3    3    0    0  0.27747464132E+02  0.18742918165E+02  0.16064629510E+02  0.37152268685E+02  0.10000000000E+01 0.  0.
    9000005    1    3    3    0    0 -0.27747464132E+02 -0.18742918165E+02  0.31415314258E+03  0.31593419527E+03  0.10000000000E+01 0.  0.
<mgrwt>
<rscale>  0 0.12500510E+03</rscale>
<asrwt>0</asrwt>
<pdfrwt beam="2">  1        4 0.17591301E-02 0.12500510E+03</pdfrwt>
<pdfrwt beam="1">  1       -4 0.52561866E-01 0.12500510E+03</pdfrwt>
<totfact> 0.69378510E+03</totfact>
</mgrwt>
</event>
<event>
 5    1  0.3311405E-002  0.1250033E+03  0.7818608E-02  0.1235064E+00
          4   -1    0    0  501    0  0.00000000000E+00  0.00000000000E+00  0.48625384434E+01  0.50256522077E+01  0.12700000000E+01 0.  1.
         -4   -1    0    0    0  501 -0.00000000000E+00 -0.00000000000E+00 -0.78996253224E+03  0.78996355311E+03  0.12700000000E+01 0.  1.
         25    2    1    2    0    0  0.00000000000E+00  0.00000000000E+00 -0.78509999379E+03  0.79498920531E+03  0.12500334521E+03 0.  0.
    9000005    1    3    3    0    0 -0.19067701430E+02  0.59172653987E+02 -0.35208740152E+03  0.35753533885E+03  0.10000000000E+01 0.  0.
    9000005    1    3    3    0    0  0.19067701430E+02 -0.59172653987E+02 -0.43301259227E+03  0.43745386646E+03  0.10000000000E+01 0.  0.
<mgrwt>
<rscale>  0 0.12500335E+03</rscale>
<asrwt>0</asrwt>
<pdfrwt beam="1">  1        4 0.76070921E-03 0.12500335E+03</pdfrwt>
<pdfrwt beam="2">  1       -4 0.12154522E+00 0.12500335E+03</pdfrwt>
<totfact> 0.38486617E+03</totfact>
</mgrwt>
</event>
<event>
 5    1  0.3311405E-002  0.1249995E+03  0.7818608E-02  0.1235070E+00
         -4   -1    0    0    0  501 -0.00000000000E+00  0.00000000000E+00  0.37162281428E+02  0.37183975863E+02  0.12700000000E+01 0. -1.
          4   -1    0    0  501    0  0.00000000000E+00 -0.00000000000E+00 -0.10505631847E+03  0.10506399455E+03  0.12700000000E+01 0. -1.
         25    2    1    2    0    0  0.00000000000E+00  0.00000000000E+00 -0.67894037039E+02  0.14224797041E+03  0.12499953928E+03 0.  0.
    9000005    1    3    3    0    0 -0.49553058413E+02 -0.25639240864E+02 -0.65979811667E+02  0.86413030371E+02  0.10000000000E+01 0.  0.
    9000005    1    3    3    0    0  0.49553058413E+02  0.25639240864E+02 -0.19142253717E+01  0.55834940037E+02  0.10000000000E+01 0.  0.
<mgrwt>
<rscale>  0 0.12499954E+03</rscale>
<asrwt>0</asrwt>
<pdfrwt beam="2">  1        4 0.16164770E-01 0.12499954E+03</pdfrwt>
<pdfrwt beam="1">  1       -4 0.57195334E-02 0.12499954E+03</pdfrwt>
<totfact> 0.10087311E+04</totfact>
</mgrwt>
</event>
<event>
 5    1  0.3311405E-002  0.1249997E+03  0.7818608E-02  0.1235070E+00
          4   -1    0    0  501    0  0.00000000000E+00  0.00000000000E+00  0.47683816302E+02  0.47700725750E+02  0.12700000000E+01 0.  1.
         -4   -1    0    0    0  501 -0.00000000000E+00 -0.00000000000E+00 -0.81883115902E+02  0.81892964104E+02  0.12700000000E+01 0.  1.
         25    2    1    2    0    0  0.00000000000E+00  0.00000000000E+00 -0.34199299600E+02  0.12959368985E+03  0.12499972943E+03 0.  0.
    9000005    1    3    3    0    0  0.38677744128E+02 -0.17120685681E+02  0.30592591426E+02  0.52211037331E+02  0.10000000000E+01 0.  0.
    9000005    1    3    3    0    0 -0.38677744128E+02  0.17120685681E+02 -0.64791891026E+02  0.77382652524E+02  0.10000000000E+01 0.  0.
<mgrwt>
<rscale>  0 0.12499973E+03</rscale>
<asrwt>0</asrwt>
<pdfrwt beam="1">  1        4 0.73380300E-02 0.12499973E+03</pdfrwt>
<pdfrwt beam="2">  1       -4 0.12599461E-01 0.12499973E+03</pdfrwt>
<totfact> 0.10353270E+04</totfact>
</mgrwt>
</event>
<event>
 5    1  0.3311405E-002  0.1249963E+03  0.7818608E-02  0.1235075E+00
         -4   -1    0    0    0  501 -0.00000000000E+00  0.00000000000E+00  0.45933978340E+01  0.47657322272E+01  0.12700000000E+01 0. -1.
          4   -1    0    0  501    0  0.00000000000E+00 -0.00000000000E+00 -0.83452404388E+03  0.83452501024E+03  0.12700000000E+01 0. -1.
         25    2    1    2    0    0  0.00000000000E+00  0.00000000000E+00 -0.82993064604E+03  0.83929074246E+03  0.12499629251E+03 0.  0.
    9000005    1    3    3    0    0  0.17127796444E+02 -0.44988330084E+02 -0.14741807692E+03  0.15508191596E+03  0.10000000000E+01 0.  0.
    9000005    1    3    3    0    0 -0.17127796444E+02  0.44988330084E+02 -0.68251256912E+03  0.68420882650E+03  0.10000000000E+01 0.  0.
<mgrwt>
<rscale>  0 0.12499629E+03</rscale>
<asrwt>0</asrwt>
<pdfrwt beam="2">  1        4 0.12840153E+00 0.12499629E+03</pdfrwt>
<pdfrwt beam="1">  1       -4 0.72000808E-03 0.12499629E+03</pdfrwt>
<totfact> 0.36572601E+03</totfact>
</mgrwt>
</event>
<event>
 5    1  0.3311405E-002  0.1249857E+03  0.7818608E-02  0.1235092E+00
         -4   -1    0    0    0  501 -0.00000000000E+00  0.00000000000E+00  0.88399257196E+01  0.89306879202E+01  0.12700000000E+01 0.  1.
          4   -1    0    0  501    0  0.00000000000E+00 -0.00000000000E+00 -0.43943836138E+03  0.43944019656E+03  0.12700000000E+01 0.  1.
         25    2    1    2    0    0  0.00000000000E+00  0.00000000000E+00 -0.43059843566E+03  0.44837088448E+03  0.12498574821E+03 0.  0.
    9000005    1    3    3    0    0  0.12132120966E+02 -0.36928471112E+02 -0.39794052407E+02  0.55636920698E+02  0.10000000000E+01 0.  0.
    9000005    1    3    3    0    0 -0.12132120966E+02  0.36928471112E+02 -0.39080438326E+03  0.39273396379E+03  0.10000000000E+01 0.  0.
<mgrwt>
<rscale>  0 0.12498575E+03</rscale>
<asrwt>0</asrwt>
<pdfrwt beam="2">  1        4 0.67613008E-01 0.12498575E+03</pdfrwt>
<pdfrwt beam="1">  1       -4 0.13671118E-02 0.12498575E+03</pdfrwt>
<totfact> 0.60124066E+03</totfact>
</mgrwt>
</event>
<event>
 5    1  0.3311405E-002  0.1249983E+03  0.7818608E-02  0.1235072E+00
         -4   -1    0    0    0  501 -0.00000000000E+00  0.00000000000E+00  0.42672618706E+03  0.42672807691E+03  0.12700000000E+01 0. -1.
          4   -1    0    0  501    0  0.00000000000E+00 -0.00000000000E+00 -0.91077712530E+01  0.91958902341E+01  0.12700000000E+01 0. -1.
         25    2    1    2    0    0  0.00000000000E+00  0.00000000000E+00  0.41761841581E+03  0.43592396715E+03  0.12499825562E+03 0.  0.
    9000005    1    3    3    0    0  0.48288717030E+02 -0.36457053499E+02  0.26330977184E+03  0.27017393081E+03  0.10000000000E+01 0.  0.
    9000005    1    3    3    0    0 -0.48288717030E+02  0.36457053499E+02  0.15430864397E+03  0.16575003634E+03  0.10000000000E+01 0.  0.
<mgrwt>
<rscale>  0 0.12499826E+03</rscale>
<asrwt>0</asrwt>
<pdfrwt beam="2">  1        4 0.14081193E-02 0.12499826E+03</pdfrwt>
<pdfrwt beam="1">  1       -4 0.65657110E-01 0.12499826E+03</pdfrwt>
<totfact> 0.61205016E+03</totfact>
</mgrwt>
</event>
<event>
 5    1  0.3311405E-002  0.1249903E+03  0.7818608E-02  0.1235084E+00
          4   -1    0    0  501    0  0.00000000000E+00  0.00000000000E+00  0.81667795742E+01  0.82649373024E+01  0.12700000000E+01 0. -1.
         -4   -1    0    0    0  501 -0.00000000000E+00 -0.00000000000E+00 -0.47527953669E+03  0.47528123348E+03  0.12700000000E+01 0. -1.
         25    2    1    2    0    0  0.00000000000E+00  0.00000000000E+00 -0.46711275712E+03  0.48354617078E+03  0.12499028529E+03 0.  0.
    9000005    1    3    3    0    0  0.30313296819E+02  0.45376934313E+02 -0.11578852670E+03  0.12800759762E+03  0.10000000000E+01 0.  0.
    9000005    1    3    3    0    0 -0.30313296819E+02 -0.45376934313E+02 -0.35132423041E+03  0.35553857316E+03  0.10000000000E+01 0.  0.
<mgrwt>
<rscale>  0 0.12499029E+03</rscale>
<asrwt>0</asrwt>
<pdfrwt beam="1">  1        4 0.12641091E-02 0.12499029E+03</pdfrwt>
<pdfrwt beam="2">  1       -4 0.73127588E-01 0.12499029E+03</pdfrwt>
<totfact> 0.57176197E+03</totfact>
</mgrwt>
</event>
<event>
 5    1  0.3311405E-002  0.1249990E+03  0.7818608E-02  0.1235071E+00
          4   -1    0    0  501    0  0.00000000000E+00  0.00000000000E+00  0.66347056030E+03  0.66347177580E+03  0.12700000000E+01 0.  1.
         -4   -1    0    0    0  501 -0.00000000000E+00 -0.00000000000E+00 -0.58177819623E+01  0.59547868946E+01  0.12700000000E+01 0.  1.
         25    2    1    2    0    0  0.00000000000E+00  0.00000000000E+00  0.65765277833E+03  0.66942656269E+03  0.12499898395E+03 0.  0.
    9000005    1    3    3    0    0 -0.33001898611E+02  0.10996318606E+02  0.60685359639E+03  0.60785058344E+03  0.10000000000E+01 0.  0.
    9000005    1    3    3    0    0  0.33001898611E+02 -0.10996318606E+02  0.50799181942E+02  0.61575979251E+02  0.10000000000E+01 0.  0.
<mgrwt>
<rscale>  0 0.12499898E+03</rscale>
<asrwt>0</asrwt>
<pdfrwt beam="1">  1        4 0.10208300E+00 0.12499898E+03</pdfrwt>
<pdfrwt beam="2">  1       -4 0.90567592E-03 0.12499898E+03</pdfrwt>
<totfact> 0.44751488E+03</totfact>
</mgrwt>
</event>
<event>
 5    1  0.3311405E-002  0.1249992E+03  0.7818608E-02  0.1235070E+00
         -4   -1    0    0    0  501 -0.00000000000E+00  0.00000000000E+00  0.53354260195E+02  0.53369373062E+02  0.12700000000E+01 0.  1.
          4   -1    0    0  501    0  0.00000000000E+00 -0.00000000000E+00 -0.73181562149E+02  0.73192581171E+02  0.12700000000E+01 0.  1.
         25    2    1    2    0    0  0.00000000000E+00  0.00000000000E+00 -0.19827301953E+02  0.12656195423E+03  0.12499922542E+03 0.  0.
    9000005    1    3    3    0    0  0.56974566944E+02 -0.10919015078E+02 -0.33439354946E+02  0.66966533642E+02  0.10000000000E+01 0.  0.
    9000005    1    3    3    0    0 -0.56974566944E+02  0.10919015078E+02  0.13612052992E+02  0.59595420591E+02  0.10000000000E+01 0.  0.
<mgrwt>
<rscale>  0 0.12499923E+03</rscale>
<asrwt>0</asrwt>
<pdfrwt beam="2">  1        4 0.11260712E-01 0.12499923E+03</pdfrwt>
<pdfrwt beam="1">  1       -4 0.82103578E-02 0.12499923E+03</pdfrwt>
<totfact> 0.10418860E+04</totfact>
</mgrwt>
</event>
<event>
 5    1  0.3311405E-002  0.1250045E+03  0.7818608E-02  0.1235062E+00
         -4   -1    0    0    0  501 -0.00000000000E+00  0.00000000000E+00  0.49508764651E+01  0.51111718590E+01  0.12700000000E+01 0. -1.
          4   -1    0    0  501    0  0.00000000000E+00 -0.00000000000E+00 -0.77632798641E+03  0.77632902521E+03  0.12700000000E+01 0. -1.
         25    2    1    2    0    0  0.00000000000E+00  0.00000000000E+00 -0.77137710995E+03  0.78144019707E+03  0.12500454331E+03 0.  0.
    9000005    1    3    3    0    0 -0.31817147725E+02 -0.52757317624E+02 -0.45121348514E+03  0.45540122378E+03  0.10000000000E+01 0.  0.
    9000005    1    3    3    0    0  0.31817147725E+02  0.52757317624E+02 -0.32016362481E+03  0.32603897329E+03  0.10000000000E+01 0.  0.
<mgrwt>
<rscale>  0 0.12500454E+03</rscale>
<asrwt>0</asrwt>
<pdfrwt beam="2">  1        4 0.11944739E+00 0.12500454E+03</pdfrwt>
<pdfrwt beam="1">  1       -4 0.77408424E-03 0.12500454E+03</pdfrwt>
<totfact> 0.39102977E+03</totfact>
</mgrwt>
</event>
<event>
 5    1  0.3311405E-002  0.1249990E+03  0.7818608E-02  0.1235071E+00
         -4   -1    0    0    0  501 -0.00000000000E+00  0.00000000000E+00  0.28675864072E+02  0.28703973249E+02  0.12700000000E+01 0. -1.
          4   -1    0    0  501    0  0.00000000000E+00 -0.00000000000E+00 -0.13612081766E+03  0.13612674205E+03  0.12700000000E+01 0. -1.
         25    2    1    2    0    0  0.00000000000E+00  0.00000000000E+00 -0.10744495359E+03  0.16483071530E+03  0.12499898661E+03 0.  0.
    9000005    1    3    3    0    0 -0.41338519288E+02 -0.36676901726E+02 -0.92192870623E+02  0.10749229596E+03  0.10000000000E+01 0.  0.
    9000005    1    3    3    0    0  0.41338519288E+02  0.36676901726E+02 -0.15252082964E+02  0.57338419335E+02  0.10000000000E+01 0.  0.
<mgrwt>
<rscale>  0 0.12499899E+03</rscale>
<asrwt>0</asrwt>
<pdfrwt beam="2">  1        4 0.20944282E-01 0.12499899E+03</pdfrwt>
<pdfrwt beam="1">  1       -4 0.44142895E-02 0.12499899E+03</pdfrwt>
<totfact> 0.96421657E+03</totfact>
</mgrwt>
</event>
<event>
 5    1  0.3311405E-002  0.1250274E+03  0.7818608E-02  0.1235026E+00
         -4   -1    0    0    0  501 -0.00000000000E+00  0.00000000000E+00  0.10657898665E+03  0.10658655307E+03  0.12700000000E+01 0. -1.
          4   -1    0    0  501    0  0.00000000000E+00 -0.00000000000E+00 -0.36647436373E+02  0.36669435402E+02  0.12700000000E+01 0. -1.
         25    2    1    2    0    0  0.00000000000E+00  0.00000000000E+00  0.69931550279E+02  0.14325598847E+03  0.12502742303E+03 0.  0.
    9000005    1    3    3    0    0  0.57265039285E+02 -0.25052222481E+02  0.34672415906E+02  0.71484788593E+02  0.10000000000E+01 0.  0.
    9000005    1    3    3    0    0 -0.57265039285E+02  0.25052222481E+02  0.35259134373E+02  0.71771199880E+02  0.10000000000E+01 0.  0.
<mgrwt>
<rscale>  0 0.12502742E+03</rscale>
<asrwt>0</asrwt>
<pdfrwt beam="2">  1        4 0.56403415E-02 0.12502742E+03</pdfrwt>
<pdfrwt beam="1">  1       -4 0.16399041E-01 0.12502742E+03</pdfrwt>
<totfact> 0.10060329E+04</totfact>
</mgrwt>
</event>
<event>
 5    1  0.3311405E-002  0.1250024E+03  0.7818608E-02  0.1235066E+00
          4   -1    0    0  501    0  0.00000000000E+00  0.00000000000E+00  0.14916669206E+04  0.14916674613E+04  0.12700000000E+01 0.  1.
         -4   -1    0    0    0  501 -0.00000000000E+00 -0.00000000000E+00 -0.24642678572E+01  0.27722763340E+01  0.12700000000E+01 0.  1.
         25    2    1    2    0    0  0.00000000000E+00  0.00000000000E+00  0.14892026528E+04  0.14944397376E+04  0.12500235315E+03 0.  0.
    9000005    1    3    3    0    0  0.19328633850E+02  0.30841758515E+00  0.34120304399E+02  0.39228642344E+02  0.10000000000E+01 0.  0.
    9000005    1    3    3    0    0 -0.19328633850E+02 -0.30841758515E+00  0.14550823484E+04  0.14552110952E+04  0.10000000000E+01 0.  0.
<mgrwt>
<rscale>  0 0.12500235E+03</rscale>
<asrwt>0</asrwt>
<pdfrwt beam="1">  1        4 0.22951126E+00 0.12500235E+03</pdfrwt>
<pdfrwt beam="2">  1       -4 0.40285214E-03 0.12500235E+03</pdfrwt>
<totfact> 0.18039061E+03</totfact>
</mgrwt>
</event>
<event>
 5    1  0.3311405E-002  0.1249980E+03  0.7818608E-02  0.1235072E+00
          4   -1    0    0  501    0  0.00000000000E+00  0.00000000000E+00  0.19504355101E+02  0.19545658544E+02  0.12700000000E+01 0. -1.
         -4   -1    0    0    0  501 -0.00000000000E+00 -0.00000000000E+00 -0.20001428381E+03  0.20001831573E+03  0.12700000000E+01 0. -1.
         25    2    1    2    0    0  0.00000000000E+00  0.00000000000E+00 -0.18050992870E+03  0.21956397427E+03  0.12499801773E+03 0.  0.
    9000005    1    3    3    0    0 -0.11680557401E+02  0.53200529483E+02 -0.36446493574E+02  0.65544478428E+02  0.10000000000E+01 0.  0.
    9000005    1    3    3    0    0  0.11680557401E+02 -0.53200529483E+02 -0.14406343513E+03  0.15401949584E+03  0.10000000000E+01 0.  0.
<mgrwt>
<rscale>  0 0.12499802E+03</rscale>
<asrwt>0</asrwt>
<pdfrwt beam="1">  1        4 0.30041575E-02 0.12499802E+03</pdfrwt>
<pdfrwt beam="2">  1       -4 0.30774914E-01 0.12499802E+03</pdfrwt>
<totfact> 0.86941242E+03</totfact>
</mgrwt>
</event>
<event>
 5    1  0.3311405E-002  0.1250125E+03  0.7818608E-02  0.1235050E+00
          4   -1    0    0  501    0  0.00000000000E+00  0.00000000000E+00  0.10366984904E+04  0.10366992683E+04  0.12700000000E+01 0. -1.
         -4   -1    0    0    0  501 -0.00000000000E+00 -0.00000000000E+00 -0.36609336423E+01  0.38749625977E+01  0.12700000000E+01 0. -1.
         25    2    1    2    0    0  0.00000000000E+00  0.00000000000E+00  0.10330375568E+04  0.10405742309E+04  0.12501254473E+03 0.  0.
    9000005    1    3    3    0    0  0.53002965763E+01 -0.45983905364E+02  0.86605929444E+03  0.86729597842E+03  0.10000000000E+01 0.  0.
    9000005    1    3    3    0    0 -0.53002965763E+01  0.45983905364E+02  0.16697826234E+03  0.17327825250E+03  0.10000000000E+01 0.  0.
<mgrwt>
<rscale>  0 0.12501254E+03</rscale>
<asrwt>0</asrwt>
<pdfrwt beam="1">  1        4 0.15950868E+00 0.12501254E+03</pdfrwt>
<pdfrwt beam="2">  1       -4 0.57974387E-03 0.12501254E+03</pdfrwt>
<totfact> 0.29282880E+03</totfact>
</mgrwt>
</event>
<event>
 5    1  0.3311405E-002  0.1250067E+03  0.7818608E-02  0.1235059E+00
          4   -1    0    0  501    0  0.00000000000E+00  0.00000000000E+00  0.15456558358E+03  0.15457080102E+03  0.12700000000E+01 0. -1.
         -4   -1    0    0    0  501 -0.00000000000E+00 -0.00000000000E+00 -0.25253552623E+02  0.25285466578E+02  0.12700000000E+01 0. -1.
         25    2    1    2    0    0  0.00000000000E+00  0.00000000000E+00  0.12931203096E+03  0.17985626760E+03  0.12500670239E+03 0.  0.
    9000005    1    3    3    0    0  0.34071600343E+02 -0.41862659899E+02  0.10997879597E+03  0.12251404738E+03  0.10000000000E+01 0.  0.
    9000005    1    3    3    0    0 -0.34071600343E+02  0.41862659899E+02  0.19333234989E+02  0.57342220213E+02  0.10000000000E+01 0.  0.
<mgrwt>
<rscale>  0 0.12500670E+03</rscale>
<asrwt>0</asrwt>
<pdfrwt beam="1">  1        4 0.23782177E-01 0.12500670E+03</pdfrwt>
<pdfrwt beam="2">  1       -4 0.38880182E-02 0.12500670E+03</pdfrwt>
<totfact> 0.93628810E+03</totfact>
</mgrwt>
</event>
<event>
 5    1  0.3311405E-002  0.1249971E+03  0.7818608E-02  0.1235074E+00
          4   -1    0    0  501    0  0.00000000000E+00  0.00000000000E+00  0.23861313814E+03  0.23861651786E+03  0.12700000000E+01 0. -1.
         -4   -1    0    0    0  501 -0.00000000000E+00 -0.00000000000E+00 -0.16341735646E+02  0.16391010461E+02  0.12700000000E+01 0. -1.
         25    2    1    2    0    0  0.00000000000E+00  0.00000000000E+00  0.22227140250E+03  0.25500752832E+03  0.12499705249E+03 0.  0.
    9000005    1    3    3    0    0 -0.56822989395E+02  0.25825958600E+02  0.11733491926E+03  0.13290716888E+03  0.10000000000E+01 0.  0.
    9000005    1    3    3    0    0  0.56822989395E+02 -0.25825958600E+02  0.10493648323E+03  0.12210035944E+03  0.10000000000E+01 0.  0.
<mgrwt>
<rscale>  0 0.12499705E+03</rscale>
<asrwt>0</asrwt>
<pdfrwt beam="1">  1        4 0.36713764E-01 0.12499705E+03</pdfrwt>
<pdfrwt beam="2">  1       -4 0.25181635E-02 0.12499705E+03</pdfrwt>
<totfact> 0.81617184E+03</totfact>
</mgrwt>
</event>
<event>
 5    1  0.3311405E-002  0.1250002E+03  0.7818608E-02  0.1235069E+00
         -4   -1    0    0    0  501 -0.00000000000E+00  0.00000000000E+00  0.74993330927E+02  0.75004083779E+02  0.12700000000E+01 0.  1.
          4   -1    0    0  501    0  0.00000000000E+00 -0.00000000000E+00 -0.52065896341E+02  0.52081383063E+02  0.12700000000E+01 0.  1.
         25    2    1    2    0    0  0.00000000000E+00  0.00000000000E+00  0.22927434586E+02  0.12708546684E+03  0.12500019450E+03 0.  0.
    9000005    1    3    3    0    0  0.50906486293E+02 -0.35676460138E+02  0.17972230400E+02  0.64716931480E+02  0.10000000000E+01 0.  0.
    9000005    1    3    3    0    0 -0.50906486293E+02  0.35676460138E+02  0.49552041867E+01  0.62368535362E+02  0.10000000000E+01 0.  0.
<mgrwt>
<rscale>  0 0.12500019E+03</rscale>
<asrwt>0</asrwt>
<pdfrwt beam="2">  1        4 0.80121564E-02 0.12500019E+03</pdfrwt>
<pdfrwt beam="1">  1       -4 0.11539454E-01 0.12500019E+03</pdfrwt>
<totfact> 0.10407244E+04</totfact>
</mgrwt>
</event>
<event>
 5    1  0.3311405E-002  0.1250027E+03  0.7818608E-02  0.1235065E+00
         -4   -1    0    0    0  501 -0.00000000000E+00  0.00000000000E+00  0.50118179499E+02  0.50134267884E+02  0.12700000000E+01 0. -1.
          4   -1    0    0  501    0  0.00000000000E+00 -0.00000000000E+00 -0.77910421112E+02  0.77920771414E+02  0.12700000000E+01 0. -1.
         25    2    1    2    0    0  0.00000000000E+00  0.00000000000E+00 -0.27792241613E+02  0.12805503930E+03  0.12500273755E+03 0.  0.
    9000005    1    3    3    0    0  0.54006791363E+02 -0.29366017416E+02 -0.25409985646E+02  0.66526414775E+02  0.10000000000E+01 0.  0.
    9000005    1    3    3    0    0 -0.54006791363E+02  0.29366017416E+02 -0.23822559668E+01  0.61528624524E+02  0.10000000000E+01 0.  0.
<mgrwt>
<rscale>  0 0.12500274E+03</rscale>
<asrwt>0</asrwt>
<pdfrwt beam="2">  1        4 0.11988252E-01 0.12500274E+03</pdfrwt>
<pdfrwt beam="1">  1       -4 0.77125229E-02 0.12500274E+03</pdfrwt>
<totfact> 0.10385657E+04</totfact>
</mgrwt>
</event>
<event>
 5    1  0.3311405E-002  0.1250025E+03  0.7818608E-02  0.1235065E+00
          4   -1    0    0  501    0  0.00000000000E+00  0.00000000000E+00  0.47880295425E+01  0.49535973696E+01  0.12700000000E+01 0.  1.
         -4   -1    0    0    0  501 -0.00000000000E+00 -0.00000000000E+00 -0.80183719568E+03  0.80183820144E+03  0.12700000000E+01 0.  1.
         25    2    1    2    0    0  0.00000000000E+00  0.00000000000E+00 -0.79704916614E+03  0.80679179881E+03  0.12500253347E+03 0.  0.
    9000005    1    3    3    0    0 -0.28605305550E+00  0.39637826667E+02 -0.86701092923E+02  0.95337918182E+02  0.10000000000E+01 0.  0.
    9000005    1    3    3    0    0  0.28605305550E+00 -0.39637826667E+02 -0.71034807322E+03  0.71145388062E+03  0.10000000000E+01 0.  0.
<mgrwt>
<rscale>  0 0.12500253E+03</rscale>
<asrwt>0</asrwt>
<pdfrwt beam="1">  1        4 0.74943392E-03 0.12500253E+03</pdfrwt>
<pdfrwt beam="2">  1       -4 0.12337228E+00 0.12500253E+03</pdfrwt>
<totfact> 0.37961242E+03</totfact>
</mgrwt>
</event>
<event>
 5    1  0.3311405E-002  0.1250061E+03  0.7818608E-02  0.1235060E+00
          4   -1    0    0  501    0  0.00000000000E+00  0.00000000000E+00  0.72406994777E+02  0.72418131657E+02  0.12700000000E+01 0. -1.
         -4   -1    0    0    0  501 -0.00000000000E+00 -0.00000000000E+00 -0.53930981342E+02  0.53945932641E+02  0.12700000000E+01 0. -1.
         25    2    1    2    0    0  0.00000000000E+00  0.00000000000E+00  0.18476013435E+02  0.12636406430E+03  0.12500605455E+03 0.  0.
    9000005    1    3    3    0    0 -0.36364654284E+02 -0.45309357560E+02  0.32516472637E+02  0.66585636262E+02  0.10000000000E+01 0.  0.
    9000005    1    3    3    0    0  0.36364654284E+02  0.45309357560E+02 -0.14040459201E+02  0.59778428035E+02  0.10000000000E+01 0.  0.
<mgrwt>
<rscale>  0 0.12500605E+03</rscale>
<asrwt>0</asrwt>
<pdfrwt beam="1">  1        4 0.11141544E-01 0.12500605E+03</pdfrwt>
<pdfrwt beam="2">  1       -4 0.82990808E-02 0.12500605E+03</pdfrwt>
<totfact> 0.10421570E+04</totfact>
</mgrwt>
</event>
<event>
 5    1  0.3311405E-002  0.1249985E+03  0.7818608E-02  0.1235072E+00
         -4   -1    0    0    0  501 -0.00000000000E+00  0.00000000000E+00  0.43312093287E+03  0.43312279482E+03  0.12700000000E+01 0. -1.
          4   -1    0    0  501    0  0.00000000000E+00 -0.00000000000E+00 -0.89720254997E+01  0.90614646480E+01  0.12700000000E+01 0. -1.
         25    2    1    2    0    0  0.00000000000E+00  0.00000000000E+00  0.42414890737E+03  0.44218425946E+03  0.12499849477E+03 0.  0.
    9000005    1    3    3    0    0 -0.52270421967E+02 -0.19990745301E+02  0.11370038188E+03  0.12673043734E+03  0.10000000000E+01 0.  0.
    9000005    1    3    3    0    0  0.52270421967E+02  0.19990745301E+02  0.31044852549E+03  0.31545382212E+03  0.10000000000E+01 0.  0.
<mgrwt>
<rscale>  0 0.12499849E+03</rscale>
<asrwt>0</asrwt>
<pdfrwt beam="2">  1        4 0.13873350E-02 0.12499849E+03</pdfrwt>
<pdfrwt beam="1">  1       -4 0.66641003E-01 0.12499849E+03</pdfrwt>
<totfact> 0.60648895E+03</totfact>
</mgrwt>
</event>
<event>
 5    1  0.3311405E-002  0.1249825E+03  0.7818608E-02  0.1235097E+00
         -4   -1    0    0    0  501 -0.00000000000E+00  0.00000000000E+00  0.26750832594E+03  0.26751134059E+03  0.12700000000E+01 0. -1.
          4   -1    0    0  501    0  0.00000000000E+00 -0.00000000000E+00 -0.14567536806E+02  0.14622791409E+02  0.12700000000E+01 0. -1.
         25    2    1    2    0    0  0.00000000000E+00  0.00000000000E+00  0.25294078913E+03  0.28213413200E+03  0.12498250131E+03 0.  0.
    9000005    1    3    3    0    0  0.32457324120E+02  0.25247460809E+02  0.20271232806E+02  0.45856679402E+02  0.10000000000E+01 0.  0.
    9000005    1    3    3    0    0 -0.32457324120E+02 -0.25247460809E+02  0.23266955633E+03  0.23627745260E+03  0.10000000000E+01 0.  0.
<mgrwt>
<rscale>  0 0.12498250E+03</rscale>
<asrwt>0</asrwt>
<pdfrwt beam="2">  1        4 0.22456417E-02 0.12498250E+03</pdfrwt>
<pdfrwt beam="1">  1       -4 0.41159611E-01 0.12498250E+03</pdfrwt>
<totfact> 0.77926283E+03</totfact>
</mgrwt>
</event>
<event>
 5    1  0.3311405E-002  0.1250018E+03  0.7818608E-02  0.1235066E+00
          4   -1    0    0  501    0  0.00000000000E+00  0.00000000000E+00  0.78360849083E+01  0.79383327400E+01  0.12700000000E+01 0.  1.
         -4   -1    0    0    0  501 -0.00000000000E+00 -0.00000000000E+00 -0.49517538391E+03  0.49517701252E+03  0.12700000000E+01 0.  1.
         25    2    1    2    0    0  0.00000000000E+00  0.00000000000E+00 -0.48733929900E+03  0.50311534526E+03  0.12500183313E+03 0.  0.
    9000005    1    3    3    0    0  0.14213250185E+02 -0.60819388291E+02 -0.23527503525E+03  0.24342628594E+03  0.10000000000E+01 0.  0.
    9000005    1    3    3    0    0 -0.14213250185E+02  0.60819388291E+02 -0.25206426374E+03  0.25968905932E+03  0.10000000000E+01 0.  0.
<mgrwt>
<rscale>  0 0.12500183E+03</rscale>
<asrwt>0</asrwt>
<pdfrwt beam="1">  1        4 0.12135424E-02 0.12500183E+03</pdfrwt>
<pdfrwt beam="2">  1       -4 0.76188794E-01 0.12500183E+03</pdfrwt>
<totfact> 0.55621231E+03</totfact>
</mgrwt>
</event>
<event>
 5    1  0.3311405E-002  0.1249997E+03  0.7818608E-02  0.1235070E+00
         -4   -1    0    0    0  501 -0.00000000000E+00  0.00000000000E+00  0.30702852046E+02  0.30729107109E+02  0.12700000000E+01 0. -1.
          4   -1    0    0  501    0  0.00000000000E+00 -0.00000000000E+00 -0.12714311160E+03  0.12714945429E+03  0.12700000000E+01 0. -1.
         25    2    1    2    0    0  0.00000000000E+00  0.00000000000E+00 -0.96440259554E+02  0.15787856140E+03  0.12499966595E+03 0.  0.
    9000005    1    3    3    0    0  0.21438954551E+02 -0.49074779899E+02 -0.75421432704E+01  0.54091096490E+02  0.10000000000E+01 0.  0.
    9000005    1    3    3    0    0 -0.21438954551E+02  0.49074779899E+02 -0.88898116284E+02  0.10378746491E+03  0.10000000000E+01 0.  0.
<mgrwt>
<rscale>  0 0.12499967E+03</rscale>
<asrwt>0</asrwt>
<pdfrwt beam="2">  1        4 0.19562986E-01 0.12499967E+03</pdfrwt>
<pdfrwt beam="1">  1       -4 0.47260233E-02 0.12499967E+03</pdfrwt>
<totfact> 0.97754082E+03</totfact>
</mgrwt>
</event>
<event>
 5    1  0.3311405E-002  0.1250013E+03  0.7818608E-02  0.1235067E+00
         -4   -1    0    0    0  501 -0.00000000000E+00  0.00000000000E+00  0.20782228953E+03  0.20782616997E+03  0.12700000000E+01 0.  1.
          4   -1    0    0  501    0  0.00000000000E+00 -0.00000000000E+00 -0.18770982491E+02  0.18813896026E+02  0.12700000000E+01 0.  1.
         25    2    1    2    0    0  0.00000000000E+00  0.00000000000E+00  0.18905130703E+03  0.22664006599E+03  0.12500129128E+03 0.  0.
    9000005    1    3    3    0    0 -0.31804944107E+02 -0.48783214987E+02  0.13563048160E+03  0.14760753393E+03  0.10000000000E+01 0.  0.
    9000005    1    3    3    0    0  0.31804944107E+02  0.48783214987E+02  0.53420825432E+02  0.79032532061E+02  0.10000000000E+01 0.  0.
<mgrwt>
<rscale>  0 0.12500129E+03</rscale>
<asrwt>0</asrwt>
<pdfrwt beam="2">  1        4 0.28914431E-02 0.12500129E+03</pdfrwt>
<pdfrwt beam="1">  1       -4 0.31976258E-01 0.12500129E+03</pdfrwt>
<totfact> 0.85825729E+03</totfact>
</mgrwt>
</event>
<event>
 5    1  0.3311405E-002  0.1250009E+03  0.7818608E-02  0.1235068E+00
          4   -1    0    0  501    0  0.00000000000E+00  0.00000000000E+00  0.40996823740E+03  0.40997020450E+03  0.12700000000E+01 0.  1.
         -4   -1    0    0    0  501 -0.00000000000E+00 -0.00000000000E+00 -0.94839917090E+01  0.95686466512E+01  0.12700000000E+01 0.  1.
         25    2    1    2    0    0  0.00000000000E+00  0.00000000000E+00  0.40048424569E+03  0.41953885115E+03  0.12500086631E+03 0.  0.
    9000005    1    3    3    0    0  0.15437815766E+02  0.60493882309E+02  0.19107006262E+03  0.20101394176E+03  0.10000000000E+01 0.  0.
    9000005    1    3    3    0    0 -0.15437815766E+02 -0.60493882309E+02  0.20941418307E+03  0.21852490939E+03  0.10000000000E+01 0.  0.
<mgrwt>
<rscale>  0 0.12500087E+03</rscale>
<asrwt>0</asrwt>
<pdfrwt beam="1">  1        4 0.63078716E-01 0.12500087E+03</pdfrwt>
<pdfrwt beam="2">  1       -4 0.14657385E-02 0.12500087E+03</pdfrwt>
<totfact> 0.62694605E+03</totfact>
</mgrwt>
</event>
<event>
 5    1  0.3311405E-002  0.1250009E+03  0.7818608E-02  0.1235068E+00
         -4   -1    0    0    0  501 -0.00000000000E+00  0.00000000000E+00  0.23620159394E+03  0.23620500816E+03  0.12700000000E+01 0.  1.
          4   -1    0    0  501    0  0.00000000000E+00 -0.00000000000E+00 -0.16510087454E+02  0.16558861306E+02  0.12700000000E+01 0.  1.
         25    2    1    2    0    0  0.00000000000E+00  0.00000000000E+00  0.21969150648E+03  0.25276386946E+03  0.12500086274E+03 0.  0.
    9000005    1    3    3    0    0 -0.41768767806E+02  0.46150415449E+01  0.16316928236E+02  0.45090694379E+02  0.10000000000E+01 0.  0.
    9000005    1    3    3    0    0  0.41768767806E+02 -0.46150415449E+01  0.20337457825E+03  0.20767317508E+03  0.10000000000E+01 0.  0.
<mgrwt>
<rscale>  0 0.12500086E+03</rscale>
<asrwt>0</asrwt>
<pdfrwt beam="2">  1        4 0.25440282E-02 0.12500086E+03</pdfrwt>
<pdfrwt beam="1">  1       -4 0.36342718E-01 0.12500086E+03</pdfrwt>
<totfact> 0.81930824E+03</totfact>
</mgrwt>
</event>
<event>
 5    1  0.3311405E-002  0.1250008E+03  0.7818608E-02  0.1235068E+00
          4   -1    0    0  501    0  0.00000000000E+00  0.00000000000E+00  0.33660832444E+03  0.33661072024E+03  0.12700000000E+01 0. -1.
         -4   -1    0    0    0  501 -0.00000000000E+00 -0.00000000000E+00 -0.11567684814E+02  0.11637191756E+02  0.12700000000E+01 0. -1.
         25    2    1    2    0    0  0.00000000000E+00  0.00000000000E+00  0.32504063963E+03  0.34824791200E+03  0.12500076321E+03 0.  0.
    9000005    1    3    3    0    0  0.56831624464E+02 -0.22424144291E+02  0.12591671813E+03  0.13995962165E+03  0.10000000000E+01 0.  0.
    9000005    1    3    3    0    0 -0.56831624464E+02  0.22424144291E+02  0.19912392149E+03  0.20828829035E+03  0.10000000000E+01 0.  0.
<mgrwt>
<rscale>  0 0.12500076E+03</rscale>
<asrwt>0</asrwt>
<pdfrwt beam="1">  1        4 0.51791418E-01 0.12500076E+03</pdfrwt>
<pdfrwt beam="2">  1       -4 0.17851751E-02 0.12500076E+03</pdfrwt>
<totfact> 0.69916561E+03</totfact>
</mgrwt>
</event>
<event>
 5    1  0.3311405E-002  0.1249993E+03  0.7818608E-02  0.1235070E+00
         -4   -1    0    0    0  501 -0.00000000000E+00  0.00000000000E+00  0.78162339907E+03  0.78162443083E+03  0.12700000000E+01 0.  1.
          4   -1    0    0  501    0  0.00000000000E+00 -0.00000000000E+00 -0.49158204977E+01  0.50772227807E+01  0.12700000000E+01 0.  1.
         25    2    1    2    0    0  0.00000000000E+00  0.00000000000E+00  0.77670757857E+03  0.78670165361E+03  0.12499931674E+03 0.  0.
    9000005    1    3    3    0    0  0.23461545824E+02 -0.48607109918E+02  0.58658990601E+03  0.58906859796E+03  0.10000000000E+01 0.  0.
    9000005    1    3    3    0    0 -0.23461545824E+02  0.48607109918E+02  0.19011767256E+03  0.19763305565E+03  0.10000000000E+01 0.  0.
<mgrwt>
<rscale>  0 0.12499932E+03</rscale>
<asrwt>0</asrwt>
<pdfrwt beam="2">  1        4 0.76877462E-03 0.12499932E+03</pdfrwt>
<pdfrwt beam="1">  1       -4 0.12026231E+00 0.12499932E+03</pdfrwt>
<totfact> 0.38865901E+03</totfact>
</mgrwt>
</event>
<event>
 5    1  0.3311405E-002  0.1250081E+03  0.7818608E-02  0.1235057E+00
          4   -1    0    0  501    0  0.00000000000E+00  0.00000000000E+00  0.80729880625E+01  0.81722724048E+01  0.12700000000E+01 0. -1.
         -4   -1    0    0    0  501 -0.00000000000E+00 -0.00000000000E+00 -0.48087200759E+03  0.48087368464E+03  0.12700000000E+01 0. -1.
         25    2    1    2    0    0  0.00000000000E+00  0.00000000000E+00 -0.47279901952E+03  0.48904595705E+03  0.12500814070E+03 0.  0.
    9000005    1    3    3    0    0 -0.39546618714E+02  0.43742957471E+02 -0.31736960827E+03  0.32280311280E+03  0.10000000000E+01 0.  0.
    9000005    1    3    3    0    0  0.39546618714E+02 -0.43742957471E+02 -0.15542941125E+03  0.16624284424E+03  0.10000000000E+01 0.  0.
<mgrwt>
<rscale>  0 0.12500814E+03</rscale>
<asrwt>0</asrwt>
<pdfrwt beam="1">  1        4 0.12497648E-02 0.12500814E+03</pdfrwt>
<pdfrwt beam="2">  1       -4 0.73988053E-01 0.12500814E+03</pdfrwt>
<totfact> 0.56714249E+03</totfact>
</mgrwt>
</event>
<event>
 5    1  0.3311405E-002  0.1250079E+03  0.7818608E-02  0.1235057E+00
         -4   -1    0    0    0  501 -0.00000000000E+00  0.00000000000E+00  0.16716320553E+02  0.16764494410E+02  0.12700000000E+01 0.  1.
          4   -1    0    0  501    0  0.00000000000E+00 -0.00000000000E+00 -0.23332212426E+03  0.23332558061E+03  0.12700000000E+01 0.  1.
         25    2    1    2    0    0  0.00000000000E+00  0.00000000000E+00 -0.21660580371E+03  0.25009007502E+03  0.12500788546E+03 0.  0.
    9000005    1    3    3    0    0 -0.27982409917E+02 -0.36763550733E+02 -0.24107370846E+02  0.52122348915E+02  0.10000000000E+01 0.  0.
    9000005    1    3    3    0    0  0.27982409917E+02  0.36763550733E+02 -0.19249843286E+03  0.19796772611E+03  0.10000000000E+01 0.  0.
<mgrwt>
<rscale>  0 0.12500789E+03</rscale>
<asrwt>0</asrwt>
<pdfrwt beam="2">  1        4 0.35899681E-01 0.12500789E+03</pdfrwt>
<pdfrwt beam="1">  1       -4 0.25757133E-02 0.12500789E+03</pdfrwt>
<totfact> 0.82302754E+03</totfact>
</mgrwt>
</event>
<event>
 5    1  0.3311405E-002  0.1250091E+03  0.7818608E-02  0.1235055E+00
          4   -1    0    0  501    0  0.00000000000E+00  0.00000000000E+00  0.45120382998E+02  0.45138252756E+02  0.12700000000E+01 0. -1.
         -4   -1    0    0    0  501 -0.00000000000E+00 -0.00000000000E+00 -0.86546889366E+02  0.86556206934E+02  0.12700000000E+01 0. -1.
         25    2    1    2    0    0  0.00000000000E+00  0.00000000000E+00 -0.41426506368E+02  0.13169445969E+03  0.12500910080E+03 0.  0.
    9000005    1    3    3    0    0  0.57470988092E+02 -0.20424343596E+02 -0.63553535605E+01  0.61330732936E+02  0.10000000000E+01 0.  0.
    9000005    1    3    3    0    0 -0.57470988092E+02  0.20424343596E+02 -0.35071152807E+02  0.70363726755E+02  0.10000000000E+01 0.  0.
<mgrwt>
<rscale>  0 0.12500910E+03</rscale>
<asrwt>0</asrwt>
<pdfrwt beam="1">  1        4 0.69436887E-02 0.12500910E+03</pdfrwt>
<pdfrwt beam="2">  1       -4 0.13316997E-01 0.12500910E+03</pdfrwt>
<totfact> 0.10306108E+04</totfact>
</mgrwt>
</event>
<event>
 5    1  0.3311405E-002  0.1249999E+03  0.7818608E-02  0.1235069E+00
         -4   -1    0    0    0  501 -0.00000000000E+00  0.00000000000E+00  0.46095505773E+02  0.46112997652E+02  0.12700000000E+01 0.  1.
          4   -1    0    0  501    0  0.00000000000E+00 -0.00000000000E+00 -0.84704089355E+02  0.84713609612E+02  0.12700000000E+01 0.  1.
         25    2    1    2    0    0  0.00000000000E+00  0.00000000000E+00 -0.38608583582E+02  0.13082660726E+03  0.12499991377E+03 0.  0.
    9000005    1    3    3    0    0  0.21822616968E+02 -0.57181871517E+02 -0.32512023105E+02  0.69311071900E+02  0.10000000000E+01 0.  0.
    9000005    1    3    3    0    0 -0.21822616968E+02  0.57181871517E+02 -0.60965604772E+01  0.61515535364E+02  0.10000000000E+01 0.  0.
<mgrwt>
<rscale>  0 0.12499991E+03</rscale>
<asrwt>0</asrwt>
<pdfrwt beam="2">  1        4 0.13033476E-01 0.12499991E+03</pdfrwt>
<pdfrwt beam="1">  1       -4 0.70936941E-02 0.12499991E+03</pdfrwt>
<totfact> 0.10326828E+04</totfact>
</mgrwt>
</event>
<event>
 5    1  0.3311405E-002  0.1250010E+03  0.7818608E-02  0.1235068E+00
         -4   -1    0    0    0  501 -0.00000000000E+00  0.00000000000E+00  0.88791846834E+03  0.88791937659E+03  0.12700000000E+01 0. -1.
          4   -1    0    0  501    0  0.00000000000E+00 -0.00000000000E+00 -0.43068179717E+01  0.44901649236E+01  0.12700000000E+01 0. -1.
         25    2    1    2    0    0  0.00000000000E+00  0.00000000000E+00  0.88361165037E+03  0.89240954151E+03  0.12500096445E+03 0.  0.
    9000005    1    3    3    0    0  0.14005638970E+02  0.48676155916E+02  0.70312318834E+03  0.70494591570E+03  0.10000000000E+01 0.  0.
    9000005    1    3    3    0    0 -0.14005638970E+02 -0.48676155916E+02  0.18048846203E+03  0.18746362581E+03  0.10000000000E+01 0.  0.
<mgrwt>
<rscale>  0 0.12500096E+03</rscale>
<asrwt>0</asrwt>
<pdfrwt beam="2">  1        4 0.67676138E-03 0.12500096E+03</pdfrwt>
<pdfrwt beam="1">  1       -4 0.13661691E+00 0.12500096E+03</pdfrwt>
<totfact> 0.34451108E+03</totfact>
</mgrwt>
</event>
<event>
 5    1  0.3311405E-002  0.1249966E+03  0.7818608E-02  0.1235075E+00
         -4   -1    0    0    0  501 -0.00000000000E+00  0.00000000000E+00  0.12491022157E+03  0.12491667764E+03  0.12700000000E+01 0.  1.
          4   -1    0    0  501    0  0.00000000000E+00 -0.00000000000E+00 -0.31250609569E+02  0.31276404819E+02  0.12700000000E+01 0.  1.
         25    2    1    2    0    0  0.00000000000E+00  0.00000000000E+00  0.93659612003E+02  0.15619308246E+03  0.12499662431E+03 0.  0.
    9000005    1    3    3    0    0  0.54338597174E+02  0.27991845135E+02  0.63065310675E+02  0.87831998425E+02  0.10000000000E+01 0.  0.
    9000005    1    3    3    0    0 -0.54338597174E+02 -0.27991845135E+02  0.30594301328E+02  0.68361084037E+02  0.10000000000E+01 0.  0.
<mgrwt>
<rscale>  0 0.12499662E+03</rscale>
<asrwt>0</asrwt>
<pdfrwt beam="2">  1        4 0.48102669E-02 0.12499662E+03</pdfrwt>
<pdfrwt beam="1">  1       -4 0.19219438E-01 0.12499662E+03</pdfrwt>
<totfact> 0.98089235E+03</totfact>
</mgrwt>
</event>
<event>
 5    1  0.3311405E-002  0.1249993E+03  0.7818608E-02  0.1235070E+00
          4   -1    0    0  501    0  0.00000000000E+00  0.00000000000E+00  0.28617583007E+02  0.28645749373E+02  0.12700000000E+01 0.  1.
         -4   -1    0    0    0  501 -0.00000000000E+00 -0.00000000000E+00 -0.13639844311E+03  0.13640435544E+03  0.12700000000E+01 0.  1.
         25    2    1    2    0    0  0.00000000000E+00  0.00000000000E+00 -0.10778086011E+03  0.16505010481E+03  0.12499929317E+03 0.  0.
    9000005    1    3    3    0    0 -0.29624426500E+02  0.12526358474E+02  0.16855483530E+02  0.36326624218E+02  0.10000000000E+01 0.  0.
    9000005    1    3    3    0    0  0.29624426500E+02 -0.12526358474E+02 -0.12463634363E+03  0.12872348060E+03  0.10000000000E+01 0.  0.
<mgrwt>
<rscale>  0 0.12499929E+03</rscale>
<asrwt>0</asrwt>
<pdfrwt beam="1">  1        4 0.44053266E-02 0.12499929E+03</pdfrwt>
<pdfrwt beam="2">  1       -4 0.20986997E-01 0.12499929E+03</pdfrwt>
<totfact> 0.96379435E+03</totfact>
</mgrwt>
</event>
<event>
 5    1  0.3311405E-002  0.1250005E+03  0.7818608E-02  0.1235068E+00
          4   -1    0    0  501    0  0.00000000000E+00  0.00000000000E+00  0.48888697683E+02  0.48905190534E+02  0.12700000000E+01 0. -1.
         -4   -1    0    0    0  501 -0.00000000000E+00 -0.00000000000E+00 -0.79866512941E+02  0.79876609777E+02  0.12700000000E+01 0. -1.
         25    2    1    2    0    0  0.00000000000E+00  0.00000000000E+00 -0.30977815258E+02  0.12878180031E+03  0.12500050821E+03 0.  0.
    9000005    1    3    3    0    0  0.40981426811E+02  0.47057679924E+02 -0.12013560447E+02  0.63554922846E+02  0.10000000000E+01 0.  0.
    9000005    1    3    3    0    0 -0.40981426811E+02 -0.47057679924E+02 -0.18964254811E+02  0.65226877465E+02  0.10000000000E+01 0.  0.
<mgrwt>
<rscale>  0 0.12500051E+03</rscale>
<asrwt>0</asrwt>
<pdfrwt beam="1">  1        4 0.75233835E-02 0.12500051E+03</pdfrwt>
<pdfrwt beam="2">  1       -4 0.12289201E-01 0.12500051E+03</pdfrwt>
<totfact> 0.10370519E+04</totfact>
</mgrwt>
</event>
<event>
 5    1  0.3311405E-002  0.1250002E+03  0.7818608E-02  0.1235069E+00
         -4   -1    0    0    0  501 -0.00000000000E+00  0.00000000000E+00  0.18958222572E+04  0.18958226826E+04  0.12700000000E+01 0. -1.
          4   -1    0    0  501    0  0.00000000000E+00 -0.00000000000E+00 -0.18642941713E+01  0.22557687729E+01  0.12700000000E+01 0. -1.
         25    2    1    2    0    0  0.00000000000E+00  0.00000000000E+00  0.18939579630E+04  0.18980784514E+04  0.12500016712E+03 0.  0.
    9000005    1    3    3    0    0  0.18121278468E+02 -0.43037573789E+02  0.31637941490E+03  0.31980861099E+03  0.10000000000E+01 0.  0.
    9000005    1    3    3    0    0 -0.18121278468E+02  0.43037573789E+02  0.15775785481E+04  0.15782698404E+04  0.10000000000E+01 0.  0.
<mgrwt>
<rscale>  0 0.12500017E+03</rscale>
<asrwt>0</asrwt>
<pdfrwt beam="2">  1        4 0.31695970E-03 0.12500017E+03</pdfrwt>
<pdfrwt beam="1">  1       -4 0.29169598E+00 0.12500017E+03</pdfrwt>
<totfact> 0.11250669E+03</totfact>
</mgrwt>
</event>
<event>
 5    1  0.3311405E-002  0.1250000E+03  0.7818608E-02  0.1235069E+00
          4   -1    0    0  501    0  0.00000000000E+00  0.00000000000E+00  0.13467164013E+03  0.13467762827E+03  0.12700000000E+01 0.  1.
         -4   -1    0    0    0  501 -0.00000000000E+00 -0.00000000000E+00 -0.28985214117E+02  0.29013023583E+02  0.12700000000E+01 0.  1.
         25    2    1    2    0    0  0.00000000000E+00  0.00000000000E+00  0.10568642602E+03  0.16369065185E+03  0.12500003544E+03 0.  0.
    9000005    1    3    3    0    0 -0.44642586220E+02 -0.41497854384E+02  0.70904204722E+02  0.93506356309E+02  0.10000000000E+01 0.  0.
    9000005    1    3    3    0    0  0.44642586220E+02  0.41497854384E+02  0.34782221293E+02  0.70184295543E+02  0.10000000000E+01 0.  0.
<mgrwt>
<rscale>  0 0.12500004E+03</rscale>
<asrwt>0</asrwt>
<pdfrwt beam="1">  1        4 0.20721314E-01 0.12500004E+03</pdfrwt>
<pdfrwt beam="2">  1       -4 0.44618635E-02 0.12500004E+03</pdfrwt>
<totfact> 0.96635861E+03</totfact>
</mgrwt>
</event>
<event>
 5    1  0.3311405E-002  0.1249991E+03  0.7818608E-02  0.1235071E+00
          4   -1    0    0  501    0  0.00000000000E+00  0.00000000000E+00  0.27462260576E+02  0.27491610647E+02  0.12700000000E+01 0.  1.
         -4   -1    0    0    0  501 -0.00000000000E+00 -0.00000000000E+00 -0.14213046021E+03  0.14213613411E+03  0.12700000000E+01 0.  1.
         25    2    1    2    0    0  0.00000000000E+00  0.00000000000E+00 -0.11466819963E+03  0.16962774475E+03  0.12499910313E+03 0.  0.
    9000005    1    3    3    0    0  0.35380743356E+02  0.48465610553E+02 -0.33654711785E+02  0.68806627820E+02  0.10000000000E+01 0.  0.
    9000005    1    3    3    0    0 -0.35380743356E+02 -0.48465610553E+02 -0.81013487848E+02  0.10082111693E+03  0.10000000000E+01 0.  0.
<mgrwt>
<rscale>  0 0.12499910E+03</rscale>
<asrwt>0</asrwt>
<pdfrwt beam="1">  1        4 0.42276574E-02 0.12499910E+03</pdfrwt>
<pdfrwt beam="2">  1       -4 0.21868918E-01 0.12499910E+03</pdfrwt>
<totfact> 0.95519988E+03</totfact>
</mgrwt>
</event>
<event>
 5    1  0.3311405E-002  0.1249956E+03  0.7818608E-02  0.1235076E+00
          4   -1    0    0  501    0  0.00000000000E+00  0.00000000000E+00  0.21289996137E+02  0.21327841792E+02  0.12700000000E+01 0.  1.
         -4   -1    0    0    0  501 -0.00000000000E+00 -0.00000000000E+00 -0.18326238311E+03  0.18326678358E+03  0.12700000000E+01 0.  1.
         25    2    1    2    0    0  0.00000000000E+00  0.00000000000E+00 -0.16197238698E+03  0.20459462537E+03  0.12499562628E+03 0.  0.
    9000005    1    3    3    0    0 -0.12470209508E+02 -0.56264032622E+02 -0.41436575466E+02  0.70986881030E+02  0.10000000000E+01 0.  0.
    9000005    1    3    3    0    0  0.12470209508E+02  0.56264032622E+02 -0.12053581151E+03  0.13360774434E+03  0.10000000000E+01 0.  0.
<mgrwt>
<rscale>  0 0.12499563E+03</rscale>
<asrwt>0</asrwt>
<pdfrwt beam="1">  1        4 0.32786339E-02 0.12499563E+03</pdfrwt>
<pdfrwt beam="2">  1       -4 0.28197461E-01 0.12499563E+03</pdfrwt>
<totfact> 0.89375073E+03</totfact>
</mgrwt>
</event>
<event>
 5    1  0.3311405E-002  0.1250020E+03  0.7818608E-02  0.1235066E+00
          4   -1    0    0  501    0  0.00000000000E+00  0.00000000000E+00  0.74660136527E+02  0.74670937360E+02  0.12700000000E+01 0. -1.
         -4   -1    0    0    0  501 -0.00000000000E+00 -0.00000000000E+00 -0.52299779543E+02  0.52315197029E+02  0.12700000000E+01 0. -1.
         25    2    1    2    0    0  0.00000000000E+00  0.00000000000E+00  0.22360356985E+02  0.12698613439E+03  0.12500197104E+03 0.  0.
    9000005    1    3    3    0    0  0.17857800149E+02  0.47901912227E+02  0.47693417179E+02  0.69922501838E+02  0.10000000000E+01 0.  0.
    9000005    1    3    3    0    0 -0.17857800149E+02 -0.47901912227E+02 -0.25333060194E+02  0.57063632551E+02  0.10000000000E+01 0.  0.
<mgrwt>
<rscale>  0 0.12500197E+03</rscale>
<asrwt>0</asrwt>
<pdfrwt beam="1">  1        4 0.11488192E-01 0.12500197E+03</pdfrwt>
<pdfrwt beam="2">  1       -4 0.80481367E-02 0.12500197E+03</pdfrwt>
<totfact> 0.10408984E+04</totfact>
</mgrwt>
</event>
<event>
 4    1  0.3311405E-002  0.1250797E+03  0.7818608E-02  0.1234945E+00
          4   -1    0    0  501    0  0.00000000000E+00  0.00000000000E+00  0.19440294667E+02  0.19481733925E+02  0.12700000000E+01 0.  1.
         -4   -1    0    0    0  501 -0.00000000000E+00 -0.00000000000E+00 -0.20093447743E+03  0.20093849089E+03  0.12700000000E+01 0.  1.
    9000005    1    1    2    0    0 -0.27447343004E+02 -0.84267687862E+01 -0.18864043151E+03  0.19081556401E+03  0.10000000000E+01 0.  0.
    9000005    1    1    2    0    0  0.27447343004E+02  0.84267687862E+01  0.71462487416E+01  0.29604660802E+02  0.10000000000E+01 0.  0.
<mgrwt>
<rscale>  0 0.12507972E+03</rscale>
<asrwt>0</asrwt>
<pdfrwt beam="1">  1        4 0.29943111E-02 0.12507972E+03</pdfrwt>
<pdfrwt beam="2">  1       -4 0.30916492E-01 0.12507972E+03</pdfrwt>
<totfact> 0.86647513E+03</totfact>
</mgrwt>
</event>
<event>
 5    1  0.3311405E-002  0.1249984E+03  0.7818608E-02  0.1235072E+00
         -4   -1    0    0    0  501 -0.00000000000E+00  0.00000000000E+00  0.63115377843E+01  0.64380438957E+01  0.12700000000E+01 0. -1.
          4   -1    0    0  501    0  0.00000000000E+00 -0.00000000000E+00 -0.61262210575E+03  0.61262342214E+03  0.12700000000E+01 0. -1.
         25    2    1    2    0    0  0.00000000000E+00  0.00000000000E+00 -0.60631056797E+03  0.61906146604E+03  0.12499837560E+03 0.  0.
    9000005    1    3    3    0    0  0.12287841213E+02  0.36472180025E+02 -0.54698695393E+03  0.54834016698E+03  0.10000000000E+01 0.  0.
    9000005    1    3    3    0    0 -0.12287841213E+02 -0.36472180025E+02 -0.59323614040E+02  0.70721299056E+02  0.10000000000E+01 0.  0.
<mgrwt>
<rscale>  0 0.12499838E+03</rscale>
<asrwt>0</asrwt>
<pdfrwt beam="2">  1        4 0.94259341E-01 0.12499838E+03</pdfrwt>
<pdfrwt beam="1">  1       -4 0.98083879E-03 0.12499838E+03</pdfrwt>
<totfact> 0.47687800E+03</totfact>
</mgrwt>
</event>
<event>
 5    1  0.3311405E-002  0.1250023E+03  0.7818608E-02  0.1235066E+00
         -4   -1    0    0    0  501 -0.00000000000E+00  0.00000000000E+00  0.73968610268E+02  0.73979512062E+02  0.12700000000E+01 0.  1.
          4   -1    0    0  501    0  0.00000000000E+00 -0.00000000000E+00 -0.52789072127E+02  0.52804346753E+02  0.12700000000E+01 0.  1.
         25    2    1    2    0    0  0.00000000000E+00  0.00000000000E+00  0.21179538141E+02  0.12678385881E+03  0.12500229606E+03 0.  0.
    9000005    1    3    3    0    0  0.53725852512E+02  0.31746088483E+02  0.72087712962E+01  0.62827125875E+02  0.10000000000E+01 0.  0.
    9000005    1    3    3    0    0 -0.53725852512E+02 -0.31746088483E+02  0.13970766845E+02  0.63956732940E+02  0.10000000000E+01 0.  0.
<mgrwt>
<rscale>  0 0.12500230E+03</rscale>
<asrwt>0</asrwt>
<pdfrwt beam="2">  1        4 0.81234093E-02 0.12500230E+03</pdfrwt>
<pdfrwt beam="1">  1       -4 0.11381800E-01 0.12500230E+03</pdfrwt>
<totfact> 0.10413305E+04</totfact>
</mgrwt>
</event>
<event>
 5    1  0.3311405E-002  0.1250002E+03  0.7818608E-02  0.1235069E+00
          4   -1    0    0  501    0  0.00000000000E+00  0.00000000000E+00  0.16375714323E+03  0.16376206783E+03  0.12700000000E+01 0. -1.
         -4   -1    0    0    0  501 -0.00000000000E+00 -0.00000000000E+00 -0.23831820214E+02  0.23865635435E+02  0.12700000000E+01 0. -1.
         25    2    1    2    0    0  0.00000000000E+00  0.00000000000E+00  0.13992532302E+03  0.18762770326E+03  0.12500023604E+03 0.  0.
    9000005    1    3    3    0    0 -0.48052872726E+01 -0.60280693322E+02  0.93620354801E+02  0.11145682395E+03  0.10000000000E+01 0.  0.
    9000005    1    3    3    0    0  0.48052872726E+01  0.60280693322E+02  0.46304968216E+02  0.76170879308E+02  0.10000000000E+01 0.  0.
<mgrwt>
<rscale>  0 0.12500024E+03</rscale>
<asrwt>0</asrwt>
<pdfrwt beam="1">  1        4 0.25196386E-01 0.12500024E+03</pdfrwt>
<pdfrwt beam="2">  1       -4 0.36694139E-02 0.12500024E+03</pdfrwt>
<totfact> 0.92261244E+03</totfact>
</mgrwt>
</event>
<event>
 5    1  0.3311405E-002  0.1250001E+03  0.7818608E-02  0.1235069E+00
         -4   -1    0    0    0  501 -0.00000000000E+00  0.00000000000E+00  0.26587216007E+02  0.26617530972E+02  0.12700000000E+01 0.  1.
          4   -1    0    0  501    0  0.00000000000E+00 -0.00000000000E+00 -0.14680555993E+03  0.14681105314E+03  0.12700000000E+01 0.  1.
         25    2    1    2    0    0  0.00000000000E+00  0.00000000000E+00 -0.12021834392E+03  0.17342858412E+03  0.12500009429E+03 0.  0.
    9000005    1    3    3    0    0  0.61486814062E+02 -0.84367355381E+01 -0.70252499949E+02  0.93745509541E+02  0.10000000000E+01 0.  0.
    9000005    1    3    3    0    0 -0.61486814062E+02  0.84367355381E+01 -0.49965843970E+02  0.79683074575E+02  0.10000000000E+01 0.  0.
<mgrwt>
<rscale>  0 0.12500009E+03</rscale>
<asrwt>0</asrwt>
<pdfrwt beam="2">  1        4 0.22588225E-01 0.12500009E+03</pdfrwt>
<pdfrwt beam="1">  1       -4 0.40930955E-02 0.12500009E+03</pdfrwt>
<totfact> 0.94813232E+03</totfact>
</mgrwt>
</event>
<event>
 5    1  0.3311405E-002  0.1249989E+03  0.7818608E-02  0.1235071E+00
          4   -1    0    0  501    0  0.00000000000E+00  0.00000000000E+00  0.61905143340E+02  0.61918169158E+02  0.12700000000E+01 0. -1.
         -4   -1    0    0    0  501 -0.00000000000E+00 -0.00000000000E+00 -0.63073414528E+02  0.63086199127E+02  0.12700000000E+01 0. -1.
         25    2    1    2    0    0  0.00000000000E+00  0.00000000000E+00 -0.11682711883E+01  0.12500436828E+03  0.12499890893E+03 0.  0.
    9000005    1    3    3    0    0 -0.11305519439E+02  0.60621694376E+02 -0.10702739860E+02  0.62596751028E+02  0.10000000000E+01 0.  0.
    9000005    1    3    3    0    0  0.11305519439E+02 -0.60621694376E+02  0.95344686717E+01  0.62407617257E+02  0.10000000000E+01 0.  0.
<mgrwt>
<rscale>  0 0.12499891E+03</rscale>
<asrwt>0</asrwt>
<pdfrwt beam="1">  1        4 0.95258537E-02 0.12499891E+03</pdfrwt>
<pdfrwt beam="2">  1       -4 0.97055876E-02 0.12499891E+03</pdfrwt>
<totfact> 0.10453025E+04</totfact>
</mgrwt>
</event>
<event>
 5    1  0.3311405E-002  0.1250000E+03  0.7818608E-02  0.1235069E+00
          4   -1    0    0  501    0  0.00000000000E+00  0.00000000000E+00  0.56980837646E+02  0.56994988892E+02  0.12700000000E+01 0.  1.
         -4   -1    0    0    0  501 -0.00000000000E+00 -0.00000000000E+00 -0.68525173002E+02  0.68536940660E+02  0.12700000000E+01 0.  1.
         25    2    1    2    0    0  0.00000000000E+00  0.00000000000E+00 -0.11544335357E+02  0.12553192955E+03  0.12499997463E+03 0.  0.
    9000005    1    3    3    0    0  0.53344271188E+02 -0.61344921548E+01 -0.37877030760E+02  0.65718435174E+02  0.10000000000E+01 0.  0.
    9000005    1    3    3    0    0 -0.53344271188E+02  0.61344921548E+01  0.26332695403E+02  0.59813494378E+02  0.10000000000E+01 0.  0.
<mgrwt>
<rscale>  0 0.12499997E+03</rscale>
<asrwt>0</asrwt>
<pdfrwt beam="1">  1        4 0.87682765E-02 0.12499997E+03</pdfrwt>
<pdfrwt beam="2">  1       -4 0.10544328E-01 0.12499997E+03</pdfrwt>
<totfact> 0.10441255E+04</totfact>
</mgrwt>
</event>
<event>
 5    1  0.3311405E-002  0.1249988E+03  0.7818608E-02  0.1235071E+00
         -4   -1    0    0    0  501 -0.00000000000E+00  0.00000000000E+00  0.18163312970E+02  0.18207658775E+02  0.12700000000E+01 0.  1.
          4   -1    0    0  501    0  0.00000000000E+00 -0.00000000000E+00 -0.21474993536E+03  0.21475369063E+03  0.12700000000E+01 0.  1.
         25    2    1    2    0    0  0.00000000000E+00  0.00000000000E+00 -0.19658662239E+03  0.23296134940E+03  0.12499876084E+03 0.  0.
    9000005    1    3    3    0    0 -0.32866690146E+02  0.36144555545E+02 -0.25667826517E+02  0.55194977442E+02  0.10000000000E+01 0.  0.
    9000005    1    3    3    0    0  0.32866690146E+02 -0.36144555545E+02 -0.17091879587E+03  0.17776637196E+03  0.10000000000E+01 0.  0.
<mgrwt>
<rscale>  0 0.12499876E+03</rscale>
<asrwt>0</asrwt>
<pdfrwt beam="2">  1        4 0.33042150E-01 0.12499876E+03</pdfrwt>
<pdfrwt beam="1">  1       -4 0.27980561E-02 0.12499876E+03</pdfrwt>
<totfact> 0.84859290E+03</totfact>
</mgrwt>
</event>
<event>
 5    1  0.3311405E-002  0.1249984E+03  0.7818608E-02  0.1235072E+00
          4   -1    0    0  501    0  0.00000000000E+00  0.00000000000E+00  0.25381742417E+02  0.25413495394E+02  0.12700000000E+01 0. -1.
         -4   -1    0    0    0  501 -0.00000000000E+00 -0.00000000000E+00 -0.15376554856E+03  0.15377079315E+03  0.12700000000E+01 0. -1.
         25    2    1    2    0    0  0.00000000000E+00  0.00000000000E+00 -0.12838380615E+03  0.17918428854E+03  0.12499843031E+03 0.  0.
    9000005    1    3    3    0    0 -0.22037156901E+02  0.22442174676E+02 -0.14159868802E+03  0.14505335548E+03  0.10000000000E+01 0.  0.
    9000005    1    3    3    0    0  0.22037156901E+02 -0.22442174676E+02  0.13214881873E+02  0.34130933057E+02  0.10000000000E+01 0.  0.
<mgrwt>
<rscale>  0 0.12499843E+03</rscale>
<asrwt>0</asrwt>
<pdfrwt beam="1">  1        4 0.39077295E-02 0.12499843E+03</pdfrwt>
<pdfrwt beam="2">  1       -4 0.23659084E-01 0.12499843E+03</pdfrwt>
<totfact> 0.93767341E+03</totfact>
</mgrwt>
</event>
<event>
 5    1  0.3311405E-002  0.1249978E+03  0.7818608E-02  0.1235073E+00
         -4   -1    0    0    0  501 -0.00000000000E+00  0.00000000000E+00  0.53185861831E+02  0.53201022534E+02  0.12700000000E+01 0.  1.
          4   -1    0    0  501    0  0.00000000000E+00 -0.00000000000E+00 -0.73411530692E+02  0.73422515202E+02  0.12700000000E+01 0.  1.
         25    2    1    2    0    0  0.00000000000E+00  0.00000000000E+00 -0.20225668861E+02  0.12662353774E+03  0.12499777049E+03 0.  0.
    9000005    1    3    3    0    0 -0.13511305103E+02  0.37753726019E+02  0.38439784825E+02  0.55556424033E+02  0.10000000000E+01 0.  0.
    9000005    1    3    3    0    0  0.13511305103E+02 -0.37753726019E+02 -0.58665453687E+02  0.71067113703E+02  0.10000000000E+01 0.  0.
<mgrwt>
<rscale>  0 0.12499777E+03</rscale>
<asrwt>0</asrwt>
<pdfrwt beam="2">  1        4 0.11296093E-01 0.12499777E+03</pdfrwt>
<pdfrwt beam="1">  1       -4 0.81844515E-02 0.12499777E+03</pdfrwt>
<totfact> 0.10417860E+04</totfact>
</mgrwt>
</event>
<event>
 5    1  0.3311405E-002  0.1250008E+03  0.7818608E-02  0.1235068E+00
          4   -1    0    0  501    0  0.00000000000E+00  0.00000000000E+00  0.11353194778E+02  0.11424006813E+02  0.12700000000E+01 0. -1.
         -4   -1    0    0    0  501 -0.00000000000E+00 -0.00000000000E+00 -0.34292915017E+03  0.34293150181E+03  0.12700000000E+01 0. -1.
         25    2    1    2    0    0  0.00000000000E+00  0.00000000000E+00 -0.33157595539E+03  0.35435550862E+03  0.12500084920E+03 0.  0.
    9000005    1    3    3    0    0 -0.46199643629E+02 -0.54803483992E+00 -0.46502953521E+02  0.65560903744E+02  0.10000000000E+01 0.  0.
    9000005    1    3    3    0    0  0.46199643629E+02  0.54803483992E+00 -0.28507300187E+03  0.28879460488E+03  0.10000000000E+01 0.  0.
<mgrwt>
<rscale>  0 0.12500085E+03</rscale>
<asrwt>0</asrwt>
<pdfrwt beam="1">  1        4 0.17522736E-02 0.12500085E+03</pdfrwt>
<pdfrwt beam="2">  1       -4 0.52763951E-01 0.12500085E+03</pdfrwt>
<totfact> 0.69246742E+03</totfact>
</mgrwt>
</event>
<event>
 5    1  0.3311405E-002  0.1250012E+03  0.7818608E-02  0.1235067E+00
         -4   -1    0    0    0  501 -0.00000000000E+00  0.00000000000E+00  0.11181602575E+04  0.11181609788E+04  0.12700000000E+01 0. -1.
          4   -1    0    0  501    0  0.00000000000E+00 -0.00000000000E+00 -0.33773631139E+01  0.36082518763E+01  0.12700000000E+01 0. -1.
         25    2    1    2    0    0  0.00000000000E+00  0.00000000000E+00  0.11147828944E+04  0.11217692306E+04  0.12500122047E+03 0.  0.
    9000005    1    3    3    0    0 -0.86204424119E+00  0.42711310340E+02  0.96670402127E+03  0.96764800620E+03  0.10000000000E+01 0.  0.
    9000005    1    3    3    0    0  0.86204424119E+00 -0.42711310340E+02  0.14807887315E+03  0.15412122445E+03  0.10000000000E+01 0.  0.
<mgrwt>
<rscale>  0 0.12500122E+03</rscale>
<asrwt>0</asrwt>
<pdfrwt beam="2">  1        4 0.53740985E-03 0.12500122E+03</pdfrwt>
<pdfrwt beam="1">  1       -4 0.17204267E+00 0.12500122E+03</pdfrwt>
<totfact> 0.26854095E+03</totfact>
</mgrwt>
</event>
<event>
 5    1  0.3311405E-002  0.1250046E+03  0.7818608E-02  0.1235062E+00
         -4   -1    0    0    0  501 -0.00000000000E+00  0.00000000000E+00  0.22297274907E+01  0.25660445598E+01  0.12700000000E+01 0. -1.
          4   -1    0    0  501    0  0.00000000000E+00 -0.00000000000E+00 -0.16288231993E+04  0.16288236944E+04  0.12700000000E+01 0. -1.
         25    2    1    2    0    0  0.00000000000E+00  0.00000000000E+00 -0.16265934718E+04  0.16313897390E+04  0.12500463147E+03 0.  0.
    9000005    1    3    3    0    0 -0.61944800374E+02 -0.22745171036E+01 -0.70953988276E+03  0.71224306030E+03  0.10000000000E+01 0.  0.
    9000005    1    3    3    0    0  0.61944800374E+02  0.22745171036E+01 -0.91705358908E+03  0.91914667870E+03  0.10000000000E+01 0.  0.
<mgrwt>
<rscale>  0 0.12500463E+03</rscale>
<asrwt>0</asrwt>
<pdfrwt beam="2">  1        4 0.25061321E+00 0.12500463E+03</pdfrwt>
<pdfrwt beam="1">  1       -4 0.36894493E-03 0.12500463E+03</pdfrwt>
<totfact> 0.15483881E+03</totfact>
</mgrwt>
</event>
<event>
 5    1  0.3311405E-002  0.1250003E+03  0.7818608E-02  0.1235069E+00
         -4   -1    0    0    0  501 -0.00000000000E+00  0.00000000000E+00  0.13912185009E+02  0.13970031916E+02  0.12700000000E+01 0. -1.
          4   -1    0    0  501    0  0.00000000000E+00 -0.00000000000E+00 -0.28013861023E+03  0.28014148897E+03  0.12700000000E+01 0. -1.
         25    2    1    2    0    0  0.00000000000E+00  0.00000000000E+00 -0.26622642523E+03  0.29411152089E+03  0.12500030893E+03 0.  0.
    9000005    1    3    3    0    0 -0.21262635242E+02 -0.46268440471E+02 -0.47875018895E+02  0.69899110690E+02  0.10000000000E+01 0.  0.
    9000005    1    3    3    0    0  0.21262635242E+02  0.46268440471E+02 -0.21835140633E+03  0.22421241020E+03  0.10000000000E+01 0.  0.
<mgrwt>
<rscale>  0 0.12500031E+03</rscale>
<asrwt>0</asrwt>
<pdfrwt beam="2">  1        4 0.43102915E-01 0.12500031E+03</pdfrwt>
<pdfrwt beam="1">  1       -4 0.21450076E-02 0.12500031E+03</pdfrwt>
<totfact> 0.76342944E+03</totfact>
</mgrwt>
</event>
<event>
 5    1  0.3311405E-002  0.1250015E+03  0.7818608E-02  0.1235067E+00
          4   -1    0    0  501    0  0.00000000000E+00  0.00000000000E+00  0.26725843171E+03  0.26726144919E+03  0.12700000000E+01 0.  1.
         -4   -1    0    0    0  501 -0.00000000000E+00 -0.00000000000E+00 -0.14585671364E+02  0.14640857527E+02  0.12700000000E+01 0.  1.
         25    2    1    2    0    0  0.00000000000E+00  0.00000000000E+00  0.25267276035E+03  0.28190230672E+03  0.12500154682E+03 0.  0.
    9000005    1    3    3    0    0 -0.78286794762E+00 -0.35472493676E+02  0.24235132537E+03  0.24493688084E+03  0.10000000000E+01 0.  0.
    9000005    1    3    3    0    0  0.78286794762E+00  0.35472493676E+02  0.10321434984E+02  0.36965425873E+02  0.10000000000E+01 0.  0.
<mgrwt>
<rscale>  0 0.12500155E+03</rscale>
<asrwt>0</asrwt>
<pdfrwt beam="1">  1        4 0.41121155E-01 0.12500155E+03</pdfrwt>
<pdfrwt beam="2">  1       -4 0.22484268E-02 0.12500155E+03</pdfrwt>
<totfact> 0.77923870E+03</totfact>
</mgrwt>
</event>
<event>
 5    1  0.3311405E-002  0.1249976E+03  0.7818608E-02  0.1235073E+00
          4   -1    0    0  501    0  0.00000000000E+00  0.00000000000E+00  0.83375874824E+01  0.84337574679E+01  0.12700000000E+01 0.  1.
         -4   -1    0    0    0  501 -0.00000000000E+00 -0.00000000000E+00 -0.46570964911E+03  0.46571138077E+03  0.12700000000E+01 0.  1.
         25    2    1    2    0    0  0.00000000000E+00  0.00000000000E+00 -0.45737206163E+03  0.47414513823E+03  0.12499763739E+03 0.  0.
    9000005    1    3    3    0    0  0.17195959575E+02 -0.14057873563E+02 -0.45025036290E+03  0.45079897307E+03  0.10000000000E+01 0.  0.
    9000005    1    3    3    0    0 -0.17195959575E+02  0.14057873563E+02 -0.71216987289E+01  0.23346165158E+02  0.10000000000E+01 0.  0.
<mgrwt>
<rscale>  0 0.12499764E+03</rscale>
<asrwt>0</asrwt>
<pdfrwt beam="1">  1        4 0.12902370E-02 0.12499764E+03</pdfrwt>
<pdfrwt beam="2">  1       -4 0.71655149E-01 0.12499764E+03</pdfrwt>
<totfact> 0.57930733E+03</totfact>
</mgrwt>
</event>
<event>
 5    1  0.3311405E-002  0.1250044E+03  0.7818608E-02  0.1235062E+00
         -4   -1    0    0    0  501 -0.00000000000E+00  0.00000000000E+00  0.94987063855E+02  0.94995553579E+02  0.12700000000E+01 0.  1.
          4   -1    0    0  501    0  0.00000000000E+00 -0.00000000000E+00 -0.41106748398E+02  0.41126362152E+02  0.12700000000E+01 0.  1.
         25    2    1    2    0    0  0.00000000000E+00  0.00000000000E+00  0.53880315457E+02  0.13612191573E+03  0.12500435012E+03 0.  0.
    9000005    1    3    3    0    0 -0.37994523486E+02  0.45060243569E+02  0.43197917414E+01  0.59107275069E+02  0.10000000000E+01 0.  0.
    9000005    1    3    3    0    0  0.37994523486E+02 -0.45060243569E+02  0.49560523715E+02  0.77014640663E+02  0.10000000000E+01 0.  0.
<mgrwt>
<rscale>  0 0.12500435E+03</rscale>
<asrwt>0</asrwt>
<pdfrwt beam="2">  1        4 0.63262770E-02 0.12500435E+03</pdfrwt>
<pdfrwt beam="1">  1       -4 0.14615556E-01 0.12500435E+03</pdfrwt>
<totfact> 0.10213476E+04</totfact>
</mgrwt>
</event>
<event>
 5    1  0.3311405E-002  0.1249996E+03  0.7818608E-02  0.1235070E+00
         -4   -1    0    0    0  501 -0.00000000000E+00  0.00000000000E+00  0.10878849295E+02  0.10952728518E+02  0.12700000000E+01 0. -1.
          4   -1    0    0  501    0  0.00000000000E+00 -0.00000000000E+00 -0.35777562476E+03  0.35777787881E+03  0.12700000000E+01 0. -1.
         25    2    1    2    0    0  0.00000000000E+00  0.00000000000E+00 -0.34689677546E+03  0.36873060733E+03  0.12499955183E+03 0.  0.
    9000005    1    3    3    0    0 -0.35271952112E+02  0.45482622710E+02 -0.24524828199E+03  0.25191367449E+03  0.10000000000E+01 0.  0.
    9000005    1    3    3    0    0  0.35271952112E+02 -0.45482622710E+02 -0.10164849347E+03  0.11681693284E+03  0.10000000000E+01 0.  0.
<mgrwt>
<rscale>  0 0.12499955E+03</rscale>
<asrwt>0</asrwt>
<pdfrwt beam="2">  1        4 0.55048252E-01 0.12499955E+03</pdfrwt>
<pdfrwt beam="1">  1       -4 0.16795258E-02 0.12499955E+03</pdfrwt>
<totfact> 0.67712623E+03</totfact>
</mgrwt>
</event>
<event>
 5    1  0.3311405E-002  0.1249959E+03  0.7818608E-02  0.1235076E+00
         -4   -1    0    0    0  501 -0.00000000000E+00  0.00000000000E+00  0.64503502112E+01  0.65741857174E+01  0.12700000000E+01 0. -1.
          4   -1    0    0  501    0  0.00000000000E+00 -0.00000000000E+00 -0.59966598857E+03  0.59966733340E+03  0.12700000000E+01 0. -1.
         25    2    1    2    0    0  0.00000000000E+00  0.00000000000E+00 -0.59321563836E+03  0.60624151912E+03  0.12499594357E+03 0.  0.
    9000005    1    3    3    0    0  0.27347403342E+02 -0.56005057706E+02 -0.31859404008E+03  0.32463457815E+03  0.10000000000E+01 0.  0.
    9000005    1    3    3    0    0 -0.27347403342E+02  0.56005057706E+02 -0.27462159828E+03  0.28160694097E+03  0.10000000000E+01 0.  0.
<mgrwt>
<rscale>  0 0.12499594E+03</rscale>
<asrwt>0</asrwt>
<pdfrwt beam="2">  1        4 0.92265892E-01 0.12499594E+03</pdfrwt>
<pdfrwt beam="1">  1       -4 0.10019913E-02 0.12499594E+03</pdfrwt>
<totfact> 0.48480311E+03</totfact>
</mgrwt>
</event>
<event>
 5    1  0.3311405E-002  0.1250024E+03  0.7818608E-02  0.1235066E+00
         -4   -1    0    0    0  501 -0.00000000000E+00  0.00000000000E+00  0.11335606386E+02  0.11406527611E+02  0.12700000000E+01 0.  1.
          4   -1    0    0  501    0  0.00000000000E+00 -0.00000000000E+00 -0.34346623804E+03  0.34346858600E+03  0.12700000000E+01 0.  1.
         25    2    1    2    0    0  0.00000000000E+00  0.00000000000E+00 -0.33213063165E+03  0.35487511361E+03  0.12500235911E+03 0.  0.
    9000005    1    3    3    0    0  0.23605874848E+02  0.48715986830E+02 -0.77423180503E+02  0.94476629805E+02  0.10000000000E+01 0.  0.
    9000005    1    3    3    0    0 -0.23605874848E+02 -0.48715986830E+02 -0.25470745115E+03  0.26039848381E+03  0.10000000000E+01 0.  0.
<mgrwt>
<rscale>  0 0.12500236E+03</rscale>
<asrwt>0</asrwt>
<pdfrwt beam="2">  1        4 0.52846588E-01 0.12500236E+03</pdfrwt>
<pdfrwt beam="1">  1       -4 0.17495758E-02 0.12500236E+03</pdfrwt>
<totfact> 0.69187935E+03</totfact>
</mgrwt>
</event>
<event>
 5    1  0.3311405E-002  0.1249750E+03  0.7818608E-02  0.1235108E+00
         -4   -1    0    0    0  501 -0.00000000000E+00  0.00000000000E+00  0.32133154837E+02  0.32158242175E+02  0.12700000000E+01 0.  1.
          4   -1    0    0  501    0  0.00000000000E+00 -0.00000000000E+00 -0.12144003955E+03  0.12144668010E+03  0.12700000000E+01 0.  1.
         25    2    1    2    0    0  0.00000000000E+00  0.00000000000E+00 -0.89306884717E+02  0.15360492227E+03  0.12497500746E+03 0.  0.
    9000005    1    3    3    0    0 -0.56615549024E+02  0.24347154208E+02 -0.32024103031E+02  0.69459682437E+02  0.10000000000E+01 0.  0.
    9000005    1    3    3    0    0  0.56615549024E+02 -0.24347154208E+02 -0.57282781686E+02  0.84145239836E+02  0.10000000000E+01 0.  0.
<mgrwt>
<rscale>  0 0.12497501E+03</rscale>
<asrwt>0</asrwt>
<pdfrwt beam="2">  1        4 0.18685523E-01 0.12497501E+03</pdfrwt>
<pdfrwt beam="1">  1       -4 0.49460030E-02 0.12497501E+03</pdfrwt>
<totfact> 0.98645356E+03</totfact>
</mgrwt>
</event>
<event>
 5    1  0.3311405E-002  0.1250044E+03  0.7818608E-02  0.1235062E+00
          4   -1    0    0  501    0  0.00000000000E+00  0.00000000000E+00  0.68201075145E+01  0.69373457827E+01  0.12700000000E+01 0. -1.
         -4   -1    0    0    0  501 -0.00000000000E+00 -0.00000000000E+00 -0.56779576981E+03  0.56779719013E+03  0.12700000000E+01 0. -1.
         25    2    1    2    0    0  0.00000000000E+00  0.00000000000E+00 -0.56097566230E+03  0.57473453591E+03  0.12500437223E+03 0.  0.
    9000005    1    3    3    0    0 -0.54244862517E+02 -0.26344296256E+02 -0.35589544104E+03  0.36096965524E+03  0.10000000000E+01 0.  0.
    9000005    1    3    3    0    0  0.54244862517E+02  0.26344296256E+02 -0.20508022126E+03  0.21376488067E+03  0.10000000000E+01 0.  0.
<mgrwt>
<rscale>  0 0.12500437E+03</rscale>
<asrwt>0</asrwt>
<pdfrwt beam="1">  1        4 0.10583753E-02 0.12500437E+03</pdfrwt>
<pdfrwt beam="2">  1       -4 0.87362286E-01 0.12500437E+03</pdfrwt>
<totfact> 0.50497461E+03</totfact>
</mgrwt>
</event>
<event>
 5    1  0.3311405E-002  0.1249999E+03  0.7818608E-02  0.1235069E+00
          4   -1    0    0  501    0  0.00000000000E+00  0.00000000000E+00  0.49687238015E+01  0.51284613887E+01  0.12700000000E+01 0.  1.
         -4   -1    0    0    0  501 -0.00000000000E+00 -0.00000000000E+00 -0.77356947887E+03  0.77357052137E+03  0.12700000000E+01 0.  1.
         25    2    1    2    0    0  0.00000000000E+00  0.00000000000E+00 -0.76860075507E+03  0.77869898276E+03  0.12499994026E+03 0.  0.
    9000005    1    3    3    0    0 -0.51507434634E+02 -0.34448340274E+02 -0.43473405387E+03  0.43912913996E+03  0.10000000000E+01 0.  0.
    9000005    1    3    3    0    0  0.51507434634E+02  0.34448340274E+02 -0.33386670120E+03  0.33956984280E+03  0.10000000000E+01 0.  0.
<mgrwt>
<rscale>  0 0.12499994E+03</rscale>
<asrwt>0</asrwt>
<pdfrwt beam="1">  1        4 0.77678736E-03 0.12499994E+03</pdfrwt>
<pdfrwt beam="2">  1       -4 0.11902296E+00 0.12499994E+03</pdfrwt>
<totfact> 0.39233601E+03</totfact>
</mgrwt>
</event>
<event>
 5    1  0.3311405E-002  0.1250005E+03  0.7818608E-02  0.1235069E+00
          4   -1    0    0  501    0  0.00000000000E+00  0.00000000000E+00  0.17374956898E+03  0.17375421037E+03  0.12700000000E+01 0.  1.
         -4   -1    0    0    0  501 -0.00000000000E+00 -0.00000000000E+00 -0.22459368790E+02  0.22495247197E+02  0.12700000000E+01 0.  1.
         25    2    1    2    0    0  0.00000000000E+00  0.00000000000E+00  0.15129020019E+03  0.19624945756E+03  0.12500049968E+03 0.  0.
    9000005    1    3    3    0    0  0.27518851012E+01 -0.35924960589E+02  0.15580848080E+03  0.15992328897E+03  0.10000000000E+01 0.  0.
    9000005    1    3    3    0    0 -0.27518851012E+01  0.35924960589E+02 -0.45182806145E+01  0.36326168593E+02  0.10000000000E+01 0.  0.
<mgrwt>
<rscale>  0 0.12500050E+03</rscale>
<asrwt>0</asrwt>
<pdfrwt beam="1">  1        4 0.26733820E-01 0.12500050E+03</pdfrwt>
<pdfrwt beam="2">  1       -4 0.34584044E-02 0.12500050E+03</pdfrwt>
<totfact> 0.90770141E+03</totfact>
</mgrwt>
</event>
<event>
 5    1  0.3311405E-002  0.1250005E+03  0.7818608E-02  0.1235069E+00
         -4   -1    0    0    0  501 -0.00000000000E+00  0.00000000000E+00  0.35486893388E+03  0.35487120640E+03  0.12700000000E+01 0.  1.
          4   -1    0    0  501    0  0.00000000000E+00 -0.00000000000E+00 -0.10968723344E+02  0.11042001259E+02  0.12700000000E+01 0.  1.
         25    2    1    2    0    0  0.00000000000E+00  0.00000000000E+00  0.34390021053E+03  0.36591320766E+03  0.12500048294E+03 0.  0.
    9000005    1    3    3    0    0  0.36887353672E+02 -0.50076207484E+02  0.18975055032E+03  0.19968619072E+03  0.10000000000E+01 0.  0.
    9000005    1    3    3    0    0 -0.36887353672E+02  0.50076207484E+02  0.15414966021E+03  0.16622701694E+03  0.10000000000E+01 0.  0.
<mgrwt>
<rscale>  0 0.12500048E+03</rscale>
<asrwt>0</asrwt>
<pdfrwt beam="2">  1        4 0.16933077E-02 0.12500048E+03</pdfrwt>
<pdfrwt beam="1">  1       -4 0.54601024E-01 0.12500048E+03</pdfrwt>
<totfact> 0.68007948E+03</totfact>
</mgrwt>
</event>
<event>
 5    1  0.3311405E-002  0.1249973E+03  0.7818608E-02  0.1235074E+00
          4   -1    0    0  501    0  0.00000000000E+00  0.00000000000E+00  0.13122501854E+02  0.13183814126E+02  0.12700000000E+01 0.  1.
         -4   -1    0    0    0  501 -0.00000000000E+00 -0.00000000000E+00 -0.29690628071E+03  0.29690899688E+03  0.12700000000E+01 0.  1.
         25    2    1    2    0    0  0.00000000000E+00  0.00000000000E+00 -0.28378377886E+03  0.31009281100E+03  0.12499727314E+03 0.  0.
    9000005    1    3    3    0    0 -0.22699656142E+01  0.38508899700E+02 -0.26385506349E+03  0.26666192572E+03  0.10000000000E+01 0.  0.
    9000005    1    3    3    0    0  0.22699656142E+01 -0.38508899700E+02 -0.19928715366E+02  0.43430885279E+02  0.10000000000E+01 0.  0.
<mgrwt>
<rscale>  0 0.12499727E+03</rscale>
<asrwt>0</asrwt>
<pdfrwt beam="1">  1        4 0.20237719E-02 0.12499727E+03</pdfrwt>
<pdfrwt beam="2">  1       -4 0.45682809E-01 0.12499727E+03</pdfrwt>
<totfact> 0.74354508E+03</totfact>
</mgrwt>
</event>
<event>
 5    1  0.3311405E-002  0.1250001E+03  0.7818608E-02  0.1235069E+00
         -4   -1    0    0    0  501 -0.00000000000E+00  0.00000000000E+00  0.86248688556E+02  0.86258038336E+02  0.12700000000E+01 0.  1.
          4   -1    0    0  501    0  0.00000000000E+00 -0.00000000000E+00 -0.45269909692E+02  0.45287720450E+02  0.12700000000E+01 0.  1.
         25    2    1    2    0    0  0.00000000000E+00  0.00000000000E+00  0.40978778864E+02  0.13154575879E+03  0.12500010535E+03 0.  0.
    9000005    1    3    3    0    0  0.55925972455E+02 -0.70951343836E+00  0.49824506000E+02  0.74911275536E+02  0.10000000000E+01 0.  0.
    9000005    1    3    3    0    0 -0.55925972455E+02  0.70951343836E+00 -0.88457271368E+01  0.56634483249E+02  0.10000000000E+01 0.  0.
<mgrwt>
<rscale>  0 0.12500011E+03</rscale>
<asrwt>0</asrwt>
<pdfrwt beam="2">  1        4 0.69666909E-02 0.12500011E+03</pdfrwt>
<pdfrwt beam="1">  1       -4 0.13271118E-01 0.12500011E+03</pdfrwt>
<totfact> 0.10311379E+04</totfact>
</mgrwt>
</event>
<event>
 5    1  0.3311405E-002  0.1249896E+03  0.7818608E-02  0.1235086E+00
          4   -1    0    0  501    0  0.00000000000E+00  0.00000000000E+00  0.58606978293E+02  0.58620736984E+02  0.12700000000E+01 0. -1.
         -4   -1    0    0    0  501 -0.00000000000E+00 -0.00000000000E+00 -0.66612868634E+02  0.66624974054E+02  0.12700000000E+01 0. -1.
         25    2    1    2    0    0  0.00000000000E+00  0.00000000000E+00 -0.80058903417E+01  0.12524571104E+03  0.12498957498E+03 0.  0.
    9000005    1    3    3    0    0 -0.48683699817E+01 -0.35807154590E+02  0.47079410258E+02  0.59357596114E+02  0.10000000000E+01 0.  0.
    9000005    1    3    3    0    0  0.48683699817E+01  0.35807154590E+02 -0.55085300600E+02  0.65888114925E+02  0.10000000000E+01 0.  0.
<mgrwt>
<rscale>  0 0.12498957E+03</rscale>
<asrwt>0</asrwt>
<pdfrwt beam="1">  1        4 0.90184477E-02 0.12498957E+03</pdfrwt>
<pdfrwt beam="2">  1       -4 0.10250123E-01 0.12498957E+03</pdfrwt>
<totfact> 0.10449990E+04</totfact>
</mgrwt>
</event>
<event>
 5    1  0.3311405E-002  0.1249978E+03  0.7818608E-02  0.1235073E+00
         -4   -1    0    0    0  501 -0.00000000000E+00  0.00000000000E+00  0.22293918888E+03  0.22294280620E+03  0.12700000000E+01 0. -1.
          4   -1    0    0  501    0  0.00000000000E+00 -0.00000000000E+00 -0.17494201472E+02  0.17540239028E+02  0.12700000000E+01 0. -1.
         25    2    1    2    0    0  0.00000000000E+00  0.00000000000E+00  0.20544498741E+03  0.24048304523E+03  0.12499780875E+03 0.  0.
    9000005    1    3    3    0    0 -0.48374684805E+02  0.15384080879E+02  0.32603521811E+02  0.60338791079E+02  0.10000000000E+01 0.  0.
    9000005    1    3    3    0    0  0.48374684805E+02 -0.15384080879E+02  0.17284146560E+03  0.18014425415E+03  0.10000000000E+01 0.  0.
<mgrwt>
<rscale>  0 0.12499781E+03</rscale>
<asrwt>0</asrwt>
<pdfrwt beam="2">  1        4 0.26952352E-02 0.12499781E+03</pdfrwt>
<pdfrwt beam="1">  1       -4 0.34302156E-01 0.12499781E+03</pdfrwt>
<totfact> 0.83729568E+03</totfact>
</mgrwt>
</event>
<event>
 5    1  0.3311405E-002  0.1250005E+03  0.7818608E-02  0.1235068E+00
          4   -1    0    0  501    0  0.00000000000E+00  0.00000000000E+00  0.76729654243E+03  0.76729759346E+03  0.12700000000E+01 0.  1.
         -4   -1    0    0    0  501 -0.00000000000E+00 -0.00000000000E+00 -0.50106942499E+01  0.51691350210E+01  0.12700000000E+01 0.  1.
         25    2    1    2    0    0  0.00000000000E+00  0.00000000000E+00  0.76228584818E+03  0.77246672848E+03  0.12500052908E+03 0.  0.
    9000005    1    3    3    0    0 -0.35507335232E+02  0.30867435671E+02  0.12696878847E+03  0.13540916766E+03  0.10000000000E+01 0.  0.
    9000005    1    3    3    0    0  0.35507335232E+02 -0.30867435671E+02  0.63531705971E+03  0.63705756082E+03  0.10000000000E+01 0.  0.
<mgrwt>
<rscale>  0 0.12500053E+03</rscale>
<asrwt>0</asrwt>
<pdfrwt beam="1">  1        4 0.11805791E+00 0.12500053E+03</pdfrwt>
<pdfrwt beam="2">  1       -4 0.78314453E-03 0.12500053E+03</pdfrwt>
<totfact> 0.39521430E+03</totfact>
</mgrwt>
</event>
<event>
 5    1  0.3311405E-002  0.1250031E+03  0.7818608E-02  0.1235064E+00
          4   -1    0    0  501    0  0.00000000000E+00  0.00000000000E+00  0.63757938994E+03  0.63758065480E+03  0.12700000000E+01 0. -1.
         -4   -1    0    0    0  501 -0.00000000000E+00 -0.00000000000E+00 -0.60598994650E+01  0.61915492024E+01  0.12700000000E+01 0. -1.
         25    2    1    2    0    0  0.00000000000E+00  0.00000000000E+00  0.63151949048E+03  0.64377220400E+03  0.12500313515E+03 0.  0.
    9000005    1    3    3    0    0  0.38881571110E+01  0.10555135612E+02 -0.82866309583E+00  0.11323221098E+02  0.10000000000E+01 0.  0.
    9000005    1    3    3    0    0 -0.38881571110E+01 -0.10555135612E+02  0.63234815357E+03  0.63244898291E+03  0.10000000000E+01 0.  0.
<mgrwt>
<rscale>  0 0.12500314E+03</rscale>
<asrwt>0</asrwt>
<pdfrwt beam="1">  1        4 0.98099309E-01 0.12500314E+03</pdfrwt>
<pdfrwt beam="2">  1       -4 0.94251693E-03 0.12500314E+03</pdfrwt>
<totfact> 0.46212976E+03</totfact>
</mgrwt>
</event>
<event>
 5    1  0.3311405E-002  0.1250000E+03  0.7818608E-02  0.1235069E+00
          4   -1    0    0  501    0  0.00000000000E+00  0.00000000000E+00  0.10546783167E+03  0.10547547780E+03  0.12700000000E+01 0.  1.
         -4   -1    0    0    0  501 -0.00000000000E+00 -0.00000000000E+00 -0.37017465610E+02  0.37039244866E+02  0.12700000000E+01 0.  1.
         25    2    1    2    0    0  0.00000000000E+00  0.00000000000E+00  0.68450366061E+02  0.14251472267E+03  0.12499997425E+03 0.  0.
    9000005    1    3    3    0    0 -0.32730584841E+02 -0.50721705260E+02  0.15796635424E+02  0.62406059475E+02  0.10000000000E+01 0.  0.
    9000005    1    3    3    0    0  0.32730584841E+02  0.50721705260E+02  0.52653730637E+02  0.80108663192E+02  0.10000000000E+01 0.  0.
<mgrwt>
<rscale>  0 0.12499997E+03</rscale>
<asrwt>0</asrwt>
<pdfrwt beam="1">  1        4 0.16228083E-01 0.12499997E+03</pdfrwt>
<pdfrwt beam="2">  1       -4 0.56972583E-02 0.12499997E+03</pdfrwt>
<totfact> 0.10081736E+04</totfact>
</mgrwt>
</event>
<event>
 5    1  0.3311405E-002  0.1249981E+03  0.7818608E-02  0.1235072E+00
         -4   -1    0    0    0  501 -0.00000000000E+00  0.00000000000E+00  0.68331874339E+02  0.68343675279E+02  0.12700000000E+01 0. -1.
          4   -1    0    0  501    0  0.00000000000E+00 -0.00000000000E+00 -0.57140365028E+02  0.57154476776E+02  0.12700000000E+01 0. -1.
         25    2    1    2    0    0  0.00000000000E+00  0.00000000000E+00  0.11191509311E+02  0.12549815206E+03  0.12499814514E+03 0.  0.
    9000005    1    3    3    0    0 -0.38535008695E+02 -0.44738021427E+02  0.26139682817E+02  0.64581115460E+02  0.10000000000E+01 0.  0.
    9000005    1    3    3    0    0  0.38535008695E+02  0.44738021427E+02 -0.14948173506E+02  0.60917036595E+02  0.10000000000E+01 0.  0.
<mgrwt>
<rscale>  0 0.12499815E+03</rscale>
<asrwt>0</asrwt>
<pdfrwt beam="2">  1        4 0.87928187E-02 0.12499815E+03</pdfrwt>
<pdfrwt beam="1">  1       -4 0.10514589E-01 0.12499815E+03</pdfrwt>
<totfact> 0.10442432E+04</totfact>
</mgrwt>
</event>
<event>
 5    1  0.3311405E-002  0.1250447E+03  0.7818608E-02  0.1234999E+00
          4   -1    0    0  501    0  0.00000000000E+00  0.00000000000E+00  0.44743524416E+03  0.44743704654E+03  0.12700000000E+01 0.  1.
         -4   -1    0    0    0  501 -0.00000000000E+00 -0.00000000000E+00 -0.86885769588E+01  0.87809036875E+01  0.12700000000E+01 0.  1.
         25    2    1    2    0    0  0.00000000000E+00  0.00000000000E+00  0.43874666720E+03  0.45621795023E+03  0.12504471252E+03 0.  0.
    9000005    1    3    3    0    0 -0.61509670852E+02 -0.88429814279E+01  0.19451916338E+03  0.20420661804E+03  0.10000000000E+01 0.  0.
    9000005    1    3    3    0    0  0.61509670852E+02  0.88429814279E+01  0.24422750382E+03  0.25201133219E+03  0.10000000000E+01 0.  0.
<mgrwt>
<rscale>  0 0.12504471E+03</rscale>
<asrwt>0</asrwt>
<pdfrwt beam="1">  1        4 0.68843443E-01 0.12504471E+03</pdfrwt>
<pdfrwt beam="2">  1       -4 0.13439446E-02 0.12504471E+03</pdfrwt>
<totfact> 0.59370407E+03</totfact>
</mgrwt>
</event>
<event>
 5    1  0.3311405E-002  0.1249972E+03  0.7818608E-02  0.1235074E+00
          4   -1    0    0  501    0  0.00000000000E+00  0.00000000000E+00  0.19641566861E+02  0.19682582370E+02  0.12700000000E+01 0. -1.
         -4   -1    0    0    0  501 -0.00000000000E+00 -0.00000000000E+00 -0.19861728328E+03  0.19862134356E+03  0.12700000000E+01 0. -1.
         25    2    1    2    0    0  0.00000000000E+00  0.00000000000E+00 -0.17897571642E+03  0.21830392593E+03  0.12499718800E+03 0.  0.
    9000005    1    3    3    0    0 -0.51515976151E+02  0.15510417212E+02 -0.33967518765E+02  0.63633805260E+02  0.10000000000E+01 0.  0.
    9000005    1    3    3    0    0  0.51515976151E+02 -0.15510417212E+02 -0.14500819766E+03  0.15467012067E+03  0.10000000000E+01 0.  0.
<mgrwt>
<rscale>  0 0.12499719E+03</rscale>
<asrwt>0</asrwt>
<pdfrwt beam="1">  1        4 0.30252470E-02 0.12499719E+03</pdfrwt>
<pdfrwt beam="2">  1       -4 0.30559971E-01 0.12499719E+03</pdfrwt>
<totfact> 0.87142919E+03</totfact>
</mgrwt>
</event>
<event>
 5    1  0.3311405E-002  0.1250413E+03  0.7818608E-02  0.1235005E+00
          4   -1    0    0  501    0  0.00000000000E+00  0.00000000000E+00  0.28165461388E+02  0.28194079435E+02  0.12700000000E+01 0. -1.
         -4   -1    0    0    0  501 -0.00000000000E+00 -0.00000000000E+00 -0.13867896068E+03  0.13868477579E+03  0.12700000000E+01 0. -1.
         25    2    1    2    0    0  0.00000000000E+00  0.00000000000E+00 -0.11051349929E+03  0.16687885522E+03  0.12504126836E+03 0.  0.
    9000005    1    3    3    0    0 -0.19503160993E+02 -0.39119762167E+02 -0.11489816134E+03  0.12293622965E+03  0.10000000000E+01 0.  0.
    9000005    1    3    3    0    0  0.19503160993E+02  0.39119762167E+02  0.43846620516E+01  0.43942625571E+02  0.10000000000E+01 0.  0.
<mgrwt>
<rscale>  0 0.12504127E+03</rscale>
<asrwt>0</asrwt>
<pdfrwt beam="1">  1        4 0.43357967E-02 0.12504127E+03</pdfrwt>
<pdfrwt beam="2">  1       -4 0.21337873E-01 0.12504127E+03</pdfrwt>
<totfact> 0.95943788E+03</totfact>
</mgrwt>
</event>
<event>
 5    1  0.3311405E-002  0.1250001E+03  0.7818608E-02  0.1235069E+00
          4   -1    0    0  501    0  0.00000000000E+00  0.00000000000E+00  0.10847225298E+02  0.10921318449E+02  0.12700000000E+01 0. -1.
         -4   -1    0    0    0  501 -0.00000000000E+00 -0.00000000000E+00 -0.35881449792E+03  0.35881674546E+03  0.12700000000E+01 0. -1.
         25    2    1    2    0    0  0.00000000000E+00  0.00000000000E+00 -0.34796727263E+03  0.36973806391E+03  0.12500005233E+03 0.  0.
    9000005    1    3    3    0    0 -0.49962489183E+01  0.57457681101E+02 -0.24515214443E+03  0.25184702011E+03  0.10000000000E+01 0.  0.
    9000005    1    3    3    0    0  0.49962489183E+01 -0.57457681101E+02 -0.10281512820E+03  0.11789104379E+03  0.10000000000E+01 0.  0.
<mgrwt>
<rscale>  0 0.12500005E+03</rscale>
<asrwt>0</asrwt>
<pdfrwt beam="1">  1        4 0.16746765E-02 0.12500005E+03</pdfrwt>
<pdfrwt beam="2">  1       -4 0.55208094E-01 0.12500005E+03</pdfrwt>
<totfact> 0.67606275E+03</totfact>
</mgrwt>
</event>
<event>
 5    1  0.3311405E-002  0.1250020E+03  0.7818608E-02  0.1235066E+00
          4   -1    0    0  501    0  0.00000000000E+00  0.00000000000E+00  0.51612203196E+02  0.51627826012E+02  0.12700000000E+01 0.  1.
         -4   -1    0    0    0  501 -0.00000000000E+00 -0.00000000000E+00 -0.75654688597E+02  0.75665347463E+02  0.12700000000E+01 0.  1.
         25    2    1    2    0    0  0.00000000000E+00  0.00000000000E+00 -0.24042485401E+02  0.12729317347E+03  0.12500204362E+03 0.  0.
    9000005    1    3    3    0    0 -0.85328380261E+01  0.40860475899E+02 -0.59381630244E+02  0.72591775195E+02  0.10000000000E+01 0.  0.
    9000005    1    3    3    0    0  0.85328380261E+01 -0.40860475899E+02  0.35339144843E+02  0.54701398280E+02  0.10000000000E+01 0.  0.
<mgrwt>
<rscale>  0 0.12500204E+03</rscale>
<asrwt>0</asrwt>
<pdfrwt beam="1">  1        4 0.79423606E-02 0.12500204E+03</pdfrwt>
<pdfrwt beam="2">  1       -4 0.11641205E-01 0.12500204E+03</pdfrwt>
<totfact> 0.10402303E+04</totfact>
</mgrwt>
</event>
<event>
 5    1  0.3311405E-002  0.1249979E+03  0.7818608E-02  0.1235073E+00
         -4   -1    0    0    0  501 -0.00000000000E+00  0.00000000000E+00  0.76006225238E+01  0.77059952471E+01  0.12700000000E+01 0. -1.
          4   -1    0    0  501    0  0.00000000000E+00 -0.00000000000E+00 -0.51027669076E+03  0.51027827117E+03  0.12700000000E+01 0. -1.
         25    2    1    2    0    0  0.00000000000E+00  0.00000000000E+00 -0.50267606823E+03  0.51798426642E+03  0.12499788271E+03 0.  0.
    9000005    1    3    3    0    0 -0.38917190160E+02 -0.18500258145E+02 -0.43888575886E+03  0.44099718431E+03  0.10000000000E+01 0.  0.
    9000005    1    3    3    0    0  0.38917190160E+02  0.18500258145E+02 -0.63790309375E+02  0.76987082108E+02  0.10000000000E+01 0.  0.
<mgrwt>
<rscale>  0 0.12499788E+03</rscale>
<asrwt>0</asrwt>
<pdfrwt beam="2">  1        4 0.78512307E-01 0.12499788E+03</pdfrwt>
<pdfrwt beam="1">  1       -4 0.11775541E-02 0.12499788E+03</pdfrwt>
<totfact> 0.54498065E+03</totfact>
</mgrwt>
</event>
<event>
 5    1  0.3311405E-002  0.1249997E+03  0.7818608E-02  0.1235070E+00
         -4   -1    0    0    0  501 -0.00000000000E+00  0.00000000000E+00  0.33268159970E+03  0.33268402378E+03  0.12700000000E+01 0. -1.
          4   -1    0    0  501    0  0.00000000000E+00 -0.00000000000E+00 -0.11704835640E+02  0.11773532918E+02  0.12700000000E+01 0. -1.
         25    2    1    2    0    0  0.00000000000E+00  0.00000000000E+00  0.32097676406E+03  0.34445755670E+03  0.12499970120E+03 0.  0.
    9000005    1    3    3    0    0  0.61525296330E+02 -0.73602853486E+01  0.13815295080E+03  0.15141589647E+03  0.10000000000E+01 0.  0.
    9000005    1    3    3    0    0 -0.61525296330E+02  0.73602853486E+01  0.18282381326E+03  0.19304166023E+03  0.10000000000E+01 0.  0.
<mgrwt>
<rscale>  0 0.12499970E+03</rscale>
<asrwt>0</asrwt>
<pdfrwt beam="2">  1        4 0.18062148E-02 0.12499970E+03</pdfrwt>
<pdfrwt beam="1">  1       -4 0.51187255E-01 0.12499970E+03</pdfrwt>
<totfact> 0.70339091E+03</totfact>
</mgrwt>
</event>
<event>
 5    1  0.3311405E-002  0.1250258E+03  0.7818608E-02  0.1235029E+00
          4   -1    0    0  501    0  0.00000000000E+00  0.00000000000E+00  0.52201959816E+03  0.52202114302E+03  0.12700000000E+01 0.  1.
         -4   -1    0    0    0  501 -0.00000000000E+00 -0.00000000000E+00 -0.74306142441E+01  0.75383637512E+01  0.12700000000E+01 0.  1.
         25    2    1    2    0    0  0.00000000000E+00  0.00000000000E+00  0.51458898391E+03  0.52955950677E+03  0.12502579273E+03 0.  0.
    9000005    1    3    3    0    0  0.17742154932E+02 -0.31383542195E+02  0.47356548804E+03  0.47493681921E+03  0.10000000000E+01 0.  0.
    9000005    1    3    3    0    0 -0.17742154932E+02  0.31383542195E+02  0.41023495872E+02  0.54622687556E+02  0.10000000000E+01 0.  0.
<mgrwt>
<rscale>  0 0.12502579E+03</rscale>
<asrwt>0</asrwt>
<pdfrwt beam="1">  1        4 0.80319102E-01 0.12502579E+03</pdfrwt>
<pdfrwt beam="2">  1       -4 0.11515789E-02 0.12502579E+03</pdfrwt>
<totfact> 0.53611322E+03</totfact>
</mgrwt>
</event>
<event>
 5    1  0.3311405E-002  0.1249990E+03  0.7818608E-02  0.1235071E+00
          4   -1    0    0  501    0  0.00000000000E+00  0.00000000000E+00  0.24395849726E+03  0.24396180292E+03  0.12700000000E+01 0. -1.
         -4   -1    0    0    0  501 -0.00000000000E+00 -0.00000000000E+00 -0.15983098069E+02  0.16033475103E+02  0.12700000000E+01 0. -1.
         25    2    1    2    0    0  0.00000000000E+00  0.00000000000E+00  0.22797539919E+03  0.25999527803E+03  0.12499904783E+03 0.  0.
    9000005    1    3    3    0    0  0.28451855993E+02  0.54237941906E+02  0.13979351718E+03  0.15262532521E+03  0.10000000000E+01 0.  0.
    9000005    1    3    3    0    0 -0.28451855993E+02 -0.54237941906E+02  0.88181882013E+02  0.10736995281E+03  0.10000000000E+01 0.  0.
<mgrwt>
<rscale>  0 0.12499905E+03</rscale>
<asrwt>0</asrwt>
<pdfrwt beam="1">  1        4 0.37536210E-01 0.12499905E+03</pdfrwt>
<pdfrwt beam="2">  1       -4 0.24630673E-02 0.12499905E+03</pdfrwt>
<totfact> 0.80908433E+03</totfact>
</mgrwt>
</event>
<event>
 5    1  0.3311405E-002  0.1250002E+03  0.7818608E-02  0.1235069E+00
         -4   -1    0    0    0  501 -0.00000000000E+00  0.00000000000E+00  0.21642396228E+03  0.21642768849E+03  0.12700000000E+01 0.  1.
          4   -1    0    0  501    0  0.00000000000E+00 -0.00000000000E+00 -0.18022893385E+02  0.18067583844E+02  0.12700000000E+01 0.  1.
         25    2    1    2    0    0  0.00000000000E+00  0.00000000000E+00  0.19840106889E+03  0.23449527234E+03  0.12500019445E+03 0.  0.
    9000005    1    3    3    0    0 -0.57686121138E+02 -0.16325562795E+02  0.13228607334E+03  0.14524055140E+03  0.10000000000E+01 0.  0.
    9000005    1    3    3    0    0  0.57686121138E+02  0.16325562795E+02  0.66114995553E+02  0.89254720936E+02  0.10000000000E+01 0.  0.
<mgrwt>
<rscale>  0 0.12500019E+03</rscale>
<asrwt>0</asrwt>
<pdfrwt beam="2">  1        4 0.27764771E-02 0.12500019E+03</pdfrwt>
<pdfrwt beam="1">  1       -4 0.33299720E-01 0.12500019E+03</pdfrwt>
<totfact> 0.84623721E+03</totfact>
</mgrwt>
</event>
<event>
 5    1  0.3311405E-002  0.1250012E+03  0.7818608E-02  0.1235067E+00
         -4   -1    0    0    0  501 -0.00000000000E+00  0.00000000000E+00  0.72952705667E+02  0.72963759252E+02  0.12700000000E+01 0. -1.
          4   -1    0    0  501    0  0.00000000000E+00 -0.00000000000E+00 -0.53523339816E+02  0.53538404955E+02  0.12700000000E+01 0. -1.
         25    2    1    2    0    0  0.00000000000E+00  0.00000000000E+00  0.19429365851E+02  0.12650216421E+03  0.12500118916E+03 0.  0.
    9000005    1    3    3    0    0 -0.17112600991E+02 -0.60011220388E+02  0.63374512192E+01  0.62732375797E+02  0.10000000000E+01 0.  0.
    9000005    1    3    3    0    0  0.17112600991E+02  0.60011220388E+02  0.13091914631E+02  0.63769788410E+02  0.10000000000E+01 0.  0.
<mgrwt>
<rscale>  0 0.12500119E+03</rscale>
<asrwt>0</asrwt>
<pdfrwt beam="2">  1        4 0.82363691E-02 0.12500119E+03</pdfrwt>
<pdfrwt beam="1">  1       -4 0.11225502E-01 0.12500119E+03</pdfrwt>
<totfact> 0.10419701E+04</totfact>
</mgrwt>
</event>
<event>
 5    1  0.3311405E-002  0.1249965E+03  0.7818608E-02  0.1235075E+00
         -4   -1    0    0    0  501 -0.00000000000E+00  0.00000000000E+00  0.47268628673E+03  0.47268799282E+03  0.12700000000E+01 0. -1.
          4   -1    0    0  501    0  0.00000000000E+00 -0.00000000000E+00 -0.82129434138E+01  0.83105559091E+01  0.12700000000E+01 0. -1.
         25    2    1    2    0    0  0.00000000000E+00  0.00000000000E+00  0.46447334331E+03  0.48099854873E+03  0.12499646889E+03 0.  0.
    9000005    1    3    3    0    0  0.43668587159E+02  0.44473797190E+02  0.24951679907E+03  0.25718572503E+03  0.10000000000E+01 0.  0.
    9000005    1    3    3    0    0 -0.43668587159E+02 -0.44473797190E+02  0.21495654425E+03  0.22381282371E+03  0.10000000000E+01 0.  0.
<mgrwt>
<rscale>  0 0.12499647E+03</rscale>
<asrwt>0</asrwt>
<pdfrwt beam="2">  1        4 0.12711694E-02 0.12499647E+03</pdfrwt>
<pdfrwt beam="1">  1       -4 0.72728622E-01 0.12499647E+03</pdfrwt>
<totfact> 0.57373833E+03</totfact>
</mgrwt>
</event>
<event>
 5    1  0.3311405E-002  0.1249968E+03  0.7818608E-02  0.1235074E+00
          4   -1    0    0  501    0  0.00000000000E+00  0.00000000000E+00  0.29278513862E+02  0.29306045007E+02  0.12700000000E+01 0. -1.
         -4   -1    0    0    0  501 -0.00000000000E+00 -0.00000000000E+00 -0.13331694588E+03  0.13332299487E+03  0.12700000000E+01 0. -1.
         25    2    1    2    0    0  0.00000000000E+00  0.00000000000E+00 -0.10403843202E+03  0.16262903987E+03  0.12499683705E+03 0.  0.
    9000005    1    3    3    0    0  0.30963313253E+01 -0.47026624526E+02 -0.10540986144E+03  0.11547003754E+03  0.10000000000E+01 0.  0.
    9000005    1    3    3    0    0 -0.30963313253E+01  0.47026624526E+02  0.13714294148E+01  0.47159002329E+02  0.10000000000E+01 0.  0.
<mgrwt>
<rscale>  0 0.12499684E+03</rscale>
<asrwt>0</asrwt>
<pdfrwt beam="1">  1        4 0.45069699E-02 0.12499684E+03</pdfrwt>
<pdfrwt beam="2">  1       -4 0.20512882E-01 0.12499684E+03</pdfrwt>
<totfact> 0.96845191E+03</totfact>
</mgrwt>
</event>
<event>
 5    1  0.3311405E-002  0.1249998E+03  0.7818608E-02  0.1235070E+00
          4   -1    0    0  501    0  0.00000000000E+00  0.00000000000E+00  0.27862044313E+02  0.27890973688E+02  0.12700000000E+01 0.  1.
         -4   -1    0    0    0  501 -0.00000000000E+00 -0.00000000000E+00 -0.14009477829E+03  0.14010053463E+03  0.12700000000E+01 0.  1.
         25    2    1    2    0    0  0.00000000000E+00  0.00000000000E+00 -0.11223273398E+03  0.16799150832E+03  0.12499984117E+03 0.  0.
    9000005    1    3    3    0    0  0.68666946060E+01  0.59896787285E+02 -0.34014337151E+02  0.69229702829E+02  0.10000000000E+01 0.  0.
    9000005    1    3    3    0    0 -0.68666946060E+01 -0.59896787285E+02 -0.78218396826E+02  0.98761805491E+02  0.10000000000E+01 0.  0.
<mgrwt>
<rscale>  0 0.12499984E+03</rscale>
<asrwt>0</asrwt>
<pdfrwt beam="1">  1        4 0.42891366E-02 0.12499984E+03</pdfrwt>
<pdfrwt beam="2">  1       -4 0.21555711E-01 0.12499984E+03</pdfrwt>
<totfact> 0.95824171E+03</totfact>
</mgrwt>
</event>
<event>
 5    1  0.3311405E-002  0.1250045E+03  0.7818608E-02  0.1235062E+00
         -4   -1    0    0    0  501 -0.00000000000E+00  0.00000000000E+00  0.21446732079E+03  0.21447108101E+03  0.12700000000E+01 0.  1.
          4   -1    0    0  501    0  0.00000000000E+00 -0.00000000000E+00 -0.18188987228E+02  0.18233270590E+02  0.12700000000E+01 0.  1.
         25    2    1    2    0    0  0.00000000000E+00  0.00000000000E+00  0.19627833357E+03  0.23270435160E+03  0.12500452402E+03 0.  0.
    9000005    1    3    3    0    0 -0.44295891638E+02  0.25269219149E+02  0.30893710156E+02  0.59632883374E+02  0.10000000000E+01 0.  0.
    9000005    1    3    3    0    0  0.44295891638E+02 -0.25269219149E+02  0.16538462341E+03  0.17307146822E+03  0.10000000000E+01 0.  0.
<mgrwt>
<rscale>  0 0.12500452E+03</rscale>
<asrwt>0</asrwt>
<pdfrwt beam="2">  1        4 0.28020014E-02 0.12500452E+03</pdfrwt>
<pdfrwt beam="1">  1       -4 0.32998668E-01 0.12500452E+03</pdfrwt>
<totfact> 0.84887496E+03</totfact>
</mgrwt>
</event>
<event>
 5    1  0.3311405E-002  0.1249974E+03  0.7818608E-02  0.1235073E+00
          4   -1    0    0  501    0  0.00000000000E+00  0.00000000000E+00  0.25561379085E+03  0.25561694579E+03  0.12700000000E+01 0. -1.
         -4   -1    0    0    0  501 -0.00000000000E+00 -0.00000000000E+00 -0.15251561578E+02  0.15304346787E+02  0.12700000000E+01 0. -1.
         25    2    1    2    0    0  0.00000000000E+00  0.00000000000E+00  0.24036222927E+03  0.27092129257E+03  0.12499738201E+03 0.  0.
    9000005    1    3    3    0    0 -0.41899720525E+02 -0.18194880405E+02  0.21260674924E+03  0.21746096219E+03  0.10000000000E+01 0.  0.
    9000005    1    3    3    0    0  0.41899720525E+02  0.18194880405E+02  0.27755480031E+02  0.53460330384E+02  0.10000000000E+01 0.  0.
<mgrwt>
<rscale>  0 0.12499738E+03</rscale>
<asrwt>0</asrwt>
<pdfrwt beam="1">  1        4 0.39329500E-01 0.12499738E+03</pdfrwt>
<pdfrwt beam="2">  1       -4 0.23506973E-02 0.12499738E+03</pdfrwt>
<totfact> 0.79402053E+03</totfact>
</mgrwt>
</event>
<event>
 5    1  0.3311405E-002  0.1249998E+03  0.7818608E-02  0.1235070E+00
         -4   -1    0    0    0  501 -0.00000000000E+00  0.00000000000E+00  0.11955785020E+03  0.11956459528E+03  0.12700000000E+01 0.  1.
          4   -1    0    0  501    0  0.00000000000E+00 -0.00000000000E+00 -0.32652363179E+02  0.32677051905E+02  0.12700000000E+01 0.  1.
         25    2    1    2    0    0  0.00000000000E+00  0.00000000000E+00  0.86905487023E+02  0.15224164719E+03  0.12499982185E+03 0.  0.
    9000005    1    3    3    0    0  0.38609878232E+02 -0.48489939741E+02  0.33767142420E+02  0.70591903646E+02  0.10000000000E+01 0.  0.
    9000005    1    3    3    0    0 -0.38609878232E+02  0.48489939741E+02  0.53138344603E+02  0.81649743541E+02  0.10000000000E+01 0.  0.
<mgrwt>
<rscale>  0 0.12499982E+03</rscale>
<asrwt>0</asrwt>
<pdfrwt beam="2">  1        4 0.50258584E-02 0.12499982E+03</pdfrwt>
<pdfrwt beam="1">  1       -4 0.18395934E-01 0.12499982E+03</pdfrwt>
<totfact> 0.98859118E+03</totfact>
</mgrwt>
</event>
<event>
 5    1  0.3311405E-002  0.1249969E+03  0.7818608E-02  0.1235074E+00
          4   -1    0    0  501    0  0.00000000000E+00  0.00000000000E+00  0.11618195311E+02  0.11687401862E+02  0.12700000000E+01 0.  1.
         -4   -1    0    0    0  501 -0.00000000000E+00 -0.00000000000E+00 -0.33513277894E+03  0.33513518529E+03  0.12700000000E+01 0.  1.
         25    2    1    2    0    0  0.00000000000E+00  0.00000000000E+00 -0.32351458363E+03  0.34682258715E+03  0.12499688451E+03 0.  0.
    9000005    1    3    3    0    0 -0.17979069364E+02  0.23512720007E+02 -0.90516864600E+01  0.30968176651E+02  0.10000000000E+01 0.  0.
    9000005    1    3    3    0    0  0.17979069364E+02 -0.23512720007E+02 -0.31446289717E+03  0.31585441050E+03  0.10000000000E+01 0.  0.
<mgrwt>
<rscale>  0 0.12499688E+03</rscale>
<asrwt>0</asrwt>
<pdfrwt beam="1">  1        4 0.17929236E-02 0.12499688E+03</pdfrwt>
<pdfrwt beam="2">  1       -4 0.51564390E-01 0.12499688E+03</pdfrwt>
<totfact> 0.70080366E+03</totfact>
</mgrwt>
</event>
<event>
 5    1  0.3311405E-002  0.1250002E+03  0.7818608E-02  0.1235069E+00
         -4   -1    0    0    0  501 -0.00000000000E+00  0.00000000000E+00  0.36938956942E+02  0.36960782459E+02  0.12700000000E+01 0.  1.
          4   -1    0    0  501    0  0.00000000000E+00 -0.00000000000E+00 -0.10569233220E+03  0.10569996209E+03  0.12700000000E+01 0.  1.
         25    2    1    2    0    0  0.00000000000E+00  0.00000000000E+00 -0.68753375254E+02  0.14266074454E+03  0.12500024570E+03 0.  0.
    9000005    1    3    3    0    0 -0.68806748688E+01 -0.46399588354E+02  0.12748793238E+02  0.48618897716E+02  0.10000000000E+01 0.  0.
    9000005    1    3    3    0    0  0.68806748688E+01  0.46399588354E+02 -0.81502168492E+02  0.94041846829E+02  0.10000000000E+01 0.  0.
<mgrwt>
<rscale>  0 0.12500025E+03</rscale>
<asrwt>0</asrwt>
<pdfrwt beam="2">  1        4 0.16262624E-01 0.12500025E+03</pdfrwt>
<pdfrwt beam="1">  1       -4 0.56851823E-02 0.12500025E+03</pdfrwt>
<totfact> 0.10078679E+04</totfact>
</mgrwt>
</event>
<event>
 5    1  0.3311405E-002  0.1249991E+03  0.7818608E-02  0.1235071E+00
          4   -1    0    0  501    0  0.00000000000E+00  0.00000000000E+00  0.83537879360E+01  0.84497735401E+01  0.12700000000E+01 0.  1.
         -4   -1    0    0    0  501 -0.00000000000E+00 -0.00000000000E+00 -0.46482729282E+03  0.46482902776E+03  0.12700000000E+01 0.  1.
         25    2    1    2    0    0  0.00000000000E+00  0.00000000000E+00 -0.45647350489E+03  0.47327880130E+03  0.12499905240E+03 0.  0.
    9000005    1    3    3    0    0  0.88355175122E+01  0.14720058536E+02 -0.73190465666E+00  0.17212849196E+02  0.10000000000E+01 0.  0.
    9000005    1    3    3    0    0 -0.88355175122E+01 -0.14720058536E+02 -0.45574160023E+03  0.45606595211E+03  0.10000000000E+01 0.  0.
<mgrwt>
<rscale>  0 0.12499905E+03</rscale>
<asrwt>0</asrwt>
<pdfrwt beam="1">  1        4 0.12927155E-02 0.12499905E+03</pdfrwt>
<pdfrwt beam="2">  1       -4 0.71519388E-01 0.12499905E+03</pdfrwt>
<totfact> 0.58000110E+03</totfact>
</mgrwt>
</event>
<event>
 5    1  0.3311405E-002  0.1250034E+03  0.7818608E-02  0.1235064E+00
         -4   -1    0    0    0  501 -0.00000000000E+00  0.00000000000E+00  0.12378958929E+04  0.12378965444E+04  0.12700000000E+01 0. -1.
          4   -1    0    0  501    0  0.00000000000E+00 -0.00000000000E+00 -0.30272758222E+01  0.32828796663E+01  0.12700000000E+01 0. -1.
         25    2    1    2    0    0  0.00000000000E+00  0.00000000000E+00  0.12348686171E+04  0.12411794241E+04  0.12500344477E+03 0.  0.
    9000005    1    3    3    0    0 -0.21005875897E+01 -0.33468511657E+02  0.11410421899E+04  0.11415352963E+04  0.10000000000E+01 0.  0.
    9000005    1    3    3    0    0  0.21005875897E+01  0.33468511657E+02  0.93826427257E+02  0.99644127738E+02  0.10000000000E+01 0.  0.
<mgrwt>
<rscale>  0 0.12500344E+03</rscale>
<asrwt>0</asrwt>
<pdfrwt beam="2">  1        4 0.48544593E-03 0.12500344E+03</pdfrwt>
<pdfrwt beam="1">  1       -4 0.19046553E+00 0.12500344E+03</pdfrwt>
<totfact> 0.23657774E+03</totfact>
</mgrwt>
</event>
<event>
 5    1  0.3311405E-002  0.1249996E+03  0.7818608E-02  0.1235070E+00
          4   -1    0    0  501    0  0.00000000000E+00  0.00000000000E+00  0.11508024232E+04  0.11508031239E+04  0.12700000000E+01 0. -1.
         -4   -1    0    0    0  501 -0.00000000000E+00 -0.00000000000E+00 -0.32748285916E+01  0.35124638510E+01  0.12700000000E+01 0. -1.
         25    2    1    2    0    0  0.00000000000E+00  0.00000000000E+00  0.11475275946E+04  0.11543155878E+04  0.12499958361E+03 0.  0.
    9000005    1    3    3    0    0  0.60702261157E+02 -0.14405702012E+02  0.60697639371E+03  0.61017508249E+03  0.10000000000E+01 0.  0.
    9000005    1    3    3    0    0 -0.60702261157E+02  0.14405702012E+02  0.54055120085E+03  0.54414050529E+03  0.10000000000E+01 0.  0.
<mgrwt>
<rscale>  0 0.12499958E+03</rscale>
<asrwt>0</asrwt>
<pdfrwt beam="1">  1        4 0.17706502E+00 0.12499958E+03</pdfrwt>
<pdfrwt beam="2">  1       -4 0.52215287E-03 0.12499958E+03</pdfrwt>
<totfact> 0.25941001E+03</totfact>
</mgrwt>
</event>
<event>
 5    1  0.3311405E-002  0.1249891E+03  0.7818608E-02  0.1235086E+00
         -4   -1    0    0    0  501 -0.00000000000E+00  0.00000000000E+00  0.16095122702E+03  0.16095623747E+03  0.12700000000E+01 0.  1.
          4   -1    0    0  501    0  0.00000000000E+00 -0.00000000000E+00 -0.24243546827E+02  0.24276788559E+02  0.12700000000E+01 0.  1.
         25    2    1    2    0    0  0.00000000000E+00  0.00000000000E+00  0.13670768020E+03  0.18523302603E+03  0.12498913596E+03 0.  0.
    9000005    1    3    3    0    0 -0.49083399806E+02 -0.60097127544E+01  0.11741042819E+02  0.50834524395E+02  0.10000000000E+01 0.  0.
    9000005    1    3    3    0    0  0.49083399806E+02  0.60097127544E+01  0.12496663738E+03  0.13439850163E+03  0.10000000000E+01 0.  0.
<mgrwt>
<rscale>  0 0.12498914E+03</rscale>
<asrwt>0</asrwt>
<pdfrwt beam="2">  1        4 0.37327188E-02 0.12498914E+03</pdfrwt>
<pdfrwt beam="1">  1       -4 0.24764670E-01 0.12498914E+03</pdfrwt>
<totfact> 0.92706000E+03</totfact>
</mgrwt>
</event>
<event>
 5    1  0.3311405E-002  0.1250565E+03  0.7818608E-02  0.1234981E+00
          4   -1    0    0  501    0  0.00000000000E+00  0.00000000000E+00  0.32117319400E+03  0.32117570494E+03  0.12700000000E+01 0. -1.
         -4   -1    0    0    0  501 -0.00000000000E+00 -0.00000000000E+00 -0.12137745763E+02  0.12204006400E+02  0.12700000000E+01 0. -1.
         25    2    1    2    0    0  0.00000000000E+00  0.00000000000E+00  0.30903544823E+03  0.33337971134E+03  0.12505648191E+03 0.  0.
    9000005    1    3    3    0    0 -0.60910023593E+02 -0.29898463681E+01  0.11779005435E+03  0.13264413692E+03  0.10000000000E+01 0.  0.
    9000005    1    3    3    0    0  0.60910023593E+02  0.29898463681E+01  0.19124539388E+03  0.20073557441E+03  0.10000000000E+01 0.  0.
<mgrwt>
<rscale>  0 0.12505648E+03</rscale>
<asrwt>0</asrwt>
<pdfrwt beam="1">  1        4 0.49416555E-01 0.12505648E+03</pdfrwt>
<pdfrwt beam="2">  1       -4 0.18726355E-02 0.12505648E+03</pdfrwt>
<totfact> 0.71503045E+03</totfact>
</mgrwt>
</event>
<event>
 4    1  0.3311405E-002  0.1247646E+03  0.7818608E-02  0.1235438E+00
          4   -1    0    0  501    0  0.00000000000E+00  0.00000000000E+00  0.64519256347E+02  0.64531754506E+02  0.12700000000E+01 0. -1.
         -4   -1    0    0    0  501 -0.00000000000E+00 -0.00000000000E+00 -0.60291059849E+02  0.60304434313E+02  0.12700000000E+01 0. -1.
    9000005    1    1    2    0    0  0.55576678585E+02 -0.22678521148E+02 -0.14850474459E+02  0.61843505041E+02  0.10000000000E+01 0.  0.
    9000005    1    1    2    0    0 -0.55576678585E+02  0.22678521148E+02  0.19078670956E+02  0.62992683778E+02  0.10000000000E+01 0.  0.
<mgrwt>
<rscale>  0 0.12476456E+03</rscale>
<asrwt>0</asrwt>
<pdfrwt beam="1">  1        4 0.99280296E-02 0.12476456E+03</pdfrwt>
<pdfrwt beam="2">  1       -4 0.92775379E-02 0.12476456E+03</pdfrwt>
<totfact> 0.10512256E+04</totfact>
</mgrwt>
</event>
<event>
 5    1  0.3311405E-002  0.1250065E+03  0.7818608E-02  0.1235059E+00
          4   -1    0    0  501    0  0.00000000000E+00  0.00000000000E+00  0.44135182134E+02  0.44153450624E+02  0.12700000000E+01 0. -1.
         -4   -1    0    0    0  501 -0.00000000000E+00 -0.00000000000E+00 -0.88474574286E+02  0.88483688865E+02  0.12700000000E+01 0. -1.
         25    2    1    2    0    0  0.00000000000E+00  0.00000000000E+00 -0.44339392152E+02  0.13263713949E+03  0.12500651613E+03 0.  0.
    9000005    1    3    3    0    0 -0.28307396088E+02  0.17844128780E+02 -0.78173565816E+02  0.85040155207E+02  0.10000000000E+01 0.  0.
    9000005    1    3    3    0    0  0.28307396088E+02 -0.17844128780E+02  0.33834173664E+02  0.47596984281E+02  0.10000000000E+01 0.  0.
<mgrwt>
<rscale>  0 0.12500652E+03</rscale>
<asrwt>0</asrwt>
<pdfrwt beam="1">  1        4 0.67921344E-02 0.12500652E+03</pdfrwt>
<pdfrwt beam="2">  1       -4 0.13613579E-01 0.12500652E+03</pdfrwt>
<totfact> 0.10286606E+04</totfact>
</mgrwt>
</event>
<event>
 5    1  0.3311405E-002  0.1250008E+03  0.7818608E-02  0.1235068E+00
         -4   -1    0    0    0  501 -0.00000000000E+00  0.00000000000E+00  0.22294988745E+03  0.22295350461E+03  0.12700000000E+01 0. -1.
          4   -1    0    0  501    0  0.00000000000E+00 -0.00000000000E+00 -0.17494197919E+02  0.17540235483E+02  0.12700000000E+01 0. -1.
         25    2    1    2    0    0  0.00000000000E+00  0.00000000000E+00  0.20545568954E+03  0.24049374009E+03  0.12500079463E+03 0.  0.
    9000005    1    3    3    0    0 -0.43925009357E+02 -0.50473736498E+01  0.17759968031E+02  0.47658146126E+02  0.10000000000E+01 0.  0.
    9000005    1    3    3    0    0  0.43925009357E+02  0.50473736498E+01  0.18769572150E+03  0.19283559396E+03  0.10000000000E+01 0.  0.
<mgrwt>
<rscale>  0 0.12500079E+03</rscale>
<asrwt>0</asrwt>
<pdfrwt beam="2">  1        4 0.26952349E-02 0.12500079E+03</pdfrwt>
<pdfrwt beam="1">  1       -4 0.34303799E-01 0.12500079E+03</pdfrwt>
<totfact> 0.83722407E+03</totfact>
</mgrwt>
</event>
<event>
 5    1  0.3311405E-002  0.1249997E+03  0.7818608E-02  0.1235070E+00
          4   -1    0    0  501    0  0.00000000000E+00  0.00000000000E+00  0.33283542251E+03  0.33283784547E+03  0.12700000000E+01 0.  1.
         -4   -1    0    0    0  501 -0.00000000000E+00 -0.00000000000E+00 -0.11699387415E+02  0.11768116497E+02  0.12700000000E+01 0.  1.
         25    2    1    2    0    0  0.00000000000E+00  0.00000000000E+00  0.32113603510E+03  0.34460596197E+03  0.12499966395E+03 0.  0.
    9000005    1    3    3    0    0 -0.59892651334E+02 -0.16585615045E+02  0.17864943276E+03  0.18915293319E+03  0.10000000000E+01 0.  0.
    9000005    1    3    3    0    0  0.59892651334E+02  0.16585615045E+02  0.14248660234E+03  0.15545302878E+03  0.10000000000E+01 0.  0.
<mgrwt>
<rscale>  0 0.12499966E+03</rscale>
<asrwt>0</asrwt>
<pdfrwt beam="1">  1        4 0.51210910E-01 0.12499966E+03</pdfrwt>
<pdfrwt beam="2">  1       -4 0.18053794E-02 0.12499966E+03</pdfrwt>
<totfact> 0.70322601E+03</totfact>
</mgrwt>
</event>
<event>
 4    1  0.3311405E-002  0.1250793E+03  0.7818608E-02  0.1234945E+00
         -4   -1    0    0    0  501 -0.00000000000E+00  0.00000000000E+00  0.37612362825E+03  0.37612577236E+03  0.12700000000E+01 0.  1.
          4   -1    0    0  501    0  0.00000000000E+00 -0.00000000000E+00 -0.10357772338E+02  0.10435341289E+02  0.12700000000E+01 0.  1.
    9000005    1    1    2    0    0  0.30256720684E+02 -0.33419415539E+02  0.48956333923E+02  0.66558614113E+02  0.10000000000E+01 0.  0.
    9000005    1    1    2    0    0 -0.30256720684E+02  0.33419415539E+02  0.31680952199E+03  0.32000249953E+03  0.10000000000E+01 0.  0.
<mgrwt>
<rscale>  0 0.12507931E+03</rscale>
<asrwt>0</asrwt>
<pdfrwt beam="2">  1        4 0.15996350E-02 0.12507931E+03</pdfrwt>
<pdfrwt beam="1">  1       -4 0.57871313E-01 0.12507931E+03</pdfrwt>
<totfact> 0.65765875E+03</totfact>
</mgrwt>
</event>
<event>
 5    1  0.3311405E-002  0.1250024E+03  0.7818608E-02  0.1235065E+00
          4   -1    0    0  501    0  0.00000000000E+00  0.00000000000E+00  0.13588120352E+03  0.13588713836E+03  0.12700000000E+01 0.  1.
         -4   -1    0    0    0  501 -0.00000000000E+00 -0.00000000000E+00 -0.28728069710E+02  0.28756127856E+02  0.12700000000E+01 0.  1.
         25    2    1    2    0    0  0.00000000000E+00  0.00000000000E+00  0.10715313381E+03  0.16464326621E+03  0.12500244407E+03 0.  0.
    9000005    1    3    3    0    0 -0.38101999467E+02 -0.24952648332E+02 -0.27833469620E+01  0.45641472834E+02  0.10000000000E+01 0.  0.
    9000005    1    3    3    0    0  0.38101999467E+02  0.24952648332E+02  0.10993648078E+03  0.11900179338E+03  0.10000000000E+01 0.  0.
<mgrwt>
<rscale>  0 0.12500244E+03</rscale>
<asrwt>0</asrwt>
<pdfrwt beam="1">  1        4 0.20907415E-01 0.12500244E+03</pdfrwt>
<pdfrwt beam="2">  1       -4 0.44223180E-02 0.12500244E+03</pdfrwt>
<totfact> 0.96449699E+03</totfact>
</mgrwt>
</event>
<event>
 5    1  0.3311405E-002  0.1249838E+03  0.7818608E-02  0.1235095E+00
          4   -1    0    0  501    0  0.00000000000E+00  0.00000000000E+00  0.45905988828E+03  0.45906164502E+03  0.12700000000E+01 0.  1.
         -4   -1    0    0    0  501 -0.00000000000E+00 -0.00000000000E+00 -0.84578562056E+01  0.85526739441E+01  0.12700000000E+01 0.  1.
         25    2    1    2    0    0  0.00000000000E+00  0.00000000000E+00  0.45060203207E+03  0.46761431896E+03  0.12498383891E+03 0.  0.
    9000005    1    3    3    0    0 -0.16419903180E+02  0.60206829264E+02  0.21360982766E+03  0.22254130849E+03  0.10000000000E+01 0.  0.
    9000005    1    3    3    0    0  0.16419903180E+02 -0.60206829264E+02  0.23699220441E+03  0.24507301047E+03  0.10000000000E+01 0.  0.
<mgrwt>
<rscale>  0 0.12498384E+03</rscale>
<asrwt>0</asrwt>
<pdfrwt beam="1">  1        4 0.70632026E-01 0.12498384E+03</pdfrwt>
<pdfrwt beam="2">  1       -4 0.13086375E-02 0.12498384E+03</pdfrwt>
<totfact> 0.58488474E+03</totfact>
</mgrwt>
</event>
<event>
 5    1  0.3311405E-002  0.1249983E+03  0.7818608E-02  0.1235072E+00
          4   -1    0    0  501    0  0.00000000000E+00  0.00000000000E+00  0.68465497597E+01  0.69633428475E+01  0.12700000000E+01 0. -1.
         -4   -1    0    0    0  501 -0.00000000000E+00 -0.00000000000E+00 -0.56558446712E+03  0.56558589299E+03  0.12700000000E+01 0. -1.
         25    2    1    2    0    0  0.00000000000E+00  0.00000000000E+00 -0.55873791736E+03  0.57254923583E+03  0.12499826863E+03 0.  0.
    9000005    1    3    3    0    0 -0.52908380042E+02  0.16167666454E+02 -0.14626338488E+03  0.15637988321E+03  0.10000000000E+01 0.  0.
    9000005    1    3    3    0    0  0.52908380042E+02 -0.16167666454E+02 -0.41247453248E+03  0.41616935262E+03  0.10000000000E+01 0.  0.
<mgrwt>
<rscale>  0 0.12499827E+03</rscale>
<asrwt>0</asrwt>
<pdfrwt beam="1">  1        4 0.10624096E-02 0.12499827E+03</pdfrwt>
<pdfrwt beam="2">  1       -4 0.87022052E-01 0.12499827E+03</pdfrwt>
<totfact> 0.50649470E+03</totfact>
</mgrwt>
</event>
<event>
 5    1  0.3311405E-002  0.1249999E+03  0.7818608E-02  0.1235069E+00
         -4   -1    0    0    0  501 -0.00000000000E+00  0.00000000000E+00  0.85904309086E+01  0.86838011951E+01  0.12700000000E+01 0. -1.
          4   -1    0    0  501    0  0.00000000000E+00 -0.00000000000E+00 -0.45216854486E+03  0.45217032837E+03  0.12700000000E+01 0. -1.
         25    2    1    2    0    0  0.00000000000E+00  0.00000000000E+00 -0.44357811395E+03  0.46085412957E+03  0.12499994225E+03 0.  0.
    9000005    1    3    3    0    0  0.44640042409E+02 -0.43723789629E+02 -0.22496749552E+03  0.23348635336E+03  0.10000000000E+01 0.  0.
    9000005    1    3    3    0    0 -0.44640042409E+02  0.43723789629E+02 -0.21861061843E+03  0.22736777620E+03  0.10000000000E+01 0.  0.
<mgrwt>
<rscale>  0 0.12499994E+03</rscale>
<asrwt>0</asrwt>
<pdfrwt beam="2">  1        4 0.69571693E-01 0.12499994E+03</pdfrwt>
<pdfrwt beam="1">  1       -4 0.13289246E-02 0.12499994E+03</pdfrwt>
<totfact> 0.59034985E+03</totfact>
</mgrwt>
</event>
<event>
 5    1  0.3311405E-002  0.1250013E+03  0.7818608E-02  0.1235067E+00
          4   -1    0    0  501    0  0.00000000000E+00  0.00000000000E+00  0.15455401849E+04  0.15455407067E+04  0.12700000000E+01 0. -1.
         -4   -1    0    0    0  501 -0.00000000000E+00 -0.00000000000E+00 -0.23673955896E+01  0.26865334313E+01  0.12700000000E+01 0. -1.
         25    2    1    2    0    0  0.00000000000E+00  0.00000000000E+00  0.15431727893E+04  0.15482272401E+04  0.12500131755E+03 0.  0.
    9000005    1    3    3    0    0  0.29686292841E+02  0.47044866586E+02  0.11242712931E+04  0.11256471187E+04  0.10000000000E+01 0.  0.
    9000005    1    3    3    0    0 -0.29686292841E+02 -0.47044866586E+02  0.41890149621E+03  0.42258012137E+03  0.10000000000E+01 0.  0.
<mgrwt>
<rscale>  0 0.12500132E+03</rscale>
<asrwt>0</asrwt>
<pdfrwt beam="1">  1        4 0.23779954E+00 0.12500132E+03</pdfrwt>
<pdfrwt beam="2">  1       -4 0.38880467E-03 0.12500132E+03</pdfrwt>
<totfact> 0.17001213E+03</totfact>
</mgrwt>
</event>
<event>
 5    1  0.3311405E-002  0.1249994E+03  0.7818608E-02  0.1235070E+00
          4   -1    0    0  501    0  0.00000000000E+00  0.00000000000E+00  0.20879506449E+02  0.20918094788E+02  0.12700000000E+01 0. -1.
         -4   -1    0    0    0  501 -0.00000000000E+00 -0.00000000000E+00 -0.18687011171E+03  0.18687442722E+03  0.12700000000E+01 0. -1.
         25    2    1    2    0    0  0.00000000000E+00  0.00000000000E+00 -0.16599060526E+03  0.20779252201E+03  0.12499940467E+03 0.  0.
    9000005    1    3    3    0    0  0.34304244841E+02 -0.18680001591E+02 -0.16408465486E+03  0.16867275309E+03  0.10000000000E+01 0.  0.
    9000005    1    3    3    0    0 -0.34304244841E+02  0.18680001591E+02 -0.19059503980E+01  0.39119768922E+02  0.10000000000E+01 0.  0.
<mgrwt>
<rscale>  0 0.12499940E+03</rscale>
<asrwt>0</asrwt>
<pdfrwt beam="1">  1        4 0.32155322E-02 0.12499940E+03</pdfrwt>
<pdfrwt beam="2">  1       -4 0.28752547E-01 0.12499940E+03</pdfrwt>
<totfact> 0.88838848E+03</totfact>
</mgrwt>
</event>
<event>
 5    1  0.3311405E-002  0.1250037E+03  0.7818608E-02  0.1235064E+00
          4   -1    0    0  501    0  0.00000000000E+00  0.00000000000E+00  0.14814395595E+03  0.14814939955E+03  0.12700000000E+01 0. -1.
         -4   -1    0    0    0  501 -0.00000000000E+00 -0.00000000000E+00 -0.26348264769E+02  0.26378854341E+02  0.12700000000E+01 0. -1.
         25    2    1    2    0    0  0.00000000000E+00  0.00000000000E+00  0.12179569118E+03  0.17452825389E+03  0.12500368400E+03 0.  0.
    9000005    1    3    3    0    0 -0.82678473787E+01 -0.34550559903E+02 -0.10885364556E+02  0.37169741073E+02  0.10000000000E+01 0.  0.
    9000005    1    3    3    0    0  0.82678473787E+01  0.34550559903E+02  0.13268105574E+03  0.13735851281E+03  0.10000000000E+01 0.  0.
<mgrwt>
<rscale>  0 0.12500368E+03</rscale>
<asrwt>0</asrwt>
<pdfrwt beam="1">  1        4 0.22794150E-01 0.12500368E+03</pdfrwt>
<pdfrwt beam="2">  1       -4 0.40563510E-02 0.12500368E+03</pdfrwt>
<totfact> 0.94603491E+03</totfact>
</mgrwt>
</event>
<event>
 5    1  0.3311405E-002  0.1250000E+03  0.7818608E-02  0.1235069E+00
         -4   -1    0    0    0  501 -0.00000000000E+00  0.00000000000E+00  0.17315354487E+04  0.17315359144E+04  0.12700000000E+01 0. -1.
          4   -1    0    0  501    0  0.00000000000E+00 -0.00000000000E+00 -0.20767020676E+01  0.24342537825E+01  0.12700000000E+01 0. -1.
         25    2    1    2    0    0  0.00000000000E+00  0.00000000000E+00  0.17294587466E+04  0.17339701682E+04  0.12499995196E+03 0.  0.
    9000005    1    3    3    0    0  0.25808834800E+02 -0.35010121415E+02  0.24228379681E+03  0.24615897861E+03  0.10000000000E+01 0.  0.
    9000005    1    3    3    0    0 -0.25808834800E+02  0.35010121415E+02  0.14871749498E+04  0.14878111896E+04  0.10000000000E+01 0.  0.
<mgrwt>
<rscale>  0 0.12499995E+03</rscale>
<asrwt>0</asrwt>
<pdfrwt beam="2">  1        4 0.34703307E-03 0.12499995E+03</pdfrwt>
<pdfrwt beam="1">  1       -4 0.26641712E+00 0.12499995E+03</pdfrwt>
<totfact> 0.13748772E+03</totfact>
</mgrwt>
</event>
<event>
 5    1  0.3311405E-002  0.1250067E+03  0.7818608E-02  0.1235059E+00
          4   -1    0    0  501    0  0.00000000000E+00  0.00000000000E+00  0.77270673780E+02  0.77281109764E+02  0.12700000000E+01 0.  1.
         -4   -1    0    0    0  501 -0.00000000000E+00 -0.00000000000E+00 -0.50536367879E+02  0.50552323175E+02  0.12700000000E+01 0.  1.
         25    2    1    2    0    0  0.00000000000E+00  0.00000000000E+00  0.26734305901E+02  0.12783343294E+03  0.12500665368E+03 0.  0.
    9000005    1    3    3    0    0 -0.53003191753E+02 -0.18121171708E+02 -0.14971420418E+02  0.57990159763E+02  0.10000000000E+01 0.  0.
    9000005    1    3    3    0    0  0.53003191753E+02  0.18121171708E+02  0.41705726320E+02  0.69843273176E+02  0.10000000000E+01 0.  0.
<mgrwt>
<rscale>  0 0.12500665E+03</rscale>
<asrwt>0</asrwt>
<pdfrwt beam="1">  1        4 0.11889826E-01 0.12500665E+03</pdfrwt>
<pdfrwt beam="2">  1       -4 0.77768559E-02 0.12500665E+03</pdfrwt>
<totfact> 0.10389526E+04</totfact>
</mgrwt>
</event>
<event>
 5    1  0.3311405E-002  0.1250004E+03  0.7818608E-02  0.1235069E+00
          4   -1    0    0  501    0  0.00000000000E+00  0.00000000000E+00  0.96536539305E+02  0.96544892775E+02  0.12700000000E+01 0. -1.
         -4   -1    0    0    0  501 -0.00000000000E+00 -0.00000000000E+00 -0.40444133438E+02  0.40464068376E+02  0.12700000000E+01 0. -1.
         25    2    1    2    0    0  0.00000000000E+00  0.00000000000E+00  0.56092405867E+02  0.13700896115E+03  0.12500038976E+03 0.  0.
    9000005    1    3    3    0    0  0.42011750958E+02  0.28053351980E+02 -0.12275057445E+02  0.51996680770E+02  0.10000000000E+01 0.  0.
    9000005    1    3    3    0    0 -0.42011750958E+02 -0.28053351980E+02  0.68367463312E+02  0.85012280381E+02  0.10000000000E+01 0.  0.
<mgrwt>
<rscale>  0 0.12500039E+03</rscale>
<asrwt>0</asrwt>
<pdfrwt beam="1">  1        4 0.14853951E-01 0.12500039E+03</pdfrwt>
<pdfrwt beam="2">  1       -4 0.62243504E-02 0.12500039E+03</pdfrwt>
<totfact> 0.10195809E+04</totfact>
</mgrwt>
</event>
<event>
 5    1  0.3311405E-002  0.1249999E+03  0.7818608E-02  0.1235069E+00
          4   -1    0    0  501    0  0.00000000000E+00  0.00000000000E+00  0.66794512943E+02  0.66806585449E+02  0.12700000000E+01 0. -1.
         -4   -1    0    0    0  501 -0.00000000000E+00 -0.00000000000E+00 -0.58457278409E+02  0.58471072326E+02  0.12700000000E+01 0. -1.
         25    2    1    2    0    0  0.00000000000E+00  0.00000000000E+00  0.83372345341E+01  0.12527765777E+03  0.12499992823E+03 0.  0.
    9000005    1    3    3    0    0  0.53546047427E+02 -0.19734009011E+02 -0.21356286925E+02  0.60940145208E+02  0.10000000000E+01 0.  0.
    9000005    1    3    3    0    0 -0.53546047427E+02  0.19734009011E+02  0.29693521459E+02  0.64337512567E+02  0.10000000000E+01 0.  0.
<mgrwt>
<rscale>  0 0.12499993E+03</rscale>
<asrwt>0</asrwt>
<pdfrwt beam="1">  1        4 0.10278069E-01 0.12499993E+03</pdfrwt>
<pdfrwt beam="2">  1       -4 0.89954171E-02 0.12499993E+03</pdfrwt>
<totfact> 0.10446852E+04</totfact>
</mgrwt>
</event>
<event>
 5    1  0.3311405E-002  0.1250019E+03  0.7818608E-02  0.1235066E+00
         -4   -1    0    0    0  501 -0.00000000000E+00  0.00000000000E+00  0.48615343844E+02  0.48631929399E+02  0.12700000000E+01 0.  1.
          4   -1    0    0  501    0  0.00000000000E+00 -0.00000000000E+00 -0.80317282371E+02  0.80327322546E+02  0.12700000000E+01 0.  1.
         25    2    1    2    0    0  0.00000000000E+00  0.00000000000E+00 -0.31701938527E+02  0.12895925194E+03  0.12500190301E+03 0.  0.
    9000005    1    3    3    0    0  0.45172783586E+02 -0.20304715032E+02 -0.55169294787E+02  0.74145215063E+02  0.10000000000E+01 0.  0.
    9000005    1    3    3    0    0 -0.45172783586E+02  0.20304715032E+02  0.23467356261E+02  0.54814036882E+02  0.10000000000E+01 0.  0.
<mgrwt>
<rscale>  0 0.12500190E+03</rscale>
<asrwt>0</asrwt>
<pdfrwt beam="2">  1        4 0.12358553E-01 0.12500190E+03</pdfrwt>
<pdfrwt beam="1">  1       -4 0.74813318E-02 0.12500190E+03</pdfrwt>
<totfact> 0.10366377E+04</totfact>
</mgrwt>
</event>
<event>
 5    1  0.3311405E-002  0.1250040E+03  0.7818608E-02  0.1235063E+00
         -4   -1    0    0    0  501 -0.00000000000E+00  0.00000000000E+00  0.10932267308E+02  0.11005787954E+02  0.12700000000E+01 0.  1.
          4   -1    0    0  501    0  0.00000000000E+00 -0.00000000000E+00 -0.35606423369E+03  0.35606649858E+03  0.12700000000E+01 0.  1.
         25    2    1    2    0    0  0.00000000000E+00  0.00000000000E+00 -0.34513196638E+03  0.36707228653E+03  0.12500395724E+03 0.  0.
    9000005    1    3    3    0    0  0.17744649112E+02  0.57823136235E+02 -0.12640524872E+03  0.14013448740E+03  0.10000000000E+01 0.  0.
    9000005    1    3    3    0    0 -0.17744649112E+02 -0.57823136235E+02 -0.21872671766E+03  0.22693779913E+03  0.10000000000E+01 0.  0.
<mgrwt>
<rscale>  0 0.12500396E+03</rscale>
<asrwt>0</asrwt>
<pdfrwt beam="2">  1        4 0.54784934E-01 0.12500396E+03</pdfrwt>
<pdfrwt beam="1">  1       -4 0.16877172E-02 0.12500396E+03</pdfrwt>
<totfact> 0.67880411E+03</totfact>
</mgrwt>
</event>
<event>
 5    1  0.3311405E-002  0.1250199E+03  0.7818608E-02  0.1235038E+00
          4   -1    0    0  501    0  0.00000000000E+00  0.00000000000E+00  0.13252298154E+04  0.13252304239E+04  0.12700000000E+01 0.  1.
         -4   -1    0    0    0  501 -0.00000000000E+00 -0.00000000000E+00 -0.28111467886E+01  0.30847116992E+01  0.12700000000E+01 0.  1.
         25    2    1    2    0    0  0.00000000000E+00  0.00000000000E+00  0.13224186686E+04  0.13283151356E+04  0.12501985628E+03 0.  0.
    9000005    1    3    3    0    0  0.55467294035E+02 -0.19139573034E+02  0.43245512992E+03  0.43641881646E+03  0.10000000000E+01 0.  0.
    9000005    1    3    3    0    0 -0.55467294035E+02  0.19139573034E+02  0.88996353870E+03  0.89189631919E+03  0.10000000000E+01 0.  0.
<mgrwt>
<rscale>  0 0.12501986E+03</rscale>
<asrwt>0</asrwt>
<pdfrwt beam="1">  1        4 0.20390227E+00 0.12501986E+03</pdfrwt>
<pdfrwt beam="2">  1       -4 0.45357511E-03 0.12501986E+03</pdfrwt>
<totfact> 0.21560644E+03</totfact>
</mgrwt>
</event>
<event>
 5    1  0.3311405E-002  0.1249917E+03  0.7818608E-02  0.1235082E+00
          4   -1    0    0  501    0  0.00000000000E+00  0.00000000000E+00  0.90029946883E+01  0.90921291983E+01  0.12700000000E+01 0.  1.
         -4   -1    0    0    0  501 -0.00000000000E+00 -0.00000000000E+00 -0.43159888662E+03  0.43160075513E+03  0.12700000000E+01 0.  1.
         25    2    1    2    0    0  0.00000000000E+00  0.00000000000E+00 -0.42259589193E+03  0.44069288433E+03  0.12499172142E+03 0.  0.
    9000005    1    3    3    0    0  0.44471434831E+02  0.22256261913E+02 -0.77891072204E+02  0.92417903240E+02  0.10000000000E+01 0.  0.
    9000005    1    3    3    0    0 -0.44471434831E+02 -0.22256261913E+02 -0.34470481973E+03  0.34827498109E+03  0.10000000000E+01 0.  0.
<mgrwt>
<rscale>  0 0.12499172E+03</rscale>
<asrwt>0</asrwt>
<pdfrwt beam="1">  1        4 0.13920767E-02 0.12499172E+03</pdfrwt>
<pdfrwt beam="2">  1       -4 0.66406813E-01 0.12499172E+03</pdfrwt>
<totfact> 0.60789661E+03</totfact>
</mgrwt>
</event>
<event>
 5    1  0.3311405E-002  0.1250021E+03  0.7818608E-02  0.1235066E+00
         -4   -1    0    0    0  501 -0.00000000000E+00  0.00000000000E+00  0.60514325462E+02  0.60527650591E+02  0.12700000000E+01 0.  1.
          4   -1    0    0  501    0  0.00000000000E+00 -0.00000000000E+00 -0.64526345042E+02  0.64538841827E+02  0.12700000000E+01 0.  1.
         25    2    1    2    0    0  0.00000000000E+00  0.00000000000E+00 -0.40120195797E+01  0.12506649242E+03  0.12500212488E+03 0.  0.
    9000005    1    3    3    0    0  0.14049843005E+02  0.49881037992E+02 -0.36950585704E+02  0.63654236493E+02  0.10000000000E+01 0.  0.
    9000005    1    3    3    0    0 -0.14049843005E+02 -0.49881037992E+02  0.32938566124E+02  0.61412255926E+02  0.10000000000E+01 0.  0.
<mgrwt>
<rscale>  0 0.12500212E+03</rscale>
<asrwt>0</asrwt>
<pdfrwt beam="2">  1        4 0.99291163E-02 0.12500212E+03</pdfrwt>
<pdfrwt beam="1">  1       -4 0.93118825E-02 0.12500212E+03</pdfrwt>
<totfact> 0.10450917E+04</totfact>
</mgrwt>
</event>
<event>
 5    1  0.3311405E-002  0.1249993E+03  0.7818608E-02  0.1235070E+00
          4   -1    0    0  501    0  0.00000000000E+00  0.00000000000E+00  0.61481337281E+02  0.61494452871E+02  0.12700000000E+01 0.  1.
         -4   -1    0    0    0  501 -0.00000000000E+00 -0.00000000000E+00 -0.63508550571E+02  0.63521247592E+02  0.12700000000E+01 0.  1.
         25    2    1    2    0    0  0.00000000000E+00  0.00000000000E+00 -0.20272132899E+01  0.12501570046E+03  0.12499926307E+03 0.  0.
    9000005    1    3    3    0    0  0.30212917805E+02  0.31396872502E+02  0.43787595486E+02  0.61781368741E+02  0.10000000000E+01 0.  0.
    9000005    1    3    3    0    0 -0.30212917805E+02 -0.31396872502E+02 -0.45814808776E+02  0.63234331722E+02  0.10000000000E+01 0.  0.
<mgrwt>
<rscale>  0 0.12499926E+03</rscale>
<asrwt>0</asrwt>
<pdfrwt beam="1">  1        4 0.94606529E-02 0.12499926E+03</pdfrwt>
<pdfrwt beam="2">  1       -4 0.97725318E-02 0.12499926E+03</pdfrwt>
<totfact> 0.10452696E+04</totfact>
</mgrwt>
</event>
<event>
 5    1  0.3311405E-002  0.1249964E+03  0.7818608E-02  0.1235075E+00
          4   -1    0    0  501    0  0.00000000000E+00  0.00000000000E+00  0.33579628600E+02  0.33603636067E+02  0.12700000000E+01 0. -1.
         -4   -1    0    0    0  501 -0.00000000000E+00 -0.00000000000E+00 -0.11625214512E+03  0.11625908199E+03  0.12700000000E+01 0. -1.
         25    2    1    2    0    0  0.00000000000E+00  0.00000000000E+00 -0.82672516520E+02  0.14986271806E+03  0.12499635705E+03 0.  0.
    9000005    1    3    3    0    0  0.23667455063E+01 -0.10645994297E+02 -0.11510822320E+03  0.11562803175E+03  0.10000000000E+01 0.  0.
    9000005    1    3    3    0    0 -0.23667455063E+01  0.10645994297E+02  0.32435706677E+02  0.34234686306E+02  0.10000000000E+01 0.  0.
<mgrwt>
<rscale>  0 0.12499636E+03</rscale>
<asrwt>0</asrwt>
<pdfrwt beam="1">  1        4 0.51684771E-02 0.12499636E+03</pdfrwt>
<pdfrwt beam="2">  1       -4 0.17887325E-01 0.12499636E+03</pdfrwt>
<totfact> 0.99339215E+03</totfact>
</mgrwt>
</event>
<event>
 5    1  0.3311405E-002  0.1250002E+03  0.7818608E-02  0.1235069E+00
         -4   -1    0    0    0  501 -0.00000000000E+00  0.00000000000E+00  0.56813562217E+01  0.58215726842E+01  0.12700000000E+01 0. -1.
          4   -1    0    0  501    0  0.00000000000E+00 -0.00000000000E+00 -0.67903663431E+03  0.67903782195E+03  0.12700000000E+01 0. -1.
         25    2    1    2    0    0  0.00000000000E+00  0.00000000000E+00 -0.67335527809E+03  0.68485939463E+03  0.12500023954E+03 0.  0.
    9000005    1    3    3    0    0 -0.57811293313E+02  0.41943639118E+01 -0.46464480664E+03  0.46824730075E+03  0.10000000000E+01 0.  0.
    9000005    1    3    3    0    0  0.57811293313E+02 -0.41943639118E+01 -0.20871047145E+03  0.21661209388E+03  0.10000000000E+01 0.  0.
<mgrwt>
<rscale>  0 0.12500024E+03</rscale>
<asrwt>0</asrwt>
<pdfrwt beam="2">  1        4 0.10447799E+00 0.12500024E+03</pdfrwt>
<pdfrwt beam="1">  1       -4 0.88493258E-03 0.12500024E+03</pdfrwt>
<totfact> 0.43897880E+03</totfact>
</mgrwt>
</event>
<event>
 5    1  0.3311405E-002  0.1250052E+03  0.7818608E-02  0.1235061E+00
         -4   -1    0    0    0  501 -0.00000000000E+00  0.00000000000E+00  0.73626631507E+02  0.73637583930E+02  0.12700000000E+01 0. -1.
          4   -1    0    0  501    0  0.00000000000E+00 -0.00000000000E+00 -0.53036793012E+02  0.53051996315E+02  0.12700000000E+01 0. -1.
         25    2    1    2    0    0  0.00000000000E+00  0.00000000000E+00  0.20589838495E+02  0.12668958025E+03  0.12500523306E+03 0.  0.
    9000005    1    3    3    0    0  0.11182528953E+02  0.45811473839E+02 -0.31267866871E+02  0.56589924790E+02  0.10000000000E+01 0.  0.
    9000005    1    3    3    0    0 -0.11182528953E+02 -0.45811473839E+02  0.51857705367E+02  0.70099655455E+02  0.10000000000E+01 0.  0.
<mgrwt>
<rscale>  0 0.12500523E+03</rscale>
<asrwt>0</asrwt>
<pdfrwt beam="2">  1        4 0.81615186E-02 0.12500523E+03</pdfrwt>
<pdfrwt beam="1">  1       -4 0.11329186E-01 0.12500523E+03</pdfrwt>
<totfact> 0.10414667E+04</totfact>
</mgrwt>
</event>
<event>
 5    1  0.3311405E-002  0.1249984E+03  0.7818608E-02  0.1235072E+00
         -4   -1    0    0    0  501 -0.00000000000E+00  0.00000000000E+00  0.96853460256E+01  0.97682561205E+01  0.12700000000E+01 0. -1.
          4   -1    0    0  501    0  0.00000000000E+00 -0.00000000000E+00 -0.40150213200E+03  0.40150414057E+03  0.12700000000E+01 0. -1.
         25    2    1    2    0    0  0.00000000000E+00  0.00000000000E+00 -0.39181678597E+03  0.41127239670E+03  0.12499836205E+03 0.  0.
    9000005    1    3    3    0    0 -0.37661199374E+02  0.52738432109E+01 -0.35906388681E+03  0.36107347475E+03  0.10000000000E+01 0.  0.
    9000005    1    3    3    0    0  0.37661199374E+02 -0.52738432109E+01 -0.32752899163E+02  0.50198921941E+02  0.10000000000E+01 0.  0.
<mgrwt>
<rscale>  0 0.12499836E+03</rscale>
<asrwt>0</asrwt>
<pdfrwt beam="2">  1        4 0.61776078E-01 0.12499836E+03</pdfrwt>
<pdfrwt beam="1">  1       -4 0.14965857E-02 0.12499836E+03</pdfrwt>
<totfact> 0.63473319E+03</totfact>
</mgrwt>
</event>
<event>
 5    1  0.3311405E-002  0.1250058E+03  0.7818608E-02  0.1235060E+00
          4   -1    0    0  501    0  0.00000000000E+00  0.00000000000E+00  0.15495330794E+01  0.20034851544E+01  0.12700000000E+01 0. -1.
         -4   -1    0    0    0  501 -0.00000000000E+00 -0.00000000000E+00 -0.21985841126E+04  0.21985844794E+04  0.12700000000E+01 0. -1.
         25    2    1    2    0    0  0.00000000000E+00  0.00000000000E+00 -0.21970345795E+04  0.22005879645E+04  0.12500578447E+03 0.  0.
    9000005    1    3    3    0    0  0.39789089183E+02 -0.72708298867E+01 -0.19371675546E+04  0.19375900421E+04  0.10000000000E+01 0.  0.
    9000005    1    3    3    0    0 -0.39789089183E+02  0.72708298867E+01 -0.25986702492E+03  0.26299792247E+03  0.10000000000E+01 0.  0.
<mgrwt>
<rscale>  0 0.12500578E+03</rscale>
<asrwt>0</asrwt>
<pdfrwt beam="1">  1        4 0.27333907E-03 0.12500578E+03</pdfrwt>
<pdfrwt beam="2">  1       -4 0.33827648E+00 0.12500578E+03</pdfrwt>
<totfact> 0.74643264E+02</totfact>
</mgrwt>
</event>
<event>
 5    1  0.3311405E-002  0.1250028E+03  0.7818608E-02  0.1235065E+00
         -4   -1    0    0    0  501 -0.00000000000E+00  0.00000000000E+00  0.12219856832E+03  0.12220516765E+03  0.12700000000E+01 0. -1.
          4   -1    0    0  501    0  0.00000000000E+00 -0.00000000000E+00 -0.31947788232E+02  0.31973021017E+02  0.12700000000E+01 0. -1.
         25    2    1    2    0    0  0.00000000000E+00  0.00000000000E+00  0.90250780087E+02  0.15417818866E+03  0.12500284218E+03 0.  0.
    9000005    1    3    3    0    0  0.31374566918E+02 -0.19571743578E+02 -0.17011541797E+02  0.40716202553E+02  0.10000000000E+01 0.  0.
    9000005    1    3    3    0    0 -0.31374566918E+02  0.19571743578E+02  0.10726232188E+03  0.11346198611E+03  0.10000000000E+01 0.  0.
<mgrwt>
<rscale>  0 0.12500284E+03</rscale>
<asrwt>0</asrwt>
<pdfrwt beam="2">  1        4 0.49174930E-02 0.12500284E+03</pdfrwt>
<pdfrwt beam="1">  1       -4 0.18802228E-01 0.12500284E+03</pdfrwt>
<totfact> 0.98470777E+03</totfact>
</mgrwt>
</event>
<event>
 5    1  0.3311405E-002  0.1250030E+03  0.7818608E-02  0.1235065E+00
         -4   -1    0    0    0  501 -0.00000000000E+00  0.00000000000E+00  0.34893105019E+03  0.34893336139E+03  0.12700000000E+01 0.  1.
          4   -1    0    0  501    0  0.00000000000E+00 -0.00000000000E+00 -0.11157077911E+02  0.11229126747E+02  0.12700000000E+01 0.  1.
         25    2    1    2    0    0  0.00000000000E+00  0.00000000000E+00  0.33777397228E+03  0.36016248813E+03  0.12500304599E+03 0.  0.
    9000005    1    3    3    0    0 -0.16528506196E+02  0.47110398009E+02  0.27718670601E+03  0.28164880810E+03  0.10000000000E+01 0.  0.
    9000005    1    3    3    0    0  0.16528506196E+02 -0.47110398009E+02  0.60587266273E+02  0.78513680031E+02  0.10000000000E+01 0.  0.
<mgrwt>
<rscale>  0 0.12500305E+03</rscale>
<asrwt>0</asrwt>
<pdfrwt beam="2">  1        4 0.17221937E-02 0.12500305E+03</pdfrwt>
<pdfrwt beam="1">  1       -4 0.53687414E-01 0.12500305E+03</pdfrwt>
<totfact> 0.68616218E+03</totfact>
</mgrwt>
</event>
<event>
 5    1  0.3311405E-002  0.1250002E+03  0.7818608E-02  0.1235069E+00
         -4   -1    0    0    0  501 -0.00000000000E+00  0.00000000000E+00  0.38044742314E+02  0.38065933821E+02  0.12700000000E+01 0.  1.
          4   -1    0    0  501    0  0.00000000000E+00 -0.00000000000E+00 -0.10262178086E+03  0.10262963903E+03  0.12700000000E+01 0.  1.
         25    2    1    2    0    0  0.00000000000E+00  0.00000000000E+00 -0.64577038551E+02  0.14069557285E+03  0.12500020125E+03 0.  0.
    9000005    1    3    3    0    0 -0.44556077563E+02  0.38776880395E+02 -0.93211888569E+01  0.59806145693E+02  0.10000000000E+01 0.  0.
    9000005    1    3    3    0    0  0.44556077563E+02 -0.38776880395E+02 -0.55255849694E+02  0.80889427160E+02  0.10000000000E+01 0.  0.
<mgrwt>
<rscale>  0 0.12500020E+03</rscale>
<asrwt>0</asrwt>
<pdfrwt beam="2">  1        4 0.15790201E-01 0.12500020E+03</pdfrwt>
<pdfrwt beam="1">  1       -4 0.58552719E-02 0.12500020E+03</pdfrwt>
<totfact> 0.10119144E+04</totfact>
</mgrwt>
</event>
<event>
 5    1  0.3311405E-002  0.1250048E+03  0.7818608E-02  0.1235062E+00
          4   -1    0    0  501    0  0.00000000000E+00  0.00000000000E+00  0.28224606406E+03  0.28224892130E+03  0.12700000000E+01 0.  1.
         -4   -1    0    0    0  501 -0.00000000000E+00 -0.00000000000E+00 -0.13808866045E+02  0.13867143954E+02  0.12700000000E+01 0.  1.
         25    2    1    2    0    0  0.00000000000E+00  0.00000000000E+00  0.26843719801E+03  0.29611606526E+03  0.12500477921E+03 0.  0.
    9000005    1    3    3    0    0  0.32220322335E+02 -0.35975355820E+01  0.26077879125E+03  0.26278825963E+03  0.10000000000E+01 0.  0.
    9000005    1    3    3    0    0 -0.32220322335E+02  0.35975355820E+01  0.76584067626E+01  0.33327805625E+02  0.10000000000E+01 0.  0.
<mgrwt>
<rscale>  0 0.12500478E+03</rscale>
<asrwt>0</asrwt>
<pdfrwt beam="1">  1        4 0.43427176E-01 0.12500478E+03</pdfrwt>
<pdfrwt beam="2">  1       -4 0.21291435E-02 0.12500478E+03</pdfrwt>
<totfact> 0.76080552E+03</totfact>
</mgrwt>
</event>
<event>
 5    1  0.3311405E-002  0.1249985E+03  0.7818608E-02  0.1235072E+00
         -4   -1    0    0    0  501 -0.00000000000E+00  0.00000000000E+00  0.44424995608E+02  0.44443144969E+02  0.12700000000E+01 0.  1.
          4   -1    0    0  501    0  0.00000000000E+00 -0.00000000000E+00 -0.87886335606E+02  0.87895511184E+02  0.12700000000E+01 0.  1.
         25    2    1    2    0    0  0.00000000000E+00  0.00000000000E+00 -0.43461339998E+02  0.13233865615E+03  0.12499852734E+03 0.  0.
    9000005    1    3    3    0    0 -0.13115440741E+02 -0.57649230344E+02 -0.30078721878E+00  0.59131539960E+02  0.10000000000E+01 0.  0.
    9000005    1    3    3    0    0  0.13115440741E+02  0.57649230344E+02 -0.43160552780E+02  0.73207116193E+02  0.10000000000E+01 0.  0.
<mgrwt>
<rscale>  0 0.12499853E+03</rscale>
<asrwt>0</asrwt>
<pdfrwt beam="2">  1        4 0.13523077E-01 0.12499853E+03</pdfrwt>
<pdfrwt beam="1">  1       -4 0.68367167E-02 0.12499853E+03</pdfrwt>
<totfact> 0.10294817E+04</totfact>
</mgrwt>
</event>
<event>
 5    1  0.3311405E-002  0.1249943E+03  0.7818608E-02  0.1235078E+00
          4   -1    0    0  501    0  0.00000000000E+00  0.00000000000E+00  0.20255304776E+03  0.20255702914E+03  0.12700000000E+01 0. -1.
         -4   -1    0    0    0  501 -0.00000000000E+00 -0.00000000000E+00 -0.19258240951E+02  0.19300071102E+02  0.12700000000E+01 0. -1.
         25    2    1    2    0    0  0.00000000000E+00  0.00000000000E+00  0.18329480681E+03  0.22185710025E+03  0.12499434678E+03 0.  0.
    9000005    1    3    3    0    0 -0.87367466374E+01 -0.68659352239E+01 -0.17499319159E+02  0.20753264305E+02  0.10000000000E+01 0.  0.
    9000005    1    3    3    0    0  0.87367466374E+01  0.68659352239E+01  0.20079412596E+03  0.20110383594E+03  0.10000000000E+01 0.  0.
<mgrwt>
<rscale>  0 0.12499435E+03</rscale>
<asrwt>0</asrwt>
<pdfrwt beam="1">  1        4 0.31165529E-01 0.12499435E+03</pdfrwt>
<pdfrwt beam="2">  1       -4 0.29663305E-02 0.12499435E+03</pdfrwt>
<totfact> 0.86586271E+03</totfact>
</mgrwt>
</event>
<event>
 5    1  0.3311405E-002  0.1249988E+03  0.7818608E-02  0.1235071E+00
         -4   -1    0    0    0  501 -0.00000000000E+00  0.00000000000E+00  0.14951121735E+03  0.14951661116E+03  0.12700000000E+01 0.  1.
          4   -1    0    0  501    0  0.00000000000E+00 -0.00000000000E+00 -0.26104984166E+02  0.26135858477E+02  0.12700000000E+01 0.  1.
         25    2    1    2    0    0  0.00000000000E+00  0.00000000000E+00  0.12340623318E+03  0.17565246964E+03  0.12499876680E+03 0.  0.
    9000005    1    3    3    0    0  0.26986550790E+02 -0.47596155321E+02  0.19277510084E+02  0.58019740777E+02  0.10000000000E+01 0.  0.
    9000005    1    3    3    0    0 -0.26986550790E+02  0.47596155321E+02  0.10412872310E+03  0.11763272886E+03  0.10000000000E+01 0.  0.
<mgrwt>
<rscale>  0 0.12499877E+03</rscale>
<asrwt>0</asrwt>
<pdfrwt beam="2">  1        4 0.40189414E-02 0.12499877E+03</pdfrwt>
<pdfrwt beam="1">  1       -4 0.23004515E-01 0.12499877E+03</pdfrwt>
<totfact> 0.94408090E+03</totfact>
</mgrwt>
</event>
<event>
 5    1  0.3311405E-002  0.1249988E+03  0.7818608E-02  0.1235071E+00
          4   -1    0    0  501    0  0.00000000000E+00  0.00000000000E+00  0.13146883955E+02  0.13208083045E+02  0.12700000000E+01 0.  1.
         -4   -1    0    0    0  501 -0.00000000000E+00 -0.00000000000E+00 -0.29636556300E+03  0.29636828412E+03  0.12700000000E+01 0.  1.
         25    2    1    2    0    0  0.00000000000E+00  0.00000000000E+00 -0.28321867905E+03  0.30957636717E+03  0.12499882779E+03 0.  0.
    9000005    1    3    3    0    0  0.42642300898E+02  0.10124501105E+02 -0.25193235275E+03  0.25571816852E+03  0.10000000000E+01 0.  0.
    9000005    1    3    3    0    0 -0.42642300898E+02 -0.10124501105E+02 -0.31286326296E+02  0.53858198647E+02  0.10000000000E+01 0.  0.
<mgrwt>
<rscale>  0 0.12499883E+03</rscale>
<asrwt>0</asrwt>
<pdfrwt beam="1">  1        4 0.20275147E-02 0.12499883E+03</pdfrwt>
<pdfrwt beam="2">  1       -4 0.45599614E-01 0.12499883E+03</pdfrwt>
<totfact> 0.74415024E+03</totfact>
</mgrwt>
</event>
<event>
 5    1  0.3311405E-002  0.1250078E+03  0.7818608E-02  0.1235057E+00
         -4   -1    0    0    0  501 -0.00000000000E+00  0.00000000000E+00  0.11886454031E+02  0.11954107639E+02  0.12700000000E+01 0.  1.
          4   -1    0    0  501    0  0.00000000000E+00 -0.00000000000E+00 -0.32766977176E+03  0.32767223291E+03  0.12700000000E+01 0.  1.
         25    2    1    2    0    0  0.00000000000E+00  0.00000000000E+00 -0.31578331773E+03  0.33962634055E+03  0.12500778953E+03 0.  0.
    9000005    1    3    3    0    0 -0.65419540978E+01  0.42066487081E+02 -0.33587616866E+02  0.54235730893E+02  0.10000000000E+01 0.  0.
    9000005    1    3    3    0    0  0.65419540978E+01 -0.42066487081E+02 -0.28219570086E+03  0.28539060966E+03  0.10000000000E+01 0.  0.
<mgrwt>
<rscale>  0 0.12500779E+03</rscale>
<asrwt>0</asrwt>
<pdfrwt beam="2">  1        4 0.50416121E-01 0.12500779E+03</pdfrwt>
<pdfrwt beam="1">  1       -4 0.18340789E-02 0.12500779E+03</pdfrwt>
<totfact> 0.70868846E+03</totfact>
</mgrwt>
</event>
<event>
 5    1  0.3311405E-002  0.1250054E+03  0.7818608E-02  0.1235061E+00
         -4   -1    0    0    0  501 -0.00000000000E+00  0.00000000000E+00  0.92461751275E+02  0.92470472849E+02  0.12700000000E+01 0.  1.
          4   -1    0    0  501    0  0.00000000000E+00 -0.00000000000E+00 -0.42230564468E+02  0.42249656511E+02  0.12700000000E+01 0.  1.
         25    2    1    2    0    0  0.00000000000E+00  0.00000000000E+00  0.50231186807E+02  0.13472012936E+03  0.12500536439E+03 0.  0.
    9000005    1    3    3    0    0  0.58061838099E+02  0.20212688994E+02  0.13025216491E+02  0.62852097057E+02  0.10000000000E+01 0.  0.
    9000005    1    3    3    0    0 -0.58061838099E+02 -0.20212688994E+02  0.37205970317E+02  0.71868032303E+02  0.10000000000E+01 0.  0.
<mgrwt>
<rscale>  0 0.12500536E+03</rscale>
<asrwt>0</asrwt>
<pdfrwt beam="2">  1        4 0.64991494E-02 0.12500536E+03</pdfrwt>
<pdfrwt beam="1">  1       -4 0.14227024E-01 0.12500536E+03</pdfrwt>
<totfact> 0.10242734E+04</totfact>
</mgrwt>
</event>
<event>
 5    1  0.3311405E-002  0.1250001E+03  0.7818608E-02  0.1235069E+00
         -4   -1    0    0    0  501 -0.00000000000E+00  0.00000000000E+00  0.19980388686E+02  0.20020710079E+02  0.12700000000E+01 0. -1.
          4   -1    0    0  501    0  0.00000000000E+00 -0.00000000000E+00 -0.19526498512E+03  0.19526911510E+03  0.12700000000E+01 0. -1.
         25    2    1    2    0    0  0.00000000000E+00  0.00000000000E+00 -0.17528459643E+03  0.21528982518E+03  0.12500007632E+03 0.  0.
    9000005    1    3    3    0    0 -0.57067694466E+02  0.82644036633E+00 -0.13148027108E+03  0.14333689838E+03  0.10000000000E+01 0.  0.
    9000005    1    3    3    0    0  0.57067694466E+02 -0.82644036633E+00 -0.43804325356E+02  0.71952926801E+02  0.10000000000E+01 0.  0.
<mgrwt>
<rscale>  0 0.12500008E+03</rscale>
<asrwt>0</asrwt>
<pdfrwt beam="2">  1        4 0.30044185E-01 0.12500008E+03</pdfrwt>
<pdfrwt beam="1">  1       -4 0.30773254E-02 0.12500008E+03</pdfrwt>
<totfact> 0.87619056E+03</totfact>
</mgrwt>
</event>
<event>
 5    1  0.3311405E-002  0.1250025E+03  0.7818608E-02  0.1235065E+00
         -4   -1    0    0    0  501 -0.00000000000E+00  0.00000000000E+00  0.22184110510E+02  0.22220433369E+02  0.12700000000E+01 0.  1.
          4   -1    0    0  501    0  0.00000000000E+00 -0.00000000000E+00 -0.17590749521E+03  0.17591207966E+03  0.12700000000E+01 0.  1.
         25    2    1    2    0    0  0.00000000000E+00  0.00000000000E+00 -0.15372338470E+03  0.19813251303E+03  0.12500245484E+03 0.  0.
    9000005    1    3    3    0    0  0.56377868395E+02 -0.26447458671E+02 -0.85169318100E+02  0.10551182332E+03  0.10000000000E+01 0.  0.
    9000005    1    3    3    0    0 -0.56377868395E+02  0.26447458671E+02 -0.68554066601E+02  0.92620689710E+02  0.10000000000E+01 0.  0.
<mgrwt>
<rscale>  0 0.12500245E+03</rscale>
<asrwt>0</asrwt>
<pdfrwt beam="2">  1        4 0.27065837E-01 0.12500245E+03</pdfrwt>
<pdfrwt beam="1">  1       -4 0.34160869E-02 0.12500245E+03</pdfrwt>
<totfact> 0.90446253E+03</totfact>
</mgrwt>
</event>
<event>
 5    1  0.3311405E-002  0.1250019E+03  0.7818608E-02  0.1235066E+00
          4   -1    0    0  501    0  0.00000000000E+00  0.00000000000E+00  0.41798575576E+01  0.43685362768E+01  0.12700000000E+01 0.  1.
         -4   -1    0    0    0  501 -0.00000000000E+00 -0.00000000000E+00 -0.91375370757E+03  0.91375459013E+03  0.12700000000E+01 0.  1.
         25    2    1    2    0    0  0.00000000000E+00  0.00000000000E+00 -0.90957385001E+03  0.91812312641E+03  0.12500194651E+03 0.  0.
    9000005    1    3    3    0    0 -0.36928975270E+02 -0.19146851266E+02 -0.79733050424E+03  0.79841548339E+03  0.10000000000E+01 0.  0.
    9000005    1    3    3    0    0  0.36928975270E+02  0.19146851266E+02 -0.11224334577E+03  0.11970764302E+03  0.10000000000E+01 0.  0.
<mgrwt>
<rscale>  0 0.12500195E+03</rscale>
<asrwt>0</asrwt>
<pdfrwt beam="1">  1        4 0.65763737E-03 0.12500195E+03</pdfrwt>
<pdfrwt beam="2">  1       -4 0.14059192E+00 0.12500195E+03</pdfrwt>
<totfact> 0.33474021E+03</totfact>
</mgrwt>
</event>
<event>
 5    1  0.3311405E-002  0.1250013E+03  0.7818608E-02  0.1235067E+00
         -4   -1    0    0    0  501 -0.00000000000E+00  0.00000000000E+00  0.97123027481E+01  0.97949846693E+01  0.12700000000E+01 0.  1.
          4   -1    0    0  501    0  0.00000000000E+00 -0.00000000000E+00 -0.40041613864E+03  0.40041815267E+03  0.12700000000E+01 0.  1.
         25    2    1    2    0    0  0.00000000000E+00  0.00000000000E+00 -0.39070383589E+03  0.41021313734E+03  0.12500132264E+03 0.  0.
    9000005    1    3    3    0    0  0.16448187082E+02 -0.43145070554E+02 -0.57159196705E+02  0.73486146581E+02  0.10000000000E+01 0.  0.
    9000005    1    3    3    0    0 -0.16448187082E+02  0.43145070554E+02 -0.33354463919E+03  0.33672699075E+03  0.10000000000E+01 0.  0.
<mgrwt>
<rscale>  0 0.12500132E+03</rscale>
<asrwt>0</asrwt>
<pdfrwt beam="2">  1        4 0.61608985E-01 0.12500132E+03</pdfrwt>
<pdfrwt beam="1">  1       -4 0.15007158E-02 0.12500132E+03</pdfrwt>
<totfact> 0.63569597E+03</totfact>
</mgrwt>
</event>
<event>
 5    1  0.3311405E-002  0.1249980E+03  0.7818608E-02  0.1235072E+00
         -4   -1    0    0    0  501 -0.00000000000E+00  0.00000000000E+00  0.46919638950E+01  0.48608049943E+01  0.12700000000E+01 0. -1.
          4   -1    0    0  501    0  0.00000000000E+00 -0.00000000000E+00 -0.81763031374E+03  0.81763130007E+03  0.12700000000E+01 0. -1.
         25    2    1    2    0    0  0.00000000000E+00  0.00000000000E+00 -0.81293834985E+03  0.82249210506E+03  0.12499800893E+03 0.  0.
    9000005    1    3    3    0    0 -0.15401545816E+02  0.39038113721E+02 -0.71114312496E+03  0.71238102593E+03  0.10000000000E+01 0.  0.
    9000005    1    3    3    0    0  0.15401545816E+02 -0.39038113721E+02 -0.10179522489E+03  0.11011107913E+03  0.10000000000E+01 0.  0.
<mgrwt>
<rscale>  0 0.12499801E+03</rscale>
<asrwt>0</asrwt>
<pdfrwt beam="2">  1        4 0.12580223E+00 0.12499801E+03</pdfrwt>
<pdfrwt beam="1">  1       -4 0.73490490E-03 0.12499801E+03</pdfrwt>
<totfact> 0.37281780E+03</totfact>
</mgrwt>
</event>
<event>
 5    1  0.3311405E-002  0.1250000E+03  0.7818608E-02  0.1235069E+00
         -4   -1    0    0    0  501 -0.00000000000E+00  0.00000000000E+00  0.19872329309E+02  0.19912869511E+02  0.12700000000E+01 0. -1.
          4   -1    0    0  501    0  0.00000000000E+00 -0.00000000000E+00 -0.19632439713E+03  0.19632850483E+03  0.12700000000E+01 0. -1.
         25    2    1    2    0    0  0.00000000000E+00  0.00000000000E+00 -0.17645206782E+03  0.21624137434E+03  0.12499999895E+03 0.  0.
    9000005    1    3    3    0    0  0.34234011981E+02 -0.52010809703E+02 -0.97405764493E+02  0.11561130939E+03  0.10000000000E+01 0.  0.
    9000005    1    3    3    0    0 -0.34234011981E+02  0.52010809703E+02 -0.79046303325E+02  0.10063006495E+03  0.10000000000E+01 0.  0.
<mgrwt>
<rscale>  0 0.12500000E+03</rscale>
<asrwt>0</asrwt>
<pdfrwt beam="2">  1        4 0.30207187E-01 0.12500000E+03</pdfrwt>
<pdfrwt beam="1">  1       -4 0.30607160E-02 0.12500000E+03</pdfrwt>
<totfact> 0.87466622E+03</totfact>
</mgrwt>
</event>
<event>
 5    1  0.3311405E-002  0.1249955E+03  0.7818608E-02  0.1235076E+00
          4   -1    0    0  501    0  0.00000000000E+00  0.00000000000E+00  0.54948635758E+01  0.56397185849E+01  0.12700000000E+01 0.  1.
         -4   -1    0    0    0  501 -0.00000000000E+00 -0.00000000000E+00 -0.70144650251E+03  0.70144765221E+03  0.12700000000E+01 0.  1.
         25    2    1    2    0    0  0.00000000000E+00  0.00000000000E+00 -0.69595163894E+03  0.70708737079E+03  0.12499546470E+03 0.  0.
    9000005    1    3    3    0    0 -0.10579970055E+02 -0.56619167020E+02 -0.48506686458E+03  0.48847571992E+03  0.10000000000E+01 0.  0.
    9000005    1    3    3    0    0  0.10579970055E+02  0.56619167020E+02 -0.21088477436E+03  0.21861165088E+03  0.10000000000E+01 0.  0.
<mgrwt>
<rscale>  0 0.12499546E+03</rscale>
<asrwt>0</asrwt>
<pdfrwt beam="1">  1        4 0.85659531E-03 0.12499546E+03</pdfrwt>
<pdfrwt beam="2">  1       -4 0.10792601E+00 0.12499546E+03</pdfrwt>
<totfact> 0.42719456E+03</totfact>
</mgrwt>
</event>
<event>
 5    1  0.3311405E-002  0.1250042E+03  0.7818608E-02  0.1235063E+00
         -4   -1    0    0    0  501 -0.00000000000E+00  0.00000000000E+00  0.89790166070E+01  0.90683868041E+01  0.12700000000E+01 0. -1.
          4   -1    0    0  501    0  0.00000000000E+00 -0.00000000000E+00 -0.43282681359E+03  0.43282867680E+03  0.12700000000E+01 0. -1.
         25    2    1    2    0    0  0.00000000000E+00  0.00000000000E+00 -0.42384779699E+03  0.44189706361E+03  0.12500423920E+03 0.  0.
    9000005    1    3    3    0    0 -0.34966575164E+02  0.41684522783E+02 -0.10323863375E+03  0.11670251204E+03  0.10000000000E+01 0.  0.
    9000005    1    3    3    0    0  0.34966575164E+02 -0.41684522783E+02 -0.32060916324E+03  0.32519455157E+03  0.10000000000E+01 0.  0.
<mgrwt>
<rscale>  0 0.12500424E+03</rscale>
<asrwt>0</asrwt>
<pdfrwt beam="2">  1        4 0.66595742E-01 0.12500424E+03</pdfrwt>
<pdfrwt beam="1">  1       -4 0.13884055E-02 0.12500424E+03</pdfrwt>
<totfact> 0.60666542E+03</totfact>
</mgrwt>
</event>
<event>
 5    1  0.3311405E-002  0.1249961E+03  0.7818608E-02  0.1235075E+00
          4   -1    0    0  501    0  0.00000000000E+00  0.00000000000E+00  0.87777627565E+01  0.88691611221E+01  0.12700000000E+01 0. -1.
         -4   -1    0    0    0  501 -0.00000000000E+00 -0.00000000000E+00 -0.44259154165E+03  0.44259336376E+03  0.12700000000E+01 0. -1.
         25    2    1    2    0    0  0.00000000000E+00  0.00000000000E+00 -0.43381377890E+03  0.45146252488E+03  0.12499606638E+03 0.  0.
    9000005    1    3    3    0    0 -0.22905535002E+02 -0.54414274780E+02 -0.14293721328E+03  0.15465323719E+03  0.10000000000E+01 0.  0.
    9000005    1    3    3    0    0  0.22905535002E+02  0.54414274780E+02 -0.29087656561E+03  0.29680928769E+03  0.10000000000E+01 0.  0.
<mgrwt>
<rscale>  0 0.12499607E+03</rscale>
<asrwt>0</asrwt>
<pdfrwt beam="1">  1        4 0.13575962E-02 0.12499607E+03</pdfrwt>
<pdfrwt beam="2">  1       -4 0.68098160E-01 0.12499607E+03</pdfrwt>
<totfact> 0.59842498E+03</totfact>
</mgrwt>
</event>
<event>
 5    1  0.3311405E-002  0.1250072E+03  0.7818608E-02  0.1235058E+00
          4   -1    0    0  501    0  0.00000000000E+00  0.00000000000E+00  0.33505860475E+02  0.33529920760E+02  0.12700000000E+01 0. -1.
         -4   -1    0    0    0  501 -0.00000000000E+00 -0.00000000000E+00 -0.11652808859E+03  0.11653500904E+03  0.12700000000E+01 0. -1.
         25    2    1    2    0    0  0.00000000000E+00  0.00000000000E+00 -0.83022228118E+02  0.15006492980E+03  0.12500717097E+03 0.  0.
    9000005    1    3    3    0    0  0.32697000724E+02 -0.46844706588E+02 -0.71932004980E+02  0.91862580696E+02  0.10000000000E+01 0.  0.
    9000005    1    3    3    0    0 -0.32697000724E+02  0.46844706588E+02 -0.11090223139E+02  0.58202349101E+02  0.10000000000E+01 0.  0.
<mgrwt>
<rscale>  0 0.12500717E+03</rscale>
<asrwt>0</asrwt>
<pdfrwt beam="1">  1        4 0.51571310E-02 0.12500717E+03</pdfrwt>
<pdfrwt beam="2">  1       -4 0.17929781E-01 0.12500717E+03</pdfrwt>
<totfact> 0.99274734E+03</totfact>
</mgrwt>
</event>
<event>
 5    1  0.3311405E-002  0.1249977E+03  0.7818608E-02  0.1235073E+00
         -4   -1    0    0    0  501 -0.00000000000E+00  0.00000000000E+00  0.89225730339E+02  0.89234768193E+02  0.12700000000E+01 0.  1.
          4   -1    0    0  501    0  0.00000000000E+00 -0.00000000000E+00 -0.43757305094E+02  0.43775731280E+02  0.12700000000E+01 0.  1.
         25    2    1    2    0    0  0.00000000000E+00  0.00000000000E+00  0.45468425245E+02  0.13301049947E+03  0.12499766108E+03 0.  0.
    9000005    1    3    3    0    0  0.36683363204E+02  0.21106493949E+02 -0.26190857223E+02  0.49780661154E+02  0.10000000000E+01 0.  0.
    9000005    1    3    3    0    0 -0.36683363204E+02 -0.21106493949E+02  0.71659282468E+02  0.83229838319E+02  0.10000000000E+01 0.  0.
<mgrwt>
<rscale>  0 0.12499766E+03</rscale>
<asrwt>0</asrwt>
<pdfrwt beam="2">  1        4 0.67340058E-02 0.12499766E+03</pdfrwt>
<pdfrwt beam="1">  1       -4 0.13729148E-01 0.12499766E+03</pdfrwt>
<totfact> 0.10280719E+04</totfact>
</mgrwt>
</event>
<event>
 5    1  0.3311405E-002  0.1250068E+03  0.7818608E-02  0.1235059E+00
          4   -1    0    0  501    0  0.00000000000E+00  0.00000000000E+00  0.24323513755E+03  0.24323845304E+03  0.12700000000E+01 0.  1.
         -4   -1    0    0    0  501 -0.00000000000E+00 -0.00000000000E+00 -0.16032782595E+02  0.16083004002E+02  0.12700000000E+01 0.  1.
         25    2    1    2    0    0  0.00000000000E+00  0.00000000000E+00  0.22720235496E+03  0.25932145705E+03  0.12500683176E+03 0.  0.
    9000005    1    3    3    0    0  0.97844825734E+00 -0.59144846647E+02  0.71770779431E+02  0.93011370412E+02  0.10000000000E+01 0.  0.
    9000005    1    3    3    0    0 -0.97844825734E+00  0.59144846647E+02  0.15543157553E+03  0.16631008663E+03  0.10000000000E+01 0.  0.
<mgrwt>
<rscale>  0 0.12500683E+03</rscale>
<asrwt>0</asrwt>
<pdfrwt beam="1">  1        4 0.37424906E-01 0.12500683E+03</pdfrwt>
<pdfrwt beam="2">  1       -4 0.24707004E-02 0.12500683E+03</pdfrwt>
<totfact> 0.80989063E+03</totfact>
</mgrwt>
</event>
<event>
 5    1  0.3311405E-002  0.1250012E+03  0.7818608E-02  0.1235067E+00
          4   -1    0    0  501    0  0.00000000000E+00  0.00000000000E+00  0.13730865908E+02  0.13789473470E+02  0.12700000000E+01 0.  1.
         -4   -1    0    0    0  501 -0.00000000000E+00 -0.00000000000E+00 -0.28382623295E+03  0.28382907428E+03  0.12700000000E+01 0.  1.
         25    2    1    2    0    0  0.00000000000E+00  0.00000000000E+00 -0.27009536704E+03  0.29761854775E+03  0.12500117068E+03 0.  0.
    9000005    1    3    3    0    0  0.57827549067E+02  0.11057140497E+02 -0.18493574885E+03  0.19408378858E+03  0.10000000000E+01 0.  0.
    9000005    1    3    3    0    0 -0.57827549067E+02 -0.11057140497E+02 -0.85159618188E+02  0.10353475917E+03  0.10000000000E+01 0.  0.
<mgrwt>
<rscale>  0 0.12500117E+03</rscale>
<asrwt>0</asrwt>
<pdfrwt beam="1">  1        4 0.21171680E-02 0.12500117E+03</pdfrwt>
<pdfrwt beam="2">  1       -4 0.43670297E-01 0.12500117E+03</pdfrwt>
<totfact> 0.75896567E+03</totfact>
</mgrwt>
</event>
<event>
 5    1  0.3311405E-002  0.1249986E+03  0.7818608E-02  0.1235072E+00
          4   -1    0    0  501    0  0.00000000000E+00  0.00000000000E+00  0.28585007984E+03  0.28585290106E+03  0.12700000000E+01 0.  1.
         -4   -1    0    0    0  501 -0.00000000000E+00 -0.00000000000E+00 -0.13632664819E+02  0.13691692739E+02  0.12700000000E+01 0.  1.
         25    2    1    2    0    0  0.00000000000E+00  0.00000000000E+00  0.27221741502E+03  0.29954459380E+03  0.12499857053E+03 0.  0.
    9000005    1    3    3    0    0 -0.10373172014E+01  0.61885455637E+02  0.15676145356E+03  0.16854091185E+03  0.10000000000E+01 0.  0.
    9000005    1    3    3    0    0  0.10373172014E+01 -0.61885455637E+02  0.11545596146E+03  0.13100368195E+03  0.10000000000E+01 0.  0.
<mgrwt>
<rscale>  0 0.12499857E+03</rscale>
<asrwt>0</asrwt>
<pdfrwt beam="1">  1        4 0.43981692E-01 0.12499857E+03</pdfrwt>
<pdfrwt beam="2">  1       -4 0.21020907E-02 0.12499857E+03</pdfrwt>
<totfact> 0.75658400E+03</totfact>
</mgrwt>
</event>
<event>
 5    1  0.3311405E-002  0.1250049E+03  0.7818608E-02  0.1235062E+00
         -4   -1    0    0    0  501 -0.00000000000E+00  0.00000000000E+00  0.38172968636E+03  0.38173179897E+03  0.12700000000E+01 0. -1.
          4   -1    0    0  501    0  0.00000000000E+00 -0.00000000000E+00 -0.10192271259E+02  0.10271090176E+02  0.12700000000E+01 0. -1.
         25    2    1    2    0    0  0.00000000000E+00  0.00000000000E+00  0.37153741510E+03  0.39200288915E+03  0.12500485704E+03 0.  0.
    9000005    1    3    3    0    0  0.35382818888E+02 -0.34600911144E+02  0.66094454854E+02  0.82575080302E+02  0.10000000000E+01 0.  0.
    9000005    1    3    3    0    0 -0.35382818888E+02  0.34600911144E+02  0.30544296024E+03  0.30942780884E+03  0.10000000000E+01 0.  0.
<mgrwt>
<rscale>  0 0.12500486E+03</rscale>
<asrwt>0</asrwt>
<pdfrwt beam="2">  1        4 0.15742672E-02 0.12500486E+03</pdfrwt>
<pdfrwt beam="1">  1       -4 0.58733869E-01 0.12500486E+03</pdfrwt>
<totfact> 0.65331072E+03</totfact>
</mgrwt>
</event>
<event>
 5    1  0.3311405E-002  0.1249950E+03  0.7818608E-02  0.1235077E+00
         -4   -1    0    0    0  501 -0.00000000000E+00  0.00000000000E+00  0.14809851960E+02  0.14864205834E+02  0.12700000000E+01 0.  1.
          4   -1    0    0  501    0  0.00000000000E+00 -0.00000000000E+00 -0.26320011834E+03  0.26320318234E+03  0.12700000000E+01 0.  1.
         25    2    1    2    0    0  0.00000000000E+00  0.00000000000E+00 -0.24839026638E+03  0.27806738817E+03  0.12499499164E+03 0.  0.
    9000005    1    3    3    0    0 -0.21607797767E+02 -0.30280701561E+00  0.62437647379E+01  0.22516065698E+02  0.10000000000E+01 0.  0.
    9000005    1    3    3    0    0  0.21607797767E+02  0.30280701561E+00 -0.25463403112E+03  0.25555132248E+03  0.10000000000E+01 0.  0.
<mgrwt>
<rscale>  0 0.12499499E+03</rscale>
<asrwt>0</asrwt>
<pdfrwt beam="2">  1        4 0.40496739E-01 0.12499499E+03</pdfrwt>
<pdfrwt beam="1">  1       -4 0.22828557E-02 0.12499499E+03</pdfrwt>
<totfact> 0.78443790E+03</totfact>
</mgrwt>
</event>
<event>
 5    1  0.3311405E-002  0.1250097E+03  0.7818608E-02  0.1235054E+00
          4   -1    0    0  501    0  0.00000000000E+00  0.00000000000E+00  0.63578972538E+02  0.63591655498E+02  0.12700000000E+01 0.  1.
         -4   -1    0    0    0  501 -0.00000000000E+00 -0.00000000000E+00 -0.61423459859E+02  0.61436587804E+02  0.12700000000E+01 0.  1.
         25    2    1    2    0    0  0.00000000000E+00  0.00000000000E+00  0.21555126795E+01  0.12502824330E+03  0.12500966118E+03 0.  0.
    9000005    1    3    3    0    0 -0.25018919812E+02  0.35974375961E+02 -0.43490642361E+02  0.61745753273E+02  0.10000000000E+01 0.  0.
    9000005    1    3    3    0    0  0.25018919812E+02 -0.35974375961E+02  0.45646155040E+02  0.63282490029E+02  0.10000000000E+01 0.  0.
<mgrwt>
<rscale>  0 0.12500966E+03</rscale>
<asrwt>0</asrwt>
<pdfrwt beam="1">  1        4 0.97833659E-02 0.12500966E+03</pdfrwt>
<pdfrwt beam="2">  1       -4 0.94517485E-02 0.12500966E+03</pdfrwt>
<totfact> 0.10449967E+04</totfact>
</mgrwt>
</event>
<event>
 5    1  0.3311405E-002  0.1250005E+03  0.7818608E-02  0.1235069E+00
         -4   -1    0    0    0  501 -0.00000000000E+00  0.00000000000E+00  0.11011745825E+03  0.11012478155E+03  0.12700000000E+01 0.  1.
          4   -1    0    0  501    0  0.00000000000E+00 -0.00000000000E+00 -0.35453887792E+02  0.35476626947E+02  0.12700000000E+01 0.  1.
         25    2    1    2    0    0  0.00000000000E+00  0.00000000000E+00  0.74663570453E+02  0.14560140849E+03  0.12500048561E+03 0.  0.
    9000005    1    3    3    0    0  0.14670116273E+02  0.60045300051E+02  0.48047372984E+02  0.78295596430E+02  0.10000000000E+01 0.  0.
    9000005    1    3    3    0    0 -0.14670116273E+02 -0.60045300051E+02  0.26616197469E+02  0.67305812062E+02  0.10000000000E+01 0.  0.
<mgrwt>
<rscale>  0 0.12500049E+03</rscale>
<asrwt>0</asrwt>
<pdfrwt beam="2">  1        4 0.54567568E-02 0.12500049E+03</pdfrwt>
<pdfrwt beam="1">  1       -4 0.16943460E-01 0.12500049E+03</pdfrwt>
<totfact> 0.10018674E+04</totfact>
</mgrwt>
</event>
<event>
 5    1  0.3311405E-002  0.1250033E+03  0.7818608E-02  0.1235064E+00
          4   -1    0    0  501    0  0.00000000000E+00  0.00000000000E+00  0.16123900548E+03  0.16124400699E+03  0.12700000000E+01 0.  1.
         -4   -1    0    0    0  501 -0.00000000000E+00 -0.00000000000E+00 -0.24205696827E+02  0.24238990467E+02  0.12700000000E+01 0.  1.
         25    2    1    2    0    0  0.00000000000E+00  0.00000000000E+00  0.13703330865E+03  0.18548299745E+03  0.12500325861E+03 0.  0.
    9000005    1    3    3    0    0  0.13103470706E+02  0.51678643928E+02  0.20136884139E+02  0.56998923548E+02  0.10000000000E+01 0.  0.
    9000005    1    3    3    0    0 -0.13103470706E+02 -0.51678643928E+02  0.11689642452E+03  0.12848407390E+03  0.10000000000E+01 0.  0.
<mgrwt>
<rscale>  0 0.12500326E+03</rscale>
<asrwt>0</asrwt>
<pdfrwt beam="1">  1        4 0.24808947E-01 0.12500326E+03</pdfrwt>
<pdfrwt beam="2">  1       -4 0.37268992E-02 0.12500326E+03</pdfrwt>
<totfact> 0.92632488E+03</totfact>
</mgrwt>
</event>
<event>
 5    1  0.3311405E-002  0.1250015E+03  0.7818608E-02  0.1235067E+00
          4   -1    0    0  501    0  0.00000000000E+00  0.00000000000E+00  0.43759897869E+01  0.45565542480E+01  0.12700000000E+01 0.  1.
         -4   -1    0    0    0  501 -0.00000000000E+00 -0.00000000000E+00 -0.87445013813E+03  0.87445106036E+03  0.12700000000E+01 0.  1.
         25    2    1    2    0    0  0.00000000000E+00  0.00000000000E+00 -0.87007414834E+03  0.87900761461E+03  0.12500145173E+03 0.  0.
    9000005    1    3    3    0    0  0.20035693036E+01  0.62235168661E+02 -0.47231997927E+03  0.47640780150E+03  0.10000000000E+01 0.  0.
    9000005    1    3    3    0    0 -0.20035693036E+01 -0.62235168661E+02 -0.39775416907E+03  0.40259981311E+03  0.10000000000E+01 0.  0.
<mgrwt>
<rscale>  0 0.12500145E+03</rscale>
<asrwt>0</asrwt>
<pdfrwt beam="1">  1        4 0.68719041E-03 0.12500145E+03</pdfrwt>
<pdfrwt beam="2">  1       -4 0.13454461E+00 0.12500145E+03</pdfrwt>
<totfact> 0.34967729E+03</totfact>
</mgrwt>
</event>
<event>
 5    1  0.3311405E-002  0.1250036E+03  0.7818608E-02  0.1235064E+00
          4   -1    0    0  501    0  0.00000000000E+00  0.00000000000E+00  0.89234235193E+01  0.90133449565E+01  0.12700000000E+01 0. -1.
         -4   -1    0    0    0  501 -0.00000000000E+00 -0.00000000000E+00 -0.43549227284E+03  0.43549412465E+03  0.12700000000E+01 0. -1.
         25    2    1    2    0    0  0.00000000000E+00  0.00000000000E+00 -0.42656884932E+03  0.44450746961E+03  0.12500362924E+03 0.  0.
    9000005    1    3    3    0    0  0.29106635168E+02 -0.45497870728E+02 -0.32506960276E+03  0.32952769093E+03  0.10000000000E+01 0.  0.
    9000005    1    3    3    0    0 -0.29106635168E+02  0.45497870728E+02 -0.10149924656E+03  0.11497977867E+03  0.10000000000E+01 0.  0.
<mgrwt>
<rscale>  0 0.12500363E+03</rscale>
<asrwt>0</asrwt>
<pdfrwt beam="1">  1        4 0.13798942E-02 0.12500363E+03</pdfrwt>
<pdfrwt beam="2">  1       -4 0.67005854E-01 0.12500363E+03</pdfrwt>
<totfact> 0.60437758E+03</totfact>
</mgrwt>
</event>
<event>
 5    1  0.3311405E-002  0.1250113E+03  0.7818608E-02  0.1235052E+00
          4   -1    0    0  501    0  0.00000000000E+00  0.00000000000E+00  0.30069121133E+03  0.30069389330E+03  0.12700000000E+01 0. -1.
         -4   -1    0    0    0  501 -0.00000000000E+00 -0.00000000000E+00 -0.12959476350E+02  0.13021556253E+02  0.12700000000E+01 0. -1.
         25    2    1    2    0    0  0.00000000000E+00  0.00000000000E+00  0.28773173498E+03  0.31371544956E+03  0.12501132739E+03 0.  0.
    9000005    1    3    3    0    0  0.56607675982E+02 -0.75605786147E+01  0.20756786824E+03  0.21528356011E+03  0.10000000000E+01 0.  0.
    9000005    1    3    3    0    0 -0.56607675982E+02  0.75605786147E+01  0.80163866740E+02  0.98431889446E+02  0.10000000000E+01 0.  0.
<mgrwt>
<rscale>  0 0.12501133E+03</rscale>
<asrwt>0</asrwt>
<pdfrwt beam="1">  1        4 0.46265167E-01 0.12501133E+03</pdfrwt>
<pdfrwt beam="2">  1       -4 0.19987473E-02 0.12501133E+03</pdfrwt>
<totfact> 0.73891313E+03</totfact>
</mgrwt>
</event>
<event>
 5    1  0.3311405E-002  0.1249981E+03  0.7818608E-02  0.1235072E+00
          4   -1    0    0  501    0  0.00000000000E+00  0.00000000000E+00  0.97619916337E+01  0.98442562267E+01  0.12700000000E+01 0.  1.
         -4   -1    0    0    0  501 -0.00000000000E+00 -0.00000000000E+00 -0.39837474413E+03  0.39837676848E+03  0.12700000000E+01 0.  1.
         25    2    1    2    0    0  0.00000000000E+00  0.00000000000E+00 -0.38861275250E+03  0.40822102471E+03  0.12499813441E+03 0.  0.
    9000005    1    3    3    0    0 -0.50205150211E+02  0.34769865839E+02 -0.23758710404E+03  0.24531231662E+03  0.10000000000E+01 0.  0.
    9000005    1    3    3    0    0  0.50205150211E+02 -0.34769865839E+02 -0.15102564846E+03  0.16290870809E+03  0.10000000000E+01 0.  0.
<mgrwt>
<rscale>  0 0.12499813E+03</rscale>
<asrwt>0</asrwt>
<pdfrwt beam="1">  1        4 0.15083289E-02 0.12499813E+03</pdfrwt>
<pdfrwt beam="2">  1       -4 0.61294893E-01 0.12499813E+03</pdfrwt>
<totfact> 0.63763630E+03</totfact>
</mgrwt>
</event>
<event>
 5    1  0.3311405E-002  0.1249983E+03  0.7818608E-02  0.1235072E+00
          4   -1    0    0  501    0  0.00000000000E+00  0.00000000000E+00  0.32061273393E+02  0.32086416933E+02  0.12700000000E+01 0.  1.
         -4   -1    0    0    0  501 -0.00000000000E+00 -0.00000000000E+00 -0.12175754815E+03  0.12176417138E+03  0.12700000000E+01 0.  1.
         25    2    1    2    0    0  0.00000000000E+00  0.00000000000E+00 -0.89696274760E+02  0.15385058831E+03  0.12499832726E+03 0.  0.
    9000005    1    3    3    0    0 -0.71573333893E+00  0.26741862436E+02  0.24663364165E+02  0.36399464456E+02  0.10000000000E+01 0.  0.
    9000005    1    3    3    0    0  0.71573333893E+00 -0.26741862436E+02 -0.11435963892E+03  0.11745112386E+03  0.10000000000E+01 0.  0.
<mgrwt>
<rscale>  0 0.12499833E+03</rscale>
<asrwt>0</asrwt>
<pdfrwt beam="1">  1        4 0.49349472E-02 0.12499833E+03</pdfrwt>
<pdfrwt beam="2">  1       -4 0.18734374E-01 0.12499833E+03</pdfrwt>
<totfact> 0.98545313E+03</totfact>
</mgrwt>
</event>
<event>
 5    1  0.3311405E-002  0.1249993E+03  0.7818608E-02  0.1235070E+00
          4   -1    0    0  501    0  0.00000000000E+00  0.00000000000E+00  0.58066701751E+01  0.59439312346E+01  0.12700000000E+01 0. -1.
         -4   -1    0    0    0  501 -0.00000000000E+00 -0.00000000000E+00 -0.66471440893E+03  0.66471562216E+03  0.12700000000E+01 0. -1.
         25    2    1    2    0    0  0.00000000000E+00  0.00000000000E+00 -0.65890773876E+03  0.67065955339E+03  0.12499931345E+03 0.  0.
    9000005    1    3    3    0    0 -0.29296627383E+02  0.33752355435E+02 -0.95112612166E+02  0.10509482797E+03  0.10000000000E+01 0.  0.
    9000005    1    3    3    0    0  0.29296627383E+02 -0.33752355435E+02 -0.56379512659E+03  0.56556472542E+03  0.10000000000E+01 0.  0.
<mgrwt>
<rscale>  0 0.12499931E+03</rscale>
<asrwt>0</asrwt>
<pdfrwt beam="1">  1        4 0.90398627E-03 0.12499931E+03</pdfrwt>
<pdfrwt beam="2">  1       -4 0.10227435E+00 0.12499931E+03</pdfrwt>
<totfact> 0.44682128E+03</totfact>
</mgrwt>
</event>
<event>
 5    1  0.3311405E-002  0.1249985E+03  0.7818608E-02  0.1235072E+00
          4   -1    0    0  501    0  0.00000000000E+00  0.00000000000E+00  0.11747453830E+03  0.11748140300E+03  0.12700000000E+01 0.  1.
         -4   -1    0    0    0  501 -0.00000000000E+00 -0.00000000000E+00 -0.33231116590E+02  0.33255375653E+02  0.12700000000E+01 0.  1.
         25    2    1    2    0    0  0.00000000000E+00  0.00000000000E+00  0.84243421715E+02  0.15073677865E+03  0.12499848933E+03 0.  0.
    9000005    1    3    3    0    0  0.60820134758E+02 -0.14347308379E+02  0.41554120935E+02  0.75051175983E+02  0.10000000000E+01 0.  0.
    9000005    1    3    3    0    0 -0.60820134758E+02  0.14347308379E+02  0.42689300780E+02  0.75685602665E+02  0.10000000000E+01 0.  0.
<mgrwt>
<rscale>  0 0.12499849E+03</rscale>
<asrwt>0</asrwt>
<pdfrwt beam="1">  1        4 0.18075400E-01 0.12499849E+03</pdfrwt>
<pdfrwt beam="2">  1       -4 0.51148736E-02 0.12499849E+03</pdfrwt>
<totfact> 0.99160406E+03</totfact>
</mgrwt>
</event>
<event>
 5    1  0.3311405E-002  0.1249995E+03  0.7818608E-02  0.1235070E+00
         -4   -1    0    0    0  501 -0.00000000000E+00  0.00000000000E+00  0.10775388242E+03  0.10776136634E+03  0.12700000000E+01 0.  1.
          4   -1    0    0  501    0  0.00000000000E+00 -0.00000000000E+00 -0.36231435545E+02  0.36253687008E+02  0.12700000000E+01 0.  1.
         25    2    1    2    0    0  0.00000000000E+00  0.00000000000E+00  0.71522446872E+02  0.14401505335E+03  0.12499950074E+03 0.  0.
    9000005    1    3    3    0    0 -0.17047756868E+02 -0.33483042793E+02 -0.21769844560E+02  0.43435772136E+02  0.10000000000E+01 0.  0.
    9000005    1    3    3    0    0  0.17047756868E+02  0.33483042793E+02  0.93292291432E+02  0.10057928121E+03  0.10000000000E+01 0.  0.
<mgrwt>
<rscale>  0 0.12499950E+03</rscale>
<asrwt>0</asrwt>
<pdfrwt beam="2">  1        4 0.55763544E-02 0.12499950E+03</pdfrwt>
<pdfrwt beam="1">  1       -4 0.16579808E-01 0.12499950E+03</pdfrwt>
<totfact> 0.10051152E+04</totfact>
</mgrwt>
</event>
<event>
 5    1  0.3311405E-002  0.1249997E+03  0.7818608E-02  0.1235070E+00
          4   -1    0    0  501    0  0.00000000000E+00  0.00000000000E+00  0.25353800989E+04  0.25353804170E+04  0.12700000000E+01 0.  1.
         -4   -1    0    0    0  501 -0.00000000000E+00 -0.00000000000E+00 -0.12785986636E+01  0.18021416544E+01  0.12700000000E+01 0.  1.
         25    2    1    2    0    0  0.00000000000E+00  0.00000000000E+00  0.25341015002E+04  0.25371825586E+04  0.12499968932E+03 0.  0.
    9000005    1    3    3    0    0  0.46216813732E+02 -0.39835625493E+02  0.99295193261E+03  0.99482531703E+03  0.10000000000E+01 0.  0.
    9000005    1    3    3    0    0 -0.46216813732E+02  0.39835625493E+02  0.15411495676E+04  0.15423572416E+04  0.10000000000E+01 0.  0.
<mgrwt>
<rscale>  0 0.12499969E+03</rscale>
<asrwt>0</asrwt>
<pdfrwt beam="1">  1        4 0.39010185E+00 0.12499969E+03</pdfrwt>
<pdfrwt beam="2">  1       -4 0.23700263E-03 0.12499969E+03</pdfrwt>
<totfact> 0.43836408E+02</totfact>
</mgrwt>
</event>
<event>
 5    1  0.3311405E-002  0.1250028E+03  0.7818608E-02  0.1235065E+00
          4   -1    0    0  501    0  0.00000000000E+00  0.00000000000E+00  0.74149672578E+02  0.74160547756E+02  0.12700000000E+01 0.  1.
         -4   -1    0    0    0  501 -0.00000000000E+00 -0.00000000000E+00 -0.52660611612E+02  0.52675923488E+02  0.12700000000E+01 0.  1.
         25    2    1    2    0    0  0.00000000000E+00  0.00000000000E+00  0.21489060966E+02  0.12683647124E+03  0.12500284275E+03 0.  0.
    9000005    1    3    3    0    0 -0.71392645707E+01  0.48273146934E+02 -0.28868658537E+02  0.56706836089E+02  0.10000000000E+01 0.  0.
    9000005    1    3    3    0    0  0.71392645707E+01 -0.48273146934E+02  0.50357719503E+02  0.70129635155E+02  0.10000000000E+01 0.  0.
<mgrwt>
<rscale>  0 0.12500284E+03</rscale>
<asrwt>0</asrwt>
<pdfrwt beam="1">  1        4 0.11409656E-01 0.12500284E+03</pdfrwt>
<pdfrwt beam="2">  1       -4 0.81036469E-02 0.12500284E+03</pdfrwt>
<totfact> 0.10412032E+04</totfact>
</mgrwt>
</event>
<event>
 5    1  0.3311405E-002  0.1249998E+03  0.7818608E-02  0.1235070E+00
         -4   -1    0    0    0  501 -0.00000000000E+00  0.00000000000E+00  0.19232993861E+03  0.19233413162E+03  0.12700000000E+01 0. -1.
          4   -1    0    0  501    0  0.00000000000E+00 -0.00000000000E+00 -0.20285798192E+02  0.20325513728E+02  0.12700000000E+01 0. -1.
         25    2    1    2    0    0  0.00000000000E+00  0.00000000000E+00  0.17204414042E+03  0.21265964535E+03  0.12499975403E+03 0.  0.
    9000005    1    3    3    0    0 -0.55984390530E+02 -0.21384316997E+02  0.55890013441E+02  0.81952636314E+02  0.10000000000E+01 0.  0.
    9000005    1    3    3    0    0  0.55984390530E+02  0.21384316997E+02  0.11615412698E+03  0.13070700903E+03  0.10000000000E+01 0.  0.
<mgrwt>
<rscale>  0 0.12499975E+03</rscale>
<asrwt>0</asrwt>
<pdfrwt beam="2">  1        4 0.31242695E-02 0.12499975E+03</pdfrwt>
<pdfrwt beam="1">  1       -4 0.29592600E-01 0.12499975E+03</pdfrwt>
<totfact> 0.88043842E+03</totfact>
</mgrwt>
</event>
<event>
 5    1  0.3311405E-002  0.1249983E+03  0.7818608E-02  0.1235072E+00
         -4   -1    0    0    0  501 -0.00000000000E+00  0.00000000000E+00  0.25200553564E+02  0.25232534552E+02  0.12700000000E+01 0. -1.
          4   -1    0    0  501    0  0.00000000000E+00 -0.00000000000E+00 -0.15486948881E+03  0.15487469601E+03  0.12700000000E+01 0. -1.
         25    2    1    2    0    0  0.00000000000E+00  0.00000000000E+00 -0.12966893525E+03  0.18010723056E+03  0.12499832692E+03 0.  0.
    9000005    1    3    3    0    0  0.12777052333E+02 -0.22105170680E+02 -0.14701821134E+03  0.14922213678E+03  0.10000000000E+01 0.  0.
    9000005    1    3    3    0    0 -0.12777052333E+02  0.22105170680E+02  0.17349276098E+02  0.30885093787E+02  0.10000000000E+01 0.  0.
<mgrwt>
<rscale>  0 0.12499833E+03</rscale>
<asrwt>0</asrwt>
<pdfrwt beam="2">  1        4 0.23828935E-01 0.12499833E+03</pdfrwt>
<pdfrwt beam="1">  1       -4 0.38798690E-02 0.12499833E+03</pdfrwt>
<totfact> 0.93601216E+03</totfact>
</mgrwt>
</event>
<event>
 5    1  0.3311405E-002  0.1250080E+03  0.7818608E-02  0.1235057E+00
         -4   -1    0    0    0  501 -0.00000000000E+00  0.00000000000E+00  0.90674851757E+02  0.90683745187E+02  0.12700000000E+01 0.  1.
          4   -1    0    0  501    0  0.00000000000E+00 -0.00000000000E+00 -0.43064911180E+02  0.43083633493E+02  0.12700000000E+01 0.  1.
         25    2    1    2    0    0  0.00000000000E+00  0.00000000000E+00  0.47609940576E+02  0.13376737868E+03  0.12500802037E+03 0.  0.
    9000005    1    3    3    0    0  0.20549791519E+02  0.57236456078E+02  0.39217158340E+02  0.72369132536E+02  0.10000000000E+01 0.  0.
    9000005    1    3    3    0    0 -0.20549791519E+02 -0.57236456078E+02  0.83927822368E+01  0.61398246144E+02  0.10000000000E+01 0.  0.
<mgrwt>
<rscale>  0 0.12500802E+03</rscale>
<asrwt>0</asrwt>
<pdfrwt beam="2">  1        4 0.66274953E-02 0.12500802E+03</pdfrwt>
<pdfrwt beam="1">  1       -4 0.13952101E-01 0.12500802E+03</pdfrwt>
<totfact> 0.10262261E+04</totfact>
</mgrwt>
</event>
<event>
 5    1  0.3311405E-002  0.1249998E+03  0.7818608E-02  0.1235070E+00
         -4   -1    0    0    0  501 -0.00000000000E+00  0.00000000000E+00  0.48772041488E+02  0.48788573774E+02  0.12700000000E+01 0. -1.
          4   -1    0    0  501    0  0.00000000000E+00 -0.00000000000E+00 -0.80056628481E+02  0.80066701342E+02  0.12700000000E+01 0. -1.
         25    2    1    2    0    0  0.00000000000E+00  0.00000000000E+00 -0.31284586994E+02  0.12885527512E+03  0.12499982617E+03 0.  0.
    9000005    1    3    3    0    0  0.36372986668E+02  0.11635906410E+02  0.35349058269E+02  0.52047520572E+02  0.10000000000E+01 0.  0.
    9000005    1    3    3    0    0 -0.36372986668E+02 -0.11635906410E+02 -0.66633645263E+02  0.76807754544E+02  0.10000000000E+01 0.  0.
<mgrwt>
<rscale>  0 0.12499983E+03</rscale>
<asrwt>0</asrwt>
<pdfrwt beam="2">  1        4 0.12318451E-01 0.12499983E+03</pdfrwt>
<pdfrwt beam="1">  1       -4 0.75054375E-02 0.12499983E+03</pdfrwt>
<totfact> 0.10369098E+04</totfact>
</mgrwt>
</event>
<event>
 5    1  0.3311405E-002  0.1250058E+03  0.7818608E-02  0.1235060E+00
          4   -1    0    0  501    0  0.00000000000E+00  0.00000000000E+00  0.12601030686E+02  0.12664867719E+02  0.12700000000E+01 0.  1.
         -4   -1    0    0    0  501 -0.00000000000E+00 -0.00000000000E+00 -0.30917484140E+03  0.30917744978E+03  0.12700000000E+01 0.  1.
         25    2    1    2    0    0  0.00000000000E+00  0.00000000000E+00 -0.29657381072E+03  0.32184231750E+03  0.12500580840E+03 0.  0.
    9000005    1    3    3    0    0  0.41918787272E+02 -0.19703107974E+02 -0.25630485183E+03  0.26045839257E+03  0.10000000000E+01 0.  0.
    9000005    1    3    3    0    0 -0.41918787272E+02  0.19703107974E+02 -0.40268958885E+02  0.61383924930E+02  0.10000000000E+01 0.  0.
<mgrwt>
<rscale>  0 0.12500581E+03</rscale>
<asrwt>0</asrwt>
<pdfrwt beam="1">  1        4 0.19437315E-02 0.12500581E+03</pdfrwt>
<pdfrwt beam="2">  1       -4 0.47570466E-01 0.12500581E+03</pdfrwt>
<totfact> 0.72928154E+03</totfact>
</mgrwt>
</event>
<event>
 5    1  0.3311405E-002  0.1250037E+03  0.7818608E-02  0.1235063E+00
          4   -1    0    0  501    0  0.00000000000E+00  0.00000000000E+00  0.51875272250E+02  0.51890815864E+02  0.12700000000E+01 0. -1.
         -4   -1    0    0    0  501 -0.00000000000E+00 -0.00000000000E+00 -0.75273121718E+02  0.75283834608E+02  0.12700000000E+01 0. -1.
         25    2    1    2    0    0  0.00000000000E+00  0.00000000000E+00 -0.23397849468E+02  0.12717465047E+03  0.12500372940E+03 0.  0.
    9000005    1    3    3    0    0 -0.19574341058E+02 -0.88490126898E+01  0.48006063781E+02  0.52602680665E+02  0.10000000000E+01 0.  0.
    9000005    1    3    3    0    0  0.19574341058E+02  0.88490126898E+01 -0.71403913249E+02  0.74571969806E+02  0.10000000000E+01 0.  0.
<mgrwt>
<rscale>  0 0.12500373E+03</rscale>
<asrwt>0</asrwt>
<pdfrwt beam="1">  1        4 0.79828308E-02 0.12500373E+03</pdfrwt>
<pdfrwt beam="2">  1       -4 0.11582500E-01 0.12500373E+03</pdfrwt>
<totfact> 0.10404478E+04</totfact>
</mgrwt>
</event>
<event>
 5    1  0.3311405E-002  0.1250010E+03  0.7818608E-02  0.1235068E+00
         -4   -1    0    0    0  501 -0.00000000000E+00  0.00000000000E+00  0.51299119066E+02  0.51314837200E+02  0.12700000000E+01 0.  1.
          4   -1    0    0  501    0  0.00000000000E+00 -0.00000000000E+00 -0.76115014017E+02  0.76125608430E+02  0.12700000000E+01 0.  1.
         25    2    1    2    0    0  0.00000000000E+00  0.00000000000E+00 -0.24815894951E+02  0.12744044563E+03  0.12500095416E+03 0.  0.
    9000005    1    3    3    0    0  0.50504865709E+02  0.36788902076E+02 -0.11317085222E+02  0.63507804199E+02  0.10000000000E+01 0.  0.
    9000005    1    3    3    0    0 -0.50504865709E+02 -0.36788902076E+02 -0.13498809729E+02  0.63932641431E+02  0.10000000000E+01 0.  0.
<mgrwt>
<rscale>  0 0.12500095E+03</rscale>
<asrwt>0</asrwt>
<pdfrwt beam="2">  1        4 0.11712026E-01 0.12500095E+03</pdfrwt>
<pdfrwt beam="1">  1       -4 0.78941962E-02 0.12500095E+03</pdfrwt>
<totfact> 0.10399366E+04</totfact>
</mgrwt>
</event>
<event>
 5    1  0.3311405E-002  0.1250013E+03  0.7818608E-02  0.1235067E+00
          4   -1    0    0  501    0  0.00000000000E+00  0.00000000000E+00  0.54653232932E+02  0.54667986701E+02  0.12700000000E+01 0.  1.
         -4   -1    0    0    0  501 -0.00000000000E+00 -0.00000000000E+00 -0.71444758989E+02  0.71456045840E+02  0.12700000000E+01 0.  1.
         25    2    1    2    0    0  0.00000000000E+00  0.00000000000E+00 -0.16791526057E+02  0.12612403254E+03  0.12500126494E+03 0.  0.
    9000005    1    3    3    0    0  0.55774929622E+01 -0.60851578321E+02  0.48101911908E+01  0.61303841243E+02  0.10000000000E+01 0.  0.
    9000005    1    3    3    0    0 -0.55774929622E+01  0.60851578321E+02 -0.21601717248E+02  0.64820191298E+02  0.10000000000E+01 0.  0.
<mgrwt>
<rscale>  0 0.12500126E+03</rscale>
<asrwt>0</asrwt>
<pdfrwt beam="1">  1        4 0.84101928E-02 0.12500126E+03</pdfrwt>
<pdfrwt beam="2">  1       -4 0.10993505E-01 0.12500126E+03</pdfrwt>
<totfact> 0.10427943E+04</totfact>
</mgrwt>
</event>
<event>
 5    1  0.3311405E-002  0.1250000E+03  0.7818608E-02  0.1235069E+00
          4   -1    0    0  501    0  0.00000000000E+00  0.00000000000E+00  0.40108796019E+03  0.40108997084E+03  0.12700000000E+01 0.  1.
         -4   -1    0    0    0  501 -0.00000000000E+00 -0.00000000000E+00 -0.96956950516E+01  0.97785173996E+01  0.12700000000E+01 0.  1.
         25    2    1    2    0    0  0.00000000000E+00  0.00000000000E+00  0.39139226514E+03  0.41086848824E+03  0.12500003768E+03 0.  0.
    9000005    1    3    3    0    0 -0.51477764512E+02 -0.34690270384E+02  0.21937065296E+03  0.22798653135E+03  0.10000000000E+01 0.  0.
    9000005    1    3    3    0    0  0.51477764512E+02  0.34690270384E+02  0.17202161218E+03  0.18288195689E+03  0.10000000000E+01 0.  0.
<mgrwt>
<rscale>  0 0.12500004E+03</rscale>
<asrwt>0</asrwt>
<pdfrwt beam="1">  1        4 0.61712354E-01 0.12500004E+03</pdfrwt>
<pdfrwt beam="2">  1       -4 0.14981713E-02 0.12500004E+03</pdfrwt>
<totfact> 0.63509236E+03</totfact>
</mgrwt>
</event>
<event>
 5    1  0.3311405E-002  0.1250010E+03  0.7818608E-02  0.1235068E+00
         -4   -1    0    0    0  501 -0.00000000000E+00  0.00000000000E+00  0.30314322673E+02  0.30340913947E+02  0.12700000000E+01 0.  1.
          4   -1    0    0  501    0  0.00000000000E+00 -0.00000000000E+00 -0.12877398215E+03  0.12878024452E+03  0.12700000000E+01 0.  1.
         25    2    1    2    0    0  0.00000000000E+00  0.00000000000E+00 -0.98459659473E+02  0.15912115846E+03  0.12500095410E+03 0.  0.
    9000005    1    3    3    0    0  0.54437058349E+02  0.28387208627E+02 -0.34380185226E+02  0.70372040411E+02  0.10000000000E+01 0.  0.
    9000005    1    3    3    0    0 -0.54437058349E+02 -0.28387208627E+02 -0.64079474246E+02  0.88749118052E+02  0.10000000000E+01 0.  0.
<mgrwt>
<rscale>  0 0.12500095E+03</rscale>
<asrwt>0</asrwt>
<pdfrwt beam="2">  1        4 0.19813909E-01 0.12500095E+03</pdfrwt>
<pdfrwt beam="1">  1       -4 0.46662692E-02 0.12500095E+03</pdfrwt>
<totfact> 0.97510395E+03</totfact>
</mgrwt>
</event>
<event>
 5    1  0.3311405E-002  0.1250015E+03  0.7818608E-02  0.1235067E+00
          4   -1    0    0  501    0  0.00000000000E+00  0.00000000000E+00  0.10835276027E+02  0.10909450334E+02  0.12700000000E+01 0.  1.
         -4   -1    0    0    0  501 -0.00000000000E+00 -0.00000000000E+00 -0.35921596531E+03  0.35921821033E+03  0.12700000000E+01 0.  1.
         25    2    1    2    0    0  0.00000000000E+00  0.00000000000E+00 -0.34838068928E+03  0.37012766066E+03  0.12500152209E+03 0.  0.
    9000005    1    3    3    0    0  0.44814812743E+01 -0.59077304376E+02 -0.23304871076E+03  0.24046395396E+03  0.10000000000E+01 0.  0.
    9000005    1    3    3    0    0 -0.44814812743E+01  0.59077304376E+02 -0.11533197852E+03  0.12966370670E+03  0.10000000000E+01 0.  0.
<mgrwt>
<rscale>  0 0.12500152E+03</rscale>
<asrwt>0</asrwt>
<pdfrwt beam="1">  1        4 0.16728442E-02 0.12500152E+03</pdfrwt>
<pdfrwt beam="2">  1       -4 0.55269864E-01 0.12500152E+03</pdfrwt>
<totfact> 0.67563314E+03</totfact>
</mgrwt>
</event>
<event>
 5    1  0.3311405E-002  0.1249999E+03  0.7818608E-02  0.1235069E+00
          4   -1    0    0  501    0  0.00000000000E+00  0.00000000000E+00  0.13456237117E+04  0.13456243110E+04  0.12700000000E+01 0.  1.
         -4   -1    0    0    0  501 -0.00000000000E+00 -0.00000000000E+00 -0.27633914451E+01  0.30412550499E+01  0.12700000000E+01 0.  1.
         25    2    1    2    0    0  0.00000000000E+00  0.00000000000E+00  0.13428603202E+04  0.13486655661E+04  0.12499987747E+03 0.  0.
    9000005    1    3    3    0    0  0.87558787609E+01  0.12524856514E+02  0.13252055471E+04  0.13252940351E+04  0.10000000000E+01 0.  0.
    9000005    1    3    3    0    0 -0.87558787609E+01 -0.12524856514E+02  0.17654773138E+02  0.23371530932E+02  0.10000000000E+01 0.  0.
<mgrwt>
<rscale>  0 0.12499988E+03</rscale>
<asrwt>0</asrwt>
<pdfrwt beam="1">  1        4 0.20704106E+00 0.12499988E+03</pdfrwt>
<pdfrwt beam="2">  1       -4 0.44655607E-03 0.12499988E+03</pdfrwt>
<totfact> 0.21108169E+03</totfact>
</mgrwt>
</event>
<event>
 5    1  0.3311405E-002  0.1249991E+03  0.7818608E-02  0.1235071E+00
         -4   -1    0    0    0  501 -0.00000000000E+00  0.00000000000E+00  0.23873997142E+02  0.23907752707E+02  0.12700000000E+01 0.  1.
          4   -1    0    0  501    0  0.00000000000E+00 -0.00000000000E+00 -0.16346519702E+03  0.16347013041E+03  0.12700000000E+01 0.  1.
         25    2    1    2    0    0  0.00000000000E+00  0.00000000000E+00 -0.13959119988E+03  0.18737788312E+03  0.12499907199E+03 0.  0.
    9000005    1    3    3    0    0 -0.12776342996E+02 -0.61164863706E+02 -0.68441060918E+02  0.92679848469E+02  0.10000000000E+01 0.  0.
    9000005    1    3    3    0    0  0.12776342996E+02  0.61164863706E+02 -0.71150138957E+02  0.94698034648E+02  0.10000000000E+01 0.  0.
<mgrwt>
<rscale>  0 0.12499907E+03</rscale>
<asrwt>0</asrwt>
<pdfrwt beam="2">  1        4 0.25151467E-01 0.12499907E+03</pdfrwt>
<pdfrwt beam="1">  1       -4 0.36758988E-02 0.12499907E+03</pdfrwt>
<totfact> 0.92307486E+03</totfact>
</mgrwt>
</event>
<event>
 5    1  0.3311405E-002  0.1249980E+03  0.7818608E-02  0.1235072E+00
         -4   -1    0    0    0  501 -0.00000000000E+00  0.00000000000E+00  0.20871063876E+02  0.20909667795E+02  0.12700000000E+01 0. -1.
          4   -1    0    0  501    0  0.00000000000E+00 -0.00000000000E+00 -0.18694148543E+03  0.18694579929E+03  0.12700000000E+01 0. -1.
         25    2    1    2    0    0  0.00000000000E+00  0.00000000000E+00 -0.16607042155E+03  0.20785546709E+03  0.12499804112E+03 0.  0.
    9000005    1    3    3    0    0 -0.35079634423E+02 -0.39537031858E+02 -0.13847065936E+03  0.14821903098E+03  0.10000000000E+01 0.  0.
    9000005    1    3    3    0    0  0.35079634423E+02  0.39537031858E+02 -0.27599762187E+02  0.59636436112E+02  0.10000000000E+01 0.  0.
<mgrwt>
<rscale>  0 0.12499804E+03</rscale>
<asrwt>0</asrwt>
<pdfrwt beam="2">  1        4 0.28763529E-01 0.12499804E+03</pdfrwt>
<pdfrwt beam="1">  1       -4 0.32142344E-02 0.12499804E+03</pdfrwt>
<totfact> 0.88831204E+03</totfact>
</mgrwt>
</event>
<event>
 5    1  0.3311405E-002  0.1250000E+03  0.7818608E-02  0.1235069E+00
         -4   -1    0    0    0  501 -0.00000000000E+00  0.00000000000E+00  0.31350336659E+02  0.31376049920E+02  0.12700000000E+01 0. -1.
          4   -1    0    0  501    0  0.00000000000E+00 -0.00000000000E+00 -0.12451986142E+03  0.12452633773E+03  0.12700000000E+01 0. -1.
         25    2    1    2    0    0  0.00000000000E+00  0.00000000000E+00 -0.93169524765E+02  0.15590238765E+03  0.12499997652E+03 0.  0.
    9000005    1    3    3    0    0 -0.19152116179E+02  0.41045513044E+02 -0.10028346951E+03  0.11004231891E+03  0.10000000000E+01 0.  0.
    9000005    1    3    3    0    0  0.19152116179E+02 -0.41045513044E+02  0.71139447417E+01  0.45860068741E+02  0.10000000000E+01 0.  0.
<mgrwt>
<rscale>  0 0.12499998E+03</rscale>
<asrwt>0</asrwt>
<pdfrwt beam="2">  1        4 0.19159378E-01 0.12499998E+03</pdfrwt>
<pdfrwt beam="1">  1       -4 0.48256049E-02 0.12499998E+03</pdfrwt>
<totfact> 0.98138692E+03</totfact>
</mgrwt>
</event>
<event>
 5    1  0.3311405E-002  0.1249989E+03  0.7818608E-02  0.1235071E+00
         -4   -1    0    0    0  501 -0.00000000000E+00  0.00000000000E+00  0.10252952570E+03  0.10253739094E+03  0.12700000000E+01 0. -1.
          4   -1    0    0  501    0  0.00000000000E+00 -0.00000000000E+00 -0.38078208130E+02  0.38099381024E+02  0.12700000000E+01 0. -1.
         25    2    1    2    0    0  0.00000000000E+00  0.00000000000E+00  0.64451317569E+02  0.14063677196E+03  0.12499891716E+03 0.  0.
    9000005    1    3    3    0    0  0.62483080266E+02  0.92958096123E+00  0.31744510698E+02  0.70097884417E+02  0.10000000000E+01 0.  0.
    9000005    1    3    3    0    0 -0.62483080266E+02 -0.92958096123E+00  0.32706806871E+02  0.70538887544E+02  0.10000000000E+01 0.  0.
<mgrwt>
<rscale>  0 0.12499892E+03</rscale>
<asrwt>0</asrwt>
<pdfrwt beam="2">  1        4 0.58604196E-02 0.12499892E+03</pdfrwt>
<pdfrwt beam="1">  1       -4 0.15776007E-01 0.12499892E+03</pdfrwt>
<totfact> 0.10120652E+04</totfact>
</mgrwt>
</event>
<event>
 5    1  0.3311405E-002  0.1249991E+03  0.7818608E-02  0.1235071E+00
          4   -1    0    0  501    0  0.00000000000E+00  0.00000000000E+00  0.83401399723E+02  0.83411068664E+02  0.12700000000E+01 0.  1.
         -4   -1    0    0    0  501 -0.00000000000E+00 -0.00000000000E+00 -0.46815049214E+02  0.46832272344E+02  0.12700000000E+01 0.  1.
         25    2    1    2    0    0  0.00000000000E+00  0.00000000000E+00  0.36586350509E+02  0.13024334101E+03  0.12499906733E+03 0.  0.
    9000005    1    3    3    0    0 -0.27943956591E+02  0.54503387689E+02  0.31211214762E+02  0.68750446591E+02  0.10000000000E+01 0.  0.
    9000005    1    3    3    0    0  0.27943956591E+02 -0.54503387689E+02  0.53751357463E+01  0.61492894417E+02  0.10000000000E+01 0.  0.
<mgrwt>
<rscale>  0 0.12499907E+03</rscale>
<asrwt>0</asrwt>
<pdfrwt beam="1">  1        4 0.12833053E-01 0.12499907E+03</pdfrwt>
<pdfrwt beam="2">  1       -4 0.72043839E-02 0.12499907E+03</pdfrwt>
<totfact> 0.10339522E+04</totfact>
</mgrwt>
</event>
<event>
 5    1  0.3311405E-002  0.1250059E+03  0.7818608E-02  0.1235060E+00
          4   -1    0    0  501    0  0.00000000000E+00  0.00000000000E+00  0.25690746872E+03  0.25691060777E+03  0.12700000000E+01 0.  1.
         -4   -1    0    0    0  501 -0.00000000000E+00 -0.00000000000E+00 -0.15176561071E+02  0.15229606231E+02  0.12700000000E+01 0.  1.
         25    2    1    2    0    0  0.00000000000E+00  0.00000000000E+00  0.24173090765E+03  0.27214021400E+03  0.12500585732E+03 0.  0.
    9000005    1    3    3    0    0 -0.29807066453E+01  0.58254190249E+01  0.25617026638E+03  0.25625578139E+03  0.10000000000E+01 0.  0.
    9000005    1    3    3    0    0  0.29807066453E+01 -0.58254190249E+01 -0.14439358728E+02  0.15884432612E+02  0.10000000000E+01 0.  0.
<mgrwt>
<rscale>  0 0.12500586E+03</rscale>
<asrwt>0</asrwt>
<pdfrwt beam="1">  1        4 0.39528549E-01 0.12500586E+03</pdfrwt>
<pdfrwt beam="2">  1       -4 0.23391773E-02 0.12500586E+03</pdfrwt>
<totfact> 0.79221610E+03</totfact>
</mgrwt>
</event>
<event>
 5    1  0.3311405E-002  0.1249966E+03  0.7818608E-02  0.1235075E+00
         -4   -1    0    0    0  501 -0.00000000000E+00  0.00000000000E+00  0.11995336150E+03  0.11996008434E+03  0.12700000000E+01 0.  1.
          4   -1    0    0  501    0  0.00000000000E+00 -0.00000000000E+00 -0.32542921830E+02  0.32567693520E+02  0.12700000000E+01 0.  1.
         25    2    1    2    0    0  0.00000000000E+00  0.00000000000E+00  0.87410439667E+02  0.15252777786E+03  0.12499655218E+03 0.  0.
    9000005    1    3    3    0    0  0.70289932661E+01 -0.38051243860E+02  0.10358150612E+03  0.11057772070E+03  0.10000000000E+01 0.  0.
    9000005    1    3    3    0    0 -0.70289932661E+01  0.38051243860E+02 -0.16171066449E+02  0.41950057160E+02  0.10000000000E+01 0.  0.
<mgrwt>
<rscale>  0 0.12499655E+03</rscale>
<asrwt>0</asrwt>
<pdfrwt beam="2">  1        4 0.50090260E-02 0.12499655E+03</pdfrwt>
<pdfrwt beam="1">  1       -4 0.18456786E-01 0.12499655E+03</pdfrwt>
<totfact> 0.98809854E+03</totfact>
</mgrwt>
</event>
<event>
 5    1  0.3311405E-002  0.1249910E+03  0.7818608E-02  0.1235083E+00
          4   -1    0    0  501    0  0.00000000000E+00  0.00000000000E+00  0.64753955186E+02  0.64766408054E+02  0.12700000000E+01 0.  1.
         -4   -1    0    0    0  501 -0.00000000000E+00 -0.00000000000E+00 -0.60290835578E+02  0.60304210091E+02  0.12700000000E+01 0.  1.
         25    2    1    2    0    0  0.00000000000E+00  0.00000000000E+00  0.44631196083E+01  0.12507061814E+03  0.12499096002E+03 0.  0.
    9000005    1    3    3    0    0 -0.20744052688E+02 -0.17000395308E+02  0.58706485905E+02  0.64550605341E+02  0.10000000000E+01 0.  0.
    9000005    1    3    3    0    0  0.20744052688E+02  0.17000395308E+02 -0.54243366297E+02  0.60520012804E+02  0.10000000000E+01 0.  0.
<mgrwt>
<rscale>  0 0.12499096E+03</rscale>
<asrwt>0</asrwt>
<pdfrwt beam="1">  1        4 0.99641337E-02 0.12499096E+03</pdfrwt>
<pdfrwt beam="2">  1       -4 0.92774999E-02 0.12499096E+03</pdfrwt>
<totfact> 0.10453465E+04</totfact>
</mgrwt>
</event>
<event>
 5    1  0.3311405E-002  0.1249939E+03  0.7818608E-02  0.1235079E+00
          4   -1    0    0  501    0  0.00000000000E+00  0.00000000000E+00  0.33591005226E+03  0.33591245304E+03  0.12700000000E+01 0.  1.
         -4   -1    0    0    0  501 -0.00000000000E+00 -0.00000000000E+00 -0.11590601980E+02  0.11659972310E+02  0.12700000000E+01 0.  1.
         25    2    1    2    0    0  0.00000000000E+00  0.00000000000E+00  0.32431945028E+03  0.34757242535E+03  0.12499394000E+03 0.  0.
    9000005    1    3    3    0    0  0.10361654325E+02 -0.59392648867E+02  0.11646618181E+03  0.13114961733E+03  0.10000000000E+01 0.  0.
    9000005    1    3    3    0    0 -0.10361654325E+02  0.59392648867E+02  0.20785326847E+03  0.21642280803E+03  0.10000000000E+01 0.  0.
<mgrwt>
<rscale>  0 0.12499394E+03</rscale>
<asrwt>0</asrwt>
<pdfrwt beam="1">  1        4 0.51683992E-01 0.12499394E+03</pdfrwt>
<pdfrwt beam="2">  1       -4 0.17886903E-02 0.12499394E+03</pdfrwt>
<totfact> 0.70001832E+03</totfact>
</mgrwt>
</event>
<event>
 5    1  0.3311405E-002  0.1250062E+03  0.7818608E-02  0.1235060E+00
          4   -1    0    0  501    0  0.00000000000E+00  0.00000000000E+00  0.41123842976E+02  0.41143448581E+02  0.12700000000E+01 0. -1.
         -4   -1    0    0    0  501 -0.00000000000E+00 -0.00000000000E+00 -0.94950397528E+02  0.94958890530E+02  0.12700000000E+01 0. -1.
         25    2    1    2    0    0  0.00000000000E+00  0.00000000000E+00 -0.53826554551E+02  0.13610233911E+03  0.12500619479E+03 0.  0.
    9000005    1    3    3    0    0  0.14555926754E+02  0.27841115964E+02  0.31906571748E+02  0.44788749285E+02  0.10000000000E+01 0.  0.
    9000005    1    3    3    0    0 -0.14555926754E+02 -0.27841115964E+02 -0.85733126300E+02  0.91313589826E+02  0.10000000000E+01 0.  0.
<mgrwt>
<rscale>  0 0.12500619E+03</rscale>
<asrwt>0</asrwt>
<pdfrwt beam="1">  1        4 0.63289066E-02 0.12500619E+03</pdfrwt>
<pdfrwt beam="2">  1       -4 0.14609915E-01 0.12500619E+03</pdfrwt>
<totfact> 0.10213462E+04</totfact>
</mgrwt>
</event>
<event>
 5    1  0.3311405E-002  0.1249999E+03  0.7818608E-02  0.1235069E+00
          4   -1    0    0  501    0  0.00000000000E+00  0.00000000000E+00  0.40050671935E+02  0.40070802618E+02  0.12700000000E+01 0.  1.
         -4   -1    0    0    0  501 -0.00000000000E+00 -0.00000000000E+00 -0.97483796275E+02  0.97492068581E+02  0.12700000000E+01 0.  1.
         25    2    1    2    0    0  0.00000000000E+00  0.00000000000E+00 -0.57433124340E+02  0.13756287120E+03  0.12499991904E+03 0.  0.
    9000005    1    3    3    0    0 -0.13572593235E+02  0.23838250576E+02 -0.90509304582E+02  0.94580186580E+02  0.10000000000E+01 0.  0.
    9000005    1    3    3    0    0  0.13572593235E+02 -0.23838250576E+02  0.33076180242E+02  0.42982684619E+02  0.10000000000E+01 0.  0.
<mgrwt>
<rscale>  0 0.12499992E+03</rscale>
<asrwt>0</asrwt>
<pdfrwt beam="1">  1        4 0.61638267E-02 0.12499992E+03</pdfrwt>
<pdfrwt beam="2">  1       -4 0.14999692E-01 0.12499992E+03</pdfrwt>
<totfact> 0.10184349E+04</totfact>
</mgrwt>
</event>
<event>
 5    1  0.3311405E-002  0.1249994E+03  0.7818608E-02  0.1235070E+00
         -4   -1    0    0    0  501 -0.00000000000E+00  0.00000000000E+00  0.24647299400E+02  0.24679997320E+02  0.12700000000E+01 0. -1.
          4   -1    0    0  501    0  0.00000000000E+00 -0.00000000000E+00 -0.15834407110E+03  0.15834916404E+03  0.12700000000E+01 0. -1.
         25    2    1    2    0    0  0.00000000000E+00  0.00000000000E+00 -0.13369677169E+03  0.18302916136E+03  0.12499938858E+03 0.  0.
    9000005    1    3    3    0    0 -0.58546722459E+02  0.13818612180E+02 -0.91634263210E+02  0.10961984742E+03  0.10000000000E+01 0.  0.
    9000005    1    3    3    0    0  0.58546722459E+02 -0.13818612180E+02 -0.42062508485E+02  0.73409313941E+02  0.10000000000E+01 0.  0.
<mgrwt>
<rscale>  0 0.12499939E+03</rscale>
<asrwt>0</asrwt>
<pdfrwt beam="2">  1        4 0.24363533E-01 0.12499939E+03</pdfrwt>
<pdfrwt beam="1">  1       -4 0.37947993E-02 0.12499939E+03</pdfrwt>
<totfact> 0.93075845E+03</totfact>
</mgrwt>
</event>
<event>
 5    1  0.3311405E-002  0.1249997E+03  0.7818608E-02  0.1235070E+00
         -4   -1    0    0    0  501 -0.00000000000E+00  0.00000000000E+00  0.28388554952E+02  0.28416948328E+02  0.12700000000E+01 0. -1.
          4   -1    0    0  501    0  0.00000000000E+00 -0.00000000000E+00 -0.13749877723E+03  0.13750464225E+03  0.12700000000E+01 0. -1.
         25    2    1    2    0    0  0.00000000000E+00  0.00000000000E+00 -0.10911022228E+03  0.16592159058E+03  0.12499973446E+03 0.  0.
    9000005    1    3    3    0    0  0.18055056784E+02  0.53648938094E+02 -0.19409982291E+02  0.59849319517E+02  0.10000000000E+01 0.  0.
    9000005    1    3    3    0    0 -0.18055056784E+02 -0.53648938094E+02 -0.89700239988E+02  0.10607227106E+03  0.10000000000E+01 0.  0.
<mgrwt>
<rscale>  0 0.12499973E+03</rscale>
<asrwt>0</asrwt>
<pdfrwt beam="2">  1        4 0.21156293E-01 0.12499973E+03</pdfrwt>
<pdfrwt beam="1">  1       -4 0.43701054E-02 0.12499973E+03</pdfrwt>
<totfact> 0.96213716E+03</totfact>
</mgrwt>
</event>
<event>
 5    1  0.3311405E-002  0.1249923E+03  0.7818608E-02  0.1235081E+00
         -4   -1    0    0    0  501 -0.00000000000E+00  0.00000000000E+00  0.43316301960E+02  0.43334915663E+02  0.12700000000E+01 0. -1.
          4   -1    0    0  501    0  0.00000000000E+00 -0.00000000000E+00 -0.90126096372E+02  0.90135043947E+02  0.12700000000E+01 0. -1.
         25    2    1    2    0    0  0.00000000000E+00  0.00000000000E+00 -0.46809794413E+02  0.13346995961E+03  0.12499229282E+03 0.  0.
    9000005    1    3    3    0    0 -0.20765277355E+02 -0.17441338624E+02 -0.83520451157E+02  0.87818351147E+02  0.10000000000E+01 0.  0.
    9000005    1    3    3    0    0  0.20765277355E+02  0.17441338624E+02  0.36710656745E+02  0.45651608463E+02  0.10000000000E+01 0.  0.
<mgrwt>
<rscale>  0 0.12499229E+03</rscale>
<asrwt>0</asrwt>
<pdfrwt beam="2">  1        4 0.13867673E-01 0.12499229E+03</pdfrwt>
<pdfrwt beam="1">  1       -4 0.66661666E-02 0.12499229E+03</pdfrwt>
<totfact> 0.10272207E+04</totfact>
</mgrwt>
</event>
<event>
 5    1  0.3311405E-002  0.1250025E+03  0.7818608E-02  0.1235065E+00
         -4   -1    0    0    0  501 -0.00000000000E+00  0.00000000000E+00  0.29545049465E+02  0.29572332473E+02  0.12700000000E+01 0. -1.
          4   -1    0    0  501    0  0.00000000000E+00 -0.00000000000E+00 -0.13212719731E+03  0.13213330076E+03  0.12700000000E+01 0. -1.
         25    2    1    2    0    0  0.00000000000E+00  0.00000000000E+00 -0.10258214784E+03  0.16170563323E+03  0.12500245902E+03 0.  0.
    9000005    1    3    3    0    0 -0.31817380542E+02  0.53156703172E+02 -0.40668976326E+02  0.74114414469E+02  0.10000000000E+01 0.  0.
    9000005    1    3    3    0    0  0.31817380542E+02 -0.53156703172E+02 -0.61913171518E+02  0.87591218761E+02  0.10000000000E+01 0.  0.
<mgrwt>
<rscale>  0 0.12500246E+03</rscale>
<asrwt>0</asrwt>
<pdfrwt beam="2">  1        4 0.20329829E-01 0.12500246E+03</pdfrwt>
<pdfrwt beam="1">  1       -4 0.45479605E-02 0.12500246E+03</pdfrwt>
<totfact> 0.97009596E+03</totfact>
</mgrwt>
</event>
<event>
 5    1  0.3311405E-002  0.1250007E+03  0.7818608E-02  0.1235068E+00
          4   -1    0    0  501    0  0.00000000000E+00  0.00000000000E+00  0.12920228155E+04  0.12920234397E+04  0.12700000000E+01 0. -1.
         -4   -1    0    0    0  501 -0.00000000000E+00 -0.00000000000E+00 -0.28893752753E+01  0.31561668969E+01  0.12700000000E+01 0. -1.
         25    2    1    2    0    0  0.00000000000E+00  0.00000000000E+00  0.12891334403E+04  0.12951796066E+04  0.12500074631E+03 0.  0.
    9000005    1    3    3    0    0  0.16593183585E+02 -0.55137003829E+02  0.89621670728E+03  0.89806503625E+03  0.10000000000E+01 0.  0.
    9000005    1    3    3    0    0 -0.16593183585E+02  0.55137003829E+02  0.39291673300E+03  0.39711457037E+03  0.10000000000E+01 0.  0.
<mgrwt>
<rscale>  0 0.12500075E+03</rscale>
<asrwt>0</asrwt>
<pdfrwt beam="1">  1        4 0.19879344E+00 0.12500075E+03</pdfrwt>
<pdfrwt beam="2">  1       -4 0.46508942E-03 0.12500075E+03</pdfrwt>
<totfact> 0.22342186E+03</totfact>
</mgrwt>
</event>
<event>
 5    1  0.3311405E-002  0.1249976E+03  0.7818608E-02  0.1235073E+00
         -4   -1    0    0    0  501 -0.00000000000E+00  0.00000000000E+00  0.17676213571E+03  0.17676669799E+03  0.12700000000E+01 0. -1.
          4   -1    0    0  501    0  0.00000000000E+00 -0.00000000000E+00 -0.22074973924E+02  0.22111476065E+02  0.12700000000E+01 0. -1.
         25    2    1    2    0    0  0.00000000000E+00  0.00000000000E+00  0.15468716178E+03  0.19887817406E+03  0.12499764036E+03 0.  0.
    9000005    1    3    3    0    0  0.51485547233E+02 -0.35076992834E+02  0.85129277595E+02  0.10549479089E+03  0.10000000000E+01 0.  0.
    9000005    1    3    3    0    0 -0.51485547233E+02  0.35076992834E+02  0.69557884188E+02  0.93383383173E+02  0.10000000000E+01 0.  0.
<mgrwt>
<rscale>  0 0.12499764E+03</rscale>
<asrwt>0</asrwt>
<pdfrwt beam="2">  1        4 0.33993086E-02 0.12499764E+03</pdfrwt>
<pdfrwt beam="1">  1       -4 0.27197334E-01 0.12499764E+03</pdfrwt>
<totfact> 0.90329826E+03</totfact>
</mgrwt>
</event>
<event>
 5    1  0.3311405E-002  0.1250009E+03  0.7818608E-02  0.1235068E+00
          4   -1    0    0  501    0  0.00000000000E+00  0.00000000000E+00  0.87987909825E+01  0.88899731582E+01  0.12700000000E+01 0.  1.
         -4   -1    0    0    0  501 -0.00000000000E+00 -0.00000000000E+00 -0.44157902962E+03  0.44158085590E+03  0.12700000000E+01 0.  1.
         25    2    1    2    0    0  0.00000000000E+00  0.00000000000E+00 -0.43278023863E+03  0.45047082906E+03  0.12500093152E+03 0.  0.
    9000005    1    3    3    0    0 -0.25651177835E+02 -0.83201962686E+01 -0.13230599697E+02  0.30054240276E+02  0.10000000000E+01 0.  0.
    9000005    1    3    3    0    0  0.25651177835E+02  0.83201962686E+01 -0.41954963894E+03  0.42041658878E+03  0.10000000000E+01 0.  0.
<mgrwt>
<rscale>  0 0.12500093E+03</rscale>
<asrwt>0</asrwt>
<pdfrwt beam="1">  1        4 0.13608150E-02 0.12500093E+03</pdfrwt>
<pdfrwt beam="2">  1       -4 0.67942373E-01 0.12500093E+03</pdfrwt>
<totfact> 0.59921806E+03</totfact>
</mgrwt>
</event>
<event>
 5    1  0.3311405E-002  0.1249978E+03  0.7818608E-02  0.1235073E+00
          4   -1    0    0  501    0  0.00000000000E+00  0.00000000000E+00  0.35804660738E+03  0.35804885973E+03  0.12700000000E+01 0.  1.
         -4   -1    0    0    0  501 -0.00000000000E+00 -0.00000000000E+00 -0.10870253438E+02  0.10944190688E+02  0.12700000000E+01 0.  1.
         25    2    1    2    0    0  0.00000000000E+00  0.00000000000E+00  0.34717635394E+03  0.36899305042E+03  0.12499780207E+03 0.  0.
    9000005    1    3    3    0    0  0.29740474380E+02 -0.54947166052E+02  0.17711301034E+03  0.18781295298E+03  0.10000000000E+01 0.  0.
    9000005    1    3    3    0    0 -0.29740474380E+02  0.54947166052E+02  0.17006334360E+03  0.18118009744E+03  0.10000000000E+01 0.  0.
<mgrwt>
<rscale>  0 0.12499780E+03</rscale>
<asrwt>0</asrwt>
<pdfrwt beam="1">  1        4 0.55089944E-01 0.12499780E+03</pdfrwt>
<pdfrwt beam="2">  1       -4 0.16782077E-02 0.12499780E+03</pdfrwt>
<totfact> 0.67687708E+03</totfact>
</mgrwt>
</event>
<event>
 5    1  0.3311405E-002  0.1250017E+03  0.7818608E-02  0.1235067E+00
          4   -1    0    0  501    0  0.00000000000E+00  0.00000000000E+00  0.72446247384E+02  0.72457378231E+02  0.12700000000E+01 0. -1.
         -4   -1    0    0    0  501 -0.00000000000E+00 -0.00000000000E+00 -0.53897965126E+02  0.53912925581E+02  0.12700000000E+01 0. -1.
         25    2    1    2    0    0  0.00000000000E+00  0.00000000000E+00  0.18548282259E+02  0.12637030381E+03  0.12500165963E+03 0.  0.
    9000005    1    3    3    0    0 -0.91932721308E+01 -0.53333748843E+02 -0.22314557083E+02  0.58548650505E+02  0.10000000000E+01 0.  0.
    9000005    1    3    3    0    0  0.91932721308E+01  0.53333748843E+02  0.40862839342E+02  0.67821653307E+02  0.10000000000E+01 0.  0.
<mgrwt>
<rscale>  0 0.12500166E+03</rscale>
<asrwt>0</asrwt>
<pdfrwt beam="1">  1        4 0.11147584E-01 0.12500166E+03</pdfrwt>
<pdfrwt beam="2">  1       -4 0.82940016E-02 0.12500166E+03</pdfrwt>
<totfact> 0.10422467E+04</totfact>
</mgrwt>
</event>
<event>
 5    1  0.3311405E-002  0.1250010E+03  0.7818608E-02  0.1235068E+00
          4   -1    0    0  501    0  0.00000000000E+00  0.00000000000E+00  0.21372843464E+03  0.21373220785E+03  0.12700000000E+01 0.  1.
         -4   -1    0    0    0  501 -0.00000000000E+00 -0.00000000000E+00 -0.18251001805E+02  0.18295135061E+02  0.12700000000E+01 0.  1.
         25    2    1    2    0    0  0.00000000000E+00  0.00000000000E+00  0.19547743283E+03  0.23202734291E+03  0.12500104444E+03 0.  0.
    9000005    1    3    3    0    0  0.10199429004E+02  0.34792720520E+02  0.32590015864E+01  0.36416793441E+02  0.10000000000E+01 0.  0.
    9000005    1    3    3    0    0 -0.10199429004E+02 -0.34792720520E+02  0.19221843125E+03  0.19561054947E+03  0.10000000000E+01 0.  0.
<mgrwt>
<rscale>  0 0.12500104E+03</rscale>
<asrwt>0</asrwt>
<pdfrwt beam="1">  1        4 0.32884982E-01 0.12500104E+03</pdfrwt>
<pdfrwt beam="2">  1       -4 0.28115316E-02 0.12500104E+03</pdfrwt>
<totfact> 0.84997285E+03</totfact>
</mgrwt>
</event>
<event>
 5    1  0.3311405E-002  0.1249993E+03  0.7818608E-02  0.1235070E+00
         -4   -1    0    0    0  501 -0.00000000000E+00  0.00000000000E+00  0.35056617965E+03  0.35056848007E+03  0.12700000000E+01 0. -1.
          4   -1    0    0  501    0  0.00000000000E+00 -0.00000000000E+00 -0.11104033069E+02  0.11176423865E+02  0.12700000000E+01 0. -1.
         25    2    1    2    0    0  0.00000000000E+00  0.00000000000E+00  0.33946214658E+03  0.36174490393E+03  0.12499930623E+03 0.  0.
    9000005    1    3    3    0    0  0.22607985540E+02  0.23058992675E+02  0.14900190491E+02  0.35578839639E+02  0.10000000000E+01 0.  0.
    9000005    1    3    3    0    0 -0.22607985540E+02 -0.23058992675E+02  0.32456195609E+03  0.32616606429E+03  0.10000000000E+01 0.  0.
<mgrwt>
<rscale>  0 0.12499931E+03</rscale>
<asrwt>0</asrwt>
<pdfrwt beam="2">  1        4 0.17140584E-02 0.12499931E+03</pdfrwt>
<pdfrwt beam="1">  1       -4 0.53939000E-01 0.12499931E+03</pdfrwt>
<totfact> 0.68452561E+03</totfact>
</mgrwt>
</event>
<event>
 5    1  0.3311405E-002  0.1250022E+03  0.7818608E-02  0.1235066E+00
         -4   -1    0    0    0  501 -0.00000000000E+00  0.00000000000E+00  0.53280868046E+02  0.53296001724E+02  0.12700000000E+01 0. -1.
          4   -1    0    0  501    0  0.00000000000E+00 -0.00000000000E+00 -0.73285867020E+02  0.73296870362E+02  0.12700000000E+01 0. -1.
         25    2    1    2    0    0  0.00000000000E+00  0.00000000000E+00 -0.20004998974E+02  0.12659287209E+03  0.12500222110E+03 0.  0.
    9000005    1    3    3    0    0  0.34639461119E+02  0.21117727065E+02 -0.58141975976E+02  0.70903737796E+02  0.10000000000E+01 0.  0.
    9000005    1    3    3    0    0 -0.34639461119E+02 -0.21117727065E+02  0.38136977002E+02  0.55689134289E+02  0.10000000000E+01 0.  0.
<mgrwt>
<rscale>  0 0.12500222E+03</rscale>
<asrwt>0</asrwt>
<pdfrwt beam="2">  1        4 0.11276759E-01 0.12500222E+03</pdfrwt>
<pdfrwt beam="1">  1       -4 0.81990672E-02 0.12500222E+03</pdfrwt>
<totfact> 0.10417481E+04</totfact>
</mgrwt>
</event>
<event>
 5    1  0.3311405E-002  0.1250017E+03  0.7818608E-02  0.1235067E+00
          4   -1    0    0  501    0  0.00000000000E+00  0.00000000000E+00  0.14327770667E+04  0.14327776295E+04  0.12700000000E+01 0. -1.
         -4   -1    0    0    0  501 -0.00000000000E+00 -0.00000000000E+00 -0.25779332905E+01  0.28737849694E+01  0.12700000000E+01 0. -1.
         25    2    1    2    0    0  0.00000000000E+00  0.00000000000E+00  0.14301991334E+04  0.14356514145E+04  0.12500169130E+03 0.  0.
    9000005    1    3    3    0    0 -0.50922000742E+02  0.20600666383E+01  0.29971799581E+03  0.30402166213E+03  0.10000000000E+01 0.  0.
    9000005    1    3    3    0    0  0.50922000742E+02 -0.20600666383E+01  0.11304811376E+04  0.11316297524E+04  0.10000000000E+01 0.  0.
<mgrwt>
<rscale>  0 0.12500169E+03</rscale>
<asrwt>0</asrwt>
<pdfrwt beam="1">  1        4 0.22044977E+00 0.12500169E+03</pdfrwt>
<pdfrwt beam="2">  1       -4 0.41940675E-03 0.12500169E+03</pdfrwt>
<totfact> 0.19227885E+03</totfact>
</mgrwt>
</event>
<event>
 5    1  0.3311405E-002  0.1250001E+03  0.7818608E-02  0.1235069E+00
         -4   -1    0    0    0  501 -0.00000000000E+00  0.00000000000E+00  0.25115165304E+02  0.25147254885E+02  0.12700000000E+01 0. -1.
          4   -1    0    0  501    0  0.00000000000E+00 -0.00000000000E+00 -0.15539972407E+03  0.15540491351E+03  0.12700000000E+01 0. -1.
         25    2    1    2    0    0  0.00000000000E+00  0.00000000000E+00 -0.13028455877E+03  0.18055216839E+03  0.12500007703E+03 0.  0.
    9000005    1    3    3    0    0 -0.58274192738E+02 -0.22509897679E+02 -0.62778646656E+02  0.88570511508E+02  0.10000000000E+01 0.  0.
    9000005    1    3    3    0    0  0.58274192738E+02  0.22509897679E+02 -0.67505912115E+02  0.91981656885E+02  0.10000000000E+01 0.  0.
<mgrwt>
<rscale>  0 0.12500008E+03</rscale>
<asrwt>0</asrwt>
<pdfrwt beam="2">  1        4 0.23910517E-01 0.12500008E+03</pdfrwt>
<pdfrwt beam="1">  1       -4 0.38667393E-02 0.12500008E+03</pdfrwt>
<totfact> 0.93517544E+03</totfact>
</mgrwt>
</event>
<event>
 5    1  0.3311405E-002  0.1249953E+03  0.7818608E-02  0.1235077E+00
         -4   -1    0    0    0  501 -0.00000000000E+00  0.00000000000E+00  0.56841383932E+03  0.56841525809E+03  0.12700000000E+01 0. -1.
          4   -1    0    0  501    0  0.00000000000E+00 -0.00000000000E+00 -0.68115621821E+01  0.69289450395E+01  0.12700000000E+01 0. -1.
         25    2    1    2    0    0  0.00000000000E+00  0.00000000000E+00  0.56160227714E+03  0.57534420313E+03  0.12499533747E+03 0.  0.
    9000005    1    3    3    0    0 -0.17455738914E+02  0.20269484704E+02  0.54075045495E+03  0.54141260547E+03  0.10000000000E+01 0.  0.
    9000005    1    3    3    0    0  0.17455738914E+02 -0.20269484704E+02  0.20851822182E+02  0.33931597657E+02  0.10000000000E+01 0.  0.
<mgrwt>
<rscale>  0 0.12499534E+03</rscale>
<asrwt>0</asrwt>
<pdfrwt beam="2">  1        4 0.10570710E-02 0.12499534E+03</pdfrwt>
<pdfrwt beam="1">  1       -4 0.87457438E-01 0.12499534E+03</pdfrwt>
<totfact> 0.50467037E+03</totfact>
</mgrwt>
</event>
<event>
 5    1  0.3311405E-002  0.1249996E+03  0.7818608E-02  0.1235070E+00
          4   -1    0    0  501    0  0.00000000000E+00  0.00000000000E+00  0.49377333783E+02  0.49393663475E+02  0.12700000000E+01 0.  1.
         -4   -1    0    0    0  501 -0.00000000000E+00 -0.00000000000E+00 -0.79075138644E+02  0.79085336514E+02  0.12700000000E+01 0.  1.
         25    2    1    2    0    0  0.00000000000E+00  0.00000000000E+00 -0.29697804861E+02  0.12847899999E+03  0.12499957530E+03 0.  0.
    9000005    1    3    3    0    0  0.55639494835E+02  0.17946722538E+02  0.78424190143E+01  0.58994421528E+02  0.10000000000E+01 0.  0.
    9000005    1    3    3    0    0 -0.55639494835E+02 -0.17946722538E+02 -0.37540223875E+02  0.69484578462E+02  0.10000000000E+01 0.  0.
<mgrwt>
<rscale>  0 0.12499958E+03</rscale>
<asrwt>0</asrwt>
<pdfrwt beam="1">  1        4 0.75985534E-02 0.12499958E+03</pdfrwt>
<pdfrwt beam="2">  1       -4 0.12167447E-01 0.12499958E+03</pdfrwt>
<totfact> 0.10377256E+04</totfact>
</mgrwt>
</event>
<event>
 5    1  0.3311405E-002  0.1250010E+03  0.7818608E-02  0.1235068E+00
         -4   -1    0    0    0  501 -0.00000000000E+00  0.00000000000E+00  0.55568410073E+02  0.55582920921E+02  0.12700000000E+01 0.  1.
          4   -1    0    0  501    0  0.00000000000E+00 -0.00000000000E+00 -0.70267938861E+02  0.70279414708E+02  0.12700000000E+01 0.  1.
         25    2    1    2    0    0  0.00000000000E+00  0.00000000000E+00 -0.14699528787E+02  0.12586233563E+03  0.12500100553E+03 0.  0.
    9000005    1    3    3    0    0 -0.59629155592E+02  0.53076411792E+01 -0.25403893645E+02  0.65039719124E+02  0.10000000000E+01 0.  0.
    9000005    1    3    3    0    0  0.59629155592E+02 -0.53076411792E+01  0.10704364858E+02  0.60822616505E+02  0.10000000000E+01 0.  0.
<mgrwt>
<rscale>  0 0.12500101E+03</rscale>
<asrwt>0</asrwt>
<pdfrwt beam="2">  1        4 0.10812451E-01 0.12500101E+03</pdfrwt>
<pdfrwt beam="1">  1       -4 0.85509851E-02 0.12500101E+03</pdfrwt>
<totfact> 0.10433740E+04</totfact>
</mgrwt>
</event>
<event>
 5    1  0.3311405E-002  0.1250037E+03  0.7818608E-02  0.1235063E+00
         -4   -1    0    0    0  501 -0.00000000000E+00  0.00000000000E+00  0.67359194158E+02  0.67371165477E+02  0.12700000000E+01 0.  1.
          4   -1    0    0  501    0  0.00000000000E+00 -0.00000000000E+00 -0.57970727485E+02  0.57984637147E+02  0.12700000000E+01 0.  1.
         25    2    1    2    0    0  0.00000000000E+00  0.00000000000E+00  0.93884666738E+01  0.12535580262E+03  0.12500373572E+03 0.  0.
    9000005    1    3    3    0    0  0.10490981562E+02  0.39246797925E+02  0.52315996809E+02  0.66244511951E+02  0.10000000000E+01 0.  0.
    9000005    1    3    3    0    0 -0.10490981562E+02 -0.39246797925E+02 -0.42927530135E+02  0.59111290673E+02  0.10000000000E+01 0.  0.
<mgrwt>
<rscale>  0 0.12500374E+03</rscale>
<asrwt>0</asrwt>
<pdfrwt beam="2">  1        4 0.89205643E-02 0.12500374E+03</pdfrwt>
<pdfrwt beam="1">  1       -4 0.10364944E-01 0.12500374E+03</pdfrwt>
<totfact> 0.10444258E+04</totfact>
</mgrwt>
</event>
<event>
 5    1  0.3311405E-002  0.1249920E+03  0.7818608E-02  0.1235082E+00
         -4   -1    0    0    0  501 -0.00000000000E+00  0.00000000000E+00  0.76440230264E+02  0.76450779609E+02  0.12700000000E+01 0. -1.
          4   -1    0    0  501    0  0.00000000000E+00 -0.00000000000E+00 -0.51073471796E+02  0.51089259354E+02  0.12700000000E+01 0. -1.
         25    2    1    2    0    0  0.00000000000E+00  0.00000000000E+00  0.25366758468E+02  0.12754003896E+03  0.12499195615E+03 0.  0.
    9000005    1    3    3    0    0 -0.37514478416E+02  0.49925467960E+02  0.10434166605E+02  0.63322667936E+02  0.10000000000E+01 0.  0.
    9000005    1    3    3    0    0  0.37514478416E+02 -0.49925467960E+02  0.14932591862E+02  0.64217371026E+02  0.10000000000E+01 0.  0.
<mgrwt>
<rscale>  0 0.12499196E+03</rscale>
<asrwt>0</asrwt>
<pdfrwt beam="2">  1        4 0.78594832E-02 0.12499196E+03</pdfrwt>
<pdfrwt beam="1">  1       -4 0.11762061E-01 0.12499196E+03</pdfrwt>
<totfact> 0.10399322E+04</totfact>
</mgrwt>
</event>
<event>
 5    1  0.3311405E-002  0.1250059E+03  0.7818608E-02  0.1235060E+00
         -4   -1    0    0    0  501 -0.00000000000E+00  0.00000000000E+00  0.14090909082E+03  0.14091481390E+03  0.12700000000E+01 0. -1.
          4   -1    0    0  501    0  0.00000000000E+00 -0.00000000000E+00 -0.27703549268E+02  0.27732643979E+02  0.12700000000E+01 0. -1.
         25    2    1    2    0    0  0.00000000000E+00  0.00000000000E+00  0.11320554156E+03  0.16864745788E+03  0.12500588150E+03 0.  0.
    9000005    1    3    3    0    0 -0.25398464054E+02 -0.50102514685E+02  0.19648962707E+02  0.59518280297E+02  0.10000000000E+01 0.  0.
    9000005    1    3    3    0    0  0.25398464054E+02  0.50102514685E+02  0.93556578848E+02  0.10912917758E+03  0.10000000000E+01 0.  0.
<mgrwt>
<rscale>  0 0.12500588E+03</rscale>
<asrwt>0</asrwt>
<pdfrwt beam="2">  1        4 0.42647627E-02 0.12500588E+03</pdfrwt>
<pdfrwt beam="1">  1       -4 0.21681000E-01 0.12500588E+03</pdfrwt>
<totfact> 0.95688407E+03</totfact>
</mgrwt>
</event>
<event>
 5    1  0.3311405E-002  0.1249962E+03  0.7818608E-02  0.1235075E+00
          4   -1    0    0  501    0  0.00000000000E+00  0.00000000000E+00  0.12010320796E+03  0.12010992241E+03  0.12700000000E+01 0. -1.
         -4   -1    0    0    0  501 -0.00000000000E+00 -0.00000000000E+00 -0.32502090011E+02  0.32526892798E+02  0.12700000000E+01 0. -1.
         25    2    1    2    0    0  0.00000000000E+00  0.00000000000E+00  0.87601117948E+02  0.15263681521E+03  0.12499616591E+03 0.  0.
    9000005    1    3    3    0    0  0.20738035608E+02  0.36501803654E+02 -0.12722982161E+02  0.43878492065E+02  0.10000000000E+01 0.  0.
    9000005    1    3    3    0    0 -0.20738035608E+02 -0.36501803654E+02  0.10032410011E+03  0.10875832315E+03  0.10000000000E+01 0.  0.
<mgrwt>
<rscale>  0 0.12499617E+03</rscale>
<asrwt>0</asrwt>
<pdfrwt beam="1">  1        4 0.18479841E-01 0.12499617E+03</pdfrwt>
<pdfrwt beam="2">  1       -4 0.50027459E-02 0.12499617E+03</pdfrwt>
<totfact> 0.98789183E+03</totfact>
</mgrwt>
</event>
<event>
 5    1  0.3311405E-002  0.1250018E+03  0.7818608E-02  0.1235066E+00
          4   -1    0    0  501    0  0.00000000000E+00  0.00000000000E+00  0.11820940934E+03  0.11821623136E+03  0.12700000000E+01 0.  1.
         -4   -1    0    0    0  501 -0.00000000000E+00 -0.00000000000E+00 -0.33026137615E+02  0.33050547133E+02  0.12700000000E+01 0.  1.
         25    2    1    2    0    0  0.00000000000E+00  0.00000000000E+00  0.85183271729E+02  0.15126677850E+03  0.12500179396E+03 0.  0.
    9000005    1    3    3    0    0 -0.69329733715E+01  0.43337519057E+02 -0.11243679924E+02  0.45316961681E+02  0.10000000000E+01 0.  0.
    9000005    1    3    3    0    0  0.69329733715E+01 -0.43337519057E+02  0.96426951653E+02  0.10594981681E+03  0.10000000000E+01 0.  0.
<mgrwt>
<rscale>  0 0.12500179E+03</rscale>
<asrwt>0</asrwt>
<pdfrwt beam="1">  1        4 0.18188465E-01 0.12500179E+03</pdfrwt>
<pdfrwt beam="2">  1       -4 0.50833468E-02 0.12500179E+03</pdfrwt>
<totfact> 0.99047784E+03</totfact>
</mgrwt>
</event>
<event>
 5    1  0.3311405E-002  0.1249987E+03  0.7818608E-02  0.1235071E+00
          4   -1    0    0  501    0  0.00000000000E+00  0.00000000000E+00  0.14841055321E+03  0.14841598703E+03  0.12700000000E+01 0.  1.
         -4   -1    0    0    0  501 -0.00000000000E+00 -0.00000000000E+00 -0.26298784178E+02  0.26329431237E+02  0.12700000000E+01 0.  1.
         25    2    1    2    0    0  0.00000000000E+00  0.00000000000E+00  0.12211176904E+03  0.17474541826E+03  0.12499870826E+03 0.  0.
    9000005    1    3    3    0    0 -0.35947514735E+02 -0.50905855361E+02  0.67543968761E+02  0.91906570177E+02  0.10000000000E+01 0.  0.
    9000005    1    3    3    0    0  0.35947514735E+02  0.50905855361E+02  0.54567800276E+02  0.82838848088E+02  0.10000000000E+01 0.  0.
<mgrwt>
<rscale>  0 0.12499871E+03</rscale>
<asrwt>0</asrwt>
<pdfrwt beam="1">  1        4 0.22835168E-01 0.12499871E+03</pdfrwt>
<pdfrwt beam="2">  1       -4 0.40487423E-02 0.12499871E+03</pdfrwt>
<totfact> 0.94574228E+03</totfact>
</mgrwt>
</event>
<event>
 5    1  0.3311405E-002  0.1250036E+03  0.7818608E-02  0.1235064E+00
          4   -1    0    0  501    0  0.00000000000E+00  0.00000000000E+00  0.45921964911E+02  0.45939522867E+02  0.12700000000E+01 0.  1.
         -4   -1    0    0    0  501 -0.00000000000E+00 -0.00000000000E+00 -0.85029094077E+02  0.85038577949E+02  0.12700000000E+01 0.  1.
         25    2    1    2    0    0  0.00000000000E+00  0.00000000000E+00 -0.39107129167E+02  0.13097810082E+03  0.12500358132E+03 0.  0.
    9000005    1    3    3    0    0 -0.48552509597E+02  0.38614940589E+02 -0.11641915261E+02  0.63126809010E+02  0.10000000000E+01 0.  0.
    9000005    1    3    3    0    0  0.48552509597E+02 -0.38614940589E+02 -0.27465213906E+02  0.67851291806E+02  0.10000000000E+01 0.  0.
<mgrwt>
<rscale>  0 0.12500358E+03</rscale>
<asrwt>0</asrwt>
<pdfrwt beam="1">  1        4 0.70669979E-02 0.12500358E+03</pdfrwt>
<pdfrwt beam="2">  1       -4 0.13083479E-01 0.12500358E+03</pdfrwt>
<totfact> 0.10322725E+04</totfact>
</mgrwt>
</event>
<event>
 5    1  0.3311405E-002  0.1250241E+03  0.7818608E-02  0.1235032E+00
         -4   -1    0    0    0  501 -0.00000000000E+00  0.00000000000E+00  0.81688573867E+02  0.81698445520E+02  0.12700000000E+01 0.  1.
          4   -1    0    0  501    0  0.00000000000E+00 -0.00000000000E+00 -0.47816063770E+02  0.47832926468E+02  0.12700000000E+01 0.  1.
         25    2    1    2    0    0  0.00000000000E+00  0.00000000000E+00  0.33872510097E+02  0.12953137199E+03  0.12502411523E+03 0.  0.
    9000005    1    3    3    0    0 -0.42321345037E+02 -0.14882361399E+02 -0.28154902961E+02  0.52974328568E+02  0.10000000000E+01 0.  0.
    9000005    1    3    3    0    0  0.42321345037E+02  0.14882361399E+02  0.62027413058E+02  0.76557043420E+02  0.10000000000E+01 0.  0.
<mgrwt>
<rscale>  0 0.12502412E+03</rscale>
<asrwt>0</asrwt>
<pdfrwt beam="2">  1        4 0.73583740E-02 0.12502412E+03</pdfrwt>
<pdfrwt beam="1">  1       -4 0.12569529E-01 0.12502412E+03</pdfrwt>
<totfact> 0.10348908E+04</totfact>
</mgrwt>
</event>
<event>
 5    1  0.3311405E-002  0.1249914E+03  0.7818608E-02  0.1235083E+00
         -4   -1    0    0    0  501 -0.00000000000E+00  0.00000000000E+00  0.74761474472E+03  0.74761582342E+03  0.12700000000E+01 0.  1.
          4   -1    0    0  501    0  0.00000000000E+00 -0.00000000000E+00 -0.51459485922E+01  0.53003478106E+01  0.12700000000E+01 0.  1.
         25    2    1    2    0    0  0.00000000000E+00  0.00000000000E+00  0.74246879613E+03  0.75291617123E+03  0.12499139039E+03 0.  0.
    9000005    1    3    3    0    0 -0.52382179996E+02  0.25189123036E+01  0.57590649786E+03  0.57829017974E+03  0.10000000000E+01 0.  0.
    9000005    1    3    3    0    0  0.52382179996E+02 -0.25189123036E+01  0.16656229826E+03  0.17462599149E+03  0.10000000000E+01 0.  0.
<mgrwt>
<rscale>  0 0.12499139E+03</rscale>
<asrwt>0</asrwt>
<pdfrwt beam="2">  1        4 0.80364452E-03 0.12499139E+03</pdfrwt>
<pdfrwt beam="1">  1       -4 0.11502957E+00 0.12499139E+03</pdfrwt>
<totfact> 0.40442666E+03</totfact>
</mgrwt>
</event>
<event>
 5    1  0.3311405E-002  0.1250013E+03  0.7818608E-02  0.1235067E+00
         -4   -1    0    0    0  501 -0.00000000000E+00  0.00000000000E+00  0.66866608987E+02  0.66878668478E+02  0.12700000000E+01 0. -1.
          4   -1    0    0  501    0  0.00000000000E+00 -0.00000000000E+00 -0.58395544150E+02  0.58409352647E+02  0.12700000000E+01 0. -1.
         25    2    1    2    0    0  0.00000000000E+00  0.00000000000E+00  0.84710648362E+01  0.12528802112E+03  0.12500131718E+03 0.  0.
    9000005    1    3    3    0    0 -0.46773101152E+02 -0.23355988170E+02 -0.30079042078E+02  0.60323908586E+02  0.10000000000E+01 0.  0.
    9000005    1    3    3    0    0  0.46773101152E+02  0.23355988170E+02  0.38550106914E+02  0.64964112538E+02  0.10000000000E+01 0.  0.
<mgrwt>
<rscale>  0 0.12500132E+03</rscale>
<asrwt>0</asrwt>
<pdfrwt beam="2">  1        4 0.89859198E-02 0.12500132E+03</pdfrwt>
<pdfrwt beam="1">  1       -4 0.10289160E-01 0.12500132E+03</pdfrwt>
<totfact> 0.10446299E+04</totfact>
</mgrwt>
</event>
<event>
 5    1  0.3311405E-002  0.1250015E+03  0.7818608E-02  0.1235067E+00
         -4   -1    0    0    0  501 -0.00000000000E+00  0.00000000000E+00  0.44952750154E+03  0.44952929553E+03  0.12700000000E+01 0. -1.
          4   -1    0    0  501    0  0.00000000000E+00 -0.00000000000E+00 -0.86416619524E+01  0.87344846041E+01  0.12700000000E+01 0. -1.
         25    2    1    2    0    0  0.00000000000E+00  0.00000000000E+00  0.44088583959E+03  0.45826378014E+03  0.12500147453E+03 0.  0.
    9000005    1    3    3    0    0 -0.46657911549E+02 -0.37283436467E+01  0.37224115520E+03  0.37517374493E+03  0.10000000000E+01 0.  0.
    9000005    1    3    3    0    0  0.46657911549E+02  0.37283436467E+01  0.68644684386E+02  0.83090035208E+02  0.10000000000E+01 0.  0.
<mgrwt>
<rscale>  0 0.12500147E+03</rscale>
<asrwt>0</asrwt>
<pdfrwt beam="2">  1        4 0.13367649E-02 0.12500147E+03</pdfrwt>
<pdfrwt beam="1">  1       -4 0.69165344E-01 0.12500147E+03</pdfrwt>
<totfact> 0.59252611E+03</totfact>
</mgrwt>
</event>
<event>
 5    1  0.3311405E-002  0.1249711E+03  0.7818608E-02  0.1235115E+00
         -4   -1    0    0    0  501 -0.00000000000E+00  0.00000000000E+00  0.21815835128E+04  0.21815838825E+04  0.12700000000E+01 0.  1.
          4   -1    0    0  501    0  0.00000000000E+00 -0.00000000000E+00 -0.15640122321E+01  0.20147045099E+01  0.12700000000E+01 0.  1.
         25    2    1    2    0    0  0.00000000000E+00  0.00000000000E+00  0.21800195006E+04  0.21835985870E+04  0.12497106134E+03 0.  0.
    9000005    1    3    3    0    0 -0.40269475835E+02  0.44171649027E+02  0.77227488793E+03  0.77458522306E+03  0.10000000000E+01 0.  0.
    9000005    1    3    3    0    0  0.40269475835E+02 -0.44171649027E+02  0.14077446126E+04  0.14090133639E+04  0.10000000000E+01 0.  0.
<mgrwt>
<rscale>  0 0.12497106E+03</rscale>
<asrwt>0</asrwt>
<pdfrwt beam="2">  1        4 0.27531340E-03 0.12497106E+03</pdfrwt>
<pdfrwt beam="1">  1       -4 0.33566407E+00 0.12497106E+03</pdfrwt>
<totfact> 0.76560036E+02</totfact>
</mgrwt>
</event>
<event>
 5    1  0.3311405E-002  0.1250077E+03  0.7818608E-02  0.1235057E+00
          4   -1    0    0  501    0  0.00000000000E+00  0.00000000000E+00  0.45929853779E+03  0.45930029362E+03  0.12700000000E+01 0.  1.
         -4   -1    0    0    0  501 -0.00000000000E+00 -0.00000000000E+00 -0.84566740410E+01  0.85515048872E+01  0.12700000000E+01 0.  1.
         25    2    1    2    0    0  0.00000000000E+00  0.00000000000E+00  0.45084186375E+03  0.46785179850E+03  0.12500767678E+03 0.  0.
    9000005    1    3    3    0    0 -0.51136197777E+02 -0.32053789833E+02  0.16468331067E+03  0.17539654780E+03  0.10000000000E+01 0.  0.
    9000005    1    3    3    0    0  0.51136197777E+02  0.32053789833E+02  0.28615855308E+03  0.29245525071E+03  0.10000000000E+01 0.  0.
<mgrwt>
<rscale>  0 0.12500768E+03</rscale>
<asrwt>0</asrwt>
<pdfrwt beam="1">  1        4 0.70668738E-01 0.12500768E+03</pdfrwt>
<pdfrwt beam="2">  1       -4 0.13084566E-02 0.12500768E+03</pdfrwt>
<totfact> 0.58438024E+03</totfact>
</mgrwt>
</event>
<event>
 5    1  0.3311405E-002  0.1250014E+03  0.7818608E-02  0.1235067E+00
          4   -1    0    0  501    0  0.00000000000E+00  0.00000000000E+00  0.17477674479E+01  0.21604608425E+01  0.12700000000E+01 0. -1.
         -4   -1    0    0    0  501 -0.00000000000E+00 -0.00000000000E+00 -0.19986183243E+04  0.19986187278E+04  0.12700000000E+01 0. -1.
         25    2    1    2    0    0  0.00000000000E+00  0.00000000000E+00 -0.19968705569E+04  0.20007791887E+04  0.12500136358E+03 0.  0.
    9000005    1    3    3    0    0  0.39253886243E+02 -0.32748594339E+02 -0.15737628647E+04  0.15745932466E+04  0.10000000000E+01 0.  0.
    9000005    1    3    3    0    0 -0.39253886243E+02  0.32748594339E+02 -0.42310769220E+03  0.42618594206E+03  0.10000000000E+01 0.  0.
<mgrwt>
<rscale>  0 0.12500136E+03</rscale>
<asrwt>0</asrwt>
<pdfrwt beam="1">  1        4 0.30066558E-03 0.12500136E+03</pdfrwt>
<pdfrwt beam="2">  1       -4 0.30750989E+00 0.12500136E+03</pdfrwt>
<totfact> 0.98508786E+02</totfact>
</mgrwt>
</event>
<event>
 5    1  0.3311405E-002  0.1250052E+03  0.7818608E-02  0.1235061E+00
          4   -1    0    0  501    0  0.00000000000E+00  0.00000000000E+00  0.14344710147E+03  0.14345272329E+03  0.12700000000E+01 0. -1.
         -4   -1    0    0    0  501 -0.00000000000E+00 -0.00000000000E+00 -0.27212603139E+02  0.27242222186E+02  0.12700000000E+01 0. -1.
         25    2    1    2    0    0  0.00000000000E+00  0.00000000000E+00  0.11623449833E+03  0.17069494548E+03  0.12500522313E+03 0.  0.
    9000005    1    3    3    0    0  0.66827890077E+01  0.54862739863E+02  0.18283021295E+02  0.58222407730E+02  0.10000000000E+01 0.  0.
    9000005    1    3    3    0    0 -0.66827890077E+01 -0.54862739863E+02  0.97951477034E+02  0.11247253775E+03  0.10000000000E+01 0.  0.
<mgrwt>
<rscale>  0 0.12500522E+03</rscale>
<asrwt>0</asrwt>
<pdfrwt beam="1">  1        4 0.22071495E-01 0.12500522E+03</pdfrwt>
<pdfrwt beam="2">  1       -4 0.41892653E-02 0.12500522E+03</pdfrwt>
<totfact> 0.95308094E+03</totfact>
</mgrwt>
</event>
<event>
 4    1  0.3311405E-002  0.1247608E+03  0.7818608E-02  0.1235444E+00
         -4   -1    0    0    0  501 -0.00000000000E+00  0.00000000000E+00  0.12470916438E+03  0.12471563086E+03  0.12700000000E+01 0.  1.
          4   -1    0    0  501    0  0.00000000000E+00 -0.00000000000E+00 -0.31182889701E+02  0.31208740925E+02  0.12700000000E+01 0.  1.
    9000005    1    1    2    0    0  0.27807202522E+02 -0.38575309096E+02 -0.36796115716E+01  0.47705707471E+02  0.10000000000E+01 0.  0.
    9000005    1    1    2    0    0 -0.27807202522E+02  0.38575309096E+02  0.97205886249E+02  0.10821866431E+03  0.10000000000E+01 0.  0.
<mgrwt>
<rscale>  0 0.12476075E+03</rscale>
<asrwt>0</asrwt>
<pdfrwt beam="2">  1        4 0.47998537E-02 0.12476075E+03</pdfrwt>
<pdfrwt beam="1">  1       -4 0.19188511E-01 0.12476075E+03</pdfrwt>
<totfact> 0.98664178E+03</totfact>
</mgrwt>
</event>
<event>
 5    1  0.3311405E-002  0.1249997E+03  0.7818608E-02  0.1235070E+00
         -4   -1    0    0    0  501 -0.00000000000E+00  0.00000000000E+00  0.67829875626E+02  0.67841763888E+02  0.12700000000E+01 0.  1.
          4   -1    0    0  501    0  0.00000000000E+00 -0.00000000000E+00 -0.57564722132E+02  0.57578729876E+02  0.12700000000E+01 0.  1.
         25    2    1    2    0    0  0.00000000000E+00  0.00000000000E+00  0.10265153494E+02  0.12542049376E+03  0.12499970752E+03 0.  0.
    9000005    1    3    3    0    0  0.48156699306E+02 -0.37067163402E+02  0.19748336030E+02  0.63906486890E+02  0.10000000000E+01 0.  0.
    9000005    1    3    3    0    0 -0.48156699306E+02  0.37067163402E+02 -0.94831825362E+01  0.61514006874E+02  0.10000000000E+01 0.  0.
<mgrwt>
<rscale>  0 0.12499971E+03</rscale>
<asrwt>0</asrwt>
<pdfrwt beam="2">  1        4 0.88581031E-02 0.12499971E+03</pdfrwt>
<pdfrwt beam="1">  1       -4 0.10437357E-01 0.12499971E+03</pdfrwt>
<totfact> 0.10443782E+04</totfact>
</mgrwt>
</event>
<event>
 5    1  0.3311405E-002  0.1249952E+03  0.7818608E-02  0.1235077E+00
         -4   -1    0    0    0  501 -0.00000000000E+00  0.00000000000E+00  0.31333007444E+02  0.31358734915E+02  0.12700000000E+01 0.  1.
          4   -1    0    0  501    0  0.00000000000E+00 -0.00000000000E+00 -0.12457907021E+03  0.12458554344E+03  0.12700000000E+01 0.  1.
         25    2    1    2    0    0  0.00000000000E+00  0.00000000000E+00 -0.93246062767E+02  0.15594427836E+03  0.12499515883E+03 0.  0.
    9000005    1    3    3    0    0 -0.16113980455E+02 -0.30561013289E+02  0.18339952239E+02  0.39127864081E+02  0.10000000000E+01 0.  0.
    9000005    1    3    3    0    0  0.16113980455E+02  0.30561013289E+02 -0.11158601501E+03  0.11681641428E+03  0.10000000000E+01 0.  0.
<mgrwt>
<rscale>  0 0.12499516E+03</rscale>
<asrwt>0</asrwt>
<pdfrwt beam="2">  1        4 0.19168488E-01 0.12499516E+03</pdfrwt>
<pdfrwt beam="1">  1       -4 0.48229397E-02 0.12499516E+03</pdfrwt>
<totfact> 0.98141127E+03</totfact>
</mgrwt>
</event>
<event>
 5    1  0.3311405E-002  0.1250121E+03  0.7818608E-02  0.1235050E+00
         -4   -1    0    0    0  501 -0.00000000000E+00  0.00000000000E+00  0.11408305367E+03  0.11409012243E+03  0.12700000000E+01 0.  1.
          4   -1    0    0  501    0  0.00000000000E+00 -0.00000000000E+00 -0.34227118725E+02  0.34250672347E+02  0.12700000000E+01 0.  1.
         25    2    1    2    0    0  0.00000000000E+00  0.00000000000E+00  0.79855934949E+02  0.14834079477E+03  0.12501208361E+03 0.  0.
    9000005    1    3    3    0    0  0.47005379670E+02 -0.24074862588E+02  0.27133272255E+00  0.52822138806E+02  0.10000000000E+01 0.  0.
    9000005    1    3    3    0    0 -0.47005379670E+02  0.24074862588E+02  0.79584602227E+02  0.95518655969E+02  0.10000000000E+01 0.  0.
<mgrwt>
<rscale>  0 0.12501208E+03</rscale>
<asrwt>0</asrwt>
<pdfrwt beam="2">  1        4 0.52680662E-02 0.12501208E+03</pdfrwt>
<pdfrwt beam="1">  1       -4 0.17553594E-01 0.12501208E+03</pdfrwt>
<totfact> 0.99608373E+03</totfact>
</mgrwt>
</event>
<event>
 5    1  0.3311405E-002  0.1250044E+03  0.7818608E-02  0.1235062E+00
          4   -1    0    0  501    0  0.00000000000E+00  0.00000000000E+00  0.36210230973E+03  0.36210453685E+03  0.12700000000E+01 0.  1.
         -4   -1    0    0    0  501 -0.00000000000E+00 -0.00000000000E+00 -0.10748814465E+02  0.10823581311E+02  0.12700000000E+01 0.  1.
         25    2    1    2    0    0  0.00000000000E+00  0.00000000000E+00  0.35135349526E+03  0.37292811816E+03  0.12500441066E+03 0.  0.
    9000005    1    3    3    0    0  0.41471925031E+02 -0.46733131867E+02  0.17188019798E+03  0.18288714727E+03  0.10000000000E+01 0.  0.
    9000005    1    3    3    0    0 -0.41471925031E+02  0.46733131867E+02  0.17947329729E+03  0.19004097089E+03  0.10000000000E+01 0.  0.
<mgrwt>
<rscale>  0 0.12500441E+03</rscale>
<asrwt>0</asrwt>
<pdfrwt beam="1">  1        4 0.55713956E-01 0.12500441E+03</pdfrwt>
<pdfrwt beam="2">  1       -4 0.16595868E-02 0.12500441E+03</pdfrwt>
<totfact> 0.67267159E+03</totfact>
</mgrwt>
</event>
<event>
 5    1  0.3311405E-002  0.1249978E+03  0.7818608E-02  0.1235073E+00
          4   -1    0    0  501    0  0.00000000000E+00  0.00000000000E+00  0.46239958682E+01  0.47952307337E+01  0.12700000000E+01 0.  1.
         -4   -1    0    0    0  501 -0.00000000000E+00 -0.00000000000E+00 -0.82922016240E+03  0.82922113494E+03  0.12700000000E+01 0.  1.
         25    2    1    2    0    0  0.00000000000E+00  0.00000000000E+00 -0.82459616653E+03  0.83401636567E+03  0.12499784139E+03 0.  0.
    9000005    1    3    3    0    0 -0.27081203519E+02  0.14841802322E+02 -0.49813647830E+02  0.58618002272E+02  0.10000000000E+01 0.  0.
    9000005    1    3    3    0    0  0.27081203519E+02 -0.14841802322E+02 -0.77478251870E+03  0.77539836340E+03  0.10000000000E+01 0.  0.
<mgrwt>
<rscale>  0 0.12499784E+03</rscale>
<asrwt>0</asrwt>
<pdfrwt beam="1">  1        4 0.72463136E-03 0.12499784E+03</pdfrwt>
<pdfrwt beam="2">  1       -4 0.12758546E+00 0.12499784E+03</pdfrwt>
<totfact> 0.36792228E+03</totfact>
</mgrwt>
</event>
<event>
 5    1  0.3311405E-002  0.1250157E+03  0.7818608E-02  0.1235045E+00
          4   -1    0    0  501    0  0.00000000000E+00  0.00000000000E+00  0.17265615418E+02  0.17312260851E+02  0.12700000000E+01 0. -1.
         -4   -1    0    0    0  501 -0.00000000000E+00 -0.00000000000E+00 -0.22594773618E+03  0.22595130534E+03  0.12700000000E+01 0. -1.
         25    2    1    2    0    0  0.00000000000E+00  0.00000000000E+00 -0.20868212076E+03  0.24326356619E+03  0.12501573945E+03 0.  0.
    9000005    1    3    3    0    0 -0.21735385206E+02  0.56486295011E+02 -0.74001479721E+02  0.95605164583E+02  0.10000000000E+01 0.  0.
    9000005    1    3    3    0    0  0.21735385206E+02 -0.56486295011E+02 -0.13468064104E+03  0.14765840160E+03  0.10000000000E+01 0.  0.
<mgrwt>
<rscale>  0 0.12501574E+03</rscale>
<asrwt>0</asrwt>
<pdfrwt beam="1">  1        4 0.26601113E-02 0.12501574E+03</pdfrwt>
<pdfrwt beam="2">  1       -4 0.34765051E-01 0.12501574E+03</pdfrwt>
<totfact> 0.83284487E+03</totfact>
</mgrwt>
</event>
<event>
 5    1  0.3311405E-002  0.1250027E+03  0.7818608E-02  0.1235065E+00
         -4   -1    0    0    0  501 -0.00000000000E+00  0.00000000000E+00  0.17838323103E+02  0.17883474806E+02  0.12700000000E+01 0.  1.
          4   -1    0    0  501    0  0.00000000000E+00 -0.00000000000E+00 -0.21866654333E+03  0.21867023133E+03  0.12700000000E+01 0.  1.
         25    2    1    2    0    0  0.00000000000E+00  0.00000000000E+00 -0.20082822023E+03  0.23655370614E+03  0.12500272737E+03 0.  0.
    9000005    1    3    3    0    0 -0.16650972113E+00  0.70222833722E+01 -0.21792640319E+03  0.21804187074E+03  0.10000000000E+01 0.  0.
    9000005    1    3    3    0    0  0.16650972113E+00 -0.70222833722E+01  0.17098182962E+02  0.18511835399E+02  0.10000000000E+01 0.  0.
<mgrwt>
<rscale>  0 0.12500273E+03</rscale>
<asrwt>0</asrwt>
<pdfrwt beam="2">  1        4 0.33644762E-01 0.12500273E+03</pdfrwt>
<pdfrwt beam="1">  1       -4 0.27481145E-02 0.12500273E+03</pdfrwt>
<totfact> 0.84308197E+03</totfact>
</mgrwt>
</event>
<event>
 5    1  0.3311405E-002  0.1250153E+03  0.7818608E-02  0.1235045E+00
          4   -1    0    0  501    0  0.00000000000E+00  0.00000000000E+00  0.11676078509E+03  0.11676769174E+03  0.12700000000E+01 0. -1.
         -4   -1    0    0    0  501 -0.00000000000E+00 -0.00000000000E+00 -0.33443382564E+02  0.33467487765E+02  0.12700000000E+01 0. -1.
         25    2    1    2    0    0  0.00000000000E+00  0.00000000000E+00  0.83317402523E+02  0.15023517950E+03  0.12501527746E+03 0.  0.
    9000005    1    3    3    0    0  0.15109105342E+02  0.23824423786E+02 -0.25362291234E+02  0.37949098140E+02  0.10000000000E+01 0.  0.
    9000005    1    3    3    0    0 -0.15109105342E+02 -0.23824423786E+02  0.10867969376E+03  0.11228608136E+03  0.10000000000E+01 0.  0.
<mgrwt>
<rscale>  0 0.12501528E+03</rscale>
<asrwt>0</asrwt>
<pdfrwt beam="1">  1        4 0.17965584E-01 0.12501528E+03</pdfrwt>
<pdfrwt beam="2">  1       -4 0.51475212E-02 0.12501528E+03</pdfrwt>
<totfact> 0.99222720E+03</totfact>
</mgrwt>
</event>
<event>
 5    1  0.3311405E-002  0.1249985E+03  0.7818608E-02  0.1235072E+00
         -4   -1    0    0    0  501 -0.00000000000E+00  0.00000000000E+00  0.74177567968E+02  0.74188439057E+02  0.12700000000E+01 0. -1.
          4   -1    0    0  501    0  0.00000000000E+00 -0.00000000000E+00 -0.52637160022E+02  0.52652478718E+02  0.12700000000E+01 0. -1.
         25    2    1    2    0    0  0.00000000000E+00  0.00000000000E+00  0.21540407947E+02  0.12684091778E+03  0.12499851698E+03 0.  0.
    9000005    1    3    3    0    0 -0.14006771316E+02  0.43611193523E+02 -0.32365547979E+02  0.56095049150E+02  0.10000000000E+01 0.  0.
    9000005    1    3    3    0    0  0.14006771316E+02 -0.43611193523E+02  0.53905955926E+02  0.70745868625E+02  0.10000000000E+01 0.  0.
<mgrwt>
<rscale>  0 0.12499852E+03</rscale>
<asrwt>0</asrwt>
<pdfrwt beam="2">  1        4 0.81000392E-02 0.12499852E+03</pdfrwt>
<pdfrwt beam="1">  1       -4 0.11413948E-01 0.12499852E+03</pdfrwt>
<totfact> 0.10412952E+04</totfact>
</mgrwt>
</event>
<event>
 5    1  0.3311405E-002  0.1249995E+03  0.7818608E-02  0.1235070E+00
         -4   -1    0    0    0  501 -0.00000000000E+00  0.00000000000E+00  0.33535325005E+03  0.33535565482E+03  0.12700000000E+01 0. -1.
          4   -1    0    0  501    0  0.00000000000E+00 -0.00000000000E+00 -0.11611005673E+02  0.11680254824E+02  0.12700000000E+01 0. -1.
         25    2    1    2    0    0  0.00000000000E+00  0.00000000000E+00  0.32374224438E+03  0.34703590964E+03  0.12499952715E+03 0.  0.
    9000005    1    3    3    0    0 -0.61693720215E+02  0.47068340405E+01  0.13751695348E+03  0.15079848108E+03  0.10000000000E+01 0.  0.
    9000005    1    3    3    0    0  0.61693720215E+02 -0.47068340405E+01  0.18622529089E+03  0.19623742856E+03  0.10000000000E+01 0.  0.
<mgrwt>
<rscale>  0 0.12499953E+03</rscale>
<asrwt>0</asrwt>
<pdfrwt beam="2">  1        4 0.17918206E-02 0.12499953E+03</pdfrwt>
<pdfrwt beam="1">  1       -4 0.51598314E-01 0.12499953E+03</pdfrwt>
<totfact> 0.70052613E+03</totfact>
</mgrwt>
</event>
<event>
 5    1  0.3311405E-002  0.1250009E+03  0.7818608E-02  0.1235068E+00
         -4   -1    0    0    0  501 -0.00000000000E+00  0.00000000000E+00  0.28049004868E+02  0.28077741613E+02  0.12700000000E+01 0.  1.
          4   -1    0    0  501    0  0.00000000000E+00 -0.00000000000E+00 -0.13916434093E+03  0.13917013576E+03  0.12700000000E+01 0.  1.
         25    2    1    2    0    0  0.00000000000E+00  0.00000000000E+00 -0.11111533607E+03  0.16724787737E+03  0.12500093830E+03 0.  0.
    9000005    1    3    3    0    0  0.10176399512E+02 -0.40608358877E+01 -0.13787573253E+03  0.13831401634E+03  0.10000000000E+01 0.  0.
    9000005    1    3    3    0    0 -0.10176399512E+02  0.40608358877E+01  0.26760396466E+02  0.28933861031E+02  0.10000000000E+01 0.  0.
<mgrwt>
<rscale>  0 0.12500094E+03</rscale>
<asrwt>0</asrwt>
<pdfrwt beam="2">  1        4 0.21412554E-01 0.12500094E+03</pdfrwt>
<pdfrwt beam="1">  1       -4 0.43178879E-02 0.12500094E+03</pdfrwt>
<totfact> 0.95961344E+03</totfact>
</mgrwt>
</event>
<event>
 5    1  0.3311405E-002  0.1249949E+03  0.7818608E-02  0.1235077E+00
          4   -1    0    0  501    0  0.00000000000E+00  0.00000000000E+00  0.75682127730E+01  0.76740305302E+01  0.12700000000E+01 0.  1.
         -4   -1    0    0    0  501 -0.00000000000E+00 -0.00000000000E+00 -0.51240740591E+03  0.51240897975E+03  0.12700000000E+01 0.  1.
         25    2    1    2    0    0  0.00000000000E+00  0.00000000000E+00 -0.50483919313E+03  0.52008301028E+03  0.12499490653E+03 0.  0.
    9000005    1    3    3    0    0  0.59249739118E+02 -0.19829141770E+02 -0.24785173740E+03  0.25560753154E+03  0.10000000000E+01 0.  0.
    9000005    1    3    3    0    0 -0.59249739118E+02  0.19829141770E+02 -0.25698745573E+03  0.26447547873E+03  0.10000000000E+01 0.  0.
<mgrwt>
<rscale>  0 0.12499491E+03</rscale>
<asrwt>0</asrwt>
<pdfrwt beam="1">  1        4 0.11726017E-02 0.12499491E+03</pdfrwt>
<pdfrwt beam="2">  1       -4 0.78840143E-01 0.12499491E+03</pdfrwt>
<totfact> 0.54345253E+03</totfact>
</mgrwt>
</event>
<event>
 5    1  0.3311405E-002  0.1249982E+03  0.7818608E-02  0.1235072E+00
          4   -1    0    0  501    0  0.00000000000E+00  0.00000000000E+00  0.47395557059E+02  0.47412569314E+02  0.12700000000E+01 0.  1.
         -4   -1    0    0    0  501 -0.00000000000E+00 -0.00000000000E+00 -0.82378936998E+02  0.82388725933E+02  0.12700000000E+01 0.  1.
         25    2    1    2    0    0  0.00000000000E+00  0.00000000000E+00 -0.34983379939E+02  0.12980129525E+03  0.12499815749E+03 0.  0.
    9000005    1    3    3    0    0  0.21501545225E+02 -0.12888001781E+02 -0.76933898288E+02  0.80921207003E+02  0.10000000000E+01 0.  0.
    9000005    1    3    3    0    0 -0.21501545225E+02  0.12888001781E+02  0.41950518350E+02  0.48880088245E+02  0.10000000000E+01 0.  0.
<mgrwt>
<rscale>  0 0.12499816E+03</rscale>
<asrwt>0</asrwt>
<pdfrwt beam="1">  1        4 0.72936858E-02 0.12499816E+03</pdfrwt>
<pdfrwt beam="2">  1       -4 0.12675744E-01 0.12499816E+03</pdfrwt>
<totfact> 0.10349190E+04</totfact>
</mgrwt>
</event>
<event>
 5    1  0.3311405E-002  0.1250031E+03  0.7818608E-02  0.1235064E+00
          4   -1    0    0  501    0  0.00000000000E+00  0.00000000000E+00  0.62314519277E+02  0.62327459540E+02  0.12700000000E+01 0.  1.
         -4   -1    0    0    0  501 -0.00000000000E+00 -0.00000000000E+00 -0.62663305630E+02  0.62676173882E+02  0.12700000000E+01 0.  1.
         25    2    1    2    0    0  0.00000000000E+00  0.00000000000E+00 -0.34878635381E+00  0.12500363342E+03  0.12500314683E+03 0.  0.
    9000005    1    3    3    0    0  0.39316059649E+02 -0.39699501294E+02 -0.28168139458E+02  0.62579925134E+02  0.10000000000E+01 0.  0.
    9000005    1    3    3    0    0 -0.39316059649E+02  0.39699501294E+02  0.27819353104E+02  0.62423708288E+02  0.10000000000E+01 0.  0.
<mgrwt>
<rscale>  0 0.12500315E+03</rscale>
<asrwt>0</asrwt>
<pdfrwt beam="1">  1        4 0.95888344E-02 0.12500315E+03</pdfrwt>
<pdfrwt beam="2">  1       -4 0.96424938E-02 0.12500315E+03</pdfrwt>
<totfact> 0.10452040E+04</totfact>
</mgrwt>
</event>
<event>
 5    1  0.3311405E-002  0.1249988E+03  0.7818608E-02  0.1235071E+00
          4   -1    0    0  501    0  0.00000000000E+00  0.00000000000E+00  0.94692518009E+02  0.94701034138E+02  0.12700000000E+01 0.  1.
         -4   -1    0    0    0  501 -0.00000000000E+00 -0.00000000000E+00 -0.41231013492E+02  0.41250568161E+02  0.12700000000E+01 0.  1.
         25    2    1    2    0    0  0.00000000000E+00  0.00000000000E+00  0.53461504516E+02  0.13595160230E+03  0.12499882280E+03 0.  0.
    9000005    1    3    3    0    0  0.12061177283E+02 -0.48168434495E+02  0.67996070562E+02  0.84202943482E+02  0.10000000000E+01 0.  0.
    9000005    1    3    3    0    0 -0.12061177283E+02  0.48168434495E+02 -0.14534566046E+02  0.51748658817E+02  0.10000000000E+01 0.  0.
<mgrwt>
<rscale>  0 0.12499882E+03</rscale>
<asrwt>0</asrwt>
<pdfrwt beam="1">  1        4 0.14570239E-01 0.12499882E+03</pdfrwt>
<pdfrwt beam="2">  1       -4 0.63453922E-02 0.12499882E+03</pdfrwt>
<totfact> 0.10218324E+04</totfact>
</mgrwt>
</event>
<event>
 5    1  0.3311405E-002  0.1249995E+03  0.7818608E-02  0.1235070E+00
         -4   -1    0    0    0  501 -0.00000000000E+00  0.00000000000E+00  0.35813009323E+02  0.35835520602E+02  0.12700000000E+01 0. -1.
          4   -1    0    0  501    0  0.00000000000E+00 -0.00000000000E+00 -0.10901218963E+03  0.10901958718E+03  0.12700000000E+01 0. -1.
         25    2    1    2    0    0  0.00000000000E+00  0.00000000000E+00 -0.73199180307E+02  0.14485510778E+03  0.12499952901E+03 0.  0.
    9000005    1    3    3    0    0 -0.24605141206E+02  0.10380798369E+02  0.28873079461E+02  0.39342453738E+02  0.10000000000E+01 0.  0.
    9000005    1    3    3    0    0  0.24605141206E+02 -0.10380798369E+02 -0.10207225977E+03  0.10551265404E+03  0.10000000000E+01 0.  0.
<mgrwt>
<rscale>  0 0.12499953E+03</rscale>
<asrwt>0</asrwt>
<pdfrwt beam="2">  1        4 0.16773407E-01 0.12499953E+03</pdfrwt>
<pdfrwt beam="1">  1       -4 0.55119945E-02 0.12499953E+03</pdfrwt>
<totfact> 0.10034040E+04</totfact>
</mgrwt>
</event>
<event>
 5    1  0.3311405E-002  0.1250131E+03  0.7818608E-02  0.1235049E+00
          4   -1    0    0  501    0  0.00000000000E+00  0.00000000000E+00  0.26906865409E+02  0.26936820639E+02  0.12700000000E+01 0.  1.
         -4   -1    0    0    0  501 -0.00000000000E+00 -0.00000000000E+00 -0.14509352262E+03  0.14509908066E+03  0.12700000000E+01 0.  1.
         25    2    1    2    0    0  0.00000000000E+00  0.00000000000E+00 -0.11818665721E+03  0.17203590129E+03  0.12501306088E+03 0.  0.
    9000005    1    3    3    0    0  0.13007285615E+02  0.52649370805E+01  0.24717729652E+02  0.28440731366E+02  0.10000000000E+01 0.  0.
    9000005    1    3    3    0    0 -0.13007285615E+02 -0.52649370805E+01 -0.14290438686E+03  0.14359516993E+03  0.10000000000E+01 0.  0.
<mgrwt>
<rscale>  0 0.12501306E+03</rscale>
<asrwt>0</asrwt>
<pdfrwt beam="1">  1        4 0.41422496E-02 0.12501306E+03</pdfrwt>
<pdfrwt beam="2">  1       -4 0.22324812E-01 0.12501306E+03</pdfrwt>
<totfact> 0.95042670E+03</totfact>
</mgrwt>
</event>
<event>
 5    1  0.3311405E-002  0.1250028E+03  0.7818608E-02  0.1235065E+00
         -4   -1    0    0    0  501 -0.00000000000E+00  0.00000000000E+00  0.17143482576E+02  0.17190459413E+02  0.12700000000E+01 0.  1.
          4   -1    0    0  501    0  0.00000000000E+00 -0.00000000000E+00 -0.22750583048E+03  0.22750937519E+03  0.12700000000E+01 0.  1.
         25    2    1    2    0    0  0.00000000000E+00  0.00000000000E+00 -0.21036234790E+03  0.24469983461E+03  0.12500276654E+03 0.  0.
    9000005    1    3    3    0    0  0.38256636649E+02  0.16226222494E+02 -0.13812136545E+02  0.43802233505E+02  0.10000000000E+01 0.  0.
    9000005    1    3    3    0    0 -0.38256636649E+02 -0.16226222494E+02 -0.19655021136E+03  0.20089760110E+03  0.10000000000E+01 0.  0.
<mgrwt>
<rscale>  0 0.12500277E+03</rscale>
<asrwt>0</asrwt>
<pdfrwt beam="2">  1        4 0.35004781E-01 0.12500277E+03</pdfrwt>
<pdfrwt beam="1">  1       -4 0.26413453E-02 0.12500277E+03</pdfrwt>
<totfact> 0.83097230E+03</totfact>
</mgrwt>
</event>
<event>
 5    1  0.3311405E-002  0.1249991E+03  0.7818608E-02  0.1235071E+00
          4   -1    0    0  501    0  0.00000000000E+00  0.00000000000E+00  0.14458584916E+04  0.14458590494E+04  0.12700000000E+01 0. -1.
         -4   -1    0    0    0  501 -0.00000000000E+00 -0.00000000000E+00 -0.25518005531E+01  0.28503659524E+01  0.12700000000E+01 0. -1.
         25    2    1    2    0    0  0.00000000000E+00  0.00000000000E+00  0.14433066911E+04  0.14487094153E+04  0.12499906244E+03 0.  0.
    9000005    1    3    3    0    0  0.27618887448E+02 -0.47141511385E+02  0.37010577269E+03  0.37411817387E+03  0.10000000000E+01 0.  0.
    9000005    1    3    3    0    0 -0.27618887448E+02  0.47141511385E+02  0.10732009184E+04  0.10745912415E+04  0.10000000000E+01 0.  0.
<mgrwt>
<rscale>  0 0.12499906E+03</rscale>
<asrwt>0</asrwt>
<pdfrwt beam="1">  1        4 0.22246275E+00 0.12499906E+03</pdfrwt>
<pdfrwt beam="2">  1       -4 0.41559423E-03 0.12499906E+03</pdfrwt>
<totfact> 0.18959572E+03</totfact>
</mgrwt>
</event>
<event>
 5    1  0.3311405E-002  0.1250037E+03  0.7818608E-02  0.1235063E+00
          4   -1    0    0  501    0  0.00000000000E+00  0.00000000000E+00  0.69898033375E+01  0.71042417397E+01  0.12700000000E+01 0. -1.
         -4   -1    0    0    0  501 -0.00000000000E+00 -0.00000000000E+00 -0.55423009681E+03  0.55423155189E+03  0.12700000000E+01 0. -1.
         25    2    1    2    0    0  0.00000000000E+00  0.00000000000E+00 -0.54724029347E+03  0.56133579363E+03  0.12500373758E+03 0.  0.
    9000005    1    3    3    0    0  0.50560150059E+02  0.27395721851E+02 -0.16375025285E+03  0.17355690611E+03  0.10000000000E+01 0.  0.
    9000005    1    3    3    0    0 -0.50560150059E+02 -0.27395721851E+02 -0.38349004062E+03  0.38777888751E+03  0.10000000000E+01 0.  0.
<mgrwt>
<rscale>  0 0.12500374E+03</rscale>
<asrwt>0</asrwt>
<pdfrwt beam="1">  1        4 0.10842697E-02 0.12500374E+03</pdfrwt>
<pdfrwt beam="2">  1       -4 0.85275049E-01 0.12500374E+03</pdfrwt>
<totfact> 0.51398642E+03</totfact>
</mgrwt>
</event>
<event>
 5    1  0.3311405E-002  0.1249989E+03  0.7818608E-02  0.1235071E+00
          4   -1    0    0  501    0  0.00000000000E+00  0.00000000000E+00  0.38891360961E+02  0.38912091404E+02  0.12700000000E+01 0.  1.
         -4   -1    0    0    0  501 -0.00000000000E+00 -0.00000000000E+00 -0.10038668645E+03  0.10039471957E+03  0.12700000000E+01 0.  1.
         25    2    1    2    0    0  0.00000000000E+00  0.00000000000E+00 -0.61495325493E+02  0.13930681097E+03  0.12499885010E+03 0.  0.
    9000005    1    3    3    0    0 -0.49636142570E+02  0.23317137807E+02 -0.64139648123E+02  0.84393898038E+02  0.10000000000E+01 0.  0.
    9000005    1    3    3    0    0  0.49636142570E+02 -0.23317137807E+02  0.26443226303E+01  0.54912912934E+02  0.10000000000E+01 0.  0.
<mgrwt>
<rscale>  0 0.12499885E+03</rscale>
<asrwt>0</asrwt>
<pdfrwt beam="1">  1        4 0.59854989E-02 0.12499885E+03</pdfrwt>
<pdfrwt beam="2">  1       -4 0.15446318E-01 0.12499885E+03</pdfrwt>
<totfact> 0.10148236E+04</totfact>
</mgrwt>
</event>
<event>
 5    1  0.3311405E-002  0.1249973E+03  0.7818608E-02  0.1235074E+00
          4   -1    0    0  501    0  0.00000000000E+00  0.00000000000E+00  0.81717139422E+01  0.82698131027E+01  0.12700000000E+01 0. -1.
         -4   -1    0    0    0  501 -0.00000000000E+00 -0.00000000000E+00 -0.47504893064E+03  0.47505062825E+03  0.12700000000E+01 0. -1.
         25    2    1    2    0    0  0.00000000000E+00  0.00000000000E+00 -0.46687721670E+03  0.48332044135E+03  0.12499725421E+03 0.  0.
    9000005    1    3    3    0    0  0.41825388464E+02  0.39450570451E+02 -0.13877536506E+03  0.15021755083E+03  0.10000000000E+01 0.  0.
    9000005    1    3    3    0    0 -0.41825388464E+02 -0.39450570451E+02 -0.32810185164E+03  0.33310289053E+03  0.10000000000E+01 0.  0.
<mgrwt>
<rscale>  0 0.12499725E+03</rscale>
<asrwt>0</asrwt>
<pdfrwt beam="1">  1        4 0.12648638E-02 0.12499725E+03</pdfrwt>
<pdfrwt beam="2">  1       -4 0.73092106E-01 0.12499725E+03</pdfrwt>
<totfact> 0.57185587E+03</totfact>
</mgrwt>
</event>
<event>
 5    1  0.3311405E-002  0.1249987E+03  0.7818608E-02  0.1235071E+00
         -4   -1    0    0    0  501 -0.00000000000E+00  0.00000000000E+00  0.30652459945E+02  0.30678758135E+02  0.12700000000E+01 0.  1.
          4   -1    0    0  501    0  0.00000000000E+00 -0.00000000000E+00 -0.12735002973E+03  0.12735636212E+03  0.12700000000E+01 0.  1.
         25    2    1    2    0    0  0.00000000000E+00  0.00000000000E+00 -0.96697569788E+02  0.15803512026E+03  0.12499871692E+03 0.  0.
    9000005    1    3    3    0    0  0.54094300855E+02 -0.18801032473E+02 -0.79968713155E+02  0.98364969836E+02  0.10000000000E+01 0.  0.
    9000005    1    3    3    0    0 -0.54094300855E+02  0.18801032473E+02 -0.16728856633E+02  0.59670150422E+02  0.10000000000E+01 0.  0.
<mgrwt>
<rscale>  0 0.12499872E+03</rscale>
<asrwt>0</asrwt>
<pdfrwt beam="2">  1        4 0.19594822E-01 0.12499872E+03</pdfrwt>
<pdfrwt beam="1">  1       -4 0.47182732E-02 0.12499872E+03</pdfrwt>
<totfact> 0.97725760E+03</totfact>
</mgrwt>
</event>
<event>
 5    1  0.3311405E-002  0.1250023E+03  0.7818608E-02  0.1235066E+00
          4   -1    0    0  501    0  0.00000000000E+00  0.00000000000E+00  0.10752268025E+03  0.10753018027E+03  0.12700000000E+01 0. -1.
         -4   -1    0    0    0  501 -0.00000000000E+00 -0.00000000000E+00 -0.36311003234E+02  0.36333205967E+02  0.12700000000E+01 0. -1.
         25    2    1    2    0    0  0.00000000000E+00  0.00000000000E+00  0.71211677019E+02  0.14386338624E+03  0.12500228380E+03 0.  0.
    9000005    1    3    3    0    0  0.53521506059E+02  0.18028106358E+02  0.48139145034E+01  0.56689840382E+02  0.10000000000E+01 0.  0.
    9000005    1    3    3    0    0 -0.53521506059E+02 -0.18028106358E+02  0.66397762515E+02  0.87173545854E+02  0.10000000000E+01 0.  0.
<mgrwt>
<rscale>  0 0.12500228E+03</rscale>
<asrwt>0</asrwt>
<pdfrwt beam="1">  1        4 0.16544236E-01 0.12500228E+03</pdfrwt>
<pdfrwt beam="2">  1       -4 0.55885930E-02 0.12500228E+03</pdfrwt>
<totfact> 0.10053616E+04</totfact>
</mgrwt>
</event>
<event>
 5    1  0.3311405E-002  0.1249966E+03  0.7818608E-02  0.1235075E+00
         -4   -1    0    0    0  501 -0.00000000000E+00  0.00000000000E+00  0.10217406350E+03  0.10218195610E+03  0.12700000000E+01 0. -1.
          4   -1    0    0  501    0  0.00000000000E+00 -0.00000000000E+00 -0.38209303109E+02  0.38230403399E+02  0.12700000000E+01 0. -1.
         25    2    1    2    0    0  0.00000000000E+00  0.00000000000E+00  0.63964760391E+02  0.14041235950E+03  0.12499656046E+03 0.  0.
    9000005    1    3    3    0    0 -0.12125605549E+01 -0.15883964322E+02 -0.35895600877E+02  0.39284408968E+02  0.10000000000E+01 0.  0.
    9000005    1    3    3    0    0  0.12125605549E+01  0.15883964322E+02  0.99860361269E+02  0.10112795053E+03  0.10000000000E+01 0.  0.
<mgrwt>
<rscale>  0 0.12499656E+03</rscale>
<asrwt>0</asrwt>
<pdfrwt beam="2">  1        4 0.58805846E-02 0.12499656E+03</pdfrwt>
<pdfrwt beam="1">  1       -4 0.15721317E-01 0.12499656E+03</pdfrwt>
<totfact> 0.10125831E+04</totfact>
</mgrwt>
</event>
<event>
 5    1  0.3311405E-002  0.1249984E+03  0.7818608E-02  0.1235072E+00
          4   -1    0    0  501    0  0.00000000000E+00  0.00000000000E+00  0.92746807267E+03  0.92746894219E+03  0.12700000000E+01 0.  1.
         -4   -1    0    0    0  501 -0.00000000000E+00 -0.00000000000E+00 -0.41149939878E+01  0.43065154730E+01  0.12700000000E+01 0.  1.
         25    2    1    2    0    0  0.00000000000E+00  0.00000000000E+00  0.92335307869E+03  0.93177545766E+03  0.12499838234E+03 0.  0.
    9000005    1    3    3    0    0 -0.46882505365E+02 -0.24635588171E+02  0.21441532722E+03  0.22086152689E+03  0.10000000000E+01 0.  0.
    9000005    1    3    3    0    0  0.46882505365E+02  0.24635588171E+02  0.70893775146E+03  0.71091393077E+03  0.10000000000E+01 0.  0.
<mgrwt>
<rscale>  0 0.12499838E+03</rscale>
<asrwt>0</asrwt>
<pdfrwt beam="1">  1        4 0.14270202E+00 0.12499838E+03</pdfrwt>
<pdfrwt beam="2">  1       -4 0.64787608E-03 0.12499838E+03</pdfrwt>
<totfact> 0.32973184E+03</totfact>
</mgrwt>
</event>
<event>
 5    1  0.3311405E-002  0.1250003E+03  0.7818608E-02  0.1235069E+00
         -4   -1    0    0    0  501 -0.00000000000E+00  0.00000000000E+00  0.13952271081E+04  0.13952276861E+04  0.12700000000E+01 0. -1.
          4   -1    0    0  501    0  0.00000000000E+00 -0.00000000000E+00 -0.26551058266E+01  0.29432103137E+01  0.12700000000E+01 0. -1.
         25    2    1    2    0    0  0.00000000000E+00  0.00000000000E+00  0.13925720023E+04  0.13981708964E+04  0.12500029632E+03 0.  0.
    9000005    1    3    3    0    0  0.60372153444E+02  0.12961102840E+02  0.58871964330E+03  0.59194983360E+03  0.10000000000E+01 0.  0.
    9000005    1    3    3    0    0 -0.60372153444E+02 -0.12961102840E+02  0.80385235897E+03  0.80622106281E+03  0.10000000000E+01 0.  0.
<mgrwt>
<rscale>  0 0.12500030E+03</rscale>
<asrwt>0</asrwt>
<pdfrwt beam="2">  1        4 0.43068388E-03 0.12500030E+03</pdfrwt>
<pdfrwt beam="1">  1       -4 0.21467267E+00 0.12500030E+03</pdfrwt>
<totfact> 0.20020061E+03</totfact>
</mgrwt>
</event>
<event>
 5    1  0.3311405E-002  0.1250016E+03  0.7818608E-02  0.1235067E+00
          4   -1    0    0  501    0  0.00000000000E+00  0.00000000000E+00  0.30148332301E+03  0.30148599794E+03  0.12700000000E+01 0. -1.
         -4   -1    0    0    0  501 -0.00000000000E+00 -0.00000000000E+00 -0.12923242290E+02  0.12985495419E+02  0.12700000000E+01 0. -1.
         25    2    1    2    0    0  0.00000000000E+00  0.00000000000E+00  0.28856008072E+03  0.31447149336E+03  0.12500159979E+03 0.  0.
    9000005    1    3    3    0    0  0.20132539252E+02 -0.23569339587E+02  0.77674363791E+01  0.31971330488E+02  0.10000000000E+01 0.  0.
    9000005    1    3    3    0    0 -0.20132539252E+02  0.23569339587E+02  0.28079264434E+03  0.28250016287E+03  0.10000000000E+01 0.  0.
<mgrwt>
<rscale>  0 0.12500160E+03</rscale>
<asrwt>0</asrwt>
<pdfrwt beam="1">  1        4 0.46387040E-01 0.12500160E+03</pdfrwt>
<pdfrwt beam="2">  1       -4 0.19931858E-02 0.12500160E+03</pdfrwt>
<totfact> 0.73815911E+03</totfact>
</mgrwt>
</event>
<event>
 5    1  0.3311405E-002  0.1249985E+03  0.7818608E-02  0.1235072E+00
         -4   -1    0    0    0  501 -0.00000000000E+00  0.00000000000E+00  0.55726175074E+02  0.55740644850E+02  0.12700000000E+01 0. -1.
          4   -1    0    0  501    0  0.00000000000E+00 -0.00000000000E+00 -0.70066267903E+02  0.70077776776E+02  0.12700000000E+01 0. -1.
         25    2    1    2    0    0  0.00000000000E+00  0.00000000000E+00 -0.14340092830E+02  0.12581842163E+03  0.12499854782E+03 0.  0.
    9000005    1    3    3    0    0 -0.36754937533E+02 -0.31187347525E+02 -0.47200017953E+02  0.67471607165E+02  0.10000000000E+01 0.  0.
    9000005    1    3    3    0    0  0.36754937533E+02  0.31187347525E+02  0.32859925123E+02  0.58346814461E+02  0.10000000000E+01 0.  0.
<mgrwt>
<rscale>  0 0.12499855E+03</rscale>
<asrwt>0</asrwt>
<pdfrwt beam="2">  1        4 0.10781424E-01 0.12499855E+03</pdfrwt>
<pdfrwt beam="1">  1       -4 0.85752561E-02 0.12499855E+03</pdfrwt>
<totfact> 0.10435283E+04</totfact>
</mgrwt>
</event>
<event>
 5    1  0.3311405E-002  0.1249980E+03  0.7818608E-02  0.1235072E+00
          4   -1    0    0  501    0  0.00000000000E+00  0.00000000000E+00  0.17366689835E+02  0.17413064516E+02  0.12700000000E+01 0.  1.
         -4   -1    0    0    0  501 -0.00000000000E+00 -0.00000000000E+00 -0.22457246501E+03  0.22457605603E+03  0.12700000000E+01 0.  1.
         25    2    1    2    0    0  0.00000000000E+00  0.00000000000E+00 -0.20720577518E+03  0.24198912054E+03  0.12499800477E+03 0.  0.
    9000005    1    3    3    0    0  0.30373999275E+02 -0.39365943227E+02 -0.17688464053E+03  0.18374284578E+03  0.10000000000E+01 0.  0.
    9000005    1    3    3    0    0 -0.30373999275E+02  0.39365943227E+02 -0.30321134644E+02  0.58246274767E+02  0.10000000000E+01 0.  0.
<mgrwt>
<rscale>  0 0.12499800E+03</rscale>
<asrwt>0</asrwt>
<pdfrwt beam="1">  1        4 0.26756421E-02 0.12499800E+03</pdfrwt>
<pdfrwt beam="2">  1       -4 0.34553451E-01 0.12499800E+03</pdfrwt>
<totfact> 0.83505727E+03</totfact>
</mgrwt>
</event>
<event>
 5    1  0.3311405E-002  0.1250001E+03  0.7818608E-02  0.1235069E+00
         -4   -1    0    0    0  501 -0.00000000000E+00  0.00000000000E+00  0.10779690121E+04  0.10779697602E+04  0.12700000000E+01 0.  1.
          4   -1    0    0  501    0  0.00000000000E+00 -0.00000000000E+00 -0.35116708206E+01  0.37342645798E+01  0.12700000000E+01 0.  1.
         25    2    1    2    0    0  0.00000000000E+00  0.00000000000E+00  0.10744573413E+04  0.10817040248E+04  0.12500007615E+03 0.  0.
    9000005    1    3    3    0    0  0.16108183669E+02 -0.60366405890E+02  0.54843910408E+03  0.55198734353E+03  0.10000000000E+01 0.  0.
    9000005    1    3    3    0    0 -0.16108183669E+02  0.60366405890E+02  0.52601823722E+03  0.52971668129E+03  0.10000000000E+01 0.  0.
<mgrwt>
<rscale>  0 0.12500008E+03</rscale>
<asrwt>0</asrwt>
<pdfrwt beam="2">  1        4 0.55743664E-03 0.12500008E+03</pdfrwt>
<pdfrwt beam="1">  1       -4 0.16585873E+00 0.12500008E+03</pdfrwt>
<totfact> 0.28025044E+03</totfact>
</mgrwt>
</event>
<event>
 5    1  0.3311405E-002  0.1250034E+03  0.7818608E-02  0.1235064E+00
         -4   -1    0    0    0  501 -0.00000000000E+00  0.00000000000E+00  0.37937115768E+01  0.40006433893E+01  0.12700000000E+01 0.  1.
          4   -1    0    0  501    0  0.00000000000E+00 -0.00000000000E+00 -0.10021755499E+04  0.10021763546E+04  0.12700000000E+01 0.  1.
         25    2    1    2    0    0  0.00000000000E+00  0.00000000000E+00 -0.99838183834E+03  0.10061769980E+04  0.12500342470E+03 0.  0.
    9000005    1    3    3    0    0  0.20311657040E+01  0.57600834663E+02 -0.30475956493E+03  0.31016346368E+03  0.10000000000E+01 0.  0.
    9000005    1    3    3    0    0 -0.20311657040E+01 -0.57600834663E+02 -0.69362227341E+03  0.69601353432E+03  0.10000000000E+01 0.  0.
<mgrwt>
<rscale>  0 0.12500342E+03</rscale>
<asrwt>0</asrwt>
<pdfrwt beam="2">  1        4 0.15419663E+00 0.12500342E+03</pdfrwt>
<pdfrwt beam="1">  1       -4 0.59962847E-03 0.12500342E+03</pdfrwt>
<totfact> 0.30399167E+03</totfact>
</mgrwt>
</event>
<event>
 5    1  0.3311405E-002  0.1249973E+03  0.7818608E-02  0.1235074E+00
          4   -1    0    0  501    0  0.00000000000E+00  0.00000000000E+00  0.20519659873E+01  0.24131855323E+01  0.12700000000E+01 0.  1.
         -4   -1    0    0    0  501 -0.00000000000E+00 -0.00000000000E+00 -0.17492226216E+04  0.17492230826E+04  0.12700000000E+01 0.  1.
         25    2    1    2    0    0  0.00000000000E+00  0.00000000000E+00 -0.17471706556E+04  0.17516362681E+04  0.12499726445E+03 0.  0.
    9000005    1    3    3    0    0 -0.56924692800E+02  0.17356673282E+02 -0.60644562756E+03  0.60935947843E+03  0.10000000000E+01 0.  0.
    9000005    1    3    3    0    0  0.56924692800E+02 -0.17356673282E+02 -0.11407250280E+04  0.11422767897E+04  0.10000000000E+01 0.  0.
<mgrwt>
<rscale>  0 0.12499726E+03</rscale>
<asrwt>0</asrwt>
<pdfrwt beam="1">  1        4 0.34351006E-03 0.12499726E+03</pdfrwt>
<pdfrwt beam="2">  1       -4 0.26913790E+00 0.12499726E+03</pdfrwt>
<totfact> 0.13464452E+03</totfact>
</mgrwt>
</event>
<event>
 5    1  0.3311405E-002  0.1249921E+03  0.7818608E-02  0.1235082E+00
          4   -1    0    0  501    0  0.00000000000E+00  0.00000000000E+00  0.15134181869E+04  0.15134187198E+04  0.12700000000E+01 0.  1.
         -4   -1    0    0    0  501 -0.00000000000E+00 -0.00000000000E+00 -0.24239406792E+01  0.27364919909E+01  0.12700000000E+01 0.  1.
         25    2    1    2    0    0  0.00000000000E+00  0.00000000000E+00  0.15109942462E+04  0.15161552118E+04  0.12499205586E+03 0.  0.
    9000005    1    3    3    0    0 -0.17040002866E+02 -0.50474376522E+02  0.11516732738E+04  0.11529051799E+04  0.10000000000E+01 0.  0.
    9000005    1    3    3    0    0  0.17040002866E+02  0.50474376522E+02  0.35932097246E+03  0.36325003184E+03  0.10000000000E+01 0.  0.
<mgrwt>
<rscale>  0 0.12499206E+03</rscale>
<asrwt>0</asrwt>
<pdfrwt beam="1">  1        4 0.23285743E+00 0.12499206E+03</pdfrwt>
<pdfrwt beam="2">  1       -4 0.39699773E-03 0.12499206E+03</pdfrwt>
<totfact> 0.17618096E+03</totfact>
</mgrwt>
</event>
<event>
 5    1  0.3311405E-002  0.1249486E+03  0.7818608E-02  0.1235150E+00
          4   -1    0    0  501    0  0.00000000000E+00  0.00000000000E+00  0.54324996328E+01  0.55789741226E+01  0.12700000000E+01 0. -1.
         -4   -1    0    0    0  501 -0.00000000000E+00 -0.00000000000E+00 -0.70875669598E+03  0.70875783381E+03  0.12700000000E+01 0. -1.
         25    2    1    2    0    0  0.00000000000E+00  0.00000000000E+00 -0.70332419634E+03  0.71433680793E+03  0.12494858947E+03 0.  0.
    9000005    1    3    3    0    0 -0.16672314543E+02 -0.50189778590E+02 -0.16161374087E+03  0.17004993733E+03  0.10000000000E+01 0.  0.
    9000005    1    3    3    0    0  0.16672314543E+02  0.50189778590E+02 -0.54171045547E+03  0.54428687061E+03  0.10000000000E+01 0.  0.
<mgrwt>
<rscale>  0 0.12494859E+03</rscale>
<asrwt>0</asrwt>
<pdfrwt beam="1">  1        4 0.84712453E-03 0.12494859E+03</pdfrwt>
<pdfrwt beam="2">  1       -4 0.10905077E+00 0.12494859E+03</pdfrwt>
<totfact> 0.42388277E+03</totfact>
</mgrwt>
</event>
<event>
 5    1  0.3311405E-002  0.1250046E+03  0.7818608E-02  0.1235062E+00
          4   -1    0    0  501    0  0.00000000000E+00  0.00000000000E+00  0.13880025907E+03  0.13880606910E+03  0.12700000000E+01 0.  1.
         -4   -1    0    0    0  501 -0.00000000000E+00 -0.00000000000E+00 -0.28124282965E+02  0.28152942871E+02  0.12700000000E+01 0.  1.
         25    2    1    2    0    0  0.00000000000E+00  0.00000000000E+00  0.11067597611E+03  0.16695901197E+03  0.12500455988E+03 0.  0.
    9000005    1    3    3    0    0 -0.46966990176E+02 -0.10023426319E+02  0.10874902664E+03  0.11888531463E+03  0.10000000000E+01 0.  0.
    9000005    1    3    3    0    0  0.46966990176E+02  0.10023426319E+02  0.19269494735E+01  0.48073697337E+02  0.10000000000E+01 0.  0.
<mgrwt>
<rscale>  0 0.12500456E+03</rscale>
<asrwt>0</asrwt>
<pdfrwt beam="1">  1        4 0.21356537E-01 0.12500456E+03</pdfrwt>
<pdfrwt beam="2">  1       -4 0.43294643E-02 0.12500456E+03</pdfrwt>
<totfact> 0.96007835E+03</totfact>
</mgrwt>
</event>
<event>
 5    1  0.3311405E-002  0.1250006E+03  0.7818608E-02  0.1235068E+00
         -4   -1    0    0    0  501 -0.00000000000E+00  0.00000000000E+00  0.20727769773E+02  0.20766640069E+02  0.12700000000E+01 0.  1.
          4   -1    0    0  501    0  0.00000000000E+00 -0.00000000000E+00 -0.18823928902E+03  0.18824357315E+03  0.12700000000E+01 0.  1.
         25    2    1    2    0    0  0.00000000000E+00  0.00000000000E+00 -0.16751151925E+03  0.20901021322E+03  0.12500064059E+03 0.  0.
    9000005    1    3    3    0    0 -0.20716312197E+02 -0.13769828993E+02 -0.17961261154E+03  0.18132971076E+03  0.10000000000E+01 0.  0.
    9000005    1    3    3    0    0  0.20716312197E+02  0.13769828993E+02  0.12101092289E+02  0.27680502455E+02  0.10000000000E+01 0.  0.
<mgrwt>
<rscale>  0 0.12500064E+03</rscale>
<asrwt>0</asrwt>
<pdfrwt beam="2">  1        4 0.28963209E-01 0.12500064E+03</pdfrwt>
<pdfrwt beam="1">  1       -4 0.31922074E-02 0.12500064E+03</pdfrwt>
<totfact> 0.88636512E+03</totfact>
</mgrwt>
</event>
<event>
 5    1  0.3311405E-002  0.1250001E+03  0.7818608E-02  0.1235069E+00
          4   -1    0    0  501    0  0.00000000000E+00  0.00000000000E+00  0.10360985042E+02  0.10438530119E+02  0.12700000000E+01 0. -1.
         -4   -1    0    0    0  501 -0.00000000000E+00 -0.00000000000E+00 -0.37553191969E+03  0.37553406717E+03  0.12700000000E+01 0. -1.
         25    2    1    2    0    0  0.00000000000E+00  0.00000000000E+00 -0.36517093465E+03  0.38597259729E+03  0.12500013739E+03 0.  0.
    9000005    1    3    3    0    0 -0.12152037952E+02  0.36953644910E+02 -0.31567749443E+02  0.50107551361E+02  0.10000000000E+01 0.  0.
    9000005    1    3    3    0    0  0.12152037952E+02 -0.36953644910E+02 -0.33360318520E+03  0.33586504593E+03  0.10000000000E+01 0.  0.
<mgrwt>
<rscale>  0 0.12500014E+03</rscale>
<asrwt>0</asrwt>
<pdfrwt beam="1">  1        4 0.16001282E-02 0.12500014E+03</pdfrwt>
<pdfrwt beam="2">  1       -4 0.57780261E-01 0.12500014E+03</pdfrwt>
<totfact> 0.65940137E+03</totfact>
</mgrwt>
</event>
<event>
 5    1  0.3311405E-002  0.1249996E+03  0.7818608E-02  0.1235070E+00
          4   -1    0    0  501    0  0.00000000000E+00  0.00000000000E+00  0.73201581172E+01  0.74295097322E+01  0.12700000000E+01 0. -1.
         -4   -1    0    0    0  501 -0.00000000000E+00 -0.00000000000E+00 -0.52955983305E+03  0.52956135592E+03  0.12700000000E+01 0. -1.
         25    2    1    2    0    0  0.00000000000E+00  0.00000000000E+00 -0.52223967493E+03  0.53699086565E+03  0.12499964686E+03 0.  0.
    9000005    1    3    3    0    0  0.47421914351E+02  0.40406183199E+02 -0.28204698227E+03  0.28884770695E+03  0.10000000000E+01 0.  0.
    9000005    1    3    3    0    0 -0.47421914351E+02 -0.40406183199E+02 -0.24019269267E+03  0.24814315870E+03  0.10000000000E+01 0.  0.
<mgrwt>
<rscale>  0 0.12499965E+03</rscale>
<asrwt>0</asrwt>
<pdfrwt beam="1">  1        4 0.11347074E-02 0.12499965E+03</pdfrwt>
<pdfrwt beam="2">  1       -4 0.81479243E-01 0.12499965E+03</pdfrwt>
<totfact> 0.53104795E+03</totfact>
</mgrwt>
</event>
<event>
 5    1  0.3311405E-002  0.1249992E+03  0.7818608E-02  0.1235071E+00
         -4   -1    0    0    0  501 -0.00000000000E+00  0.00000000000E+00  0.37051295117E+02  0.37073054499E+02  0.12700000000E+01 0. -1.
          4   -1    0    0  501    0  0.00000000000E+00 -0.00000000000E+00 -0.10537029470E+03  0.10537794791E+03  0.12700000000E+01 0. -1.
         25    2    1    2    0    0  0.00000000000E+00  0.00000000000E+00 -0.68318999581E+02  0.14245100240E+03  0.12499920953E+03 0.  0.
    9000005    1    3    3    0    0  0.24431623313E+02 -0.79132838993E+01  0.30765333961E+02  0.40087779354E+02  0.10000000000E+01 0.  0.
    9000005    1    3    3    0    0 -0.24431623313E+02  0.79132838993E+01 -0.99084333542E+02  0.10236322305E+03  0.10000000000E+01 0.  0.
<mgrwt>
<rscale>  0 0.12499921E+03</rscale>
<asrwt>0</asrwt>
<pdfrwt beam="2">  1        4 0.16213077E-01 0.12499921E+03</pdfrwt>
<pdfrwt beam="1">  1       -4 0.57024618E-02 0.12499921E+03</pdfrwt>
<totfact> 0.10083217E+04</totfact>
</mgrwt>
</event>
<event>
 5    1  0.3311405E-002  0.1250000E+03  0.7818608E-02  0.1235069E+00
         -4   -1    0    0    0  501 -0.00000000000E+00  0.00000000000E+00  0.36792780899E+03  0.36793000086E+03  0.12700000000E+01 0. -1.
          4   -1    0    0  501    0  0.00000000000E+00 -0.00000000000E+00 -0.10576679195E+02  0.10652654261E+02  0.12700000000E+01 0. -1.
         25    2    1    2    0    0  0.00000000000E+00  0.00000000000E+00  0.35735112980E+03  0.37858265512E+03  0.12499998715E+03 0.  0.
    9000005    1    3    3    0    0  0.62083227345E+02  0.26303654431E+01  0.19876617641E+03  0.20825522520E+03  0.10000000000E+01 0.  0.
    9000005    1    3    3    0    0 -0.62083227345E+02 -0.26303654431E+01  0.15858495339E+03  0.17032742991E+03  0.10000000000E+01 0.  0.
<mgrwt>
<rscale>  0 0.12499999E+03</rscale>
<asrwt>0</asrwt>
<pdfrwt beam="2">  1        4 0.16331944E-02 0.12499999E+03</pdfrwt>
<pdfrwt beam="1">  1       -4 0.56610287E-01 0.12499999E+03</pdfrwt>
<totfact> 0.66690507E+03</totfact>
</mgrwt>
</event>
<event>
 5    1  0.3311405E-002  0.1250083E+03  0.7818608E-02  0.1235056E+00
          4   -1    0    0  501    0  0.00000000000E+00  0.00000000000E+00  0.10864989965E+03  0.10865732186E+03  0.12700000000E+01 0.  1.
         -4   -1    0    0    0  501 -0.00000000000E+00 -0.00000000000E+00 -0.35937548921E+02  0.35959982236E+02  0.12700000000E+01 0.  1.
         25    2    1    2    0    0  0.00000000000E+00  0.00000000000E+00  0.72712350731E+02  0.14461730410E+03  0.12500831451E+03 0.  0.
    9000005    1    3    3    0    0 -0.14580237090E+02  0.59778285100E+02  0.23696970957E+02  0.65943711722E+02  0.10000000000E+01 0.  0.
    9000005    1    3    3    0    0  0.14580237090E+02 -0.59778285100E+02  0.49015379774E+02  0.78673592377E+02  0.10000000000E+01 0.  0.
<mgrwt>
<rscale>  0 0.12500831E+03</rscale>
<asrwt>0</asrwt>
<pdfrwt beam="1">  1        4 0.16717666E-01 0.12500831E+03</pdfrwt>
<pdfrwt beam="2">  1       -4 0.55311502E-02 0.12500831E+03</pdfrwt>
<totfact> 0.10036890E+04</totfact>
</mgrwt>
</event>
<event>
 5    1  0.3311405E-002  0.1250018E+03  0.7818608E-02  0.1235066E+00
          4   -1    0    0  501    0  0.00000000000E+00  0.00000000000E+00  0.78263095416E+02  0.78273399083E+02  0.12700000000E+01 0. -1.
         -4   -1    0    0    0  501 -0.00000000000E+00 -0.00000000000E+00 -0.49891526644E+02  0.49907688094E+02  0.12700000000E+01 0. -1.
         25    2    1    2    0    0  0.00000000000E+00  0.00000000000E+00  0.28371568772E+02  0.12818108718E+03  0.12500178077E+03 0.  0.
    9000005    1    3    3    0    0 -0.57976805072E+01 -0.35020501387E+02 -0.38554960320E+02  0.52416920760E+02  0.10000000000E+01 0.  0.
    9000005    1    3    3    0    0  0.57976805072E+01  0.35020501387E+02  0.66926529092E+02  0.75764166417E+02  0.10000000000E+01 0.  0.
<mgrwt>
<rscale>  0 0.12500178E+03</rscale>
<asrwt>0</asrwt>
<pdfrwt beam="1">  1        4 0.12042512E-01 0.12500178E+03</pdfrwt>
<pdfrwt beam="2">  1       -4 0.76776553E-02 0.12500178E+03</pdfrwt>
<totfact> 0.10383161E+04</totfact>
</mgrwt>
</event>
<event>
 5    1  0.3311405E-002  0.1249991E+03  0.7818608E-02  0.1235071E+00
          4   -1    0    0  501    0  0.00000000000E+00  0.00000000000E+00  0.18976419510E+02  0.19018869510E+02  0.12700000000E+01 0.  1.
         -4   -1    0    0    0  501 -0.00000000000E+00 -0.00000000000E+00 -0.20557014092E+03  0.20557406388E+03  0.12700000000E+01 0.  1.
         25    2    1    2    0    0  0.00000000000E+00  0.00000000000E+00 -0.18659372141E+03  0.22459293339E+03  0.12499907542E+03 0.  0.
    9000005    1    3    3    0    0  0.19079721999E+02 -0.24480885196E+02 -0.19075071254E+03  0.19326195659E+03  0.10000000000E+01 0.  0.
    9000005    1    3    3    0    0 -0.19079721999E+02  0.24480885196E+02  0.41569911291E+01  0.31330976792E+02  0.10000000000E+01 0.  0.
<mgrwt>
<rscale>  0 0.12499908E+03</rscale>
<asrwt>0</asrwt>
<pdfrwt beam="1">  1        4 0.29230165E-02 0.12499908E+03</pdfrwt>
<pdfrwt beam="2">  1       -4 0.31629741E-01 0.12499908E+03</pdfrwt>
<totfact> 0.86148534E+03</totfact>
</mgrwt>
</event>
<event>
 5    1  0.3311405E-002  0.1250134E+03  0.7818608E-02  0.1235048E+00
          4   -1    0    0  501    0  0.00000000000E+00  0.00000000000E+00  0.35531031105E+01  0.37732534653E+01  0.12700000000E+01 0. -1.
         -4   -1    0    0    0  501 -0.00000000000E+00 -0.00000000000E+00 -0.10663630856E+04  0.10663638419E+04  0.12700000000E+01 0. -1.
         25    2    1    2    0    0  0.00000000000E+00  0.00000000000E+00 -0.10628099825E+04  0.10701370954E+04  0.12501337495E+03 0.  0.
    9000005    1    3    3    0    0  0.31639049180E+02 -0.53881106757E+02 -0.54315110881E+03  0.54673424083E+03  0.10000000000E+01 0.  0.
    9000005    1    3    3    0    0 -0.31639049180E+02  0.53881106757E+02 -0.51965887371E+03  0.52340285452E+03  0.10000000000E+01 0.  0.
<mgrwt>
<rscale>  0 0.12501337E+03</rscale>
<asrwt>0</asrwt>
<pdfrwt beam="1">  1        4 0.56362491E-03 0.12501337E+03</pdfrwt>
<pdfrwt beam="2">  1       -4 0.16407260E+00 0.12501337E+03</pdfrwt>
<totfact> 0.28366023E+03</totfact>
</mgrwt>
</event>
<event>
 5    1  0.3311405E-002  0.1249988E+03  0.7818608E-02  0.1235071E+00
         -4   -1    0    0    0  501 -0.00000000000E+00  0.00000000000E+00  0.54598234677E+03  0.54598382383E+03  0.12700000000E+01 0.  1.
          4   -1    0    0  501    0  0.00000000000E+00 -0.00000000000E+00 -0.70965353486E+01  0.72092797112E+01  0.12700000000E+01 0.  1.
         25    2    1    2    0    0  0.00000000000E+00  0.00000000000E+00  0.53888581142E+03  0.55319310354E+03  0.12499876821E+03 0.  0.
    9000005    1    3    3    0    0  0.43621209485E+02 -0.44657140401E+02  0.25684519951E+03  0.26432466138E+03  0.10000000000E+01 0.  0.
    9000005    1    3    3    0    0 -0.43621209485E+02  0.44657140401E+02  0.28204061191E+03  0.28886844216E+03  0.10000000000E+01 0.  0.
<mgrwt>
<rscale>  0 0.12499877E+03</rscale>
<asrwt>0</asrwt>
<pdfrwt beam="2">  1        4 0.11005611E-02 0.12499877E+03</pdfrwt>
<pdfrwt beam="1">  1       -4 0.84006057E-01 0.12499877E+03</pdfrwt>
<totfact> 0.51963501E+03</totfact>
</mgrwt>
</event>
<event>
 5    1  0.3311405E-002  0.1249971E+03  0.7818608E-02  0.1235074E+00
         -4   -1    0    0    0  501 -0.00000000000E+00  0.00000000000E+00  0.98471505076E+02  0.98479694414E+02  0.12700000000E+01 0. -1.
          4   -1    0    0  501    0  0.00000000000E+00 -0.00000000000E+00 -0.39647000248E+02  0.39667335790E+02  0.12700000000E+01 0. -1.
         25    2    1    2    0    0  0.00000000000E+00  0.00000000000E+00  0.58824504828E+02  0.13814703020E+03  0.12499711831E+03 0.  0.
    9000005    1    3    3    0    0  0.25985641742E+02 -0.26591974190E+02 -0.26097962944E+02  0.45436662927E+02  0.10000000000E+01 0.  0.
    9000005    1    3    3    0    0 -0.25985641742E+02  0.26591974190E+02  0.84922467772E+02  0.92710367277E+02  0.10000000000E+01 0.  0.
<mgrwt>
<rscale>  0 0.12499712E+03</rscale>
<asrwt>0</asrwt>
<pdfrwt beam="2">  1        4 0.61017328E-02 0.12499712E+03</pdfrwt>
<pdfrwt beam="1">  1       -4 0.15151656E-01 0.12499712E+03</pdfrwt>
<totfact> 0.10172795E+04</totfact>
</mgrwt>
</event>
<event>
 5    1  0.3311405E-002  0.1250064E+03  0.7818608E-02  0.1235059E+00
          4   -1    0    0  501    0  0.00000000000E+00  0.00000000000E+00  0.28378118227E+01  0.31090313509E+01  0.12700000000E+01 0.  1.
         -4   -1    0    0    0  501 -0.00000000000E+00 -0.00000000000E+00 -0.13135849122E+04  0.13135855261E+04  0.12700000000E+01 0.  1.
         25    2    1    2    0    0  0.00000000000E+00  0.00000000000E+00 -0.13107471004E+04  0.13166945575E+04  0.12500638605E+03 0.  0.
    9000005    1    3    3    0    0 -0.19407089577E+02 -0.12199104751E+02 -0.12677574626E+04  0.12679650773E+04  0.10000000000E+01 0.  0.
    9000005    1    3    3    0    0  0.19407089577E+02  0.12199104751E+02 -0.42989637810E+02  0.48729480211E+02  0.10000000000E+01 0.  0.
<mgrwt>
<rscale>  0 0.12500639E+03</rscale>
<asrwt>0</asrwt>
<pdfrwt beam="1">  1        4 0.45749775E-03 0.12500639E+03</pdfrwt>
<pdfrwt beam="2">  1       -4 0.20211043E+00 0.12500639E+03</pdfrwt>
<totfact> 0.21834921E+03</totfact>
</mgrwt>
</event>
<event>
 5    1  0.3311405E-002  0.1250021E+03  0.7818608E-02  0.1235066E+00
          4   -1    0    0  501    0  0.00000000000E+00  0.00000000000E+00  0.45168424626E+02  0.45186275385E+02  0.12700000000E+01 0. -1.
         -4   -1    0    0    0  501 -0.00000000000E+00 -0.00000000000E+00 -0.86445183473E+02  0.86454512003E+02  0.12700000000E+01 0. -1.
         25    2    1    2    0    0  0.00000000000E+00  0.00000000000E+00 -0.41276758847E+02  0.13164078739E+03  0.12500210432E+03 0.  0.
    9000005    1    3    3    0    0  0.18534283015E+02 -0.59149266188E+02 -0.29012161040E+02  0.68446043170E+02  0.10000000000E+01 0.  0.
    9000005    1    3    3    0    0 -0.18534283015E+02  0.59149266188E+02 -0.12264597807E+02  0.63194744218E+02  0.10000000000E+01 0.  0.
<mgrwt>
<rscale>  0 0.12500210E+03</rscale>
<asrwt>0</asrwt>
<pdfrwt beam="1">  1        4 0.69510791E-02 0.12500210E+03</pdfrwt>
<pdfrwt beam="2">  1       -4 0.13301350E-01 0.12500210E+03</pdfrwt>
<totfact> 0.10308882E+04</totfact>
</mgrwt>
</event>
<event>
 5    1  0.3311405E-002  0.1249980E+03  0.7818608E-02  0.1235072E+00
         -4   -1    0    0    0  501 -0.00000000000E+00  0.00000000000E+00  0.61750708335E+03  0.61750838932E+03  0.12700000000E+01 0.  1.
          4   -1    0    0  501    0  0.00000000000E+00 -0.00000000000E+00 -0.62605691435E+01  0.63880846895E+01  0.12700000000E+01 0.  1.
         25    2    1    2    0    0  0.00000000000E+00  0.00000000000E+00  0.61124651420E+03  0.62389647401E+03  0.12499803662E+03 0.  0.
    9000005    1    3    3    0    0 -0.33984091642E+02  0.64651349750E+01  0.56537986898E+03  0.56643809256E+03  0.10000000000E+01 0.  0.
    9000005    1    3    3    0    0  0.33984091642E+02 -0.64651349750E+01  0.45866645219E+02  0.57458381448E+02  0.10000000000E+01 0.  0.
<mgrwt>
<rscale>  0 0.12499804E+03</rscale>
<asrwt>0</asrwt>
<pdfrwt beam="2">  1        4 0.97307358E-03 0.12499804E+03</pdfrwt>
<pdfrwt beam="1">  1       -4 0.95011024E-01 0.12499804E+03</pdfrwt>
<totfact> 0.47395152E+03</totfact>
</mgrwt>
</event>
<event>
 5    1  0.3311405E-002  0.1249987E+03  0.7818608E-02  0.1235071E+00
         -4   -1    0    0    0  501 -0.00000000000E+00  0.00000000000E+00  0.15511191616E+02  0.15563096265E+02  0.12700000000E+01 0.  1.
          4   -1    0    0  501    0  0.00000000000E+00 -0.00000000000E+00 -0.25135489091E+03  0.25135809930E+03  0.12700000000E+01 0.  1.
         25    2    1    2    0    0  0.00000000000E+00  0.00000000000E+00 -0.23584369929E+03  0.26692119556E+03  0.12499869657E+03 0.  0.
    9000005    1    3    3    0    0  0.43104754241E+02 -0.36305651996E+02 -0.60264359011E+02  0.82516138858E+02  0.10000000000E+01 0.  0.
    9000005    1    3    3    0    0 -0.43104754241E+02  0.36305651996E+02 -0.17557934028E+03  0.18440505670E+03  0.10000000000E+01 0.  0.
<mgrwt>
<rscale>  0 0.12499870E+03</rscale>
<asrwt>0</asrwt>
<pdfrwt beam="2">  1        4 0.38674220E-01 0.12499870E+03</pdfrwt>
<pdfrwt beam="1">  1       -4 0.23905768E-02 0.12499870E+03</pdfrwt>
<totfact> 0.79946795E+03</totfact>
</mgrwt>
</event>
<event>
 5    1  0.3311405E-002  0.1250004E+03  0.7818608E-02  0.1235069E+00
          4   -1    0    0  501    0  0.00000000000E+00  0.00000000000E+00  0.18407871617E+02  0.18451629670E+02  0.12700000000E+01 0. -1.
         -4   -1    0    0    0  501 -0.00000000000E+00 -0.00000000000E+00 -0.21190913412E+03  0.21191293973E+03  0.12700000000E+01 0. -1.
         25    2    1    2    0    0  0.00000000000E+00  0.00000000000E+00 -0.19350126250E+03  0.23036456940E+03  0.12500038497E+03 0.  0.
    9000005    1    3    3    0    0  0.33835268395E+02  0.18922089759E+02 -0.64216146789E+01  0.39307861851E+02  0.10000000000E+01 0.  0.
    9000005    1    3    3    0    0 -0.33835268395E+02 -0.18922089759E+02 -0.18707964782E+03  0.19105670755E+03  0.10000000000E+01 0.  0.
<mgrwt>
<rscale>  0 0.12500038E+03</rscale>
<asrwt>0</asrwt>
<pdfrwt beam="1">  1        4 0.28356391E-02 0.12500038E+03</pdfrwt>
<pdfrwt beam="2">  1       -4 0.32605062E-01 0.12500038E+03</pdfrwt>
<totfact> 0.85252917E+03</totfact>
</mgrwt>
</event>
<event>
 5    1  0.3311405E-002  0.1249977E+03  0.7818608E-02  0.1235073E+00
          4   -1    0    0  501    0  0.00000000000E+00  0.00000000000E+00  0.36920496078E+02  0.36942332502E+02  0.12700000000E+01 0.  1.
         -4   -1    0    0    0  501 -0.00000000000E+00 -0.00000000000E+00 -0.10574081374E+03  0.10574844013E+03  0.12700000000E+01 0.  1.
         25    2    1    2    0    0  0.00000000000E+00  0.00000000000E+00 -0.68820317664E+02  0.14269077264E+03  0.12499768187E+03 0.  0.
    9000005    1    3    3    0    0  0.21118191200E+02 -0.58704309295E+02 -0.38515158777E+02  0.73325243845E+02  0.10000000000E+01 0.  0.
    9000005    1    3    3    0    0 -0.21118191200E+02  0.58704309295E+02 -0.30305158887E+02  0.69365528792E+02  0.10000000000E+01 0.  0.
<mgrwt>
<rscale>  0 0.12499768E+03</rscale>
<asrwt>0</asrwt>
<pdfrwt beam="1">  1        4 0.56823427E-02 0.12499768E+03</pdfrwt>
<pdfrwt beam="2">  1       -4 0.16270084E-01 0.12499768E+03</pdfrwt>
<totfact> 0.10078646E+04</totfact>
</mgrwt>
</event>
<event>
 5    1  0.3311405E-002  0.1250121E+03  0.7818608E-02  0.1235050E+00
         -4   -1    0    0    0  501 -0.00000000000E+00  0.00000000000E+00  0.22961979104E+03  0.22962330312E+03  0.12700000000E+01 0. -1.
          4   -1    0    0  501    0  0.00000000000E+00 -0.00000000000E+00 -0.16987766279E+02  0.17035172531E+02  0.12700000000E+01 0. -1.
         25    2    1    2    0    0  0.00000000000E+00  0.00000000000E+00  0.21263202476E+03  0.24665847565E+03  0.12501210205E+03 0.  0.
    9000005    1    3    3    0    0  0.16276332718E+01 -0.24187760991E+02 -0.73426202326E+01  0.25349774036E+02  0.10000000000E+01 0.  0.
    9000005    1    3    3    0    0 -0.16276332718E+01  0.24187760991E+02  0.21997464499E+03  0.22130870162E+03  0.10000000000E+01 0.  0.
<mgrwt>
<rscale>  0 0.12501210E+03</rscale>
<asrwt>0</asrwt>
<pdfrwt beam="2">  1        4 0.26174194E-02 0.12501210E+03</pdfrwt>
<pdfrwt beam="1">  1       -4 0.35330037E-01 0.12501210E+03</pdfrwt>
<totfact> 0.82793266E+03</totfact>
</mgrwt>
</event>
<event>
 5    1  0.3311405E-002  0.1250026E+03  0.7818608E-02  0.1235065E+00
         -4   -1    0    0    0  501 -0.00000000000E+00  0.00000000000E+00  0.36762697740E+03  0.36762917105E+03  0.12700000000E+01 0. -1.
          4   -1    0    0  501    0  0.00000000000E+00 -0.00000000000E+00 -0.10585841514E+02  0.10661751289E+02  0.12700000000E+01 0. -1.
         25    2    1    2    0    0  0.00000000000E+00  0.00000000000E+00  0.35704113588E+03  0.37829092234E+03  0.12500259683E+03 0.  0.
    9000005    1    3    3    0    0  0.41147796022E+01  0.60072822303E+02  0.22913586309E+03  0.23691753659E+03  0.10000000000E+01 0.  0.
    9000005    1    3    3    0    0 -0.41147796022E+01 -0.60072822303E+02  0.12790527279E+03  0.14137338575E+03  0.10000000000E+01 0.  0.
<mgrwt>
<rscale>  0 0.12500260E+03</rscale>
<asrwt>0</asrwt>
<pdfrwt beam="2">  1        4 0.16345991E-02 0.12500260E+03</pdfrwt>
<pdfrwt beam="1">  1       -4 0.56563999E-01 0.12500260E+03</pdfrwt>
<totfact> 0.66716553E+03</totfact>
</mgrwt>
</event>
<event>
 5    1  0.3311405E-002  0.1249977E+03  0.7818608E-02  0.1235073E+00
          4   -1    0    0  501    0  0.00000000000E+00  0.00000000000E+00  0.68683679587E+03  0.68683797002E+03  0.12700000000E+01 0. -1.
         -4   -1    0    0    0  501 -0.00000000000E+00 -0.00000000000E+00 -0.56149959286E+01  0.57568289255E+01  0.12700000000E+01 0. -1.
         25    2    1    2    0    0  0.00000000000E+00  0.00000000000E+00  0.68122179994E+03  0.69259479894E+03  0.12499765922E+03 0.  0.
    9000005    1    3    3    0    0  0.34135158909E+02 -0.20044739879E+02  0.60853338838E+03  0.60982037146E+03  0.10000000000E+01 0.  0.
    9000005    1    3    3    0    0 -0.34135158909E+02  0.20044739879E+02  0.72688411555E+02  0.82774427482E+02  0.10000000000E+01 0.  0.
<mgrwt>
<rscale>  0 0.12499766E+03</rscale>
<asrwt>0</asrwt>
<pdfrwt beam="1">  1        4 0.10567811E+00 0.12499766E+03</pdfrwt>
<pdfrwt beam="2">  1       -4 0.87484683E-03 0.12499766E+03</pdfrwt>
<totfact> 0.43482750E+03</totfact>
</mgrwt>
</event>
<event>
 5    1  0.3311405E-002  0.1249998E+03  0.7818608E-02  0.1235070E+00
          4   -1    0    0  501    0  0.00000000000E+00  0.00000000000E+00  0.37416292591E+01  0.39512896012E+01  0.12700000000E+01 0. -1.
         -4   -1    0    0    0  501 -0.00000000000E+00 -0.00000000000E+00 -0.10153317387E+04  0.10153325330E+04  0.12700000000E+01 0. -1.
         25    2    1    2    0    0  0.00000000000E+00  0.00000000000E+00 -0.10115901094E+04  0.10192838226E+04  0.12499984576E+03 0.  0.
    9000005    1    3    3    0    0  0.12632706063E+02  0.53065398749E+02 -0.25716054734E+03  0.26288413591E+03  0.10000000000E+01 0.  0.
    9000005    1    3    3    0    0 -0.12632706063E+02 -0.53065398749E+02 -0.75442956209E+03  0.75639968665E+03  0.10000000000E+01 0.  0.
<mgrwt>
<rscale>  0 0.12499985E+03</rscale>
<asrwt>0</asrwt>
<pdfrwt beam="1">  1        4 0.59182490E-03 0.12499985E+03</pdfrwt>
<pdfrwt beam="2">  1       -4 0.15622086E+00 0.12499985E+03</pdfrwt>
<totfact> 0.29973687E+03</totfact>
</mgrwt>
</event>
<event>
 5    1  0.3311405E-002  0.1250031E+03  0.7818608E-02  0.1235064E+00
         -4   -1    0    0    0  501 -0.00000000000E+00  0.00000000000E+00  0.14804755276E+03  0.14805299990E+03  0.12700000000E+01 0. -1.
          4   -1    0    0  501    0  0.00000000000E+00 -0.00000000000E+00 -0.26365192657E+02  0.26395762611E+02  0.12700000000E+01 0. -1.
         25    2    1    2    0    0  0.00000000000E+00  0.00000000000E+00  0.12168236011E+03  0.17444876251E+03  0.12500309588E+03 0.  0.
    9000005    1    3    3    0    0  0.10064283160E+02  0.19764163145E+02  0.14237712052E+03  0.14409773207E+03  0.10000000000E+01 0.  0.
    9000005    1    3    3    0    0 -0.10064283160E+02 -0.19764163145E+02 -0.20694760412E+02  0.30351030441E+02  0.10000000000E+01 0.  0.
<mgrwt>
<rscale>  0 0.12500310E+03</rscale>
<asrwt>0</asrwt>
<pdfrwt beam="2">  1        4 0.40589540E-02 0.12500310E+03</pdfrwt>
<pdfrwt beam="1">  1       -4 0.22779317E-01 0.12500310E+03</pdfrwt>
<totfact> 0.94619323E+03</totfact>
</mgrwt>
</event>
<event>
 5    1  0.3311405E-002  0.1250003E+03  0.7818608E-02  0.1235069E+00
          4   -1    0    0  501    0  0.00000000000E+00  0.00000000000E+00  0.42290672008E+01  0.44156437117E+01  0.12700000000E+01 0. -1.
         -4   -1    0    0    0  501 -0.00000000000E+00 -0.00000000000E+00 -0.90354934661E+03  0.90355023914E+03  0.12700000000E+01 0. -1.
         25    2    1    2    0    0  0.00000000000E+00  0.00000000000E+00 -0.89932027941E+03  0.90796588285E+03  0.12500031790E+03 0.  0.
    9000005    1    3    3    0    0 -0.23962241758E+02  0.47690596090E+02 -0.68577959699E+03  0.68785408164E+03  0.10000000000E+01 0.  0.
    9000005    1    3    3    0    0  0.23962241758E+02 -0.47690596090E+02 -0.21354068242E+03  0.22011180121E+03  0.10000000000E+01 0.  0.
<mgrwt>
<rscale>  0 0.12500032E+03</rscale>
<asrwt>0</asrwt>
<pdfrwt beam="1">  1        4 0.66504714E-03 0.12500032E+03</pdfrwt>
<pdfrwt beam="2">  1       -4 0.13902186E+00 0.12500032E+03</pdfrwt>
<totfact> 0.33856528E+03</totfact>
</mgrwt>
</event>
<event>
 5    1  0.3311405E-002  0.1249993E+03  0.7818608E-02  0.1235070E+00
         -4   -1    0    0    0  501 -0.00000000000E+00  0.00000000000E+00  0.22212191196E+03  0.22212554259E+03  0.12700000000E+01 0. -1.
          4   -1    0    0  501    0  0.00000000000E+00 -0.00000000000E+00 -0.17559166517E+02  0.17605034188E+02  0.12700000000E+01 0. -1.
         25    2    1    2    0    0  0.00000000000E+00  0.00000000000E+00  0.20456274544E+03  0.23973057678E+03  0.12499933048E+03 0.  0.
    9000005    1    3    3    0    0  0.54780399153E+02 -0.24535465296E+02  0.68934571038E+02  0.91410372895E+02  0.10000000000E+01 0.  0.
    9000005    1    3    3    0    0 -0.54780399153E+02  0.24535465296E+02  0.13562817440E+03  0.14832020388E+03  0.10000000000E+01 0.  0.
<mgrwt>
<rscale>  0 0.12499933E+03</rscale>
<asrwt>0</asrwt>
<pdfrwt beam="2">  1        4 0.27052177E-02 0.12499933E+03</pdfrwt>
<pdfrwt beam="1">  1       -4 0.34176411E-01 0.12499933E+03</pdfrwt>
<totfact> 0.83838758E+03</totfact>
</mgrwt>
</event>
<event>
 5    1  0.3311405E-002  0.1250076E+03  0.7818608E-02  0.1235057E+00
         -4   -1    0    0    0  501 -0.00000000000E+00  0.00000000000E+00  0.10970184297E+03  0.10970919401E+03  0.12700000000E+01 0.  1.
          4   -1    0    0  501    0  0.00000000000E+00 -0.00000000000E+00 -0.35592335297E+02  0.35614986058E+02  0.12700000000E+01 0.  1.
         25    2    1    2    0    0  0.00000000000E+00  0.00000000000E+00  0.74109507673E+02  0.14532418007E+03  0.12500759251E+03 0.  0.
    9000005    1    3    3    0    0 -0.19400460644E+02 -0.47326348036E+01 -0.31789263495E+02  0.37554400261E+02  0.10000000000E+01 0.  0.
    9000005    1    3    3    0    0  0.19400460644E+02  0.47326348036E+01  0.10589877117E+03  0.10776977981E+03  0.10000000000E+01 0.  0.
<mgrwt>
<rscale>  0 0.12500759E+03</rscale>
<asrwt>0</asrwt>
<pdfrwt beam="2">  1        4 0.54780518E-02 0.12500759E+03</pdfrwt>
<pdfrwt beam="1">  1       -4 0.16879514E-01 0.12500759E+03</pdfrwt>
<totfact> 0.10022692E+04</totfact>
</mgrwt>
</event>
<event>
 5    1  0.3311405E-002  0.1250004E+03  0.7818608E-02  0.1235069E+00
          4   -1    0    0  501    0  0.00000000000E+00  0.00000000000E+00  0.21621251328E+02  0.21658518163E+02  0.12700000000E+01 0. -1.
         -4   -1    0    0    0  501 -0.00000000000E+00 -0.00000000000E+00 -0.18047338541E+03  0.18047785388E+03  0.12700000000E+01 0. -1.
         25    2    1    2    0    0  0.00000000000E+00  0.00000000000E+00 -0.15885213409E+03  0.20213637205E+03  0.12500044960E+03 0.  0.
    9000005    1    3    3    0    0  0.57759103453E+02 -0.39304386435E+01 -0.41374169518E+02  0.71164487512E+02  0.10000000000E+01 0.  0.
    9000005    1    3    3    0    0 -0.57759103453E+02  0.39304386435E+01 -0.11747796457E+03  0.13097188453E+03  0.10000000000E+01 0.  0.
<mgrwt>
<rscale>  0 0.12500045E+03</rscale>
<asrwt>0</asrwt>
<pdfrwt beam="1">  1        4 0.33295569E-02 0.12500045E+03</pdfrwt>
<pdfrwt beam="2">  1       -4 0.27768346E-01 0.12500045E+03</pdfrwt>
<totfact> 0.89775534E+03</totfact>
</mgrwt>
</event>
<event>
 5    1  0.3311405E-002  0.1250057E+03  0.7818608E-02  0.1235060E+00
          4   -1    0    0  501    0  0.00000000000E+00  0.00000000000E+00  0.62342992942E+02  0.62355927296E+02  0.12700000000E+01 0. -1.
         -4   -1    0    0    0  501 -0.00000000000E+00 -0.00000000000E+00 -0.62637230474E+02  0.62650104082E+02  0.12700000000E+01 0. -1.
         25    2    1    2    0    0  0.00000000000E+00  0.00000000000E+00 -0.29423753233E+00  0.12500603138E+03  0.12500568509E+03 0.  0.
    9000005    1    3    3    0    0 -0.54746727472E+02 -0.36341226188E+01  0.29772762080E+02  0.62432590672E+02  0.10000000000E+01 0.  0.
    9000005    1    3    3    0    0  0.54746727472E+02  0.36341226188E+01 -0.30066999613E+02  0.62573440706E+02  0.10000000000E+01 0.  0.
<mgrwt>
<rscale>  0 0.12500569E+03</rscale>
<asrwt>0</asrwt>
<pdfrwt beam="1">  1        4 0.95932149E-02 0.12500569E+03</pdfrwt>
<pdfrwt beam="2">  1       -4 0.96384823E-02 0.12500569E+03</pdfrwt>
<totfact> 0.10451389E+04</totfact>
</mgrwt>
</event>
<event>
 5    1  0.3311405E-002  0.1249992E+03  0.7818608E-02  0.1235071E+00
         -4   -1    0    0    0  501 -0.00000000000E+00  0.00000000000E+00  0.25412257088E+02  0.25443971984E+02  0.12700000000E+01 0.  1.
          4   -1    0    0  501    0  0.00000000000E+00 -0.00000000000E+00 -0.15358298284E+03  0.15358823366E+03  0.12700000000E+01 0.  1.
         25    2    1    2    0    0  0.00000000000E+00  0.00000000000E+00 -0.12817072575E+03  0.17903220564E+03  0.12499918286E+03 0.  0.
    9000005    1    3    3    0    0  0.55488819912E+02  0.28591765520E+02 -0.59860602868E+02  0.86491560088E+02  0.10000000000E+01 0.  0.
    9000005    1    3    3    0    0 -0.55488819912E+02 -0.28591765520E+02 -0.68310122882E+02  0.92540645550E+02  0.10000000000E+01 0.  0.
<mgrwt>
<rscale>  0 0.12499918E+03</rscale>
<asrwt>0</asrwt>
<pdfrwt beam="2">  1        4 0.23630994E-01 0.12499918E+03</pdfrwt>
<pdfrwt beam="1">  1       -4 0.39124216E-02 0.12499918E+03</pdfrwt>
<totfact> 0.93793219E+03</totfact>
</mgrwt>
</event>
<event>
 5    1  0.3311405E-002  0.1250016E+03  0.7818608E-02  0.1235067E+00
         -4   -1    0    0    0  501 -0.00000000000E+00  0.00000000000E+00  0.11387683175E+03  0.11388391330E+03  0.12700000000E+01 0.  1.
          4   -1    0    0  501    0  0.00000000000E+00 -0.00000000000E+00 -0.34283366916E+02  0.34306881921E+02  0.12700000000E+01 0.  1.
         25    2    1    2    0    0  0.00000000000E+00  0.00000000000E+00  0.79593464833E+02  0.14819079522E+03  0.12500156857E+03 0.  0.
    9000005    1    3    3    0    0 -0.85872995798E+00  0.46500659361E+02 -0.96875351656E+01  0.47517334476E+02  0.10000000000E+01 0.  0.
    9000005    1    3    3    0    0  0.85872995798E+00 -0.46500659361E+02  0.89280999998E+02  0.10067346075E+03  0.10000000000E+01 0.  0.
<mgrwt>
<rscale>  0 0.12500157E+03</rscale>
<asrwt>0</asrwt>
<pdfrwt beam="2">  1        4 0.52767178E-02 0.12500157E+03</pdfrwt>
<pdfrwt beam="1">  1       -4 0.17521866E-01 0.12500157E+03</pdfrwt>
<totfact> 0.99662047E+03</totfact>
</mgrwt>
</event>
<event>
 5    1  0.3311405E-002  0.1249974E+03  0.7818608E-02  0.1235073E+00
          4   -1    0    0  501    0  0.00000000000E+00  0.00000000000E+00  0.11154903330E+04  0.11154910559E+04  0.12700000000E+01 0.  1.
         -4   -1    0    0    0  501 -0.00000000000E+00 -0.00000000000E+00 -0.33857794375E+01  0.36161308603E+01  0.12700000000E+01 0.  1.
         25    2    1    2    0    0  0.00000000000E+00  0.00000000000E+00  0.11121045535E+04  0.11191071868E+04  0.12499743008E+03 0.  0.
    9000005    1    3    3    0    0 -0.47626270428E+02 -0.38762333762E+02  0.45229381432E+03  0.45644438284E+03  0.10000000000E+01 0.  0.
    9000005    1    3    3    0    0  0.47626270428E+02  0.38762333762E+02  0.65981073921E+03  0.66266280394E+03  0.10000000000E+01 0.  0.
<mgrwt>
<rscale>  0 0.12499743E+03</rscale>
<asrwt>0</asrwt>
<pdfrwt beam="1">  1        4 0.17163155E+00 0.12499743E+03</pdfrwt>
<pdfrwt beam="2">  1       -4 0.53866449E-03 0.12499743E+03</pdfrwt>
<totfact> 0.26932339E+03</totfact>
</mgrwt>
</event>
<event>
 5    1  0.3311405E-002  0.1250034E+03  0.7818608E-02  0.1235064E+00
         -4   -1    0    0    0  501 -0.00000000000E+00  0.00000000000E+00  0.65857352284E+02  0.65869596552E+02  0.12700000000E+01 0.  1.
          4   -1    0    0  501    0  0.00000000000E+00 -0.00000000000E+00 -0.59292515943E+02  0.59306115594E+02  0.12700000000E+01 0.  1.
         25    2    1    2    0    0  0.00000000000E+00  0.00000000000E+00  0.65648363409E+01  0.12517571215E+03  0.12500344729E+03 0.  0.
    9000005    1    3    3    0    0  0.56955490749E+02 -0.20124498328E+02 -0.12756586102E+02  0.61746690991E+02  0.10000000000E+01 0.  0.
    9000005    1    3    3    0    0 -0.56955490749E+02  0.20124498328E+02  0.19321422443E+02  0.63429021155E+02  0.10000000000E+01 0.  0.
<mgrwt>
<rscale>  0 0.12500345E+03</rscale>
<asrwt>0</asrwt>
<pdfrwt beam="2">  1        4 0.91239135E-02 0.12500345E+03</pdfrwt>
<pdfrwt beam="1">  1       -4 0.10133888E-01 0.12500345E+03</pdfrwt>
<totfact> 0.10448233E+04</totfact>
</mgrwt>
</event>
<event>
 5    1  0.3311405E-002  0.1250014E+03  0.7818608E-02  0.1235067E+00
          4   -1    0    0  501    0  0.00000000000E+00  0.00000000000E+00  0.20769275540E+02  0.20808068301E+02  0.12700000000E+01 0. -1.
         -4   -1    0    0    0  501 -0.00000000000E+00 -0.00000000000E+00 -0.18786604171E+03  0.18787033435E+03  0.12700000000E+01 0. -1.
         25    2    1    2    0    0  0.00000000000E+00  0.00000000000E+00 -0.16709676617E+03  0.20867840265E+03  0.12500138586E+03 0.  0.
    9000005    1    3    3    0    0 -0.29437008609E+02  0.98603658675E+01  0.69941084734E+01  0.31838370628E+02  0.10000000000E+01 0.  0.
    9000005    1    3    3    0    0  0.29437008609E+02 -0.98603658675E+01 -0.17409087465E+03  0.17684003202E+03  0.10000000000E+01 0.  0.
<mgrwt>
<rscale>  0 0.12500139E+03</rscale>
<asrwt>0</asrwt>
<pdfrwt beam="1">  1        4 0.31985876E-02 0.12500139E+03</pdfrwt>
<pdfrwt beam="2">  1       -4 0.28905781E-01 0.12500139E+03</pdfrwt>
<totfact> 0.88689423E+03</totfact>
</mgrwt>
</event>
<event>
 5    1  0.3311405E-002  0.1249983E+03  0.7818608E-02  0.1235072E+00
          4   -1    0    0  501    0  0.00000000000E+00  0.00000000000E+00  0.18234114815E+02  0.18278288844E+02  0.12700000000E+01 0.  1.
         -4   -1    0    0    0  501 -0.00000000000E+00 -0.00000000000E+00 -0.21391658115E+03  0.21392035104E+03  0.12700000000E+01 0.  1.
         25    2    1    2    0    0  0.00000000000E+00  0.00000000000E+00 -0.19568246633E+03  0.23219863989E+03  0.12499832293E+03 0.  0.
    9000005    1    3    3    0    0  0.57515986136E+02 -0.24172378799E+02 -0.91207541336E+02  0.11050886007E+03  0.10000000000E+01 0.  0.
    9000005    1    3    3    0    0 -0.57515986136E+02  0.24172378799E+02 -0.10447492500E+03  0.12168977982E+03  0.10000000000E+01 0.  0.
<mgrwt>
<rscale>  0 0.12499832E+03</rscale>
<asrwt>0</asrwt>
<pdfrwt beam="1">  1        4 0.28089366E-02 0.12499832E+03</pdfrwt>
<pdfrwt beam="2">  1       -4 0.32913929E-01 0.12499832E+03</pdfrwt>
<totfact> 0.84976313E+03</totfact>
</mgrwt>
</event>
<event>
 5    1  0.3311405E-002  0.1250039E+03  0.7818608E-02  0.1235063E+00
         -4   -1    0    0    0  501 -0.00000000000E+00  0.00000000000E+00  0.90187370649E+02  0.90196312145E+02  0.12700000000E+01 0. -1.
          4   -1    0    0  501    0  0.00000000000E+00 -0.00000000000E+00 -0.43294892358E+02  0.43313515261E+02  0.12700000000E+01 0. -1.
         25    2    1    2    0    0  0.00000000000E+00  0.00000000000E+00  0.46892478291E+02  0.13350982741E+03  0.12500387792E+03 0.  0.
    9000005    1    3    3    0    0  0.30954961422E+02 -0.53392362255E+02  0.12952270229E+02  0.63069131022E+02  0.10000000000E+01 0.  0.
    9000005    1    3    3    0    0 -0.30954961422E+02  0.53392362255E+02  0.33940208061E+02  0.70440696384E+02  0.10000000000E+01 0.  0.
<mgrwt>
<rscale>  0 0.12500388E+03</rscale>
<asrwt>0</asrwt>
<pdfrwt beam="2">  1        4 0.66628731E-02 0.12500388E+03</pdfrwt>
<pdfrwt beam="1">  1       -4 0.13877100E-01 0.12500388E+03</pdfrwt>
<totfact> 0.10268678E+04</totfact>
</mgrwt>
</event>
<event>
 5    1  0.3311405E-002  0.1250029E+03  0.7818608E-02  0.1235065E+00
          4   -1    0    0  501    0  0.00000000000E+00  0.00000000000E+00  0.16560396491E+01  0.20869516812E+01  0.12700000000E+01 0. -1.
         -4   -1    0    0    0  501 -0.00000000000E+00 -0.00000000000E+00 -0.20869006861E+04  0.20869010726E+04  0.12700000000E+01 0. -1.
         25    2    1    2    0    0  0.00000000000E+00  0.00000000000E+00 -0.20852446465E+04  0.20889880242E+04  0.12500291902E+03 0.  0.
    9000005    1    3    3    0    0  0.32287957088E+01  0.79598494330E+01 -0.20770701816E+04  0.20770881839E+04  0.10000000000E+01 0.  0.
    9000005    1    3    3    0    0 -0.32287957088E+01 -0.79598494330E+01 -0.81744648950E+01  0.11899840379E+02  0.10000000000E+01 0.  0.
<mgrwt>
<rscale>  0 0.12500292E+03</rscale>
<asrwt>0</asrwt>
<pdfrwt beam="1">  1        4 0.28795381E-03 0.12500292E+03</pdfrwt>
<pdfrwt beam="2">  1       -4 0.32109296E+00 0.12500292E+03</pdfrwt>
<totfact> 0.87436984E+02</totfact>
</mgrwt>
</event>
<event>
 5    1  0.3311405E-002  0.1250120E+03  0.7818608E-02  0.1235050E+00
          4   -1    0    0  501    0  0.00000000000E+00  0.00000000000E+00  0.17395901087E+02  0.17442198102E+02  0.12700000000E+01 0. -1.
         -4   -1    0    0    0  501 -0.00000000000E+00 -0.00000000000E+00 -0.22424672806E+03  0.22425032429E+03  0.12700000000E+01 0. -1.
         25    2    1    2    0    0  0.00000000000E+00  0.00000000000E+00 -0.20685082697E+03  0.24169252239E+03  0.12501204247E+03 0.  0.
    9000005    1    3    3    0    0 -0.26102963654E+02  0.47232408410E+02 -0.42479131165E+02  0.68685818771E+02  0.10000000000E+01 0.  0.
    9000005    1    3    3    0    0  0.26102963654E+02 -0.47232408410E+02 -0.16437169580E+03  0.17300670362E+03  0.10000000000E+01 0.  0.
<mgrwt>
<rscale>  0 0.12501204E+03</rscale>
<asrwt>0</asrwt>
<pdfrwt beam="1">  1        4 0.26801306E-02 0.12501204E+03</pdfrwt>
<pdfrwt beam="2">  1       -4 0.34503333E-01 0.12501204E+03</pdfrwt>
<totfact> 0.83523519E+03</totfact>
</mgrwt>
</event>
<event>
 5    1  0.3311405E-002  0.1249946E+03  0.7818608E-02  0.1235078E+00
         -4   -1    0    0    0  501 -0.00000000000E+00  0.00000000000E+00  0.62154078117E+03  0.62154207867E+03  0.12700000000E+01 0.  1.
          4   -1    0    0  501    0  0.00000000000E+00 -0.00000000000E+00 -0.62187563633E+01  0.63471119973E+01  0.12700000000E+01 0.  1.
         25    2    1    2    0    0  0.00000000000E+00  0.00000000000E+00  0.61532202480E+03  0.62788919066E+03  0.12499456606E+03 0.  0.
    9000005    1    3    3    0    0 -0.33713700096E+02 -0.34443694538E+02  0.50745634046E+03  0.50974103144E+03  0.10000000000E+01 0.  0.
    9000005    1    3    3    0    0  0.33713700096E+02  0.34443694538E+02  0.10786568435E+03  0.11814815922E+03  0.10000000000E+01 0.  0.
<mgrwt>
<rscale>  0 0.12499457E+03</rscale>
<asrwt>0</asrwt>
<pdfrwt beam="2">  1        4 0.96670537E-03 0.12499457E+03</pdfrwt>
<pdfrwt beam="1">  1       -4 0.95631602E-01 0.12499457E+03</pdfrwt>
<totfact> 0.47158821E+03</totfact>
</mgrwt>
</event>
<event>
 4    1  0.3311405E-002  0.1248812E+03  0.7818608E-02  0.1235255E+00
         -4   -1    0    0    0  501 -0.00000000000E+00  0.00000000000E+00  0.37058855522E+01  0.39174593458E+01  0.12700000000E+01 0. -1.
          4   -1    0    0  501    0  0.00000000000E+00 -0.00000000000E+00 -0.10226533629E+04  0.10226541515E+04  0.12700000000E+01 0. -1.
    9000005    1    1    2    0    0 -0.11905891139E+02 -0.59552881542E+02 -0.39048191969E+03  0.39517771389E+03  0.10000000000E+01 0.  0.
    9000005    1    1    2    0    0  0.11905891139E+02  0.59552881542E+02 -0.62846555769E+03  0.63139389698E+03  0.10000000000E+01 0.  0.
<mgrwt>
<rscale>  0 0.12488119E+03</rscale>
<asrwt>0</asrwt>
<pdfrwt beam="2">  1        4 0.15734740E+00 0.12488119E+03</pdfrwt>
<pdfrwt beam="1">  1       -4 0.58647262E-03 0.12488119E+03</pdfrwt>
<totfact> 0.29814956E+03</totfact>
</mgrwt>
</event>
<event>
 5    1  0.3311405E-002  0.1249974E+03  0.7818608E-02  0.1235073E+00
         -4   -1    0    0    0  501 -0.00000000000E+00  0.00000000000E+00  0.53480380502E+02  0.53495457738E+02  0.12700000000E+01 0.  1.
          4   -1    0    0  501    0  0.00000000000E+00 -0.00000000000E+00 -0.73006814281E+02  0.73017859675E+02  0.12700000000E+01 0.  1.
         25    2    1    2    0    0  0.00000000000E+00  0.00000000000E+00 -0.19526433780E+02  0.12651331741E+03  0.12499735144E+03 0.  0.
    9000005    1    3    3    0    0  0.21143516683E+01 -0.39185336647E+02 -0.58985565649E+02  0.70853779335E+02  0.10000000000E+01 0.  0.
    9000005    1    3    3    0    0 -0.21143516683E+01  0.39185336647E+02  0.39459131870E+02  0.55659538078E+02  0.10000000000E+01 0.  0.
<mgrwt>
<rscale>  0 0.12499735E+03</rscale>
<asrwt>0</asrwt>
<pdfrwt beam="2">  1        4 0.11233827E-01 0.12499735E+03</pdfrwt>
<pdfrwt beam="1">  1       -4 0.82297603E-02 0.12499735E+03</pdfrwt>
<totfact> 0.10420361E+04</totfact>
</mgrwt>
</event>
<event>
 5    1  0.3311405E-002  0.1249992E+03  0.7818608E-02  0.1235070E+00
         -4   -1    0    0    0  501 -0.00000000000E+00  0.00000000000E+00  0.65780061518E+02  0.65792320170E+02  0.12700000000E+01 0. -1.
          4   -1    0    0  501    0  0.00000000000E+00 -0.00000000000E+00 -0.59358194418E+02  0.59371779024E+02  0.12700000000E+01 0. -1.
         25    2    1    2    0    0  0.00000000000E+00  0.00000000000E+00  0.64218671008E+01  0.12516409919E+03  0.12499924540E+03 0.  0.
    9000005    1    3    3    0    0  0.37092766209E+02  0.32098235706E+02 -0.35557473280E+02  0.60592936441E+02  0.10000000000E+01 0.  0.
    9000005    1    3    3    0    0 -0.37092766209E+02 -0.32098235706E+02  0.41979340381E+02  0.64571162753E+02  0.10000000000E+01 0.  0.
<mgrwt>
<rscale>  0 0.12499925E+03</rscale>
<asrwt>0</asrwt>
<pdfrwt beam="2">  1        4 0.91340178E-02 0.12499925E+03</pdfrwt>
<pdfrwt beam="1">  1       -4 0.10121997E-01 0.12499925E+03</pdfrwt>
<totfact> 0.10449478E+04</totfact>
</mgrwt>
</event>
<event>
 5    1  0.3311405E-002  0.1249977E+03  0.7818608E-02  0.1235073E+00
          4   -1    0    0  501    0  0.00000000000E+00  0.00000000000E+00  0.13952770070E+02  0.14010449408E+02  0.12700000000E+01 0. -1.
         -4   -1    0    0    0  501 -0.00000000000E+00 -0.00000000000E+00 -0.27931544931E+03  0.27931833654E+03  0.12700000000E+01 0. -1.
         25    2    1    2    0    0  0.00000000000E+00  0.00000000000E+00 -0.26536267924E+03  0.29332878594E+03  0.12499770049E+03 0.  0.
    9000005    1    3    3    0    0 -0.21361351031E+02 -0.41238188644E+02 -0.23079953587E+03  0.23542795348E+03  0.10000000000E+01 0.  0.
    9000005    1    3    3    0    0  0.21361351031E+02  0.41238188644E+02 -0.34563143374E+02  0.57900832467E+02  0.10000000000E+01 0.  0.
<mgrwt>
<rscale>  0 0.12499770E+03</rscale>
<asrwt>0</asrwt>
<pdfrwt beam="1">  1        4 0.21512392E-02 0.12499770E+03</pdfrwt>
<pdfrwt beam="2">  1       -4 0.42976263E-01 0.12499770E+03</pdfrwt>
<totfact> 0.76447262E+03</totfact>
</mgrwt>
</event>
<event>
 5    1  0.3311405E-002  0.1250040E+03  0.7818608E-02  0.1235063E+00
          4   -1    0    0  501    0  0.00000000000E+00  0.00000000000E+00  0.33325146897E+03  0.33325388890E+03  0.12700000000E+01 0. -1.
         -4   -1    0    0    0  501 -0.00000000000E+00 -0.00000000000E+00 -0.11685501816E+02  0.11754312090E+02  0.12700000000E+01 0. -1.
         25    2    1    2    0    0  0.00000000000E+00  0.00000000000E+00  0.32156596715E+03  0.34500820099E+03  0.12500395003E+03 0.  0.
    9000005    1    3    3    0    0 -0.48453928354E+02  0.12719206131E+02  0.57664062969E+02  0.76391789713E+02  0.10000000000E+01 0.  0.
    9000005    1    3    3    0    0  0.48453928354E+02 -0.12719206131E+02  0.26390190418E+03  0.26861641128E+03  0.10000000000E+01 0.  0.
<mgrwt>
<rscale>  0 0.12500395E+03</rscale>
<asrwt>0</asrwt>
<pdfrwt beam="1">  1        4 0.51274927E-01 0.12500395E+03</pdfrwt>
<pdfrwt beam="2">  1       -4 0.18032491E-02 0.12500395E+03</pdfrwt>
<totfact> 0.70271088E+03</totfact>
</mgrwt>
</event>
<event>
 5    1  0.3311405E-002  0.1250008E+03  0.7818608E-02  0.1235068E+00
          4   -1    0    0  501    0  0.00000000000E+00  0.00000000000E+00  0.33301190227E+02  0.33325398280E+02  0.12700000000E+01 0. -1.
         -4   -1    0    0    0  501 -0.00000000000E+00 -0.00000000000E+00 -0.11723180052E+03  0.11723867942E+03  0.12700000000E+01 0. -1.
         25    2    1    2    0    0  0.00000000000E+00  0.00000000000E+00 -0.83930610291E+02  0.15056407770E+03  0.12500077660E+03 0.  0.
    9000005    1    3    3    0    0 -0.43995024682E+02  0.35692128694E+02 -0.73737956439E+02  0.92993421635E+02  0.10000000000E+01 0.  0.
    9000005    1    3    3    0    0  0.43995024682E+02 -0.35692128694E+02 -0.10192653852E+02  0.57570656068E+02  0.10000000000E+01 0.  0.
<mgrwt>
<rscale>  0 0.12500078E+03</rscale>
<asrwt>0</asrwt>
<pdfrwt beam="1">  1        4 0.51256514E-02 0.12500078E+03</pdfrwt>
<pdfrwt beam="2">  1       -4 0.18038053E-01 0.12500078E+03</pdfrwt>
<totfact> 0.99189643E+03</totfact>
</mgrwt>
</event>
<event>
 5    1  0.3311405E-002  0.1249977E+03  0.7818608E-02  0.1235073E+00
          4   -1    0    0  501    0  0.00000000000E+00  0.00000000000E+00  0.14281930141E+03  0.14282494794E+03  0.12700000000E+01 0.  1.
         -4   -1    0    0    0  501 -0.00000000000E+00 -0.00000000000E+00 -0.27329068808E+02  0.27358561766E+02  0.12700000000E+01 0.  1.
         25    2    1    2    0    0  0.00000000000E+00  0.00000000000E+00  0.11549023260E+03  0.17018350971E+03  0.12499773258E+03 0.  0.
    9000005    1    3    3    0    0 -0.33461400761E+02  0.17016370909E+02  0.12576372106E+03  0.13125066002E+03  0.10000000000E+01 0.  0.
    9000005    1    3    3    0    0  0.33461400761E+02 -0.17016370909E+02 -0.10273488462E+02  0.38932849690E+02  0.10000000000E+01 0.  0.
<mgrwt>
<rscale>  0 0.12499773E+03</rscale>
<asrwt>0</asrwt>
<pdfrwt beam="1">  1        4 0.21974903E-01 0.12499773E+03</pdfrwt>
<pdfrwt beam="2">  1       -4 0.42071752E-02 0.12499773E+03</pdfrwt>
<totfact> 0.95419299E+03</totfact>
</mgrwt>
</event>
<event>
 5    1  0.3311405E-002  0.1249980E+03  0.7818608E-02  0.1235072E+00
         -4   -1    0    0    0  501 -0.00000000000E+00  0.00000000000E+00  0.10955990341E+02  0.11029352852E+02  0.12700000000E+01 0.  1.
          4   -1    0    0  501    0  0.00000000000E+00 -0.00000000000E+00 -0.35526449297E+03  0.35526676296E+03  0.12700000000E+01 0.  1.
         25    2    1    2    0    0  0.00000000000E+00  0.00000000000E+00 -0.34430850262E+03  0.36629611581E+03  0.12499799789E+03 0.  0.
    9000005    1    3    3    0    0  0.60451254062E+02 -0.15613584682E+02 -0.17990004780E+03  0.19042889839E+03  0.10000000000E+01 0.  0.
    9000005    1    3    3    0    0 -0.60451254062E+02  0.15613584682E+02 -0.16440845482E+03  0.17586721742E+03  0.10000000000E+01 0.  0.
<mgrwt>
<rscale>  0 0.12499800E+03</rscale>
<asrwt>0</asrwt>
<pdfrwt beam="2">  1        4 0.54661885E-01 0.12499800E+03</pdfrwt>
<pdfrwt beam="1">  1       -4 0.16913551E-02 0.12499800E+03</pdfrwt>
<totfact> 0.67971234E+03</totfact>
</mgrwt>
</event>
<event>
 5    1  0.3311405E-002  0.1249983E+03  0.7818608E-02  0.1235072E+00
          4   -1    0    0  501    0  0.00000000000E+00  0.00000000000E+00  0.15703457144E+03  0.15703970685E+03  0.12700000000E+01 0.  1.
         -4   -1    0    0    0  501 -0.00000000000E+00 -0.00000000000E+00 -0.24852643783E+02  0.24885071890E+02  0.12700000000E+01 0.  1.
         25    2    1    2    0    0  0.00000000000E+00  0.00000000000E+00  0.13218192766E+03  0.18192477874E+03  0.12499825247E+03 0.  0.
    9000005    1    3    3    0    0 -0.33400185587E+02 -0.47072746716E+02  0.10095195759E+03  0.11629150280E+03  0.10000000000E+01 0.  0.
    9000005    1    3    3    0    0  0.33400185587E+02  0.47072746716E+02  0.31229970060E+02  0.65633275940E+02  0.10000000000E+01 0.  0.
<mgrwt>
<rscale>  0 0.12499825E+03</rscale>
<asrwt>0</asrwt>
<pdfrwt beam="1">  1        4 0.24162054E-01 0.12499825E+03</pdfrwt>
<pdfrwt beam="2">  1       -4 0.38263731E-02 0.12499825E+03</pdfrwt>
<totfact> 0.93275333E+03</totfact>
</mgrwt>
</event>
