<event>
 5    1  0.3217527E-002  0.1250004E+03  0.7818608E-02  0.1235069E+00
         -4   -1    0    0    0  501 -0.00000000000E+00  0.00000000000E+00  0.12083541645E+02  0.12150097887E+02  0.12700000000E+01 0.  1.
          4   -1    0    0  501    0  0.00000000000E+00 -0.00000000000E+00 -0.32231659426E+03  0.32231909629E+03  0.12700000000E+01 0.  1.
         25    2    1    2    0    0  0.00000000000E+00  0.00000000000E+00 -0.31023305262E+03  0.33446919418E+03  0.12500037968E+03 0.  0.
    9000005    1    3    3    0    0 -0.18408004060E+02  0.50042949917E+02 -0.67913400751E+02  0.86350341351E+02  0.10000000000E+01 0.  0.
    9000005    1    3    3    0    0  0.18408004060E+02 -0.50042949917E+02 -0.24231965187E+03  0.24811885283E+03  0.10000000000E+01 0.  0.
<mgrwt>
<rscale>  0 0.12500038E+03</rscale>
<asrwt>0</asrwt>
<pdfrwt beam="2">  1        4 0.49592474E-01 0.12500038E+03</pdfrwt>
<pdfrwt beam="1">  1       -4 0.18643188E-02 0.12500038E+03</pdfrwt>
<totfact> 0.71467024E+03</totfact>
</mgrwt>
</event>
<event>
 5    1  0.3217527E-002  0.1249983E+03  0.7818608E-02  0.1235072E+00
          4   -1    0    0  501    0  0.00000000000E+00  0.00000000000E+00  0.77018216967E+03  0.77018321676E+03  0.12700000000E+01 0. -1.
         -4   -1    0    0    0  501 -0.00000000000E+00 -0.00000000000E+00 -0.49911438748E+01  0.51501861305E+01  0.12700000000E+01 0. -1.
         25    2    1    2    0    0  0.00000000000E+00  0.00000000000E+00  0.76519102579E+03  0.77533340289E+03  0.12499831870E+03 0.  0.
    9000005    1    3    3    0    0  0.55026343369E+02 -0.18025671816E+01  0.19922084286E+03  0.20669081243E+03  0.10000000000E+01 0.  0.
    9000005    1    3    3    0    0 -0.55026343369E+02  0.18025671816E+01  0.56597018294E+03  0.56864259046E+03  0.10000000000E+01 0.  0.
<mgrwt>
<rscale>  0 0.12499832E+03</rscale>
<asrwt>0</asrwt>
<pdfrwt beam="1">  1        4 0.11850186E+00 0.12499832E+03</pdfrwt>
<pdfrwt beam="2">  1       -4 0.78018295E-03 0.12499832E+03</pdfrwt>
<totfact> 0.39391341E+03</totfact>
</mgrwt>
</event>
<event>
 5    1  0.3217527E-002  0.1250005E+03  0.7818608E-02  0.1235068E+00
         -4   -1    0    0    0  501 -0.00000000000E+00  0.00000000000E+00  0.13081588058E+02  0.13143091193E+02  0.12700000000E+01 0.  1.
          4   -1    0    0  501    0  0.00000000000E+00 -0.00000000000E+00 -0.29784595893E+03  0.29784866653E+03  0.12700000000E+01 0.  1.
         25    2    1    2    0    0  0.00000000000E+00  0.00000000000E+00 -0.28476437087E+03  0.31099175772E+03  0.12500050580E+03 0.  0.
    9000005    1    3    3    0    0 -0.37787881180E+02  0.49483975036E+02 -0.15570916158E+03  0.16769892888E+03  0.10000000000E+01 0.  0.
    9000005    1    3    3    0    0  0.37787881180E+02 -0.49483975036E+02 -0.12905520930E+03  0.14329282884E+03  0.10000000000E+01 0.  0.
<mgrwt>
<rscale>  0 0.12500051E+03</rscale>
<asrwt>0</asrwt>
<pdfrwt beam="2">  1        4 0.45827389E-01 0.12500051E+03</pdfrwt>
<pdfrwt beam="1">  1       -4 0.20174915E-02 0.12500051E+03</pdfrwt>
<totfact> 0.74239588E+03</totfact>
</mgrwt>
</event>
<event>
 5    1  0.3217527E-002  0.1249995E+03  0.7818608E-02  0.1235070E+00
         -4   -1    0    0    0  501 -0.00000000000E+00  0.00000000000E+00  0.24460922785E+02  0.24493869508E+02  0.12700000000E+01 0. -1.
          4   -1    0    0  501    0  0.00000000000E+00 -0.00000000000E+00 -0.15954934003E+03  0.15955439450E+03  0.12700000000E+01 0. -1.
         25    2    1    2    0    0  0.00000000000E+00  0.00000000000E+00 -0.13508841724E+03  0.18404826401E+03  0.12499953204E+03 0.  0.
    9000005    1    3    3    0    0 -0.77609822330E+01  0.55321123357E+02 -0.10878592740E+03  0.12229487943E+03  0.10000000000E+01 0.  0.
    9000005    1    3    3    0    0  0.77609822330E+01 -0.55321123357E+02 -0.26302489845E+02  0.61753384577E+02  0.10000000000E+01 0.  0.
<mgrwt>
<rscale>  0 0.12499953E+03</rscale>
<asrwt>0</asrwt>
<pdfrwt beam="2">  1        4 0.24548975E-01 0.12499953E+03</pdfrwt>
<pdfrwt beam="1">  1       -4 0.37661422E-02 0.12499953E+03</pdfrwt>
<totfact> 0.92894311E+03</totfact>
</mgrwt>
</event>
<event>
 5    1  0.3217527E-002  0.1250019E+03  0.7818608E-02  0.1235066E+00
          4   -1    0    0  501    0  0.00000000000E+00  0.00000000000E+00  0.87337601340E+01  0.88256142040E+01  0.12700000000E+01 0.  1.
         -4   -1    0    0    0  501 -0.00000000000E+00 -0.00000000000E+00 -0.44484002012E+03  0.44484183301E+03  0.12700000000E+01 0.  1.
         25    2    1    2    0    0  0.00000000000E+00  0.00000000000E+00 -0.43610625998E+03  0.45366744722E+03  0.12500193065E+03 0.  0.
    9000005    1    3    3    0    0  0.13329089146E+02 -0.29499387786E+02 -0.41205835268E+03  0.41332912372E+03  0.10000000000E+01 0.  0.
    9000005    1    3    3    0    0 -0.13329089146E+02  0.29499387786E+02 -0.24047907300E+02  0.40338323499E+02  0.10000000000E+01 0.  0.
<mgrwt>
<rscale>  0 0.12500193E+03</rscale>
<asrwt>0</asrwt>
<pdfrwt beam="1">  1        4 0.13508609E-02 0.12500193E+03</pdfrwt>
<pdfrwt beam="2">  1       -4 0.68444114E-01 0.12500193E+03</pdfrwt>
<totfact> 0.59644867E+03</totfact>
</mgrwt>
</event>
<event>
 5    1  0.3217527E-002  0.1250000E+03  0.7818608E-02  0.1235069E+00
         -4   -1    0    0    0  501 -0.00000000000E+00  0.00000000000E+00  0.28224240013E+02  0.28252798522E+02  0.12700000000E+01 0. -1.
          4   -1    0    0  501    0  0.00000000000E+00 -0.00000000000E+00 -0.13829902988E+03  0.13830486096E+03  0.12700000000E+01 0. -1.
         25    2    1    2    0    0  0.00000000000E+00  0.00000000000E+00 -0.11007478986E+03  0.16655765948E+03  0.12499997827E+03 0.  0.
    9000005    1    3    3    0    0  0.54651327766E+02  0.98446502645E+01 -0.16845136569E+02  0.58038292458E+02  0.10000000000E+01 0.  0.
    9000005    1    3    3    0    0 -0.54651327766E+02 -0.98446502645E+01 -0.93229653294E+02  0.10851936702E+03  0.10000000000E+01 0.  0.
<mgrwt>
<rscale>  0 0.12499998E+03</rscale>
<asrwt>0</asrwt>
<pdfrwt beam="2">  1        4 0.21279419E-01 0.12499998E+03</pdfrwt>
<pdfrwt beam="1">  1       -4 0.43448362E-02 0.12499998E+03</pdfrwt>
<totfact> 0.96093254E+03</totfact>
</mgrwt>
</event>
<event>
 5    1  0.3217527E-002  0.1249982E+03  0.7818608E-02  0.1235072E+00
         -4   -1    0    0    0  501 -0.00000000000E+00  0.00000000000E+00  0.14869598756E+02  0.14923735028E+02  0.12700000000E+01 0. -1.
          4   -1    0    0  501    0  0.00000000000E+00 -0.00000000000E+00 -0.26215994070E+03  0.26216301686E+03  0.12700000000E+01 0. -1.
         25    2    1    2    0    0  0.00000000000E+00  0.00000000000E+00 -0.24729034195E+03  0.27708675189E+03  0.12499821940E+03 0.  0.
    9000005    1    3    3    0    0 -0.89020470652E+01  0.29892034925E+02 -0.24368364584E+03  0.24567356277E+03  0.10000000000E+01 0.  0.
    9000005    1    3    3    0    0  0.89020470652E+01 -0.29892034925E+02 -0.36066961076E+01  0.31413189120E+02  0.10000000000E+01 0.  0.
<mgrwt>
<rscale>  0 0.12499822E+03</rscale>
<asrwt>0</asrwt>
<pdfrwt beam="2">  1        4 0.40336696E-01 0.12499822E+03</pdfrwt>
<pdfrwt beam="1">  1       -4 0.22920317E-02 0.12499822E+03</pdfrwt>
<totfact> 0.78569085E+03</totfact>
</mgrwt>
</event>
<event>
 5    1  0.3217527E-002  0.1250030E+03  0.7818608E-02  0.1235065E+00
          4   -1    0    0  501    0  0.00000000000E+00  0.00000000000E+00  0.27915085029E+02  0.27943959494E+02  0.12700000000E+01 0. -1.
         -4   -1    0    0    0  501 -0.00000000000E+00 -0.00000000000E+00 -0.13983594657E+03  0.13984171357E+03  0.12700000000E+01 0. -1.
         25    2    1    2    0    0  0.00000000000E+00  0.00000000000E+00 -0.11192086154E+03  0.16778567306E+03  0.12500301131E+03 0.  0.
    9000005    1    3    3    0    0 -0.38492839329E+02 -0.37906368792E+02 -0.98126124828E+02  0.11201931909E+03  0.10000000000E+01 0.  0.
    9000005    1    3    3    0    0  0.38492839329E+02  0.37906368792E+02 -0.13794736713E+02  0.55766353975E+02  0.10000000000E+01 0.  0.
<mgrwt>
<rscale>  0 0.12500301E+03</rscale>
<asrwt>0</asrwt>
<pdfrwt beam="1">  1        4 0.42972933E-02 0.12500301E+03</pdfrwt>
<pdfrwt beam="2">  1       -4 0.21515887E-01 0.12500301E+03</pdfrwt>
<totfact> 0.95855933E+03</totfact>
</mgrwt>
</event>
<event>
 5    1  0.3217527E-002  0.1249616E+03  0.7818608E-02  0.1235129E+00
          4   -1    0    0  501    0  0.00000000000E+00  0.00000000000E+00  0.48975798403E+01  0.50595640417E+01  0.12700000000E+01 0.  1.
         -4   -1    0    0    0  501 -0.00000000000E+00 -0.00000000000E+00 -0.78396858050E+03  0.78396960918E+03  0.12700000000E+01 0.  1.
         25    2    1    2    0    0  0.00000000000E+00  0.00000000000E+00 -0.77907100066E+03  0.78902917322E+03  0.12496164259E+03 0.  0.
    9000005    1    3    3    0    0  0.18986844410E+02 -0.55457770801E+02 -0.52595497591E+03  0.52921234045E+03  0.10000000000E+01 0.  0.
    9000005    1    3    3    0    0 -0.18986844410E+02  0.55457770801E+02 -0.25311602475E+03  0.25981683277E+03  0.10000000000E+01 0.  0.
<mgrwt>
<rscale>  0 0.12496164E+03</rscale>
<asrwt>0</asrwt>
<pdfrwt beam="1">  1        4 0.76601390E-03 0.12496164E+03</pdfrwt>
<pdfrwt beam="2">  1       -4 0.12062299E+00 0.12496164E+03</pdfrwt>
<totfact> 0.38791741E+03</totfact>
</mgrwt>
</event>
<event>
 5    1  0.3217527E-002  0.1250029E+03  0.7818608E-02  0.1235065E+00
          4   -1    0    0  501    0  0.00000000000E+00  0.00000000000E+00  0.10640418764E+02  0.10715941932E+02  0.12700000000E+01 0.  1.
         -4   -1    0    0    0  501 -0.00000000000E+00 -0.00000000000E+00 -0.36575665136E+03  0.36575885624E+03  0.12700000000E+01 0.  1.
         25    2    1    2    0    0  0.00000000000E+00  0.00000000000E+00 -0.35511623260E+03  0.37647479817E+03  0.12500293997E+03 0.  0.
    9000005    1    3    3    0    0  0.11767839284E+02 -0.34492168988E+02 -0.33045311543E+03  0.33245819776E+03  0.10000000000E+01 0.  0.
    9000005    1    3    3    0    0 -0.11767839284E+02  0.34492168988E+02 -0.24663117172E+02  0.44016600409E+02  0.10000000000E+01 0.  0.
<mgrwt>
<rscale>  0 0.12500294E+03</rscale>
<asrwt>0</asrwt>
<pdfrwt beam="1">  1        4 0.16429669E-02 0.12500294E+03</pdfrwt>
<pdfrwt beam="2">  1       -4 0.56276223E-01 0.12500294E+03</pdfrwt>
<totfact> 0.66902606E+03</totfact>
</mgrwt>
</event>
<event>
 5    1  0.3217527E-002  0.1250028E+03  0.7818608E-02  0.1235065E+00
          4   -1    0    0  501    0  0.00000000000E+00  0.00000000000E+00  0.59711988663E+01  0.61047617399E+01  0.12700000000E+01 0. -1.
         -4   -1    0    0    0  501 -0.00000000000E+00 -0.00000000000E+00 -0.64684129295E+03  0.64684253970E+03  0.12700000000E+01 0. -1.
         25    2    1    2    0    0  0.00000000000E+00  0.00000000000E+00 -0.64087009408E+03  0.65294730144E+03  0.12500280383E+03 0.  0.
    9000005    1    3    3    0    0  0.97633418218E+01 -0.42255619277E+01  0.12320846931E+01  0.10756219123E+02  0.10000000000E+01 0.  0.
    9000005    1    3    3    0    0 -0.97633418218E+01  0.42255619277E+01 -0.64210217878E+03  0.64219108232E+03  0.10000000000E+01 0.  0.
<mgrwt>
<rscale>  0 0.12500280E+03</rscale>
<asrwt>0</asrwt>
<pdfrwt beam="1">  1        4 0.92901646E-03 0.12500280E+03</pdfrwt>
<pdfrwt beam="2">  1       -4 0.99524360E-01 0.12500280E+03</pdfrwt>
<totfact> 0.45684356E+03</totfact>
</mgrwt>
</event>
<event>
 5    1  0.3217527E-002  0.1250015E+03  0.7818608E-02  0.1235067E+00
          4   -1    0    0  501    0  0.00000000000E+00  0.00000000000E+00  0.47798480092E+02  0.47815348990E+02  0.12700000000E+01 0. -1.
         -4   -1    0    0    0  501 -0.00000000000E+00 -0.00000000000E+00 -0.81688986597E+02  0.81698858201E+02  0.12700000000E+01 0. -1.
         25    2    1    2    0    0  0.00000000000E+00  0.00000000000E+00 -0.33890506506E+02  0.12951420719E+03  0.12500145372E+03 0.  0.
    9000005    1    3    3    0    0 -0.40207392448E+02  0.44889058620E+01 -0.66294112353E+02  0.77670419182E+02  0.10000000000E+01 0.  0.
    9000005    1    3    3    0    0  0.40207392448E+02 -0.44889058620E+01  0.32403605847E+02  0.51843788009E+02  0.10000000000E+01 0.  0.
<mgrwt>
<rscale>  0 0.12500145E+03</rscale>
<asrwt>0</asrwt>
<pdfrwt beam="1">  1        4 0.73556693E-02 0.12500145E+03</pdfrwt>
<pdfrwt beam="2">  1       -4 0.12569593E-01 0.12500145E+03</pdfrwt>
<totfact> 0.10354571E+04</totfact>
</mgrwt>
</event>
<event>
 5    1  0.3217527E-002  0.1249981E+03  0.7818608E-02  0.1235072E+00
         -4   -1    0    0    0  501 -0.00000000000E+00  0.00000000000E+00  0.10617449754E+03  0.10618209278E+03  0.12700000000E+01 0. -1.
          4   -1    0    0  501    0  0.00000000000E+00 -0.00000000000E+00 -0.36769851355E+02  0.36791777188E+02  0.12700000000E+01 0. -1.
         25    2    1    2    0    0  0.00000000000E+00  0.00000000000E+00  0.69404646181E+02  0.14297386997E+03  0.12499809031E+03 0.  0.
    9000005    1    3    3    0    0 -0.41893539963E+02 -0.44644976367E+02  0.49029090602E+02  0.78441661958E+02  0.10000000000E+01 0.  0.
    9000005    1    3    3    0    0  0.41893539963E+02  0.44644976367E+02  0.20375555579E+02  0.64532208010E+02  0.10000000000E+01 0.  0.
<mgrwt>
<rscale>  0 0.12499809E+03</rscale>
<asrwt>0</asrwt>
<pdfrwt beam="2">  1        4 0.56591711E-02 0.12499809E+03</pdfrwt>
<pdfrwt beam="1">  1       -4 0.16336809E-01 0.12499809E+03</pdfrwt>
<totfact> 0.10072752E+04</totfact>
</mgrwt>
</event>
<event>
 5    1  0.3217527E-002  0.1249996E+03  0.7818608E-02  0.1235070E+00
          4   -1    0    0  501    0  0.00000000000E+00  0.00000000000E+00  0.59355006641E+02  0.59368591977E+02  0.12700000000E+01 0.  1.
         -4   -1    0    0    0  501 -0.00000000000E+00 -0.00000000000E+00 -0.65783959176E+02  0.65796217102E+02  0.12700000000E+01 0.  1.
         25    2    1    2    0    0  0.00000000000E+00  0.00000000000E+00 -0.64289525349E+01  0.12516480908E+03  0.12499959200E+03 0.  0.
    9000005    1    3    3    0    0 -0.92131266562E+01  0.36353804093E+02  0.46839029848E+02  0.60011461338E+02  0.10000000000E+01 0.  0.
    9000005    1    3    3    0    0  0.92131266562E+01 -0.36353804093E+02 -0.53267982383E+02  0.65153347741E+02  0.10000000000E+01 0.  0.
<mgrwt>
<rscale>  0 0.12499959E+03</rscale>
<asrwt>0</asrwt>
<pdfrwt beam="1">  1        4 0.91335275E-02 0.12499959E+03</pdfrwt>
<pdfrwt beam="2">  1       -4 0.10122597E-01 0.12499959E+03</pdfrwt>
<totfact> 0.10449380E+04</totfact>
</mgrwt>
</event>
<event>
 5    1  0.3217527E-002  0.1249995E+03  0.7818608E-02  0.1235070E+00
          4   -1    0    0  501    0  0.00000000000E+00  0.00000000000E+00  0.13220095450E+03  0.13220705454E+03  0.12700000000E+01 0. -1.
         -4   -1    0    0    0  501 -0.00000000000E+00 -0.00000000000E+00 -0.29527134364E+02  0.29554433910E+02  0.12700000000E+01 0. -1.
         25    2    1    2    0    0  0.00000000000E+00  0.00000000000E+00  0.10267382014E+03  0.16176148845E+03  0.12499946322E+03 0.  0.
    9000005    1    3    3    0    0  0.27615671899E+02  0.25228612405E+01  0.12380898268E+03  0.12688047271E+03  0.10000000000E+01 0.  0.
    9000005    1    3    3    0    0 -0.27615671899E+02 -0.25228612405E+01 -0.21135162544E+02  0.34881015740E+02  0.10000000000E+01 0.  0.
<mgrwt>
<rscale>  0 0.12499946E+03</rscale>
<asrwt>0</asrwt>
<pdfrwt beam="1">  1        4 0.20341178E-01 0.12499946E+03</pdfrwt>
<pdfrwt beam="2">  1       -4 0.45452052E-02 0.12499946E+03</pdfrwt>
<totfact> 0.97005425E+03</totfact>
</mgrwt>
</event>
<event>
 5    1  0.3217527E-002  0.1250032E+03  0.7818608E-02  0.1235064E+00
          4   -1    0    0  501    0  0.00000000000E+00  0.00000000000E+00  0.12157786141E+03  0.12158449442E+03  0.12700000000E+01 0.  1.
         -4   -1    0    0    0  501 -0.00000000000E+00 -0.00000000000E+00 -0.32111195004E+02  0.32136299485E+02  0.12700000000E+01 0.  1.
         25    2    1    2    0    0  0.00000000000E+00  0.00000000000E+00  0.89466666402E+02  0.15372079391E+03  0.12500319229E+03 0.  0.
    9000005    1    3    3    0    0 -0.51635449768E+02  0.35150603122E+02  0.47087544458E+02  0.78230565737E+02  0.10000000000E+01 0.  0.
    9000005    1    3    3    0    0  0.51635449768E+02 -0.35150603122E+02  0.42379121944E+02  0.75490228171E+02  0.10000000000E+01 0.  0.
<mgrwt>
<rscale>  0 0.12500319E+03</rscale>
<asrwt>0</asrwt>
<pdfrwt beam="1">  1        4 0.18706728E-01 0.12500319E+03</pdfrwt>
<pdfrwt beam="2">  1       -4 0.49426251E-02 0.12500319E+03</pdfrwt>
<totfact> 0.98560039E+03</totfact>
</mgrwt>
</event>
<event>
 5    1  0.3217527E-002  0.1249999E+03  0.7818608E-02  0.1235069E+00
         -4   -1    0    0    0  501 -0.00000000000E+00  0.00000000000E+00  0.91257591280E+02  0.91266427925E+02  0.12700000000E+01 0. -1.
          4   -1    0    0  501    0  0.00000000000E+00 -0.00000000000E+00 -0.42784235622E+02  0.42803080704E+02  0.12700000000E+01 0. -1.
         25    2    1    2    0    0  0.00000000000E+00  0.00000000000E+00  0.48473355657E+02  0.13406950863E+03  0.12499986774E+03 0.  0.
    9000005    1    3    3    0    0  0.60654303946E+02  0.14750751622E+02  0.27402534096E+02  0.68179382041E+02  0.10000000000E+01 0.  0.
    9000005    1    3    3    0    0 -0.60654303946E+02 -0.14750751622E+02  0.21070821561E+02  0.65890126589E+02  0.10000000000E+01 0.  0.
<mgrwt>
<rscale>  0 0.12499987E+03</rscale>
<asrwt>0</asrwt>
<pdfrwt beam="2">  1        4 0.65843195E-02 0.12499987E+03</pdfrwt>
<pdfrwt beam="1">  1       -4 0.14041759E-01 0.12499987E+03</pdfrwt>
<totfact> 0.10257751E+04</totfact>
</mgrwt>
</event>
<event>
 5    1  0.3217527E-002  0.1249892E+03  0.7818608E-02  0.1235086E+00
          4   -1    0    0  501    0  0.00000000000E+00  0.00000000000E+00  0.12731360943E+03  0.12731994363E+03  0.12700000000E+01 0.  1.
         -4   -1    0    0    0  501 -0.00000000000E+00 -0.00000000000E+00 -0.30656571004E+02  0.30682865670E+02  0.12700000000E+01 0.  1.
         25    2    1    2    0    0  0.00000000000E+00  0.00000000000E+00  0.96657038424E+02  0.15800280930E+03  0.12498921821E+03 0.  0.
    9000005    1    3    3    0    0  0.37028163885E+02 -0.21361262281E+02 -0.92857596638E+01  0.43756299883E+02  0.10000000000E+01 0.  0.
    9000005    1    3    3    0    0 -0.37028163885E+02  0.21361262281E+02  0.10594279809E+03  0.11424650942E+03  0.10000000000E+01 0.  0.
<mgrwt>
<rscale>  0 0.12498922E+03</rscale>
<asrwt>0</asrwt>
<pdfrwt beam="1">  1        4 0.19589219E-01 0.12498922E+03</pdfrwt>
<pdfrwt beam="2">  1       -4 0.47189054E-02 0.12498922E+03</pdfrwt>
<totfact> 0.97752908E+03</totfact>
</mgrwt>
</event>
<event>
 5    1  0.3217527E-002  0.1249963E+03  0.7818608E-02  0.1235075E+00
          4   -1    0    0  501    0  0.00000000000E+00  0.00000000000E+00  0.40705743093E+01  0.42640913695E+01  0.12700000000E+01 0. -1.
         -4   -1    0    0    0  501 -0.00000000000E+00 -0.00000000000E+00 -0.93710052409E+03  0.93710138466E+03  0.12700000000E+01 0. -1.
         25    2    1    2    0    0  0.00000000000E+00  0.00000000000E+00 -0.93302994978E+03  0.94136547603E+03  0.12499628911E+03 0.  0.
    9000005    1    3    3    0    0 -0.16509858885E+02 -0.58265218284E+02 -0.35042606435E+03  0.35562176210E+03  0.10000000000E+01 0.  0.
    9000005    1    3    3    0    0  0.16509858885E+02  0.58265218284E+02 -0.58260388543E+03  0.58574371394E+03  0.10000000000E+01 0.  0.
<mgrwt>
<rscale>  0 0.12499629E+03</rscale>
<asrwt>0</asrwt>
<pdfrwt beam="1">  1        4 0.64119507E-03 0.12499629E+03</pdfrwt>
<pdfrwt beam="2">  1       -4 0.14418410E+00 0.12499629E+03</pdfrwt>
<totfact> 0.32627209E+03</totfact>
</mgrwt>
</event>
<event>
 5    1  0.3217527E-002  0.1250034E+03  0.7818608E-02  0.1235064E+00
          4   -1    0    0  501    0  0.00000000000E+00  0.00000000000E+00  0.21532393728E+03  0.21532768253E+03  0.12700000000E+01 0.  1.
         -4   -1    0    0    0  501 -0.00000000000E+00 -0.00000000000E+00 -0.18116112610E+02  0.18160573672E+02  0.12700000000E+01 0.  1.
         25    2    1    2    0    0  0.00000000000E+00  0.00000000000E+00  0.19720782467E+03  0.23348825620E+03  0.12500335866E+03 0.  0.
    9000005    1    3    3    0    0 -0.59096963442E+02 -0.99793278407E+01  0.65535907522E+02  0.88814375227E+02  0.10000000000E+01 0.  0.
    9000005    1    3    3    0    0  0.59096963442E+02  0.99793278407E+01  0.13167191715E+03  0.14467388098E+03  0.10000000000E+01 0.  0.
<mgrwt>
<rscale>  0 0.12500336E+03</rscale>
<asrwt>0</asrwt>
<pdfrwt beam="1">  1        4 0.33130467E-01 0.12500336E+03</pdfrwt>
<pdfrwt beam="2">  1       -4 0.27908025E-02 0.12500336E+03</pdfrwt>
<totfact> 0.84770484E+03</totfact>
</mgrwt>
</event>
<event>
 4    1  0.3217527E-002  0.1250657E+03  0.7818608E-02  0.1234967E+00
          4   -1    0    0  501    0  0.00000000000E+00  0.00000000000E+00  0.12484433325E+03  0.12485079272E+03  0.12700000000E+01 0.  1.
         -4   -1    0    0    0  501 -0.00000000000E+00 -0.00000000000E+00 -0.31301716465E+02  0.31327469634E+02  0.12700000000E+01 0.  1.
    9000005    1    1    2    0    0 -0.36864126250E+02 -0.16723080231E+02  0.10627793222E+03  0.11373048885E+03  0.10000000000E+01 0.  0.
    9000005    1    1    2    0    0  0.36864126250E+02  0.16723080231E+02 -0.12735315438E+02  0.42447773510E+02  0.10000000000E+01 0.  0.
<mgrwt>
<rscale>  0 0.12506570E+03</rscale>
<asrwt>0</asrwt>
<pdfrwt beam="1">  1        4 0.19209298E-01 0.12506570E+03</pdfrwt>
<pdfrwt beam="2">  1       -4 0.48181266E-02 0.12506570E+03</pdfrwt>
<totfact> 0.97939925E+03</totfact>
</mgrwt>
</event>
<event>
 5    1  0.3217527E-002  0.1249996E+03  0.7818608E-02  0.1235070E+00
          4   -1    0    0  501    0  0.00000000000E+00  0.00000000000E+00  0.81578669990E+03  0.81578768845E+03  0.12700000000E+01 0.  1.
         -4   -1    0    0    0  501 -0.00000000000E+00 -0.00000000000E+00 -0.47030763869E+01  0.48715323566E+01  0.12700000000E+01 0.  1.
         25    2    1    2    0    0  0.00000000000E+00  0.00000000000E+00  0.81108362351E+03  0.82065922081E+03  0.12499964948E+03 0.  0.
    9000005    1    3    3    0    0 -0.58598577782E+02 -0.14615549490E+02  0.30012429754E+03  0.30614212644E+03  0.10000000000E+01 0.  0.
    9000005    1    3    3    0    0  0.58598577782E+02  0.14615549490E+02  0.51095932597E+03  0.51451709437E+03  0.10000000000E+01 0.  0.
<mgrwt>
<rscale>  0 0.12499965E+03</rscale>
<asrwt>0</asrwt>
<pdfrwt beam="1">  1        4 0.12551870E+00 0.12499965E+03</pdfrwt>
<pdfrwt beam="2">  1       -4 0.73658429E-03 0.12499965E+03</pdfrwt>
<totfact> 0.37359199E+03</totfact>
</mgrwt>
</event>
<event>
 5    1  0.3217527E-002  0.1250113E+03  0.7818608E-02  0.1235052E+00
         -4   -1    0    0    0  501 -0.00000000000E+00  0.00000000000E+00  0.17705659737E+03  0.17706115207E+03  0.12700000000E+01 0. -1.
          4   -1    0    0  501    0  0.00000000000E+00 -0.00000000000E+00 -0.22043038435E+02  0.22079593372E+02  0.12700000000E+01 0. -1.
         25    2    1    2    0    0  0.00000000000E+00  0.00000000000E+00  0.15501355894E+03  0.19914074545E+03  0.12501133165E+03 0.  0.
    9000005    1    3    3    0    0  0.44996272255E+02 -0.23163172077E+01  0.14650197954E+03  0.15327706890E+03  0.10000000000E+01 0.  0.
    9000005    1    3    3    0    0 -0.44996272255E+02  0.23163172077E+01  0.85115793999E+01  0.45863676544E+02  0.10000000000E+01 0.  0.
<mgrwt>
<rscale>  0 0.12501133E+03</rscale>
<asrwt>0</asrwt>
<pdfrwt beam="2">  1        4 0.33943991E-02 0.12501133E+03</pdfrwt>
<pdfrwt beam="1">  1       -4 0.27242638E-01 0.12501133E+03</pdfrwt>
<totfact> 0.90257739E+03</totfact>
</mgrwt>
</event>
<event>
 5    1  0.3217527E-002  0.1250022E+03  0.7818608E-02  0.1235066E+00
          4   -1    0    0  501    0  0.00000000000E+00  0.00000000000E+00  0.20368878061E+01  0.24003774567E+01  0.12700000000E+01 0.  1.
         -4   -1    0    0    0  501 -0.00000000000E+00 -0.00000000000E+00 -0.17603559586E+04  0.17603564168E+04  0.12700000000E+01 0.  1.
         25    2    1    2    0    0  0.00000000000E+00  0.00000000000E+00 -0.17583190708E+04  0.17627567942E+04  0.12500224274E+03 0.  0.
    9000005    1    3    3    0    0 -0.39805977140E+02  0.45988514046E+02 -0.10815245278E+04  0.10832339376E+04  0.10000000000E+01 0.  0.
    9000005    1    3    3    0    0  0.39805977140E+02 -0.45988514046E+02 -0.67679454299E+03  0.67952285661E+03  0.10000000000E+01 0.  0.
<mgrwt>
<rscale>  0 0.12500224E+03</rscale>
<asrwt>0</asrwt>
<pdfrwt beam="1">  1        4 0.34136474E-03 0.12500224E+03</pdfrwt>
<pdfrwt beam="2">  1       -4 0.27085087E+00 0.12500224E+03</pdfrwt>
<totfact> 0.13285564E+03</totfact>
</mgrwt>
</event>
<event>
 5    1  0.3217527E-002  0.1250119E+03  0.7818608E-02  0.1235051E+00
         -4   -1    0    0    0  501 -0.00000000000E+00  0.00000000000E+00  0.16986690587E+03  0.16987165335E+03  0.12700000000E+01 0.  1.
          4   -1    0    0  501    0  0.00000000000E+00 -0.00000000000E+00 -0.22977719800E+02  0.23012790078E+02  0.12700000000E+01 0.  1.
         25    2    1    2    0    0  0.00000000000E+00  0.00000000000E+00  0.14688918608E+03  0.19288444343E+03  0.12501190156E+03 0.  0.
    9000005    1    3    3    0    0  0.56927290670E+02 -0.22453300817E+02  0.53859318948E+02  0.81527255431E+02  0.10000000000E+01 0.  0.
    9000005    1    3    3    0    0 -0.56927290670E+02  0.22453300817E+02  0.93029867128E+02  0.11135718800E+03  0.10000000000E+01 0.  0.
<mgrwt>
<rscale>  0 0.12501190E+03</rscale>
<asrwt>0</asrwt>
<pdfrwt beam="2">  1        4 0.35380967E-02 0.12501190E+03</pdfrwt>
<pdfrwt beam="1">  1       -4 0.26136434E-01 0.12501190E+03</pdfrwt>
<totfact> 0.91323497E+03</totfact>
</mgrwt>
</event>
<event>
 5    1  0.3217527E-002  0.1249953E+03  0.7818608E-02  0.1235077E+00
          4   -1    0    0  501    0  0.00000000000E+00  0.00000000000E+00  0.41669408190E+02  0.41688757224E+02  0.12700000000E+01 0.  1.
         -4   -1    0    0    0  501 -0.00000000000E+00 -0.00000000000E+00 -0.93691348185E+02  0.93699955308E+02  0.12700000000E+01 0.  1.
         25    2    1    2    0    0  0.00000000000E+00  0.00000000000E+00 -0.52021939994E+02  0.13538871253E+03  0.12499528487E+03 0.  0.
    9000005    1    3    3    0    0 -0.44523613429E+02 -0.43271773048E+02 -0.33682002114E+02  0.70641883907E+02  0.10000000000E+01 0.  0.
    9000005    1    3    3    0    0  0.44523613429E+02  0.43271773048E+02 -0.18339937880E+02  0.64746828625E+02  0.10000000000E+01 0.  0.
<mgrwt>
<rscale>  0 0.12499528E+03</rscale>
<asrwt>0</asrwt>
<pdfrwt beam="1">  1        4 0.64128287E-02 0.12499528E+03</pdfrwt>
<pdfrwt beam="2">  1       -4 0.14416204E-01 0.12499528E+03</pdfrwt>
<totfact> 0.10230972E+04</totfact>
</mgrwt>
</event>
<event>
 5    1  0.3217527E-002  0.1250006E+03  0.7818608E-02  0.1235068E+00
         -4   -1    0    0    0  501 -0.00000000000E+00  0.00000000000E+00  0.44297990454E+02  0.44316191829E+02  0.12700000000E+01 0.  1.
          4   -1    0    0  501    0  0.00000000000E+00 -0.00000000000E+00 -0.88141206724E+02  0.88150355772E+02  0.12700000000E+01 0.  1.
         25    2    1    2    0    0  0.00000000000E+00  0.00000000000E+00 -0.43843216270E+02  0.13246654760E+03  0.12500063448E+03 0.  0.
    9000005    1    3    3    0    0 -0.21656451539E+02  0.11235502917E+02  0.39047712863E+02  0.46053906445E+02  0.10000000000E+01 0.  0.
    9000005    1    3    3    0    0  0.21656451539E+02 -0.11235502917E+02 -0.82890929133E+02  0.86412641156E+02  0.10000000000E+01 0.  0.
<mgrwt>
<rscale>  0 0.12500063E+03</rscale>
<asrwt>0</asrwt>
<pdfrwt beam="2">  1        4 0.13562290E-01 0.12500063E+03</pdfrwt>
<pdfrwt beam="1">  1       -4 0.68171793E-02 0.12500063E+03</pdfrwt>
<totfact> 0.10291603E+04</totfact>
</mgrwt>
</event>
<event>
 5    1  0.3217527E-002  0.1249931E+03  0.7818608E-02  0.1235080E+00
          4   -1    0    0  501    0  0.00000000000E+00  0.00000000000E+00  0.13907688925E+03  0.13908268772E+03  0.12700000000E+01 0.  1.
         -4   -1    0    0    0  501 -0.00000000000E+00 -0.00000000000E+00 -0.28063120588E+02  0.28091842893E+02  0.12700000000E+01 0.  1.
         25    2    1    2    0    0  0.00000000000E+00  0.00000000000E+00  0.11101376866E+03  0.16717453061E+03  0.12499306722E+03 0.  0.
    9000005    1    3    3    0    0  0.24375533400E+02  0.57384828393E+02  0.61122915320E+02  0.87316641801E+02  0.10000000000E+01 0.  0.
    9000005    1    3    3    0    0 -0.24375533400E+02 -0.57384828393E+02  0.49890853341E+02  0.79857888811E+02  0.10000000000E+01 0.  0.
<mgrwt>
<rscale>  0 0.12499307E+03</rscale>
<asrwt>0</asrwt>
<pdfrwt beam="1">  1        4 0.21399100E-01 0.12499307E+03</pdfrwt>
<pdfrwt beam="2">  1       -4 0.43200586E-02 0.12499307E+03</pdfrwt>
<totfact> 0.95992094E+03</totfact>
</mgrwt>
</event>
<event>
 4    1  0.3217527E-002  0.1249379E+03  0.7818608E-02  0.1235166E+00
          4   -1    0    0  501    0  0.00000000000E+00  0.00000000000E+00  0.84840902819E+01  0.85786180654E+01  0.12700000000E+01 0. -1.
         -4   -1    0    0    0  501 -0.00000000000E+00 -0.00000000000E+00 -0.45731944487E+03  0.45732120829E+03  0.12700000000E+01 0. -1.
    9000005    1    1    2    0    0 -0.15206259719E+02 -0.59414769196E+02 -0.18029130991E+03  0.19043975836E+03  0.10000000000E+01 0.  0.
    9000005    1    1    2    0    0  0.15206259719E+02  0.59414769196E+02 -0.26854404467E+03  0.27546006800E+03  0.10000000000E+01 0.  0.
<mgrwt>
<rscale>  0 0.12493788E+03</rscale>
<asrwt>0</asrwt>
<pdfrwt beam="1">  1        4 0.13126520E-02 0.12493788E+03</pdfrwt>
<pdfrwt beam="2">  1       -4 0.70364226E-01 0.12493788E+03</pdfrwt>
<totfact> 0.58690960E+03</totfact>
</mgrwt>
</event>
<event>
 5    1  0.3217527E-002  0.1249967E+03  0.7818608E-02  0.1235074E+00
          4   -1    0    0  501    0  0.00000000000E+00  0.00000000000E+00  0.41435073581E+02  0.41454531992E+02  0.12700000000E+01 0. -1.
         -4   -1    0    0    0  501 -0.00000000000E+00 -0.00000000000E+00 -0.94223117916E+02  0.94231676467E+02  0.12700000000E+01 0. -1.
         25    2    1    2    0    0  0.00000000000E+00  0.00000000000E+00 -0.52788044335E+02  0.13568620846E+03  0.12499667812E+03 0.  0.
    9000005    1    3    3    0    0 -0.33543378659E+02 -0.39186300229E+02 -0.64685570595E+02  0.82740240637E+02  0.10000000000E+01 0.  0.
    9000005    1    3    3    0    0  0.33543378659E+02  0.39186300229E+02  0.11897526260E+02  0.52945967822E+02  0.10000000000E+01 0.  0.
<mgrwt>
<rscale>  0 0.12499668E+03</rscale>
<asrwt>0</asrwt>
<pdfrwt beam="1">  1        4 0.63767819E-02 0.12499668E+03</pdfrwt>
<pdfrwt beam="2">  1       -4 0.14498019E-01 0.12499668E+03</pdfrwt>
<totfact> 0.10224393E+04</totfact>
</mgrwt>
</event>
<event>
 5    1  0.3217527E-002  0.1250021E+03  0.7818608E-02  0.1235066E+00
          4   -1    0    0  501    0  0.00000000000E+00  0.00000000000E+00  0.58776966659E+01  0.60133366858E+01  0.12700000000E+01 0.  1.
         -4   -1    0    0    0  501 -0.00000000000E+00 -0.00000000000E+00 -0.65689324796E+03  0.65689447563E+03  0.12700000000E+01 0.  1.
         25    2    1    2    0    0  0.00000000000E+00  0.00000000000E+00 -0.65101555129E+03  0.66290781232E+03  0.12500207840E+03 0.  0.
    9000005    1    3    3    0    0 -0.43301337330E+02  0.32270120794E+02 -0.49228509497E+03  0.49523931714E+03  0.10000000000E+01 0.  0.
    9000005    1    3    3    0    0  0.43301337330E+02 -0.32270120794E+02 -0.15873045633E+03  0.16766849518E+03  0.10000000000E+01 0.  0.
<mgrwt>
<rscale>  0 0.12500208E+03</rscale>
<asrwt>0</asrwt>
<pdfrwt beam="1">  1        4 0.91478983E-03 0.12500208E+03</pdfrwt>
<pdfrwt beam="2">  1       -4 0.10107097E+00 0.12500208E+03</pdfrwt>
<totfact> 0.45116261E+03</totfact>
</mgrwt>
</event>
<event>
 5    1  0.3217527E-002  0.1250499E+03  0.7818608E-02  0.1234991E+00
          4   -1    0    0  501    0  0.00000000000E+00  0.00000000000E+00  0.64977365495E+02  0.64989775555E+02  0.12700000000E+01 0.  1.
         -4   -1    0    0    0  501 -0.00000000000E+00 -0.00000000000E+00 -0.60140246309E+02  0.60153654304E+02  0.12700000000E+01 0.  1.
         25    2    1    2    0    0  0.00000000000E+00  0.00000000000E+00  0.48371191857E+01  0.12514342986E+03  0.12504991129E+03 0.  0.
    9000005    1    3    3    0    0  0.94558435087E+01 -0.61503739297E+02 -0.36065038831E+01  0.62338830549E+02  0.10000000000E+01 0.  0.
    9000005    1    3    3    0    0 -0.94558435087E+01  0.61503739297E+02  0.84436230688E+01  0.62804599310E+02  0.10000000000E+01 0.  0.
<mgrwt>
<rscale>  0 0.12504991E+03</rscale>
<asrwt>0</asrwt>
<pdfrwt beam="1">  1        4 0.99985038E-02 0.12504991E+03</pdfrwt>
<pdfrwt beam="2">  1       -4 0.92543316E-02 0.12504991E+03</pdfrwt>
<totfact> 0.10437970E+04</totfact>
</mgrwt>
</event>
<event>
 5    1  0.3217527E-002  0.1249988E+03  0.7818608E-02  0.1235071E+00
         -4   -1    0    0    0  501 -0.00000000000E+00  0.00000000000E+00  0.16199480894E+02  0.16249187095E+02  0.12700000000E+01 0.  1.
          4   -1    0    0  501    0  0.00000000000E+00 -0.00000000000E+00 -0.24070884749E+03  0.24071219778E+03  0.12700000000E+01 0.  1.
         25    2    1    2    0    0  0.00000000000E+00  0.00000000000E+00 -0.22450936660E+03  0.25696138487E+03  0.12499879050E+03 0.  0.
    9000005    1    3    3    0    0  0.40950937602E+02 -0.30259317204E+01 -0.20909239238E+03  0.21308862969E+03  0.10000000000E+01 0.  0.
    9000005    1    3    3    0    0 -0.40950937602E+02  0.30259317204E+01 -0.15416974215E+02  0.43872755181E+02  0.10000000000E+01 0.  0.
<mgrwt>
<rscale>  0 0.12499879E+03</rscale>
<asrwt>0</asrwt>
<pdfrwt beam="2">  1        4 0.37036209E-01 0.12499879E+03</pdfrwt>
<pdfrwt beam="1">  1       -4 0.24963093E-02 0.12499879E+03</pdfrwt>
<totfact> 0.81336579E+03</totfact>
</mgrwt>
</event>
<event>
 5    1  0.3217527E-002  0.1249932E+03  0.7818608E-02  0.1235080E+00
          4   -1    0    0  501    0  0.00000000000E+00  0.00000000000E+00  0.31699319677E+02  0.31724750086E+02  0.12700000000E+01 0.  1.
         -4   -1    0    0    0  501 -0.00000000000E+00 -0.00000000000E+00 -0.12313677283E+03  0.12314332188E+03  0.12700000000E+01 0.  1.
         25    2    1    2    0    0  0.00000000000E+00  0.00000000000E+00 -0.91437453156E+02  0.15486807197E+03  0.12499324732E+03 0.  0.
    9000005    1    3    3    0    0  0.21337023512E+02  0.52604570171E+02 -0.78083229676E+02  0.96542737334E+02  0.10000000000E+01 0.  0.
    9000005    1    3    3    0    0 -0.21337023512E+02 -0.52604570171E+02 -0.13354223480E+02  0.58325334632E+02  0.10000000000E+01 0.  0.
<mgrwt>
<rscale>  0 0.12499325E+03</rscale>
<asrwt>0</asrwt>
<pdfrwt beam="1">  1        4 0.48792784E-02 0.12499325E+03</pdfrwt>
<pdfrwt beam="2">  1       -4 0.18946579E-01 0.12499325E+03</pdfrwt>
<totfact> 0.98356341E+03</totfact>
</mgrwt>
</event>
<event>
 5    1  0.3217527E-002  0.1250098E+03  0.7818608E-02  0.1235054E+00
          4   -1    0    0  501    0  0.00000000000E+00  0.00000000000E+00  0.26790801387E+02  0.26820886245E+02  0.12700000000E+01 0.  1.
         -4   -1    0    0    0  501 -0.00000000000E+00 -0.00000000000E+00 -0.14571383494E+03  0.14571936931E+03  0.12700000000E+01 0.  1.
         25    2    1    2    0    0  0.00000000000E+00  0.00000000000E+00 -0.11892303355E+03  0.17254025555E+03  0.12500980713E+03 0.  0.
    9000005    1    3    3    0    0  0.50796152641E+02 -0.36283248763E+02 -0.63634171539E+02  0.89146121909E+02  0.10000000000E+01 0.  0.
    9000005    1    3    3    0    0 -0.50796152641E+02  0.36283248763E+02 -0.55288862009E+02  0.83394133644E+02  0.10000000000E+01 0.  0.
<mgrwt>
<rscale>  0 0.12500981E+03</rscale>
<asrwt>0</asrwt>
<pdfrwt beam="1">  1        4 0.41244018E-02 0.12500981E+03</pdfrwt>
<pdfrwt beam="2">  1       -4 0.22420253E-01 0.12500981E+03</pdfrwt>
<totfact> 0.94956379E+03</totfact>
</mgrwt>
</event>
<event>
 5    1  0.3217527E-002  0.1249999E+03  0.7818608E-02  0.1235069E+00
          4   -1    0    0  501    0  0.00000000000E+00  0.00000000000E+00  0.27240289728E+03  0.27240585777E+03  0.12700000000E+01 0.  1.
         -4   -1    0    0    0  501 -0.00000000000E+00 -0.00000000000E+00 -0.14308780418E+02  0.14365030354E+02  0.12700000000E+01 0.  1.
         25    2    1    2    0    0  0.00000000000E+00  0.00000000000E+00  0.25809411687E+03  0.28677088813E+03  0.12499987646E+03 0.  0.
    9000005    1    3    3    0    0  0.11515503975E+02  0.14726138440E+01  0.26991852673E+03  0.27016992153E+03  0.10000000000E+01 0.  0.
    9000005    1    3    3    0    0 -0.11515503975E+02 -0.14726138440E+01 -0.11824409868E+02  0.16600966600E+02  0.10000000000E+01 0.  0.
<mgrwt>
<rscale>  0 0.12499988E+03</rscale>
<asrwt>0</asrwt>
<pdfrwt beam="1">  1        4 0.41912689E-01 0.12499988E+03</pdfrwt>
<pdfrwt beam="2">  1       -4 0.22059057E-02 0.12499988E+03</pdfrwt>
<totfact> 0.77289029E+03</totfact>
</mgrwt>
</event>
<event>
 5    1  0.3217527E-002  0.1249994E+03  0.7818608E-02  0.1235070E+00
         -4   -1    0    0    0  501 -0.00000000000E+00  0.00000000000E+00  0.10642394225E+02  0.10717903473E+02  0.12700000000E+01 0.  1.
          4   -1    0    0  501    0  0.00000000000E+00 -0.00000000000E+00 -0.36566857482E+03  0.36567078023E+03  0.12700000000E+01 0.  1.
         25    2    1    2    0    0  0.00000000000E+00  0.00000000000E+00 -0.35502618059E+03  0.37638868370E+03  0.12499940923E+03 0.  0.
    9000005    1    3    3    0    0 -0.32443032193E+02 -0.31237247708E+02 -0.30796451552E+03  0.31124180118E+03  0.10000000000E+01 0.  0.
    9000005    1    3    3    0    0  0.32443032193E+02  0.31237247708E+02 -0.47061665073E+02  0.65146882517E+02  0.10000000000E+01 0.  0.
<mgrwt>
<rscale>  0 0.12499941E+03</rscale>
<asrwt>0</asrwt>
<pdfrwt beam="2">  1        4 0.56262672E-01 0.12499941E+03</pdfrwt>
<pdfrwt beam="1">  1       -4 0.16432697E-02 0.12499941E+03</pdfrwt>
<totfact> 0.66916694E+03</totfact>
</mgrwt>
</event>
<event>
 5    1  0.3217527E-002  0.1250005E+03  0.7818608E-02  0.1235069E+00
         -4   -1    0    0    0  501 -0.00000000000E+00  0.00000000000E+00  0.19701122208E+02  0.19742013987E+02  0.12700000000E+01 0. -1.
          4   -1    0    0  501    0  0.00000000000E+00 -0.00000000000E+00 -0.19802846508E+03  0.19803253743E+03  0.12700000000E+01 0. -1.
         25    2    1    2    0    0  0.00000000000E+00  0.00000000000E+00 -0.17832734287E+03  0.21777455142E+03  0.12500045612E+03 0.  0.
    9000005    1    3    3    0    0  0.51146882149E+02  0.28373131930E+02 -0.50825975170E+02  0.77493986354E+02  0.10000000000E+01 0.  0.
    9000005    1    3    3    0    0 -0.51146882149E+02 -0.28373131930E+02 -0.12750136770E+03  0.14028056506E+03  0.10000000000E+01 0.  0.
<mgrwt>
<rscale>  0 0.12500046E+03</rscale>
<asrwt>0</asrwt>
<pdfrwt beam="2">  1        4 0.30469375E-01 0.12500046E+03</pdfrwt>
<pdfrwt beam="1">  1       -4 0.30344008E-02 0.12500046E+03</pdfrwt>
<totfact> 0.87220839E+03</totfact>
</mgrwt>
</event>
<event>
 5    1  0.3217527E-002  0.1249996E+03  0.7818608E-02  0.1235070E+00
         -4   -1    0    0    0  501 -0.00000000000E+00  0.00000000000E+00  0.53082935265E+03  0.53083087187E+03  0.12700000000E+01 0. -1.
          4   -1    0    0  501    0  0.00000000000E+00 -0.00000000000E+00 -0.73023810429E+01  0.74119949336E+01  0.12700000000E+01 0. -1.
         25    2    1    2    0    0  0.00000000000E+00  0.00000000000E+00  0.52352697160E+03  0.53824286680E+03  0.12499957468E+03 0.  0.
    9000005    1    3    3    0    0 -0.57299238905E+02 -0.77824809384E+01  0.36379320565E+03  0.36836159717E+03  0.10000000000E+01 0.  0.
    9000005    1    3    3    0    0  0.57299238905E+02  0.77824809384E+01  0.15973376595E+03  0.16988126964E+03  0.10000000000E+01 0.  0.
<mgrwt>
<rscale>  0 0.12499957E+03</rscale>
<asrwt>0</asrwt>
<pdfrwt beam="2">  1        4 0.11319918E-02 0.12499957E+03</pdfrwt>
<pdfrwt beam="1">  1       -4 0.81674615E-01 0.12499957E+03</pdfrwt>
<totfact> 0.53015149E+03</totfact>
</mgrwt>
</event>
<event>
 5    1  0.3217527E-002  0.1250005E+03  0.7818608E-02  0.1235068E+00
          4   -1    0    0  501    0  0.00000000000E+00  0.00000000000E+00  0.14518247393E+03  0.14518802856E+03  0.12700000000E+01 0.  1.
         -4   -1    0    0    0  501 -0.00000000000E+00 -0.00000000000E+00 -0.26884951616E+02  0.26914931235E+02  0.12700000000E+01 0.  1.
         25    2    1    2    0    0  0.00000000000E+00  0.00000000000E+00  0.11829752232E+03  0.17210295979E+03  0.12500049993E+03 0.  0.
    9000005    1    3    3    0    0  0.23364575945E+02  0.55484584029E+02  0.82221817261E+02  0.10191108727E+03  0.10000000000E+01 0.  0.
    9000005    1    3    3    0    0 -0.23364575945E+02 -0.55484584029E+02  0.36075705055E+02  0.70191872529E+02  0.10000000000E+01 0.  0.
<mgrwt>
<rscale>  0 0.12500050E+03</rscale>
<asrwt>0</asrwt>
<pdfrwt beam="1">  1        4 0.22338499E-01 0.12500050E+03</pdfrwt>
<pdfrwt beam="2">  1       -4 0.41388797E-02 0.12500050E+03</pdfrwt>
<totfact> 0.95057053E+03</totfact>
</mgrwt>
</event>
<event>
 5    1  0.3217527E-002  0.1249982E+03  0.7818608E-02  0.1235072E+00
         -4   -1    0    0    0  501 -0.00000000000E+00  0.00000000000E+00  0.13636185696E+03  0.13636777088E+03  0.12700000000E+01 0.  1.
          4   -1    0    0  501    0  0.00000000000E+00 -0.00000000000E+00 -0.28624758255E+02  0.28652917568E+02  0.12700000000E+01 0.  1.
         25    2    1    2    0    0  0.00000000000E+00  0.00000000000E+00  0.10773709871E+03  0.16502068845E+03  0.12499818070E+03 0.  0.
    9000005    1    3    3    0    0 -0.42294644921E+02 -0.43363326788E+02  0.33590873216E+02  0.69271652662E+02  0.10000000000E+01 0.  0.
    9000005    1    3    3    0    0  0.42294644921E+02  0.43363326788E+02  0.74146225492E+02  0.95749035786E+02  0.10000000000E+01 0.  0.
<mgrwt>
<rscale>  0 0.12499818E+03</rscale>
<asrwt>0</asrwt>
<pdfrwt beam="2">  1        4 0.44064300E-02 0.12499818E+03</pdfrwt>
<pdfrwt beam="1">  1       -4 0.20981368E-01 0.12499818E+03</pdfrwt>
<totfact> 0.96387414E+03</totfact>
</mgrwt>
</event>
<event>
 5    1  0.3217527E-002  0.1249999E+03  0.7818608E-02  0.1235069E+00
         -4   -1    0    0    0  501 -0.00000000000E+00  0.00000000000E+00  0.67797395323E+01  0.68976639615E+01  0.12700000000E+01 0. -1.
          4   -1    0    0  501    0  0.00000000000E+00 -0.00000000000E+00 -0.57107775504E+03  0.57107916720E+03  0.12700000000E+01 0. -1.
         25    2    1    2    0    0  0.00000000000E+00  0.00000000000E+00 -0.56429801551E+03  0.57797683116E+03  0.12499986818E+03 0.  0.
    9000005    1    3    3    0    0 -0.30214056563E+02  0.15395127236E+01 -0.53498284386E+03  0.53583850416E+03  0.10000000000E+01 0.  0.
    9000005    1    3    3    0    0  0.30214056563E+02 -0.15395127236E+01 -0.29315171650E+02  0.42138326999E+02  0.10000000000E+01 0.  0.
<mgrwt>
<rscale>  0 0.12499987E+03</rscale>
<asrwt>0</asrwt>
<pdfrwt beam="2">  1        4 0.87867258E-01 0.12499987E+03</pdfrwt>
<pdfrwt beam="1">  1       -4 0.10522170E-02 0.12499987E+03</pdfrwt>
<totfact> 0.50288115E+03</totfact>
</mgrwt>
</event>
<event>
 5    1  0.3217527E-002  0.1249952E+03  0.7818608E-02  0.1235077E+00
          4   -1    0    0  501    0  0.00000000000E+00  0.00000000000E+00  0.64919777527E+03  0.64919901750E+03  0.12700000000E+01 0.  1.
         -4   -1    0    0    0  501 -0.00000000000E+00 -0.00000000000E+00 -0.59482945754E+01  0.60823604263E+01  0.12700000000E+01 0.  1.
         25    2    1    2    0    0  0.00000000000E+00  0.00000000000E+00  0.64324948070E+03  0.65528137792E+03  0.12499515925E+03 0.  0.
    9000005    1    3    3    0    0 -0.65017838793E+01 -0.62080940393E+02  0.33702641126E+03  0.34275956331E+03  0.10000000000E+01 0.  0.
    9000005    1    3    3    0    0  0.65017838793E+01  0.62080940393E+02  0.30622306944E+03  0.31252181462E+03  0.10000000000E+01 0.  0.
<mgrwt>
<rscale>  0 0.12499516E+03</rscale>
<asrwt>0</asrwt>
<pdfrwt beam="1">  1        4 0.99887006E-01 0.12499516E+03</pdfrwt>
<pdfrwt beam="2">  1       -4 0.92553040E-03 0.12499516E+03</pdfrwt>
<totfact> 0.45558802E+03</totfact>
</mgrwt>
</event>
<event>
 5    1  0.3217527E-002  0.1250018E+03  0.7818608E-02  0.1235066E+00
          4   -1    0    0  501    0  0.00000000000E+00  0.00000000000E+00  0.28147685207E+02  0.28176321309E+02  0.12700000000E+01 0. -1.
         -4   -1    0    0    0  501 -0.00000000000E+00 -0.00000000000E+00 -0.13867894925E+03  0.13868476436E+03  0.12700000000E+01 0. -1.
         25    2    1    2    0    0  0.00000000000E+00  0.00000000000E+00 -0.11053126404E+03  0.16686108567E+03  0.12500184630E+03 0.  0.
    9000005    1    3    3    0    0  0.16240885226E+02 -0.55605139845E+02 -0.86561619042E+02  0.10416146995E+03  0.10000000000E+01 0.  0.
    9000005    1    3    3    0    0 -0.16240885226E+02  0.55605139845E+02 -0.23969645000E+02  0.62699615720E+02  0.10000000000E+01 0.  0.
<mgrwt>
<rscale>  0 0.12500185E+03</rscale>
<asrwt>0</asrwt>
<pdfrwt beam="1">  1        4 0.43330633E-02 0.12500185E+03</pdfrwt>
<pdfrwt beam="2">  1       -4 0.21337873E-01 0.12500185E+03</pdfrwt>
<totfact> 0.96032107E+03</totfact>
</mgrwt>
</event>
<event>
 5    1  0.3217527E-002  0.1250055E+03  0.7818608E-02  0.1235061E+00
          4   -1    0    0  501    0  0.00000000000E+00  0.00000000000E+00  0.32857997212E+03  0.32858242646E+03  0.12700000000E+01 0. -1.
         -4   -1    0    0    0  501 -0.00000000000E+00 -0.00000000000E+00 -0.11852893647E+02  0.11920737721E+02  0.12700000000E+01 0. -1.
         25    2    1    2    0    0  0.00000000000E+00  0.00000000000E+00  0.31672707847E+03  0.34050316418E+03  0.12500545020E+03 0.  0.
    9000005    1    3    3    0    0  0.62438868876E+01 -0.75775514608E+01  0.32647923009E+03  0.32662837153E+03  0.10000000000E+01 0.  0.
    9000005    1    3    3    0    0 -0.62438868876E+01  0.75775514608E+01 -0.97521516229E+01  0.13874792643E+02  0.10000000000E+01 0.  0.
<mgrwt>
<rscale>  0 0.12500545E+03</rscale>
<asrwt>0</asrwt>
<pdfrwt beam="1">  1        4 0.50556176E-01 0.12500545E+03</pdfrwt>
<pdfrwt beam="2">  1       -4 0.18289296E-02 0.12500545E+03</pdfrwt>
<totfact> 0.70773572E+03</totfact>
</mgrwt>
</event>
<event>
 5    1  0.3217527E-002  0.1250000E+03  0.7818608E-02  0.1235069E+00
          4   -1    0    0  501    0  0.00000000000E+00  0.00000000000E+00  0.21896149723E+02  0.21932949476E+02  0.12700000000E+01 0. -1.
         -4   -1    0    0    0  501 -0.00000000000E+00 -0.00000000000E+00 -0.17821013150E+03  0.17821465672E+03  0.12700000000E+01 0. -1.
         25    2    1    2    0    0  0.00000000000E+00  0.00000000000E+00 -0.15631398177E+03  0.20014760619E+03  0.12500001346E+03 0.  0.
    9000005    1    3    3    0    0  0.38925066973E+02  0.47814162373E+02 -0.61836263833E+02  0.87327421164E+02  0.10000000000E+01 0.  0.
    9000005    1    3    3    0    0 -0.38925066973E+02 -0.47814162373E+02 -0.94477717941E+02  0.11282018503E+03  0.10000000000E+01 0.  0.
<mgrwt>
<rscale>  0 0.12500001E+03</rscale>
<asrwt>0</asrwt>
<pdfrwt beam="1">  1        4 0.33718174E-02 0.12500001E+03</pdfrwt>
<pdfrwt beam="2">  1       -4 0.27420121E-01 0.12500001E+03</pdfrwt>
<totfact> 0.90110590E+03</totfact>
</mgrwt>
</event>
<event>
 5    1  0.3217527E-002  0.1250021E+03  0.7818608E-02  0.1235066E+00
          4   -1    0    0  501    0  0.00000000000E+00  0.00000000000E+00  0.16419851165E+01  0.20758167363E+01  0.12700000000E+01 0. -1.
         -4   -1    0    0    0  501 -0.00000000000E+00 -0.00000000000E+00 -0.21010115547E+04  0.21010119385E+04  0.12700000000E+01 0. -1.
         25    2    1    2    0    0  0.00000000000E+00  0.00000000000E+00 -0.20993695696E+04  0.21030877553E+04  0.12500206676E+03 0.  0.
    9000005    1    3    3    0    0 -0.19675400741E+02  0.58964441910E+02 -0.11580063390E+04  0.11596739231E+04  0.10000000000E+01 0.  0.
    9000005    1    3    3    0    0  0.19675400741E+02 -0.58964441910E+02 -0.94136323056E+03  0.94341383213E+03  0.10000000000E+01 0.  0.
<mgrwt>
<rscale>  0 0.12500207E+03</rscale>
<asrwt>0</asrwt>
<pdfrwt beam="1">  1        4 0.28601596E-03 0.12500207E+03</pdfrwt>
<pdfrwt beam="2">  1       -4 0.32326405E+00 0.12500207E+03</pdfrwt>
<totfact> 0.85748266E+02</totfact>
</mgrwt>
</event>
<event>
 5    1  0.3217527E-002  0.1250562E+03  0.7818608E-02  0.1234981E+00
          4   -1    0    0  501    0  0.00000000000E+00  0.00000000000E+00  0.40993937475E+02  0.41013605178E+02  0.12700000000E+01 0.  1.
         -4   -1    0    0    0  501 -0.00000000000E+00 -0.00000000000E+00 -0.95327428488E+02  0.95335887902E+02  0.12700000000E+01 0.  1.
         25    2    1    2    0    0  0.00000000000E+00  0.00000000000E+00 -0.54333491012E+02  0.13634949308E+03  0.12505621143E+03 0.  0.
    9000005    1    3    3    0    0 -0.15605733688E+01 -0.45751950512E+02  0.19258868753E+02  0.49674746004E+02  0.10000000000E+01 0.  0.
    9000005    1    3    3    0    0  0.15605733688E+01  0.45751950512E+02 -0.73592359765E+02  0.86674747076E+02  0.10000000000E+01 0.  0.
<mgrwt>
<rscale>  0 0.12505621E+03</rscale>
<asrwt>0</asrwt>
<pdfrwt beam="1">  1        4 0.63089233E-02 0.12505621E+03</pdfrwt>
<pdfrwt beam="2">  1       -4 0.14667922E-01 0.12505621E+03</pdfrwt>
<totfact> 0.10196775E+04</totfact>
</mgrwt>
</event>
<event>
 5    1  0.3217527E-002  0.1249990E+03  0.7818608E-02  0.1235071E+00
         -4   -1    0    0    0  501 -0.00000000000E+00  0.00000000000E+00  0.83515365389E+01  0.84475477246E+01  0.12700000000E+01 0.  1.
          4   -1    0    0  501    0  0.00000000000E+00 -0.00000000000E+00 -0.46495066014E+03  0.46495239462E+03  0.12700000000E+01 0.  1.
         25    2    1    2    0    0  0.00000000000E+00  0.00000000000E+00 -0.45659912360E+03  0.47339994235E+03  0.12499898296E+03 0.  0.
    9000005    1    3    3    0    0 -0.20739816622E+02 -0.41694322217E+02 -0.38612440368E+03  0.38892365782E+03  0.10000000000E+01 0.  0.
    9000005    1    3    3    0    0  0.20739816622E+02  0.41694322217E+02 -0.70474719922E+02  0.84476284522E+02  0.10000000000E+01 0.  0.
<mgrwt>
<rscale>  0 0.12499898E+03</rscale>
<asrwt>0</asrwt>
<pdfrwt beam="2">  1        4 0.71538370E-01 0.12499898E+03</pdfrwt>
<pdfrwt beam="1">  1       -4 0.12923710E-02 0.12499898E+03</pdfrwt>
<totfact> 0.57990237E+03</totfact>
</mgrwt>
</event>
<event>
 5    1  0.3217527E-002  0.1250072E+03  0.7818608E-02  0.1235058E+00
         -4   -1    0    0    0  501 -0.00000000000E+00  0.00000000000E+00  0.18874984086E+03  0.18875411340E+03  0.12700000000E+01 0. -1.
          4   -1    0    0  501    0  0.00000000000E+00 -0.00000000000E+00 -0.20673784481E+02  0.20712756088E+02  0.12700000000E+01 0. -1.
         25    2    1    2    0    0  0.00000000000E+00  0.00000000000E+00  0.16807605638E+03  0.20946686949E+03  0.12500723453E+03 0.  0.
    9000005    1    3    3    0    0 -0.20547304845E+02  0.54583464288E+02  0.12166182365E+03  0.13492273954E+03  0.10000000000E+01 0.  0.
    9000005    1    3    3    0    0  0.20547304845E+02 -0.54583464288E+02  0.46414232727E+02  0.74544129948E+02  0.10000000000E+01 0.  0.
<mgrwt>
<rscale>  0 0.12500723E+03</rscale>
<asrwt>0</asrwt>
<pdfrwt beam="2">  1        4 0.31839089E-02 0.12500723E+03</pdfrwt>
<pdfrwt beam="1">  1       -4 0.29041762E-01 0.12500723E+03</pdfrwt>
<totfact> 0.88548700E+03</totfact>
</mgrwt>
</event>
<event>
 5    1  0.3217527E-002  0.1249975E+03  0.7818608E-02  0.1235073E+00
         -4   -1    0    0    0  501 -0.00000000000E+00  0.00000000000E+00  0.77414394032E+03  0.77414498205E+03  0.12700000000E+01 0. -1.
          4   -1    0    0  501    0  0.00000000000E+00 -0.00000000000E+00 -0.49647148885E+01  0.51245774386E+01  0.12700000000E+01 0. -1.
         25    2    1    2    0    0  0.00000000000E+00  0.00000000000E+00  0.76917922544E+03  0.77926955949E+03  0.12499746202E+03 0.  0.
    9000005    1    3    3    0    0 -0.34056473319E+02 -0.31334592498E+02  0.64638432206E+03  0.64803965300E+03  0.10000000000E+01 0.  0.
    9000005    1    3    3    0    0  0.34056473319E+02  0.31334592498E+02  0.12279490338E+03  0.13122990649E+03  0.10000000000E+01 0.  0.
<mgrwt>
<rscale>  0 0.12499746E+03</rscale>
<asrwt>0</asrwt>
<pdfrwt beam="2">  1        4 0.77617983E-03 0.12499746E+03</pdfrwt>
<pdfrwt beam="1">  1       -4 0.11911140E+00 0.12499746E+03</pdfrwt>
<totfact> 0.39209290E+03</totfact>
</mgrwt>
</event>
<event>
 5    1  0.3217527E-002  0.1250052E+03  0.7818608E-02  0.1235061E+00
         -4   -1    0    0    0  501 -0.00000000000E+00  0.00000000000E+00  0.24716747454E+03  0.24717073728E+03  0.12700000000E+01 0.  1.
          4   -1    0    0  501    0  0.00000000000E+00 -0.00000000000E+00 -0.15776491102E+02  0.15827525754E+02  0.12700000000E+01 0.  1.
         25    2    1    2    0    0  0.00000000000E+00  0.00000000000E+00  0.23139098343E+03  0.26299826304E+03  0.12500519647E+03 0.  0.
    9000005    1    3    3    0    0 -0.10900962799E+02 -0.34255733659E+02  0.81434912951E+01  0.36872791173E+02  0.10000000000E+01 0.  0.
    9000005    1    3    3    0    0  0.10900962799E+02  0.34255733659E+02  0.22324749214E+03  0.22612547186E+03  0.10000000000E+01 0.  0.
<mgrwt>
<rscale>  0 0.12500520E+03</rscale>
<asrwt>0</asrwt>
<pdfrwt beam="2">  1        4 0.24313295E-02 0.12500520E+03</pdfrwt>
<pdfrwt beam="1">  1       -4 0.38029937E-01 0.12500520E+03</pdfrwt>
<totfact> 0.80477825E+03</totfact>
</mgrwt>
</event>
<event>
 5    1  0.3217527E-002  0.1250027E+03  0.7818608E-02  0.1235065E+00
         -4   -1    0    0    0  501 -0.00000000000E+00  0.00000000000E+00  0.58152638254E+01  0.59523267181E+01  0.12700000000E+01 0.  1.
          4   -1    0    0  501    0  0.00000000000E+00 -0.00000000000E+00 -0.66379082497E+03  0.66379203989E+03  0.12700000000E+01 0.  1.
         25    2    1    2    0    0  0.00000000000E+00  0.00000000000E+00 -0.65797556115E+03  0.66974436660E+03  0.12500271010E+03 0.  0.
    9000005    1    3    3    0    0  0.37011615020E+02 -0.27906292866E+02 -0.55355720370E+03  0.55549545326E+03  0.10000000000E+01 0.  0.
    9000005    1    3    3    0    0 -0.37011615020E+02  0.27906292866E+02 -0.10441835745E+03  0.11424891334E+03  0.10000000000E+01 0.  0.
<mgrwt>
<rscale>  0 0.12500271E+03</rscale>
<asrwt>0</asrwt>
<pdfrwt beam="2">  1        4 0.10213224E+00 0.12500271E+03</pdfrwt>
<pdfrwt beam="1">  1       -4 0.90529325E-03 0.12500271E+03</pdfrwt>
<totfact> 0.44730039E+03</totfact>
</mgrwt>
</event>
<event>
 5    1  0.3217527E-002  0.1250036E+03  0.7818608E-02  0.1235064E+00
          4   -1    0    0  501    0  0.00000000000E+00  0.00000000000E+00  0.34022375763E+02  0.34046071029E+02  0.12700000000E+01 0. -1.
         -4   -1    0    0    0  501 -0.00000000000E+00 -0.00000000000E+00 -0.11475365341E+03  0.11476068086E+03  0.12700000000E+01 0. -1.
         25    2    1    2    0    0  0.00000000000E+00  0.00000000000E+00 -0.80731277650E+02  0.14880675189E+03  0.12500364081E+03 0.  0.
    9000005    1    3    3    0    0 -0.56175305972E+02  0.58243043366E+01 -0.72216643261E+02  0.91683319562E+02  0.10000000000E+01 0.  0.
    9000005    1    3    3    0    0  0.56175305972E+02 -0.58243043366E+01 -0.85146343890E+01  0.57123432327E+02  0.10000000000E+01 0.  0.
<mgrwt>
<rscale>  0 0.12500364E+03</rscale>
<asrwt>0</asrwt>
<pdfrwt beam="1">  1        4 0.52365750E-02 0.12500364E+03</pdfrwt>
<pdfrwt beam="2">  1       -4 0.17656771E-01 0.12500364E+03</pdfrwt>
<totfact> 0.99533931E+03</totfact>
</mgrwt>
</event>
<event>
 5    1  0.3217527E-002  0.1249988E+03  0.7818608E-02  0.1235071E+00
          4   -1    0    0  501    0  0.00000000000E+00  0.00000000000E+00  0.54195308268E+02  0.54210186665E+02  0.12700000000E+01 0. -1.
         -4   -1    0    0    0  501 -0.00000000000E+00 -0.00000000000E+00 -0.72045528971E+02  0.72056721717E+02  0.12700000000E+01 0. -1.
         25    2    1    2    0    0  0.00000000000E+00  0.00000000000E+00 -0.17850220702E+02  0.12626690838E+03  0.12499880709E+03 0.  0.
    9000005    1    3    3    0    0 -0.14057066493E+02  0.21478064278E+01  0.52544188932E+02  0.54443603678E+02  0.10000000000E+01 0.  0.
    9000005    1    3    3    0    0  0.14057066493E+02 -0.21478064278E+01 -0.70394409635E+02  0.71823304705E+02  0.10000000000E+01 0.  0.
<mgrwt>
<rscale>  0 0.12499881E+03</rscale>
<asrwt>0</asrwt>
<pdfrwt beam="1">  1        4 0.83397452E-02 0.12499881E+03</pdfrwt>
<pdfrwt beam="2">  1       -4 0.11085933E-01 0.12499881E+03</pdfrwt>
<totfact> 0.10425397E+04</totfact>
</mgrwt>
</event>
<event>
 5    1  0.3217527E-002  0.1249914E+03  0.7818608E-02  0.1235083E+00
         -4   -1    0    0    0  501 -0.00000000000E+00  0.00000000000E+00  0.18590714430E+03  0.18591148217E+03  0.12700000000E+01 0.  1.
          4   -1    0    0  501    0  0.00000000000E+00 -0.00000000000E+00 -0.20985164933E+02  0.21023559339E+02  0.12700000000E+01 0.  1.
         25    2    1    2    0    0  0.00000000000E+00  0.00000000000E+00  0.16492197937E+03  0.20693504151E+03  0.12499140821E+03 0.  0.
    9000005    1    3    3    0    0  0.26562310255E+02  0.49826451485E+02  0.38145418722E+02  0.68149134720E+02  0.10000000000E+01 0.  0.
    9000005    1    3    3    0    0 -0.26562310255E+02 -0.49826451485E+02  0.12677656065E+03  0.13878590679E+03  0.10000000000E+01 0.  0.
<mgrwt>
<rscale>  0 0.12499141E+03</rscale>
<asrwt>0</asrwt>
<pdfrwt beam="2">  1        4 0.32317738E-02 0.12499141E+03</pdfrwt>
<pdfrwt beam="1">  1       -4 0.28604388E-01 0.12499141E+03</pdfrwt>
<totfact> 0.88995984E+03</totfact>
</mgrwt>
</event>
<event>
 5    1  0.3217527E-002  0.1250004E+03  0.7818608E-02  0.1235069E+00
          4   -1    0    0  501    0  0.00000000000E+00  0.00000000000E+00  0.97378715820E+03  0.97378798636E+03  0.12700000000E+01 0.  1.
         -4   -1    0    0    0  501 -0.00000000000E+00 -0.00000000000E+00 -0.39100569745E+01  0.41111367703E+01  0.12700000000E+01 0.  1.
         25    2    1    2    0    0  0.00000000000E+00  0.00000000000E+00  0.96987710123E+03  0.97789912313E+03  0.12500041413E+03 0.  0.
    9000005    1    3    3    0    0  0.31815949600E+02  0.49491023205E+02  0.64971975472E+03  0.65237901231E+03  0.10000000000E+01 0.  0.
    9000005    1    3    3    0    0 -0.31815949600E+02 -0.49491023205E+02  0.32015734650E+03  0.32552011082E+03  0.10000000000E+01 0.  0.
<mgrwt>
<rscale>  0 0.12500041E+03</rscale>
<asrwt>0</asrwt>
<pdfrwt beam="1">  1        4 0.14982914E+00 0.12500041E+03</pdfrwt>
<pdfrwt beam="2">  1       -4 0.61707780E-03 0.12500041E+03</pdfrwt>
<totfact> 0.31345361E+03</totfact>
</mgrwt>
</event>
<event>
 5    1  0.3217527E-002  0.1249901E+03  0.7818608E-02  0.1235085E+00
         -4   -1    0    0    0  501 -0.00000000000E+00  0.00000000000E+00  0.24371047378E+03  0.24371378281E+03  0.12700000000E+01 0. -1.
          4   -1    0    0  501    0  0.00000000000E+00 -0.00000000000E+00 -0.15997128985E+02  0.16047461972E+02  0.12700000000E+01 0. -1.
         25    2    1    2    0    0  0.00000000000E+00  0.00000000000E+00  0.22771334480E+03  0.25976124478E+03  0.12499014718E+03 0.  0.
    9000005    1    3    3    0    0 -0.51479119055E+02 -0.11425811658E+02  0.18353198135E+03  0.19095977861E+03  0.10000000000E+01 0.  0.
    9000005    1    3    3    0    0  0.51479119055E+02  0.11425811658E+02  0.44181363452E+02  0.68801466171E+02  0.10000000000E+01 0.  0.
<mgrwt>
<rscale>  0 0.12499015E+03</rscale>
<asrwt>0</asrwt>
<pdfrwt beam="2">  1        4 0.24652232E-02 0.12499015E+03</pdfrwt>
<pdfrwt beam="1">  1       -4 0.37498044E-01 0.12499015E+03</pdfrwt>
<totfact> 0.80957333E+03</totfact>
</mgrwt>
</event>
<event>
 5    1  0.3217527E-002  0.1250031E+03  0.7818608E-02  0.1235065E+00
          4   -1    0    0  501    0  0.00000000000E+00  0.00000000000E+00  0.77291186038E+01  0.78327628836E+01  0.12700000000E+01 0.  1.
         -4   -1    0    0    0  501 -0.00000000000E+00 -0.00000000000E+00 -0.50194806063E+03  0.50194966726E+03  0.12700000000E+01 0.  1.
         25    2    1    2    0    0  0.00000000000E+00  0.00000000000E+00 -0.49421894202E+03  0.50978243015E+03  0.12500305370E+03 0.  0.
    9000005    1    3    3    0    0 -0.59173327195E+02 -0.11781838761E+02 -0.31351544878E+03  0.31926984042E+03  0.10000000000E+01 0.  0.
    9000005    1    3    3    0    0  0.59173327195E+02  0.11781838761E+02 -0.18070349324E+03  0.19051258973E+03  0.10000000000E+01 0.  0.
<mgrwt>
<rscale>  0 0.12500305E+03</rscale>
<asrwt>0</asrwt>
<pdfrwt beam="1">  1        4 0.11971918E-02 0.12500305E+03</pdfrwt>
<pdfrwt beam="2">  1       -4 0.77230850E-01 0.12500305E+03</pdfrwt>
<totfact> 0.55109591E+03</totfact>
</mgrwt>
</event>
<event>
 5    1  0.3217527E-002  0.1249992E+03  0.7818608E-02  0.1235071E+00
          4   -1    0    0  501    0  0.00000000000E+00  0.00000000000E+00  0.10733168963E+02  0.10808044040E+02  0.12700000000E+01 0. -1.
         -4   -1    0    0    0  501 -0.00000000000E+00 -0.00000000000E+00 -0.36259630025E+03  0.36259852434E+03  0.12700000000E+01 0. -1.
         25    2    1    2    0    0  0.00000000000E+00  0.00000000000E+00 -0.35186313128E+03  0.37340656838E+03  0.12499920860E+03 0.  0.
    9000005    1    3    3    0    0 -0.19642200936E+02  0.59116941890E+02 -0.19073941388E+03  0.20065680373E+03  0.10000000000E+01 0.  0.
    9000005    1    3    3    0    0  0.19642200936E+02 -0.59116941890E+02 -0.16112371740E+03  0.17274976465E+03  0.10000000000E+01 0.  0.
<mgrwt>
<rscale>  0 0.12499921E+03</rscale>
<asrwt>0</asrwt>
<pdfrwt beam="1">  1        4 0.16571877E-02 0.12499921E+03</pdfrwt>
<pdfrwt beam="2">  1       -4 0.55789967E-01 0.12499921E+03</pdfrwt>
<totfact> 0.67225226E+03</totfact>
</mgrwt>
</event>
<event>
 5    1  0.3217527E-002  0.1249996E+03  0.7818608E-02  0.1235070E+00
         -4   -1    0    0    0  501 -0.00000000000E+00  0.00000000000E+00  0.45992282794E+02  0.46009813917E+02  0.12700000000E+01 0.  1.
          4   -1    0    0  501    0  0.00000000000E+00 -0.00000000000E+00 -0.84893700592E+02  0.84903199588E+02  0.12700000000E+01 0.  1.
         25    2    1    2    0    0  0.00000000000E+00  0.00000000000E+00 -0.38901417798E+02  0.13091301350E+03  0.12499958719E+03 0.  0.
    9000005    1    3    3    0    0 -0.46735036699E+02 -0.38782172796E+02 -0.34878641329E+02  0.70040989449E+02  0.10000000000E+01 0.  0.
    9000005    1    3    3    0    0  0.46735036699E+02  0.38782172796E+02 -0.40227764687E+01  0.60872024055E+02  0.10000000000E+01 0.  0.
<mgrwt>
<rscale>  0 0.12499959E+03</rscale>
<asrwt>0</asrwt>
<pdfrwt beam="2">  1        4 0.13062649E-01 0.12499959E+03</pdfrwt>
<pdfrwt beam="1">  1       -4 0.70778151E-02 0.12499959E+03</pdfrwt>
<totfact> 0.10325051E+04</totfact>
</mgrwt>
</event>
<event>
 5    1  0.3217527E-002  0.1249987E+03  0.7818608E-02  0.1235071E+00
         -4   -1    0    0    0  501 -0.00000000000E+00  0.00000000000E+00  0.74980997288E+01  0.76048931316E+01  0.12700000000E+01 0.  1.
          4   -1    0    0  501    0  0.00000000000E+00 -0.00000000000E+00 -0.51716340461E+03  0.51716496398E+03  0.12700000000E+01 0.  1.
         25    2    1    2    0    0  0.00000000000E+00  0.00000000000E+00 -0.50966530488E+03  0.52476985711E+03  0.12499871972E+03 0.  0.
    9000005    1    3    3    0    0 -0.69359563577E+01 -0.52569750959E+02 -0.39365822979E+03  0.39721466248E+03  0.10000000000E+01 0.  0.
    9000005    1    3    3    0    0  0.69359563577E+01  0.52569750959E+02 -0.11600707509E+03  0.12755519463E+03  0.10000000000E+01 0.  0.
<mgrwt>
<rscale>  0 0.12499872E+03</rscale>
<asrwt>0</asrwt>
<pdfrwt beam="2">  1        4 0.79571908E-01 0.12499872E+03</pdfrwt>
<pdfrwt beam="1">  1       -4 0.11618890E-02 0.12499872E+03</pdfrwt>
<totfact> 0.53994005E+03</totfact>
</mgrwt>
</event>
<event>
 5    1  0.3217527E-002  0.1250058E+03  0.7818608E-02  0.1235060E+00
          4   -1    0    0  501    0  0.00000000000E+00  0.00000000000E+00  0.62471280601E+03  0.62471409692E+03  0.12700000000E+01 0.  1.
         -4   -1    0    0    0  501 -0.00000000000E+00 -0.00000000000E+00 -0.61876617849E+01  0.63166492988E+01  0.12700000000E+01 0.  1.
         25    2    1    2    0    0  0.00000000000E+00  0.00000000000E+00  0.61852514423E+03  0.63103074622E+03  0.12500579441E+03 0.  0.
    9000005    1    3    3    0    0 -0.10017777944E+02  0.57000815083E+02  0.19021471989E+03  0.19882678003E+03  0.10000000000E+01 0.  0.
    9000005    1    3    3    0    0  0.10017777944E+02 -0.57000815083E+02  0.42831042434E+03  0.43220396619E+03  0.10000000000E+01 0.  0.
<mgrwt>
<rscale>  0 0.12500579E+03</rscale>
<asrwt>0</asrwt>
<pdfrwt beam="1">  1        4 0.96119659E-01 0.12500579E+03</pdfrwt>
<pdfrwt beam="2">  1       -4 0.96196963E-03 0.12500579E+03</pdfrwt>
<totfact> 0.46959717E+03</totfact>
</mgrwt>
</event>
<event>
 5    1  0.3217527E-002  0.1250021E+03  0.7818608E-02  0.1235066E+00
         -4   -1    0    0    0  501 -0.00000000000E+00  0.00000000000E+00  0.71515705411E+02  0.71526981066E+02  0.12700000000E+01 0. -1.
          4   -1    0    0  501    0  0.00000000000E+00 -0.00000000000E+00 -0.54599759209E+02  0.54614527424E+02  0.12700000000E+01 0. -1.
         25    2    1    2    0    0  0.00000000000E+00  0.00000000000E+00  0.16915946202E+02  0.12614150849E+03  0.12500212369E+03 0.  0.
    9000005    1    3    3    0    0 -0.17459372305E+02  0.32930752720E+02 -0.42160166696E+02  0.56282713259E+02  0.10000000000E+01 0.  0.
    9000005    1    3    3    0    0  0.17459372305E+02 -0.32930752720E+02  0.59076112898E+02  0.69858795231E+02  0.10000000000E+01 0.  0.
<mgrwt>
<rscale>  0 0.12500212E+03</rscale>
<asrwt>0</asrwt>
<pdfrwt beam="2">  1        4 0.84019663E-02 0.12500212E+03</pdfrwt>
<pdfrwt beam="1">  1       -4 0.11004420E-01 0.12500212E+03</pdfrwt>
<totfact> 0.10427358E+04</totfact>
</mgrwt>
</event>
<event>
 4    1  0.3217527E-002  0.1252722E+03  0.7818608E-02  0.1234645E+00
          4   -1    0    0  501    0  0.00000000000E+00  0.00000000000E+00  0.21032121465E+03  0.21032504899E+03  0.12700000000E+01 0.  1.
         -4   -1    0    0    0  501 -0.00000000000E+00 -0.00000000000E+00 -0.18628128658E+02  0.18671370526E+02  0.12700000000E+01 0.  1.
    9000005    1    1    2    0    0  0.62367818353E+02  0.50852729198E+01  0.10056950928E+03  0.11845180861E+03  0.10000000000E+01 0.  0.
    9000005    1    1    2    0    0 -0.62367818353E+02 -0.50852729198E+01  0.91123576714E+02  0.11054461090E+03  0.10000000000E+01 0.  0.
<mgrwt>
<rscale>  0 0.12527219E+03</rscale>
<asrwt>0</asrwt>
<pdfrwt beam="1">  1        4 0.32360731E-01 0.12527219E+03</pdfrwt>
<pdfrwt beam="2">  1       -4 0.28694872E-02 0.12527219E+03</pdfrwt>
<totfact> 0.84946941E+03</totfact>
</mgrwt>
</event>
<event>
 5    1  0.3217527E-002  0.1249995E+03  0.7818608E-02  0.1235070E+00
          4   -1    0    0  501    0  0.00000000000E+00  0.00000000000E+00  0.29924814070E+02  0.29951751153E+02  0.12700000000E+01 0. -1.
         -4   -1    0    0    0  501 -0.00000000000E+00 -0.00000000000E+00 -0.13044575798E+03  0.13045194010E+03  0.12700000000E+01 0. -1.
         25    2    1    2    0    0  0.00000000000E+00  0.00000000000E+00 -0.10052094391E+03  0.16040369125E+03  0.12499953601E+03 0.  0.
    9000005    1    3    3    0    0  0.44738792225E+02 -0.11742717068E+01  0.57080025801E+01  0.45127815560E+02  0.10000000000E+01 0.  0.
    9000005    1    3    3    0    0 -0.44738792225E+02  0.11742717068E+01 -0.10622894649E+03  0.11527587569E+03  0.10000000000E+01 0.  0.
<mgrwt>
<rscale>  0 0.12499954E+03</rscale>
<asrwt>0</asrwt>
<pdfrwt beam="1">  1        4 0.46063653E-02 0.12499954E+03</pdfrwt>
<pdfrwt beam="2">  1       -4 0.20071125E-01 0.12499954E+03</pdfrwt>
<totfact> 0.97266027E+03</totfact>
</mgrwt>
</event>
<event>
 4    1  0.3217527E-002  0.1251483E+03  0.7818608E-02  0.1234838E+00
         -4   -1    0    0    0  501 -0.00000000000E+00  0.00000000000E+00  0.70681686377E+02  0.70693095059E+02  0.12700000000E+01 0.  1.
          4   -1    0    0  501    0  0.00000000000E+00 -0.00000000000E+00 -0.55373404136E+02  0.55387966072E+02  0.12700000000E+01 0.  1.
    9000005    1    1    2    0    0  0.14651194147E+02 -0.34108901724E+02 -0.43084399149E+02  0.56880050253E+02  0.10000000000E+01 0.  0.
    9000005    1    1    2    0    0 -0.14651194147E+02  0.34108901724E+02  0.58392681389E+02  0.69201010878E+02  0.10000000000E+01 0.  0.
<mgrwt>
<rscale>  0 0.12514827E+03</rscale>
<asrwt>0</asrwt>
<pdfrwt beam="2">  1        4 0.85209830E-02 0.12514827E+03</pdfrwt>
<pdfrwt beam="1">  1       -4 0.10876103E-01 0.12514827E+03</pdfrwt>
<totfact> 0.10394362E+04</totfact>
</mgrwt>
</event>
<event>
 5    1  0.3217527E-002  0.1249667E+03  0.7818608E-02  0.1235121E+00
          4   -1    0    0  501    0  0.00000000000E+00  0.00000000000E+00  0.85514390397E+03  0.85514484702E+03  0.12700000000E+01 0.  1.
         -4   -1    0    0    0  501 -0.00000000000E+00 -0.00000000000E+00 -0.44762269032E+01  0.46529031033E+01  0.12700000000E+01 0.  1.
         25    2    1    2    0    0  0.00000000000E+00  0.00000000000E+00  0.85066767706E+03  0.85979775013E+03  0.12496669286E+03 0.  0.
    9000005    1    3    3    0    0 -0.57847807762E+02 -0.16875539594E+02  0.53880856850E+03  0.54216863261E+03  0.10000000000E+01 0.  0.
    9000005    1    3    3    0    0  0.57847807762E+02  0.16875539594E+02  0.31185910856E+03  0.31762911752E+03  0.10000000000E+01 0.  0.
<mgrwt>
<rscale>  0 0.12496669E+03</rscale>
<asrwt>0</asrwt>
<pdfrwt beam="1">  1        4 0.13157429E+00 0.12496669E+03</pdfrwt>
<pdfrwt beam="2">  1       -4 0.70231315E-03 0.12496669E+03</pdfrwt>
<totfact> 0.35755699E+03</totfact>
</mgrwt>
</event>
<event>
 5    1  0.3217527E-002  0.1249924E+03  0.7818608E-02  0.1235081E+00
          4   -1    0    0  501    0  0.00000000000E+00  0.00000000000E+00  0.41501253188E+03  0.41501447507E+03  0.12700000000E+01 0. -1.
         -4   -1    0    0    0  501 -0.00000000000E+00 -0.00000000000E+00 -0.93664069398E+01  0.94521150523E+01  0.12700000000E+01 0. -1.
         25    2    1    2    0    0  0.00000000000E+00  0.00000000000E+00  0.40564612494E+03  0.42446659012E+03  0.12499242957E+03 0.  0.
    9000005    1    3    3    0    0  0.35376464679E+02 -0.27041011737E+02  0.35170567603E+03  0.35451458802E+03  0.10000000000E+01 0.  0.
    9000005    1    3    3    0    0 -0.35376464679E+02  0.27041011737E+02  0.53940448905E+02  0.69952002095E+02  0.10000000000E+01 0.  0.
<mgrwt>
<rscale>  0 0.12499243E+03</rscale>
<asrwt>0</asrwt>
<pdfrwt beam="1">  1        4 0.63854829E-01 0.12499243E+03</pdfrwt>
<pdfrwt beam="2">  1       -4 0.14477280E-02 0.12499243E+03</pdfrwt>
<totfact> 0.62251171E+03</totfact>
</mgrwt>
</event>
<event>
 5    1  0.3217527E-002  0.1250031E+03  0.7818608E-02  0.1235064E+00
          4   -1    0    0  501    0  0.00000000000E+00  0.00000000000E+00  0.24957393798E+02  0.24989685976E+02  0.12700000000E+01 0.  1.
         -4   -1    0    0    0  501 -0.00000000000E+00 -0.00000000000E+00 -0.15638855865E+03  0.15639371528E+03  0.12700000000E+01 0.  1.
         25    2    1    2    0    0  0.00000000000E+00  0.00000000000E+00 -0.13143116486E+03  0.18138340125E+03  0.12500314858E+03 0.  0.
    9000005    1    3    3    0    0 -0.53778607207E+02  0.29355560291E+02 -0.83579135705E+02  0.10363570542E+03  0.10000000000E+01 0.  0.
    9000005    1    3    3    0    0  0.53778607207E+02 -0.29355560291E+02 -0.47852029150E+02  0.77747695830E+02  0.10000000000E+01 0.  0.
<mgrwt>
<rscale>  0 0.12500315E+03</rscale>
<asrwt>0</asrwt>
<pdfrwt beam="1">  1        4 0.38424798E-02 0.12500315E+03</pdfrwt>
<pdfrwt beam="2">  1       -4 0.24062658E-01 0.12500315E+03</pdfrwt>
<totfact> 0.93361988E+03</totfact>
</mgrwt>
</event>
<event>
 5    1  0.3217527E-002  0.1250072E+03  0.7818608E-02  0.1235058E+00
          4   -1    0    0  501    0  0.00000000000E+00  0.00000000000E+00  0.50024355330E+03  0.50024516541E+03  0.12700000000E+01 0.  1.
         -4   -1    0    0    0  501 -0.00000000000E+00 -0.00000000000E+00 -0.77563253647E+01  0.78596108786E+01  0.12700000000E+01 0.  1.
         25    2    1    2    0    0  0.00000000000E+00  0.00000000000E+00  0.49248722794E+03  0.50810477629E+03  0.12500717583E+03 0.  0.
    9000005    1    3    3    0    0 -0.71531650186E+01  0.40242985100E+02  0.54084807656E+02  0.67799941289E+02  0.10000000000E+01 0.  0.
    9000005    1    3    3    0    0  0.71531650186E+01 -0.40242985100E+02  0.43840242028E+03  0.44030483500E+03  0.10000000000E+01 0.  0.
<mgrwt>
<rscale>  0 0.12500718E+03</rscale>
<asrwt>0</asrwt>
<pdfrwt beam="1">  1        4 0.76968624E-01 0.12500718E+03</pdfrwt>
<pdfrwt beam="2">  1       -4 0.12013497E-02 0.12500718E+03</pdfrwt>
<totfact> 0.55232255E+03</totfact>
</mgrwt>
</event>
<event>
 4    1  0.3217527E-002  0.1250760E+03  0.7818608E-02  0.1234950E+00
         -4   -1    0    0    0  501 -0.00000000000E+00  0.00000000000E+00  0.96348491109E+02  0.96356860881E+02  0.12700000000E+01 0.  1.
          4   -1    0    0  501    0  0.00000000000E+00 -0.00000000000E+00 -0.40572198356E+02  0.40592070401E+02  0.12700000000E+01 0.  1.
    9000005    1    1    2    0    0 -0.12261565747E+02  0.60564259358E+02  0.38369061069E+02  0.72743112068E+02  0.10000000000E+01 0.  0.
    9000005    1    1    2    0    0  0.12261565747E+02 -0.60564259358E+02  0.17407231683E+02  0.64205819214E+02  0.10000000000E+01 0.  0.
<mgrwt>
<rscale>  0 0.12507604E+03</rscale>
<asrwt>0</asrwt>
<pdfrwt beam="2">  1        4 0.62440491E-02 0.12507604E+03</pdfrwt>
<pdfrwt beam="1">  1       -4 0.14825017E-01 0.12507604E+03</pdfrwt>
<totfact> 0.10179691E+04</totfact>
</mgrwt>
</event>
<event>
 5    1  0.3217527E-002  0.1250044E+03  0.7818608E-02  0.1235062E+00
         -4   -1    0    0    0  501 -0.00000000000E+00  0.00000000000E+00  0.51234123250E+02  0.51249861319E+02  0.12700000000E+01 0. -1.
          4   -1    0    0  501    0  0.00000000000E+00 -0.00000000000E+00 -0.76215750296E+02  0.76226330708E+02  0.12700000000E+01 0. -1.
         25    2    1    2    0    0  0.00000000000E+00  0.00000000000E+00 -0.24981627045E+02  0.12747619203E+03  0.12500439130E+03 0.  0.
    9000005    1    3    3    0    0 -0.19629805740E+02 -0.48879225935E+02 -0.46786403213E+02  0.70459034389E+02  0.10000000000E+01 0.  0.
    9000005    1    3    3    0    0  0.19629805740E+02  0.48879225935E+02  0.21804776167E+02  0.57017157638E+02  0.10000000000E+01 0.  0.
<mgrwt>
<rscale>  0 0.12500439E+03</rscale>
<asrwt>0</asrwt>
<pdfrwt beam="2">  1        4 0.11727525E-01 0.12500439E+03</pdfrwt>
<pdfrwt beam="1">  1       -4 0.78841973E-02 0.12500439E+03</pdfrwt>
<totfact> 0.10397785E+04</totfact>
</mgrwt>
</event>
<event>
 5    1  0.3217527E-002  0.1249997E+03  0.7818608E-02  0.1235070E+00
         -4   -1    0    0    0  501 -0.00000000000E+00  0.00000000000E+00  0.21977762930E+02  0.22014426257E+02  0.12700000000E+01 0.  1.
          4   -1    0    0  501    0  0.00000000000E+00 -0.00000000000E+00 -0.17754856372E+03  0.17755310580E+03  0.12700000000E+01 0.  1.
         25    2    1    2    0    0  0.00000000000E+00  0.00000000000E+00 -0.15557080079E+03  0.19956753206E+03  0.12499970317E+03 0.  0.
    9000005    1    3    3    0    0  0.56796331572E+02  0.25124349976E+01 -0.11920628387E+03  0.13207298635E+03  0.10000000000E+01 0.  0.
    9000005    1    3    3    0    0 -0.56796331572E+02 -0.25124349976E+01 -0.36364516929E+02  0.67494545714E+02  0.10000000000E+01 0.  0.
<mgrwt>
<rscale>  0 0.12499970E+03</rscale>
<asrwt>0</asrwt>
<pdfrwt beam="2">  1        4 0.27318332E-01 0.12499970E+03</pdfrwt>
<pdfrwt beam="1">  1       -4 0.33843641E-02 0.12499970E+03</pdfrwt>
<totfact> 0.90209096E+03</totfact>
</mgrwt>
</event>
<event>
 5    1  0.3217527E-002  0.1250002E+03  0.7818608E-02  0.1235069E+00
         -4   -1    0    0    0  501 -0.00000000000E+00  0.00000000000E+00  0.17468314463E+03  0.17468776121E+03  0.12700000000E+01 0. -1.
          4   -1    0    0  501    0  0.00000000000E+00 -0.00000000000E+00 -0.22339056738E+02  0.22375128065E+02  0.12700000000E+01 0. -1.
         25    2    1    2    0    0  0.00000000000E+00  0.00000000000E+00  0.15234408789E+03  0.19706288928E+03  0.12500024486E+03 0.  0.
    9000005    1    3    3    0    0 -0.15254478063E+01  0.33990412265E+02  0.15880817211E+03  0.16241524142E+03  0.10000000000E+01 0.  0.
    9000005    1    3    3    0    0  0.15254478063E+01 -0.33990412265E+02 -0.64640842225E+01  0.34647647853E+02  0.10000000000E+01 0.  0.
<mgrwt>
<rscale>  0 0.12500024E+03</rscale>
<asrwt>0</asrwt>
<pdfrwt beam="2">  1        4 0.34399077E-02 0.12500024E+03</pdfrwt>
<pdfrwt beam="1">  1       -4 0.26877461E-01 0.12500024E+03</pdfrwt>
<totfact> 0.90632212E+03</totfact>
</mgrwt>
</event>
<event>
 5    1  0.3217527E-002  0.1249946E+03  0.7818608E-02  0.1235078E+00
          4   -1    0    0  501    0  0.00000000000E+00  0.00000000000E+00  0.14452530910E+03  0.14453088898E+03  0.12700000000E+01 0.  1.
         -4   -1    0    0    0  501 -0.00000000000E+00 -0.00000000000E+00 -0.27004791285E+02  0.27034638011E+02  0.12700000000E+01 0.  1.
         25    2    1    2    0    0  0.00000000000E+00  0.00000000000E+00  0.11752051781E+03  0.17156552699E+03  0.12499463167E+03 0.  0.
    9000005    1    3    3    0    0 -0.94942871169E+01  0.56544492543E+02  0.24652372025E+02  0.62419232383E+02  0.10000000000E+01 0.  0.
    9000005    1    3    3    0    0  0.94942871169E+01 -0.56544492543E+02  0.92868145788E+02  0.10914629461E+03  0.10000000000E+01 0.  0.
<mgrwt>
<rscale>  0 0.12499463E+03</rscale>
<asrwt>0</asrwt>
<pdfrwt beam="1">  1        4 0.22237388E-01 0.12499463E+03</pdfrwt>
<pdfrwt beam="2">  1       -4 0.41573084E-02 0.12499463E+03</pdfrwt>
<totfact> 0.95169111E+03</totfact>
</mgrwt>
</event>
<event>
 5    1  0.3217527E-002  0.1249972E+03  0.7818608E-02  0.1235074E+00
          4   -1    0    0  501    0  0.00000000000E+00  0.00000000000E+00  0.13907456626E+03  0.13908036483E+03  0.12700000000E+01 0.  1.
         -4   -1    0    0    0  501 -0.00000000000E+00 -0.00000000000E+00 -0.28065466817E+02  0.28094186724E+02  0.12700000000E+01 0.  1.
         25    2    1    2    0    0  0.00000000000E+00  0.00000000000E+00  0.11100909944E+03  0.16717455155E+03  0.12499724208E+03 0.  0.
    9000005    1    3    3    0    0  0.35201273914E+02  0.20329572305E+02 -0.79725705550E+01  0.41436494501E+02  0.10000000000E+01 0.  0.
    9000005    1    3    3    0    0 -0.35201273914E+02 -0.20329572305E+02  0.11898167000E+03  0.12573805705E+03  0.10000000000E+01 0.  0.
<mgrwt>
<rscale>  0 0.12499724E+03</rscale>
<asrwt>0</asrwt>
<pdfrwt beam="1">  1        4 0.21398743E-01 0.12499724E+03</pdfrwt>
<pdfrwt beam="2">  1       -4 0.43204193E-02 0.12499724E+03</pdfrwt>
<totfact> 0.95983089E+03</totfact>
</mgrwt>
</event>
<event>
 5    1  0.3217527E-002  0.1250018E+03  0.7818608E-02  0.1235066E+00
          4   -1    0    0  501    0  0.00000000000E+00  0.00000000000E+00  0.22440038299E+02  0.22475947563E+02  0.12700000000E+01 0.  1.
         -4   -1    0    0    0  501 -0.00000000000E+00 -0.00000000000E+00 -0.17390270760E+03  0.17390734490E+03  0.12700000000E+01 0.  1.
         25    2    1    2    0    0  0.00000000000E+00  0.00000000000E+00 -0.15146266930E+03  0.19638329246E+03  0.12500182945E+03 0.  0.
    9000005    1    3    3    0    0 -0.89571816378E+01  0.33296968796E+02  0.61507016635E+01  0.35039268897E+02  0.10000000000E+01 0.  0.
    9000005    1    3    3    0    0  0.89571816378E+01 -0.33296968796E+02 -0.15761337096E+03  0.16134402356E+03  0.10000000000E+01 0.  0.
<mgrwt>
<rscale>  0 0.12500183E+03</rscale>
<asrwt>0</asrwt>
<pdfrwt beam="1">  1        4 0.34554327E-02 0.12500183E+03</pdfrwt>
<pdfrwt beam="2">  1       -4 0.26757381E-01 0.12500183E+03</pdfrwt>
<totfact> 0.90744636E+03</totfact>
</mgrwt>
</event>
<event>
 5    1  0.3217527E-002  0.1250039E+03  0.7818608E-02  0.1235063E+00
         -4   -1    0    0    0  501 -0.00000000000E+00  0.00000000000E+00  0.44587270895E+02  0.44605354229E+02  0.12700000000E+01 0. -1.
          4   -1    0    0  501    0  0.00000000000E+00 -0.00000000000E+00 -0.87574142556E+02  0.87583350840E+02  0.12700000000E+01 0. -1.
         25    2    1    2    0    0  0.00000000000E+00  0.00000000000E+00 -0.42986871661E+02  0.13218870507E+03  0.12500393039E+03 0.  0.
    9000005    1    3    3    0    0 -0.76432255732E+01 -0.59422171898E+02 -0.40293993387E+02  0.72208166528E+02  0.10000000000E+01 0.  0.
    9000005    1    3    3    0    0  0.76432255732E+01  0.59422171898E+02 -0.26928782737E+01  0.59980538541E+02  0.10000000000E+01 0.  0.
<mgrwt>
<rscale>  0 0.12500393E+03</rscale>
<asrwt>0</asrwt>
<pdfrwt beam="2">  1        4 0.13475044E-01 0.12500393E+03</pdfrwt>
<pdfrwt beam="1">  1       -4 0.68616795E-02 0.12500393E+03</pdfrwt>
<totfact> 0.10296759E+04</totfact>
</mgrwt>
</event>
<event>
 5    1  0.3217527E-002  0.1249978E+03  0.7818608E-02  0.1235073E+00
          4   -1    0    0  501    0  0.00000000000E+00  0.00000000000E+00  0.24126219067E+03  0.24126553327E+03  0.12700000000E+01 0.  1.
         -4   -1    0    0    0  501 -0.00000000000E+00 -0.00000000000E+00 -0.16161959844E+02  0.16211781087E+02  0.12700000000E+01 0.  1.
         25    2    1    2    0    0  0.00000000000E+00  0.00000000000E+00  0.22510023082E+03  0.25747731436E+03  0.12499781396E+03 0.  0.
    9000005    1    3    3    0    0 -0.19347486588E+02  0.42888173754E+01 -0.95281014777E+01  0.22011449509E+02  0.10000000000E+01 0.  0.
    9000005    1    3    3    0    0  0.19347486588E+02 -0.42888173754E+01  0.23462833230E+03  0.23546586485E+03  0.10000000000E+01 0.  0.
<mgrwt>
<rscale>  0 0.12499781E+03</rscale>
<asrwt>0</asrwt>
<pdfrwt beam="1">  1        4 0.37121348E-01 0.12499781E+03</pdfrwt>
<pdfrwt beam="2">  1       -4 0.24905450E-02 0.12499781E+03</pdfrwt>
<totfact> 0.81265348E+03</totfact>
</mgrwt>
</event>
<event>
 5    1  0.3217527E-002  0.1250007E+03  0.7818608E-02  0.1235068E+00
          4   -1    0    0  501    0  0.00000000000E+00  0.00000000000E+00  0.62864475227E+03  0.62864603511E+03  0.12700000000E+01 0.  1.
         -4   -1    0    0    0  501 -0.00000000000E+00 -0.00000000000E+00 -0.61476393213E+01  0.62774492610E+01  0.12700000000E+01 0.  1.
         25    2    1    2    0    0  0.00000000000E+00  0.00000000000E+00  0.62249711295E+03  0.63492348437E+03  0.12500070149E+03 0.  0.
    9000005    1    3    3    0    0 -0.59910713543E+02 -0.14774761264E+02  0.26104077178E+03  0.26823659650E+03  0.10000000000E+01 0.  0.
    9000005    1    3    3    0    0  0.59910713543E+02  0.14774761264E+02  0.36145634117E+03  0.36668688788E+03  0.10000000000E+01 0.  0.
<mgrwt>
<rscale>  0 0.12500070E+03</rscale>
<asrwt>0</asrwt>
<pdfrwt beam="1">  1        4 0.96724647E-01 0.12500070E+03</pdfrwt>
<pdfrwt beam="2">  1       -4 0.95587487E-03 0.12500070E+03</pdfrwt>
<totfact> 0.46734112E+03</totfact>
</mgrwt>
</event>
<event>
 5    1  0.3217527E-002  0.1249985E+03  0.7818608E-02  0.1235072E+00
          4   -1    0    0  501    0  0.00000000000E+00  0.00000000000E+00  0.38336057723E+02  0.38357088285E+02  0.12700000000E+01 0.  1.
         -4   -1    0    0    0  501 -0.00000000000E+00 -0.00000000000E+00 -0.10183948424E+03  0.10184740277E+03  0.12700000000E+01 0.  1.
         25    2    1    2    0    0  0.00000000000E+00  0.00000000000E+00 -0.63503426517E+02  0.14020449105E+03  0.12499845652E+03 0.  0.
    9000005    1    3    3    0    0 -0.41592264908E+02  0.46445252867E+02 -0.36520442461E+02  0.72262166668E+02  0.10000000000E+01 0.  0.
    9000005    1    3    3    0    0  0.41592264908E+02 -0.46445252867E+02 -0.26982984056E+02  0.67942324383E+02  0.10000000000E+01 0.  0.
<mgrwt>
<rscale>  0 0.12499846E+03</rscale>
<asrwt>0</asrwt>
<pdfrwt beam="1">  1        4 0.59000819E-02 0.12499846E+03</pdfrwt>
<pdfrwt beam="2">  1       -4 0.15669840E-01 0.12499846E+03</pdfrwt>
<totfact> 0.10129702E+04</totfact>
</mgrwt>
</event>
<event>
 5    1  0.3217527E-002  0.1249964E+03  0.7818608E-02  0.1235075E+00
          4   -1    0    0  501    0  0.00000000000E+00  0.00000000000E+00  0.11986467657E+03  0.11987140439E+03  0.12700000000E+01 0.  1.
         -4   -1    0    0    0  501 -0.00000000000E+00 -0.00000000000E+00 -0.32566940073E+02  0.32591693508E+02  0.12700000000E+01 0.  1.
         25    2    1    2    0    0  0.00000000000E+00  0.00000000000E+00  0.87297736500E+02  0.15246309790E+03  0.12499640564E+03 0.  0.
    9000005    1    3    3    0    0  0.44094132148E+02 -0.10107599119E+02  0.96233228605E+02  0.10634044545E+03  0.10000000000E+01 0.  0.
    9000005    1    3    3    0    0 -0.44094132148E+02  0.10107599119E+02 -0.89354921052E+01  0.46122652450E+02  0.10000000000E+01 0.  0.
<mgrwt>
<rscale>  0 0.12499641E+03</rscale>
<asrwt>0</asrwt>
<pdfrwt beam="1">  1        4 0.18443141E-01 0.12499641E+03</pdfrwt>
<pdfrwt beam="2">  1       -4 0.50127201E-02 0.12499641E+03</pdfrwt>
<totfact> 0.98822955E+03</totfact>
</mgrwt>
</event>
<event>
 5    1  0.3217527E-002  0.1249923E+03  0.7818608E-02  0.1235081E+00
         -4   -1    0    0    0  501 -0.00000000000E+00  0.00000000000E+00  0.34495397117E+02  0.34518767681E+02  0.12700000000E+01 0.  1.
          4   -1    0    0  501    0  0.00000000000E+00 -0.00000000000E+00 -0.11316042930E+03  0.11316755568E+03  0.12700000000E+01 0.  1.
         25    2    1    2    0    0  0.00000000000E+00  0.00000000000E+00 -0.78665032181E+02  0.14768632336E+03  0.12499225104E+03 0.  0.
    9000005    1    3    3    0    0 -0.43094101733E+01 -0.61163624536E+02 -0.53570518285E+02  0.81427025070E+02  0.10000000000E+01 0.  0.
    9000005    1    3    3    0    0  0.43094101733E+01  0.61163624536E+02 -0.25094513896E+02  0.66259298292E+02  0.10000000000E+01 0.  0.
<mgrwt>
<rscale>  0 0.12499225E+03</rscale>
<asrwt>0</asrwt>
<pdfrwt beam="2">  1        4 0.17411643E-01 0.12499225E+03</pdfrwt>
<pdfrwt beam="1">  1       -4 0.53093301E-02 0.12499225E+03</pdfrwt>
<totfact> 0.99784315E+03</totfact>
</mgrwt>
</event>
<event>
 5    1  0.3217527E-002  0.1249974E+03  0.7818608E-02  0.1235073E+00
         -4   -1    0    0    0  501 -0.00000000000E+00  0.00000000000E+00  0.22156113992E+01  0.25537881416E+01  0.12700000000E+01 0.  1.
          4   -1    0    0  501    0  0.00000000000E+00 -0.00000000000E+00 -0.16376411148E+04  0.16376416072E+04  0.12700000000E+01 0.  1.
         25    2    1    2    0    0  0.00000000000E+00  0.00000000000E+00 -0.16354255034E+04  0.16401953953E+04  0.12499743148E+03 0.  0.
    9000005    1    3    3    0    0  0.61893336279E+02 -0.65561590622E+01 -0.89114951033E+03  0.89332089311E+03  0.10000000000E+01 0.  0.
    9000005    1    3    3    0    0 -0.61893336279E+02  0.65561590622E+01 -0.74427599302E+03  0.74687450224E+03  0.10000000000E+01 0.  0.
<mgrwt>
<rscale>  0 0.12499743E+03</rscale>
<asrwt>0</asrwt>
<pdfrwt beam="2">  1        4 0.25196994E+00 0.12499743E+03</pdfrwt>
<pdfrwt beam="1">  1       -4 0.36691608E-03 0.12499743E+03</pdfrwt>
<totfact> 0.15331472E+03</totfact>
</mgrwt>
</event>
<event>
 5    1  0.3217527E-002  0.1250009E+03  0.7818608E-02  0.1235068E+00
         -4   -1    0    0    0  501 -0.00000000000E+00  0.00000000000E+00  0.18132184421E+02  0.18176606170E+02  0.12700000000E+01 0. -1.
          4   -1    0    0  501    0  0.00000000000E+00 -0.00000000000E+00 -0.21512513322E+03  0.21512888193E+03  0.12700000000E+01 0. -1.
         25    2    1    2    0    0  0.00000000000E+00  0.00000000000E+00 -0.19699294880E+03  0.23330548810E+03  0.12500091561E+03 0.  0.
    9000005    1    3    3    0    0  0.28425781565E+02 -0.56655191738E+00 -0.20236396565E+03  0.20435391024E+03  0.10000000000E+01 0.  0.
    9000005    1    3    3    0    0 -0.28425781565E+02  0.56655191738E+00  0.53710168506E+01  0.28951577862E+02  0.10000000000E+01 0.  0.
<mgrwt>
<rscale>  0 0.12500092E+03</rscale>
<asrwt>0</asrwt>
<pdfrwt beam="2">  1        4 0.33099878E-01 0.12500092E+03</pdfrwt>
<pdfrwt beam="1">  1       -4 0.27932724E-02 0.12500092E+03</pdfrwt>
<totfact> 0.84802876E+03</totfact>
</mgrwt>
</event>
<event>
 5    1  0.3217527E-002  0.1250059E+03  0.7818608E-02  0.1235060E+00
         -4   -1    0    0    0  501 -0.00000000000E+00  0.00000000000E+00  0.25938673147E+02  0.25969745178E+02  0.12700000000E+01 0.  1.
          4   -1    0    0  501    0  0.00000000000E+00 -0.00000000000E+00 -0.15048599439E+03  0.15049135326E+03  0.12700000000E+01 0.  1.
         25    2    1    2    0    0  0.00000000000E+00  0.00000000000E+00 -0.12454732124E+03  0.17646109844E+03  0.12500593600E+03 0.  0.
    9000005    1    3    3    0    0 -0.23876140489E+02  0.26754353549E+02  0.99781477848E+01  0.37234781478E+02  0.10000000000E+01 0.  0.
    9000005    1    3    3    0    0  0.23876140489E+02 -0.26754353549E+02 -0.13452546902E+03  0.13922631696E+03  0.10000000000E+01 0.  0.
<mgrwt>
<rscale>  0 0.12500594E+03</rscale>
<asrwt>0</asrwt>
<pdfrwt beam="2">  1        4 0.23154493E-01 0.12500594E+03</pdfrwt>
<pdfrwt beam="1">  1       -4 0.39933676E-02 0.12500594E+03</pdfrwt>
<totfact> 0.94245375E+03</totfact>
</mgrwt>
</event>
<event>
 5    1  0.3217527E-002  0.1249983E+03  0.7818608E-02  0.1235072E+00
         -4   -1    0    0    0  501 -0.00000000000E+00  0.00000000000E+00  0.97632855555E+02  0.97641115232E+02  0.12700000000E+01 0. -1.
          4   -1    0    0  501    0  0.00000000000E+00 -0.00000000000E+00 -0.39988479570E+02  0.40008641546E+02  0.12700000000E+01 0. -1.
         25    2    1    2    0    0  0.00000000000E+00  0.00000000000E+00  0.57644375984E+02  0.13764975678E+03  0.12499832582E+03 0.  0.
    9000005    1    3    3    0    0 -0.28909923510E+02 -0.55349459146E+02  0.31474044594E+02  0.69935411547E+02  0.10000000000E+01 0.  0.
    9000005    1    3    3    0    0  0.28909923510E+02  0.55349459146E+02  0.26170331390E+02  0.67714345231E+02  0.10000000000E+01 0.  0.
<mgrwt>
<rscale>  0 0.12499833E+03</rscale>
<asrwt>0</asrwt>
<pdfrwt beam="2">  1        4 0.61542601E-02 0.12499833E+03</pdfrwt>
<pdfrwt beam="1">  1       -4 0.15022625E-01 0.12499833E+03</pdfrwt>
<totfact> 0.10182902E+04</totfact>
</mgrwt>
</event>
<event>
 5    1  0.3217527E-002  0.1250001E+03  0.7818608E-02  0.1235069E+00
          4   -1    0    0  501    0  0.00000000000E+00  0.00000000000E+00  0.21384552044E+02  0.21422230653E+02  0.12700000000E+01 0. -1.
         -4   -1    0    0    0  501 -0.00000000000E+00 -0.00000000000E+00 -0.18246648031E+03  0.18247089997E+03  0.12700000000E+01 0. -1.
         25    2    1    2    0    0  0.00000000000E+00  0.00000000000E+00 -0.16108192826E+03  0.20389313062E+03  0.12500008441E+03 0.  0.
    9000005    1    3    3    0    0  0.53844938647E+02  0.15112893188E+02 -0.35056366333E+02  0.66012315357E+02  0.10000000000E+01 0.  0.
    9000005    1    3    3    0    0 -0.53844938647E+02 -0.15112893188E+02 -0.12602556193E+03  0.13788081526E+03  0.10000000000E+01 0.  0.
<mgrwt>
<rscale>  0 0.12500008E+03</rscale>
<asrwt>0</asrwt>
<pdfrwt beam="1">  1        4 0.32931695E-02 0.12500008E+03</pdfrwt>
<pdfrwt beam="2">  1       -4 0.28075003E-01 0.12500008E+03</pdfrwt>
<totfact> 0.89482858E+03</totfact>
</mgrwt>
</event>
<event>
 5    1  0.3217527E-002  0.1250011E+03  0.7818608E-02  0.1235068E+00
         -4   -1    0    0    0  501 -0.00000000000E+00  0.00000000000E+00  0.18303636181E+02  0.18347642830E+02  0.12700000000E+01 0. -1.
          4   -1    0    0  501    0  0.00000000000E+00 -0.00000000000E+00 -0.21311555630E+03  0.21311934037E+03  0.12700000000E+01 0. -1.
         25    2    1    2    0    0  0.00000000000E+00  0.00000000000E+00 -0.19481192012E+03  0.23146698320E+03  0.12500112035E+03 0.  0.
    9000005    1    3    3    0    0 -0.29929322119E+02 -0.14217173865E+02  0.70769018643E+00  0.33157098495E+02  0.10000000000E+01 0.  0.
    9000005    1    3    3    0    0  0.29929322119E+02  0.14217173865E+02 -0.19551961031E+03  0.19830988470E+03  0.10000000000E+01 0.  0.
<mgrwt>
<rscale>  0 0.12500112E+03</rscale>
<asrwt>0</asrwt>
<pdfrwt beam="2">  1        4 0.32790683E-01 0.12500112E+03</pdfrwt>
<pdfrwt beam="1">  1       -4 0.28196204E-02 0.12500112E+03</pdfrwt>
<totfact> 0.85082722E+03</totfact>
</mgrwt>
</event>
<event>
 5    1  0.3217527E-002  0.1249745E+03  0.7818608E-02  0.1235109E+00
         -4   -1    0    0    0  501 -0.00000000000E+00  0.00000000000E+00  0.33207068266E+03  0.33207311120E+03  0.12700000000E+01 0. -1.
          4   -1    0    0  501    0  0.00000000000E+00 -0.00000000000E+00 -0.11721746252E+02  0.11790344999E+02  0.12700000000E+01 0. -1.
         25    2    1    2    0    0  0.00000000000E+00  0.00000000000E+00  0.32034893641E+03  0.34386345620E+03  0.12497453922E+03 0.  0.
    9000005    1    3    3    0    0 -0.48677759362E+02  0.32608921406E+02  0.10047377008E+03  0.11631356106E+03  0.10000000000E+01 0.  0.
    9000005    1    3    3    0    0  0.48677759362E+02 -0.32608921406E+02  0.21987516632E+03  0.22754989514E+03  0.10000000000E+01 0.  0.
<mgrwt>
<rscale>  0 0.12497454E+03</rscale>
<asrwt>0</asrwt>
<pdfrwt beam="2">  1        4 0.18088092E-02 0.12497454E+03</pdfrwt>
<pdfrwt beam="1">  1       -4 0.51093261E-01 0.12497454E+03</pdfrwt>
<totfact> 0.70444664E+03</totfact>
</mgrwt>
</event>
<event>
 5    1  0.3217527E-002  0.1249942E+03  0.7818608E-02  0.1235078E+00
          4   -1    0    0  501    0  0.00000000000E+00  0.00000000000E+00  0.80737946993E+01  0.81730692427E+01  0.12700000000E+01 0. -1.
         -4   -1    0    0    0  501 -0.00000000000E+00 -0.00000000000E+00 -0.48071720198E+03  0.48071887958E+03  0.12700000000E+01 0. -1.
         25    2    1    2    0    0  0.00000000000E+00  0.00000000000E+00 -0.47264340728E+03  0.48889194882E+03  0.12499418856E+03 0.  0.
    9000005    1    3    3    0    0  0.36138957658E+02 -0.27274965948E+02 -0.40477823438E+03  0.40730377737E+03  0.10000000000E+01 0.  0.
    9000005    1    3    3    0    0 -0.36138957658E+02  0.27274965948E+02 -0.67865172900E+02  0.81588171452E+02  0.10000000000E+01 0.  0.
<mgrwt>
<rscale>  0 0.12499419E+03</rscale>
<asrwt>0</asrwt>
<pdfrwt beam="1">  1        4 0.12498882E-02 0.12499419E+03</pdfrwt>
<pdfrwt beam="2">  1       -4 0.73964236E-01 0.12499419E+03</pdfrwt>
<totfact> 0.56743896E+03</totfact>
</mgrwt>
</event>
<event>
 5    1  0.3217527E-002  0.1249999E+03  0.7818608E-02  0.1235069E+00
         -4   -1    0    0    0  501 -0.00000000000E+00  0.00000000000E+00  0.32012499510E+03  0.32012751427E+03  0.12700000000E+01 0.  1.
          4   -1    0    0  501    0  0.00000000000E+00 -0.00000000000E+00 -0.12166628835E+02  0.12232733023E+02  0.12700000000E+01 0.  1.
         25    2    1    2    0    0  0.00000000000E+00  0.00000000000E+00  0.30795836627E+03  0.33236024729E+03  0.12499991449E+03 0.  0.
    9000005    1    3    3    0    0  0.12401169329E+00 -0.16564696207E+02  0.31419408943E+03  0.31463205554E+03  0.10000000000E+01 0.  0.
    9000005    1    3    3    0    0 -0.12401169329E+00  0.16564696207E+02 -0.62357231636E+01  0.17728191749E+02  0.10000000000E+01 0.  0.
<mgrwt>
<rscale>  0 0.12499991E+03</rscale>
<asrwt>0</asrwt>
<pdfrwt beam="2">  1        4 0.18770680E-02 0.12499991E+03</pdfrwt>
<pdfrwt beam="1">  1       -4 0.49255273E-01 0.12499991E+03</pdfrwt>
<totfact> 0.71709897E+03</totfact>
</mgrwt>
</event>
<event>
 5    1  0.3217527E-002  0.1250025E+03  0.7818608E-02  0.1235065E+00
          4   -1    0    0  501    0  0.00000000000E+00  0.00000000000E+00  0.72350296966E+02  0.72361442572E+02  0.12700000000E+01 0.  1.
         -4   -1    0    0    0  501 -0.00000000000E+00 -0.00000000000E+00 -0.53970209985E+02  0.53985150420E+02  0.12700000000E+01 0.  1.
         25    2    1    2    0    0  0.00000000000E+00  0.00000000000E+00  0.18380086981E+02  0.12634659299E+03  0.12500253583E+03 0.  0.
    9000005    1    3    3    0    0 -0.39668421290E+02 -0.36084081331E+02 -0.23244929999E+02  0.58454865869E+02  0.10000000000E+01 0.  0.
    9000005    1    3    3    0    0  0.39668421290E+02  0.36084081331E+02  0.41625016979E+02  0.67891727122E+02  0.10000000000E+01 0.  0.
<mgrwt>
<rscale>  0 0.12500254E+03</rscale>
<asrwt>0</asrwt>
<pdfrwt beam="1">  1        4 0.11132822E-01 0.12500254E+03</pdfrwt>
<pdfrwt beam="2">  1       -4 0.83051158E-02 0.12500254E+03</pdfrwt>
<totfact> 0.10422779E+04</totfact>
</mgrwt>
</event>
<event>
 5    1  0.3217527E-002  0.1250005E+03  0.7818608E-02  0.1235069E+00
          4   -1    0    0  501    0  0.00000000000E+00  0.00000000000E+00  0.50117910312E+03  0.50118071222E+03  0.12700000000E+01 0. -1.
         -4   -1    0    0    0  501 -0.00000000000E+00 -0.00000000000E+00 -0.77408147958E+01  0.78443045391E+01  0.12700000000E+01 0. -1.
         25    2    1    2    0    0  0.00000000000E+00  0.00000000000E+00  0.49343828832E+03  0.50902501676E+03  0.12500049322E+03 0.  0.
    9000005    1    3    3    0    0 -0.57788347249E+02 -0.20007670494E+02  0.19433482571E+03  0.20373223711E+03  0.10000000000E+01 0.  0.
    9000005    1    3    3    0    0  0.57788347249E+02  0.20007670494E+02  0.29910346261E+03  0.30529277964E+03  0.10000000000E+01 0.  0.
<mgrwt>
<rscale>  0 0.12500049E+03</rscale>
<asrwt>0</asrwt>
<pdfrwt beam="1">  1        4 0.77112569E-01 0.12500049E+03</pdfrwt>
<pdfrwt beam="2">  1       -4 0.11989790E-02 0.12500049E+03</pdfrwt>
<totfact> 0.55170270E+03</totfact>
</mgrwt>
</event>
<event>
 5    1  0.3217527E-002  0.1250049E+03  0.7818608E-02  0.1235062E+00
          4   -1    0    0  501    0  0.00000000000E+00  0.00000000000E+00  0.17922956566E+03  0.17923406514E+03  0.12700000000E+01 0.  1.
         -4   -1    0    0    0  501 -0.00000000000E+00 -0.00000000000E+00 -0.21773093094E+02  0.21810100478E+02  0.12700000000E+01 0.  1.
         25    2    1    2    0    0  0.00000000000E+00  0.00000000000E+00  0.15745647256E+03  0.20104416562E+03  0.12500486301E+03 0.  0.
    9000005    1    3    3    0    0 -0.13474982150E+02 -0.60931849634E+02  0.84131830007E+02  0.10475414199E+03  0.10000000000E+01 0.  0.
    9000005    1    3    3    0    0  0.13474982150E+02  0.60931849634E+02  0.73324642556E+02  0.96290023625E+02  0.10000000000E+01 0.  0.
<mgrwt>
<rscale>  0 0.12500486E+03</rscale>
<asrwt>0</asrwt>
<pdfrwt beam="1">  1        4 0.27576973E-01 0.12500486E+03</pdfrwt>
<pdfrwt beam="2">  1       -4 0.33528994E-02 0.12500486E+03</pdfrwt>
<totfact> 0.89949909E+03</totfact>
</mgrwt>
</event>
<event>
 5    1  0.3217527E-002  0.1249987E+03  0.7818608E-02  0.1235071E+00
         -4   -1    0    0    0  501 -0.00000000000E+00  0.00000000000E+00  0.45930296492E+02  0.45947851264E+02  0.12700000000E+01 0. -1.
          4   -1    0    0  501    0  0.00000000000E+00 -0.00000000000E+00 -0.85007048181E+02  0.85016534512E+02  0.12700000000E+01 0. -1.
         25    2    1    2    0    0  0.00000000000E+00  0.00000000000E+00 -0.39076751689E+02  0.13096438578E+03  0.12499871127E+03 0.  0.
    9000005    1    3    3    0    0  0.81446624792E+01  0.12911829639E+02 -0.83028477677E+02  0.84426174714E+02  0.10000000000E+01 0.  0.
    9000005    1    3    3    0    0 -0.81446624792E+01 -0.12911829639E+02  0.43951725988E+02  0.46538211062E+02  0.10000000000E+01 0.  0.
<mgrwt>
<rscale>  0 0.12499871E+03</rscale>
<asrwt>0</asrwt>
<pdfrwt beam="2">  1        4 0.13080088E-01 0.12499871E+03</pdfrwt>
<pdfrwt beam="1">  1       -4 0.70682795E-02 0.12499871E+03</pdfrwt>
<totfact> 0.10324153E+04</totfact>
</mgrwt>
</event>
<event>
 5    1  0.3217527E-002  0.1250012E+03  0.7818608E-02  0.1235067E+00
          4   -1    0    0  501    0  0.00000000000E+00  0.00000000000E+00  0.13115721904E+03  0.13116336763E+03  0.12700000000E+01 0. -1.
         -4   -1    0    0    0  501 -0.00000000000E+00 -0.00000000000E+00 -0.29763118437E+02  0.29790201730E+02  0.12700000000E+01 0. -1.
         25    2    1    2    0    0  0.00000000000E+00  0.00000000000E+00  0.10139410061E+03  0.16095356936E+03  0.12500115140E+03 0.  0.
    9000005    1    3    3    0    0 -0.36195532635E+02  0.42897590010E+02  0.86077283686E+02  0.10276487035E+03  0.10000000000E+01 0.  0.
    9000005    1    3    3    0    0  0.36195532635E+02 -0.42897590010E+02  0.15316816920E+02  0.58188699006E+02  0.10000000000E+01 0.  0.
<mgrwt>
<rscale>  0 0.12500115E+03</rscale>
<asrwt>0</asrwt>
<pdfrwt beam="1">  1        4 0.20180590E-01 0.12500115E+03</pdfrwt>
<pdfrwt beam="2">  1       -4 0.45814976E-02 0.12500115E+03</pdfrwt>
<totfact> 0.97156744E+03</totfact>
</mgrwt>
</event>
<event>
 5    1  0.3217527E-002  0.1250014E+03  0.7818608E-02  0.1235067E+00
         -4   -1    0    0    0  501 -0.00000000000E+00  0.00000000000E+00  0.16912481073E+02  0.16960097761E+02  0.12700000000E+01 0.  1.
          4   -1    0    0  501    0  0.00000000000E+00 -0.00000000000E+00 -0.23059951050E+03  0.23060300766E+03  0.12700000000E+01 0.  1.
         25    2    1    2    0    0  0.00000000000E+00  0.00000000000E+00 -0.21368702942E+03  0.24756310542E+03  0.12500137848E+03 0.  0.
    9000005    1    3    3    0    0 -0.57218884952E+02 -0.14624730157E+02 -0.14730806510E+03  0.15870900910E+03  0.10000000000E+01 0.  0.
    9000005    1    3    3    0    0  0.57218884952E+02  0.14624730157E+02 -0.66378964325E+02  0.88854096317E+02  0.10000000000E+01 0.  0.
<mgrwt>
<rscale>  0 0.12500138E+03</rscale>
<asrwt>0</asrwt>
<pdfrwt beam="2">  1        4 0.35480777E-01 0.12500138E+03</pdfrwt>
<pdfrwt beam="1">  1       -4 0.26058522E-02 0.12500138E+03</pdfrwt>
<totfact> 0.82681177E+03</totfact>
</mgrwt>
</event>
<event>
 5    1  0.3217527E-002  0.1249928E+03  0.7818608E-02  0.1235081E+00
         -4   -1    0    0    0  501 -0.00000000000E+00  0.00000000000E+00  0.14485403923E+03  0.14485960645E+03  0.12700000000E+01 0. -1.
          4   -1    0    0  501    0  0.00000000000E+00 -0.00000000000E+00 -0.26942647034E+02  0.26972562525E+02  0.12700000000E+01 0. -1.
         25    2    1    2    0    0  0.00000000000E+00  0.00000000000E+00  0.11791139220E+03  0.17183216898E+03  0.12499279133E+03 0.  0.
    9000005    1    3    3    0    0 -0.32099028086E+02 -0.31572850972E+01 -0.14621403085E+02  0.35427411441E+02  0.10000000000E+01 0.  0.
    9000005    1    3    3    0    0  0.32099028086E+02  0.31572850972E+01  0.13253279528E+03  0.13640475753E+03  0.10000000000E+01 0.  0.
<mgrwt>
<rscale>  0 0.12499279E+03</rscale>
<asrwt>0</asrwt>
<pdfrwt beam="2">  1        4 0.41477521E-02 0.12499279E+03</pdfrwt>
<pdfrwt beam="1">  1       -4 0.22287966E-01 0.12499279E+03</pdfrwt>
<totfact> 0.95123631E+03</totfact>
</mgrwt>
</event>
<event>
 5    1  0.3217527E-002  0.1250003E+03  0.7818608E-02  0.1235069E+00
         -4   -1    0    0    0  501 -0.00000000000E+00  0.00000000000E+00  0.10054153920E+03  0.10054955994E+03  0.12700000000E+01 0.  1.
          4   -1    0    0  501    0  0.00000000000E+00 -0.00000000000E+00 -0.38832347220E+02  0.38853109150E+02  0.12700000000E+01 0.  1.
         25    2    1    2    0    0  0.00000000000E+00  0.00000000000E+00  0.61709191977E+02  0.13940266909E+03  0.12500031910E+03 0.  0.
    9000005    1    3    3    0    0  0.37123404957E+01  0.53655707484E+02  0.66341569523E+02  0.85410305376E+02  0.10000000000E+01 0.  0.
    9000005    1    3    3    0    0 -0.37123404957E+01 -0.53655707484E+02 -0.46323775468E+01  0.53992363713E+02  0.10000000000E+01 0.  0.
<mgrwt>
<rscale>  0 0.12500032E+03</rscale>
<asrwt>0</asrwt>
<pdfrwt beam="2">  1        4 0.59764214E-02 0.12500032E+03</pdfrwt>
<pdfrwt beam="1">  1       -4 0.15470143E-01 0.12500032E+03</pdfrwt>
<totfact> 0.10145908E+04</totfact>
</mgrwt>
</event>
<event>
 5    1  0.3217527E-002  0.1249980E+03  0.7818608E-02  0.1235072E+00
          4   -1    0    0  501    0  0.00000000000E+00  0.00000000000E+00  0.19215943283E+02  0.19257865308E+02  0.12700000000E+01 0.  1.
         -4   -1    0    0    0  501 -0.00000000000E+00 -0.00000000000E+00 -0.20300994958E+03  0.20301392201E+03  0.12700000000E+01 0.  1.
         25    2    1    2    0    0  0.00000000000E+00  0.00000000000E+00 -0.18379400630E+03  0.22227178732E+03  0.12499804273E+03 0.  0.
    9000005    1    3    3    0    0  0.59274660018E+02  0.15813285250E+02 -0.70738462812E+02  0.93640137930E+02  0.10000000000E+01 0.  0.
    9000005    1    3    3    0    0 -0.59274660018E+02 -0.15813285250E+02 -0.11305554349E+03  0.12863164939E+03  0.10000000000E+01 0.  0.
<mgrwt>
<rscale>  0 0.12499804E+03</rscale>
<asrwt>0</asrwt>
<pdfrwt beam="1">  1        4 0.29598295E-02 0.12499804E+03</pdfrwt>
<pdfrwt beam="2">  1       -4 0.31235829E-01 0.12499804E+03</pdfrwt>
<totfact> 0.86513923E+03</totfact>
</mgrwt>
</event>
<event>
 5    1  0.3217527E-002  0.1250020E+03  0.7818608E-02  0.1235066E+00
          4   -1    0    0  501    0  0.00000000000E+00  0.00000000000E+00  0.26404835813E+03  0.26405141229E+03  0.12700000000E+01 0.  1.
         -4   -1    0    0    0  501 -0.00000000000E+00 -0.00000000000E+00 -0.14763760042E+02  0.14818282983E+02  0.12700000000E+01 0.  1.
         25    2    1    2    0    0  0.00000000000E+00  0.00000000000E+00  0.24928459809E+03  0.27886969527E+03  0.12500198437E+03 0.  0.
    9000005    1    3    3    0    0  0.31739500538E+02  0.10030962226E+00  0.45455607350E+01  0.32079090991E+02  0.10000000000E+01 0.  0.
    9000005    1    3    3    0    0 -0.31739500538E+02 -0.10030962226E+00  0.24473903735E+03  0.24679060428E+03  0.10000000000E+01 0.  0.
<mgrwt>
<rscale>  0 0.12500198E+03</rscale>
<asrwt>0</asrwt>
<pdfrwt beam="1">  1        4 0.40627255E-01 0.12500198E+03</pdfrwt>
<pdfrwt beam="2">  1       -4 0.22757766E-02 0.12500198E+03</pdfrwt>
<totfact> 0.78324756E+03</totfact>
</mgrwt>
</event>
<event>
 5    1  0.3217527E-002  0.1250092E+03  0.7818608E-02  0.1235055E+00
         -4   -1    0    0    0  501 -0.00000000000E+00  0.00000000000E+00  0.49043873176E+02  0.49060313861E+02  0.12700000000E+01 0. -1.
          4   -1    0    0  501    0  0.00000000000E+00 -0.00000000000E+00 -0.79624982582E+02  0.79635110040E+02  0.12700000000E+01 0. -1.
         25    2    1    2    0    0  0.00000000000E+00  0.00000000000E+00 -0.30581109406E+02  0.12869542390E+03  0.12500923118E+03 0.  0.
    9000005    1    3    3    0    0  0.41581728680E+01 -0.61985943420E+02 -0.22294049636E+02  0.66011909777E+02  0.10000000000E+01 0.  0.
    9000005    1    3    3    0    0 -0.41581728680E+01  0.61985943420E+02 -0.82870597698E+01  0.62683514124E+02  0.10000000000E+01 0.  0.
<mgrwt>
<rscale>  0 0.12500923E+03</rscale>
<asrwt>0</asrwt>
<pdfrwt beam="2">  1        4 0.12252041E-01 0.12500923E+03</pdfrwt>
<pdfrwt beam="1">  1       -4 0.75472550E-02 0.12500923E+03</pdfrwt>
<totfact> 0.10370335E+04</totfact>
</mgrwt>
</event>
<event>
 5    1  0.3217527E-002  0.1250005E+03  0.7818608E-02  0.1235069E+00
         -4   -1    0    0    0  501 -0.00000000000E+00  0.00000000000E+00  0.47760063162E+02  0.47776945625E+02  0.12700000000E+01 0. -1.
          4   -1    0    0  501    0  0.00000000000E+00 -0.00000000000E+00 -0.81753373001E+02  0.81763236831E+02  0.12700000000E+01 0. -1.
         25    2    1    2    0    0  0.00000000000E+00  0.00000000000E+00 -0.33993309839E+02  0.12954018246E+03  0.12500045503E+03 0.  0.
    9000005    1    3    3    0    0  0.67934219109E+01 -0.30032055411E+01 -0.81299383400E+02  0.81644103070E+02  0.10000000000E+01 0.  0.
    9000005    1    3    3    0    0 -0.67934219109E+01  0.30032055411E+01  0.47306073561E+02  0.47896079386E+02  0.10000000000E+01 0.  0.
<mgrwt>
<rscale>  0 0.12500046E+03</rscale>
<asrwt>0</asrwt>
<pdfrwt beam="2">  1        4 0.12579499E-01 0.12500046E+03</pdfrwt>
<pdfrwt beam="1">  1       -4 0.73497595E-02 0.12500046E+03</pdfrwt>
<totfact> 0.10354247E+04</totfact>
</mgrwt>
</event>
<event>
 5    1  0.3217527E-002  0.1250133E+03  0.7818608E-02  0.1235049E+00
         -4   -1    0    0    0  501 -0.00000000000E+00  0.00000000000E+00  0.14753016576E+02  0.14807579076E+02  0.12700000000E+01 0.  1.
          4   -1    0    0  501    0  0.00000000000E+00 -0.00000000000E+00 -0.26428774522E+03  0.26429079661E+03  0.12700000000E+01 0.  1.
         25    2    1    2    0    0  0.00000000000E+00  0.00000000000E+00 -0.24953472864E+03  0.27909837568E+03  0.12501328934E+03 0.  0.
    9000005    1    3    3    0    0  0.16309170427E+02 -0.15694853544E+02 -0.25482680800E+03  0.25583201431E+03  0.10000000000E+01 0.  0.
    9000005    1    3    3    0    0 -0.16309170427E+02  0.15694853544E+02  0.52920793613E+01  0.23266361378E+02  0.10000000000E+01 0.  0.
<mgrwt>
<rscale>  0 0.12501329E+03</rscale>
<asrwt>0</asrwt>
<pdfrwt beam="2">  1        4 0.40664082E-01 0.12501329E+03</pdfrwt>
<pdfrwt beam="1">  1       -4 0.22741269E-02 0.12501329E+03</pdfrwt>
<totfact> 0.78274681E+03</totfact>
</mgrwt>
</event>
<event>
 5    1  0.3217527E-002  0.1250004E+03  0.7818608E-02  0.1235069E+00
         -4   -1    0    0    0  501 -0.00000000000E+00  0.00000000000E+00  0.14014680050E+03  0.14015255470E+03  0.12700000000E+01 0. -1.
          4   -1    0    0  501    0  0.00000000000E+00 -0.00000000000E+00 -0.27851942767E+02  0.27880882624E+02  0.12700000000E+01 0. -1.
         25    2    1    2    0    0  0.00000000000E+00  0.00000000000E+00  0.11229485773E+03  0.16803343733E+03  0.12500040395E+03 0.  0.
    9000005    1    3    3    0    0 -0.37832848248E+02 -0.48598390350E+02  0.41911733111E+02  0.74503163178E+02  0.10000000000E+01 0.  0.
    9000005    1    3    3    0    0  0.37832848248E+02  0.48598390350E+02  0.70383124622E+02  0.93530274150E+02  0.10000000000E+01 0.  0.
<mgrwt>
<rscale>  0 0.12500040E+03</rscale>
<asrwt>0</asrwt>
<pdfrwt beam="2">  1        4 0.42875831E-02 0.12500040E+03</pdfrwt>
<pdfrwt beam="1">  1       -4 0.21563715E-01 0.12500040E+03</pdfrwt>
<totfact> 0.95815103E+03</totfact>
</mgrwt>
</event>
<event>
 5    1  0.3217527E-002  0.1249999E+03  0.7818608E-02  0.1235069E+00
         -4   -1    0    0    0  501 -0.00000000000E+00  0.00000000000E+00  0.87445894562E+01  0.88363309556E+01  0.12700000000E+01 0.  1.
          4   -1    0    0  501    0  0.00000000000E+00 -0.00000000000E+00 -0.44428051391E+03  0.44428232908E+03  0.12700000000E+01 0.  1.
         25    2    1    2    0    0  0.00000000000E+00  0.00000000000E+00 -0.43553592445E+03  0.45311866004E+03  0.12499991436E+03 0.  0.
    9000005    1    3    3    0    0  0.80308034637E+01 -0.37437123872E+02 -0.39679847652E+03  0.39864277620E+03  0.10000000000E+01 0.  0.
    9000005    1    3    3    0    0 -0.80308034637E+01  0.37437123872E+02 -0.38737447931E+02  0.54475883841E+02  0.10000000000E+01 0.  0.
<mgrwt>
<rscale>  0 0.12499991E+03</rscale>
<asrwt>0</asrwt>
<pdfrwt beam="2">  1        4 0.68358028E-01 0.12499991E+03</pdfrwt>
<pdfrwt beam="1">  1       -4 0.13525185E-02 0.12499991E+03</pdfrwt>
<totfact> 0.59694695E+03</totfact>
</mgrwt>
</event>
<event>
 5    1  0.3217527E-002  0.1249967E+03  0.7818608E-02  0.1235075E+00
         -4   -1    0    0    0  501 -0.00000000000E+00  0.00000000000E+00  0.31826453261E+03  0.31826706650E+03  0.12700000000E+01 0. -1.
          4   -1    0    0  501    0  0.00000000000E+00 -0.00000000000E+00 -0.12237493535E+02  0.12303216979E+02  0.12700000000E+01 0. -1.
         25    2    1    2    0    0  0.00000000000E+00  0.00000000000E+00  0.30602703908E+03  0.33057028348E+03  0.12499665465E+03 0.  0.
    9000005    1    3    3    0    0 -0.69891292268E+01  0.36958487897E+02  0.28498741701E+03  0.28746061575E+03  0.10000000000E+01 0.  0.
    9000005    1    3    3    0    0  0.69891292268E+01 -0.36958487897E+02  0.21039622072E+02  0.43109667732E+02  0.10000000000E+01 0.  0.
<mgrwt>
<rscale>  0 0.12499665E+03</rscale>
<asrwt>0</asrwt>
<pdfrwt beam="2">  1        4 0.18879423E-02 0.12499665E+03</pdfrwt>
<pdfrwt beam="1">  1       -4 0.48969015E-01 0.12499665E+03</pdfrwt>
<totfact> 0.71921655E+03</totfact>
</mgrwt>
</event>
<event>
 5    1  0.3217527E-002  0.1249994E+03  0.7818608E-02  0.1235070E+00
         -4   -1    0    0    0  501 -0.00000000000E+00  0.00000000000E+00  0.73717822834E+01  0.74803792707E+01  0.12700000000E+01 0.  1.
          4   -1    0    0  501    0  0.00000000000E+00 -0.00000000000E+00 -0.52590335883E+03  0.52590489229E+03  0.12700000000E+01 0.  1.
         25    2    1    2    0    0  0.00000000000E+00  0.00000000000E+00 -0.51853157655E+03  0.53338527156E+03  0.12499940814E+03 0.  0.
    9000005    1    3    3    0    0 -0.25787241764E+02  0.52286568393E+02 -0.16324688807E+03  0.17334766666E+03  0.10000000000E+01 0.  0.
    9000005    1    3    3    0    0  0.25787241764E+02 -0.52286568393E+02 -0.35528468848E+03  0.36003760490E+03  0.10000000000E+01 0.  0.
<mgrwt>
<rscale>  0 0.12499941E+03</rscale>
<asrwt>0</asrwt>
<pdfrwt beam="2">  1        4 0.80916652E-01 0.12499941E+03</pdfrwt>
<pdfrwt beam="1">  1       -4 0.11425923E-02 0.12499941E+03</pdfrwt>
<totfact> 0.53364741E+03</totfact>
</mgrwt>
</event>
<event>
 5    1  0.3217527E-002  0.1250004E+03  0.7818608E-02  0.1235069E+00
         -4   -1    0    0    0  501 -0.00000000000E+00  0.00000000000E+00  0.11638860441E+02  0.11707944839E+02  0.12700000000E+01 0. -1.
          4   -1    0    0  501    0  0.00000000000E+00 -0.00000000000E+00 -0.33455983279E+03  0.33456224326E+03  0.12700000000E+01 0. -1.
         25    2    1    2    0    0  0.00000000000E+00  0.00000000000E+00 -0.32292097235E+03  0.34627018810E+03  0.12500035514E+03 0.  0.
    9000005    1    3    3    0    0 -0.54303282529E+02  0.22617821486E+02 -0.10303323380E+03  0.11864762791E+03  0.10000000000E+01 0.  0.
    9000005    1    3    3    0    0  0.54303282529E+02 -0.22617821486E+02 -0.21988773855E+03  0.22762256019E+03  0.10000000000E+01 0.  0.
<mgrwt>
<rscale>  0 0.12500036E+03</rscale>
<asrwt>0</asrwt>
<pdfrwt beam="2">  1        4 0.51476236E-01 0.12500036E+03</pdfrwt>
<pdfrwt beam="1">  1       -4 0.17960938E-02 0.12500036E+03</pdfrwt>
<totfact> 0.70136291E+03</totfact>
</mgrwt>
</event>
<event>
 5    1  0.3217527E-002  0.1249988E+03  0.7818608E-02  0.1235071E+00
         -4   -1    0    0    0  501 -0.00000000000E+00  0.00000000000E+00  0.10167925257E+03  0.10168718357E+03  0.12700000000E+01 0. -1.
          4   -1    0    0  501    0  0.00000000000E+00 -0.00000000000E+00 -0.38396705587E+02  0.38417702949E+02  0.12700000000E+01 0. -1.
         25    2    1    2    0    0  0.00000000000E+00  0.00000000000E+00  0.63282546983E+02  0.14010488652E+03  0.12499879389E+03 0.  0.
    9000005    1    3    3    0    0 -0.44445440490E+02 -0.12090057234E+02 -0.15695337339E+02  0.48671452397E+02  0.10000000000E+01 0.  0.
    9000005    1    3    3    0    0  0.44445440490E+02  0.12090057234E+02  0.78977884321E+02  0.91433434126E+02  0.10000000000E+01 0.  0.
<mgrwt>
<rscale>  0 0.12499879E+03</rscale>
<asrwt>0</asrwt>
<pdfrwt beam="2">  1        4 0.59094108E-02 0.12499879E+03</pdfrwt>
<pdfrwt beam="1">  1       -4 0.15645187E-01 0.12499879E+03</pdfrwt>
<totfact> 0.10131688E+04</totfact>
</mgrwt>
</event>
<event>
 4    1  0.3217527E-002  0.1250810E+03  0.7818608E-02  0.1234943E+00
         -4   -1    0    0    0  501 -0.00000000000E+00  0.00000000000E+00  0.66539264575E+01  0.67740414305E+01  0.12700000000E+01 0.  1.
          4   -1    0    0  501    0  0.00000000000E+00 -0.00000000000E+00 -0.58244169491E+03  0.58244307951E+03  0.12700000000E+01 0.  1.
    9000005    1    1    2    0    0  0.26044055254E+02 -0.28048434690E+00 -0.20090630014E+02  0.32909039790E+02  0.10000000000E+01 0.  0.
    9000005    1    1    2    0    0 -0.26044055254E+02  0.28048434690E+00 -0.55569713843E+03  0.55630808115E+03  0.10000000000E+01 0.  0.
<mgrwt>
<rscale>  0 0.12508102E+03</rscale>
<asrwt>0</asrwt>
<pdfrwt beam="2">  1        4 0.89615721E-01 0.12508102E+03</pdfrwt>
<pdfrwt beam="1">  1       -4 0.10330276E-02 0.12508102E+03</pdfrwt>
<totfact> 0.49467468E+03</totfact>
</mgrwt>
</event>
<event>
 5    1  0.3217527E-002  0.1249990E+03  0.7818608E-02  0.1235071E+00
         -4   -1    0    0    0  501 -0.00000000000E+00  0.00000000000E+00  0.23683505918E+02  0.23717532599E+02  0.12700000000E+01 0. -1.
          4   -1    0    0  501    0  0.00000000000E+00 -0.00000000000E+00 -0.16477805015E+03  0.16478294424E+03  0.12700000000E+01 0. -1.
         25    2    1    2    0    0  0.00000000000E+00  0.00000000000E+00 -0.14109454423E+03  0.18850047683E+03  0.12499903742E+03 0.  0.
    9000005    1    3    3    0    0  0.52330263395E+02 -0.10797130246E+02 -0.11941617163E+03  0.13082911195E+03  0.10000000000E+01 0.  0.
    9000005    1    3    3    0    0 -0.52330263395E+02  0.10797130246E+02 -0.21678372605E+02  0.57671364882E+02  0.10000000000E+01 0.  0.
<mgrwt>
<rscale>  0 0.12499904E+03</rscale>
<asrwt>0</asrwt>
<pdfrwt beam="2">  1        4 0.25353462E-01 0.12499904E+03</pdfrwt>
<pdfrwt beam="1">  1       -4 0.36466103E-02 0.12499904E+03</pdfrwt>
<totfact> 0.92110870E+03</totfact>
</mgrwt>
</event>
<event>
 5    1  0.3217527E-002  0.1249993E+03  0.7818608E-02  0.1235070E+00
          4   -1    0    0  501    0  0.00000000000E+00  0.00000000000E+00  0.18357675252E+02  0.18401552670E+02  0.12700000000E+01 0. -1.
         -4   -1    0    0    0  501 -0.00000000000E+00 -0.00000000000E+00 -0.21248335162E+03  0.21248714695E+03  0.12700000000E+01 0. -1.
         25    2    1    2    0    0  0.00000000000E+00  0.00000000000E+00 -0.19412567637E+03  0.23088869962E+03  0.12499925353E+03 0.  0.
    9000005    1    3    3    0    0  0.37140479289E+02 -0.30425636847E+02 -0.17094925102E+03  0.17756627215E+03  0.10000000000E+01 0.  0.
    9000005    1    3    3    0    0 -0.37140479289E+02  0.30425636847E+02 -0.23176425353E+02  0.53322427472E+02  0.10000000000E+01 0.  0.
<mgrwt>
<rscale>  0 0.12499925E+03</rscale>
<asrwt>0</asrwt>
<pdfrwt beam="1">  1        4 0.28279250E-02 0.12499925E+03</pdfrwt>
<pdfrwt beam="2">  1       -4 0.32693412E-01 0.12499925E+03</pdfrwt>
<totfact> 0.85174742E+03</totfact>
</mgrwt>
</event>
<event>
 5    1  0.3217527E-002  0.1250244E+03  0.7818608E-02  0.1235031E+00
          4   -1    0    0  501    0  0.00000000000E+00  0.00000000000E+00  0.23079929122E+02  0.23114844327E+02  0.12700000000E+01 0.  1.
         -4   -1    0    0    0  501 -0.00000000000E+00 -0.00000000000E+00 -0.16914966120E+03  0.16915442880E+03  0.12700000000E+01 0.  1.
         25    2    1    2    0    0  0.00000000000E+00  0.00000000000E+00 -0.14606973207E+03  0.19226927313E+03  0.12502442466E+03 0.  0.
    9000005    1    3    3    0    0  0.61450054711E+02  0.11009449172E+02 -0.68304998256E+02  0.92541287984E+02  0.10000000000E+01 0.  0.
    9000005    1    3    3    0    0 -0.61450054711E+02 -0.11009449172E+02 -0.77764733818E+02  0.99727985144E+02  0.10000000000E+01 0.  0.
<mgrwt>
<rscale>  0 0.12502442E+03</rscale>
<asrwt>0</asrwt>
<pdfrwt beam="1">  1        4 0.35538110E-02 0.12502442E+03</pdfrwt>
<pdfrwt beam="2">  1       -4 0.26026077E-01 0.12502442E+03</pdfrwt>
<totfact> 0.91403955E+03</totfact>
</mgrwt>
</event>
<event>
 5    1  0.3217527E-002  0.1250039E+03  0.7818608E-02  0.1235063E+00
         -4   -1    0    0    0  501 -0.00000000000E+00  0.00000000000E+00  0.18388540831E+02  0.18432344774E+02  0.12700000000E+01 0. -1.
          4   -1    0    0  501    0  0.00000000000E+00 -0.00000000000E+00 -0.21214322128E+03  0.21214702269E+03  0.12700000000E+01 0. -1.
         25    2    1    2    0    0  0.00000000000E+00  0.00000000000E+00 -0.19375468045E+03  0.23057936746E+03  0.12500387395E+03 0.  0.
    9000005    1    3    3    0    0  0.54041671796E+02 -0.31223806421E+02 -0.10272897001E+03  0.12020677875E+03  0.10000000000E+01 0.  0.
    9000005    1    3    3    0    0 -0.54041671796E+02  0.31223806421E+02 -0.91025710440E+02  0.11037258871E+03  0.10000000000E+01 0.  0.
<mgrwt>
<rscale>  0 0.12500387E+03</rscale>
<asrwt>0</asrwt>
<pdfrwt beam="2">  1        4 0.32641079E-01 0.12500387E+03</pdfrwt>
<pdfrwt beam="1">  1       -4 0.28326684E-02 0.12500387E+03</pdfrwt>
<totfact> 0.85213349E+03</totfact>
</mgrwt>
</event>
<event>
 5    1  0.3217527E-002  0.1249999E+03  0.7818608E-02  0.1235069E+00
         -4   -1    0    0    0  501 -0.00000000000E+00  0.00000000000E+00  0.38755063318E+02  0.38775866629E+02  0.12700000000E+01 0. -1.
          4   -1    0    0  501    0  0.00000000000E+00 -0.00000000000E+00 -0.10074124193E+03  0.10074924678E+03  0.12700000000E+01 0. -1.
         25    2    1    2    0    0  0.00000000000E+00  0.00000000000E+00 -0.61986178613E+02  0.13952511340E+03  0.12499988373E+03 0.  0.
    9000005    1    3    3    0    0 -0.26229896388E+02 -0.56534856799E+02 -0.25872503297E+02  0.67487657573E+02  0.10000000000E+01 0.  0.
    9000005    1    3    3    0    0  0.26229896388E+02  0.56534856799E+02 -0.36113675316E+02  0.72037455831E+02  0.10000000000E+01 0.  0.
<mgrwt>
<rscale>  0 0.12499988E+03</rscale>
<asrwt>0</asrwt>
<pdfrwt beam="2">  1        4 0.15500869E-01 0.12499988E+03</pdfrwt>
<pdfrwt beam="1">  1       -4 0.59645335E-02 0.12499988E+03</pdfrwt>
<totfact> 0.10143464E+04</totfact>
</mgrwt>
</event>
<event>
 5    1  0.3217527E-002  0.1250014E+03  0.7818608E-02  0.1235067E+00
          4   -1    0    0  501    0  0.00000000000E+00  0.00000000000E+00  0.46453655852E+01  0.48158406764E+01  0.12700000000E+01 0. -1.
         -4   -1    0    0    0  501 -0.00000000000E+00 -0.00000000000E+00 -0.82558818777E+03  0.82558916459E+03  0.12700000000E+01 0. -1.
         25    2    1    2    0    0  0.00000000000E+00  0.00000000000E+00 -0.82094282219E+03  0.83040500527E+03  0.12500142188E+03 0.  0.
    9000005    1    3    3    0    0 -0.50543428542E+02 -0.12221802497E+02 -0.18021811875E+03  0.18757286838E+03  0.10000000000E+01 0.  0.
    9000005    1    3    3    0    0  0.50543428542E+02  0.12221802497E+02 -0.64072470344E+03  0.64283213689E+03  0.10000000000E+01 0.  0.
<mgrwt>
<rscale>  0 0.12500142E+03</rscale>
<asrwt>0</asrwt>
<pdfrwt beam="1">  1        4 0.72786089E-03 0.12500142E+03</pdfrwt>
<pdfrwt beam="2">  1       -4 0.12702664E+00 0.12500142E+03</pdfrwt>
<totfact> 0.36941736E+03</totfact>
</mgrwt>
</event>
<event>
 5    1  0.3217527E-002  0.1250014E+03  0.7818608E-02  0.1235067E+00
          4   -1    0    0  501    0  0.00000000000E+00  0.00000000000E+00  0.77219865490E+03  0.77219969926E+03  0.12700000000E+01 0.  1.
         -4   -1    0    0    0  501 -0.00000000000E+00 -0.00000000000E+00 -0.49779485899E+01  0.51373993580E+01  0.12700000000E+01 0.  1.
         25    2    1    2    0    0  0.00000000000E+00  0.00000000000E+00  0.76722070631E+03  0.77733709862E+03  0.12500141075E+03 0.  0.
    9000005    1    3    3    0    0  0.57110307266E+02  0.23291633445E+02  0.32103638656E+03  0.32690893056E+03  0.10000000000E+01 0.  0.
    9000005    1    3    3    0    0 -0.57110307266E+02 -0.23291633445E+02  0.44618431975E+03  0.45042816805E+03  0.10000000000E+01 0.  0.
<mgrwt>
<rscale>  0 0.12500141E+03</rscale>
<asrwt>0</asrwt>
<pdfrwt beam="1">  1        4 0.11881214E+00 0.12500141E+03</pdfrwt>
<pdfrwt beam="2">  1       -4 0.77818402E-03 0.12500141E+03</pdfrwt>
<totfact> 0.39295475E+03</totfact>
</mgrwt>
</event>
<event>
 5    1  0.3217527E-002  0.1249919E+03  0.7818608E-02  0.1235082E+00
          4   -1    0    0  501    0  0.00000000000E+00  0.00000000000E+00  0.47523841474E+02  0.47540807823E+02  0.12700000000E+01 0. -1.
         -4   -1    0    0    0  501 -0.00000000000E+00 -0.00000000000E+00 -0.82148338417E+02  0.82158154827E+02  0.12700000000E+01 0. -1.
         25    2    1    2    0    0  0.00000000000E+00  0.00000000000E+00 -0.34624496943E+02  0.12969896265E+03  0.12499186023E+03 0.  0.
    9000005    1    3    3    0    0 -0.37246509403E+02  0.21605484931E+02  0.29677127542E+02  0.52305175088E+02  0.10000000000E+01 0.  0.
    9000005    1    3    3    0    0  0.37246509403E+02 -0.21605484931E+02 -0.64301624485E+02  0.77393787562E+02  0.10000000000E+01 0.  0.
<mgrwt>
<rscale>  0 0.12499186E+03</rscale>
<asrwt>0</asrwt>
<pdfrwt beam="1">  1        4 0.73134205E-02 0.12499186E+03</pdfrwt>
<pdfrwt beam="2">  1       -4 0.12640266E-01 0.12499186E+03</pdfrwt>
<totfact> 0.10352854E+04</totfact>
</mgrwt>
</event>
<event>
 5    1  0.3217527E-002  0.1250025E+03  0.7818608E-02  0.1235065E+00
          4   -1    0    0  501    0  0.00000000000E+00  0.00000000000E+00  0.74537456521E+01  0.75611655349E+01  0.12700000000E+01 0.  1.
         -4   -1    0    0    0  501 -0.00000000000E+00 -0.00000000000E+00 -0.52022848549E+03  0.52023003567E+03  0.12700000000E+01 0.  1.
         25    2    1    2    0    0  0.00000000000E+00  0.00000000000E+00 -0.51277473984E+03  0.52779120121E+03  0.12500247300E+03 0.  0.
    9000005    1    3    3    0    0 -0.20020111436E+01  0.52841223811E+02 -0.39700791625E+03  0.40051527879E+03  0.10000000000E+01 0.  0.
    9000005    1    3    3    0    0  0.20020111436E+01 -0.52841223811E+02 -0.11576682359E+03  0.12727592242E+03  0.10000000000E+01 0.  0.
<mgrwt>
<rscale>  0 0.12500247E+03</rscale>
<asrwt>0</asrwt>
<pdfrwt beam="1">  1        4 0.11551128E-02 0.12500247E+03</pdfrwt>
<pdfrwt beam="2">  1       -4 0.80043506E-01 0.12500247E+03</pdfrwt>
<totfact> 0.53767884E+03</totfact>
</mgrwt>
</event>
<event>
 4    1  0.3217527E-002  0.1248550E+03  0.7818608E-02  0.1235296E+00
          4   -1    0    0  501    0  0.00000000000E+00  0.00000000000E+00  0.81353328381E+01  0.82338654584E+01  0.12700000000E+01 0.  1.
         -4   -1    0    0    0  501 -0.00000000000E+00 -0.00000000000E+00 -0.47606254868E+03  0.47606424268E+03  0.12700000000E+01 0.  1.
    9000005    1    1    2    0    0 -0.49053421191E+02 -0.38314758626E+01 -0.84978313383E+02  0.98199959691E+02  0.10000000000E+01 0.  0.
    9000005    1    1    2    0    0  0.49053421191E+02  0.38314758626E+01 -0.38294890246E+03  0.38609814845E+03  0.10000000000E+01 0.  0.
<mgrwt>
<rscale>  0 0.12485503E+03</rscale>
<asrwt>0</asrwt>
<pdfrwt beam="1">  1        4 0.12592998E-02 0.12485503E+03</pdfrwt>
<pdfrwt beam="2">  1       -4 0.73248080E-01 0.12485503E+03</pdfrwt>
<totfact> 0.57286075E+03</totfact>
</mgrwt>
</event>
<event>
 5    1  0.3217527E-002  0.1250030E+03  0.7818608E-02  0.1235065E+00
          4   -1    0    0  501    0  0.00000000000E+00  0.00000000000E+00  0.96057709465E+01  0.96893619747E+01  0.12700000000E+01 0. -1.
         -4   -1    0    0    0  501 -0.00000000000E+00 -0.00000000000E+00 -0.40482996418E+03  0.40483195625E+03  0.12700000000E+01 0. -1.
         25    2    1    2    0    0  0.00000000000E+00  0.00000000000E+00 -0.39522419324E+03  0.41452131822E+03  0.12500304133E+03 0.  0.
    9000005    1    3    3    0    0  0.27727555501E+01  0.37200586827E+02 -0.36387583746E+03  0.36578435849E+03  0.10000000000E+01 0.  0.
    9000005    1    3    3    0    0 -0.27727555501E+01 -0.37200586827E+02 -0.31348355778E+02  0.48736959729E+02  0.10000000000E+01 0.  0.
<mgrwt>
<rscale>  0 0.12500304E+03</rscale>
<asrwt>0</asrwt>
<pdfrwt beam="1">  1        4 0.14843945E-02 0.12500304E+03</pdfrwt>
<pdfrwt beam="2">  1       -4 0.62288103E-01 0.12500304E+03</pdfrwt>
<totfact> 0.63160316E+03</totfact>
</mgrwt>
</event>
<event>
 5    1  0.3217527E-002  0.1249938E+03  0.7818608E-02  0.1235079E+00
         -4   -1    0    0    0  501 -0.00000000000E+00  0.00000000000E+00  0.91540714717E+02  0.91549524034E+02  0.12700000000E+01 0. -1.
          4   -1    0    0  501    0  0.00000000000E+00 -0.00000000000E+00 -0.42647738190E+02  0.42666643561E+02  0.12700000000E+01 0. -1.
         25    2    1    2    0    0  0.00000000000E+00  0.00000000000E+00  0.48892976526E+02  0.13421616759E+03  0.12499382581E+03 0.  0.
    9000005    1    3    3    0    0  0.56893329126E+02  0.21516755890E+02  0.39822303541E+02  0.72709267238E+02  0.10000000000E+01 0.  0.
    9000005    1    3    3    0    0 -0.56893329126E+02 -0.21516755890E+02  0.90706729855E+01  0.61506900356E+02  0.10000000000E+01 0.  0.
<mgrwt>
<rscale>  0 0.12499383E+03</rscale>
<asrwt>0</asrwt>
<pdfrwt beam="2">  1        4 0.65633225E-02 0.12499383E+03</pdfrwt>
<pdfrwt beam="1">  1       -4 0.14085319E-01 0.12499383E+03</pdfrwt>
<totfact> 0.10256047E+04</totfact>
</mgrwt>
</event>
<event>
 5    1  0.3217527E-002  0.1250026E+03  0.7818608E-02  0.1235065E+00
         -4   -1    0    0    0  501 -0.00000000000E+00  0.00000000000E+00  0.17734595600E+03  0.17735050327E+03  0.12700000000E+01 0.  1.
          4   -1    0    0  501    0  0.00000000000E+00 -0.00000000000E+00 -0.22003934384E+02  0.22040554176E+02  0.12700000000E+01 0.  1.
         25    2    1    2    0    0  0.00000000000E+00  0.00000000000E+00  0.15534202162E+03  0.19939105745E+03  0.12500260041E+03 0.  0.
    9000005    1    3    3    0    0  0.62269426830E+02  0.35946027588E+01  0.71491207274E+02  0.94880953854E+02  0.10000000000E+01 0.  0.
    9000005    1    3    3    0    0 -0.62269426830E+02 -0.35946027588E+01  0.83850814345E+02  0.10451010359E+03  0.10000000000E+01 0.  0.
<mgrwt>
<rscale>  0 0.12500260E+03</rscale>
<asrwt>0</asrwt>
<pdfrwt beam="2">  1        4 0.33883872E-02 0.12500260E+03</pdfrwt>
<pdfrwt beam="1">  1       -4 0.27287162E-01 0.12500260E+03</pdfrwt>
<totfact> 0.90233058E+03</totfact>
</mgrwt>
</event>
<event>
 5    1  0.3217527E-002  0.1249969E+03  0.7818608E-02  0.1235074E+00
         -4   -1    0    0    0  501 -0.00000000000E+00  0.00000000000E+00  0.28770399278E+02  0.28798416182E+02  0.12700000000E+01 0.  1.
          4   -1    0    0  501    0  0.00000000000E+00 -0.00000000000E+00 -0.13566945306E+03  0.13567539716E+03  0.12700000000E+01 0.  1.
         25    2    1    2    0    0  0.00000000000E+00  0.00000000000E+00 -0.10689905378E+03  0.16447381334E+03  0.12499691026E+03 0.  0.
    9000005    1    3    3    0    0 -0.60403294014E+02 -0.38772323090E+01 -0.73896334453E+02  0.95526222074E+02  0.10000000000E+01 0.  0.
    9000005    1    3    3    0    0  0.60403294014E+02  0.38772323090E+01 -0.33002719331E+02  0.68947591266E+02  0.10000000000E+01 0.  0.
<mgrwt>
<rscale>  0 0.12499691E+03</rscale>
<asrwt>0</asrwt>
<pdfrwt beam="2">  1        4 0.20874835E-01 0.12499691E+03</pdfrwt>
<pdfrwt beam="1">  1       -4 0.44288278E-02 0.12499691E+03</pdfrwt>
<totfact> 0.96493835E+03</totfact>
</mgrwt>
</event>
<event>
 5    1  0.3217527E-002  0.1249985E+03  0.7818608E-02  0.1235072E+00
         -4   -1    0    0    0  501 -0.00000000000E+00  0.00000000000E+00  0.44835680228E+02  0.44853663412E+02  0.12700000000E+01 0.  1.
          4   -1    0    0  501    0  0.00000000000E+00 -0.00000000000E+00 -0.87081514918E+02  0.87090775288E+02  0.12700000000E+01 0.  1.
         25    2    1    2    0    0  0.00000000000E+00  0.00000000000E+00 -0.42245834690E+02  0.13194443870E+03  0.12499849741E+03 0.  0.
    9000005    1    3    3    0    0 -0.46474226410E+00  0.62475986237E+02 -0.22495662253E+02  0.66411743403E+02  0.10000000000E+01 0.  0.
    9000005    1    3    3    0    0  0.46474226410E+00 -0.62475986237E+02 -0.19750172437E+02  0.65532695297E+02  0.10000000000E+01 0.  0.
<mgrwt>
<rscale>  0 0.12499850E+03</rscale>
<asrwt>0</asrwt>
<pdfrwt beam="2">  1        4 0.13399252E-01 0.12499850E+03</pdfrwt>
<pdfrwt beam="1">  1       -4 0.68998926E-02 0.12499850E+03</pdfrwt>
<totfact> 0.10303234E+04</totfact>
</mgrwt>
</event>
<event>
 5    1  0.3217527E-002  0.1250117E+03  0.7818608E-02  0.1235051E+00
          4   -1    0    0  501    0  0.00000000000E+00  0.00000000000E+00  0.36624123575E+02  0.36646136599E+02  0.12700000000E+01 0. -1.
         -4   -1    0    0    0  501 -0.00000000000E+00 -0.00000000000E+00 -0.10661995195E+03  0.10662751547E+03  0.12700000000E+01 0. -1.
         25    2    1    2    0    0  0.00000000000E+00  0.00000000000E+00 -0.69995828378E+02  0.14327365207E+03  0.12501169300E+03 0.  0.
    9000005    1    3    3    0    0 -0.41681952208E+02 -0.24705870701E+02  0.10242802554E+02  0.49534636278E+02  0.10000000000E+01 0.  0.
    9000005    1    3    3    0    0  0.41681952208E+02  0.24705870701E+02 -0.80238630932E+02  0.93739015788E+02  0.10000000000E+01 0.  0.
<mgrwt>
<rscale>  0 0.12501169E+03</rscale>
<asrwt>0</asrwt>
<pdfrwt beam="1">  1        4 0.56367557E-02 0.12501169E+03</pdfrwt>
<pdfrwt beam="2">  1       -4 0.16405345E-01 0.12501169E+03</pdfrwt>
<totfact> 0.10063532E+04</totfact>
</mgrwt>
</event>
<event>
 5    1  0.3217527E-002  0.1249994E+03  0.7818608E-02  0.1235070E+00
         -4   -1    0    0    0  501 -0.00000000000E+00  0.00000000000E+00  0.15743625395E+03  0.15744137626E+03  0.12700000000E+01 0. -1.
          4   -1    0    0  501    0  0.00000000000E+00 -0.00000000000E+00 -0.24789625323E+02  0.24822135759E+02  0.12700000000E+01 0. -1.
         25    2    1    2    0    0  0.00000000000E+00  0.00000000000E+00  0.13264662863E+03  0.18226351202E+03  0.12499943891E+03 0.  0.
    9000005    1    3    3    0    0 -0.60460678704E+02 -0.77513458485E+01  0.86402876511E+02  0.10574513748E+03  0.10000000000E+01 0.  0.
    9000005    1    3    3    0    0  0.60460678704E+02  0.77513458485E+01  0.46243752121E+02  0.76518374539E+02  0.10000000000E+01 0.  0.
<mgrwt>
<rscale>  0 0.12499944E+03</rscale>
<asrwt>0</asrwt>
<pdfrwt beam="2">  1        4 0.38166833E-02 0.12499944E+03</pdfrwt>
<pdfrwt beam="1">  1       -4 0.24223857E-01 0.12499944E+03</pdfrwt>
<totfact> 0.93212315E+03</totfact>
</mgrwt>
</event>
<event>
 5    1  0.3217527E-002  0.1249977E+03  0.7818608E-02  0.1235073E+00
          4   -1    0    0  501    0  0.00000000000E+00  0.00000000000E+00  0.23390105440E+03  0.23390450220E+03  0.12700000000E+01 0. -1.
         -4   -1    0    0    0  501 -0.00000000000E+00 -0.00000000000E+00 -0.16672111870E+02  0.16720413099E+02  0.12700000000E+01 0. -1.
         25    2    1    2    0    0  0.00000000000E+00  0.00000000000E+00  0.21722894253E+03  0.25062491530E+03  0.12499773876E+03 0.  0.
    9000005    1    3    3    0    0 -0.57968831681E+01 -0.20487068860E+01 -0.16074041820E+02  0.17238789830E+02  0.10000000000E+01 0.  0.
    9000005    1    3    3    0    0  0.57968831681E+01  0.20487068860E+01  0.23330298435E+03  0.23338612547E+03  0.10000000000E+01 0.  0.
<mgrwt>
<rscale>  0 0.12499774E+03</rscale>
<asrwt>0</asrwt>
<pdfrwt beam="1">  1        4 0.35988759E-01 0.12499774E+03</pdfrwt>
<pdfrwt beam="2">  1       -4 0.25689209E-02 0.12499774E+03</pdfrwt>
<totfact> 0.82244133E+03</totfact>
</mgrwt>
</event>
<event>
 5    1  0.3217527E-002  0.1249996E+03  0.7818608E-02  0.1235070E+00
          4   -1    0    0  501    0  0.00000000000E+00  0.00000000000E+00  0.30807794960E+02  0.30833960665E+02  0.12700000000E+01 0.  1.
         -4   -1    0    0    0  501 -0.00000000000E+00 -0.00000000000E+00 -0.12671022159E+03  0.12671658596E+03  0.12700000000E+01 0.  1.
         25    2    1    2    0    0  0.00000000000E+00  0.00000000000E+00 -0.95902426634E+02  0.15755054662E+03  0.12499959723E+03 0.  0.
    9000005    1    3    3    0    0 -0.28956705880E+01 -0.40202614807E+02  0.12240246751E+02  0.42136193302E+02  0.10000000000E+01 0.  0.
    9000005    1    3    3    0    0  0.28956705880E+01  0.40202614807E+02 -0.10814267339E+03  0.11541435332E+03  0.10000000000E+01 0.  0.
<mgrwt>
<rscale>  0 0.12499960E+03</rscale>
<asrwt>0</asrwt>
<pdfrwt beam="1">  1        4 0.47421632E-02 0.12499960E+03</pdfrwt>
<pdfrwt beam="2">  1       -4 0.19496382E-01 0.12499960E+03</pdfrwt>
<totfact> 0.97817995E+03</totfact>
</mgrwt>
</event>
<event>
 5    1  0.3217527E-002  0.1250241E+03  0.7818608E-02  0.1235032E+00
          4   -1    0    0  501    0  0.00000000000E+00  0.00000000000E+00  0.10196514102E+02  0.10275300474E+02  0.12700000000E+01 0. -1.
         -4   -1    0    0    0  501 -0.00000000000E+00 -0.00000000000E+00 -0.38168978910E+03  0.38169190194E+03  0.12700000000E+01 0. -1.
         25    2    1    2    0    0  0.00000000000E+00  0.00000000000E+00 -0.37149327500E+03  0.39196720241E+03  0.12502413525E+03 0.  0.
    9000005    1    3    3    0    0 -0.56470172142E+02  0.18576134789E+02 -0.12521296680E+03  0.13861183276E+03  0.10000000000E+01 0.  0.
    9000005    1    3    3    0    0  0.56470172142E+02 -0.18576134789E+02 -0.24628030820E+03  0.25335536965E+03  0.10000000000E+01 0.  0.
<mgrwt>
<rscale>  0 0.12502414E+03</rscale>
<asrwt>0</asrwt>
<pdfrwt beam="1">  1        4 0.15749178E-02 0.12502414E+03</pdfrwt>
<pdfrwt beam="2">  1       -4 0.58727718E-01 0.12502414E+03</pdfrwt>
<totfact> 0.65306808E+03</totfact>
</mgrwt>
</event>
<event>
 5    1  0.3217527E-002  0.1250035E+03  0.7818608E-02  0.1235064E+00
         -4   -1    0    0    0  501 -0.00000000000E+00  0.00000000000E+00  0.36396470761E+02  0.36418621388E+02  0.12700000000E+01 0. -1.
          4   -1    0    0  501    0  0.00000000000E+00 -0.00000000000E+00 -0.10727238993E+03  0.10727990744E+03  0.12700000000E+01 0. -1.
         25    2    1    2    0    0  0.00000000000E+00  0.00000000000E+00 -0.70875919165E+02  0.14369852883E+03  0.12500348503E+03 0.  0.
    9000005    1    3    3    0    0 -0.34088080190E+02  0.14609845645E+02  0.22383950885E+02  0.43329967205E+02  0.10000000000E+01 0.  0.
    9000005    1    3    3    0    0  0.34088080190E+02 -0.14609845645E+02 -0.93259870049E+02  0.10036856162E+03  0.10000000000E+01 0.  0.
<mgrwt>
<rscale>  0 0.12500349E+03</rscale>
<asrwt>0</asrwt>
<pdfrwt beam="2">  1        4 0.16505727E-01 0.12500349E+03</pdfrwt>
<pdfrwt beam="1">  1       -4 0.56017392E-02 0.12500349E+03</pdfrwt>
<totfact> 0.10056709E+04</totfact>
</mgrwt>
</event>
<event>
 5    1  0.3217527E-002  0.1250016E+03  0.7818608E-02  0.1235067E+00
          4   -1    0    0  501    0  0.00000000000E+00  0.00000000000E+00  0.23317003496E+03  0.23317349357E+03  0.12700000000E+01 0. -1.
         -4   -1    0    0    0  501 -0.00000000000E+00 -0.00000000000E+00 -0.16725573210E+02  0.16773720494E+02  0.12700000000E+01 0. -1.
         25    2    1    2    0    0  0.00000000000E+00  0.00000000000E+00  0.21644446175E+03  0.24994721406E+03  0.12500161917E+03 0.  0.
    9000005    1    3    3    0    0  0.17354146734E+02  0.33920483996E+02  0.91770692560E+01  0.39204390615E+02  0.10000000000E+01 0.  0.
    9000005    1    3    3    0    0 -0.17354146734E+02 -0.33920483996E+02  0.20726739249E+03  0.21074282344E+03  0.10000000000E+01 0.  0.
<mgrwt>
<rscale>  0 0.12500162E+03</rscale>
<asrwt>0</asrwt>
<pdfrwt beam="1">  1        4 0.35876283E-01 0.12500162E+03</pdfrwt>
<pdfrwt beam="2">  1       -4 0.25771348E-02 0.12500162E+03</pdfrwt>
<totfact> 0.82334887E+03</totfact>
</mgrwt>
</event>
<event>
 5    1  0.3217527E-002  0.1250073E+03  0.7818608E-02  0.1235058E+00
          4   -1    0    0  501    0  0.00000000000E+00  0.00000000000E+00  0.63264842829E+03  0.63264970301E+03  0.12700000000E+01 0.  1.
         -4   -1    0    0    0  501 -0.00000000000E+00 -0.00000000000E+00 -0.61085716678E+01  0.62391944849E+01  0.12700000000E+01 0.  1.
         25    2    1    2    0    0  0.00000000000E+00  0.00000000000E+00  0.62653985662E+03  0.63888889749E+03  0.12500732541E+03 0.  0.
    9000005    1    3    3    0    0 -0.59255357713E+02 -0.46880962187E+01  0.41191417918E+03  0.41618201147E+03  0.10000000000E+01 0.  0.
    9000005    1    3    3    0    0  0.59255357713E+02  0.46880962187E+01  0.21462567744E+03  0.22270688602E+03  0.10000000000E+01 0.  0.
<mgrwt>
<rscale>  0 0.12500733E+03</rscale>
<asrwt>0</asrwt>
<pdfrwt beam="1">  1        4 0.97340675E-01 0.12500733E+03</pdfrwt>
<pdfrwt beam="2">  1       -4 0.94992620E-03 0.12500733E+03</pdfrwt>
<totfact> 0.46493875E+03</totfact>
</mgrwt>
</event>
<event>
 5    1  0.3217527E-002  0.1250011E+03  0.7818608E-02  0.1235068E+00
         -4   -1    0    0    0  501 -0.00000000000E+00  0.00000000000E+00  0.64021069661E+01  0.65268578661E+01  0.12700000000E+01 0.  1.
          4   -1    0    0  501    0  0.00000000000E+00 -0.00000000000E+00 -0.60414821541E+03  0.60414955027E+03  0.12700000000E+01 0.  1.
         25    2    1    2    0    0  0.00000000000E+00  0.00000000000E+00 -0.59774610845E+03  0.61067640813E+03  0.12500106114E+03 0.  0.
    9000005    1    3    3    0    0 -0.23188640895E+02  0.30900410336E+02 -0.58904013448E+02  0.70450203873E+02  0.10000000000E+01 0.  0.
    9000005    1    3    3    0    0  0.23188640895E+02 -0.30900410336E+02 -0.53884209500E+03  0.54022620426E+03  0.10000000000E+01 0.  0.
<mgrwt>
<rscale>  0 0.12500106E+03</rscale>
<asrwt>0</asrwt>
<pdfrwt beam="2">  1        4 0.92955534E-01 0.12500106E+03</pdfrwt>
<pdfrwt beam="1">  1       -4 0.99463891E-03 0.12500106E+03</pdfrwt>
<totfact> 0.48199442E+03</totfact>
</mgrwt>
</event>
<event>
 5    1  0.3217527E-002  0.1249987E+03  0.7818608E-02  0.1235071E+00
          4   -1    0    0  501    0  0.00000000000E+00  0.00000000000E+00  0.14918108133E+02  0.14972069004E+02  0.12700000000E+01 0. -1.
         -4   -1    0    0    0  501 -0.00000000000E+00 -0.00000000000E+00 -0.26131243666E+03  0.26131552279E+03  0.12700000000E+01 0. -1.
         25    2    1    2    0    0  0.00000000000E+00  0.00000000000E+00 -0.24639432853E+03  0.27628759180E+03  0.12499867300E+03 0.  0.
    9000005    1    3    3    0    0 -0.15447336054E+02  0.37544286471E+02 -0.22820439400E+03  0.23178964403E+03  0.10000000000E+01 0.  0.
    9000005    1    3    3    0    0  0.15447336054E+02 -0.37544286471E+02 -0.18189934528E+02  0.44497947772E+02  0.10000000000E+01 0.  0.
<mgrwt>
<rscale>  0 0.12499867E+03</rscale>
<asrwt>0</asrwt>
<pdfrwt beam="1">  1        4 0.22994820E-02 0.12499867E+03</pdfrwt>
<pdfrwt beam="2">  1       -4 0.40206298E-01 0.12499867E+03</pdfrwt>
<totfact> 0.78675255E+03</totfact>
</mgrwt>
</event>
<event>
 5    1  0.3217527E-002  0.1250075E+03  0.7818608E-02  0.1235058E+00
         -4   -1    0    0    0  501 -0.00000000000E+00  0.00000000000E+00  0.16520873782E+03  0.16521361915E+03  0.12700000000E+01 0.  1.
          4   -1    0    0  501    0  0.00000000000E+00 -0.00000000000E+00 -0.23624874604E+02  0.23658985610E+02  0.12700000000E+01 0.  1.
         25    2    1    2    0    0  0.00000000000E+00  0.00000000000E+00  0.14158386322E+03  0.18887260476E+03  0.12500748180E+03 0.  0.
    9000005    1    3    3    0    0  0.54306064710E+02 -0.32675000226E+00  0.24065042558E+02  0.59408599573E+02  0.10000000000E+01 0.  0.
    9000005    1    3    3    0    0 -0.54306064710E+02  0.32675000226E+00  0.11751882066E+03  0.12946400518E+03  0.10000000000E+01 0.  0.
<mgrwt>
<rscale>  0 0.12500748E+03</rscale>
<asrwt>0</asrwt>
<pdfrwt beam="2">  1        4 0.36375956E-02 0.12500748E+03</pdfrwt>
<pdfrwt beam="1">  1       -4 0.25419728E-01 0.12500748E+03</pdfrwt>
<totfact> 0.92028423E+03</totfact>
</mgrwt>
</event>
<event>
 5    1  0.3217527E-002  0.1250084E+03  0.7818608E-02  0.1235056E+00
          4   -1    0    0  501    0  0.00000000000E+00  0.00000000000E+00  0.96107375617E+02  0.96115766386E+02  0.12700000000E+01 0. -1.
         -4   -1    0    0    0  501 -0.00000000000E+00 -0.00000000000E+00 -0.40630037633E+02  0.40649881402E+02  0.12700000000E+01 0. -1.
         25    2    1    2    0    0  0.00000000000E+00  0.00000000000E+00  0.55477337984E+02  0.13676564779E+03  0.12500842926E+03 0.  0.
    9000005    1    3    3    0    0  0.32056952072E+02  0.53559019313E+02  0.24355922831E+02  0.67010653652E+02  0.10000000000E+01 0.  0.
    9000005    1    3    3    0    0 -0.32056952072E+02 -0.53559019313E+02  0.31121415153E+02  0.69754994137E+02  0.10000000000E+01 0.  0.
<mgrwt>
<rscale>  0 0.12500843E+03</rscale>
<asrwt>0</asrwt>
<pdfrwt beam="1">  1        4 0.14787922E-01 0.12500843E+03</pdfrwt>
<pdfrwt beam="2">  1       -4 0.62529470E-02 0.12500843E+03</pdfrwt>
<totfact> 0.10199050E+04</totfact>
</mgrwt>
</event>
<event>
 5    1  0.3217527E-002  0.1250011E+03  0.7818608E-02  0.1235068E+00
         -4   -1    0    0    0  501 -0.00000000000E+00  0.00000000000E+00  0.37526948747E+01  0.39617696579E+01  0.12700000000E+01 0. -1.
          4   -1    0    0  501    0  0.00000000000E+00 -0.00000000000E+00 -0.10125168935E+04  0.10125176900E+04  0.12700000000E+01 0. -1.
         25    2    1    2    0    0  0.00000000000E+00  0.00000000000E+00 -0.10087641986E+04  0.10164794597E+04  0.12500113375E+03 0.  0.
    9000005    1    3    3    0    0  0.85099662170E+01  0.22290147088E+02 -0.34703280968E+02  0.42125857762E+02  0.10000000000E+01 0.  0.
    9000005    1    3    3    0    0 -0.85099662170E+01 -0.22290147088E+02 -0.97406091767E+03  0.97435360189E+03  0.10000000000E+01 0.  0.
<mgrwt>
<rscale>  0 0.12500113E+03</rscale>
<asrwt>0</asrwt>
<pdfrwt beam="2">  1        4 0.15578776E+00 0.12500113E+03</pdfrwt>
<pdfrwt beam="1">  1       -4 0.59348242E-03 0.12500113E+03</pdfrwt>
<totfact> 0.30064197E+03</totfact>
</mgrwt>
</event>
<event>
 5    1  0.3217527E-002  0.1250043E+03  0.7818608E-02  0.1235063E+00
         -4   -1    0    0    0  501 -0.00000000000E+00  0.00000000000E+00  0.39627186080E+03  0.39627389589E+03  0.12700000000E+01 0.  1.
          4   -1    0    0  501    0  0.00000000000E+00 -0.00000000000E+00 -0.98152095327E+01  0.98970317859E+01  0.12700000000E+01 0.  1.
         25    2    1    2    0    0  0.00000000000E+00  0.00000000000E+00  0.38645665127E+03  0.40617092768E+03  0.12500431664E+03 0.  0.
    9000005    1    3    3    0    0 -0.52439126128E+01  0.56703078149E+02  0.27687895468E+03  0.28267595093E+03  0.10000000000E+01 0.  0.
    9000005    1    3    3    0    0  0.52439126128E+01 -0.56703078149E+02  0.10957769660E+03  0.12349497675E+03  0.10000000000E+01 0.  0.
<mgrwt>
<rscale>  0 0.12500432E+03</rscale>
<asrwt>0</asrwt>
<pdfrwt beam="2">  1        4 0.15164825E-02 0.12500432E+03</pdfrwt>
<pdfrwt beam="1">  1       -4 0.60971363E-01 0.12500432E+03</pdfrwt>
<totfact> 0.63950904E+03</totfact>
</mgrwt>
</event>
<event>
 5    1  0.3217527E-002  0.1250016E+03  0.7818608E-02  0.1235067E+00
          4   -1    0    0  501    0  0.00000000000E+00  0.00000000000E+00  0.33455923019E+03  0.33456164066E+03  0.12700000000E+01 0.  1.
         -4   -1    0    0    0  501 -0.00000000000E+00 -0.00000000000E+00 -0.11639115034E+02  0.11708197931E+02  0.12700000000E+01 0.  1.
         25    2    1    2    0    0  0.00000000000E+00  0.00000000000E+00  0.32292011515E+03  0.34626983859E+03  0.12500160139E+03 0.  0.
    9000005    1    3    3    0    0 -0.37088068275E+02 -0.20455633664E+01  0.22245422617E+02  0.43307827990E+02  0.10000000000E+01 0.  0.
    9000005    1    3    3    0    0  0.37088068275E+02  0.20455633664E+01  0.30067469254E+03  0.30296201060E+03  0.10000000000E+01 0.  0.
<mgrwt>
<rscale>  0 0.12500160E+03</rscale>
<asrwt>0</asrwt>
<pdfrwt beam="1">  1        4 0.51476150E-01 0.12500160E+03</pdfrwt>
<pdfrwt beam="2">  1       -4 0.17961326E-02 0.12500160E+03</pdfrwt>
<totfact> 0.70134390E+03</totfact>
</mgrwt>
</event>
<event>
 5    1  0.3217527E-002  0.1250037E+03  0.7818608E-02  0.1235063E+00
          4   -1    0    0  501    0  0.00000000000E+00  0.00000000000E+00  0.17000461103E+03  0.17000935466E+03  0.12700000000E+01 0.  1.
         -4   -1    0    0    0  501 -0.00000000000E+00 -0.00000000000E+00 -0.22956079466E+02  0.22991182754E+02  0.12700000000E+01 0.  1.
         25    2    1    2    0    0  0.00000000000E+00  0.00000000000E+00  0.14704853156E+03  0.19300053741E+03  0.12500374717E+03 0.  0.
    9000005    1    3    3    0    0  0.30389194148E+02 -0.49516544053E+02  0.37976566392E+02  0.69416214610E+02  0.10000000000E+01 0.  0.
    9000005    1    3    3    0    0 -0.30389194148E+02  0.49516544053E+02  0.10907196517E+03  0.12358432280E+03  0.10000000000E+01 0.  0.
<mgrwt>
<rscale>  0 0.12500375E+03</rscale>
<asrwt>0</asrwt>
<pdfrwt beam="1">  1        4 0.26157620E-01 0.12500375E+03</pdfrwt>
<pdfrwt beam="2">  1       -4 0.35347698E-02 0.12500375E+03</pdfrwt>
<totfact> 0.91320174E+03</totfact>
</mgrwt>
</event>
<event>
 5    1  0.3217527E-002  0.1249994E+03  0.7818608E-02  0.1235070E+00
         -4   -1    0    0    0  501 -0.00000000000E+00  0.00000000000E+00  0.32339096589E+01  0.34743447846E+01  0.12700000000E+01 0.  1.
          4   -1    0    0  501    0  0.00000000000E+00 -0.00000000000E+00 -0.11643582554E+04  0.11643589481E+04  0.12700000000E+01 0.  1.
         25    2    1    2    0    0  0.00000000000E+00  0.00000000000E+00 -0.11611243458E+04  0.11678332928E+04  0.12499941398E+03 0.  0.
    9000005    1    3    3    0    0  0.19484223520E+01 -0.16500794919E+02 -0.17735354046E+02  0.24323144652E+02  0.10000000000E+01 0.  0.
    9000005    1    3    3    0    0 -0.19484223520E+01  0.16500794919E+02 -0.11433889917E+04  0.11435101482E+04  0.10000000000E+01 0.  0.
<mgrwt>
<rscale>  0 0.12499941E+03</rscale>
<asrwt>0</asrwt>
<pdfrwt beam="2">  1        4 0.17915026E+00 0.12499941E+03</pdfrwt>
<pdfrwt beam="1">  1       -4 0.51607378E-03 0.12499941E+03</pdfrwt>
<totfact> 0.25570957E+03</totfact>
</mgrwt>
</event>
<event>
 5    1  0.3217527E-002  0.1250017E+03  0.7818608E-02  0.1235067E+00
         -4   -1    0    0    0  501 -0.00000000000E+00  0.00000000000E+00  0.56426572162E+02  0.56440862378E+02  0.12700000000E+01 0. -1.
          4   -1    0    0  501    0  0.00000000000E+00 -0.00000000000E+00 -0.69200174538E+02  0.69211827429E+02  0.12700000000E+01 0. -1.
         25    2    1    2    0    0  0.00000000000E+00  0.00000000000E+00 -0.12773602376E+02  0.12565268981E+03  0.12500173414E+03 0.  0.
    9000005    1    3    3    0    0 -0.61581771204E+02 -0.88721751015E+01 -0.12276352492E+02  0.63425064968E+02  0.10000000000E+01 0.  0.
    9000005    1    3    3    0    0  0.61581771204E+02  0.88721751015E+01 -0.49724988396E+00  0.62227624839E+02  0.10000000000E+01 0.  0.
<mgrwt>
<rscale>  0 0.12500173E+03</rscale>
<asrwt>0</asrwt>
<pdfrwt beam="2">  1        4 0.10648176E-01 0.12500173E+03</pdfrwt>
<pdfrwt beam="1">  1       -4 0.86830067E-02 0.12500173E+03</pdfrwt>
<totfact> 0.10438178E+04</totfact>
</mgrwt>
</event>
<event>
 5    1  0.3217527E-002  0.1250009E+03  0.7818608E-02  0.1235068E+00
          4   -1    0    0  501    0  0.00000000000E+00  0.00000000000E+00  0.33596177516E+02  0.33620173166E+02  0.12700000000E+01 0. -1.
         -4   -1    0    0    0  501 -0.00000000000E+00 -0.00000000000E+00 -0.11620339241E+03  0.11621033219E+03  0.12700000000E+01 0. -1.
         25    2    1    2    0    0  0.00000000000E+00  0.00000000000E+00 -0.82607214897E+02  0.14983050536E+03  0.12500091353E+03 0.  0.
    9000005    1    3    3    0    0  0.49968838759E+02 -0.33469455912E+02 -0.20954403054E+02  0.63695967952E+02  0.10000000000E+01 0.  0.
    9000005    1    3    3    0    0 -0.49968838759E+02  0.33469455912E+02 -0.61652811844E+02  0.86134537407E+02  0.10000000000E+01 0.  0.
<mgrwt>
<rscale>  0 0.12500091E+03</rscale>
<asrwt>0</asrwt>
<pdfrwt beam="1">  1        4 0.51710224E-02 0.12500091E+03</pdfrwt>
<pdfrwt beam="2">  1       -4 0.17879824E-01 0.12500091E+03</pdfrwt>
<totfact> 0.99335452E+03</totfact>
</mgrwt>
</event>
<event>
 5    1  0.3217527E-002  0.1250013E+03  0.7818608E-02  0.1235067E+00
         -4   -1    0    0    0  501 -0.00000000000E+00  0.00000000000E+00  0.15195129055E+03  0.15195659775E+03  0.12700000000E+01 0. -1.
          4   -1    0    0  501    0  0.00000000000E+00 -0.00000000000E+00 -0.25686322062E+02  0.25717698985E+02  0.12700000000E+01 0. -1.
         25    2    1    2    0    0  0.00000000000E+00  0.00000000000E+00  0.12626496848E+03  0.17767429673E+03  0.12500125380E+03 0.  0.
    9000005    1    3    3    0    0 -0.10638801212E+02  0.20897655881E+02  0.14546748108E+03  0.14734885193E+03  0.10000000000E+01 0.  0.
    9000005    1    3    3    0    0  0.10638801212E+02 -0.20897655881E+02 -0.19202512595E+02  0.30325444804E+02  0.10000000000E+01 0.  0.
<mgrwt>
<rscale>  0 0.12500125E+03</rscale>
<asrwt>0</asrwt>
<pdfrwt beam="2">  1        4 0.39545637E-02 0.12500125E+03</pdfrwt>
<pdfrwt beam="1">  1       -4 0.23379943E-01 0.12500125E+03</pdfrwt>
<totfact> 0.94034676E+03</totfact>
</mgrwt>
</event>
<event>
 5    1  0.3217527E-002  0.1249976E+03  0.7818608E-02  0.1235073E+00
         -4   -1    0    0    0  501 -0.00000000000E+00  0.00000000000E+00  0.29499753470E+01  0.32117369985E+01  0.12700000000E+01 0. -1.
          4   -1    0    0  501    0  0.00000000000E+00 -0.00000000000E+00 -0.12675987877E+04  0.12675994239E+04  0.12700000000E+01 0. -1.
         25    2    1    2    0    0  0.00000000000E+00  0.00000000000E+00 -0.12646488124E+04  0.12708111609E+04  0.12499755232E+03 0.  0.
    9000005    1    3    3    0    0 -0.10596186803E+02  0.49723289551E+02 -0.10017562232E+04  0.10030459687E+04  0.10000000000E+01 0.  0.
    9000005    1    3    3    0    0  0.10596186803E+02 -0.49723289551E+02 -0.26289258919E+03  0.26776519220E+03  0.10000000000E+01 0.  0.
<mgrwt>
<rscale>  0 0.12499755E+03</rscale>
<asrwt>0</asrwt>
<pdfrwt beam="2">  1        4 0.19503497E+00 0.12499755E+03</pdfrwt>
<pdfrwt beam="1">  1       -4 0.47402782E-03 0.12499755E+03</pdfrwt>
<totfact> 0.22929370E+03</totfact>
</mgrwt>
</event>
<event>
 5    1  0.3217527E-002  0.1249993E+03  0.7818608E-02  0.1235070E+00
          4   -1    0    0  501    0  0.00000000000E+00  0.00000000000E+00  0.13536018146E+02  0.13595465687E+02  0.12700000000E+01 0. -1.
         -4   -1    0    0    0  501 -0.00000000000E+00 -0.00000000000E+00 -0.28788565617E+03  0.28788845744E+03  0.12700000000E+01 0. -1.
         25    2    1    2    0    0  0.00000000000E+00  0.00000000000E+00 -0.27434963802E+03  0.30148392313E+03  0.12499932808E+03 0.  0.
    9000005    1    3    3    0    0  0.33416937975E+02  0.29932719196E+01 -0.10016657750E+02  0.35028343565E+02  0.10000000000E+01 0.  0.
    9000005    1    3    3    0    0 -0.33416937975E+02 -0.29932719196E+01 -0.26433298027E+03  0.26645557956E+03  0.10000000000E+01 0.  0.
<mgrwt>
<rscale>  0 0.12499933E+03</rscale>
<asrwt>0</asrwt>
<pdfrwt beam="1">  1        4 0.20872529E-02 0.12499933E+03</pdfrwt>
<pdfrwt beam="2">  1       -4 0.44294885E-01 0.12499933E+03</pdfrwt>
<totfact> 0.75414201E+03</totfact>
</mgrwt>
</event>
<event>
 5    1  0.3217527E-002  0.1249800E+03  0.7818608E-02  0.1235101E+00
         -4   -1    0    0    0  501 -0.00000000000E+00  0.00000000000E+00  0.58253497854E+02  0.58267340014E+02  0.12700000000E+01 0.  1.
          4   -1    0    0  501    0  0.00000000000E+00 -0.00000000000E+00 -0.67006772649E+02  0.67018806919E+02  0.12700000000E+01 0.  1.
         25    2    1    2    0    0  0.00000000000E+00  0.00000000000E+00 -0.87532747947E+01  0.12528614693E+03  0.12497999357E+03 0.  0.
    9000005    1    3    3    0    0  0.20943640615E+02  0.55573327176E+00 -0.63385549409E+02  0.66765805587E+02  0.10000000000E+01 0.  0.
    9000005    1    3    3    0    0 -0.20943640615E+02 -0.55573327176E+00  0.54632274615E+02  0.58520341346E+02  0.10000000000E+01 0.  0.
<mgrwt>
<rscale>  0 0.12497999E+03</rscale>
<asrwt>0</asrwt>
<pdfrwt beam="2">  1        4 0.10310725E-01 0.12497999E+03</pdfrwt>
<pdfrwt beam="1">  1       -4 0.89640671E-02 0.12497999E+03</pdfrwt>
<totfact> 0.10451375E+04</totfact>
</mgrwt>
</event>
<event>
 5    1  0.3217527E-002  0.1250108E+03  0.7818608E-02  0.1235052E+00
         -4   -1    0    0    0  501 -0.00000000000E+00  0.00000000000E+00  0.71493884089E+02  0.71505163185E+02  0.12700000000E+01 0. -1.
          4   -1    0    0  501    0  0.00000000000E+00 -0.00000000000E+00 -0.54624050677E+02  0.54638812326E+02  0.12700000000E+01 0. -1.
         25    2    1    2    0    0  0.00000000000E+00  0.00000000000E+00  0.16869833411E+02  0.12614397551E+03  0.12501084464E+03 0.  0.
    9000005    1    3    3    0    0 -0.10475385945E+02 -0.61594187284E+02  0.99818493022E+01  0.63278866404E+02  0.10000000000E+01 0.  0.
    9000005    1    3    3    0    0  0.10475385945E+02  0.61594187284E+02  0.68879841092E+01  0.62865109107E+02  0.10000000000E+01 0.  0.
<mgrwt>
<rscale>  0 0.12501084E+03</rscale>
<asrwt>0</asrwt>
<pdfrwt beam="2">  1        4 0.84057032E-02 0.12501084E+03</pdfrwt>
<pdfrwt beam="1">  1       -4 0.11001062E-01 0.12501084E+03</pdfrwt>
<totfact> 0.10425253E+04</totfact>
</mgrwt>
</event>
<event>
 5    1  0.3217527E-002  0.1249968E+03  0.7818608E-02  0.1235074E+00
          4   -1    0    0  501    0  0.00000000000E+00  0.00000000000E+00  0.78685677961E+02  0.78695926300E+02  0.12700000000E+01 0.  1.
         -4   -1    0    0    0  501 -0.00000000000E+00 -0.00000000000E+00 -0.49619593910E+02  0.49635843901E+02  0.12700000000E+01 0.  1.
         25    2    1    2    0    0  0.00000000000E+00  0.00000000000E+00  0.29066084052E+02  0.12833177020E+03  0.12499682396E+03 0.  0.
    9000005    1    3    3    0    0  0.23771176598E+02 -0.14366024508E+02 -0.42939047378E+02  0.51148932411E+02  0.10000000000E+01 0.  0.
    9000005    1    3    3    0    0 -0.23771176598E+02  0.14366024508E+02  0.72005131430E+02  0.77182837790E+02  0.10000000000E+01 0.  0.
<mgrwt>
<rscale>  0 0.12499682E+03</rscale>
<asrwt>0</asrwt>
<pdfrwt beam="1">  1        4 0.12107527E-01 0.12499682E+03</pdfrwt>
<pdfrwt beam="2">  1       -4 0.76358220E-02 0.12499682E+03</pdfrwt>
<totfact> 0.10381073E+04</totfact>
</mgrwt>
</event>
<event>
 5    1  0.3217527E-002  0.1249950E+03  0.7818608E-02  0.1235077E+00
          4   -1    0    0  501    0  0.00000000000E+00  0.00000000000E+00  0.36486996974E+01  0.38634064609E+01  0.12700000000E+01 0.  1.
         -4   -1    0    0    0  501 -0.00000000000E+00 -0.00000000000E+00 -0.10396894344E+04  0.10396902100E+04  0.12700000000E+01 0.  1.
         25    2    1    2    0    0  0.00000000000E+00  0.00000000000E+00 -0.10360407347E+04  0.10435536165E+04  0.12499498629E+03 0.  0.
    9000005    1    3    3    0    0 -0.20738846801E+02 -0.42817569437E+02 -0.17976737840E+03  0.18595901257E+03  0.10000000000E+01 0.  0.
    9000005    1    3    3    0    0  0.20738846801E+02  0.42817569437E+02 -0.85627335626E+03  0.85759460391E+03  0.10000000000E+01 0.  0.
<mgrwt>
<rscale>  0 0.12499499E+03</rscale>
<asrwt>0</asrwt>
<pdfrwt beam="1">  1        4 0.57791482E-03 0.12499499E+03</pdfrwt>
<pdfrwt beam="2">  1       -4 0.15996857E+00 0.12499499E+03</pdfrwt>
<totfact> 0.29200144E+03</totfact>
</mgrwt>
</event>
<event>
 5    1  0.3217527E-002  0.1250017E+03  0.7818608E-02  0.1235067E+00
         -4   -1    0    0    0  501 -0.00000000000E+00  0.00000000000E+00  0.82500223782E+02  0.82509998327E+02  0.12700000000E+01 0.  1.
          4   -1    0    0  501    0  0.00000000000E+00 -0.00000000000E+00 -0.47328584071E+02  0.47345620391E+02  0.12700000000E+01 0.  1.
         25    2    1    2    0    0  0.00000000000E+00  0.00000000000E+00  0.35171639710E+02  0.12985561872E+03  0.12500174988E+03 0.  0.
    9000005    1    3    3    0    0 -0.14478232456E+01  0.11662929958E+02 -0.46175346642E+02  0.47657976928E+02  0.10000000000E+01 0.  0.
    9000005    1    3    3    0    0  0.14478232456E+01 -0.11662929958E+02  0.81346986352E+02  0.82197641791E+02  0.10000000000E+01 0.  0.
<mgrwt>
<rscale>  0 0.12500175E+03</rscale>
<asrwt>0</asrwt>
<pdfrwt beam="2">  1        4 0.72833830E-02 0.12500175E+03</pdfrwt>
<pdfrwt beam="1">  1       -4 0.12694405E-01 0.12500175E+03</pdfrwt>
<totfact> 0.10347188E+04</totfact>
</mgrwt>
</event>
<event>
 5    1  0.3217527E-002  0.1250001E+03  0.7818608E-02  0.1235069E+00
          4   -1    0    0  501    0  0.00000000000E+00  0.00000000000E+00  0.35528637585E+03  0.35528864570E+03  0.12700000000E+01 0.  1.
         -4   -1    0    0    0  501 -0.00000000000E+00 -0.00000000000E+00 -0.10955689444E+02  0.11029053957E+02  0.12700000000E+01 0.  1.
         25    2    1    2    0    0  0.00000000000E+00  0.00000000000E+00  0.34433068641E+03  0.36631769966E+03  0.12500014193E+03 0.  0.
    9000005    1    3    3    0    0 -0.59202030356E+02  0.17749303385E+02  0.19923766488E+03  0.20860624458E+03  0.10000000000E+01 0.  0.
    9000005    1    3    3    0    0  0.59202030356E+02 -0.17749303385E+02  0.14509302152E+03  0.15771145508E+03  0.10000000000E+01 0.  0.
<mgrwt>
<rscale>  0 0.12500014E+03</rscale>
<asrwt>0</asrwt>
<pdfrwt beam="1">  1        4 0.54665260E-01 0.12500014E+03</pdfrwt>
<pdfrwt beam="2">  1       -4 0.16913087E-02 0.12500014E+03</pdfrwt>
<totfact> 0.67965727E+03</totfact>
</mgrwt>
</event>
<event>
 5    1  0.3217527E-002  0.1250007E+03  0.7818608E-02  0.1235068E+00
         -4   -1    0    0    0  501 -0.00000000000E+00  0.00000000000E+00  0.39362638598E+02  0.39383120971E+02  0.12700000000E+01 0.  1.
          4   -1    0    0  501    0  0.00000000000E+00 -0.00000000000E+00 -0.99188274868E+02  0.99196405032E+02  0.12700000000E+01 0.  1.
         25    2    1    2    0    0  0.00000000000E+00  0.00000000000E+00 -0.59825636269E+02  0.13857952600E+03  0.12500071309E+03 0.  0.
    9000005    1    3    3    0    0  0.21196033327E+02  0.56700462946E+02 -0.47126247011E+02  0.76720906437E+02  0.10000000000E+01 0.  0.
    9000005    1    3    3    0    0 -0.21196033327E+02 -0.56700462946E+02 -0.12699389258E+02  0.61858619566E+02  0.10000000000E+01 0.  0.
<mgrwt>
<rscale>  0 0.12500071E+03</rscale>
<asrwt>0</asrwt>
<pdfrwt beam="2">  1        4 0.15261936E-01 0.12500071E+03</pdfrwt>
<pdfrwt beam="1">  1       -4 0.60579915E-02 0.12500071E+03</pdfrwt>
<totfact> 0.10162948E+04</totfact>
</mgrwt>
</event>
<event>
 5    1  0.3217527E-002  0.1249903E+03  0.7818608E-02  0.1235084E+00
          4   -1    0    0  501    0  0.00000000000E+00  0.00000000000E+00  0.23470676766E+03  0.23471020363E+03  0.12700000000E+01 0.  1.
         -4   -1    0    0    0  501 -0.00000000000E+00 -0.00000000000E+00 -0.16612739940E+02  0.16661213291E+02  0.12700000000E+01 0.  1.
         25    2    1    2    0    0  0.00000000000E+00  0.00000000000E+00  0.21809402772E+03  0.25137141692E+03  0.12499033689E+03 0.  0.
    9000005    1    3    3    0    0  0.50826848131E+02 -0.57087967898E+01  0.18124302721E+03  0.18832417201E+03  0.10000000000E+01 0.  0.
    9000005    1    3    3    0    0 -0.50826848131E+02  0.57087967898E+01  0.36851000518E+02  0.63047244911E+02  0.10000000000E+01 0.  0.
<mgrwt>
<rscale>  0 0.12499034E+03</rscale>
<asrwt>0</asrwt>
<pdfrwt beam="1">  1        4 0.36112728E-01 0.12499034E+03</pdfrwt>
<pdfrwt beam="2">  1       -4 0.25597990E-02 0.12499034E+03</pdfrwt>
<totfact> 0.82150097E+03</totfact>
</mgrwt>
</event>
<event>
 5    1  0.3217527E-002  0.1249951E+03  0.7818608E-02  0.1235077E+00
         -4   -1    0    0    0  501 -0.00000000000E+00  0.00000000000E+00  0.32404375637E+03  0.32404624507E+03  0.12700000000E+01 0.  1.
          4   -1    0    0  501    0  0.00000000000E+00 -0.00000000000E+00 -0.12017755171E+02  0.12084673738E+02  0.12700000000E+01 0.  1.
         25    2    1    2    0    0  0.00000000000E+00  0.00000000000E+00  0.31202600120E+03  0.33613091881E+03  0.12499507651E+03 0.  0.
    9000005    1    3    3    0    0  0.23778314636E+02  0.16662154631E+02  0.72100549295E+01  0.29933602122E+02  0.10000000000E+01 0.  0.
    9000005    1    3    3    0    0 -0.23778314636E+02 -0.16662154631E+02  0.30481594627E+03  0.30619731668E+03  0.10000000000E+01 0.  0.
<mgrwt>
<rscale>  0 0.12499508E+03</rscale>
<asrwt>0</asrwt>
<pdfrwt beam="2">  1        4 0.18542243E-02 0.12499508E+03</pdfrwt>
<pdfrwt beam="1">  1       -4 0.49858227E-01 0.12499508E+03</pdfrwt>
<totfact> 0.71285535E+03</totfact>
</mgrwt>
</event>
<event>
 5    1  0.3217527E-002  0.1250022E+03  0.7818608E-02  0.1235066E+00
          4   -1    0    0  501    0  0.00000000000E+00  0.00000000000E+00  0.13138460148E+04  0.13138466286E+04  0.12700000000E+01 0. -1.
         -4   -1    0    0    0  501 -0.00000000000E+00 -0.00000000000E+00 -0.28369855668E+01  0.31082771926E+01  0.12700000000E+01 0. -1.
         25    2    1    2    0    0  0.00000000000E+00  0.00000000000E+00  0.13110090292E+04  0.13169549058E+04  0.12500219671E+03 0.  0.
    9000005    1    3    3    0    0 -0.16031516790E+02 -0.45479871656E+01  0.12900584727E+04  0.12901664841E+04  0.10000000000E+01 0.  0.
    9000005    1    3    3    0    0  0.16031516790E+02  0.45479871656E+01  0.20950556519E+02  0.26788421683E+02  0.10000000000E+01 0.  0.
<mgrwt>
<rscale>  0 0.12500220E+03</rscale>
<asrwt>0</asrwt>
<pdfrwt beam="1">  1        4 0.20215102E+00 0.12500220E+03</pdfrwt>
<pdfrwt beam="2">  1       -4 0.45737523E-03 0.12500220E+03</pdfrwt>
<totfact> 0.21830818E+03</totfact>
</mgrwt>
</event>
<event>
 5    1  0.3217527E-002  0.1249941E+03  0.7818608E-02  0.1235079E+00
          4   -1    0    0  501    0  0.00000000000E+00  0.00000000000E+00  0.38099229247E+02  0.38120390465E+02  0.12700000000E+01 0.  1.
         -4   -1    0    0    0  501 -0.00000000000E+00 -0.00000000000E+00 -0.10246506419E+03  0.10247293437E+03  0.12700000000E+01 0.  1.
         25    2    1    2    0    0  0.00000000000E+00  0.00000000000E+00 -0.64365834940E+02  0.14059332484E+03  0.12499408898E+03 0.  0.
    9000005    1    3    3    0    0  0.55946800529E+02  0.15833979714E+02 -0.57933738219E+02  0.82085793089E+02  0.10000000000E+01 0.  0.
    9000005    1    3    3    0    0 -0.55946800529E+02 -0.15833979714E+02 -0.64320967203E+01  0.58507531747E+02  0.10000000000E+01 0.  0.
<mgrwt>
<rscale>  0 0.12499409E+03</rscale>
<asrwt>0</asrwt>
<pdfrwt beam="1">  1        4 0.58636531E-02 0.12499409E+03</pdfrwt>
<pdfrwt beam="2">  1       -4 0.15766089E-01 0.12499409E+03</pdfrwt>
<totfact> 0.10122652E+04</totfact>
</mgrwt>
</event>
<event>
 5    1  0.3217527E-002  0.1250042E+03  0.7818608E-02  0.1235063E+00
         -4   -1    0    0    0  501 -0.00000000000E+00  0.00000000000E+00  0.49327152071E+02  0.49343498371E+02  0.12700000000E+01 0.  1.
          4   -1    0    0  501    0  0.00000000000E+00 -0.00000000000E+00 -0.79161448177E+02  0.79171634930E+02  0.12700000000E+01 0.  1.
         25    2    1    2    0    0  0.00000000000E+00  0.00000000000E+00 -0.29834296106E+02  0.12851513330E+03  0.12500421698E+03 0.  0.
    9000005    1    3    3    0    0 -0.66352578285E+01 -0.53734146591E+02 -0.47004783257E+02  0.71706588298E+02  0.10000000000E+01 0.  0.
    9000005    1    3    3    0    0  0.66352578285E+01  0.53734146591E+02  0.17170487151E+02  0.56808545002E+02  0.10000000000E+01 0.  0.
<mgrwt>
<rscale>  0 0.12500422E+03</rscale>
<asrwt>0</asrwt>
<pdfrwt beam="2">  1        4 0.12180725E-01 0.12500422E+03</pdfrwt>
<pdfrwt beam="1">  1       -4 0.75908337E-02 0.12500422E+03</pdfrwt>
<totfact> 0.10375390E+04</totfact>
</mgrwt>
</event>
<event>
 5    1  0.3217527E-002  0.1250008E+03  0.7818608E-02  0.1235068E+00
         -4   -1    0    0    0  501 -0.00000000000E+00  0.00000000000E+00  0.34692685847E+02  0.34715923598E+02  0.12700000000E+01 0.  1.
          4   -1    0    0  501    0  0.00000000000E+00 -0.00000000000E+00 -0.11253263130E+03  0.11253979744E+03  0.12700000000E+01 0.  1.
         25    2    1    2    0    0  0.00000000000E+00  0.00000000000E+00 -0.77839945456E+02  0.14725572104E+03  0.12500076108E+03 0.  0.
    9000005    1    3    3    0    0 -0.38903401068E+02  0.22499371050E+02  0.12234598478E+02  0.46587355712E+02  0.10000000000E+01 0.  0.
    9000005    1    3    3    0    0  0.38903401068E+02 -0.22499371050E+02 -0.90074543934E+02  0.10066836533E+03  0.10000000000E+01 0.  0.
<mgrwt>
<rscale>  0 0.12500076E+03</rscale>
<asrwt>0</asrwt>
<pdfrwt beam="2">  1        4 0.17315051E-01 0.12500076E+03</pdfrwt>
<pdfrwt beam="1">  1       -4 0.53396751E-02 0.12500076E+03</pdfrwt>
<totfact> 0.99851858E+03</totfact>
</mgrwt>
</event>
<event>
 5    1  0.3217527E-002  0.1250011E+03  0.7818608E-02  0.1235068E+00
          4   -1    0    0  501    0  0.00000000000E+00  0.00000000000E+00  0.20886687532E+02  0.20925262629E+02  0.12700000000E+01 0. -1.
         -4   -1    0    0    0  501 -0.00000000000E+00 -0.00000000000E+00 -0.18681097031E+03  0.18681528720E+03  0.12700000000E+01 0. -1.
         25    2    1    2    0    0  0.00000000000E+00  0.00000000000E+00 -0.16592428278E+03  0.20774054982E+03  0.12500107369E+03 0.  0.
    9000005    1    3    3    0    0 -0.49004665956E+02 -0.81814553687E+01 -0.19964487878E+02  0.53553471163E+02  0.10000000000E+01 0.  0.
    9000005    1    3    3    0    0  0.49004665956E+02  0.81814553687E+01 -0.14595979490E+03  0.15418707866E+03  0.10000000000E+01 0.  0.
<mgrwt>
<rscale>  0 0.12500107E+03</rscale>
<asrwt>0</asrwt>
<pdfrwt beam="1">  1        4 0.32166360E-02 0.12500107E+03</pdfrwt>
<pdfrwt beam="2">  1       -4 0.28743448E-01 0.12500107E+03</pdfrwt>
<totfact> 0.88844080E+03</totfact>
</mgrwt>
</event>
<event>
 5    1  0.3217527E-002  0.1250026E+03  0.7818608E-02  0.1235065E+00
         -4   -1    0    0    0  501 -0.00000000000E+00  0.00000000000E+00  0.65366223674E+01  0.66588536531E+01  0.12700000000E+01 0. -1.
          4   -1    0    0  501    0  0.00000000000E+00 -0.00000000000E+00 -0.59196114545E+03  0.59196250779E+03  0.12700000000E+01 0. -1.
         25    2    1    2    0    0  0.00000000000E+00  0.00000000000E+00 -0.58542452309E+03  0.59862136144E+03  0.12500264854E+03 0.  0.
    9000005    1    3    3    0    0 -0.26486521467E+02 -0.14791628743E+02 -0.55435670957E+03  0.55518707617E+03  0.10000000000E+01 0.  0.
    9000005    1    3    3    0    0  0.26486521467E+02  0.14791628743E+02 -0.31067813513E+02  0.43434285269E+02  0.10000000000E+01 0.  0.
<mgrwt>
<rscale>  0 0.12500265E+03</rscale>
<asrwt>0</asrwt>
<pdfrwt beam="2">  1        4 0.91080411E-01 0.12500265E+03</pdfrwt>
<pdfrwt beam="1">  1       -4 0.10151419E-02 0.12500265E+03</pdfrwt>
<totfact> 0.48951923E+03</totfact>
</mgrwt>
</event>
<event>
 5    1  0.3217527E-002  0.1249936E+03  0.7818608E-02  0.1235079E+00
         -4   -1    0    0    0  501 -0.00000000000E+00  0.00000000000E+00  0.16204802294E+02  0.16254492221E+02  0.12700000000E+01 0. -1.
          4   -1    0    0  501    0  0.00000000000E+00 -0.00000000000E+00 -0.24061004336E+03  0.24061339502E+03  0.12700000000E+01 0. -1.
         25    2    1    2    0    0  0.00000000000E+00  0.00000000000E+00 -0.22440524106E+03  0.25686788724E+03  0.12499359696E+03 0.  0.
    9000005    1    3    3    0    0 -0.21921394615E+02  0.46157559799E+02 -0.38284214737E+02  0.63857254611E+02  0.10000000000E+01 0.  0.
    9000005    1    3    3    0    0  0.21921394615E+02 -0.46157559799E+02 -0.18612102633E+03  0.19301063263E+03  0.10000000000E+01 0.  0.
<mgrwt>
<rscale>  0 0.12499360E+03</rscale>
<asrwt>0</asrwt>
<pdfrwt beam="2">  1        4 0.37021007E-01 0.12499360E+03</pdfrwt>
<pdfrwt beam="1">  1       -4 0.24971268E-02 0.12499360E+03</pdfrwt>
<totfact> 0.81359227E+03</totfact>
</mgrwt>
</event>
<event>
 5    1  0.3217527E-002  0.1249948E+03  0.7818608E-02  0.1235077E+00
          4   -1    0    0  501    0  0.00000000000E+00  0.00000000000E+00  0.14038566735E+02  0.14095895004E+02  0.12700000000E+01 0.  1.
         -4   -1    0    0    0  501 -0.00000000000E+00 -0.00000000000E+00 -0.27760247820E+03  0.27760538324E+03  0.12700000000E+01 0.  1.
         25    2    1    2    0    0  0.00000000000E+00  0.00000000000E+00 -0.26356391147E+03  0.29170127824E+03  0.12499480110E+03 0.  0.
    9000005    1    3    3    0    0  0.38533114922E+02  0.26773976820E+02 -0.35468007032E+02  0.58827088175E+02  0.10000000000E+01 0.  0.
    9000005    1    3    3    0    0 -0.38533114922E+02 -0.26773976820E+02 -0.22809590443E+03  0.23287419007E+03  0.10000000000E+01 0.  0.
<mgrwt>
<rscale>  0 0.12499480E+03</rscale>
<asrwt>0</asrwt>
<pdfrwt beam="1">  1        4 0.21644130E-02 0.12499480E+03</pdfrwt>
<pdfrwt beam="2">  1       -4 0.42712703E-01 0.12499480E+03</pdfrwt>
<totfact> 0.76660601E+03</totfact>
</mgrwt>
</event>
<event>
 5    1  0.3217527E-002  0.1250182E+03  0.7818608E-02  0.1235041E+00
         -4   -1    0    0    0  501 -0.00000000000E+00  0.00000000000E+00  0.16092533089E+02  0.16142568607E+02  0.12700000000E+01 0. -1.
          4   -1    0    0  501    0  0.00000000000E+00 -0.00000000000E+00 -0.24237884033E+03  0.24238216753E+03  0.12700000000E+01 0. -1.
         25    2    1    2    0    0  0.00000000000E+00  0.00000000000E+00 -0.22628630724E+03  0.25852473614E+03  0.12501818409E+03 0.  0.
    9000005    1    3    3    0    0  0.21283354787E+02 -0.13490070187E+02 -0.23141933518E+03  0.23278932939E+03  0.10000000000E+01 0.  0.
    9000005    1    3    3    0    0 -0.21283354787E+02  0.13490070187E+02  0.51330279404E+01  0.25735406748E+02  0.10000000000E+01 0.  0.
<mgrwt>
<rscale>  0 0.12501818E+03</rscale>
<asrwt>0</asrwt>
<pdfrwt beam="2">  1        4 0.37293154E-01 0.12501818E+03</pdfrwt>
<pdfrwt beam="1">  1       -4 0.24798793E-02 0.12501818E+03</pdfrwt>
<totfact> 0.81080713E+03</totfact>
</mgrwt>
</event>
<event>
 5    1  0.3217527E-002  0.1249983E+03  0.7818608E-02  0.1235072E+00
          4   -1    0    0  501    0  0.00000000000E+00  0.00000000000E+00  0.33826038738E+03  0.33826277148E+03  0.12700000000E+01 0.  1.
         -4   -1    0    0    0  501 -0.00000000000E+00 -0.00000000000E+00 -0.11510390637E+02  0.11580241475E+02  0.12700000000E+01 0.  1.
         25    2    1    2    0    0  0.00000000000E+00  0.00000000000E+00  0.32674999674E+03  0.34984301295E+03  0.12499829336E+03 0.  0.
    9000005    1    3    3    0    0 -0.28496621273E+00 -0.42730963190E+02  0.35757677985E+02  0.55728161245E+02  0.10000000000E+01 0.  0.
    9000005    1    3    3    0    0  0.28496621273E+00  0.42730963190E+02  0.29099231876E+03  0.29411485171E+03  0.10000000000E+01 0.  0.
<mgrwt>
<rscale>  0 0.12499829E+03</rscale>
<asrwt>0</asrwt>
<pdfrwt beam="1">  1        4 0.52045618E-01 0.12499829E+03</pdfrwt>
<pdfrwt beam="2">  1       -4 0.17763858E-02 0.12499829E+03</pdfrwt>
<totfact> 0.69744460E+03</totfact>
</mgrwt>
</event>
<event>
 5    1  0.3217527E-002  0.1250038E+03  0.7818608E-02  0.1235063E+00
          4   -1    0    0  501    0  0.00000000000E+00  0.00000000000E+00  0.85746649691E+01  0.86682050813E+01  0.12700000000E+01 0. -1.
         -4   -1    0    0    0  501 -0.00000000000E+00 -0.00000000000E+00 -0.45301899008E+03  0.45302077024E+03  0.12700000000E+01 0. -1.
         25    2    1    2    0    0  0.00000000000E+00  0.00000000000E+00 -0.44444432511E+03  0.46168897532E+03  0.12500380720E+03 0.  0.
    9000005    1    3    3    0    0  0.56816311970E+02 -0.20336794932E+02 -0.28221113362E+03  0.28859279699E+03  0.10000000000E+01 0.  0.
    9000005    1    3    3    0    0 -0.56816311970E+02  0.20336794932E+02 -0.16223319148E+03  0.17309617833E+03  0.10000000000E+01 0.  0.
<mgrwt>
<rscale>  0 0.12500381E+03</rscale>
<asrwt>0</asrwt>
<pdfrwt beam="1">  1        4 0.13265119E-02 0.12500381E+03</pdfrwt>
<pdfrwt beam="2">  1       -4 0.69702543E-01 0.12500381E+03</pdfrwt>
<totfact> 0.58959454E+03</totfact>
</mgrwt>
</event>
<event>
 5    1  0.3217527E-002  0.1250070E+03  0.7818608E-02  0.1235058E+00
          4   -1    0    0  501    0  0.00000000000E+00  0.00000000000E+00  0.93650593890E+03  0.93650680002E+03  0.12700000000E+01 0. -1.
         -4   -1    0    0    0  501 -0.00000000000E+00 -0.00000000000E+00 -0.40740114694E+01  0.42673726640E+01  0.12700000000E+01 0. -1.
         25    2    1    2    0    0  0.00000000000E+00  0.00000000000E+00  0.93243192743E+03  0.94077417269E+03  0.12500697864E+03 0.  0.
    9000005    1    3    3    0    0  0.25832524121E+02  0.28098247946E+02  0.93796223573E+02  0.10126975065E+03  0.10000000000E+01 0.  0.
    9000005    1    3    3    0    0 -0.25832524121E+02 -0.28098247946E+02  0.83863570385E+03  0.83950442204E+03  0.10000000000E+01 0.  0.
<mgrwt>
<rscale>  0 0.12500698E+03</rscale>
<asrwt>0</asrwt>
<pdfrwt beam="1">  1        4 0.14409303E+00 0.12500698E+03</pdfrwt>
<pdfrwt beam="2">  1       -4 0.64171006E-03 0.12500698E+03</pdfrwt>
<totfact> 0.32640778E+03</totfact>
</mgrwt>
</event>
<event>
 5    1  0.3217527E-002  0.1250000E+03  0.7818608E-02  0.1235069E+00
         -4   -1    0    0    0  501 -0.00000000000E+00  0.00000000000E+00  0.27755857603E+02  0.27784897540E+02  0.12700000000E+01 0. -1.
          4   -1    0    0  501    0  0.00000000000E+00 -0.00000000000E+00 -0.14063051782E+03  0.14063625223E+03  0.12700000000E+01 0. -1.
         25    2    1    2    0    0  0.00000000000E+00  0.00000000000E+00 -0.11287466021E+03  0.16842114977E+03  0.12499997909E+03 0.  0.
    9000005    1    3    3    0    0  0.21250218158E+02  0.29076715470E+02 -0.12524849753E+03  0.13032733132E+03  0.10000000000E+01 0.  0.
    9000005    1    3    3    0    0 -0.21250218158E+02 -0.29076715470E+02  0.12373837318E+02  0.38093818453E+02  0.10000000000E+01 0.  0.
<mgrwt>
<rscale>  0 0.12499998E+03</rscale>
<asrwt>0</asrwt>
<pdfrwt beam="2">  1        4 0.21638139E-01 0.12499998E+03</pdfrwt>
<pdfrwt beam="1">  1       -4 0.42728070E-02 0.12499998E+03</pdfrwt>
<totfact> 0.95743420E+03</totfact>
</mgrwt>
</event>
<event>
 5    1  0.3217527E-002  0.1249973E+03  0.7818608E-02  0.1235074E+00
         -4   -1    0    0    0  501 -0.00000000000E+00  0.00000000000E+00  0.22914394321E+03  0.22914746259E+03  0.12700000000E+01 0.  1.
          4   -1    0    0  501    0  0.00000000000E+00 -0.00000000000E+00 -0.17019095886E+02  0.17066415112E+02  0.12700000000E+01 0.  1.
         25    2    1    2    0    0  0.00000000000E+00  0.00000000000E+00  0.21212484732E+03  0.24621387770E+03  0.12499729085E+03 0.  0.
    9000005    1    3    3    0    0  0.47777873112E+02 -0.73314484454E+00  0.26736892580E+02  0.54764259196E+02  0.10000000000E+01 0.  0.
    9000005    1    3    3    0    0 -0.47777873112E+02  0.73314484454E+00  0.18538795474E+03  0.19144961850E+03  0.10000000000E+01 0.  0.
<mgrwt>
<rscale>  0 0.12499729E+03</rscale>
<asrwt>0</asrwt>
<pdfrwt beam="2">  1        4 0.26222334E-02 0.12499729E+03</pdfrwt>
<pdfrwt beam="1">  1       -4 0.35256821E-01 0.12499729E+03</pdfrwt>
<totfact> 0.82885544E+03</totfact>
</mgrwt>
</event>
<event>
 5    1  0.3217527E-002  0.1249871E+03  0.7818608E-02  0.1235089E+00
         -4   -1    0    0    0  501 -0.00000000000E+00  0.00000000000E+00  0.42535677386E+02  0.42554632541E+02  0.12700000000E+01 0.  1.
          4   -1    0    0  501    0  0.00000000000E+00 -0.00000000000E+00 -0.91771956848E+02  0.91780743970E+02  0.12700000000E+01 0.  1.
         25    2    1    2    0    0  0.00000000000E+00  0.00000000000E+00 -0.49236279462E+02  0.13433537651E+03  0.12498712801E+03 0.  0.
    9000005    1    3    3    0    0 -0.58047253803E+02  0.15484489225E+01  0.18525254144E+00  0.58076808509E+02  0.10000000000E+01 0.  0.
    9000005    1    3    3    0    0  0.58047253803E+02 -0.15484489225E+01 -0.49421532004E+02  0.76258568002E+02  0.10000000000E+01 0.  0.
<mgrwt>
<rscale>  0 0.12498713E+03</rscale>
<asrwt>0</asrwt>
<pdfrwt beam="2">  1        4 0.14120897E-01 0.12498713E+03</pdfrwt>
<pdfrwt beam="1">  1       -4 0.65460844E-02 0.12498713E+03</pdfrwt>
<totfact> 0.10255075E+04</totfact>
</mgrwt>
</event>
<event>
 5    1  0.3217527E-002  0.1250014E+03  0.7818608E-02  0.1235067E+00
         -4   -1    0    0    0  501 -0.00000000000E+00  0.00000000000E+00  0.36440674013E+02  0.36462797788E+02  0.12700000000E+01 0. -1.
          4   -1    0    0  501    0  0.00000000000E+00 -0.00000000000E+00 -0.10713874137E+03  0.10714626826E+03  0.12700000000E+01 0. -1.
         25    2    1    2    0    0  0.00000000000E+00  0.00000000000E+00 -0.70698067355E+02  0.14360906605E+03  0.12500138849E+03 0.  0.
    9000005    1    3    3    0    0 -0.44007829923E+01 -0.47009509905E+02 -0.82383244055E+02  0.94959253438E+02  0.10000000000E+01 0.  0.
    9000005    1    3    3    0    0  0.44007829923E+01  0.47009509905E+02  0.11685176700E+02  0.48649812610E+02  0.10000000000E+01 0.  0.
<mgrwt>
<rscale>  0 0.12500139E+03</rscale>
<asrwt>0</asrwt>
<pdfrwt beam="2">  1        4 0.16485164E-01 0.12500139E+03</pdfrwt>
<pdfrwt beam="1">  1       -4 0.56085384E-02 0.12500139E+03</pdfrwt>
<totfact> 0.10059011E+04</totfact>
</mgrwt>
</event>
<event>
 5    1  0.3217527E-002  0.1249998E+03  0.7818608E-02  0.1235070E+00
         -4   -1    0    0    0  501 -0.00000000000E+00  0.00000000000E+00  0.72317895805E+01  0.73424573908E+01  0.12700000000E+01 0. -1.
          4   -1    0    0  501    0  0.00000000000E+00 -0.00000000000E+00 -0.53593520239E+03  0.53593670714E+03  0.12700000000E+01 0. -1.
         25    2    1    2    0    0  0.00000000000E+00  0.00000000000E+00 -0.52870341281E+03  0.54327916453E+03  0.12499980759E+03 0.  0.
    9000005    1    3    3    0    0 -0.41011788705E+02 -0.24764842547E+02 -0.89961094863E+02  0.10192773336E+03  0.10000000000E+01 0.  0.
    9000005    1    3    3    0    0  0.41011788705E+02  0.24764842547E+02 -0.43874231794E+03  0.44135143117E+03  0.10000000000E+01 0.  0.
<mgrwt>
<rscale>  0 0.12499981E+03</rscale>
<asrwt>0</asrwt>
<pdfrwt beam="2">  1        4 0.82460167E-01 0.12499981E+03</pdfrwt>
<pdfrwt beam="1">  1       -4 0.11212121E-02 0.12499981E+03</pdfrwt>
<totfact> 0.52656376E+03</totfact>
</mgrwt>
</event>
<event>
 5    1  0.3217527E-002  0.1249974E+03  0.7818608E-02  0.1235073E+00
          4   -1    0    0  501    0  0.00000000000E+00  0.00000000000E+00  0.30745083235E+02  0.30771302266E+02  0.12700000000E+01 0.  1.
         -4   -1    0    0    0  501 -0.00000000000E+00 -0.00000000000E+00 -0.12696393285E+03  0.12697028450E+03  0.12700000000E+01 0.  1.
         25    2    1    2    0    0  0.00000000000E+00  0.00000000000E+00 -0.96218849618E+02  0.15774158676E+03  0.12499736466E+03 0.  0.
    9000005    1    3    3    0    0  0.48086698839E+02  0.33715463761E+02 -0.21160692712E+02  0.62432667874E+02  0.10000000000E+01 0.  0.
    9000005    1    3    3    0    0 -0.48086698839E+02 -0.33715463761E+02 -0.75058156906E+02  0.95308918890E+02  0.10000000000E+01 0.  0.
<mgrwt>
<rscale>  0 0.12499736E+03</rscale>
<asrwt>0</asrwt>
<pdfrwt beam="1">  1        4 0.47325183E-02 0.12499736E+03</pdfrwt>
<pdfrwt beam="2">  1       -4 0.19535418E-01 0.12499736E+03</pdfrwt>
<totfact> 0.97785758E+03</totfact>
</mgrwt>
</event>
<event>
 5    1  0.3217527E-002  0.1250032E+03  0.7818608E-02  0.1235064E+00
          4   -1    0    0  501    0  0.00000000000E+00  0.00000000000E+00  0.25711235683E+03  0.25711549338E+03  0.12700000000E+01 0.  1.
         -4   -1    0    0    0  501 -0.00000000000E+00 -0.00000000000E+00 -0.15163766022E+02  0.15216855784E+02  0.12700000000E+01 0.  1.
         25    2    1    2    0    0  0.00000000000E+00  0.00000000000E+00  0.24194859081E+03  0.27233234916E+03  0.12500315118E+03 0.  0.
    9000005    1    3    3    0    0 -0.20177101138E+02 -0.56544387119E+02  0.15877566713E+03  0.16975009749E+03  0.10000000000E+01 0.  0.
    9000005    1    3    3    0    0  0.20177101138E+02  0.56544387119E+02  0.83172923679E+02  0.10258225167E+03  0.10000000000E+01 0.  0.
<mgrwt>
<rscale>  0 0.12500315E+03</rscale>
<asrwt>0</asrwt>
<pdfrwt beam="1">  1        4 0.39560070E-01 0.12500315E+03</pdfrwt>
<pdfrwt beam="2">  1       -4 0.23372123E-02 0.12500315E+03</pdfrwt>
<totfact> 0.79200340E+03</totfact>
</mgrwt>
</event>
<event>
 5    1  0.3217527E-002  0.1250023E+03  0.7818608E-02  0.1235066E+00
          4   -1    0    0  501    0  0.00000000000E+00  0.00000000000E+00  0.86179319278E+03  0.86179412856E+03  0.12700000000E+01 0.  1.
         -4   -1    0    0    0  501 -0.00000000000E+00 -0.00000000000E+00 -0.44429547921E+01  0.46209032975E+01  0.12700000000E+01 0.  1.
         25    2    1    2    0    0  0.00000000000E+00  0.00000000000E+00  0.85735023799E+03  0.86641503186E+03  0.12500230739E+03 0.  0.
    9000005    1    3    3    0    0  0.31974520883E+02  0.53693743807E+02  0.42813362734E+03  0.43267168959E+03  0.10000000000E+01 0.  0.
    9000005    1    3    3    0    0 -0.31974520883E+02 -0.53693743807E+02  0.42921661065E+03  0.43374334227E+03  0.10000000000E+01 0.  0.
<mgrwt>
<rscale>  0 0.12500231E+03</rscale>
<asrwt>0</asrwt>
<pdfrwt beam="1">  1        4 0.13259736E+00 0.12500231E+03</pdfrwt>
<pdfrwt beam="2">  1       -4 0.69729169E-03 0.12500231E+03</pdfrwt>
<totfact> 0.35463068E+03</totfact>
</mgrwt>
</event>
<event>
 5    1  0.3217527E-002  0.1250016E+03  0.7818608E-02  0.1235067E+00
          4   -1    0    0  501    0  0.00000000000E+00  0.00000000000E+00  0.62416546276E+02  0.62429465391E+02  0.12700000000E+01 0. -1.
         -4   -1    0    0    0  501 -0.00000000000E+00 -0.00000000000E+00 -0.62559289023E+02  0.62572178667E+02  0.12700000000E+01 0. -1.
         25    2    1    2    0    0  0.00000000000E+00  0.00000000000E+00 -0.14274274768E+00  0.12500164406E+03  0.12500156256E+03 0.  0.
    9000005    1    3    3    0    0 -0.38739645904E+02 -0.21867875910E+02  0.43819242780E+02  0.62450702153E+02  0.10000000000E+01 0.  0.
    9000005    1    3    3    0    0  0.38739645904E+02  0.21867875910E+02 -0.43961985527E+02  0.62550941904E+02  0.10000000000E+01 0.  0.
<mgrwt>
<rscale>  0 0.12500156E+03</rscale>
<asrwt>0</asrwt>
<pdfrwt beam="1">  1        4 0.96045308E-02 0.12500156E+03</pdfrwt>
<pdfrwt beam="2">  1       -4 0.96264913E-02 0.12500156E+03</pdfrwt>
<totfact> 0.10452458E+04</totfact>
</mgrwt>
</event>
<event>
 5    1  0.3217527E-002  0.1250012E+03  0.7818608E-02  0.1235067E+00
         -4   -1    0    0    0  501 -0.00000000000E+00  0.00000000000E+00  0.16801658398E+02  0.16849588271E+02  0.12700000000E+01 0. -1.
          4   -1    0    0  501    0  0.00000000000E+00 -0.00000000000E+00 -0.23211569369E+03  0.23211916801E+03  0.12700000000E+01 0. -1.
         25    2    1    2    0    0  0.00000000000E+00  0.00000000000E+00 -0.21531403529E+03  0.24896875628E+03  0.12500123123E+03 0.  0.
    9000005    1    3    3    0    0  0.51680147804E+02 -0.28300612305E+02 -0.14912925601E+03  0.16035054516E+03  0.10000000000E+01 0.  0.
    9000005    1    3    3    0    0 -0.51680147804E+02  0.28300612305E+02 -0.66184779278E+02  0.88618211119E+02  0.10000000000E+01 0.  0.
<mgrwt>
<rscale>  0 0.12500123E+03</rscale>
<asrwt>0</asrwt>
<pdfrwt beam="2">  1        4 0.35714058E-01 0.12500123E+03</pdfrwt>
<pdfrwt beam="1">  1       -4 0.25888249E-02 0.12500123E+03</pdfrwt>
<totfact> 0.82477242E+03</totfact>
</mgrwt>
</event>
<event>
 5    1  0.3217527E-002  0.1250015E+03  0.7818608E-02  0.1235067E+00
         -4   -1    0    0    0  501 -0.00000000000E+00  0.00000000000E+00  0.18700389644E+03  0.18700820887E+03  0.12700000000E+01 0.  1.
          4   -1    0    0  501    0  0.00000000000E+00 -0.00000000000E+00 -0.20865253992E+02  0.20903868641E+02  0.12700000000E+01 0.  1.
         25    2    1    2    0    0  0.00000000000E+00  0.00000000000E+00  0.16613864245E+03  0.20791207751E+03  0.12500153383E+03 0.  0.
    9000005    1    3    3    0    0 -0.44697890396E+02 -0.41260390774E+02  0.59253400529E+02  0.84925183114E+02  0.10000000000E+01 0.  0.
    9000005    1    3    3    0    0  0.44697890396E+02  0.41260390774E+02  0.10688524192E+03  0.12298689440E+03  0.10000000000E+01 0.  0.
<mgrwt>
<rscale>  0 0.12500153E+03</rscale>
<asrwt>0</asrwt>
<pdfrwt beam="2">  1        4 0.32133411E-02 0.12500153E+03</pdfrwt>
<pdfrwt beam="1">  1       -4 0.28773133E-01 0.12500153E+03</pdfrwt>
<totfact> 0.88814958E+03</totfact>
</mgrwt>
</event>
<event>
 5    1  0.3217527E-002  0.1249905E+03  0.7818608E-02  0.1235084E+00
         -4   -1    0    0    0  501 -0.00000000000E+00  0.00000000000E+00  0.20911275295E+01  0.24465719578E+01  0.12700000000E+01 0.  1.
          4   -1    0    0  501    0  0.00000000000E+00 -0.00000000000E+00 -0.17210689664E+04  0.17210694350E+04  0.12700000000E+01 0.  1.
         25    2    1    2    0    0  0.00000000000E+00  0.00000000000E+00 -0.17189778389E+04  0.17235160069E+04  0.12499046214E+03 0.  0.
    9000005    1    3    3    0    0 -0.19381915703E+02  0.31252737458E+02 -0.16286072917E+03  0.16696409602E+03  0.10000000000E+01 0.  0.
    9000005    1    3    3    0    0  0.19381915703E+02 -0.31252737458E+02 -0.15561171097E+04  0.15565519109E+04  0.10000000000E+01 0.  0.
<mgrwt>
<rscale>  0 0.12499046E+03</rscale>
<asrwt>0</asrwt>
<pdfrwt beam="2">  1        4 0.26480618E+00 0.12499046E+03</pdfrwt>
<pdfrwt beam="1">  1       -4 0.34909123E-03 0.12499046E+03</pdfrwt>
<totfact> 0.13922322E+03</totfact>
</mgrwt>
</event>
<event>
 5    1  0.3217527E-002  0.1250071E+03  0.7818608E-02  0.1235058E+00
         -4   -1    0    0    0  501 -0.00000000000E+00  0.00000000000E+00  0.64741675860E+01  0.65975560575E+01  0.12700000000E+01 0. -1.
          4   -1    0    0  501    0  0.00000000000E+00 -0.00000000000E+00 -0.59760794500E+03  0.59760929446E+03  0.12700000000E+01 0. -1.
         25    2    1    2    0    0  0.00000000000E+00  0.00000000000E+00 -0.59113377741E+03  0.60420685052E+03  0.12500710146E+03 0.  0.
    9000005    1    3    3    0    0 -0.17876496406E+02 -0.55805112264E+02 -0.19056853951E+03  0.19937689919E+03  0.10000000000E+01 0.  0.
    9000005    1    3    3    0    0  0.17876496406E+02  0.55805112264E+02 -0.40056523790E+03  0.40482995133E+03  0.10000000000E+01 0.  0.
<mgrwt>
<rscale>  0 0.12500710E+03</rscale>
<asrwt>0</asrwt>
<pdfrwt beam="2">  1        4 0.91949236E-01 0.12500710E+03</pdfrwt>
<pdfrwt beam="1">  1       -4 0.10056215E-02 0.12500710E+03</pdfrwt>
<totfact> 0.48595584E+03</totfact>
</mgrwt>
</event>
<event>
 5    1  0.3217527E-002  0.1249933E+03  0.7818608E-02  0.1235080E+00
          4   -1    0    0  501    0  0.00000000000E+00  0.00000000000E+00  0.59617843536E+01  0.60955535170E+01  0.12700000000E+01 0.  1.
         -4   -1    0    0    0  501 -0.00000000000E+00 -0.00000000000E+00 -0.64774154827E+03  0.64774279329E+03  0.12700000000E+01 0.  1.
         25    2    1    2    0    0  0.00000000000E+00  0.00000000000E+00 -0.64177976392E+03  0.65383834680E+03  0.12499327333E+03 0.  0.
    9000005    1    3    3    0    0  0.43857318837E+02  0.39122750139E+02 -0.43195148729E+03  0.43593249634E+03  0.10000000000E+01 0.  0.
    9000005    1    3    3    0    0 -0.43857318837E+02 -0.39122750139E+02 -0.20982827662E+03  0.21790585046E+03  0.10000000000E+01 0.  0.
<mgrwt>
<rscale>  0 0.12499327E+03</rscale>
<asrwt>0</asrwt>
<pdfrwt beam="1">  1        4 0.92758381E-03 0.12499327E+03</pdfrwt>
<pdfrwt beam="2">  1       -4 0.99662876E-01 0.12499327E+03</pdfrwt>
<totfact> 0.45642982E+03</totfact>
</mgrwt>
</event>
<event>
 5    1  0.3217527E-002  0.1250023E+03  0.7818608E-02  0.1235066E+00
         -4   -1    0    0    0  501 -0.00000000000E+00  0.00000000000E+00  0.15551685390E+03  0.15552203942E+03  0.12700000000E+01 0.  1.
          4   -1    0    0  501    0  0.00000000000E+00 -0.00000000000E+00 -0.25097132466E+02  0.25129245075E+02  0.12700000000E+01 0.  1.
         25    2    1    2    0    0  0.00000000000E+00  0.00000000000E+00  0.13041972143E+03  0.18065128450E+03  0.12500233139E+03 0.  0.
    9000005    1    3    3    0    0 -0.55683699689E+02  0.25597802333E+02  0.82878597638E+02  0.10308144276E+03  0.10000000000E+01 0.  0.
    9000005    1    3    3    0    0  0.55683699689E+02 -0.25597802333E+02  0.47541123793E+02  0.77569841735E+02  0.10000000000E+01 0.  0.
<mgrwt>
<rscale>  0 0.12500233E+03</rscale>
<asrwt>0</asrwt>
<pdfrwt beam="2">  1        4 0.38639664E-02 0.12500233E+03</pdfrwt>
<pdfrwt beam="1">  1       -4 0.23928539E-01 0.12500233E+03</pdfrwt>
<totfact> 0.93495013E+03</totfact>
</mgrwt>
</event>
<event>
 5    1  0.3217527E-002  0.1250011E+03  0.7818608E-02  0.1235068E+00
         -4   -1    0    0    0  501 -0.00000000000E+00  0.00000000000E+00  0.56791077739E+02  0.56805276258E+02  0.12700000000E+01 0. -1.
          4   -1    0    0  501    0  0.00000000000E+00 -0.00000000000E+00 -0.68755378622E+02  0.68767106885E+02  0.12700000000E+01 0. -1.
         25    2    1    2    0    0  0.00000000000E+00  0.00000000000E+00 -0.11964300883E+02  0.12557238314E+03  0.12500111565E+03 0.  0.
    9000005    1    3    3    0    0 -0.17017277556E+02 -0.49513366121E+02 -0.40257849162E+02  0.66051915787E+02  0.10000000000E+01 0.  0.
    9000005    1    3    3    0    0  0.17017277556E+02  0.49513366121E+02  0.28293548279E+02  0.59520467356E+02  0.10000000000E+01 0.  0.
<mgrwt>
<rscale>  0 0.12500112E+03</rscale>
<asrwt>0</asrwt>
<pdfrwt beam="2">  1        4 0.10579745E-01 0.12500112E+03</pdfrwt>
<pdfrwt beam="1">  1       -4 0.87390832E-02 0.12500112E+03</pdfrwt>
<totfact> 0.10440093E+04</totfact>
</mgrwt>
</event>
<event>
 5    1  0.3217527E-002  0.1249988E+03  0.7818608E-02  0.1235071E+00
         -4   -1    0    0    0  501 -0.00000000000E+00  0.00000000000E+00  0.15788813200E+02  0.15839808151E+02  0.12700000000E+01 0.  1.
          4   -1    0    0  501    0  0.00000000000E+00 -0.00000000000E+00 -0.24695007234E+03  0.24695333796E+03  0.12700000000E+01 0.  1.
         25    2    1    2    0    0  0.00000000000E+00  0.00000000000E+00 -0.23116125914E+03  0.26279314611E+03  0.12499883966E+03 0.  0.
    9000005    1    3    3    0    0  0.60959481915E+02 -0.11830729450E+02 -0.10084113621E+03  0.11843124312E+03  0.10000000000E+01 0.  0.
    9000005    1    3    3    0    0 -0.60959481915E+02  0.11830729450E+02 -0.13032012293E+03  0.14436190299E+03  0.10000000000E+01 0.  0.
<mgrwt>
<rscale>  0 0.12499884E+03</rscale>
<asrwt>0</asrwt>
<pdfrwt beam="2">  1        4 0.37996490E-01 0.12499884E+03</pdfrwt>
<pdfrwt beam="1">  1       -4 0.24332222E-02 0.12499884E+03</pdfrwt>
<totfact> 0.80517754E+03</totfact>
</mgrwt>
</event>
<event>
 5    1  0.3217527E-002  0.1249928E+03  0.7818608E-02  0.1235080E+00
          4   -1    0    0  501    0  0.00000000000E+00  0.00000000000E+00  0.53502518818E+02  0.53517589817E+02  0.12700000000E+01 0. -1.
         -4   -1    0    0    0  501 -0.00000000000E+00 -0.00000000000E+00 -0.72971322195E+02  0.72982372960E+02  0.12700000000E+01 0. -1.
         25    2    1    2    0    0  0.00000000000E+00  0.00000000000E+00 -0.19468803377E+02  0.12649996278E+03  0.12499282490E+03 0.  0.
    9000005    1    3    3    0    0 -0.49062215075E+02  0.12115177936E+02 -0.46932490399E+02  0.68974902244E+02  0.10000000000E+01 0.  0.
    9000005    1    3    3    0    0  0.49062215075E+02 -0.12115177936E+02  0.27463687022E+02  0.57525060533E+02  0.10000000000E+01 0.  0.
<mgrwt>
<rscale>  0 0.12499282E+03</rscale>
<asrwt>0</asrwt>
<pdfrwt beam="1">  1        4 0.82331661E-02 0.12499282E+03</pdfrwt>
<pdfrwt beam="2">  1       -4 0.11228367E-01 0.12499282E+03</pdfrwt>
<totfact> 0.10421717E+04</totfact>
</mgrwt>
</event>
<event>
 5    1  0.3217527E-002  0.1249966E+03  0.7818608E-02  0.1235075E+00
          4   -1    0    0  501    0  0.00000000000E+00  0.00000000000E+00  0.46342728728E+03  0.46342902747E+03  0.12700000000E+01 0. -1.
         -4   -1    0    0    0  501 -0.00000000000E+00 -0.00000000000E+00 -0.83789820010E+01  0.84746822580E+01  0.12700000000E+01 0. -1.
         25    2    1    2    0    0  0.00000000000E+00  0.00000000000E+00  0.45504830528E+03  0.47190370972E+03  0.12499660440E+03 0.  0.
    9000005    1    3    3    0    0 -0.42416564712E+02 -0.78962187291E+01  0.39818932075E+03  0.40052122340E+03  0.10000000000E+01 0.  0.
    9000005    1    3    3    0    0  0.42416564712E+02  0.78962187291E+01  0.56858984531E+02  0.71382486326E+02  0.10000000000E+01 0.  0.
<mgrwt>
<rscale>  0 0.12499660E+03</rscale>
<asrwt>0</asrwt>
<pdfrwt beam="1">  1        4 0.71304003E-01 0.12499660E+03</pdfrwt>
<pdfrwt beam="2">  1       -4 0.12965695E-02 0.12499660E+03</pdfrwt>
<totfact> 0.58116492E+03</totfact>
</mgrwt>
</event>
<event>
 5    1  0.3217527E-002  0.1250062E+03  0.7818608E-02  0.1235060E+00
         -4   -1    0    0    0  501 -0.00000000000E+00  0.00000000000E+00  0.16855766120E+01  0.21104664212E+01  0.12700000000E+01 0. -1.
          4   -1    0    0  501    0  0.00000000000E+00 -0.00000000000E+00 -0.20578440276E+04  0.20578444195E+04  0.12700000000E+01 0. -1.
         25    2    1    2    0    0  0.00000000000E+00  0.00000000000E+00 -0.20561584510E+04  0.20599548859E+04  0.12500622554E+03 0.  0.
    9000005    1    3    3    0    0 -0.96897054716E+01  0.19671156445E+02 -0.63710063931E+02  0.67385584764E+02  0.10000000000E+01 0.  0.
    9000005    1    3    3    0    0  0.96897054716E+01 -0.19671156445E+02 -0.19924483870E+04  0.19925693011E+04  0.10000000000E+01 0.  0.
<mgrwt>
<rscale>  0 0.12500623E+03</rscale>
<asrwt>0</asrwt>
<pdfrwt beam="2">  1        4 0.31662232E+00 0.12500623E+03</pdfrwt>
<pdfrwt beam="1">  1       -4 0.29203510E-03 0.12500623E+03</pdfrwt>
<totfact> 0.90977688E+02</totfact>
</mgrwt>
</event>
<event>
 5    1  0.3217527E-002  0.1250019E+03  0.7818608E-02  0.1235066E+00
         -4   -1    0    0    0  501 -0.00000000000E+00  0.00000000000E+00  0.27470141653E+03  0.27470435225E+03  0.12700000000E+01 0.  1.
          4   -1    0    0  501    0  0.00000000000E+00 -0.00000000000E+00 -0.14189034511E+02  0.14245757276E+02  0.12700000000E+01 0.  1.
         25    2    1    2    0    0  0.00000000000E+00  0.00000000000E+00  0.26051238202E+03  0.28895010953E+03  0.12500185842E+03 0.  0.
    9000005    1    3    3    0    0  0.47029884454E+02 -0.23068798269E+02  0.20903235184E+03  0.21549826821E+03  0.10000000000E+01 0.  0.
    9000005    1    3    3    0    0 -0.47029884454E+02  0.23068798269E+02  0.51480030179E+02  0.73451841314E+02  0.10000000000E+01 0.  0.
<mgrwt>
<rscale>  0 0.12500186E+03</rscale>
<asrwt>0</asrwt>
<pdfrwt beam="2">  1        4 0.21875176E-02 0.12500186E+03</pdfrwt>
<pdfrwt beam="1">  1       -4 0.42266343E-01 0.12500186E+03</pdfrwt>
<totfact> 0.77002978E+03</totfact>
</mgrwt>
</event>
<event>
 5    1  0.3217527E-002  0.1249992E+03  0.7818608E-02  0.1235071E+00
          4   -1    0    0  501    0  0.00000000000E+00  0.00000000000E+00  0.71098009832E+02  0.71109351720E+02  0.12700000000E+01 0.  1.
         -4   -1    0    0    0  501 -0.00000000000E+00 -0.00000000000E+00 -0.54917960124E+02  0.54932642793E+02  0.12700000000E+01 0.  1.
         25    2    1    2    0    0  0.00000000000E+00  0.00000000000E+00  0.16180049707E+02  0.12604199451E+03  0.12499916149E+03 0.  0.
    9000005    1    3    3    0    0  0.17123703134E+02  0.30571493221E+02  0.60264917924E+02  0.69718704371E+02  0.10000000000E+01 0.  0.
    9000005    1    3    3    0    0 -0.17123703134E+02 -0.30571493221E+02 -0.44084868216E+02  0.56323290142E+02  0.10000000000E+01 0.  0.
<mgrwt>
<rscale>  0 0.12499916E+03</rscale>
<asrwt>0</asrwt>
<pdfrwt beam="1">  1        4 0.10940157E-01 0.12499916E+03</pdfrwt>
<pdfrwt beam="2">  1       -4 0.84509188E-02 0.12499916E+03</pdfrwt>
<totfact> 0.10430234E+04</totfact>
</mgrwt>
</event>
<event>
 5    1  0.3217527E-002  0.1249938E+03  0.7818608E-02  0.1235079E+00
          4   -1    0    0  501    0  0.00000000000E+00  0.00000000000E+00  0.64198733666E+03  0.64198859283E+03  0.12700000000E+01 0. -1.
         -4   -1    0    0    0  501 -0.00000000000E+00 -0.00000000000E+00 -0.60164653636E+01  0.61490450861E+01  0.12700000000E+01 0. -1.
         25    2    1    2    0    0  0.00000000000E+00  0.00000000000E+00  0.63597087129E+03  0.64813763792E+03  0.12499379406E+03 0.  0.
    9000005    1    3    3    0    0 -0.61280269190E+02 -0.47405491541E+01  0.25952228521E+03  0.26670313219E+03  0.10000000000E+01 0.  0.
    9000005    1    3    3    0    0  0.61280269190E+02  0.47405491541E+01  0.37644858608E+03  0.38143450573E+03  0.10000000000E+01 0.  0.
<mgrwt>
<rscale>  0 0.12499379E+03</rscale>
<asrwt>0</asrwt>
<pdfrwt beam="1">  1        4 0.98777517E-01 0.12499379E+03</pdfrwt>
<pdfrwt beam="2">  1       -4 0.93590570E-03 0.12499379E+03</pdfrwt>
<totfact> 0.45969602E+03</totfact>
</mgrwt>
</event>
<event>
 5    1  0.3217527E-002  0.1249999E+03  0.7818608E-02  0.1235069E+00
          4   -1    0    0  501    0  0.00000000000E+00  0.00000000000E+00  0.35236143996E+02  0.35259023578E+02  0.12700000000E+01 0.  1.
         -4   -1    0    0    0  501 -0.00000000000E+00 -0.00000000000E+00 -0.11079655100E+03  0.11080382941E+03  0.12700000000E+01 0.  1.
         25    2    1    2    0    0  0.00000000000E+00  0.00000000000E+00 -0.75560407002E+02  0.14606285299E+03  0.12499992767E+03 0.  0.
    9000005    1    3    3    0    0  0.38166963343E+02  0.16213421096E+02  0.16848470689E+02  0.44771230484E+02  0.10000000000E+01 0.  0.
    9000005    1    3    3    0    0 -0.38166963343E+02 -0.16213421096E+02 -0.92408877691E+02  0.10129162251E+03  0.10000000000E+01 0.  0.
<mgrwt>
<rscale>  0 0.12499993E+03</rscale>
<asrwt>0</asrwt>
<pdfrwt beam="1">  1        4 0.54232651E-02 0.12499993E+03</pdfrwt>
<pdfrwt beam="2">  1       -4 0.17047943E-01 0.12499993E+03</pdfrwt>
<totfact> 0.10009455E+04</totfact>
</mgrwt>
</event>
<event>
 5    1  0.3217527E-002  0.1249996E+03  0.7818608E-02  0.1235070E+00
          4   -1    0    0  501    0  0.00000000000E+00  0.00000000000E+00  0.25194356131E+03  0.25194676220E+03  0.12700000000E+01 0. -1.
         -4   -1    0    0    0  501 -0.00000000000E+00 -0.00000000000E+00 -0.15475054309E+02  0.15527079760E+02  0.12700000000E+01 0. -1.
         25    2    1    2    0    0  0.00000000000E+00  0.00000000000E+00  0.23646850700E+03  0.26747384196E+03  0.12499960533E+03 0.  0.
    9000005    1    3    3    0    0  0.25359980301E+02 -0.55535252314E+02  0.14677729791E+03  0.15897128053E+03  0.10000000000E+01 0.  0.
    9000005    1    3    3    0    0 -0.25359980301E+02  0.55535252314E+02  0.89691209087E+02  0.10850256144E+03  0.10000000000E+01 0.  0.
<mgrwt>
<rscale>  0 0.12499961E+03</rscale>
<asrwt>0</asrwt>
<pdfrwt beam="1">  1        4 0.38764794E-01 0.12499961E+03</pdfrwt>
<pdfrwt beam="2">  1       -4 0.23850259E-02 0.12499961E+03</pdfrwt>
<totfact> 0.79869223E+03</totfact>
</mgrwt>
</event>
<event>
 5    1  0.3217527E-002  0.1249963E+03  0.7818608E-02  0.1235075E+00
         -4   -1    0    0    0  501 -0.00000000000E+00  0.00000000000E+00  0.33306648444E+03  0.33306890572E+03  0.12700000000E+01 0.  1.
          4   -1    0    0  501    0  0.00000000000E+00 -0.00000000000E+00 -0.11690588199E+02  0.11759368709E+02  0.12700000000E+01 0.  1.
         25    2    1    2    0    0  0.00000000000E+00  0.00000000000E+00  0.32137589624E+03  0.34482827442E+03  0.12499628859E+03 0.  0.
    9000005    1    3    3    0    0 -0.16450308493E+02 -0.25783154295E+02  0.10353938961E+02  0.32304608757E+02  0.10000000000E+01 0.  0.
    9000005    1    3    3    0    0  0.16450308493E+02  0.25783154295E+02  0.31102195728E+03  0.31252366567E+03  0.10000000000E+01 0.  0.
<mgrwt>
<rscale>  0 0.12499629E+03</rscale>
<asrwt>0</asrwt>
<pdfrwt beam="2">  1        4 0.18040295E-02 0.12499629E+03</pdfrwt>
<pdfrwt beam="1">  1       -4 0.51246463E-01 0.12499629E+03</pdfrwt>
<totfact> 0.70303063E+03</totfact>
</mgrwt>
</event>
<event>
 5    1  0.3217527E-002  0.1249993E+03  0.7818608E-02  0.1235070E+00
         -4   -1    0    0    0  501 -0.00000000000E+00  0.00000000000E+00  0.97368710807E+02  0.97376992889E+02  0.12700000000E+01 0.  1.
          4   -1    0    0  501    0  0.00000000000E+00 -0.00000000000E+00 -0.40097601879E+02  0.40117709013E+02  0.12700000000E+01 0.  1.
         25    2    1    2    0    0  0.00000000000E+00  0.00000000000E+00  0.57271108928E+02  0.13749470190E+03  0.12499925253E+03 0.  0.
    9000005    1    3    3    0    0  0.13907112276E+02 -0.42480076914E+01  0.95487229506E+02  0.96593293452E+02  0.10000000000E+01 0.  0.
    9000005    1    3    3    0    0 -0.13907112276E+02  0.42480076914E+01 -0.38216120578E+02  0.40901408450E+02  0.10000000000E+01 0.  0.
<mgrwt>
<rscale>  0 0.12499925E+03</rscale>
<asrwt>0</asrwt>
<pdfrwt beam="2">  1        4 0.61710457E-02 0.12499925E+03</pdfrwt>
<pdfrwt beam="1">  1       -4 0.14981985E-01 0.12499925E+03</pdfrwt>
<totfact> 0.10185924E+04</totfact>
</mgrwt>
</event>
<event>
 5    1  0.3217527E-002  0.1249772E+03  0.7818608E-02  0.1235105E+00
          4   -1    0    0  501    0  0.00000000000E+00  0.00000000000E+00  0.27765057659E+02  0.27794087983E+02  0.12700000000E+01 0.  1.
         -4   -1    0    0    0  501 -0.00000000000E+00 -0.00000000000E+00 -0.14053271475E+03  0.14053845316E+03  0.12700000000E+01 0.  1.
         25    2    1    2    0    0  0.00000000000E+00  0.00000000000E+00 -0.11276765709E+03  0.16833254114E+03  0.12497719760E+03 0.  0.
    9000005    1    3    3    0    0  0.43499895346E+02 -0.44740775797E+02 -0.60610424409E+02  0.86997709516E+02  0.10000000000E+01 0.  0.
    9000005    1    3    3    0    0 -0.43499895346E+02  0.44740775797E+02 -0.52157232684E+02  0.81334831624E+02  0.10000000000E+01 0.  0.
<mgrwt>
<rscale>  0 0.12497720E+03</rscale>
<asrwt>0</asrwt>
<pdfrwt beam="1">  1        4 0.42742219E-02 0.12497720E+03</pdfrwt>
<pdfrwt beam="2">  1       -4 0.21623092E-01 0.12497720E+03</pdfrwt>
<totfact> 0.95809010E+03</totfact>
</mgrwt>
</event>
<event>
 5    1  0.3217527E-002  0.1250012E+03  0.7818608E-02  0.1235067E+00
         -4   -1    0    0    0  501 -0.00000000000E+00  0.00000000000E+00  0.70087252873E+02  0.70098758300E+02  0.12700000000E+01 0. -1.
          4   -1    0    0  501    0  0.00000000000E+00 -0.00000000000E+00 -0.55711872463E+02  0.55726345953E+02  0.12700000000E+01 0. -1.
         25    2    1    2    0    0  0.00000000000E+00  0.00000000000E+00  0.14375380410E+02  0.12582510425E+03  0.12500122119E+03 0.  0.
    9000005    1    3    3    0    0 -0.23714452714E+02 -0.57161812673E+02 -0.15573919536E+01  0.61913436064E+02  0.10000000000E+01 0.  0.
    9000005    1    3    3    0    0  0.23714452714E+02  0.57161812673E+02  0.15932772363E+02  0.63911668189E+02  0.10000000000E+01 0.  0.
<mgrwt>
<rscale>  0 0.12500122E+03</rscale>
<asrwt>0</asrwt>
<pdfrwt beam="2">  1        4 0.85730557E-02 0.12500122E+03</pdfrwt>
<pdfrwt beam="1">  1       -4 0.10784653E-01 0.12500122E+03</pdfrwt>
<totfact> 0.10434506E+04</totfact>
</mgrwt>
</event>
<event>
 5    1  0.3217527E-002  0.1250010E+03  0.7818608E-02  0.1235068E+00
          4   -1    0    0  501    0  0.00000000000E+00  0.00000000000E+00  0.76541057878E+03  0.76541163239E+03  0.12700000000E+01 0. -1.
         -4   -1    0    0    0  501 -0.00000000000E+00 -0.00000000000E+00 -0.50234701191E+01  0.51815202439E+01  0.12700000000E+01 0. -1.
         25    2    1    2    0    0  0.00000000000E+00  0.00000000000E+00  0.76038710866E+03  0.77059315264E+03  0.12500100751E+03 0.  0.
    9000005    1    3    3    0    0  0.10667646218E+02 -0.15283109916E+02  0.12478852711E+02  0.22452035309E+02  0.10000000000E+01 0.  0.
    9000005    1    3    3    0    0 -0.10667646218E+02  0.15283109916E+02  0.74790825595E+03  0.74814111733E+03  0.10000000000E+01 0.  0.
<mgrwt>
<rscale>  0 0.12500101E+03</rscale>
<asrwt>0</asrwt>
<pdfrwt beam="1">  1        4 0.11776773E+00 0.12500101E+03</pdfrwt>
<pdfrwt beam="2">  1       -4 0.78508017E-03 0.12500101E+03</pdfrwt>
<totfact> 0.39607111E+03</totfact>
</mgrwt>
</event>
<event>
 5    1  0.3217527E-002  0.1249755E+03  0.7818608E-02  0.1235108E+00
          4   -1    0    0  501    0  0.00000000000E+00  0.00000000000E+00  0.25776666803E+02  0.25807933887E+02  0.12700000000E+01 0.  1.
         -4   -1    0    0    0  501 -0.00000000000E+00 -0.00000000000E+00 -0.15135705346E+03  0.15136238149E+03  0.12700000000E+01 0.  1.
         25    2    1    2    0    0  0.00000000000E+00  0.00000000000E+00 -0.12558038665E+03  0.17717031538E+03  0.12497554617E+03 0.  0.
    9000005    1    3    3    0    0 -0.30354890920E+02  0.46342434884E+02 -0.10374701127E+03  0.11761582811E+03  0.10000000000E+01 0.  0.
    9000005    1    3    3    0    0  0.30354890920E+02 -0.46342434884E+02 -0.21833375384E+02  0.59554487273E+02  0.10000000000E+01 0.  0.
<mgrwt>
<rscale>  0 0.12497555E+03</rscale>
<asrwt>0</asrwt>
<pdfrwt beam="1">  1        4 0.39684562E-02 0.12497555E+03</pdfrwt>
<pdfrwt beam="2">  1       -4 0.23288515E-01 0.12497555E+03</pdfrwt>
<totfact> 0.94180494E+03</totfact>
</mgrwt>
</event>
<event>
 5    1  0.3217527E-002  0.1250006E+03  0.7818608E-02  0.1235068E+00
         -4   -1    0    0    0  501 -0.00000000000E+00  0.00000000000E+00  0.13604581577E+03  0.13605174343E+03  0.12700000000E+01 0. -1.
          4   -1    0    0  501    0  0.00000000000E+00 -0.00000000000E+00 -0.28692451970E+02  0.28720544912E+02  0.12700000000E+01 0. -1.
         25    2    1    2    0    0  0.00000000000E+00  0.00000000000E+00  0.10735336380E+03  0.16477228834E+03  0.12500064914E+03 0.  0.
    9000005    1    3    3    0    0  0.54423341856E+02 -0.19482278649E+02  0.84976836062E+02  0.10277899585E+03  0.10000000000E+01 0.  0.
    9000005    1    3    3    0    0 -0.54423341856E+02  0.19482278649E+02  0.22376527741E+02  0.61993292491E+02  0.10000000000E+01 0.  0.
<mgrwt>
<rscale>  0 0.12500065E+03</rscale>
<asrwt>0</asrwt>
<pdfrwt beam="2">  1        4 0.44168403E-02 0.12500065E+03</pdfrwt>
<pdfrwt beam="1">  1       -4 0.20932743E-01 0.12500065E+03</pdfrwt>
<totfact> 0.96429128E+03</totfact>
</mgrwt>
</event>
<event>
 5    1  0.3217527E-002  0.1250003E+03  0.7818608E-02  0.1235069E+00
         -4   -1    0    0    0  501 -0.00000000000E+00  0.00000000000E+00  0.12070170743E+03  0.12070838859E+03  0.12700000000E+01 0.  1.
          4   -1    0    0  501    0  0.00000000000E+00 -0.00000000000E+00 -0.32342933264E+02  0.32367858010E+02  0.12700000000E+01 0.  1.
         25    2    1    2    0    0  0.00000000000E+00  0.00000000000E+00  0.88358774165E+02  0.15307624660E+03  0.12500025721E+03 0.  0.
    9000005    1    3    3    0    0  0.23303543738E+02  0.36935454857E+02 -0.10559101712E+02  0.44941935930E+02  0.10000000000E+01 0.  0.
    9000005    1    3    3    0    0 -0.23303543738E+02 -0.36935454857E+02  0.98917875877E+02  0.10813431067E+03  0.10000000000E+01 0.  0.
<mgrwt>
<rscale>  0 0.12500026E+03</rscale>
<asrwt>0</asrwt>
<pdfrwt beam="2">  1        4 0.49782672E-02 0.12500026E+03</pdfrwt>
<pdfrwt beam="1">  1       -4 0.18571924E-01 0.12500026E+03</pdfrwt>
<totfact> 0.98693420E+03</totfact>
</mgrwt>
</event>
<event>
 5    1  0.3217527E-002  0.1250032E+03  0.7818608E-02  0.1235064E+00
          4   -1    0    0  501    0  0.00000000000E+00  0.00000000000E+00  0.78734675580E+02  0.78744917542E+02  0.12700000000E+01 0.  1.
         -4   -1    0    0    0  501 -0.00000000000E+00 -0.00000000000E+00 -0.49593775055E+02  0.49610033503E+02  0.12700000000E+01 0.  1.
         25    2    1    2    0    0  0.00000000000E+00  0.00000000000E+00  0.29140900526E+02  0.12835495105E+03  0.12500320546E+03 0.  0.
    9000005    1    3    3    0    0 -0.37970018865E+01 -0.61662158549E+02  0.48937866019E+01  0.61980546687E+02  0.10000000000E+01 0.  0.
    9000005    1    3    3    0    0  0.37970018865E+01  0.61662158549E+02  0.24247113924E+02  0.66374404358E+02  0.10000000000E+01 0.  0.
<mgrwt>
<rscale>  0 0.12500321E+03</rscale>
<asrwt>0</asrwt>
<pdfrwt beam="1">  1        4 0.12115065E-01 0.12500321E+03</pdfrwt>
<pdfrwt beam="2">  1       -4 0.76318501E-02 0.12500321E+03</pdfrwt>
<totfact> 0.10379078E+04</totfact>
</mgrwt>
</event>
<event>
 5    1  0.3217527E-002  0.1249996E+03  0.7818608E-02  0.1235070E+00
          4   -1    0    0  501    0  0.00000000000E+00  0.00000000000E+00  0.96758057477E+01  0.97587968965E+01  0.12700000000E+01 0. -1.
         -4   -1    0    0    0  501 -0.00000000000E+00 -0.00000000000E+00 -0.40190286592E+03  0.40190487249E+03  0.12700000000E+01 0. -1.
         25    2    1    2    0    0  0.00000000000E+00  0.00000000000E+00 -0.39222706017E+03  0.41166366939E+03  0.12499963986E+03 0.  0.
    9000005    1    3    3    0    0 -0.10506205017E+02  0.48398633213E+02 -0.70603103051E+02  0.86247354749E+02  0.10000000000E+01 0.  0.
    9000005    1    3    3    0    0  0.10506205017E+02 -0.48398633213E+02 -0.32162395712E+03  0.32541631464E+03  0.10000000000E+01 0.  0.
<mgrwt>
<rscale>  0 0.12499964E+03</rscale>
<asrwt>0</asrwt>
<pdfrwt beam="1">  1        4 0.14951241E-02 0.12499964E+03</pdfrwt>
<pdfrwt beam="2">  1       -4 0.61837736E-01 0.12499964E+03</pdfrwt>
<totfact> 0.63434496E+03</totfact>
</mgrwt>
</event>
<event>
 5    1  0.3217527E-002  0.1250005E+03  0.7818608E-02  0.1235069E+00
         -4   -1    0    0    0  501 -0.00000000000E+00  0.00000000000E+00  0.46648305767E+02  0.46665590438E+02  0.12700000000E+01 0.  1.
          4   -1    0    0  501    0  0.00000000000E+00 -0.00000000000E+00 -0.83701325571E+02  0.83710959870E+02  0.12700000000E+01 0.  1.
         25    2    1    2    0    0  0.00000000000E+00  0.00000000000E+00 -0.37053019804E+02  0.13037655031E+03  0.12500047437E+03 0.  0.
    9000005    1    3    3    0    0 -0.53576921639E+02 -0.19950516348E+02  0.77930805011E+01  0.57708246712E+02  0.10000000000E+01 0.  0.
    9000005    1    3    3    0    0  0.53576921639E+02  0.19950516348E+02 -0.44846100305E+02  0.72668303596E+02  0.10000000000E+01 0.  0.
<mgrwt>
<rscale>  0 0.12500047E+03</rscale>
<asrwt>0</asrwt>
<pdfrwt beam="2">  1        4 0.12879198E-01 0.12500047E+03</pdfrwt>
<pdfrwt beam="1">  1       -4 0.71787331E-02 0.12500047E+03</pdfrwt>
<totfact> 0.10336348E+04</totfact>
</mgrwt>
</event>
<event>
 5    1  0.3217527E-002  0.1249975E+03  0.7818608E-02  0.1235073E+00
          4   -1    0    0  501    0  0.00000000000E+00  0.00000000000E+00  0.48427173273E+01  0.50064769162E+01  0.12700000000E+01 0. -1.
         -4   -1    0    0    0  501 -0.00000000000E+00 -0.00000000000E+00 -0.79301670635E+03  0.79301772329E+03  0.12700000000E+01 0. -1.
         25    2    1    2    0    0  0.00000000000E+00  0.00000000000E+00 -0.78817398902E+03  0.79802420020E+03  0.12499754854E+03 0.  0.
    9000005    1    3    3    0    0 -0.80554029887E+01  0.22290115441E+02 -0.76323965994E+03  0.76360822236E+03  0.10000000000E+01 0.  0.
    9000005    1    3    3    0    0  0.80554029887E+01 -0.22290115441E+02 -0.24934329085E+02  0.34415977839E+02  0.10000000000E+01 0.  0.
<mgrwt>
<rscale>  0 0.12499755E+03</rscale>
<asrwt>0</asrwt>
<pdfrwt beam="1">  1        4 0.75770918E-03 0.12499755E+03</pdfrwt>
<pdfrwt beam="2">  1       -4 0.12201514E+00 0.12499755E+03</pdfrwt>
<totfact> 0.38355164E+03</totfact>
</mgrwt>
</event>
<event>
 5    1  0.3217527E-002  0.1249939E+03  0.7818608E-02  0.1235079E+00
         -4   -1    0    0    0  501 -0.00000000000E+00  0.00000000000E+00  0.15226047404E+03  0.15226577046E+03  0.12700000000E+01 0. -1.
          4   -1    0    0  501    0  0.00000000000E+00 -0.00000000000E+00 -0.25631072519E+02  0.25662516994E+02  0.12700000000E+01 0. -1.
         25    2    1    2    0    0  0.00000000000E+00  0.00000000000E+00  0.12662940152E+03  0.17792828746E+03  0.12499388044E+03 0.  0.
    9000005    1    3    3    0    0 -0.23188688663E+02  0.33014134751E+02  0.13124423902E+03  0.13730877121E+03  0.10000000000E+01 0.  0.
    9000005    1    3    3    0    0  0.23188688663E+02 -0.33014134751E+02 -0.46148374967E+01  0.40619516250E+02  0.10000000000E+01 0.  0.
<mgrwt>
<rscale>  0 0.12499388E+03</rscale>
<asrwt>0</asrwt>
<pdfrwt beam="2">  1        4 0.39460682E-02 0.12499388E+03</pdfrwt>
<pdfrwt beam="1">  1       -4 0.23427514E-01 0.12499388E+03</pdfrwt>
<totfact> 0.94004153E+03</totfact>
</mgrwt>
</event>
<event>
 5    1  0.3217527E-002  0.1250094E+03  0.7818608E-02  0.1235055E+00
          4   -1    0    0  501    0  0.00000000000E+00  0.00000000000E+00  0.72918088229E+03  0.72918198825E+03  0.12700000000E+01 0. -1.
         -4   -1    0    0    0  501 -0.00000000000E+00 -0.00000000000E+00 -0.52814629114E+01  0.54320116426E+01  0.12700000000E+01 0. -1.
         25    2    1    2    0    0  0.00000000000E+00  0.00000000000E+00  0.72389941937E+03  0.73461399989E+03  0.12500943753E+03 0.  0.
    9000005    1    3    3    0    0  0.30939173710E+02  0.48603166909E+02  0.50424515512E+03  0.50752702073E+03  0.10000000000E+01 0.  0.
    9000005    1    3    3    0    0 -0.30939173710E+02 -0.48603166909E+02  0.21965426425E+03  0.22708697917E+03  0.10000000000E+01 0.  0.
<mgrwt>
<rscale>  0 0.12500944E+03</rscale>
<asrwt>0</asrwt>
<pdfrwt beam="1">  1        4 0.11219330E+00 0.12500944E+03</pdfrwt>
<pdfrwt beam="2">  1       -4 0.82419877E-03 0.12500944E+03</pdfrwt>
<totfact> 0.41312568E+03</totfact>
</mgrwt>
</event>
<event>
 5    1  0.3217527E-002  0.1249986E+03  0.7818608E-02  0.1235071E+00
         -4   -1    0    0    0  501 -0.00000000000E+00  0.00000000000E+00  0.62403779839E+02  0.62416701597E+02  0.12700000000E+01 0. -1.
          4   -1    0    0  501    0  0.00000000000E+00 -0.00000000000E+00 -0.62569144608E+02  0.62582032221E+02  0.12700000000E+01 0. -1.
         25    2    1    2    0    0  0.00000000000E+00  0.00000000000E+00 -0.16536476857E+00  0.12499873382E+03  0.12499862443E+03 0.  0.
    9000005    1    3    3    0    0 -0.43964346023E+02 -0.11160456943E+02  0.42902754000E+02  0.62442500119E+02  0.10000000000E+01 0.  0.
    9000005    1    3    3    0    0  0.43964346023E+02  0.11160456943E+02 -0.43068118768E+02  0.62556233699E+02  0.10000000000E+01 0.  0.
<mgrwt>
<rscale>  0 0.12499862E+03</rscale>
<asrwt>0</asrwt>
<pdfrwt beam="2">  1        4 0.96280076E-02 0.12499862E+03</pdfrwt>
<pdfrwt beam="1">  1       -4 0.96025668E-02 0.12499862E+03</pdfrwt>
<totfact> 0.10453215E+04</totfact>
</mgrwt>
</event>
<event>
 5    1  0.3217527E-002  0.1250022E+03  0.7818608E-02  0.1235066E+00
          4   -1    0    0  501    0  0.00000000000E+00  0.00000000000E+00  0.16429757635E+03  0.16430248474E+03  0.12700000000E+01 0.  1.
         -4   -1    0    0    0  501 -0.00000000000E+00 -0.00000000000E+00 -0.23754053985E+02  0.23787979752E+02  0.12700000000E+01 0.  1.
         25    2    1    2    0    0  0.00000000000E+00  0.00000000000E+00  0.14054352236E+03  0.18809046450E+03  0.12500216461E+03 0.  0.
    9000005    1    3    3    0    0 -0.60569953281E+02  0.99096122527E+01  0.52565769970E+02  0.80815096535E+02  0.10000000000E+01 0.  0.
    9000005    1    3    3    0    0  0.60569953281E+02 -0.99096122527E+01  0.87977752391E+02  0.10727536796E+03  0.10000000000E+01 0.  0.
<mgrwt>
<rscale>  0 0.12500216E+03</rscale>
<asrwt>0</asrwt>
<pdfrwt beam="1">  1        4 0.25279539E-01 0.12500216E+03</pdfrwt>
<pdfrwt beam="2">  1       -4 0.36574569E-02 0.12500216E+03</pdfrwt>
<totfact> 0.92176161E+03</totfact>
</mgrwt>
</event>
<event>
 5    1  0.3217527E-002  0.1249982E+03  0.7818608E-02  0.1235072E+00
         -4   -1    0    0    0  501 -0.00000000000E+00  0.00000000000E+00  0.11484289625E+03  0.11484991824E+03  0.12700000000E+01 0. -1.
          4   -1    0    0  501    0  0.00000000000E+00 -0.00000000000E+00 -0.33992962419E+02  0.34016678174E+02  0.12700000000E+01 0. -1.
         25    2    1    2    0    0  0.00000000000E+00  0.00000000000E+00  0.80849933829E+02  0.14886659641E+03  0.12499820689E+03 0.  0.
    9000005    1    3    3    0    0 -0.54527185016E+02  0.15735375781E+02  0.92702564811E+01  0.57513073401E+02  0.10000000000E+01 0.  0.
    9000005    1    3    3    0    0  0.54527185016E+02 -0.15735375781E+02  0.71579677348E+02  0.91353523008E+02  0.10000000000E+01 0.  0.
<mgrwt>
<rscale>  0 0.12499821E+03</rscale>
<asrwt>0</asrwt>
<pdfrwt beam="2">  1        4 0.52320510E-02 0.12499821E+03</pdfrwt>
<pdfrwt beam="1">  1       -4 0.17670502E-01 0.12499821E+03</pdfrwt>
<totfact> 0.99534123E+03</totfact>
</mgrwt>
</event>
<event>
 5    1  0.3217527E-002  0.1249991E+03  0.7818608E-02  0.1235071E+00
          4   -1    0    0  501    0  0.00000000000E+00  0.00000000000E+00  0.13831970263E+03  0.13832553284E+03  0.12700000000E+01 0. -1.
         -4   -1    0    0    0  501 -0.00000000000E+00 -0.00000000000E+00 -0.28219637906E+02  0.28248201067E+02  0.12700000000E+01 0. -1.
         25    2    1    2    0    0  0.00000000000E+00  0.00000000000E+00  0.11010006472E+03  0.16657373390E+03  0.12499913830E+03 0.  0.
    9000005    1    3    3    0    0  0.12620765046E+01  0.61886748614E+02  0.43614992725E+02  0.75728660898E+02  0.10000000000E+01 0.  0.
    9000005    1    3    3    0    0 -0.12620765046E+01 -0.61886748614E+02  0.66485071996E+02  0.90845073005E+02  0.10000000000E+01 0.  0.
<mgrwt>
<rscale>  0 0.12499914E+03</rscale>
<asrwt>0</asrwt>
<pdfrwt beam="1">  1        4 0.21282599E-01 0.12499914E+03</pdfrwt>
<pdfrwt beam="2">  1       -4 0.43441285E-02 0.12499914E+03</pdfrwt>
<totfact> 0.96092040E+03</totfact>
</mgrwt>
</event>
<event>
 5    1  0.3217527E-002  0.1250059E+03  0.7818608E-02  0.1235060E+00
         -4   -1    0    0    0  501 -0.00000000000E+00  0.00000000000E+00  0.38423142382E+03  0.38423352268E+03  0.12700000000E+01 0.  1.
          4   -1    0    0  501    0  0.00000000000E+00 -0.00000000000E+00 -0.10125565160E+02  0.10204899304E+02  0.12700000000E+01 0.  1.
         25    2    1    2    0    0  0.00000000000E+00  0.00000000000E+00  0.37410585866E+03  0.39443842198E+03  0.12500590087E+03 0.  0.
    9000005    1    3    3    0    0 -0.17464676128E+02  0.47769276089E+02  0.72469523119E+02  0.88542365179E+02  0.10000000000E+01 0.  0.
    9000005    1    3    3    0    0  0.17464676128E+02 -0.47769276089E+02  0.30163633554E+03  0.30589605680E+03  0.10000000000E+01 0.  0.
<mgrwt>
<rscale>  0 0.12500590E+03</rscale>
<asrwt>0</asrwt>
<pdfrwt beam="2">  1        4 0.15640437E-02 0.12500590E+03</pdfrwt>
<pdfrwt beam="1">  1       -4 0.59118777E-01 0.12500590E+03</pdfrwt>
<totfact> 0.65088844E+03</totfact>
</mgrwt>
</event>
<event>
 5    1  0.3217527E-002  0.1249928E+03  0.7818608E-02  0.1235080E+00
          4   -1    0    0  501    0  0.00000000000E+00  0.00000000000E+00  0.10044374857E+03  0.10045177712E+03  0.12700000000E+01 0. -1.
         -4   -1    0    0    0  501 -0.00000000000E+00 -0.00000000000E+00 -0.38865505323E+02  0.38886249550E+02  0.12700000000E+01 0. -1.
         25    2    1    2    0    0  0.00000000000E+00  0.00000000000E+00  0.61578243246E+02  0.13933802667E+03  0.12499282233E+03 0.  0.
    9000005    1    3    3    0    0  0.40297514329E+02  0.38399238326E+02 -0.86735667744E+00  0.55678932037E+02  0.10000000000E+01 0.  0.
    9000005    1    3    3    0    0 -0.40297514329E+02 -0.38399238326E+02  0.62445599923E+02  0.83659094634E+02  0.10000000000E+01 0.  0.
<mgrwt>
<rscale>  0 0.12499282E+03</rscale>
<asrwt>0</asrwt>
<pdfrwt beam="1">  1        4 0.15455097E-01 0.12499282E+03</pdfrwt>
<pdfrwt beam="2">  1       -4 0.59815220E-02 0.12499282E+03</pdfrwt>
<totfact> 0.10148965E+04</totfact>
</mgrwt>
</event>
<event>
 5    1  0.3217527E-002  0.1250048E+03  0.7818608E-02  0.1235062E+00
          4   -1    0    0  501    0  0.00000000000E+00  0.00000000000E+00  0.23591786468E+02  0.23625945246E+02  0.12700000000E+01 0.  1.
         -4   -1    0    0    0  501 -0.00000000000E+00 -0.00000000000E+00 -0.16543289472E+03  0.16543776944E+03  0.12700000000E+01 0.  1.
         25    2    1    2    0    0  0.00000000000E+00  0.00000000000E+00 -0.14184110826E+03  0.18906371468E+03  0.12500475279E+03 0.  0.
    9000005    1    3    3    0    0 -0.20541047183E+02 -0.31699895009E+02 -0.14622076510E+03  0.15102426993E+03  0.10000000000E+01 0.  0.
    9000005    1    3    3    0    0  0.20541047183E+02  0.31699895009E+02  0.43796568420E+01  0.38039444751E+02  0.10000000000E+01 0.  0.
<mgrwt>
<rscale>  0 0.12500475E+03</rscale>
<asrwt>0</asrwt>
<pdfrwt beam="1">  1        4 0.36325083E-02 0.12500475E+03</pdfrwt>
<pdfrwt beam="2">  1       -4 0.25454216E-01 0.12500475E+03</pdfrwt>
<totfact> 0.92000685E+03</totfact>
</mgrwt>
</event>
<event>
 5    1  0.3217527E-002  0.1250029E+03  0.7818608E-02  0.1235065E+00
          4   -1    0    0  501    0  0.00000000000E+00  0.00000000000E+00  0.22792352639E+02  0.22827707700E+02  0.12700000000E+01 0.  1.
         -4   -1    0    0    0  501 -0.00000000000E+00 -0.00000000000E+00 -0.17122176934E+03  0.17122647924E+03  0.12700000000E+01 0.  1.
         25    2    1    2    0    0  0.00000000000E+00  0.00000000000E+00 -0.14842941670E+03  0.19405418694E+03  0.12500294288E+03 0.  0.
    9000005    1    3    3    0    0  0.48889421560E+02 -0.19302797048E+02 -0.21738629991E+02  0.56888852583E+02  0.10000000000E+01 0.  0.
    9000005    1    3    3    0    0 -0.48889421560E+02  0.19302797048E+02 -0.12669078671E+03  0.13716533436E+03  0.10000000000E+01 0.  0.
<mgrwt>
<rscale>  0 0.12500294E+03</rscale>
<asrwt>0</asrwt>
<pdfrwt beam="1">  1        4 0.35095978E-02 0.12500294E+03</pdfrwt>
<pdfrwt beam="2">  1       -4 0.26344892E-01 0.12500294E+03</pdfrwt>
<totfact> 0.91140640E+03</totfact>
</mgrwt>
</event>
<event>
 5    1  0.3217527E-002  0.1250027E+03  0.7818608E-02  0.1235065E+00
         -4   -1    0    0    0  501 -0.00000000000E+00  0.00000000000E+00  0.33554978738E+02  0.33579003829E+02  0.12700000000E+01 0. -1.
          4   -1    0    0  501    0  0.00000000000E+00 -0.00000000000E+00 -0.11634924907E+03  0.11635618015E+03  0.12700000000E+01 0. -1.
         25    2    1    2    0    0  0.00000000000E+00  0.00000000000E+00 -0.82794270333E+02  0.14993518398E+03  0.12500267275E+03 0.  0.
    9000005    1    3    3    0    0  0.43412492927E+02  0.43062377454E+02 -0.25924426776E+02  0.66423556045E+02  0.10000000000E+01 0.  0.
    9000005    1    3    3    0    0 -0.43412492927E+02 -0.43062377454E+02 -0.56869843557E+02  0.83511627934E+02  0.10000000000E+01 0.  0.
<mgrwt>
<rscale>  0 0.12500267E+03</rscale>
<asrwt>0</asrwt>
<pdfrwt beam="2">  1        4 0.17902266E-01 0.12500267E+03</pdfrwt>
<pdfrwt beam="1">  1       -4 0.51646857E-02 0.12500267E+03</pdfrwt>
<totfact> 0.99310646E+03</totfact>
</mgrwt>
</event>
<event>
 5    1  0.3217527E-002  0.1249806E+03  0.7818608E-02  0.1235100E+00
          4   -1    0    0  501    0  0.00000000000E+00  0.00000000000E+00  0.15125958210E+03  0.15126491357E+03  0.12700000000E+01 0.  1.
         -4   -1    0    0    0  501 -0.00000000000E+00 -0.00000000000E+00 -0.25795405894E+02  0.25826650290E+02  0.12700000000E+01 0.  1.
         25    2    1    2    0    0  0.00000000000E+00  0.00000000000E+00  0.12546417620E+03  0.17709156386E+03  0.12498064842E+03 0.  0.
    9000005    1    3    3    0    0 -0.18013476031E+02  0.29327437607E+02  0.13662387585E+03  0.14089594518E+03  0.10000000000E+01 0.  0.
    9000005    1    3    3    0    0  0.18013476031E+02 -0.29327437607E+02 -0.11159699647E+02  0.36195618678E+02  0.10000000000E+01 0.  0.
<mgrwt>
<rscale>  0 0.12498065E+03</rscale>
<asrwt>0</asrwt>
<pdfrwt beam="1">  1        4 0.23273519E-01 0.12498065E+03</pdfrwt>
<pdfrwt beam="2">  1       -4 0.39713375E-02 0.12498065E+03</pdfrwt>
<totfact> 0.94184038E+03</totfact>
</mgrwt>
</event>
<event>
 5    1  0.3217527E-002  0.1250002E+03  0.7818608E-02  0.1235069E+00
         -4   -1    0    0    0  501 -0.00000000000E+00  0.00000000000E+00  0.15407714191E+02  0.15459966255E+02  0.12700000000E+01 0.  1.
          4   -1    0    0  501    0  0.00000000000E+00 -0.00000000000E+00 -0.25304339566E+03  0.25304658264E+03  0.12700000000E+01 0.  1.
         25    2    1    2    0    0  0.00000000000E+00  0.00000000000E+00 -0.23763568147E+03  0.26850654889E+03  0.12500019877E+03 0.  0.
    9000005    1    3    3    0    0 -0.29688901495E+02 -0.39378901932E+02 -0.20126301715E+03  0.20721952336E+03  0.10000000000E+01 0.  0.
    9000005    1    3    3    0    0  0.29688901495E+02  0.39378901932E+02 -0.36372664316E+02  0.61287025534E+02  0.10000000000E+01 0.  0.
<mgrwt>
<rscale>  0 0.12500020E+03</rscale>
<asrwt>0</asrwt>
<pdfrwt beam="2">  1        4 0.38934015E-01 0.12500020E+03</pdfrwt>
<pdfrwt beam="1">  1       -4 0.23746823E-02 0.12500020E+03</pdfrwt>
<totfact> 0.79726561E+03</totfact>
</mgrwt>
</event>
<event>
 5    1  0.3217527E-002  0.1250076E+03  0.7818608E-02  0.1235057E+00
          4   -1    0    0  501    0  0.00000000000E+00  0.00000000000E+00  0.12735076408E+02  0.12798244845E+02  0.12700000000E+01 0. -1.
         -4   -1    0    0    0  501 -0.00000000000E+00 -0.00000000000E+00 -0.30594522524E+03  0.30594786116E+03  0.12700000000E+01 0. -1.
         25    2    1    2    0    0  0.00000000000E+00  0.00000000000E+00 -0.29321014883E+03  0.31874610600E+03  0.12500755463E+03 0.  0.
    9000005    1    3    3    0    0  0.22866080815E+02  0.56344496911E+02 -0.18339336067E+03  0.19321409038E+03  0.10000000000E+01 0.  0.
    9000005    1    3    3    0    0 -0.22866080815E+02 -0.56344496911E+02 -0.10981678816E+03  0.12553201562E+03  0.10000000000E+01 0.  0.
<mgrwt>
<rscale>  0 0.12500755E+03</rscale>
<asrwt>0</asrwt>
<pdfrwt beam="1">  1        4 0.19643046E-02 0.12500755E+03</pdfrwt>
<pdfrwt beam="2">  1       -4 0.47073553E-01 0.12500755E+03</pdfrwt>
<totfact> 0.73293234E+03</totfact>
</mgrwt>
</event>
<event>
 5    1  0.3217527E-002  0.1249988E+03  0.7818608E-02  0.1235071E+00
          4   -1    0    0  501    0  0.00000000000E+00  0.00000000000E+00  0.73980561963E+03  0.73980670971E+03  0.12700000000E+01 0.  1.
         -4   -1    0    0    0  501 -0.00000000000E+00 -0.00000000000E+00 -0.52025264521E+01  0.53552947150E+01  0.12700000000E+01 0.  1.
         25    2    1    2    0    0  0.00000000000E+00  0.00000000000E+00  0.73460309318E+03  0.74516200443E+03  0.12499883334E+03 0.  0.
    9000005    1    3    3    0    0  0.54107687831E+02 -0.31184629986E+02  0.35389969838E+03  0.35936905757E+03  0.10000000000E+01 0.  0.
    9000005    1    3    3    0    0 -0.54107687831E+02  0.31184629986E+02  0.38070339480E+03  0.38579294685E+03  0.10000000000E+01 0.  0.
<mgrwt>
<rscale>  0 0.12499883E+03</rscale>
<asrwt>0</asrwt>
<pdfrwt beam="1">  1        4 0.11382813E+00 0.12499883E+03</pdfrwt>
<pdfrwt beam="2">  1       -4 0.81222360E-03 0.12499883E+03</pdfrwt>
<totfact> 0.40807637E+03</totfact>
</mgrwt>
</event>
<event>
 5    1  0.3217527E-002  0.1249975E+03  0.7818608E-02  0.1235073E+00
          4   -1    0    0  501    0  0.00000000000E+00  0.00000000000E+00  0.66193177677E+02  0.66205359836E+02  0.12700000000E+01 0. -1.
         -4   -1    0    0    0  501 -0.00000000000E+00 -0.00000000000E+00 -0.58986107143E+02  0.58999777423E+02  0.12700000000E+01 0. -1.
         25    2    1    2    0    0  0.00000000000E+00  0.00000000000E+00  0.72070705338E+01  0.12520513726E+03  0.12499753810E+03 0.  0.
    9000005    1    3    3    0    0  0.36938241214E+02 -0.41232465994E+02  0.32643861319E+02  0.64274190759E+02  0.10000000000E+01 0.  0.
    9000005    1    3    3    0    0 -0.36938241214E+02  0.41232465994E+02 -0.25436790785E+02  0.60930946500E+02  0.10000000000E+01 0.  0.
<mgrwt>
<rscale>  0 0.12499754E+03</rscale>
<asrwt>0</asrwt>
<pdfrwt beam="1">  1        4 0.10185554E-01 0.12499754E+03</pdfrwt>
<pdfrwt beam="2">  1       -4 0.90767743E-02 0.12499754E+03</pdfrwt>
<totfact> 0.10448990E+04</totfact>
</mgrwt>
</event>
<event>
 5    1  0.3217527E-002  0.1250000E+03  0.7818608E-02  0.1235069E+00
         -4   -1    0    0    0  501 -0.00000000000E+00  0.00000000000E+00  0.18760830715E+03  0.18761260569E+03  0.12700000000E+01 0. -1.
          4   -1    0    0  501    0  0.00000000000E+00 -0.00000000000E+00 -0.20797400328E+02  0.20836140727E+02  0.12700000000E+01 0. -1.
         25    2    1    2    0    0  0.00000000000E+00  0.00000000000E+00  0.16681090683E+03  0.20844874642E+03  0.12500000498E+03 0.  0.
    9000005    1    3    3    0    0  0.18159371764E+02  0.52647251248E+02  0.13068256731E+03  0.14205783768E+03  0.10000000000E+01 0.  0.
    9000005    1    3    3    0    0 -0.18159371764E+02 -0.52647251248E+02  0.36128339514E+02  0.66390908736E+02  0.10000000000E+01 0.  0.
<mgrwt>
<rscale>  0 0.12500000E+03</rscale>
<asrwt>0</asrwt>
<pdfrwt beam="2">  1        4 0.32029107E-02 0.12500000E+03</pdfrwt>
<pdfrwt beam="1">  1       -4 0.28866128E-01 0.12500000E+03</pdfrwt>
<totfact> 0.88729838E+03</totfact>
</mgrwt>
</event>
<event>
 5    1  0.3217527E-002  0.1249972E+03  0.7818608E-02  0.1235074E+00
         -4   -1    0    0    0  501 -0.00000000000E+00  0.00000000000E+00  0.13334919312E+02  0.13395259350E+02  0.12700000000E+01 0.  1.
          4   -1    0    0  501    0  0.00000000000E+00 -0.00000000000E+00 -0.29219799658E+03  0.29220075651E+03  0.12700000000E+01 0.  1.
         25    2    1    2    0    0  0.00000000000E+00  0.00000000000E+00 -0.27886307727E+03  0.30559601586E+03  0.12499723616E+03 0.  0.
    9000005    1    3    3    0    0  0.40050449584E+02 -0.36870048925E+02 -0.21445365675E+03  0.22125733867E+03  0.10000000000E+01 0.  0.
    9000005    1    3    3    0    0 -0.40050449584E+02  0.36870048925E+02 -0.64409420516E+02  0.84338677194E+02  0.10000000000E+01 0.  0.
<mgrwt>
<rscale>  0 0.12499724E+03</rscale>
<asrwt>0</asrwt>
<pdfrwt beam="2">  1        4 0.44958387E-01 0.12499724E+03</pdfrwt>
<pdfrwt beam="1">  1       -4 0.20563801E-02 0.12499724E+03</pdfrwt>
<totfact> 0.74906800E+03</totfact>
</mgrwt>
</event>
<event>
 5    1  0.3217527E-002  0.1250019E+03  0.7818608E-02  0.1235066E+00
         -4   -1    0    0    0  501 -0.00000000000E+00  0.00000000000E+00  0.21093224700E+03  0.21093607023E+03  0.12700000000E+01 0. -1.
          4   -1    0    0  501    0  0.00000000000E+00 -0.00000000000E+00 -0.18493763502E+02  0.18537318805E+02  0.12700000000E+01 0. -1.
         25    2    1    2    0    0  0.00000000000E+00  0.00000000000E+00  0.19243848349E+03  0.22947338903E+03  0.12500186536E+03 0.  0.
    9000005    1    3    3    0    0 -0.61789469183E+02  0.20414746433E+01  0.11297003017E+03  0.12878405894E+03  0.10000000000E+01 0.  0.
    9000005    1    3    3    0    0  0.61789469183E+02 -0.20414746433E+01  0.79468453329E+02  0.10068933010E+03  0.10000000000E+01 0.  0.
<mgrwt>
<rscale>  0 0.12500187E+03</rscale>
<asrwt>0</asrwt>
<pdfrwt beam="2">  1        4 0.28488391E-02 0.12500187E+03</pdfrwt>
<pdfrwt beam="1">  1       -4 0.32454757E-01 0.12500187E+03</pdfrwt>
<totfact> 0.85386971E+03</totfact>
</mgrwt>
</event>
<event>
 5    1  0.3217527E-002  0.1249957E+03  0.7818608E-02  0.1235076E+00
         -4   -1    0    0    0  501 -0.00000000000E+00  0.00000000000E+00  0.63055291227E+03  0.63055419122E+03  0.12700000000E+01 0. -1.
          4   -1    0    0  501    0  0.00000000000E+00 -0.00000000000E+00 -0.61281399214E+01  0.62583543281E+01  0.12700000000E+01 0. -1.
         25    2    1    2    0    0  0.00000000000E+00  0.00000000000E+00  0.62442477235E+03  0.63681254555E+03  0.12499568733E+03 0.  0.
    9000005    1    3    3    0    0 -0.18863698585E+02  0.43522601567E+00  0.61571793770E+03  0.61600779812E+03  0.10000000000E+01 0.  0.
    9000005    1    3    3    0    0  0.18863698585E+02 -0.43522601567E+00  0.87068346495E+01  0.20804747429E+02  0.10000000000E+01 0.  0.
<mgrwt>
<rscale>  0 0.12499569E+03</rscale>
<asrwt>0</asrwt>
<pdfrwt beam="2">  1        4 0.95290617E-03 0.12499569E+03</pdfrwt>
<pdfrwt beam="1">  1       -4 0.97018200E-01 0.12499569E+03</pdfrwt>
<totfact> 0.46627812E+03</totfact>
</mgrwt>
</event>
<event>
 5    1  0.3217527E-002  0.1250085E+03  0.7818608E-02  0.1235056E+00
          4   -1    0    0  501    0  0.00000000000E+00  0.00000000000E+00  0.77573285373E+01  0.78606008699E+01  0.12700000000E+01 0.  1.
         -4   -1    0    0    0  501 -0.00000000000E+00 -0.00000000000E+00 -0.50019037158E+03  0.50019198387E+03  0.12700000000E+01 0.  1.
         25    2    1    2    0    0  0.00000000000E+00  0.00000000000E+00 -0.49243304305E+03  0.50805258474E+03  0.12500850761E+03 0.  0.
    9000005    1    3    3    0    0  0.55515760934E+02 -0.83809769433E+01 -0.35778014527E+03  0.36216000999E+03  0.10000000000E+01 0.  0.
    9000005    1    3    3    0    0 -0.55515760934E+02  0.83809769433E+01 -0.13465289777E+03  0.14589257474E+03  0.10000000000E+01 0.  0.
<mgrwt>
<rscale>  0 0.12500851E+03</rscale>
<asrwt>0</asrwt>
<pdfrwt beam="1">  1        4 0.12015036E-02 0.12500851E+03</pdfrwt>
<pdfrwt beam="2">  1       -4 0.76960408E-01 0.12500851E+03</pdfrwt>
<totfact> 0.55234634E+03</totfact>
</mgrwt>
</event>
<event>
 5    1  0.3217527E-002  0.1249999E+03  0.7818608E-02  0.1235069E+00
          4   -1    0    0  501    0  0.00000000000E+00  0.00000000000E+00  0.13481539923E+03  0.13482138098E+03  0.12700000000E+01 0.  1.
         -4   -1    0    0    0  501 -0.00000000000E+00 -0.00000000000E+00 -0.28954198406E+02  0.28982037633E+02  0.12700000000E+01 0.  1.
         25    2    1    2    0    0  0.00000000000E+00  0.00000000000E+00  0.10586120082E+03  0.16380341861E+03  0.12499986444E+03 0.  0.
    9000005    1    3    3    0    0  0.42983558212E+01 -0.39329326440E+02 -0.10459076835E+02  0.40934875952E+02  0.10000000000E+01 0.  0.
    9000005    1    3    3    0    0 -0.42983558212E+01  0.39329326440E+02  0.11632027766E+03  0.12286854266E+03  0.10000000000E+01 0.  0.
<mgrwt>
<rscale>  0 0.12499986E+03</rscale>
<asrwt>0</asrwt>
<pdfrwt beam="1">  1        4 0.20743433E-01 0.12499986E+03</pdfrwt>
<pdfrwt beam="2">  1       -4 0.44570936E-02 0.12499986E+03</pdfrwt>
<totfact> 0.96614781E+03</totfact>
</mgrwt>
</event>
<event>
 5    1  0.3217527E-002  0.1249985E+03  0.7818608E-02  0.1235072E+00
          4   -1    0    0  501    0  0.00000000000E+00  0.00000000000E+00  0.22307651197E+03  0.22308012707E+03  0.12700000000E+01 0.  1.
         -4   -1    0    0    0  501 -0.00000000000E+00 -0.00000000000E+00 -0.17483592183E+02  0.17529657602E+02  0.12700000000E+01 0.  1.
         25    2    1    2    0    0  0.00000000000E+00  0.00000000000E+00  0.20559291979E+03  0.24060978467E+03  0.12499847924E+03 0.  0.
    9000005    1    3    3    0    0 -0.46679273837E+02 -0.20007458380E+02  0.32705136362E+02  0.60414227970E+02  0.10000000000E+01 0.  0.
    9000005    1    3    3    0    0  0.46679273837E+02  0.20007458380E+02  0.17288778342E+03  0.18019555670E+03  0.10000000000E+01 0.  0.
<mgrwt>
<rscale>  0 0.12499848E+03</rscale>
<asrwt>0</asrwt>
<pdfrwt beam="1">  1        4 0.34323284E-01 0.12499848E+03</pdfrwt>
<pdfrwt beam="2">  1       -4 0.26936051E-02 0.12499848E+03</pdfrwt>
<totfact> 0.83709473E+03</totfact>
</mgrwt>
</event>
<event>
 5    1  0.3217527E-002  0.1249993E+03  0.7818608E-02  0.1235070E+00
         -4   -1    0    0    0  501 -0.00000000000E+00  0.00000000000E+00  0.28448279764E+03  0.28448563242E+03  0.12700000000E+01 0. -1.
          4   -1    0    0  501    0  0.00000000000E+00 -0.00000000000E+00 -0.13698626788E+02  0.13757371692E+02  0.12700000000E+01 0. -1.
         25    2    1    2    0    0  0.00000000000E+00  0.00000000000E+00  0.27078417085E+03  0.29824300411E+03  0.12499928927E+03 0.  0.
    9000005    1    3    3    0    0 -0.52602226897E+02 -0.12546989452E+02  0.60669913389E+02  0.81278900149E+02  0.10000000000E+01 0.  0.
    9000005    1    3    3    0    0  0.52602226897E+02  0.12546989452E+02  0.21011425746E+03  0.21696410396E+03  0.10000000000E+01 0.  0.
<mgrwt>
<rscale>  0 0.12499929E+03</rscale>
<asrwt>0</asrwt>
<pdfrwt beam="2">  1        4 0.21122181E-02 0.12499929E+03</pdfrwt>
<pdfrwt beam="1">  1       -4 0.43771317E-01 0.12499929E+03</pdfrwt>
<totfact> 0.75820961E+03</totfact>
</mgrwt>
</event>
<event>
 5    1  0.3217527E-002  0.1249924E+03  0.7818608E-02  0.1235081E+00
          4   -1    0    0  501    0  0.00000000000E+00  0.00000000000E+00  0.30537289516E+03  0.30537553602E+03  0.12700000000E+01 0. -1.
         -4   -1    0    0    0  501 -0.00000000000E+00 -0.00000000000E+00 -0.12755961274E+02  0.12819026797E+02  0.12700000000E+01 0. -1.
         25    2    1    2    0    0  0.00000000000E+00  0.00000000000E+00  0.29261693389E+03  0.31819456282E+03  0.12499243901E+03 0.  0.
    9000005    1    3    3    0    0  0.53175261004E+02  0.10380727950E+02  0.67046898851E+02  0.86207044614E+02  0.10000000000E+01 0.  0.
    9000005    1    3    3    0    0 -0.53175261004E+02 -0.10380727950E+02  0.22557003504E+03  0.23198751820E+03  0.10000000000E+01 0.  0.
<mgrwt>
<rscale>  0 0.12499244E+03</rscale>
<asrwt>0</asrwt>
<pdfrwt beam="1">  1        4 0.46985502E-01 0.12499244E+03</pdfrwt>
<pdfrwt beam="2">  1       -4 0.19675098E-02 0.12499244E+03</pdfrwt>
<totfact> 0.73383670E+03</totfact>
</mgrwt>
</event>
<event>
 5    1  0.3217527E-002  0.1249985E+03  0.7818608E-02  0.1235072E+00
         -4   -1    0    0    0  501 -0.00000000000E+00  0.00000000000E+00  0.36041088915E+03  0.36041312673E+03  0.12700000000E+01 0. -1.
          4   -1    0    0  501    0  0.00000000000E+00 -0.00000000000E+00 -0.10798583154E+02  0.10873007778E+02  0.12700000000E+01 0. -1.
         25    2    1    2    0    0  0.00000000000E+00  0.00000000000E+00  0.34961230600E+03  0.37128613451E+03  0.12499851668E+03 0.  0.
    9000005    1    3    3    0    0 -0.19719187995E+02  0.72482524416E+01  0.34962112711E+03  0.35025321706E+03  0.10000000000E+01 0.  0.
    9000005    1    3    3    0    0  0.19719187995E+02 -0.72482524416E+01 -0.88211106571E-02  0.21032917450E+02  0.10000000000E+01 0.  0.
<mgrwt>
<rscale>  0 0.12499852E+03</rscale>
<asrwt>0</asrwt>
<pdfrwt beam="2">  1        4 0.16672177E-02 0.12499852E+03</pdfrwt>
<pdfrwt beam="1">  1       -4 0.55453722E-01 0.12499852E+03</pdfrwt>
<totfact> 0.67446810E+03</totfact>
</mgrwt>
</event>
<event>
 5    1  0.3217527E-002  0.1249945E+03  0.7818608E-02  0.1235078E+00
         -4   -1    0    0    0  501 -0.00000000000E+00  0.00000000000E+00  0.12922404001E+03  0.12923028057E+03  0.12700000000E+01 0.  1.
          4   -1    0    0  501    0  0.00000000000E+00 -0.00000000000E+00 -0.30205552324E+02  0.30232239269E+02  0.12700000000E+01 0.  1.
         25    2    1    2    0    0  0.00000000000E+00  0.00000000000E+00  0.99018487687E+02  0.15946251984E+03  0.12499453720E+03 0.  0.
    9000005    1    3    3    0    0  0.60987192363E+02 -0.10367743712E+02  0.60775031104E+02  0.86726767192E+02  0.10000000000E+01 0.  0.
    9000005    1    3    3    0    0 -0.60987192363E+02  0.10367743712E+02  0.38243456583E+02  0.72735752649E+02  0.10000000000E+01 0.  0.
<mgrwt>
<rscale>  0 0.12499454E+03</rscale>
<asrwt>0</asrwt>
<pdfrwt beam="2">  1        4 0.46495408E-02 0.12499454E+03</pdfrwt>
<pdfrwt beam="1">  1       -4 0.19883155E-01 0.12499454E+03</pdfrwt>
<totfact> 0.97458473E+03</totfact>
</mgrwt>
</event>
<event>
 5    1  0.3217527E-002  0.1249990E+03  0.7818608E-02  0.1235071E+00
          4   -1    0    0  501    0  0.00000000000E+00  0.00000000000E+00  0.10075053096E+02  0.10154781872E+02  0.12700000000E+01 0. -1.
         -4   -1    0    0    0  501 -0.00000000000E+00 -0.00000000000E+00 -0.38610001903E+03  0.38610210774E+03  0.12700000000E+01 0. -1.
         25    2    1    2    0    0  0.00000000000E+00  0.00000000000E+00 -0.37602496594E+03  0.39625688961E+03  0.12499899021E+03 0.  0.
    9000005    1    3    3    0    0 -0.41004429982E+02  0.22564699293E+02 -0.56744421700E+02  0.73562615005E+02  0.10000000000E+01 0.  0.
    9000005    1    3    3    0    0  0.41004429982E+02 -0.22564699293E+02 -0.31928054424E+03  0.32269427460E+03  0.10000000000E+01 0.  0.
<mgrwt>
<rscale>  0 0.12499899E+03</rscale>
<asrwt>0</asrwt>
<pdfrwt beam="1">  1        4 0.15563021E-02 0.12499899E+03</pdfrwt>
<pdfrwt beam="2">  1       -4 0.59406285E-01 0.12499899E+03</pdfrwt>
<totfact> 0.64919928E+03</totfact>
</mgrwt>
</event>
<event>
 4    1  0.3217527E-002  0.1249030E+03  0.7818608E-02  0.1235221E+00
         -4   -1    0    0    0  501 -0.00000000000E+00  0.00000000000E+00  0.92870069995E+02  0.92878753226E+02  0.12700000000E+01 0.  1.
          4   -1    0    0  501    0  0.00000000000E+00 -0.00000000000E+00 -0.41975916444E+02  0.41995124257E+02  0.12700000000E+01 0.  1.
    9000005    1    1    2    0    0  0.38317578623E+02 -0.43061195384E+02  0.51378355752E+02  0.77222009940E+02  0.10000000000E+01 0.  0.
    9000005    1    1    2    0    0 -0.38317578623E+02  0.43061195384E+02 -0.48420220105E+00  0.57651867543E+02  0.10000000000E+01 0.  0.
<mgrwt>
<rscale>  0 0.12490295E+03</rscale>
<asrwt>0</asrwt>
<pdfrwt beam="2">  1        4 0.64599788E-02 0.12490295E+03</pdfrwt>
<pdfrwt beam="1">  1       -4 0.14289848E-01 0.12490295E+03</pdfrwt>
<totfact> 0.10263176E+04</totfact>
</mgrwt>
</event>
<event>
 5    1  0.3217527E-002  0.1250025E+03  0.7818608E-02  0.1235065E+00
          4   -1    0    0  501    0  0.00000000000E+00  0.00000000000E+00  0.10949298816E+03  0.10950035322E+03  0.12700000000E+01 0. -1.
         -4   -1    0    0    0  501 -0.00000000000E+00 -0.00000000000E+00 -0.35657341459E+02  0.35679950952E+02  0.12700000000E+01 0. -1.
         25    2    1    2    0    0  0.00000000000E+00  0.00000000000E+00  0.73835646697E+02  0.14518030417E+03  0.12500247196E+03 0.  0.
    9000005    1    3    3    0    0 -0.43744422510E+02  0.17802726612E+02  0.84449444224E+02  0.96763733936E+02  0.10000000000E+01 0.  0.
    9000005    1    3    3    0    0  0.43744422510E+02 -0.17802726612E+02 -0.10613797527E+02  0.48416570237E+02  0.10000000000E+01 0.  0.
<mgrwt>
<rscale>  0 0.12500247E+03</rscale>
<asrwt>0</asrwt>
<pdfrwt beam="1">  1        4 0.16847381E-01 0.12500247E+03</pdfrwt>
<pdfrwt beam="2">  1       -4 0.54880507E-02 0.12500247E+03</pdfrwt>
<totfact> 0.10026768E+04</totfact>
</mgrwt>
</event>
<event>
 5    1  0.3217527E-002  0.1250002E+03  0.7818608E-02  0.1235069E+00
         -4   -1    0    0    0  501 -0.00000000000E+00  0.00000000000E+00  0.62266411196E+02  0.62279361455E+02  0.12700000000E+01 0. -1.
          4   -1    0    0  501    0  0.00000000000E+00 -0.00000000000E+00 -0.62708756336E+02  0.62721615263E+02  0.12700000000E+01 0. -1.
         25    2    1    2    0    0  0.00000000000E+00  0.00000000000E+00 -0.44234513976E+00  0.12500097672E+03  0.12500019404E+03 0.  0.
    9000005    1    3    3    0    0  0.26453904074E+02  0.31396926137E+01 -0.56751124234E+02  0.62700532791E+02  0.10000000000E+01 0.  0.
    9000005    1    3    3    0    0 -0.26453904074E+02 -0.31396926137E+01  0.56308779094E+02  0.62300443927E+02  0.10000000000E+01 0.  0.
<mgrwt>
<rscale>  0 0.12500019E+03</rscale>
<asrwt>0</asrwt>
<pdfrwt beam="2">  1        4 0.96494863E-02 0.12500019E+03</pdfrwt>
<pdfrwt beam="1">  1       -4 0.95814332E-02 0.12500019E+03</pdfrwt>
<totfact> 0.10452795E+04</totfact>
</mgrwt>
</event>
<event>
 5    1  0.3217527E-002  0.1250064E+03  0.7818608E-02  0.1235059E+00
         -4   -1    0    0    0  501 -0.00000000000E+00  0.00000000000E+00  0.10837345602E+03  0.10838089716E+03  0.12700000000E+01 0. -1.
          4   -1    0    0  501    0  0.00000000000E+00 -0.00000000000E+00 -0.36028146800E+02  0.36050523739E+02  0.12700000000E+01 0. -1.
         25    2    1    2    0    0  0.00000000000E+00  0.00000000000E+00  0.72345309222E+02  0.14443142090E+03  0.12500636615E+03 0.  0.
    9000005    1    3    3    0    0  0.22206705051E+02  0.54226483906E+02  0.61274167816E+02  0.84788990721E+02  0.10000000000E+01 0.  0.
    9000005    1    3    3    0    0 -0.22206705051E+02 -0.54226483906E+02  0.11071141407E+02  0.59642430182E+02  0.10000000000E+01 0.  0.
<mgrwt>
<rscale>  0 0.12500637E+03</rscale>
<asrwt>0</asrwt>
<pdfrwt beam="2">  1        4 0.55450857E-02 0.12500637E+03</pdfrwt>
<pdfrwt beam="1">  1       -4 0.16675133E-01 0.12500637E+03</pdfrwt>
<totfact> 0.10041114E+04</totfact>
</mgrwt>
</event>
<event>
 5    1  0.3217527E-002  0.1249999E+03  0.7818608E-02  0.1235069E+00
          4   -1    0    0  501    0  0.00000000000E+00  0.00000000000E+00  0.72336425817E+03  0.72336537303E+03  0.12700000000E+01 0.  1.
         -4   -1    0    0    0  501 -0.00000000000E+00 -0.00000000000E+00 -0.53243030109E+01  0.54736735883E+01  0.12700000000E+01 0.  1.
         25    2    1    2    0    0  0.00000000000E+00  0.00000000000E+00  0.71803995515E+03  0.72883904661E+03  0.12499991468E+03 0.  0.
    9000005    1    3    3    0    0  0.34449261978E+02 -0.36276446852E+02  0.14065887790E+03  0.14929384508E+03  0.10000000000E+01 0.  0.
    9000005    1    3    3    0    0 -0.34449261978E+02  0.36276446852E+02  0.57738107726E+03  0.57954520153E+03  0.10000000000E+01 0.  0.
<mgrwt>
<rscale>  0 0.12499991E+03</rscale>
<asrwt>0</asrwt>
<pdfrwt beam="1">  1        4 0.11129832E+00 0.12499991E+03</pdfrwt>
<pdfrwt beam="2">  1       -4 0.83069983E-03 0.12499991E+03</pdfrwt>
<totfact> 0.41607384E+03</totfact>
</mgrwt>
</event>
<event>
 5    1  0.3217527E-002  0.1250015E+03  0.7818608E-02  0.1235067E+00
          4   -1    0    0  501    0  0.00000000000E+00  0.00000000000E+00  0.40093601211E+02  0.40113710351E+02  0.12700000000E+01 0.  1.
         -4   -1    0    0    0  501 -0.00000000000E+00 -0.00000000000E+00 -0.97381870601E+02  0.97390151565E+02  0.12700000000E+01 0.  1.
         25    2    1    2    0    0  0.00000000000E+00  0.00000000000E+00 -0.57288269390E+02  0.13750386192E+03  0.12500146492E+03 0.  0.
    9000005    1    3    3    0    0  0.26591560316E+02 -0.14316038429E+02  0.31538829683E+02  0.43677887015E+02  0.10000000000E+01 0.  0.
    9000005    1    3    3    0    0 -0.26591560316E+02  0.14316038429E+02 -0.88827099073E+02  0.93825974900E+02  0.10000000000E+01 0.  0.
<mgrwt>
<rscale>  0 0.12500146E+03</rscale>
<asrwt>0</asrwt>
<pdfrwt beam="1">  1        4 0.61704302E-02 0.12500146E+03</pdfrwt>
<pdfrwt beam="2">  1       -4 0.14984010E-01 0.12500146E+03</pdfrwt>
<totfact> 0.10185225E+04</totfact>
</mgrwt>
</event>
<event>
 4    1  0.3217527E-002  0.1226755E+03  0.7818608E-02  0.1238748E+00
          4   -1    0    0  501    0  0.00000000000E+00  0.00000000000E+00  0.21472510026E+03  0.21472885596E+03  0.12700000000E+01 0. -1.
         -4   -1    0    0    0  501 -0.00000000000E+00 -0.00000000000E+00 -0.17494625428E+02  0.17540661871E+02  0.12700000000E+01 0. -1.
    9000005    1    1    2    0    0  0.94269879707E+01 -0.30166431340E+02  0.19812841474E+03  0.20063586521E+03  0.10000000000E+01 0.  0.
    9000005    1    1    2    0    0 -0.94269879707E+01  0.30166431340E+02 -0.89793990605E+00  0.31633652620E+02  0.10000000000E+01 0.  0.
<mgrwt>
<rscale>  0 0.12267546E+03</rscale>
<asrwt>0</asrwt>
<pdfrwt beam="1">  1        4 0.33038461E-01 0.12267546E+03</pdfrwt>
<pdfrwt beam="2">  1       -4 0.26953110E-02 0.12267546E+03</pdfrwt>
<totfact> 0.89522767E+03</totfact>
</mgrwt>
</event>
<event>
 5    1  0.3217527E-002  0.1249991E+03  0.7818608E-02  0.1235071E+00
         -4   -1    0    0    0  501 -0.00000000000E+00  0.00000000000E+00  0.26012044694E+02  0.26043029186E+02  0.12700000000E+01 0. -1.
          4   -1    0    0  501    0  0.00000000000E+00 -0.00000000000E+00 -0.15004571111E+03  0.15005108571E+03  0.12700000000E+01 0. -1.
         25    2    1    2    0    0  0.00000000000E+00  0.00000000000E+00 -0.12403366642E+03  0.17609411489E+03  0.12499914758E+03 0.  0.
    9000005    1    3    3    0    0 -0.61956696429E+02  0.79569039134E+01 -0.59476302067E+02  0.86257608707E+02  0.10000000000E+01 0.  0.
    9000005    1    3    3    0    0  0.61956696429E+02 -0.79569039134E+01 -0.64557364348E+02  0.89836506187E+02  0.10000000000E+01 0.  0.
<mgrwt>
<rscale>  0 0.12499915E+03</rscale>
<asrwt>0</asrwt>
<pdfrwt beam="2">  1        4 0.23086752E-01 0.12499915E+03</pdfrwt>
<pdfrwt beam="1">  1       -4 0.40046500E-02 0.12499915E+03</pdfrwt>
<totfact> 0.94326641E+03</totfact>
</mgrwt>
</event>
<event>
 5    1  0.3217527E-002  0.1250022E+03  0.7818608E-02  0.1235066E+00
          4   -1    0    0  501    0  0.00000000000E+00  0.00000000000E+00  0.71178635410E+02  0.71189964454E+02  0.12700000000E+01 0. -1.
         -4   -1    0    0    0  501 -0.00000000000E+00 -0.00000000000E+00 -0.54858402818E+02  0.54873101423E+02  0.12700000000E+01 0. -1.
         25    2    1    2    0    0  0.00000000000E+00  0.00000000000E+00  0.16320232592E+02  0.12606306588E+03  0.12500218633E+03 0.  0.
    9000005    1    3    3    0    0  0.37099844540E+01  0.28207186809E+02 -0.47953613695E+02  0.55767001343E+02  0.10000000000E+01 0.  0.
    9000005    1    3    3    0    0 -0.37099844540E+01 -0.28207186809E+02  0.64273846287E+02  0.70296064534E+02  0.10000000000E+01 0.  0.
<mgrwt>
<rscale>  0 0.12500219E+03</rscale>
<asrwt>0</asrwt>
<pdfrwt beam="1">  1        4 0.10952561E-01 0.12500219E+03</pdfrwt>
<pdfrwt beam="2">  1       -4 0.84417565E-02 0.12500219E+03</pdfrwt>
<totfact> 0.10429061E+04</totfact>
</mgrwt>
</event>
<event>
 5    1  0.3217527E-002  0.1250055E+03  0.7818608E-02  0.1235061E+00
         -4   -1    0    0    0  501 -0.00000000000E+00  0.00000000000E+00  0.32280658143E+02  0.32305630936E+02  0.12700000000E+01 0.  1.
          4   -1    0    0  501    0  0.00000000000E+00 -0.00000000000E+00 -0.12094447815E+03  0.12095114590E+03  0.12700000000E+01 0.  1.
         25    2    1    2    0    0  0.00000000000E+00  0.00000000000E+00 -0.88663820008E+02  0.15325677684E+03  0.12500546656E+03 0.  0.
    9000005    1    3    3    0    0 -0.11384213602E+02 -0.18392921623E+02 -0.11621457175E+03  0.11821474769E+03  0.10000000000E+01 0.  0.
    9000005    1    3    3    0    0  0.11384213602E+02  0.18392921623E+02  0.27550751741E+02  0.35042029146E+02  0.10000000000E+01 0.  0.
<mgrwt>
<rscale>  0 0.12500547E+03</rscale>
<asrwt>0</asrwt>
<pdfrwt beam="2">  1        4 0.18609276E-01 0.12500547E+03</pdfrwt>
<pdfrwt beam="1">  1       -4 0.49686891E-02 0.12500547E+03</pdfrwt>
<totfact> 0.98646293E+03</totfact>
</mgrwt>
</event>
<event>
 5    1  0.3217527E-002  0.1250017E+03  0.7818608E-02  0.1235067E+00
         -4   -1    0    0    0  501 -0.00000000000E+00  0.00000000000E+00  0.49734732459E+02  0.49750944843E+02  0.12700000000E+01 0. -1.
          4   -1    0    0  501    0  0.00000000000E+00 -0.00000000000E+00 -0.78509694006E+02  0.78519965314E+02  0.12700000000E+01 0. -1.
         25    2    1    2    0    0  0.00000000000E+00  0.00000000000E+00 -0.28774961548E+02  0.12827091016E+03  0.12500171191E+03 0.  0.
    9000005    1    3    3    0    0  0.28585870224E+02  0.11582024967E+02 -0.70160222923E+02  0.76646931833E+02  0.10000000000E+01 0.  0.
    9000005    1    3    3    0    0 -0.28585870224E+02 -0.11582024967E+02  0.41385261376E+02  0.51623978323E+02  0.10000000000E+01 0.  0.
<mgrwt>
<rscale>  0 0.12500171E+03</rscale>
<asrwt>0</asrwt>
<pdfrwt beam="2">  1        4 0.12080452E-01 0.12500171E+03</pdfrwt>
<pdfrwt beam="1">  1       -4 0.76535345E-02 0.12500171E+03</pdfrwt>
<totfact> 0.10381240E+04</totfact>
</mgrwt>
</event>
<event>
 5    1  0.3217527E-002  0.1250000E+03  0.7818608E-02  0.1235069E+00
          4   -1    0    0  501    0  0.00000000000E+00  0.00000000000E+00  0.12746102026E+02  0.12809216090E+02  0.12700000000E+01 0. -1.
         -4   -1    0    0    0  501 -0.00000000000E+00 -0.00000000000E+00 -0.30564511187E+03  0.30564775037E+03  0.12700000000E+01 0. -1.
         25    2    1    2    0    0  0.00000000000E+00  0.00000000000E+00 -0.29289900984E+03  0.31845696646E+03  0.12500003809E+03 0.  0.
    9000005    1    3    3    0    0 -0.25979645488E+02 -0.49273453788E+01 -0.21966183293E+01  0.26552699378E+02  0.10000000000E+01 0.  0.
    9000005    1    3    3    0    0  0.25979645488E+02  0.49273453788E+01 -0.29070239151E+03  0.29190426708E+03  0.10000000000E+01 0.  0.
<mgrwt>
<rscale>  0 0.12500004E+03</rscale>
<asrwt>0</asrwt>
<pdfrwt beam="1">  1        4 0.19659969E-02 0.12500004E+03</pdfrwt>
<pdfrwt beam="2">  1       -4 0.47027377E-01 0.12500004E+03</pdfrwt>
<totfact> 0.73339965E+03</totfact>
</mgrwt>
</event>
<event>
 5    1  0.3217527E-002  0.1249986E+03  0.7818608E-02  0.1235071E+00
         -4   -1    0    0    0  501 -0.00000000000E+00  0.00000000000E+00  0.53959414063E+03  0.53959563518E+03  0.12700000000E+01 0. -1.
          4   -1    0    0  501    0  0.00000000000E+00 -0.00000000000E+00 -0.71818588895E+01  0.72932843842E+01  0.12700000000E+01 0. -1.
         25    2    1    2    0    0  0.00000000000E+00  0.00000000000E+00  0.53241228174E+03  0.54688891957E+03  0.12499861036E+03 0.  0.
    9000005    1    3    3    0    0  0.57384421078E+02 -0.24542251856E+02  0.27995085701E+03  0.28682534102E+03  0.10000000000E+01 0.  0.
    9000005    1    3    3    0    0 -0.57384421078E+02  0.24542251856E+02  0.25246142473E+03  0.26006357855E+03  0.10000000000E+01 0.  0.
<mgrwt>
<rscale>  0 0.12499861E+03</rscale>
<asrwt>0</asrwt>
<pdfrwt beam="2">  1        4 0.11135874E-02 0.12499861E+03</pdfrwt>
<pdfrwt beam="1">  1       -4 0.83023180E-01 0.12499861E+03</pdfrwt>
<totfact> 0.52403056E+03</totfact>
</mgrwt>
</event>
<event>
 5    1  0.3217527E-002  0.1249980E+03  0.7818608E-02  0.1235072E+00
         -4   -1    0    0    0  501 -0.00000000000E+00  0.00000000000E+00  0.11551649955E+02  0.11621252802E+02  0.12700000000E+01 0. -1.
          4   -1    0    0  501    0  0.00000000000E+00 -0.00000000000E+00 -0.33705803995E+03  0.33706043256E+03  0.12700000000E+01 0. -1.
         25    2    1    2    0    0  0.00000000000E+00  0.00000000000E+00 -0.32550639000E+03  0.34868168536E+03  0.12499803109E+03 0.  0.
    9000005    1    3    3    0    0  0.34948158212E+02 -0.21688670471E+02 -0.29398873971E+03  0.29685375400E+03  0.10000000000E+01 0.  0.
    9000005    1    3    3    0    0 -0.34948158212E+02  0.21688670471E+02 -0.31517650288E+02  0.51827931359E+02  0.10000000000E+01 0.  0.
<mgrwt>
<rscale>  0 0.12499803E+03</rscale>
<asrwt>0</asrwt>
<pdfrwt beam="2">  1        4 0.51860614E-01 0.12499803E+03</pdfrwt>
<pdfrwt beam="1">  1       -4 0.17827153E-02 0.12499803E+03</pdfrwt>
<totfact> 0.69872878E+03</totfact>
</mgrwt>
</event>
<event>
 5    1  0.3217527E-002  0.1250016E+03  0.7818608E-02  0.1235067E+00
          4   -1    0    0  501    0  0.00000000000E+00  0.00000000000E+00  0.24025962794E+01  0.27176035182E+01  0.12700000000E+01 0.  1.
         -4   -1    0    0    0  501 -0.00000000000E+00 -0.00000000000E+00 -0.15255441132E+04  0.15255446418E+04  0.12700000000E+01 0.  1.
         25    2    1    2    0    0  0.00000000000E+00  0.00000000000E+00 -0.15231415169E+04  0.15282622453E+04  0.12500163996E+03 0.  0.
    9000005    1    3    3    0    0 -0.50899002111E+02  0.27010535882E+02 -0.46584581554E+03  0.46939706147E+03  0.10000000000E+01 0.  0.
    9000005    1    3    3    0    0  0.50899002111E+02 -0.27010535882E+02 -0.10572957013E+04  0.10588651838E+04  0.10000000000E+01 0.  0.
<mgrwt>
<rscale>  0 0.12500164E+03</rscale>
<asrwt>0</asrwt>
<pdfrwt beam="1">  1        4 0.39390341E-03 0.12500164E+03</pdfrwt>
<pdfrwt beam="2">  1       -4 0.23472264E+00 0.12500164E+03</pdfrwt>
<totfact> 0.17380947E+03</totfact>
</mgrwt>
</event>
<event>
 5    1  0.3217527E-002  0.1250012E+03  0.7818608E-02  0.1235067E+00
         -4   -1    0    0    0  501 -0.00000000000E+00  0.00000000000E+00  0.11027296632E+04  0.11027303945E+04  0.12700000000E+01 0.  1.
          4   -1    0    0  501    0  0.00000000000E+00 -0.00000000000E+00 -0.34278275940E+01  0.36555303328E+01  0.12700000000E+01 0.  1.
         25    2    1    2    0    0  0.00000000000E+00  0.00000000000E+00  0.10993018356E+04  0.11063859249E+04  0.12500115579E+03 0.  0.
    9000005    1    3    3    0    0  0.23006137458E+01  0.13422775769E+02  0.10894794360E+04  0.10895650073E+04  0.10000000000E+01 0.  0.
    9000005    1    3    3    0    0 -0.23006137458E+01 -0.13422775769E+02  0.98223996529E+01  0.16820917570E+02  0.10000000000E+01 0.  0.
<mgrwt>
<rscale>  0 0.12500116E+03</rscale>
<asrwt>0</asrwt>
<pdfrwt beam="2">  1        4 0.54492934E-03 0.12500116E+03</pdfrwt>
<pdfrwt beam="1">  1       -4 0.16966848E+00 0.12500116E+03</pdfrwt>
<totfact> 0.27296519E+03</totfact>
</mgrwt>
</event>
<event>
 5    1  0.3217527E-002  0.1249927E+03  0.7818608E-02  0.1235081E+00
          4   -1    0    0  501    0  0.00000000000E+00  0.00000000000E+00  0.14180380906E+02  0.14237138148E+02  0.12700000000E+01 0.  1.
         -4   -1    0    0    0  501 -0.00000000000E+00 -0.00000000000E+00 -0.27482804892E+03  0.27483098329E+03  0.12700000000E+01 0.  1.
         25    2    1    2    0    0  0.00000000000E+00  0.00000000000E+00 -0.26064766802E+03  0.28906812143E+03  0.12499268773E+03 0.  0.
    9000005    1    3    3    0    0 -0.31731059961E+02 -0.24628906998E+02 -0.24102731764E+03  0.24435345522E+03  0.10000000000E+01 0.  0.
    9000005    1    3    3    0    0  0.31731059961E+02  0.24628906998E+02 -0.19620350373E+02  0.44714666217E+02  0.10000000000E+01 0.  0.
<mgrwt>
<rscale>  0 0.12499269E+03</rscale>
<asrwt>0</asrwt>
<pdfrwt beam="1">  1        4 0.21861889E-02 0.12499269E+03</pdfrwt>
<pdfrwt beam="2">  1       -4 0.42285826E-01 0.12499269E+03</pdfrwt>
<totfact> 0.77003409E+03</totfact>
</mgrwt>
</event>
<event>
 4    1  0.3217527E-002  0.1250639E+03  0.7818608E-02  0.1234969E+00
          4   -1    0    0  501    0  0.00000000000E+00  0.00000000000E+00  0.83605239409E+02  0.83614884779E+02  0.12700000000E+01 0.  1.
         -4   -1    0    0    0  501 -0.00000000000E+00 -0.00000000000E+00 -0.46749353091E+02  0.46766600416E+02  0.12700000000E+01 0.  1.
    9000005    1    1    2    0    0 -0.33714992374E+02 -0.68270646685E+01 -0.36002478819E+02  0.49804497828E+02  0.10000000000E+01 0.  0.
    9000005    1    1    2    0    0  0.33714992374E+02  0.68270646685E+01  0.72858365136E+02  0.80576987367E+02  0.10000000000E+01 0.  0.
<mgrwt>
<rscale>  0 0.12506388E+03</rscale>
<asrwt>0</asrwt>
<pdfrwt beam="1">  1        4 0.12864413E-01 0.12506388E+03</pdfrwt>
<pdfrwt beam="2">  1       -4 0.71942769E-02 0.12506388E+03</pdfrwt>
<totfact> 0.10321463E+04</totfact>
</mgrwt>
</event>
<event>
 5    1  0.3217527E-002  0.1250029E+03  0.7818608E-02  0.1235065E+00
         -4   -1    0    0    0  501 -0.00000000000E+00  0.00000000000E+00  0.30311857942E+02  0.30338451376E+02  0.12700000000E+01 0. -1.
          4   -1    0    0  501    0  0.00000000000E+00 -0.00000000000E+00 -0.12878841446E+03  0.12879467612E+03  0.12700000000E+01 0. -1.
         25    2    1    2    0    0  0.00000000000E+00  0.00000000000E+00 -0.98476556514E+02  0.15913312750E+03  0.12500288031E+03 0.  0.
    9000005    1    3    3    0    0  0.43797180416E+02  0.26694584511E+02 -0.94688258277E+02  0.10769243293E+03  0.10000000000E+01 0.  0.
    9000005    1    3    3    0    0 -0.43797180416E+02 -0.26694584511E+02 -0.37882982370E+01  0.51440694573E+02  0.10000000000E+01 0.  0.
<mgrwt>
<rscale>  0 0.12500288E+03</rscale>
<asrwt>0</asrwt>
<pdfrwt beam="2">  1        4 0.19816129E-01 0.12500288E+03</pdfrwt>
<pdfrwt beam="1">  1       -4 0.46658902E-02 0.12500288E+03</pdfrwt>
<totfact> 0.97503859E+03</totfact>
</mgrwt>
</event>
<event>
 5    1  0.3217527E-002  0.1249985E+03  0.7818608E-02  0.1235072E+00
         -4   -1    0    0    0  501 -0.00000000000E+00  0.00000000000E+00  0.80248188627E+02  0.80258237446E+02  0.12700000000E+01 0. -1.
          4   -1    0    0  501    0  0.00000000000E+00 -0.00000000000E+00 -0.48654564417E+02  0.48671136607E+02  0.12700000000E+01 0. -1.
         25    2    1    2    0    0  0.00000000000E+00  0.00000000000E+00  0.31593624211E+02  0.12892937405E+03  0.12499850560E+03 0.  0.
    9000005    1    3    3    0    0 -0.73482599466E+01  0.10308302150E+02  0.78916825701E+02  0.79931992319E+02  0.10000000000E+01 0.  0.
    9000005    1    3    3    0    0  0.73482599466E+01 -0.10308302150E+02 -0.47323201490E+02  0.48997381734E+02  0.10000000000E+01 0.  0.
<mgrwt>
<rscale>  0 0.12499851E+03</rscale>
<asrwt>0</asrwt>
<pdfrwt beam="2">  1        4 0.74873654E-02 0.12499851E+03</pdfrwt>
<pdfrwt beam="1">  1       -4 0.12347923E-01 0.12499851E+03</pdfrwt>
<totfact> 0.10367814E+04</totfact>
</mgrwt>
</event>
<event>
 5    1  0.3217527E-002  0.1250022E+03  0.7818608E-02  0.1235066E+00
          4   -1    0    0  501    0  0.00000000000E+00  0.00000000000E+00  0.49427974245E+02  0.49444287212E+02  0.12700000000E+01 0. -1.
         -4   -1    0    0    0  501 -0.00000000000E+00 -0.00000000000E+00 -0.78997493822E+02  0.79007701714E+02  0.12700000000E+01 0. -1.
         25    2    1    2    0    0  0.00000000000E+00  0.00000000000E+00 -0.29569519577E+02  0.12845198893E+03  0.12500222786E+03 0.  0.
    9000005    1    3    3    0    0 -0.50757519326E+02 -0.33604126287E+02 -0.25865197291E+00  0.60882098950E+02  0.10000000000E+01 0.  0.
    9000005    1    3    3    0    0  0.50757519326E+02  0.33604126287E+02 -0.29310867604E+02  0.67569889976E+02  0.10000000000E+01 0.  0.
<mgrwt>
<rscale>  0 0.12500223E+03</rscale>
<asrwt>0</asrwt>
<pdfrwt beam="1">  1        4 0.76063438E-02 0.12500223E+03</pdfrwt>
<pdfrwt beam="2">  1       -4 0.12155501E-01 0.12500223E+03</pdfrwt>
<totfact> 0.10377216E+04</totfact>
</mgrwt>
</event>
<event>
 5    1  0.3217527E-002  0.1250050E+03  0.7818608E-02  0.1235061E+00
         -4   -1    0    0    0  501 -0.00000000000E+00  0.00000000000E+00  0.18720080582E+02  0.18763110536E+02  0.12700000000E+01 0. -1.
          4   -1    0    0  501    0  0.00000000000E+00 -0.00000000000E+00 -0.20839851006E+03  0.20840237977E+03  0.12700000000E+01 0. -1.
         25    2    1    2    0    0  0.00000000000E+00  0.00000000000E+00 -0.18967842947E+03  0.22716549031E+03  0.12500501341E+03 0.  0.
    9000005    1    3    3    0    0 -0.48482639331E+02  0.36635708775E+02 -0.68328401295E+02  0.91446770842E+02  0.10000000000E+01 0.  0.
    9000005    1    3    3    0    0  0.48482639331E+02 -0.36635708775E+02 -0.12135002818E+03  0.13571871946E+03  0.10000000000E+01 0.  0.
<mgrwt>
<rscale>  0 0.12500501E+03</rscale>
<asrwt>0</asrwt>
<pdfrwt beam="2">  1        4 0.32064915E-01 0.12500501E+03</pdfrwt>
<pdfrwt beam="1">  1       -4 0.28836202E-02 0.12500501E+03</pdfrwt>
<totfact> 0.85737155E+03</totfact>
</mgrwt>
</event>
<event>
 5    1  0.3217527E-002  0.1249995E+03  0.7818608E-02  0.1235070E+00
          4   -1    0    0  501    0  0.00000000000E+00  0.00000000000E+00  0.16606681612E+02  0.16655172595E+02  0.12700000000E+01 0. -1.
         -4   -1    0    0    0  501 -0.00000000000E+00 -0.00000000000E+00 -0.23482651292E+03  0.23482994713E+03  0.12700000000E+01 0. -1.
         25    2    1    2    0    0  0.00000000000E+00  0.00000000000E+00 -0.21821983131E+03  0.25148511973E+03  0.12499948267E+03 0.  0.
    9000005    1    3    3    0    0 -0.12634855062E+02  0.14930750486E+02 -0.22851941406E+03  0.22935712214E+03  0.10000000000E+01 0.  0.
    9000005    1    3    3    0    0  0.12634855062E+02 -0.14930750486E+02  0.10299582752E+02  0.22127997591E+02  0.10000000000E+01 0.  0.
<mgrwt>
<rscale>  0 0.12499948E+03</rscale>
<asrwt>0</asrwt>
<pdfrwt beam="1">  1        4 0.25588685E-02 0.12499948E+03</pdfrwt>
<pdfrwt beam="2">  1       -4 0.36131148E-01 0.12499948E+03</pdfrwt>
<totfact> 0.82117002E+03</totfact>
</mgrwt>
</event>
<event>
 5    1  0.3217527E-002  0.1250001E+03  0.7818608E-02  0.1235069E+00
         -4   -1    0    0    0  501 -0.00000000000E+00  0.00000000000E+00  0.41139790637E+03  0.41139986664E+03  0.12700000000E+01 0. -1.
          4   -1    0    0  501    0  0.00000000000E+00 -0.00000000000E+00 -0.94506152499E+01  0.95355665066E+01  0.12700000000E+01 0. -1.
         25    2    1    2    0    0  0.00000000000E+00  0.00000000000E+00  0.40194729113E+03  0.42093543314E+03  0.12500005614E+03 0.  0.
    9000005    1    3    3    0    0 -0.89803591270E+01 -0.53736040477E+02  0.30405625669E+03  0.30890033365E+03  0.10000000000E+01 0.  0.
    9000005    1    3    3    0    0  0.89803591270E+01  0.53736040477E+02  0.97891034436E+02  0.11203509950E+03  0.10000000000E+01 0.  0.
<mgrwt>
<rscale>  0 0.12500006E+03</rscale>
<asrwt>0</asrwt>
<pdfrwt beam="2">  1        4 0.14606265E-02 0.12500006E+03</pdfrwt>
<pdfrwt beam="1">  1       -4 0.63298663E-01 0.12500006E+03</pdfrwt>
<totfact> 0.62566247E+03</totfact>
</mgrwt>
</event>
<event>
 5    1  0.3217527E-002  0.1249975E+03  0.7818608E-02  0.1235073E+00
         -4   -1    0    0    0  501 -0.00000000000E+00  0.00000000000E+00  0.59629664785E+02  0.59643187560E+02  0.12700000000E+01 0. -1.
          4   -1    0    0  501    0  0.00000000000E+00 -0.00000000000E+00 -0.65478786210E+02  0.65491101254E+02  0.12700000000E+01 0. -1.
         25    2    1    2    0    0  0.00000000000E+00  0.00000000000E+00 -0.58491214248E+01  0.12513428881E+03  0.12499751204E+03 0.  0.
    9000005    1    3    3    0    0 -0.44760543437E+02  0.68529771474E+01  0.40187919786E+02  0.60551948287E+02  0.10000000000E+01 0.  0.
    9000005    1    3    3    0    0  0.44760543437E+02 -0.68529771474E+01 -0.46037041211E+02  0.64582340528E+02  0.10000000000E+01 0.  0.
<mgrwt>
<rscale>  0 0.12499751E+03</rscale>
<asrwt>0</asrwt>
<pdfrwt beam="2">  1        4 0.10075647E-01 0.12499751E+03</pdfrwt>
<pdfrwt beam="1">  1       -4 0.91757822E-02 0.12499751E+03</pdfrwt>
<totfact> 0.10450534E+04</totfact>
</mgrwt>
</event>
<event>
 5    1  0.3217527E-002  0.1249982E+03  0.7818608E-02  0.1235072E+00
         -4   -1    0    0    0  501 -0.00000000000E+00  0.00000000000E+00  0.37328907451E+03  0.37329123489E+03  0.12700000000E+01 0.  1.
          4   -1    0    0  501    0  0.00000000000E+00 -0.00000000000E+00 -0.10423367943E+02  0.10500452337E+02  0.12700000000E+01 0.  1.
         25    2    1    2    0    0  0.00000000000E+00  0.00000000000E+00  0.36286570657E+03  0.38379168723E+03  0.12499815273E+03 0.  0.
    9000005    1    3    3    0    0 -0.41788977050E+02  0.41452106777E+02  0.11698862241E+03  0.13096539059E+03  0.10000000000E+01 0.  0.
    9000005    1    3    3    0    0  0.41788977050E+02 -0.41452106777E+02  0.24587708415E+03  0.25282629664E+03  0.10000000000E+01 0.  0.
<mgrwt>
<rscale>  0 0.12499815E+03</rscale>
<asrwt>0</asrwt>
<pdfrwt beam="2">  1        4 0.16096908E-02 0.12499815E+03</pdfrwt>
<pdfrwt beam="1">  1       -4 0.57435185E-01 0.12499815E+03</pdfrwt>
<totfact> 0.66163018E+03</totfact>
</mgrwt>
</event>
<event>
 5    1  0.3217527E-002  0.1249974E+03  0.7818608E-02  0.1235073E+00
         -4   -1    0    0    0  501 -0.00000000000E+00  0.00000000000E+00  0.12410186354E+02  0.12475000014E+02  0.12700000000E+01 0.  1.
          4   -1    0    0  501    0  0.00000000000E+00 -0.00000000000E+00 -0.31386278169E+03  0.31386535112E+03  0.12700000000E+01 0.  1.
         25    2    1    2    0    0  0.00000000000E+00  0.00000000000E+00 -0.30145259534E+03  0.32634035113E+03  0.12499743013E+03 0.  0.
    9000005    1    3    3    0    0  0.26373694697E+02  0.27904287916E+02 -0.27944759550E+03  0.28207477676E+03  0.10000000000E+01 0.  0.
    9000005    1    3    3    0    0 -0.26373694697E+02 -0.27904287916E+02 -0.22004999837E+02  0.44265574365E+02  0.10000000000E+01 0.  0.
<mgrwt>
<rscale>  0 0.12499743E+03</rscale>
<asrwt>0</asrwt>
<pdfrwt beam="2">  1        4 0.48291759E-01 0.12499743E+03</pdfrwt>
<pdfrwt beam="1">  1       -4 0.19144430E-02 0.12499743E+03</pdfrwt>
<totfact> 0.72412443E+03</totfact>
</mgrwt>
</event>
<event>
 5    1  0.3217527E-002  0.1249851E+03  0.7818608E-02  0.1235093E+00
          4   -1    0    0  501    0  0.00000000000E+00  0.00000000000E+00  0.61699258877E+03  0.61699389583E+03  0.12700000000E+01 0.  1.
         -4   -1    0    0    0  501 -0.00000000000E+00 -0.00000000000E+00 -0.62645744912E+01  0.63920101342E+01  0.12700000000E+01 0.  1.
         25    2    1    2    0    0  0.00000000000E+00  0.00000000000E+00  0.61072801428E+03  0.62338590597E+03  0.12498512046E+03 0.  0.
    9000005    1    3    3    0    0  0.28630852480E+01  0.50764502812E+02  0.48651284997E+03  0.48916355669E+03  0.10000000000E+01 0.  0.
    9000005    1    3    3    0    0 -0.28630852480E+01 -0.50764502812E+02  0.12421516431E+03  0.13422234928E+03  0.10000000000E+01 0.  0.
<mgrwt>
<rscale>  0 0.12498512E+03</rscale>
<asrwt>0</asrwt>
<pdfrwt beam="1">  1        4 0.94931854E-01 0.12498512E+03</pdfrwt>
<pdfrwt beam="2">  1       -4 0.97368383E-03 0.12498512E+03</pdfrwt>
<totfact> 0.47439395E+03</totfact>
</mgrwt>
</event>
<event>
 5    1  0.3217527E-002  0.1249988E+03  0.7818608E-02  0.1235071E+00
          4   -1    0    0  501    0  0.00000000000E+00  0.00000000000E+00  0.35706094180E+01  0.37897429486E+01  0.12700000000E+01 0.  1.
         -4   -1    0    0    0  501 -0.00000000000E+00 -0.00000000000E+00 -0.10611903052E+04  0.10611910651E+04  0.12700000000E+01 0.  1.
         25    2    1    2    0    0  0.00000000000E+00  0.00000000000E+00 -0.10576196958E+04  0.10649808081E+04  0.12499880283E+03 0.  0.
    9000005    1    3    3    0    0  0.25347165721E+02  0.54650223135E+02 -0.67036621005E+03  0.67306833329E+03  0.10000000000E+01 0.  0.
    9000005    1    3    3    0    0 -0.25347165721E+02 -0.54650223135E+02 -0.38725348572E+03  0.39191247479E+03  0.10000000000E+01 0.  0.
<mgrwt>
<rscale>  0 0.12499880E+03</rscale>
<asrwt>0</asrwt>
<pdfrwt beam="1">  1        4 0.56624025E-03 0.12499880E+03</pdfrwt>
<pdfrwt beam="2">  1       -4 0.16327672E+00 0.12499880E+03</pdfrwt>
<totfact> 0.28532377E+03</totfact>
</mgrwt>
</event>
<event>
 5    1  0.3217527E-002  0.1249915E+03  0.7818608E-02  0.1235083E+00
         -4   -1    0    0    0  501 -0.00000000000E+00  0.00000000000E+00  0.47640233382E+02  0.47657158295E+02  0.12700000000E+01 0. -1.
          4   -1    0    0  501    0  0.00000000000E+00 -0.00000000000E+00 -0.81947159071E+02  0.81956999578E+02  0.12700000000E+01 0. -1.
         25    2    1    2    0    0  0.00000000000E+00  0.00000000000E+00 -0.34306925689E+02  0.12961415787E+03  0.12499145879E+03 0.  0.
    9000005    1    3    3    0    0  0.26854800470E+02 -0.27825553552E+01 -0.75591849520E+02  0.80274844356E+02  0.10000000000E+01 0.  0.
    9000005    1    3    3    0    0 -0.26854800470E+02  0.27825553552E+01  0.41284923831E+02  0.49339313517E+02  0.10000000000E+01 0.  0.
<mgrwt>
<rscale>  0 0.12499146E+03</rscale>
<asrwt>0</asrwt>
<pdfrwt beam="2">  1        4 0.12609314E-01 0.12499146E+03</pdfrwt>
<pdfrwt beam="1">  1       -4 0.73313256E-02 0.12499146E+03</pdfrwt>
<totfact> 0.10354765E+04</totfact>
</mgrwt>
</event>
<event>
 5    1  0.3217527E-002  0.1249772E+03  0.7818608E-02  0.1235105E+00
          4   -1    0    0  501    0  0.00000000000E+00  0.00000000000E+00  0.18662995322E+03  0.18663427428E+03  0.12700000000E+01 0. -1.
         -4   -1    0    0    0  501 -0.00000000000E+00 -0.00000000000E+00 -0.20898989456E+02  0.20937541887E+02  0.12700000000E+01 0. -1.
         25    2    1    2    0    0  0.00000000000E+00  0.00000000000E+00  0.16573096376E+03  0.20757181617E+03  0.12497722400E+03 0.  0.
    9000005    1    3    3    0    0  0.16758961304E+02  0.47633321821E+01  0.18252191050E+03  0.18335430164E+03  0.10000000000E+01 0.  0.
    9000005    1    3    3    0    0 -0.16758961304E+02 -0.47633321821E+01 -0.16790946742E+02  0.24217514529E+02  0.10000000000E+01 0.  0.
<mgrwt>
<rscale>  0 0.12497722E+03</rscale>
<asrwt>0</asrwt>
<pdfrwt beam="1">  1        4 0.28715599E-01 0.12497722E+03</pdfrwt>
<pdfrwt beam="2">  1       -4 0.32185271E-02 0.12497722E+03</pdfrwt>
<totfact> 0.88919255E+03</totfact>
</mgrwt>
</event>
<event>
 5    1  0.3217527E-002  0.1249997E+03  0.7818608E-02  0.1235070E+00
         -4   -1    0    0    0  501 -0.00000000000E+00  0.00000000000E+00  0.74043621624E+02  0.74054512376E+02  0.12700000000E+01 0.  1.
          4   -1    0    0  501    0  0.00000000000E+00 -0.00000000000E+00 -0.52733416662E+02  0.52748707405E+02  0.12700000000E+01 0.  1.
         25    2    1    2    0    0  0.00000000000E+00  0.00000000000E+00  0.21310204962E+02  0.12680321978E+03  0.12499972684E+03 0.  0.
    9000005    1    3    3    0    0  0.90153851067E+01  0.45784285214E+02  0.52821091842E+02  0.70487911620E+02  0.10000000000E+01 0.  0.
    9000005    1    3    3    0    0 -0.90153851067E+01 -0.45784285214E+02 -0.31510886880E+02  0.56315308160E+02  0.10000000000E+01 0.  0.
<mgrwt>
<rscale>  0 0.12499973E+03</rscale>
<asrwt>0</asrwt>
<pdfrwt beam="2">  1        4 0.81148473E-02 0.12499973E+03</pdfrwt>
<pdfrwt beam="1">  1       -4 0.11393340E-01 0.12499973E+03</pdfrwt>
<totfact> 0.10413488E+04</totfact>
</mgrwt>
</event>
<event>
 5    1  0.3217527E-002  0.1250063E+03  0.7818608E-02  0.1235059E+00
          4   -1    0    0  501    0  0.00000000000E+00  0.00000000000E+00  0.23021765375E+04  0.23021768878E+04  0.12700000000E+01 0.  1.
         -4   -1    0    0    0  501 -0.00000000000E+00 -0.00000000000E+00 -0.14589171414E+01  0.19342541781E+01  0.12700000000E+01 0.  1.
         25    2    1    2    0    0  0.00000000000E+00  0.00000000000E+00  0.23007176204E+04  0.23041111420E+04  0.12500634366E+03 0.  0.
    9000005    1    3    3    0    0  0.53320108745E+02 -0.16494040302E+02  0.16686079022E+04  0.16695413797E+04  0.10000000000E+01 0.  0.
    9000005    1    3    3    0    0 -0.53320108745E+02  0.16494040302E+02  0.63210971824E+03  0.63456976232E+03  0.10000000000E+01 0.  0.
<mgrwt>
<rscale>  0 0.12500634E+03</rscale>
<asrwt>0</asrwt>
<pdfrwt beam="1">  1        4 0.35421858E+00 0.12500634E+03</pdfrwt>
<pdfrwt beam="2">  1       -4 0.26103940E-03 0.12500634E+03</pdfrwt>
<totfact> 0.63949582E+02</totfact>
</mgrwt>
</event>
<event>
 5    1  0.3217527E-002  0.1250044E+03  0.7818608E-02  0.1235062E+00
         -4   -1    0    0    0  501 -0.00000000000E+00  0.00000000000E+00  0.13931232687E+02  0.13989000828E+02  0.12700000000E+01 0. -1.
          4   -1    0    0  501    0  0.00000000000E+00 -0.00000000000E+00 -0.27977549926E+03  0.27977838173E+03  0.12700000000E+01 0. -1.
         25    2    1    2    0    0  0.00000000000E+00  0.00000000000E+00 -0.26584426657E+03  0.29376738256E+03  0.12500440387E+03 0.  0.
    9000005    1    3    3    0    0 -0.39959916810E+02  0.46815724720E+02 -0.15834385696E+03  0.16988903458E+03  0.10000000000E+01 0.  0.
    9000005    1    3    3    0    0  0.39959916810E+02 -0.46815724720E+02 -0.10750040961E+03  0.12387834798E+03  0.10000000000E+01 0.  0.
<mgrwt>
<rscale>  0 0.12500440E+03</rscale>
<asrwt>0</asrwt>
<pdfrwt beam="2">  1        4 0.43047046E-01 0.12500440E+03</pdfrwt>
<pdfrwt beam="1">  1       -4 0.21479322E-02 0.12500440E+03</pdfrwt>
<totfact> 0.76379889E+03</totfact>
</mgrwt>
</event>
<event>
 5    1  0.3217527E-002  0.1249906E+03  0.7818608E-02  0.1235084E+00
         -4   -1    0    0    0  501 -0.00000000000E+00  0.00000000000E+00  0.14525234674E+02  0.14580649585E+02  0.12700000000E+01 0.  1.
          4   -1    0    0  501    0  0.00000000000E+00 -0.00000000000E+00 -0.26831938462E+03  0.26832239016E+03  0.12700000000E+01 0.  1.
         25    2    1    2    0    0  0.00000000000E+00  0.00000000000E+00 -0.25379414994E+03  0.28290303975E+03  0.12499063706E+03 0.  0.
    9000005    1    3    3    0    0 -0.64395613721E+01 -0.27721566723E+02 -0.98417529331E+00  0.28494241756E+02  0.10000000000E+01 0.  0.
    9000005    1    3    3    0    0  0.64395613721E+01  0.27721566723E+02 -0.25280997465E+03  0.25440879799E+03  0.10000000000E+01 0.  0.
<mgrwt>
<rscale>  0 0.12499064E+03</rscale>
<asrwt>0</asrwt>
<pdfrwt beam="2">  1        4 0.41284396E-01 0.12499064E+03</pdfrwt>
<pdfrwt beam="1">  1       -4 0.22391456E-02 0.12499064E+03</pdfrwt>
<totfact> 0.77810943E+03</totfact>
</mgrwt>
</event>
<event>
 5    1  0.3217527E-002  0.1249996E+03  0.7818608E-02  0.1235070E+00
          4   -1    0    0  501    0  0.00000000000E+00  0.00000000000E+00  0.86720997028E+01  0.87646000054E+01  0.12700000000E+01 0.  1.
         -4   -1    0    0    0  501 -0.00000000000E+00 -0.00000000000E+00 -0.44795283599E+03  0.44795463629E+03  0.12700000000E+01 0.  1.
         25    2    1    2    0    0  0.00000000000E+00  0.00000000000E+00 -0.43928073629E+03  0.45671923630E+03  0.12499958211E+03 0.  0.
    9000005    1    3    3    0    0  0.28197169520E+02  0.55768559309E+02 -0.21925187579E+03  0.22798595924E+03  0.10000000000E+01 0.  0.
    9000005    1    3    3    0    0 -0.28197169520E+02 -0.55768559309E+02 -0.22002886050E+03  0.22873327705E+03  0.10000000000E+01 0.  0.
<mgrwt>
<rscale>  0 0.12499958E+03</rscale>
<asrwt>0</asrwt>
<pdfrwt beam="1">  1        4 0.13414234E-02 0.12499958E+03</pdfrwt>
<pdfrwt beam="2">  1       -4 0.68923057E-01 0.12499958E+03</pdfrwt>
<totfact> 0.59386651E+03</totfact>
</mgrwt>
</event>
<event>
 5    1  0.3217527E-002  0.1249976E+03  0.7818608E-02  0.1235073E+00
          4   -1    0    0  501    0  0.00000000000E+00  0.00000000000E+00  0.49727306114E+01  0.51323434934E+01  0.12700000000E+01 0.  1.
         -4   -1    0    0    0  501 -0.00000000000E+00 -0.00000000000E+00 -0.77293609960E+03  0.77293714296E+03  0.12700000000E+01 0.  1.
         25    2    1    2    0    0  0.00000000000E+00  0.00000000000E+00 -0.76796336899E+03  0.77806948645E+03  0.12499755853E+03 0.  0.
    9000005    1    3    3    0    0  0.14811478181E+02  0.47017169803E+02 -0.14491004158E+03  0.15306833210E+03  0.10000000000E+01 0.  0.
    9000005    1    3    3    0    0 -0.14811478181E+02 -0.47017169803E+02 -0.62305332741E+03  0.62500115435E+03  0.10000000000E+01 0.  0.
<mgrwt>
<rscale>  0 0.12499756E+03</rscale>
<asrwt>0</asrwt>
<pdfrwt beam="1">  1        4 0.77739426E-03 0.12499756E+03</pdfrwt>
<pdfrwt beam="2">  1       -4 0.11892551E+00 0.12499756E+03</pdfrwt>
<totfact> 0.39264822E+03</totfact>
</mgrwt>
</event>
<event>
 5    1  0.3217527E-002  0.1249983E+03  0.7818608E-02  0.1235072E+00
         -4   -1    0    0    0  501 -0.00000000000E+00  0.00000000000E+00  0.36465246399E+01  0.38613523473E+01  0.12700000000E+01 0.  1.
          4   -1    0    0  501    0  0.00000000000E+00 -0.00000000000E+00 -0.10403305996E+04  0.10403313748E+04  0.12700000000E+01 0.  1.
         25    2    1    2    0    0  0.00000000000E+00  0.00000000000E+00 -0.10366840750E+04  0.10441927272E+04  0.12499832048E+03 0.  0.
    9000005    1    3    3    0    0 -0.26867799202E+02  0.42487969515E+02 -0.20823814619E+03  0.21422238846E+03  0.10000000000E+01 0.  0.
    9000005    1    3    3    0    0  0.26867799202E+02 -0.42487969515E+02 -0.82844592880E+03  0.82997033871E+03  0.10000000000E+01 0.  0.
<mgrwt>
<rscale>  0 0.12499832E+03</rscale>
<asrwt>0</asrwt>
<pdfrwt beam="2">  1        4 0.16006722E+00 0.12499832E+03</pdfrwt>
<pdfrwt beam="1">  1       -4 0.57758946E-03 0.12499832E+03</pdfrwt>
<totfact> 0.29177903E+03</totfact>
</mgrwt>
</event>
<event>
 5    1  0.3217527E-002  0.1250054E+03  0.7818608E-02  0.1235061E+00
          4   -1    0    0  501    0  0.00000000000E+00  0.00000000000E+00  0.19052879592E+02  0.19095159616E+02  0.12700000000E+01 0. -1.
         -4   -1    0    0    0  501 -0.00000000000E+00 -0.00000000000E+00 -0.20476770212E+03  0.20477164045E+03  0.12700000000E+01 0. -1.
         25    2    1    2    0    0  0.00000000000E+00  0.00000000000E+00 -0.18571482253E+03  0.22386680007E+03  0.12500539534E+03 0.  0.
    9000005    1    3    3    0    0 -0.52327620964E+02 -0.15383191526E+02 -0.14749366207E+03  0.15725839516E+03  0.10000000000E+01 0.  0.
    9000005    1    3    3    0    0  0.52327620964E+02  0.15383191526E+02 -0.38221160460E+02  0.66608404906E+02  0.10000000000E+01 0.  0.
<mgrwt>
<rscale>  0 0.12500540E+03</rscale>
<asrwt>0</asrwt>
<pdfrwt beam="1">  1        4 0.29347676E-02 0.12500540E+03</pdfrwt>
<pdfrwt beam="2">  1       -4 0.31506277E-01 0.12500540E+03</pdfrwt>
<totfact> 0.86249763E+03</totfact>
</mgrwt>
</event>
<event>
 5    1  0.3217527E-002  0.1250017E+03  0.7818608E-02  0.1235067E+00
         -4   -1    0    0    0  501 -0.00000000000E+00  0.00000000000E+00  0.86013716770E+03  0.86013810528E+03  0.12700000000E+01 0. -1.
          4   -1    0    0  501    0  0.00000000000E+00 -0.00000000000E+00 -0.44518059298E+01  0.46294142218E+01  0.12700000000E+01 0. -1.
         25    2    1    2    0    0  0.00000000000E+00  0.00000000000E+00  0.85568536177E+03  0.86476751951E+03  0.12500169776E+03 0.  0.
    9000005    1    3    3    0    0 -0.46791741739E+02  0.33793376277E+02  0.26211298448E+03  0.26839462739E+03  0.10000000000E+01 0.  0.
    9000005    1    3    3    0    0  0.46791741739E+02 -0.33793376277E+02  0.59357237729E+03  0.59637289212E+03  0.10000000000E+01 0.  0.
<mgrwt>
<rscale>  0 0.12500170E+03</rscale>
<asrwt>0</asrwt>
<pdfrwt beam="2">  1        4 0.69862717E-03 0.12500170E+03</pdfrwt>
<pdfrwt beam="1">  1       -4 0.13234260E+00 0.12500170E+03</pdfrwt>
<totfact> 0.35529194E+03</totfact>
</mgrwt>
</event>
<event>
 5    1  0.3217527E-002  0.1250055E+03  0.7818608E-02  0.1235061E+00
         -4   -1    0    0    0  501 -0.00000000000E+00  0.00000000000E+00  0.96957354990E+01  0.97785575044E+01  0.12700000000E+01 0.  1.
          4   -1    0    0  501    0  0.00000000000E+00 -0.00000000000E+00 -0.40112153785E+03  0.40112354834E+03  0.12700000000E+01 0.  1.
         25    2    1    2    0    0  0.00000000000E+00  0.00000000000E+00 -0.39142580235E+03  0.41090210584E+03  0.12500552722E+03 0.  0.
    9000005    1    3    3    0    0  0.22439955719E+02  0.31981764452E+02 -0.35604688842E+03  0.35818538723E+03  0.10000000000E+01 0.  0.
    9000005    1    3    3    0    0 -0.22439955719E+02 -0.31981764452E+02 -0.35378913935E+02  0.52716718614E+02  0.10000000000E+01 0.  0.
<mgrwt>
<rscale>  0 0.12500553E+03</rscale>
<asrwt>0</asrwt>
<pdfrwt beam="2">  1        4 0.61717519E-01 0.12500553E+03</pdfrwt>
<pdfrwt beam="1">  1       -4 0.14981775E-02 0.12500553E+03</pdfrwt>
<totfact> 0.63498358E+03</totfact>
</mgrwt>
</event>
<event>
 5    1  0.3217527E-002  0.1249998E+03  0.7818608E-02  0.1235070E+00
         -4   -1    0    0    0  501 -0.00000000000E+00  0.00000000000E+00  0.22973274964E+02  0.23008352018E+02  0.12700000000E+01 0.  1.
          4   -1    0    0  501    0  0.00000000000E+00 -0.00000000000E+00 -0.16986681698E+03  0.16987156446E+03  0.12700000000E+01 0.  1.
         25    2    1    2    0    0  0.00000000000E+00  0.00000000000E+00 -0.14689354202E+03  0.19287991647E+03  0.12499979797E+03 0.  0.
    9000005    1    3    3    0    0 -0.40143218610E+02 -0.35793999059E+02 -0.12254724942E+03  0.13383391464E+03  0.10000000000E+01 0.  0.
    9000005    1    3    3    0    0  0.40143218610E+02  0.35793999059E+02 -0.24346292601E+02  0.59046001833E+02  0.10000000000E+01 0.  0.
<mgrwt>
<rscale>  0 0.12499980E+03</rscale>
<asrwt>0</asrwt>
<pdfrwt beam="2">  1        4 0.26136419E-01 0.12499980E+03</pdfrwt>
<pdfrwt beam="1">  1       -4 0.35374135E-02 0.12499980E+03</pdfrwt>
<totfact> 0.91349033E+03</totfact>
</mgrwt>
</event>
<event>
 5    1  0.3217527E-002  0.1249844E+03  0.7818608E-02  0.1235094E+00
          4   -1    0    0  501    0  0.00000000000E+00  0.00000000000E+00  0.59969446456E+02  0.59982892630E+02  0.12700000000E+01 0.  1.
         -4   -1    0    0    0  501 -0.00000000000E+00 -0.00000000000E+00 -0.65094136780E+02  0.65106524582E+02  0.12700000000E+01 0.  1.
         25    2    1    2    0    0  0.00000000000E+00  0.00000000000E+00 -0.51246903245E+01  0.12508941721E+03  0.12498439842E+03 0.  0.
    9000005    1    3    3    0    0  0.32398895655E+02  0.17010377942E+02 -0.53253037380E+02  0.64621415858E+02  0.10000000000E+01 0.  0.
    9000005    1    3    3    0    0 -0.32398895655E+02 -0.17010377942E+02  0.48128347055E+02  0.60468001353E+02  0.10000000000E+01 0.  0.
<mgrwt>
<rscale>  0 0.12498440E+03</rscale>
<asrwt>0</asrwt>
<pdfrwt beam="1">  1        4 0.92280559E-02 0.12498440E+03</pdfrwt>
<pdfrwt beam="2">  1       -4 0.10016470E-01 0.12498440E+03</pdfrwt>
<totfact> 0.10454607E+04</totfact>
</mgrwt>
</event>
<event>
 5    1  0.3217527E-002  0.1249996E+03  0.7818608E-02  0.1235070E+00
          4   -1    0    0  501    0  0.00000000000E+00  0.00000000000E+00  0.87924764099E+02  0.87933935667E+02  0.12700000000E+01 0. -1.
         -4   -1    0    0    0  501 -0.00000000000E+00 -0.00000000000E+00 -0.44406304205E+02  0.44424461203E+02  0.12700000000E+01 0. -1.
         25    2    1    2    0    0  0.00000000000E+00  0.00000000000E+00  0.43518459894E+02  0.13235839687E+03  0.12499955548E+03 0.  0.
    9000005    1    3    3    0    0  0.49425576344E+02  0.33004857660E+02  0.42209808123E+02  0.72903196967E+02  0.10000000000E+01 0.  0.
    9000005    1    3    3    0    0 -0.49425576344E+02 -0.33004857660E+02  0.13086517704E+01  0.59455199904E+02  0.10000000000E+01 0.  0.
<mgrwt>
<rscale>  0 0.12499956E+03</rscale>
<asrwt>0</asrwt>
<pdfrwt beam="1">  1        4 0.13528989E-01 0.12499956E+03</pdfrwt>
<pdfrwt beam="2">  1       -4 0.68338414E-02 0.12499956E+03</pdfrwt>
<totfact> 0.10294158E+04</totfact>
</mgrwt>
</event>
<event>
 5    1  0.3217527E-002  0.1250179E+03  0.7818608E-02  0.1235041E+00
          4   -1    0    0  501    0  0.00000000000E+00  0.00000000000E+00  0.65594197894E+02  0.65606491275E+02  0.12700000000E+01 0.  1.
         -4   -1    0    0    0  501 -0.00000000000E+00 -0.00000000000E+00 -0.59544179231E+02  0.59557721417E+02  0.12700000000E+01 0.  1.
         25    2    1    2    0    0  0.00000000000E+00  0.00000000000E+00  0.60500186630E+01  0.12516421269E+03  0.12501790837E+03 0.  0.
    9000005    1    3    3    0    0 -0.58448982119E+02  0.62581300320E+00 -0.19129922783E+02  0.61511211160E+02  0.10000000000E+01 0.  0.
    9000005    1    3    3    0    0  0.58448982119E+02 -0.62581300320E+00  0.25179941446E+02  0.63653001531E+02  0.10000000000E+01 0.  0.
<mgrwt>
<rscale>  0 0.12501791E+03</rscale>
<asrwt>0</asrwt>
<pdfrwt beam="1">  1        4 0.10093402E-01 0.12501791E+03</pdfrwt>
<pdfrwt beam="2">  1       -4 0.91626304E-02 0.12501791E+03</pdfrwt>
<totfact> 0.10445069E+04</totfact>
</mgrwt>
</event>
<event>
 5    1  0.3217527E-002  0.1250009E+03  0.7818608E-02  0.1235068E+00
          4   -1    0    0  501    0  0.00000000000E+00  0.00000000000E+00  0.20857391862E+03  0.20857778508E+03  0.12700000000E+01 0.  1.
         -4   -1    0    0    0  501 -0.00000000000E+00 -0.00000000000E+00 -0.18703057827E+02  0.18746126855E+02  0.12700000000E+01 0.  1.
         25    2    1    2    0    0  0.00000000000E+00  0.00000000000E+00  0.18987086079E+03  0.22732391193E+03  0.12500086863E+03 0.  0.
    9000005    1    3    3    0    0 -0.58228401271E+02  0.59968562969E+01  0.55142398984E+02  0.80425077966E+02  0.10000000000E+01 0.  0.
    9000005    1    3    3    0    0  0.58228401271E+02 -0.59968562969E+01  0.13472846181E+03  0.14689883397E+03  0.10000000000E+01 0.  0.
<mgrwt>
<rscale>  0 0.12500087E+03</rscale>
<asrwt>0</asrwt>
<pdfrwt beam="1">  1        4 0.32091906E-01 0.12500087E+03</pdfrwt>
<pdfrwt beam="2">  1       -4 0.28810039E-02 0.12500087E+03</pdfrwt>
<totfact> 0.85720551E+03</totfact>
</mgrwt>
</event>
<event>
 5    1  0.3217527E-002  0.1249839E+03  0.7818608E-02  0.1235095E+00
          4   -1    0    0  501    0  0.00000000000E+00  0.00000000000E+00  0.21423897566E+03  0.21424273988E+03  0.12700000000E+01 0.  1.
         -4   -1    0    0    0  501 -0.00000000000E+00 -0.00000000000E+00 -0.18202382504E+02  0.18246633356E+02  0.12700000000E+01 0.  1.
         25    2    1    2    0    0  0.00000000000E+00  0.00000000000E+00  0.19603659315E+03  0.23248937324E+03  0.12498385020E+03 0.  0.
    9000005    1    3    3    0    0  0.32744852941E+02  0.22927746321E+02  0.18735096057E+03  0.19157058588E+03  0.10000000000E+01 0.  0.
    9000005    1    3    3    0    0 -0.32744852941E+02 -0.22927746321E+02  0.86856325802E+01  0.40918787357E+02  0.10000000000E+01 0.  0.
<mgrwt>
<rscale>  0 0.12498385E+03</rscale>
<asrwt>0</asrwt>
<pdfrwt beam="1">  1        4 0.32963534E-01 0.12498385E+03</pdfrwt>
<pdfrwt beam="2">  1       -4 0.28040602E-02 0.12498385E+03</pdfrwt>
<totfact> 0.84959415E+03</totfact>
</mgrwt>
</event>
<event>
 5    1  0.3217527E-002  0.1249809E+03  0.7818608E-02  0.1235099E+00
         -4   -1    0    0    0  501 -0.00000000000E+00  0.00000000000E+00  0.42318911083E+01  0.44183483738E+01  0.12700000000E+01 0. -1.
          4   -1    0    0  501    0  0.00000000000E+00 -0.00000000000E+00 -0.90269132718E+03  0.90269222056E+03  0.12700000000E+01 0. -1.
         25    2    1    2    0    0  0.00000000000E+00  0.00000000000E+00 -0.89845943607E+03  0.90711056894E+03  0.12498090259E+03 0.  0.
    9000005    1    3    3    0    0  0.50887439790E+01 -0.56036126266E+02 -0.64641668884E+03  0.64886167892E+03  0.10000000000E+01 0.  0.
    9000005    1    3    3    0    0 -0.50887439790E+01  0.56036126266E+02 -0.25204274723E+03  0.25824889001E+03  0.10000000000E+01 0.  0.
<mgrwt>
<rscale>  0 0.12498090E+03</rscale>
<asrwt>0</asrwt>
<pdfrwt beam="2">  1        4 0.13888985E+00 0.12498090E+03</pdfrwt>
<pdfrwt beam="1">  1       -4 0.66547247E-03 0.12498090E+03</pdfrwt>
<totfact> 0.33903271E+03</totfact>
</mgrwt>
</event>
<event>
 5    1  0.3217527E-002  0.1250055E+03  0.7818608E-02  0.1235061E+00
          4   -1    0    0  501    0  0.00000000000E+00  0.00000000000E+00  0.16851712208E+02  0.16899500121E+02  0.12700000000E+01 0.  1.
         -4   -1    0    0    0  501 -0.00000000000E+00 -0.00000000000E+00 -0.23144408237E+03  0.23144756677E+03  0.12700000000E+01 0.  1.
         25    2    1    2    0    0  0.00000000000E+00  0.00000000000E+00 -0.21459237016E+03  0.24834706689E+03  0.12500552108E+03 0.  0.
    9000005    1    3    3    0    0 -0.61539660207E+02  0.59766467144E+01 -0.12536795534E+03  0.13978903502E+03  0.10000000000E+01 0.  0.
    9000005    1    3    3    0    0  0.61539660207E+02 -0.59766467144E+01 -0.89224414819E+02  0.10855803187E+03  0.10000000000E+01 0.  0.
<mgrwt>
<rscale>  0 0.12500552E+03</rscale>
<asrwt>0</asrwt>
<pdfrwt beam="1">  1        4 0.25965153E-02 0.12500552E+03</pdfrwt>
<pdfrwt beam="2">  1       -4 0.35610724E-01 0.12500552E+03</pdfrwt>
<totfact> 0.82559562E+03</totfact>
</mgrwt>
</event>
<event>
 5    1  0.3217527E-002  0.1250042E+03  0.7818608E-02  0.1235063E+00
         -4   -1    0    0    0  501 -0.00000000000E+00  0.00000000000E+00  0.96092292535E+02  0.96100684621E+02  0.12700000000E+01 0. -1.
          4   -1    0    0  501    0  0.00000000000E+00 -0.00000000000E+00 -0.40633695828E+02  0.40653537812E+02  0.12700000000E+01 0. -1.
         25    2    1    2    0    0  0.00000000000E+00  0.00000000000E+00  0.55458596707E+02  0.13675422243E+03  0.12500424555E+03 0.  0.
    9000005    1    3    3    0    0  0.58088981573E+01  0.48537633010E+02  0.70323157849E+02  0.85650403653E+02  0.10000000000E+01 0.  0.
    9000005    1    3    3    0    0 -0.58088981573E+01 -0.48537633010E+02 -0.14864561142E+02  0.51103818781E+02  0.10000000000E+01 0.  0.
<mgrwt>
<rscale>  0 0.12500425E+03</rscale>
<asrwt>0</asrwt>
<pdfrwt beam="2">  1        4 0.62535097E-02 0.12500425E+03</pdfrwt>
<pdfrwt beam="1">  1       -4 0.14785601E-01 0.12500425E+03</pdfrwt>
<totfact> 0.10200251E+04</totfact>
</mgrwt>
</event>
<event>
 5    1  0.3217527E-002  0.1249994E+03  0.7818608E-02  0.1235070E+00
         -4   -1    0    0    0  501 -0.00000000000E+00  0.00000000000E+00  0.97483298451E+02  0.97491570799E+02  0.12700000000E+01 0.  1.
          4   -1    0    0  501    0  0.00000000000E+00 -0.00000000000E+00 -0.40050552893E+02  0.40070683635E+02  0.12700000000E+01 0.  1.
         25    2    1    2    0    0  0.00000000000E+00  0.00000000000E+00  0.57432745559E+02  0.13756225443E+03  0.12499941433E+03 0.  0.
    9000005    1    3    3    0    0  0.61924867638E+02  0.29161705601E+00  0.19480067534E+02  0.64924935915E+02  0.10000000000E+01 0.  0.
    9000005    1    3    3    0    0 -0.61924867638E+02 -0.29161705601E+00  0.37952678025E+02  0.72637318519E+02  0.10000000000E+01 0.  0.
<mgrwt>
<rscale>  0 0.12499941E+03</rscale>
<asrwt>0</asrwt>
<pdfrwt beam="2">  1        4 0.61638085E-02 0.12499941E+03</pdfrwt>
<pdfrwt beam="1">  1       -4 0.14999615E-01 0.12499941E+03</pdfrwt>
<totfact> 0.10184477E+04</totfact>
</mgrwt>
</event>
<event>
 5    1  0.3217527E-002  0.1250004E+03  0.7818608E-02  0.1235069E+00
         -4   -1    0    0    0  501 -0.00000000000E+00  0.00000000000E+00  0.41850599293E+01  0.43735142176E+01  0.12700000000E+01 0.  1.
          4   -1    0    0  501    0  0.00000000000E+00 -0.00000000000E+00 -0.91264358605E+03  0.91264446969E+03  0.12700000000E+01 0.  1.
         25    2    1    2    0    0  0.00000000000E+00  0.00000000000E+00 -0.90845852612E+03  0.91701798391E+03  0.12500035652E+03 0.  0.
    9000005    1    3    3    0    0 -0.11966544019E+02  0.52206845974E+02 -0.69041589121E+03  0.69249105105E+03  0.10000000000E+01 0.  0.
    9000005    1    3    3    0    0  0.11966544019E+02 -0.52206845974E+02 -0.21804263491E+03  0.22452693286E+03  0.10000000000E+01 0.  0.
<mgrwt>
<rscale>  0 0.12500036E+03</rscale>
<asrwt>0</asrwt>
<pdfrwt beam="2">  1        4 0.14042112E+00 0.12500036E+03</pdfrwt>
<pdfrwt beam="1">  1       -4 0.65842055E-03 0.12500036E+03</pdfrwt>
<totfact> 0.33516389E+03</totfact>
</mgrwt>
</event>
<event>
 5    1  0.3217527E-002  0.1250321E+03  0.7818608E-02  0.1235019E+00
          4   -1    0    0  501    0  0.00000000000E+00  0.00000000000E+00  0.34674119019E+01  0.36926745453E+01  0.12700000000E+01 0. -1.
         -4   -1    0    0    0  501 -0.00000000000E+00 -0.00000000000E+00 -0.10914535562E+04  0.10914542951E+04  0.12700000000E+01 0. -1.
         25    2    1    2    0    0  0.00000000000E+00  0.00000000000E+00 -0.10879861443E+04  0.10951469696E+04  0.12503213542E+03 0.  0.
    9000005    1    3    3    0    0  0.44496863909E+02  0.35832190117E+02 -0.76615605686E+03  0.76828381488E+03  0.10000000000E+01 0.  0.
    9000005    1    3    3    0    0 -0.44496863909E+02 -0.35832190117E+02 -0.32183008744E+03  0.32686315474E+03  0.10000000000E+01 0.  0.
<mgrwt>
<rscale>  0 0.12503214E+03</rscale>
<asrwt>0</asrwt>
<pdfrwt beam="1">  1        4 0.55083358E-03 0.12503214E+03</pdfrwt>
<pdfrwt beam="2">  1       -4 0.16793305E+00 0.12503214E+03</pdfrwt>
<totfact> 0.27606552E+03</totfact>
</mgrwt>
</event>
<event>
 5    1  0.3217527E-002  0.1250008E+03  0.7818608E-02  0.1235068E+00
          4   -1    0    0  501    0  0.00000000000E+00  0.00000000000E+00  0.12235685619E+03  0.12236344698E+03  0.12700000000E+01 0. -1.
         -4   -1    0    0    0  501 -0.00000000000E+00 -0.00000000000E+00 -0.31905362516E+02  0.31930628827E+02  0.12700000000E+01 0. -1.
         25    2    1    2    0    0  0.00000000000E+00  0.00000000000E+00  0.90451493679E+02  0.15429407581E+03  0.12500075648E+03 0.  0.
    9000005    1    3    3    0    0 -0.30825954943E+02 -0.53388450489E+02  0.57857816699E+02  0.84552309826E+02  0.10000000000E+01 0.  0.
    9000005    1    3    3    0    0  0.30825954943E+02  0.53388450489E+02  0.32593676980E+02  0.69741765985E+02  0.10000000000E+01 0.  0.
<mgrwt>
<rscale>  0 0.12500076E+03</rscale>
<asrwt>0</asrwt>
<pdfrwt beam="1">  1        4 0.18826582E-01 0.12500076E+03</pdfrwt>
<pdfrwt beam="2">  1       -4 0.49109678E-02 0.12500076E+03</pdfrwt>
<totfact> 0.98452584E+03</totfact>
</mgrwt>
</event>
<event>
 5    1  0.3217527E-002  0.1250013E+03  0.7818608E-02  0.1235067E+00
          4   -1    0    0  501    0  0.00000000000E+00  0.00000000000E+00  0.70859388723E+03  0.70859502532E+03  0.12700000000E+01 0. -1.
         -4   -1    0    0    0  501 -0.00000000000E+00 -0.00000000000E+00 -0.54384929093E+01  0.55848102138E+01  0.12700000000E+01 0. -1.
         25    2    1    2    0    0  0.00000000000E+00  0.00000000000E+00  0.70315539432E+03  0.71417983554E+03  0.12500131572E+03 0.  0.
    9000005    1    3    3    0    0 -0.26255888235E+02 -0.30590310381E+02  0.62439935846E+03  0.62570016590E+03  0.10000000000E+01 0.  0.
    9000005    1    3    3    0    0  0.26255888235E+02  0.30590310381E+02  0.78756035857E+02  0.88479669642E+02  0.10000000000E+01 0.  0.
<mgrwt>
<rscale>  0 0.12500132E+03</rscale>
<asrwt>0</asrwt>
<pdfrwt beam="1">  1        4 0.10902580E+00 0.12500132E+03</pdfrwt>
<pdfrwt beam="2">  1       -4 0.84803386E-03 0.12500132E+03</pdfrwt>
<totfact> 0.42347435E+03</totfact>
</mgrwt>
</event>
<event>
 5    1  0.3217527E-002  0.1249998E+03  0.7818608E-02  0.1235070E+00
          4   -1    0    0  501    0  0.00000000000E+00  0.00000000000E+00  0.10539714464E+04  0.10539722116E+04  0.12700000000E+01 0. -1.
         -4   -1    0    0    0  501 -0.00000000000E+00 -0.00000000000E+00 -0.35966214994E+01  0.38142608995E+01  0.12700000000E+01 0. -1.
         25    2    1    2    0    0  0.00000000000E+00  0.00000000000E+00  0.10503748249E+04  0.10577864725E+04  0.12499979408E+03 0.  0.
    9000005    1    3    3    0    0  0.22061026019E+02  0.16121213642E+02  0.49589664663E+02  0.56627883942E+02  0.10000000000E+01 0.  0.
    9000005    1    3    3    0    0 -0.22061026019E+02 -0.16121213642E+02  0.10007851603E+04  0.10011585885E+04  0.10000000000E+01 0.  0.
<mgrwt>
<rscale>  0 0.12499979E+03</rscale>
<asrwt>0</asrwt>
<pdfrwt beam="1">  1        4 0.16216629E+00 0.12499979E+03</pdfrwt>
<pdfrwt beam="2">  1       -4 0.57012662E-03 0.12499979E+03</pdfrwt>
<totfact> 0.28753007E+03</totfact>
</mgrwt>
</event>
<event>
 5    1  0.3217527E-002  0.1250019E+03  0.7818608E-02  0.1235066E+00
          4   -1    0    0  501    0  0.00000000000E+00  0.00000000000E+00  0.40476068477E+03  0.40476267718E+03  0.12700000000E+01 0. -1.
         -4   -1    0    0    0  501 -0.00000000000E+00 -0.00000000000E+00 -0.96072446461E+01  0.96908229625E+01  0.12700000000E+01 0. -1.
         25    2    1    2    0    0  0.00000000000E+00  0.00000000000E+00  0.39515344013E+03  0.41445350014E+03  0.12500185013E+03 0.  0.
    9000005    1    3    3    0    0 -0.24952336996E+02  0.50605682158E+02  0.28665488320E+03  0.29215676656E+03  0.10000000000E+01 0.  0.
    9000005    1    3    3    0    0  0.24952336996E+02 -0.50605682158E+02  0.10849855693E+03  0.12229673358E+03  0.10000000000E+01 0.  0.
<mgrwt>
<rscale>  0 0.12500185E+03</rscale>
<asrwt>0</asrwt>
<pdfrwt beam="1">  1        4 0.62277452E-01 0.12500185E+03</pdfrwt>
<pdfrwt beam="2">  1       -4 0.14846201E-02 0.12500185E+03</pdfrwt>
<totfact> 0.63168344E+03</totfact>
</mgrwt>
</event>
<event>
 5    1  0.3217527E-002  0.1250387E+03  0.7818608E-02  0.1235009E+00
          4   -1    0    0  501    0  0.00000000000E+00  0.00000000000E+00  0.19793685611E+02  0.19834386557E+02  0.12700000000E+01 0.  1.
         -4   -1    0    0    0  501 -0.00000000000E+00 -0.00000000000E+00 -0.19722494537E+03  0.19722903431E+03  0.12700000000E+01 0.  1.
         25    2    1    2    0    0  0.00000000000E+00  0.00000000000E+00 -0.17743125976E+03  0.21706342087E+03  0.12503870097E+03 0.  0.
    9000005    1    3    3    0    0  0.11487968116E+02  0.56215777362E+02 -0.45648104254E+02  0.73327596836E+02  0.10000000000E+01 0.  0.
    9000005    1    3    3    0    0 -0.11487968116E+02 -0.56215777362E+02 -0.13178315550E+03  0.14373582403E+03  0.10000000000E+01 0.  0.
<mgrwt>
<rscale>  0 0.12503870E+03</rscale>
<asrwt>0</asrwt>
<pdfrwt beam="1">  1        4 0.30486279E-02 0.12503870E+03</pdfrwt>
<pdfrwt beam="2">  1       -4 0.30345743E-01 0.12503870E+03</pdfrwt>
<totfact> 0.87259695E+03</totfact>
</mgrwt>
</event>
<event>
 5    1  0.3217527E-002  0.1250228E+03  0.7818608E-02  0.1235034E+00
          4   -1    0    0  501    0  0.00000000000E+00  0.00000000000E+00  0.22206212348E+01  0.25581357799E+01  0.12700000000E+01 0.  1.
         -4   -1    0    0    0  501 -0.00000000000E+00 -0.00000000000E+00 -0.16350974414E+04  0.16350979346E+04  0.12700000000E+01 0.  1.
         25    2    1    2    0    0  0.00000000000E+00  0.00000000000E+00 -0.16328768202E+04  0.16376560704E+04  0.12502277816E+03 0.  0.
    9000005    1    3    3    0    0  0.13214358111E+01 -0.15669959354E+02 -0.24051475454E+02  0.28753561350E+02  0.10000000000E+01 0.  0.
    9000005    1    3    3    0    0 -0.13214358111E+01  0.15669959354E+02 -0.16088253447E+04  0.16089025091E+04  0.10000000000E+01 0.  0.
<mgrwt>
<rscale>  0 0.12502278E+03</rscale>
<asrwt>0</asrwt>
<pdfrwt beam="1">  1        4 0.36763594E-03 0.12502278E+03</pdfrwt>
<pdfrwt beam="2">  1       -4 0.25157856E+00 0.12502278E+03</pdfrwt>
<totfact> 0.15367482E+03</totfact>
</mgrwt>
</event>
<event>
 5    1  0.3217527E-002  0.1249993E+03  0.7818608E-02  0.1235070E+00
         -4   -1    0    0    0  501 -0.00000000000E+00  0.00000000000E+00  0.17627947898E+03  0.17628405376E+03  0.12700000000E+01 0.  1.
          4   -1    0    0  501    0  0.00000000000E+00 -0.00000000000E+00 -0.22136102414E+02  0.22172503920E+02  0.12700000000E+01 0.  1.
         25    2    1    2    0    0  0.00000000000E+00  0.00000000000E+00  0.15414337656E+03  0.19845655768E+03  0.12499929898E+03 0.  0.
    9000005    1    3    3    0    0 -0.47133822426E+02  0.31750201615E+01  0.12122400019E+02  0.48781457048E+02  0.10000000000E+01 0.  0.
    9000005    1    3    3    0    0  0.47133822426E+02 -0.31750201615E+01  0.14202097655E+03  0.14967510063E+03  0.10000000000E+01 0.  0.
<mgrwt>
<rscale>  0 0.12499930E+03</rscale>
<asrwt>0</asrwt>
<pdfrwt beam="2">  1        4 0.34087063E-02 0.12499930E+03</pdfrwt>
<pdfrwt beam="1">  1       -4 0.27123072E-01 0.12499930E+03</pdfrwt>
<totfact> 0.90397783E+03</totfact>
</mgrwt>
</event>
<event>
 5    1  0.3217527E-002  0.1249963E+03  0.7818608E-02  0.1235075E+00
          4   -1    0    0  501    0  0.00000000000E+00  0.00000000000E+00  0.85229868159E+02  0.85239329692E+02  0.12700000000E+01 0. -1.
         -4   -1    0    0    0  501 -0.00000000000E+00 -0.00000000000E+00 -0.45808437678E+02  0.45826039131E+02  0.12700000000E+01 0. -1.
         25    2    1    2    0    0  0.00000000000E+00  0.00000000000E+00  0.39421430482E+02  0.13106536882E+03  0.12499632684E+03 0.  0.
    9000005    1    3    3    0    0 -0.24150492076E+02  0.17115940120E+02  0.77417562270E+02  0.82889568834E+02  0.10000000000E+01 0.  0.
    9000005    1    3    3    0    0  0.24150492076E+02 -0.17115940120E+02 -0.37996131789E+02  0.48175799989E+02  0.10000000000E+01 0.  0.
<mgrwt>
<rscale>  0 0.12499633E+03</rscale>
<asrwt>0</asrwt>
<pdfrwt beam="1">  1        4 0.13114369E-01 0.12499633E+03</pdfrwt>
<pdfrwt beam="2">  1       -4 0.70495338E-02 0.12499633E+03</pdfrwt>
<totfact> 0.10322543E+04</totfact>
</mgrwt>
</event>
<event>
 5    1  0.3217527E-002  0.1249979E+03  0.7818608E-02  0.1235073E+00
         -4   -1    0    0    0  501 -0.00000000000E+00  0.00000000000E+00  0.19454412768E+02  0.19495822018E+02  0.12700000000E+01 0.  1.
          4   -1    0    0  501    0  0.00000000000E+00 -0.00000000000E+00 -0.20052618787E+03  0.20053020950E+03  0.12700000000E+01 0.  1.
         25    2    1    2    0    0  0.00000000000E+00  0.00000000000E+00 -0.18107177510E+03  0.22002603152E+03  0.12499786721E+03 0.  0.
    9000005    1    3    3    0    0 -0.33102855719E+01  0.44581682239E+02 -0.13675080885E+02  0.46759942462E+02  0.10000000000E+01 0.  0.
    9000005    1    3    3    0    0  0.33102855719E+01 -0.44581682239E+02 -0.16739669422E+03  0.17326608906E+03  0.10000000000E+01 0.  0.
<mgrwt>
<rscale>  0 0.12499787E+03</rscale>
<asrwt>0</asrwt>
<pdfrwt beam="2">  1        4 0.30853676E-01 0.12499787E+03</pdfrwt>
<pdfrwt beam="1">  1       -4 0.29964814E-02 0.12499787E+03</pdfrwt>
<totfact> 0.86868369E+03</totfact>
</mgrwt>
</event>
<event>
 5    1  0.3217527E-002  0.1250004E+03  0.7818608E-02  0.1235069E+00
         -4   -1    0    0    0  501 -0.00000000000E+00  0.00000000000E+00  0.18934188811E+03  0.18934614729E+03  0.12700000000E+01 0.  1.
          4   -1    0    0  501    0  0.00000000000E+00 -0.00000000000E+00 -0.20606773310E+02  0.20645871409E+02  0.12700000000E+01 0.  1.
         25    2    1    2    0    0  0.00000000000E+00  0.00000000000E+00  0.16873511480E+03  0.20999201870E+03  0.12500043580E+03 0.  0.
    9000005    1    3    3    0    0 -0.82626980770E+01 -0.34325934696E+02  0.17098967758E+03  0.17459957564E+03  0.10000000000E+01 0.  0.
    9000005    1    3    3    0    0  0.82626980770E+01  0.34325934696E+02 -0.22545627859E+01  0.35392443059E+02  0.10000000000E+01 0.  0.
<mgrwt>
<rscale>  0 0.12500044E+03</rscale>
<asrwt>0</asrwt>
<pdfrwt beam="2">  1        4 0.31736081E-02 0.12500044E+03</pdfrwt>
<pdfrwt beam="1">  1       -4 0.29132855E-01 0.12500044E+03</pdfrwt>
<totfact> 0.88476323E+03</totfact>
</mgrwt>
</event>
<event>
 5    1  0.3217527E-002  0.1250025E+03  0.7818608E-02  0.1235065E+00
         -4   -1    0    0    0  501 -0.00000000000E+00  0.00000000000E+00  0.27418530849E+02  0.27447927680E+02  0.12700000000E+01 0.  1.
          4   -1    0    0  501    0  0.00000000000E+00 -0.00000000000E+00 -0.14236460074E+03  0.14237026531E+03  0.12700000000E+01 0.  1.
         25    2    1    2    0    0  0.00000000000E+00  0.00000000000E+00 -0.11494606989E+03  0.16981819299E+03  0.12500247872E+03 0.  0.
    9000005    1    3    3    0    0 -0.39446184147E+02  0.20662666012E+02 -0.11703842473E+03  0.12522755317E+03  0.10000000000E+01 0.  0.
    9000005    1    3    3    0    0  0.39446184147E+02 -0.20662666012E+02  0.20923548370E+01  0.44590639817E+02  0.10000000000E+01 0.  0.
<mgrwt>
<rscale>  0 0.12500248E+03</rscale>
<asrwt>0</asrwt>
<pdfrwt beam="2">  1        4 0.21904943E-01 0.12500248E+03</pdfrwt>
<pdfrwt beam="1">  1       -4 0.42209326E-02 0.12500248E+03</pdfrwt>
<totfact> 0.95477222E+03</totfact>
</mgrwt>
</event>
<event>
 5    1  0.3217527E-002  0.1250031E+03  0.7818608E-02  0.1235064E+00
          4   -1    0    0  501    0  0.00000000000E+00  0.00000000000E+00  0.18233954111E+03  0.18234396385E+03  0.12700000000E+01 0. -1.
         -4   -1    0    0    0  501 -0.00000000000E+00 -0.00000000000E+00 -0.21400501873E+02  0.21438152448E+02  0.12700000000E+01 0. -1.
         25    2    1    2    0    0  0.00000000000E+00  0.00000000000E+00  0.16093903924E+03  0.20378211630E+03  0.12500310625E+03 0.  0.
    9000005    1    3    3    0    0  0.16995597272E+02  0.55467893372E+01  0.17808977201E+03  0.17898766464E+03  0.10000000000E+01 0.  0.
    9000005    1    3    3    0    0 -0.16995597272E+02 -0.55467893372E+01 -0.17150732770E+02  0.24794451660E+02  0.10000000000E+01 0.  0.
<mgrwt>
<rscale>  0 0.12500311E+03</rscale>
<asrwt>0</asrwt>
<pdfrwt beam="1">  1        4 0.28055472E-01 0.12500311E+03</pdfrwt>
<pdfrwt beam="2">  1       -4 0.32956214E-02 0.12500311E+03</pdfrwt>
<totfact> 0.89495301E+03</totfact>
</mgrwt>
</event>
<event>
 5    1  0.3217527E-002  0.1250015E+03  0.7818608E-02  0.1235067E+00
          4   -1    0    0  501    0  0.00000000000E+00  0.00000000000E+00  0.10384381867E+02  0.10461753522E+02  0.12700000000E+01 0.  1.
         -4   -1    0    0    0  501 -0.00000000000E+00 -0.00000000000E+00 -0.37470033427E+03  0.37470248651E+03  0.12700000000E+01 0.  1.
         25    2    1    2    0    0  0.00000000000E+00  0.00000000000E+00 -0.36431595240E+03  0.38516424003E+03  0.12500151451E+03 0.  0.
    9000005    1    3    3    0    0 -0.51898661173E+02  0.98990895937E+01 -0.28499516805E+03  0.28985290893E+03  0.10000000000E+01 0.  0.
    9000005    1    3    3    0    0  0.51898661173E+02 -0.98990895937E+01 -0.79320784350E+02  0.95311331101E+02  0.10000000000E+01 0.  0.
<mgrwt>
<rscale>  0 0.12500151E+03</rscale>
<asrwt>0</asrwt>
<pdfrwt beam="1">  1        4 0.16037147E-02 0.12500151E+03</pdfrwt>
<pdfrwt beam="2">  1       -4 0.57652312E-01 0.12500151E+03</pdfrwt>
<totfact> 0.66019530E+03</totfact>
</mgrwt>
</event>
<event>
 5    1  0.3217527E-002  0.1250014E+03  0.7818608E-02  0.1235067E+00
          4   -1    0    0  501    0  0.00000000000E+00  0.00000000000E+00  0.10418798914E+03  0.10419572919E+03  0.12700000000E+01 0. -1.
         -4   -1    0    0    0  501 -0.00000000000E+00 -0.00000000000E+00 -0.37473281640E+02  0.37494796130E+02  0.12700000000E+01 0. -1.
         25    2    1    2    0    0  0.00000000000E+00  0.00000000000E+00  0.66714707499E+02  0.14169052532E+03  0.12500141106E+03 0.  0.
    9000005    1    3    3    0    0 -0.29042408423E+01 -0.22097736221E+02 -0.32820626599E+02  0.39685489682E+02  0.10000000000E+01 0.  0.
    9000005    1    3    3    0    0  0.29042408423E+01  0.22097736221E+02  0.99535334098E+02  0.10200503564E+03  0.10000000000E+01 0.  0.
<mgrwt>
<rscale>  0 0.12500141E+03</rscale>
<asrwt>0</asrwt>
<pdfrwt beam="1">  1        4 0.16031172E-01 0.12500141E+03</pdfrwt>
<pdfrwt beam="2">  1       -4 0.57673706E-02 0.12500141E+03</pdfrwt>
<totfact> 0.10098347E+04</totfact>
</mgrwt>
</event>
<event>
 5    1  0.3217527E-002  0.1249989E+03  0.7818608E-02  0.1235071E+00
          4   -1    0    0  501    0  0.00000000000E+00  0.00000000000E+00  0.37992400730E+03  0.37992612995E+03  0.12700000000E+01 0. -1.
         -4   -1    0    0    0  501 -0.00000000000E+00 -0.00000000000E+00 -0.10240107063E+02  0.10318560590E+02  0.12700000000E+01 0. -1.
         25    2    1    2    0    0  0.00000000000E+00  0.00000000000E+00  0.36968390024E+03  0.39024469054E+03  0.12499892961E+03 0.  0.
    9000005    1    3    3    0    0  0.49945686996E+02  0.29553420636E+01  0.30173420245E+03  0.30585590500E+03  0.10000000000E+01 0.  0.
    9000005    1    3    3    0    0 -0.49945686996E+02 -0.29553420636E+01  0.67949697790E+02  0.84388785546E+02  0.10000000000E+01 0.  0.
<mgrwt>
<rscale>  0 0.12499893E+03</rscale>
<asrwt>0</asrwt>
<pdfrwt beam="1">  1        4 0.58456041E-01 0.12499893E+03</pdfrwt>
<pdfrwt beam="2">  1       -4 0.15815994E-02 0.12499893E+03</pdfrwt>
<totfact> 0.65514317E+03</totfact>
</mgrwt>
</event>
<event>
 5    1  0.3217527E-002  0.1249998E+03  0.7818608E-02  0.1235070E+00
          4   -1    0    0  501    0  0.00000000000E+00  0.00000000000E+00  0.10947859404E+03  0.10948596007E+03  0.12700000000E+01 0.  1.
         -4   -1    0    0    0  501 -0.00000000000E+00 -0.00000000000E+00 -0.35660510853E+02  0.35683118338E+02  0.12700000000E+01 0.  1.
         25    2    1    2    0    0  0.00000000000E+00  0.00000000000E+00  0.73818083188E+02  0.14516907841E+03  0.12499980769E+03 0.  0.
    9000005    1    3    3    0    0  0.39766388745E+02  0.47282872747E+02  0.26002059248E+02  0.67038368224E+02  0.10000000000E+01 0.  0.
    9000005    1    3    3    0    0 -0.39766388745E+02 -0.47282872747E+02  0.47816023940E+02  0.78130710188E+02  0.10000000000E+01 0.  0.
<mgrwt>
<rscale>  0 0.12499981E+03</rscale>
<asrwt>0</asrwt>
<pdfrwt beam="1">  1        4 0.16845166E-01 0.12499981E+03</pdfrwt>
<pdfrwt beam="2">  1       -4 0.54885381E-02 0.12499981E+03</pdfrwt>
<totfact> 0.10027598E+04</totfact>
</mgrwt>
</event>
<event>
 5    1  0.3217527E-002  0.1249959E+03  0.7818608E-02  0.1235076E+00
          4   -1    0    0  501    0  0.00000000000E+00  0.00000000000E+00  0.12941180389E+03  0.12941803540E+03  0.12700000000E+01 0. -1.
         -4   -1    0    0    0  501 -0.00000000000E+00 -0.00000000000E+00 -0.30162338273E+02  0.30189063418E+02  0.12700000000E+01 0. -1.
         25    2    1    2    0    0  0.00000000000E+00  0.00000000000E+00  0.99249465617E+02  0.15960709881E+03  0.12499587820E+03 0.  0.
    9000005    1    3    3    0    0 -0.20038546500E+02  0.44443143299E+02 -0.29296809790E+00  0.48762917903E+02  0.10000000000E+01 0.  0.
    9000005    1    3    3    0    0  0.20038546500E+02 -0.44443143299E+02  0.99542433715E+02  0.11084418091E+03  0.10000000000E+01 0.  0.
<mgrwt>
<rscale>  0 0.12499588E+03</rscale>
<asrwt>0</asrwt>
<pdfrwt beam="1">  1        4 0.19912043E-01 0.12499588E+03</pdfrwt>
<pdfrwt beam="2">  1       -4 0.46428949E-02 0.12499588E+03</pdfrwt>
<totfact> 0.97427613E+03</totfact>
</mgrwt>
</event>
<event>
 5    1  0.3217527E-002  0.1249841E+03  0.7818608E-02  0.1235094E+00
          4   -1    0    0  501    0  0.00000000000E+00  0.00000000000E+00  0.17976608926E+02  0.18021414164E+02  0.12700000000E+01 0.  1.
         -4   -1    0    0    0  501 -0.00000000000E+00 -0.00000000000E+00 -0.21692409942E+03  0.21692781705E+03  0.12700000000E+01 0.  1.
         25    2    1    2    0    0  0.00000000000E+00  0.00000000000E+00 -0.19894749050E+03  0.23494923121E+03  0.12498414809E+03 0.  0.
    9000005    1    3    3    0    0  0.13065652206E+02  0.60120861475E+02 -0.11998288441E+03  0.13484109834E+03  0.10000000000E+01 0.  0.
    9000005    1    3    3    0    0 -0.13065652206E+02 -0.60120861475E+02 -0.78964606091E+02  0.10010813287E+03  0.10000000000E+01 0.  0.
<mgrwt>
<rscale>  0 0.12498415E+03</rscale>
<asrwt>0</asrwt>
<pdfrwt beam="1">  1        4 0.27693648E-02 0.12498415E+03</pdfrwt>
<pdfrwt beam="2">  1       -4 0.33376669E-01 0.12498415E+03</pdfrwt>
<totfact> 0.84585288E+03</totfact>
</mgrwt>
</event>
<event>
 5    1  0.3217527E-002  0.1250015E+03  0.7818608E-02  0.1235067E+00
         -4   -1    0    0    0  501 -0.00000000000E+00  0.00000000000E+00  0.16992472493E+02  0.17039865652E+02  0.12700000000E+01 0. -1.
          4   -1    0    0  501    0  0.00000000000E+00 -0.00000000000E+00 -0.22951726937E+03  0.22952078303E+03  0.12700000000E+01 0. -1.
         25    2    1    2    0    0  0.00000000000E+00  0.00000000000E+00 -0.21252479688E+03  0.24656064868E+03  0.12500145674E+03 0.  0.
    9000005    1    3    3    0    0  0.59838185226E+02  0.70770711668E+01 -0.13895102491E+03  0.15145653063E+03  0.10000000000E+01 0.  0.
    9000005    1    3    3    0    0 -0.59838185226E+02 -0.70770711668E+01 -0.73573771975E+02  0.95104118049E+02  0.10000000000E+01 0.  0.
<mgrwt>
<rscale>  0 0.12500146E+03</rscale>
<asrwt>0</asrwt>
<pdfrwt beam="2">  1        4 0.35314263E-01 0.12500146E+03</pdfrwt>
<pdfrwt beam="1">  1       -4 0.26181426E-02 0.12500146E+03</pdfrwt>
<totfact> 0.82827188E+03</totfact>
</mgrwt>
</event>
<event>
 5    1  0.3217527E-002  0.1249995E+03  0.7818608E-02  0.1235070E+00
         -4   -1    0    0    0  501 -0.00000000000E+00  0.00000000000E+00  0.30622668104E+03  0.30622931453E+03  0.12700000000E+01 0. -1.
          4   -1    0    0  501    0  0.00000000000E+00 -0.00000000000E+00 -0.12721673500E+02  0.12784908159E+02  0.12700000000E+01 0. -1.
         25    2    1    2    0    0  0.00000000000E+00  0.00000000000E+00  0.29350500754E+03  0.31901422269E+03  0.12499953932E+03 0.  0.
    9000005    1    3    3    0    0 -0.49437542468E+02  0.85907720124E+01  0.24181178658E+03  0.24696520423E+03  0.10000000000E+01 0.  0.
    9000005    1    3    3    0    0  0.49437542468E+02 -0.85907720124E+01  0.51693220958E+02  0.72049018467E+02  0.10000000000E+01 0.  0.
<mgrwt>
<rscale>  0 0.12499954E+03</rscale>
<asrwt>0</asrwt>
<pdfrwt beam="2">  1        4 0.19622475E-02 0.12499954E+03</pdfrwt>
<pdfrwt beam="1">  1       -4 0.47116860E-01 0.12499954E+03</pdfrwt>
<totfact> 0.73274273E+03</totfact>
</mgrwt>
</event>
<event>
 5    1  0.3217527E-002  0.1250011E+03  0.7818608E-02  0.1235068E+00
         -4   -1    0    0    0  501 -0.00000000000E+00  0.00000000000E+00  0.60662580015E+01  0.61977726758E+01  0.12700000000E+01 0. -1.
          4   -1    0    0  501    0  0.00000000000E+00 -0.00000000000E+00 -0.63690467509E+03  0.63690594129E+03  0.12700000000E+01 0. -1.
         25    2    1    2    0    0  0.00000000000E+00  0.00000000000E+00 -0.63083841708E+03  0.64310371396E+03  0.12500111377E+03 0.  0.
    9000005    1    3    3    0    0  0.29626708164E+02 -0.49790306978E+02 -0.43591078326E+03  0.43974541211E+03  0.10000000000E+01 0.  0.
    9000005    1    3    3    0    0 -0.29626708164E+02  0.49790306978E+02 -0.19492763382E+03  0.20335830185E+03  0.10000000000E+01 0.  0.
<mgrwt>
<rscale>  0 0.12500111E+03</rscale>
<asrwt>0</asrwt>
<pdfrwt beam="2">  1        4 0.97995496E-01 0.12500111E+03</pdfrwt>
<pdfrwt beam="1">  1       -4 0.94348488E-03 0.12500111E+03</pdfrwt>
<totfact> 0.46253912E+03</totfact>
</mgrwt>
</event>
<event>
 5    1  0.3217527E-002  0.1250035E+03  0.7818608E-02  0.1235064E+00
          4   -1    0    0  501    0  0.00000000000E+00  0.00000000000E+00  0.20651127338E+02  0.20690141622E+02  0.12700000000E+01 0.  1.
         -4   -1    0    0    0  501 -0.00000000000E+00 -0.00000000000E+00 -0.18894520834E+03  0.18894947646E+03  0.12700000000E+01 0.  1.
         25    2    1    2    0    0  0.00000000000E+00  0.00000000000E+00 -0.16829408100E+03  0.20963961808E+03  0.12500348703E+03 0.  0.
    9000005    1    3    3    0    0 -0.47531353142E+02  0.21477666879E+02 -0.26417125074E+02  0.58475500880E+02  0.10000000000E+01 0.  0.
    9000005    1    3    3    0    0  0.47531353142E+02 -0.21477666879E+02 -0.14187695593E+03  0.15116411720E+03  0.10000000000E+01 0.  0.
<mgrwt>
<rscale>  0 0.12500349E+03</rscale>
<asrwt>0</asrwt>
<pdfrwt beam="1">  1        4 0.31804261E-02 0.12500349E+03</pdfrwt>
<pdfrwt beam="2">  1       -4 0.29071822E-01 0.12500349E+03</pdfrwt>
<totfact> 0.88527868E+03</totfact>
</mgrwt>
</event>
<event>
 5    1  0.3217527E-002  0.1249908E+03  0.7818608E-02  0.1235084E+00
         -4   -1    0    0    0  501 -0.00000000000E+00  0.00000000000E+00  0.34252318890E+03  0.34252554333E+03  0.12700000000E+01 0. -1.
          4   -1    0    0  501    0  0.00000000000E+00 -0.00000000000E+00 -0.11364890953E+02  0.11435630563E+02  0.12700000000E+01 0. -1.
         25    2    1    2    0    0  0.00000000000E+00  0.00000000000E+00  0.33115829795E+03  0.35396117389E+03  0.12499077696E+03 0.  0.
    9000005    1    3    3    0    0 -0.35603513457E+02  0.19634183003E+02  0.31203789163E+02  0.51261952467E+02  0.10000000000E+01 0.  0.
    9000005    1    3    3    0    0  0.35603513457E+02 -0.19634183003E+02  0.29995450878E+03  0.30269922143E+03  0.10000000000E+01 0.  0.
<mgrwt>
<rscale>  0 0.12499078E+03</rscale>
<asrwt>0</asrwt>
<pdfrwt beam="2">  1        4 0.17540674E-02 0.12499078E+03</pdfrwt>
<pdfrwt beam="1">  1       -4 0.52701499E-01 0.12499078E+03</pdfrwt>
<totfact> 0.69305105E+03</totfact>
</mgrwt>
</event>
<event>
 5    1  0.3217527E-002  0.1250004E+03  0.7818608E-02  0.1235069E+00
         -4   -1    0    0    0  501 -0.00000000000E+00  0.00000000000E+00  0.22902855641E+02  0.22938040381E+02  0.12700000000E+01 0. -1.
          4   -1    0    0  501    0  0.00000000000E+00 -0.00000000000E+00 -0.17039009432E+03  0.17039482722E+03  0.12700000000E+01 0. -1.
         25    2    1    2    0    0  0.00000000000E+00  0.00000000000E+00 -0.14748723868E+03  0.19333286760E+03  0.12500044848E+03 0.  0.
    9000005    1    3    3    0    0 -0.29694418157E+01 -0.61403650907E+02 -0.56378844138E+02  0.83419422174E+02  0.10000000000E+01 0.  0.
    9000005    1    3    3    0    0  0.29694418157E+01  0.61403650907E+02 -0.91108394542E+02  0.10991344543E+03  0.10000000000E+01 0.  0.
<mgrwt>
<rscale>  0 0.12500045E+03</rscale>
<asrwt>0</asrwt>
<pdfrwt beam="2">  1        4 0.26216930E-01 0.12500045E+03</pdfrwt>
<pdfrwt beam="1">  1       -4 0.35265870E-02 0.12500045E+03</pdfrwt>
<totfact> 0.91269703E+03</totfact>
</mgrwt>
</event>
<event>
 5    1  0.3217527E-002  0.1249957E+03  0.7818608E-02  0.1235076E+00
         -4   -1    0    0    0  501 -0.00000000000E+00  0.00000000000E+00  0.71702578689E+01  0.72818608821E+01  0.12700000000E+01 0.  1.
          4   -1    0    0  501    0  0.00000000000E+00 -0.00000000000E+00 -0.54042840683E+03  0.54042989907E+03  0.12700000000E+01 0.  1.
         25    2    1    2    0    0  0.00000000000E+00  0.00000000000E+00 -0.53325814896E+03  0.54771175995E+03  0.12499567415E+03 0.  0.
    9000005    1    3    3    0    0  0.16886685906E+02  0.37069098687E+02 -0.58978523637E+02  0.71685036715E+02  0.10000000000E+01 0.  0.
    9000005    1    3    3    0    0 -0.16886685906E+02 -0.37069098687E+02 -0.47427962532E+03  0.47602672323E+03  0.10000000000E+01 0.  0.
<mgrwt>
<rscale>  0 0.12499567E+03</rscale>
<asrwt>0</asrwt>
<pdfrwt beam="2">  1        4 0.83151500E-01 0.12499567E+03</pdfrwt>
<pdfrwt beam="1">  1       -4 0.11118167E-02 0.12499567E+03</pdfrwt>
<totfact> 0.52348779E+03</totfact>
</mgrwt>
</event>
<event>
 5    1  0.3217527E-002  0.1249756E+03  0.7818608E-02  0.1235107E+00
         -4   -1    0    0    0  501 -0.00000000000E+00  0.00000000000E+00  0.10319205762E+04  0.10319213577E+04  0.12700000000E+01 0.  1.
          4   -1    0    0  501    0  0.00000000000E+00 -0.00000000000E+00 -0.36765707446E+01  0.38897393794E+01  0.12700000000E+01 0.  1.
         25    2    1    2    0    0  0.00000000000E+00  0.00000000000E+00  0.10282440054E+04  0.10358110971E+04  0.12497557395E+03 0.  0.
    9000005    1    3    3    0    0  0.42364066850E+02 -0.11526999061E+02  0.88255966347E+03  0.88365159732E+03  0.10000000000E+01 0.  0.
    9000005    1    3    3    0    0 -0.42364066850E+02  0.11526999061E+02  0.14568434198E+03  0.15215949975E+03  0.10000000000E+01 0.  0.
<mgrwt>
<rscale>  0 0.12497557E+03</rscale>
<asrwt>0</asrwt>
<pdfrwt beam="2">  1        4 0.58208367E-03 0.12497557E+03</pdfrwt>
<pdfrwt beam="1">  1       -4 0.15877355E+00 0.12497557E+03</pdfrwt>
<totfact> 0.29457642E+03</totfact>
</mgrwt>
</event>
<event>
 5    1  0.3217527E-002  0.1250178E+03  0.7818608E-02  0.1235042E+00
          4   -1    0    0  501    0  0.00000000000E+00  0.00000000000E+00  0.48782705489E+02  0.48799234163E+02  0.12700000000E+01 0.  1.
         -4   -1    0    0    0  501 -0.00000000000E+00 -0.00000000000E+00 -0.80062098058E+02  0.80072170230E+02  0.12700000000E+01 0.  1.
         25    2    1    2    0    0  0.00000000000E+00  0.00000000000E+00 -0.31279392568E+02  0.12887140439E+03  0.12501775262E+03 0.  0.
    9000005    1    3    3    0    0  0.61859286578E+02 -0.34047983608E+01 -0.24152314311E+02  0.66501866698E+02  0.10000000000E+01 0.  0.
    9000005    1    3    3    0    0 -0.61859286578E+02  0.34047983608E+01 -0.71270782577E+01  0.62369537695E+02  0.10000000000E+01 0.  0.
<mgrwt>
<rscale>  0 0.12501775E+03</rscale>
<asrwt>0</asrwt>
<pdfrwt beam="1">  1        4 0.75070778E-02 0.12501775E+03</pdfrwt>
<pdfrwt beam="2">  1       -4 0.12319292E-01 0.12501775E+03</pdfrwt>
<totfact> 0.10364557E+04</totfact>
</mgrwt>
</event>
<event>
 4    1  0.3217527E-002  0.1251295E+03  0.7818608E-02  0.1234867E+00
          4   -1    0    0  501    0  0.00000000000E+00  0.00000000000E+00  0.10991704471E+03  0.10992438137E+03  0.12700000000E+01 0.  1.
         -4   -1    0    0    0  501 -0.00000000000E+00 -0.00000000000E+00 -0.35591994436E+02  0.35614645413E+02  0.12700000000E+01 0.  1.
    9000005    1    1    2    0    0  0.27366609462E+02 -0.16475666405E+02 -0.25396744171E+02  0.40821238485E+02  0.10000000000E+01 0.  0.
    9000005    1    1    2    0    0 -0.27366609462E+02  0.16475666405E+02  0.99721794449E+02  0.10471778829E+03  0.10000000000E+01 0.  0.
<mgrwt>
<rscale>  0 0.12512951E+03</rscale>
<asrwt>0</asrwt>
<pdfrwt beam="1">  1        4 0.16912621E-01 0.12512951E+03</pdfrwt>
<pdfrwt beam="2">  1       -4 0.54779983E-02 0.12512951E+03</pdfrwt>
<totfact> 0.99908836E+03</totfact>
</mgrwt>
</event>
<event>
 5    1  0.3217527E-002  0.1250116E+03  0.7818608E-02  0.1235051E+00
         -4   -1    0    0    0  501 -0.00000000000E+00  0.00000000000E+00  0.16911162547E+02  0.16958782937E+02  0.12700000000E+01 0. -1.
          4   -1    0    0  501    0  0.00000000000E+00 -0.00000000000E+00 -0.23065529170E+03  0.23065878801E+03  0.12700000000E+01 0. -1.
         25    2    1    2    0    0  0.00000000000E+00  0.00000000000E+00 -0.21374412915E+03  0.24761757095E+03  0.12501163425E+03 0.  0.
    9000005    1    3    3    0    0 -0.96588233636E+01  0.17149098494E+02 -0.22436602057E+03  0.22522987287E+03  0.10000000000E+01 0.  0.
    9000005    1    3    3    0    0  0.96588233636E+01 -0.17149098494E+02  0.10621891419E+02  0.22387698078E+02  0.10000000000E+01 0.  0.
<mgrwt>
<rscale>  0 0.12501163E+03</rscale>
<asrwt>0</asrwt>
<pdfrwt beam="2">  1        4 0.35489359E-01 0.12501163E+03</pdfrwt>
<pdfrwt beam="1">  1       -4 0.26056495E-02 0.12501163E+03</pdfrwt>
<totfact> 0.82654361E+03</totfact>
</mgrwt>
</event>
<event>
 5    1  0.3217527E-002  0.1250004E+03  0.7818608E-02  0.1235069E+00
          4   -1    0    0  501    0  0.00000000000E+00  0.00000000000E+00  0.51706536197E+03  0.51706692164E+03  0.12700000000E+01 0.  1.
         -4   -1    0    0    0  501 -0.00000000000E+00 -0.00000000000E+00 -0.74997493050E+01  0.76065195482E+01  0.12700000000E+01 0.  1.
         25    2    1    2    0    0  0.00000000000E+00  0.00000000000E+00  0.50956561267E+03  0.52467344119E+03  0.12500042509E+03 0.  0.
    9000005    1    3    3    0    0 -0.40677951035E+02 -0.26959342682E+02  0.90936003392E+02  0.10320784162E+03  0.10000000000E+01 0.  0.
    9000005    1    3    3    0    0  0.40677951035E+02  0.26959342682E+02  0.41862960928E+03  0.42146559957E+03  0.10000000000E+01 0.  0.
<mgrwt>
<rscale>  0 0.12500043E+03</rscale>
<asrwt>0</asrwt>
<pdfrwt beam="1">  1        4 0.79556875E-01 0.12500043E+03</pdfrwt>
<pdfrwt beam="2">  1       -4 0.11621403E-02 0.12500043E+03</pdfrwt>
<totfact> 0.53999055E+03</totfact>
</mgrwt>
</event>
<event>
 5    1  0.3217527E-002  0.1250019E+03  0.7818608E-02  0.1235066E+00
         -4   -1    0    0    0  501 -0.00000000000E+00  0.00000000000E+00  0.18778255277E+03  0.18778684732E+03  0.12700000000E+01 0. -1.
          4   -1    0    0  501    0  0.00000000000E+00 -0.00000000000E+00 -0.20778686508E+02  0.20817461732E+02  0.12700000000E+01 0. -1.
         25    2    1    2    0    0  0.00000000000E+00  0.00000000000E+00  0.16700386626E+03  0.20860430905E+03  0.12500186561E+03 0.  0.
    9000005    1    3    3    0    0 -0.35743986101E+02 -0.55089043114E+01 -0.15482064792E+01  0.36212946751E+02  0.10000000000E+01 0.  0.
    9000005    1    3    3    0    0  0.35743986101E+02  0.55089043114E+01  0.16855207274E+03  0.17239136230E+03  0.10000000000E+01 0.  0.
<mgrwt>
<rscale>  0 0.12500187E+03</rscale>
<asrwt>0</asrwt>
<pdfrwt beam="2">  1        4 0.32000341E-02 0.12500187E+03</pdfrwt>
<pdfrwt beam="1">  1       -4 0.28892936E-01 0.12500187E+03</pdfrwt>
<totfact> 0.88700624E+03</totfact>
</mgrwt>
</event>
<event>
 5    1  0.3217527E-002  0.1249980E+03  0.7818608E-02  0.1235072E+00
         -4   -1    0    0    0  501 -0.00000000000E+00  0.00000000000E+00  0.10804415840E+04  0.10804423304E+04  0.12700000000E+01 0. -1.
          4   -1    0    0  501    0  0.00000000000E+00 -0.00000000000E+00 -0.35029987022E+01  0.37261105603E+01  0.12700000000E+01 0. -1.
         25    2    1    2    0    0  0.00000000000E+00  0.00000000000E+00  0.10769385853E+04  0.10841684410E+04  0.12499796753E+03 0.  0.
    9000005    1    3    3    0    0 -0.18408133497E+02 -0.11101264830E+02  0.29532404289E+02  0.36541214577E+02  0.10000000000E+01 0.  0.
    9000005    1    3    3    0    0  0.18408133497E+02  0.11101264830E+02  0.10474061810E+04  0.10476272264E+04  0.10000000000E+01 0.  0.
<mgrwt>
<rscale>  0 0.12499797E+03</rscale>
<asrwt>0</asrwt>
<pdfrwt beam="2">  1        4 0.55614297E-03 0.12499797E+03</pdfrwt>
<pdfrwt beam="1">  1       -4 0.16623894E+00 0.12499797E+03</pdfrwt>
<totfact> 0.27952663E+03</totfact>
</mgrwt>
</event>
<event>
 5    1  0.3217527E-002  0.1249995E+03  0.7818608E-02  0.1235070E+00
         -4   -1    0    0    0  501 -0.00000000000E+00  0.00000000000E+00  0.10147059932E+04  0.10147067880E+04  0.12700000000E+01 0.  1.
          4   -1    0    0  501    0  0.00000000000E+00 -0.00000000000E+00 -0.37440445170E+01  0.39535767788E+01  0.12700000000E+01 0.  1.
         25    2    1    2    0    0  0.00000000000E+00  0.00000000000E+00  0.10109619487E+04  0.10186603648E+04  0.12499950804E+03 0.  0.
    9000005    1    3    3    0    0 -0.49752977119E+02  0.32872160109E+02  0.65778415205E+03  0.66048234521E+03  0.10000000000E+01 0.  0.
    9000005    1    3    3    0    0  0.49752977119E+02 -0.32872160109E+02  0.35317779665E+03  0.35817801955E+03  0.10000000000E+01 0.  0.
<mgrwt>
<rscale>  0 0.12499951E+03</rscale>
<asrwt>0</asrwt>
<pdfrwt beam="2">  1        4 0.59218496E-03 0.12499951E+03</pdfrwt>
<pdfrwt beam="1">  1       -4 0.15612503E+00 0.12499951E+03</pdfrwt>
<totfact> 0.29994094E+03</totfact>
</mgrwt>
</event>
<event>
 5    1  0.3217527E-002  0.1250035E+03  0.7818608E-02  0.1235064E+00
         -4   -1    0    0    0  501 -0.00000000000E+00  0.00000000000E+00  0.12209155053E+03  0.12209815564E+03  0.12700000000E+01 0. -1.
          4   -1    0    0  501    0  0.00000000000E+00 -0.00000000000E+00 -0.31976149096E+02  0.32001359518E+02  0.12700000000E+01 0. -1.
         25    2    1    2    0    0  0.00000000000E+00  0.00000000000E+00  0.90115401437E+02  0.15409951516E+03  0.12500349994E+03 0.  0.
    9000005    1    3    3    0    0  0.28284454499E+02 -0.32038484256E+02 -0.11151279743E+02  0.44179473510E+02  0.10000000000E+01 0.  0.
    9000005    1    3    3    0    0 -0.28284454499E+02  0.32038484256E+02  0.10126668118E+03  0.10992004165E+03  0.10000000000E+01 0.  0.
<mgrwt>
<rscale>  0 0.12500350E+03</rscale>
<asrwt>0</asrwt>
<pdfrwt beam="2">  1        4 0.49218548E-02 0.12500350E+03</pdfrwt>
<pdfrwt beam="1">  1       -4 0.18785763E-01 0.12500350E+03</pdfrwt>
<totfact> 0.98484812E+03</totfact>
</mgrwt>
</event>
<event>
 5    1  0.3217527E-002  0.1250000E+03  0.7818608E-02  0.1235069E+00
          4   -1    0    0  501    0  0.00000000000E+00  0.00000000000E+00  0.71648314113E+01  0.72765176528E+01  0.12700000000E+01 0. -1.
         -4   -1    0    0    0  501 -0.00000000000E+00 -0.00000000000E+00 -0.54086900504E+03  0.54087049606E+03  0.12700000000E+01 0. -1.
         25    2    1    2    0    0  0.00000000000E+00  0.00000000000E+00 -0.53370417362E+03  0.54814701371E+03  0.12500001479E+03 0.  0.
    9000005    1    3    3    0    0  0.46912248479E+02 -0.41267996580E+02 -0.27212219491E+03  0.27920475562E+03  0.10000000000E+01 0.  0.
    9000005    1    3    3    0    0 -0.46912248479E+02  0.41267996580E+02 -0.26158197872E+03  0.26894225810E+03  0.10000000000E+01 0.  0.
<mgrwt>
<rscale>  0 0.12500001E+03</rscale>
<asrwt>0</asrwt>
<pdfrwt beam="1">  1        4 0.11109881E-02 0.12500001E+03</pdfrwt>
<pdfrwt beam="2">  1       -4 0.83219290E-01 0.12500001E+03</pdfrwt>
<totfact> 0.52313324E+03</totfact>
</mgrwt>
</event>
<event>
 5    1  0.3217527E-002  0.1249996E+03  0.7818608E-02  0.1235070E+00
          4   -1    0    0  501    0  0.00000000000E+00  0.00000000000E+00  0.75115120471E+02  0.75125855891E+02  0.12700000000E+01 0.  1.
         -4   -1    0    0    0  501 -0.00000000000E+00 -0.00000000000E+00 -0.51980981622E+02  0.51996493635E+02  0.12700000000E+01 0.  1.
         25    2    1    2    0    0  0.00000000000E+00  0.00000000000E+00  0.23134138849E+02  0.12712234953E+03  0.12499961348E+03 0.  0.
    9000005    1    3    3    0    0  0.43332850904E+02 -0.37326346954E+02  0.37178739430E+02  0.68222069817E+02  0.10000000000E+01 0.  0.
    9000005    1    3    3    0    0 -0.43332850904E+02  0.37326346954E+02 -0.14044600581E+02  0.58900279710E+02  0.10000000000E+01 0.  0.
<mgrwt>
<rscale>  0 0.12499961E+03</rscale>
<asrwt>0</asrwt>
<pdfrwt beam="1">  1        4 0.11558191E-01 0.12499961E+03</pdfrwt>
<pdfrwt beam="2">  1       -4 0.79990931E-02 0.12499961E+03</pdfrwt>
<totfact> 0.10406579E+04</totfact>
</mgrwt>
</event>
<event>
 5    1  0.3217527E-002  0.1249973E+03  0.7818608E-02  0.1235073E+00
          4   -1    0    0  501    0  0.00000000000E+00  0.00000000000E+00  0.70165200332E+02  0.70176692980E+02  0.12700000000E+01 0. -1.
         -4   -1    0    0    0  501 -0.00000000000E+00 -0.00000000000E+00 -0.55646510050E+02  0.55661000537E+02  0.12700000000E+01 0. -1.
         25    2    1    2    0    0  0.00000000000E+00  0.00000000000E+00  0.14518690281E+02  0.12583769352E+03  0.12499733094E+03 0.  0.
    9000005    1    3    3    0    0 -0.57396702938E+02  0.22157766137E+02 -0.37565732335E+01  0.61647870610E+02  0.10000000000E+01 0.  0.
    9000005    1    3    3    0    0  0.57396702938E+02 -0.22157766137E+02  0.18275263515E+02  0.64189822907E+02  0.10000000000E+01 0.  0.
<mgrwt>
<rscale>  0 0.12499733E+03</rscale>
<asrwt>0</asrwt>
<pdfrwt beam="1">  1        4 0.10796645E-01 0.12499733E+03</pdfrwt>
<pdfrwt beam="2">  1       -4 0.85630003E-02 0.12499733E+03</pdfrwt>
<totfact> 0.10435146E+04</totfact>
</mgrwt>
</event>
<event>
 5    1  0.3217527E-002  0.1249991E+03  0.7818608E-02  0.1235071E+00
         -4   -1    0    0    0  501 -0.00000000000E+00  0.00000000000E+00  0.37768740464E+03  0.37768953986E+03  0.12700000000E+01 0. -1.
          4   -1    0    0  501    0  0.00000000000E+00 -0.00000000000E+00 -0.10301239403E+02  0.10379230860E+02  0.12700000000E+01 0. -1.
         25    2    1    2    0    0  0.00000000000E+00  0.00000000000E+00  0.36738616523E+03  0.38806877072E+03  0.12499910562E+03 0.  0.
    9000005    1    3    3    0    0 -0.38547431035E+02 -0.28315291153E+02  0.30855456640E+03  0.31224122181E+03  0.10000000000E+01 0.  0.
    9000005    1    3    3    0    0  0.38547431035E+02  0.28315291153E+02  0.58831598835E+02  0.75827548912E+02  0.10000000000E+01 0.  0.
<mgrwt>
<rscale>  0 0.12499911E+03</rscale>
<asrwt>0</asrwt>
<pdfrwt beam="2">  1        4 0.15909697E-02 0.12499911E+03</pdfrwt>
<pdfrwt beam="1">  1       -4 0.58111916E-01 0.12499911E+03</pdfrwt>
<totfact> 0.65731285E+03</totfact>
</mgrwt>
</event>
<event>
 5    1  0.3217527E-002  0.1249943E+03  0.7818608E-02  0.1235078E+00
         -4   -1    0    0    0  501 -0.00000000000E+00  0.00000000000E+00  0.10973161874E+02  0.11046410345E+02  0.12700000000E+01 0. -1.
          4   -1    0    0  501    0  0.00000000000E+00 -0.00000000000E+00 -0.35469131412E+03  0.35469358778E+03  0.12700000000E+01 0. -1.
         25    2    1    2    0    0  0.00000000000E+00  0.00000000000E+00 -0.34371815224E+03  0.36573999812E+03  0.12499431205E+03 0.  0.
    9000005    1    3    3    0    0 -0.32349739257E+02  0.42360471752E+02 -0.26730311303E+03  0.27256718333E+03  0.10000000000E+01 0.  0.
    9000005    1    3    3    0    0  0.32349739257E+02 -0.42360471752E+02 -0.76415039216E+02  0.93172814787E+02  0.10000000000E+01 0.  0.
<mgrwt>
<rscale>  0 0.12499431E+03</rscale>
<asrwt>0</asrwt>
<pdfrwt beam="2">  1        4 0.54573695E-01 0.12499431E+03</pdfrwt>
<pdfrwt beam="1">  1       -4 0.16939884E-02 0.12499431E+03</pdfrwt>
<totfact> 0.68035541E+03</totfact>
</mgrwt>
</event>
<event>
 5    1  0.3217527E-002  0.1250026E+03  0.7818608E-02  0.1235065E+00
          4   -1    0    0  501    0  0.00000000000E+00  0.00000000000E+00  0.24949914513E+03  0.24950237739E+03  0.12700000000E+01 0. -1.
         -4   -1    0    0    0  501 -0.00000000000E+00 -0.00000000000E+00 -0.15627917309E+02  0.15679435558E+02  0.12700000000E+01 0. -1.
         25    2    1    2    0    0  0.00000000000E+00  0.00000000000E+00  0.23387122783E+03  0.26518181295E+03  0.12500257083E+03 0.  0.
    9000005    1    3    3    0    0  0.58402597558E+02 -0.11553534581E+02  0.15724594387E+03  0.16814170936E+03  0.10000000000E+01 0.  0.
    9000005    1    3    3    0    0 -0.58402597558E+02  0.11553534581E+02  0.76625283957E+02  0.97040103588E+02  0.10000000000E+01 0.  0.
<mgrwt>
<rscale>  0 0.12500257E+03</rscale>
<asrwt>0</asrwt>
<pdfrwt beam="1">  1        4 0.38388698E-01 0.12500257E+03</pdfrwt>
<pdfrwt beam="2">  1       -4 0.24085064E-02 0.12500257E+03</pdfrwt>
<totfact> 0.80179732E+03</totfact>
</mgrwt>
</event>
<event>
 5    1  0.3217527E-002  0.1250018E+03  0.7818608E-02  0.1235066E+00
          4   -1    0    0  501    0  0.00000000000E+00  0.00000000000E+00  0.23974964315E+01  0.27130958588E+01  0.12700000000E+01 0.  1.
         -4   -1    0    0    0  501 -0.00000000000E+00 -0.00000000000E+00 -0.15284161671E+04  0.15284166948E+04  0.12700000000E+01 0.  1.
         25    2    1    2    0    0  0.00000000000E+00  0.00000000000E+00 -0.15260186707E+04  0.15311297906E+04  0.12500180968E+03 0.  0.
    9000005    1    3    3    0    0 -0.35021012004E+02  0.25941130589E+02 -0.21440945178E+03  0.21879631293E+03  0.10000000000E+01 0.  0.
    9000005    1    3    3    0    0  0.35021012004E+02 -0.25941130589E+02 -0.13116092189E+04  0.13123334777E+04  0.10000000000E+01 0.  0.
<mgrwt>
<rscale>  0 0.12500181E+03</rscale>
<asrwt>0</asrwt>
<pdfrwt beam="1">  1        4 0.39316429E-03 0.12500181E+03</pdfrwt>
<pdfrwt beam="2">  1       -4 0.23516454E+00 0.12500181E+03</pdfrwt>
<totfact> 0.17325929E+03</totfact>
</mgrwt>
</event>
<event>
 5    1  0.3217527E-002  0.1250018E+03  0.7818608E-02  0.1235066E+00
         -4   -1    0    0    0  501 -0.00000000000E+00  0.00000000000E+00  0.23940883811E+02  0.23974545202E+02  0.12700000000E+01 0. -1.
          4   -1    0    0  501    0  0.00000000000E+00 -0.00000000000E+00 -0.16301634153E+03  0.16302128850E+03  0.12700000000E+01 0. -1.
         25    2    1    2    0    0  0.00000000000E+00  0.00000000000E+00 -0.13907545771E+03  0.18699583370E+03  0.12500183552E+03 0.  0.
    9000005    1    3    3    0    0  0.23116922078E+02  0.58812172204E+01  0.16870190925E+02  0.29233271186E+02  0.10000000000E+01 0.  0.
    9000005    1    3    3    0    0 -0.23116922078E+02 -0.58812172204E+01 -0.15594564864E+03  0.15776256252E+03  0.10000000000E+01 0.  0.
<mgrwt>
<rscale>  0 0.12500184E+03</rscale>
<asrwt>0</asrwt>
<pdfrwt beam="2">  1        4 0.25082406E-01 0.12500184E+03</pdfrwt>
<pdfrwt beam="1">  1       -4 0.36861829E-02 0.12500184E+03</pdfrwt>
<totfact> 0.92368874E+03</totfact>
</mgrwt>
</event>
<event>
 5    1  0.3217527E-002  0.1249906E+03  0.7818608E-02  0.1235084E+00
          4   -1    0    0  501    0  0.00000000000E+00  0.00000000000E+00  0.58160211697E+03  0.58160350357E+03  0.12700000000E+01 0.  1.
         -4   -1    0    0    0  501 -0.00000000000E+00 -0.00000000000E+00 -0.66538957692E+01  0.67740112864E+01  0.12700000000E+01 0.  1.
         25    2    1    2    0    0  0.00000000000E+00  0.00000000000E+00  0.57494822120E+03  0.58837751485E+03  0.12499057135E+03 0.  0.
    9000005    1    3    3    0    0 -0.18235945653E+02 -0.59362078112E+02  0.32017417617E+03  0.32614246752E+03  0.10000000000E+01 0.  0.
    9000005    1    3    3    0    0  0.18235945653E+02  0.59362078112E+02  0.25477404503E+03  0.26223504734E+03  0.10000000000E+01 0.  0.
<mgrwt>
<rscale>  0 0.12499057E+03</rscale>
<asrwt>0</asrwt>
<pdfrwt beam="1">  1        4 0.89486604E-01 0.12499057E+03</pdfrwt>
<pdfrwt beam="2">  1       -4 0.10330225E-02 0.12499057E+03</pdfrwt>
<totfact> 0.49619827E+03</totfact>
</mgrwt>
</event>
<event>
 5    1  0.3217527E-002  0.1249988E+03  0.7818608E-02  0.1235071E+00
          4   -1    0    0  501    0  0.00000000000E+00  0.00000000000E+00  0.72823300132E+03  0.72823410872E+03  0.12700000000E+01 0. -1.
         -4   -1    0    0    0  501 -0.00000000000E+00 -0.00000000000E+00 -0.52876034981E+01  0.54379822317E+01  0.12700000000E+01 0. -1.
         25    2    1    2    0    0  0.00000000000E+00  0.00000000000E+00  0.72294539782E+03  0.73367209095E+03  0.12499875527E+03 0.  0.
    9000005    1    3    3    0    0 -0.61801456143E+02 -0.90311298831E+01  0.37348844647E+03  0.37867611614E+03  0.10000000000E+01 0.  0.
    9000005    1    3    3    0    0  0.61801456143E+02  0.90311298831E+01  0.34945695134E+03  0.35499597481E+03  0.10000000000E+01 0.  0.
<mgrwt>
<rscale>  0 0.12499876E+03</rscale>
<asrwt>0</asrwt>
<pdfrwt beam="1">  1        4 0.11204751E+00 0.12499876E+03</pdfrwt>
<pdfrwt beam="2">  1       -4 0.82513019E-03 0.12499876E+03</pdfrwt>
<totfact> 0.41368665E+03</totfact>
</mgrwt>
</event>
<event>
 5    1  0.3217527E-002  0.1250009E+03  0.7818608E-02  0.1235068E+00
         -4   -1    0    0    0  501 -0.00000000000E+00  0.00000000000E+00  0.94586073167E+01  0.95434874324E+01  0.12700000000E+01 0.  1.
          4   -1    0    0  501    0  0.00000000000E+00 -0.00000000000E+00 -0.41105863469E+03  0.41106059658E+03  0.12700000000E+01 0.  1.
         25    2    1    2    0    0  0.00000000000E+00  0.00000000000E+00 -0.40160002738E+03  0.42060408401E+03  0.12500085397E+03 0.  0.
    9000005    1    3    3    0    0  0.35579111258E+02 -0.62756392414E+00 -0.37365551016E+03  0.37534744872E+03  0.10000000000E+01 0.  0.
    9000005    1    3    3    0    0 -0.35579111258E+02  0.62756392414E+00 -0.27944517222E+02  0.45256635284E+02  0.10000000000E+01 0.  0.
<mgrwt>
<rscale>  0 0.12500085E+03</rscale>
<asrwt>0</asrwt>
<pdfrwt beam="2">  1        4 0.63246456E-01 0.12500085E+03</pdfrwt>
<pdfrwt beam="1">  1       -4 0.14618508E-02 0.12500085E+03</pdfrwt>
<totfact> 0.62595834E+03</totfact>
</mgrwt>
</event>
<event>
 5    1  0.3217527E-002  0.1249929E+03  0.7818608E-02  0.1235080E+00
         -4   -1    0    0    0  501 -0.00000000000E+00  0.00000000000E+00  0.34648733031E+03  0.34648965781E+03  0.12700000000E+01 0.  1.
          4   -1    0    0  501    0  0.00000000000E+00 -0.00000000000E+00 -0.11234434269E+02  0.11305990153E+02  0.12700000000E+01 0.  1.
         25    2    1    2    0    0  0.00000000000E+00  0.00000000000E+00  0.33525289604E+03  0.35779564796E+03  0.12499288537E+03 0.  0.
    9000005    1    3    3    0    0 -0.71938996623E+01 -0.61680171987E+02  0.18758414911E+03  0.19759809920E+03  0.10000000000E+01 0.  0.
    9000005    1    3    3    0    0  0.71938996623E+01  0.61680171987E+02  0.14766874693E+03  0.16019754876E+03  0.10000000000E+01 0.  0.
<mgrwt>
<rscale>  0 0.12499289E+03</rscale>
<asrwt>0</asrwt>
<pdfrwt beam="2">  1        4 0.17340575E-02 0.12499289E+03</pdfrwt>
<pdfrwt beam="1">  1       -4 0.53311435E-01 0.12499289E+03</pdfrwt>
<totfact> 0.68886202E+03</totfact>
</mgrwt>
</event>
<event>
 5    1  0.3217527E-002  0.1249981E+03  0.7818608E-02  0.1235072E+00
         -4   -1    0    0    0  501 -0.00000000000E+00  0.00000000000E+00  0.10986600357E+01  0.16792718285E+01  0.12700000000E+01 0.  1.
          4   -1    0    0  501    0  0.00000000000E+00 -0.00000000000E+00 -0.28116781389E+04  0.28116784257E+04  0.12700000000E+01 0.  1.
         25    2    1    2    0    0  0.00000000000E+00  0.00000000000E+00 -0.28105794789E+04  0.28133576976E+04  0.12499810939E+03 0.  0.
    9000005    1    3    3    0    0 -0.19190676850E+02 -0.23158227568E+02 -0.26381721931E+04  0.26383438188E+04  0.10000000000E+01 0.  0.
    9000005    1    3    3    0    0  0.19190676850E+02  0.23158227568E+02 -0.17240728578E+03  0.17501387880E+03  0.10000000000E+01 0.  0.
<mgrwt>
<rscale>  0 0.12499811E+03</rscale>
<asrwt>0</asrwt>
<pdfrwt beam="2">  1        4 0.43260600E+00 0.12499811E+03</pdfrwt>
<pdfrwt beam="1">  1       -4 0.21371138E-03 0.12499811E+03</pdfrwt>
<totfact> 0.26487204E+02</totfact>
</mgrwt>
</event>
<event>
 5    1  0.3217527E-002  0.1250012E+03  0.7818608E-02  0.1235067E+00
         -4   -1    0    0    0  501 -0.00000000000E+00  0.00000000000E+00  0.10891970140E+03  0.10892710522E+03  0.12700000000E+01 0. -1.
          4   -1    0    0  501    0  0.00000000000E+00 -0.00000000000E+00 -0.35844380920E+02  0.35866872508E+02  0.12700000000E+01 0. -1.
         25    2    1    2    0    0  0.00000000000E+00  0.00000000000E+00  0.73075320476E+02  0.14479397773E+03  0.12500117409E+03 0.  0.
    9000005    1    3    3    0    0  0.34587538707E+01 -0.49941338809E+02  0.79866782064E+02  0.94264538283E+02  0.10000000000E+01 0.  0.
    9000005    1    3    3    0    0 -0.34587538707E+01  0.49941338809E+02 -0.67914615883E+01  0.50529439448E+02  0.10000000000E+01 0.  0.
<mgrwt>
<rscale>  0 0.12500117E+03</rscale>
<asrwt>0</asrwt>
<pdfrwt beam="2">  1        4 0.55168200E-02 0.12500117E+03</pdfrwt>
<pdfrwt beam="1">  1       -4 0.16759176E-01 0.12500117E+03</pdfrwt>
<totfact> 0.10034911E+04</totfact>
</mgrwt>
</event>
<event>
 5    1  0.3217527E-002  0.1249680E+03  0.7818608E-02  0.1235119E+00
          4   -1    0    0  501    0  0.00000000000E+00  0.00000000000E+00  0.53715235209E+02  0.53730246543E+02  0.12700000000E+01 0.  1.
         -4   -1    0    0    0  501 -0.00000000000E+00 -0.00000000000E+00 -0.72653461732E+02  0.72664560837E+02  0.12700000000E+01 0.  1.
         25    2    1    2    0    0  0.00000000000E+00  0.00000000000E+00 -0.18938226523E+02  0.12639480738E+03  0.12496795953E+03 0.  0.
    9000005    1    3    3    0    0  0.10405733966E+02 -0.29358881186E+02 -0.64244871841E+02  0.71404669047E+02  0.10000000000E+01 0.  0.
    9000005    1    3    3    0    0 -0.10405733966E+02  0.29358881186E+02  0.45306645318E+02  0.54990138332E+02  0.10000000000E+01 0.  0.
<mgrwt>
<rscale>  0 0.12496796E+03</rscale>
<asrwt>0</asrwt>
<pdfrwt beam="1">  1        4 0.82658908E-02 0.12496796E+03</pdfrwt>
<pdfrwt beam="2">  1       -4 0.11179464E-01 0.12496796E+03</pdfrwt>
<totfact> 0.10429864E+04</totfact>
</mgrwt>
</event>
<event>
 5    1  0.3217527E-002  0.1250043E+03  0.7818608E-02  0.1235063E+00
          4   -1    0    0  501    0  0.00000000000E+00  0.00000000000E+00  0.81454977846E+02  0.81464877806E+02  0.12700000000E+01 0. -1.
         -4   -1    0    0    0  501 -0.00000000000E+00 -0.00000000000E+00 -0.47937979186E+02  0.47954799013E+02  0.12700000000E+01 0. -1.
         25    2    1    2    0    0  0.00000000000E+00  0.00000000000E+00  0.33516998660E+02  0.12941967682E+03  0.12500425412E+03 0.  0.
    9000005    1    3    3    0    0  0.30442325600E+02 -0.93613723395E+01  0.72427123140E+02  0.79126851614E+02  0.10000000000E+01 0.  0.
    9000005    1    3    3    0    0 -0.30442325600E+02  0.93613723395E+01 -0.38910124480E+02  0.50292825205E+02  0.10000000000E+01 0.  0.
<mgrwt>
<rscale>  0 0.12500425E+03</rscale>
<asrwt>0</asrwt>
<pdfrwt beam="1">  1        4 0.12533590E-01 0.12500425E+03</pdfrwt>
<pdfrwt beam="2">  1       -4 0.73771291E-02 0.12500425E+03</pdfrwt>
<totfact> 0.10355943E+04</totfact>
</mgrwt>
</event>
<event>
 5    1  0.3217527E-002  0.1250013E+03  0.7818608E-02  0.1235067E+00
          4   -1    0    0  501    0  0.00000000000E+00  0.00000000000E+00  0.30647181856E+02  0.30673484571E+02  0.12700000000E+01 0. -1.
         -4   -1    0    0    0  501 -0.00000000000E+00 -0.00000000000E+00 -0.12737717904E+03  0.12738351008E+03  0.12700000000E+01 0. -1.
         25    2    1    2    0    0  0.00000000000E+00  0.00000000000E+00 -0.96729997185E+02  0.15805699465E+03  0.12500128481E+03 0.  0.
    9000005    1    3    3    0    0 -0.52264838200E+02 -0.16956088072E+02 -0.86006513387E+02  0.10206489396E+03  0.10000000000E+01 0.  0.
    9000005    1    3    3    0    0  0.52264838200E+02  0.16956088072E+02 -0.10723483798E+02  0.55992100689E+02  0.10000000000E+01 0.  0.
<mgrwt>
<rscale>  0 0.12500128E+03</rscale>
<asrwt>0</asrwt>
<pdfrwt beam="1">  1        4 0.47174614E-02 0.12500128E+03</pdfrwt>
<pdfrwt beam="2">  1       -4 0.19598999E-01 0.12500128E+03</pdfrwt>
<totfact> 0.97715871E+03</totfact>
</mgrwt>
</event>
<event>
 4    1  0.3217527E-002  0.1249175E+03  0.7818608E-02  0.1235198E+00
         -4   -1    0    0    0  501 -0.00000000000E+00  0.00000000000E+00  0.29347756309E+02  0.29375222559E+02  0.12700000000E+01 0.  1.
          4   -1    0    0  501    0  0.00000000000E+00 -0.00000000000E+00 -0.13283387859E+03  0.13283994957E+03  0.12700000000E+01 0.  1.
    9000005    1    1    2    0    0 -0.12039388969E+01 -0.83119797984E+01 -0.13210352890E+03  0.13237401869E+03  0.10000000000E+01 0.  0.
    9000005    1    1    2    0    0  0.12039388969E+01  0.83119797984E+01  0.28617406616E+02  0.29841153437E+02  0.10000000000E+01 0.  0.
<mgrwt>
<rscale>  0 0.12491751E+03</rscale>
<asrwt>0</asrwt>
<pdfrwt beam="2">  1        4 0.20438561E-01 0.12491751E+03</pdfrwt>
<pdfrwt beam="1">  1       -4 0.45176193E-02 0.12491751E+03</pdfrwt>
<totfact> 0.97097282E+03</totfact>
</mgrwt>
</event>
<event>
 5    1  0.3217527E-002  0.1249980E+03  0.7818608E-02  0.1235072E+00
         -4   -1    0    0    0  501 -0.00000000000E+00  0.00000000000E+00  0.78995803412E+01  0.80010167833E+01  0.12700000000E+01 0.  1.
          4   -1    0    0  501    0  0.00000000000E+00 -0.00000000000E+00 -0.49121548854E+03  0.49121713028E+03  0.12700000000E+01 0.  1.
         25    2    1    2    0    0  0.00000000000E+00  0.00000000000E+00 -0.48331590820E+03  0.49921814706E+03  0.12499796494E+03 0.  0.
    9000005    1    3    3    0    0  0.10854679272E+02 -0.58842987970E+02 -0.31363540211E+03  0.31929373115E+03  0.10000000000E+01 0.  0.
    9000005    1    3    3    0    0 -0.10854679272E+02  0.58842987970E+02 -0.16968050608E+03  0.17992441591E+03  0.10000000000E+01 0.  0.
<mgrwt>
<rscale>  0 0.12499796E+03</rscale>
<asrwt>0</asrwt>
<pdfrwt beam="2">  1        4 0.75579519E-01 0.12499796E+03</pdfrwt>
<pdfrwt beam="1">  1       -4 0.12232495E-02 0.12499796E+03</pdfrwt>
<totfact> 0.55927593E+03</totfact>
</mgrwt>
</event>
<event>
 5    1  0.3217527E-002  0.1250002E+03  0.7818608E-02  0.1235069E+00
          4   -1    0    0  501    0  0.00000000000E+00  0.00000000000E+00  0.72793043637E+03  0.72793154424E+03  0.12700000000E+01 0. -1.
         -4   -1    0    0    0  501 -0.00000000000E+00 -0.00000000000E+00 -0.52899889799E+01  0.54403017754E+01  0.12700000000E+01 0. -1.
         25    2    1    2    0    0  0.00000000000E+00  0.00000000000E+00  0.72264044739E+03  0.73337184601E+03  0.12500019327E+03 0.  0.
    9000005    1    3    3    0    0 -0.34712632765E+02  0.15724228111E+02  0.65190054881E+03  0.65301419875E+03  0.10000000000E+01 0.  0.
    9000005    1    3    3    0    0  0.34712632765E+02 -0.15724228111E+02  0.70739898579E+02  0.80357647265E+02  0.10000000000E+01 0.  0.
<mgrwt>
<rscale>  0 0.12500019E+03</rscale>
<asrwt>0</asrwt>
<pdfrwt beam="1">  1        4 0.11200086E+00 0.12500019E+03</pdfrwt>
<pdfrwt beam="2">  1       -4 0.82549287E-03 0.12500019E+03</pdfrwt>
<totfact> 0.41382223E+03</totfact>
</mgrwt>
</event>
<event>
 5    1  0.3217527E-002  0.1250016E+03  0.7818608E-02  0.1235067E+00
         -4   -1    0    0    0  501 -0.00000000000E+00  0.00000000000E+00  0.33569949234E+03  0.33570189463E+03  0.12700000000E+01 0.  1.
          4   -1    0    0  501    0  0.00000000000E+00 -0.00000000000E+00 -0.11599346983E+02  0.11668665323E+02  0.12700000000E+01 0.  1.
         25    2    1    2    0    0  0.00000000000E+00  0.00000000000E+00  0.32410014536E+03  0.34737055995E+03  0.12500160679E+03 0.  0.
    9000005    1    3    3    0    0 -0.38941522002E+02 -0.23704963835E+02  0.43269705400E+02  0.62862030286E+02  0.10000000000E+01 0.  0.
    9000005    1    3    3    0    0  0.38941522002E+02  0.23704963835E+02  0.28083043996E+03  0.28450852967E+03  0.10000000000E+01 0.  0.
<mgrwt>
<rscale>  0 0.12500161E+03</rscale>
<asrwt>0</asrwt>
<pdfrwt beam="2">  1        4 0.17900321E-02 0.12500161E+03</pdfrwt>
<pdfrwt beam="1">  1       -4 0.51651586E-01 0.12500161E+03</pdfrwt>
<totfact> 0.70012311E+03</totfact>
</mgrwt>
</event>
<event>
 5    1  0.3217527E-002  0.1249989E+03  0.7818608E-02  0.1235071E+00
          4   -1    0    0  501    0  0.00000000000E+00  0.00000000000E+00  0.67959977487E+03  0.67960096153E+03  0.12700000000E+01 0. -1.
         -4   -1    0    0    0  501 -0.00000000000E+00 -0.00000000000E+00 -0.56764071528E+01  0.58167429171E+01  0.12700000000E+01 0. -1.
         25    2    1    2    0    0  0.00000000000E+00  0.00000000000E+00  0.67392336772E+03  0.68541770444E+03  0.12499889602E+03 0.  0.
    9000005    1    3    3    0    0  0.37586476442E+02 -0.25354040669E+02  0.57278637347E+03  0.57457880245E+03  0.10000000000E+01 0.  0.
    9000005    1    3    3    0    0 -0.37586476442E+02  0.25354040669E+02  0.10113699425E+03  0.11083890200E+03  0.10000000000E+01 0.  0.
<mgrwt>
<rscale>  0 0.12499890E+03</rscale>
<asrwt>0</asrwt>
<pdfrwt beam="1">  1        4 0.10456471E+00 0.12499890E+03</pdfrwt>
<pdfrwt beam="2">  1       -4 0.88417965E-03 0.12499890E+03</pdfrwt>
<totfact> 0.43868789E+03</totfact>
</mgrwt>
</event>
<event>
 5    1  0.3217527E-002  0.1250038E+03  0.7818608E-02  0.1235063E+00
         -4   -1    0    0    0  501 -0.00000000000E+00  0.00000000000E+00  0.53492789013E+02  0.53507862753E+02  0.12700000000E+01 0.  1.
          4   -1    0    0  501    0  0.00000000000E+00 -0.00000000000E+00 -0.72997372861E+02  0.73008419683E+02  0.12700000000E+01 0.  1.
         25    2    1    2    0    0  0.00000000000E+00  0.00000000000E+00 -0.19504583848E+02  0.12651628244E+03  0.12500376367E+03 0.  0.
    9000005    1    3    3    0    0 -0.18138777908E+02  0.50829751192E+02  0.22137788082E+02  0.58341756328E+02  0.10000000000E+01 0.  0.
    9000005    1    3    3    0    0  0.18138777908E+02 -0.50829751192E+02 -0.41642371930E+02  0.68174526109E+02  0.10000000000E+01 0.  0.
<mgrwt>
<rscale>  0 0.12500376E+03</rscale>
<asrwt>0</asrwt>
<pdfrwt beam="2">  1        4 0.11232374E-01 0.12500376E+03</pdfrwt>
<pdfrwt beam="1">  1       -4 0.82316692E-02 0.12500376E+03</pdfrwt>
<totfact> 0.10418788E+04</totfact>
</mgrwt>
</event>
<event>
 5    1  0.3217527E-002  0.1249999E+03  0.7818608E-02  0.1235069E+00
         -4   -1    0    0    0  501 -0.00000000000E+00  0.00000000000E+00  0.12641871135E+02  0.12705502973E+02  0.12700000000E+01 0.  1.
          4   -1    0    0  501    0  0.00000000000E+00 -0.00000000000E+00 -0.30815206340E+03  0.30815468044E+03  0.12700000000E+01 0.  1.
         25    2    1    2    0    0  0.00000000000E+00  0.00000000000E+00 -0.29551019227E+03  0.32086018341E+03  0.12499993427E+03 0.  0.
    9000005    1    3    3    0    0  0.14203758955E+01  0.57581816592E+02 -0.85534639094E+02  0.10312544572E+03  0.10000000000E+01 0.  0.
    9000005    1    3    3    0    0 -0.14203758955E+01 -0.57581816592E+02 -0.20997555317E+03  0.21773473769E+03  0.10000000000E+01 0.  0.
<mgrwt>
<rscale>  0 0.12499993E+03</rscale>
<asrwt>0</asrwt>
<pdfrwt beam="2">  1        4 0.47413100E-01 0.12499993E+03</pdfrwt>
<pdfrwt beam="1">  1       -4 0.19499995E-02 0.12499993E+03</pdfrwt>
<totfact> 0.73054043E+03</totfact>
</mgrwt>
</event>
<event>
 5    1  0.3217527E-002  0.1250005E+03  0.7818608E-02  0.1235068E+00
         -4   -1    0    0    0  501 -0.00000000000E+00  0.00000000000E+00  0.17538197824E+02  0.17584120192E+02  0.12700000000E+01 0.  1.
          4   -1    0    0  501    0  0.00000000000E+00 -0.00000000000E+00 -0.22239096792E+03  0.22239459416E+03  0.12700000000E+01 0.  1.
         25    2    1    2    0    0  0.00000000000E+00  0.00000000000E+00 -0.20485277009E+03  0.23997871435E+03  0.12500050371E+03 0.  0.
    9000005    1    3    3    0    0 -0.56450465814E+02  0.21644571651E+02 -0.72062902256E+02  0.94070210237E+02  0.10000000000E+01 0.  0.
    9000005    1    3    3    0    0  0.56450465814E+02 -0.21644571651E+02 -0.13278986784E+03  0.14590850411E+03  0.10000000000E+01 0.  0.
<mgrwt>
<rscale>  0 0.12500050E+03</rscale>
<asrwt>0</asrwt>
<pdfrwt beam="2">  1        4 0.34217805E-01 0.12500050E+03</pdfrwt>
<pdfrwt beam="1">  1       -4 0.27019959E-02 0.12500050E+03</pdfrwt>
<totfact> 0.83799597E+03</totfact>
</mgrwt>
</event>
<event>
 5    1  0.3217527E-002  0.1250003E+03  0.7818608E-02  0.1235069E+00
         -4   -1    0    0    0  501 -0.00000000000E+00  0.00000000000E+00  0.27888875998E+01  0.30644402498E+01  0.12700000000E+01 0.  1.
          4   -1    0    0  501    0  0.00000000000E+00 -0.00000000000E+00 -0.13344416665E+04  0.13344422708E+04  0.12700000000E+01 0.  1.
         25    2    1    2    0    0  0.00000000000E+00  0.00000000000E+00 -0.13316527789E+04  0.13375067111E+04  0.12500031458E+03 0.  0.
    9000005    1    3    3    0    0 -0.50513999007E+01 -0.53821417001E+02 -0.33034887988E+03  0.33474414709E+03  0.10000000000E+01 0.  0.
    9000005    1    3    3    0    0  0.50513999007E+01  0.53821417001E+02 -0.10013038990E+04  0.10027625640E+04  0.10000000000E+01 0.  0.
<mgrwt>
<rscale>  0 0.12500031E+03</rscale>
<asrwt>0</asrwt>
<pdfrwt beam="2">  1        4 0.20531947E+00 0.12500031E+03</pdfrwt>
<pdfrwt beam="1">  1       -4 0.45030354E-03 0.12500031E+03</pdfrwt>
<totfact> 0.21360142E+03</totfact>
</mgrwt>
</event>
<event>
 5    1  0.3217527E-002  0.1250016E+03  0.7818608E-02  0.1235067E+00
         -4   -1    0    0    0  501 -0.00000000000E+00  0.00000000000E+00  0.38581460811E+03  0.38581669836E+03  0.12700000000E+01 0.  1.
          4   -1    0    0  501    0  0.00000000000E+00 -0.00000000000E+00 -0.10082996477E+02  0.10162662936E+02  0.12700000000E+01 0.  1.
         25    2    1    2    0    0  0.00000000000E+00  0.00000000000E+00  0.37573161164E+03  0.39597936130E+03  0.12500164235E+03 0.  0.
    9000005    1    3    3    0    0  0.63074763854E+01 -0.54466486764E+01  0.38406201253E+03  0.38415371885E+03  0.10000000000E+01 0.  0.
    9000005    1    3    3    0    0 -0.63074763854E+01  0.54466486764E+01 -0.83304008934E+01  0.11825642443E+02  0.10000000000E+01 0.  0.
<mgrwt>
<rscale>  0 0.12500164E+03</rscale>
<asrwt>0</asrwt>
<pdfrwt beam="2">  1        4 0.15575191E-02 0.12500164E+03</pdfrwt>
<pdfrwt beam="1">  1       -4 0.59362388E-01 0.12500164E+03</pdfrwt>
<totfact> 0.64943359E+03</totfact>
</mgrwt>
</event>
<event>
 5    1  0.3217527E-002  0.1250024E+03  0.7818608E-02  0.1235065E+00
         -4   -1    0    0    0  501 -0.00000000000E+00  0.00000000000E+00  0.88823203132E+02  0.88832281940E+02  0.12700000000E+01 0. -1.
          4   -1    0    0  501    0  0.00000000000E+00 -0.00000000000E+00 -0.43959026455E+02  0.43977368121E+02  0.12700000000E+01 0. -1.
         25    2    1    2    0    0  0.00000000000E+00  0.00000000000E+00  0.44864176678E+02  0.13280965006E+03  0.12500243518E+03 0.  0.
    9000005    1    3    3    0    0  0.22118756347E+02  0.51234341076E+02  0.52317256309E+02  0.76500277095E+02  0.10000000000E+01 0.  0.
    9000005    1    3    3    0    0 -0.22118756347E+02 -0.51234341076E+02 -0.74530796316E+01  0.56309372966E+02  0.10000000000E+01 0.  0.
<mgrwt>
<rscale>  0 0.12500244E+03</rscale>
<asrwt>0</asrwt>
<pdfrwt beam="2">  1        4 0.67650365E-02 0.12500244E+03</pdfrwt>
<pdfrwt beam="1">  1       -4 0.13667217E-01 0.12500244E+03</pdfrwt>
<totfact> 0.10283882E+04</totfact>
</mgrwt>
</event>
<event>
 5    1  0.3217527E-002  0.1250033E+03  0.7818608E-02  0.1235064E+00
          4   -1    0    0  501    0  0.00000000000E+00  0.00000000000E+00  0.62542240936E+02  0.62555134092E+02  0.12700000000E+01 0.  1.
         -4   -1    0    0    0  501 -0.00000000000E+00 -0.00000000000E+00 -0.62435253611E+02  0.62448168856E+02  0.12700000000E+01 0.  1.
         25    2    1    2    0    0  0.00000000000E+00  0.00000000000E+00  0.10698732486E+00  0.12500330295E+03  0.12500325716E+03 0.  0.
    9000005    1    3    3    0    0 -0.11486548372E+02  0.11540445168E+02  0.60388670582E+02  0.62553290903E+02  0.10000000000E+01 0.  0.
    9000005    1    3    3    0    0  0.11486548372E+02 -0.11540445168E+02 -0.60281683257E+02  0.62450012045E+02  0.10000000000E+01 0.  0.
<mgrwt>
<rscale>  0 0.12500326E+03</rscale>
<asrwt>0</asrwt>
<pdfrwt beam="1">  1        4 0.96238685E-02 0.12500326E+03</pdfrwt>
<pdfrwt beam="2">  1       -4 0.96074088E-02 0.12500326E+03</pdfrwt>
<totfact> 0.10452021E+04</totfact>
</mgrwt>
</event>
<event>
 5    1  0.3217527E-002  0.1249899E+03  0.7818608E-02  0.1235085E+00
          4   -1    0    0  501    0  0.00000000000E+00  0.00000000000E+00  0.11762515341E+03  0.11763200931E+03  0.12700000000E+01 0. -1.
         -4   -1    0    0    0  501 -0.00000000000E+00 -0.00000000000E+00 -0.33183975385E+02  0.33208268885E+02  0.12700000000E+01 0. -1.
         25    2    1    2    0    0  0.00000000000E+00  0.00000000000E+00  0.84441178023E+02  0.15084027819E+03  0.12498990751E+03 0.  0.
    9000005    1    3    3    0    0 -0.49742477582E+02  0.25688063674E+02  0.87233846259E+01  0.56668228582E+02  0.10000000000E+01 0.  0.
    9000005    1    3    3    0    0  0.49742477582E+02 -0.25688063674E+02  0.75717793397E+02  0.94172049613E+02  0.10000000000E+01 0.  0.
<mgrwt>
<rscale>  0 0.12498991E+03</rscale>
<asrwt>0</asrwt>
<pdfrwt beam="1">  1        4 0.18098574E-01 0.12498991E+03</pdfrwt>
<pdfrwt beam="2">  1       -4 0.51076230E-02 0.12498991E+03</pdfrwt>
<totfact> 0.99158983E+03</totfact>
</mgrwt>
</event>
<event>
 5    1  0.3217527E-002  0.1249969E+03  0.7818608E-02  0.1235074E+00
         -4   -1    0    0    0  501 -0.00000000000E+00  0.00000000000E+00  0.30455611751E+02  0.30482079771E+02  0.12700000000E+01 0.  1.
          4   -1    0    0  501    0  0.00000000000E+00 -0.00000000000E+00 -0.12816873337E+03  0.12817502531E+03  0.12700000000E+01 0.  1.
         25    2    1    2    0    0  0.00000000000E+00  0.00000000000E+00 -0.97713121617E+02  0.15865710508E+03  0.12499689139E+03 0.  0.
    9000005    1    3    3    0    0  0.22266131531E+01  0.55254870312E+02 -0.85796936193E+02  0.10207924745E+03  0.10000000000E+01 0.  0.
    9000005    1    3    3    0    0 -0.22266131531E+01 -0.55254870312E+02 -0.11916185424E+02  0.56577857633E+02  0.10000000000E+01 0.  0.
<mgrwt>
<rscale>  0 0.12499689E+03</rscale>
<asrwt>0</asrwt>
<pdfrwt beam="2">  1        4 0.19720786E-01 0.12499689E+03</pdfrwt>
<pdfrwt beam="1">  1       -4 0.46879988E-02 0.12499689E+03</pdfrwt>
<totfact> 0.97609132E+03</totfact>
</mgrwt>
</event>
<event>
 5    1  0.3217527E-002  0.1250076E+03  0.7818608E-02  0.1235057E+00
         -4   -1    0    0    0  501 -0.00000000000E+00  0.00000000000E+00  0.97414829000E+02  0.97423107162E+02  0.12700000000E+01 0. -1.
          4   -1    0    0  501    0  0.00000000000E+00 -0.00000000000E+00 -0.40083945774E+02  0.40104059755E+02  0.12700000000E+01 0. -1.
         25    2    1    2    0    0  0.00000000000E+00  0.00000000000E+00  0.57330883226E+02  0.13752716692E+03  0.12500756565E+03 0.  0.
    9000005    1    3    3    0    0 -0.33765119084E+02 -0.21354560388E+02 -0.24206186657E+02  0.46723013480E+02  0.10000000000E+01 0.  0.
    9000005    1    3    3    0    0  0.33765119084E+02  0.21354560388E+02  0.81537069883E+02  0.90804153436E+02  0.10000000000E+01 0.  0.
<mgrwt>
<rscale>  0 0.12500757E+03</rscale>
<asrwt>0</asrwt>
<pdfrwt beam="2">  1        4 0.61689449E-02 0.12500757E+03</pdfrwt>
<pdfrwt beam="1">  1       -4 0.14989081E-01 0.12500757E+03</pdfrwt>
<totfact> 0.10183338E+04</totfact>
</mgrwt>
</event>
<event>
 5    1  0.3217527E-002  0.1249989E+03  0.7818608E-02  0.1235071E+00
          4   -1    0    0  501    0  0.00000000000E+00  0.00000000000E+00  0.24151362503E+03  0.24151696415E+03  0.12700000000E+01 0.  1.
         -4   -1    0    0    0  501 -0.00000000000E+00 -0.00000000000E+00 -0.16145375636E+02  0.16195247897E+02  0.12700000000E+01 0.  1.
         25    2    1    2    0    0  0.00000000000E+00  0.00000000000E+00  0.22536824939E+03  0.25771221205E+03  0.12499894562E+03 0.  0.
    9000005    1    3    3    0    0 -0.51495819922E+01 -0.46217664844E+02  0.19874914525E+03  0.20411960581E+03  0.10000000000E+01 0.  0.
    9000005    1    3    3    0    0  0.51495819922E+01  0.46217664844E+02  0.26619104141E+02  0.53592606240E+02  0.10000000000E+01 0.  0.
<mgrwt>
<rscale>  0 0.12499895E+03</rscale>
<asrwt>0</asrwt>
<pdfrwt beam="1">  1        4 0.37160033E-01 0.12499895E+03</pdfrwt>
<pdfrwt beam="2">  1       -4 0.24879973E-02 0.12499895E+03</pdfrwt>
<totfact> 0.81230103E+03</totfact>
</mgrwt>
</event>
<event>
 5    1  0.3217527E-002  0.1249986E+03  0.7818608E-02  0.1235071E+00
         -4   -1    0    0    0  501 -0.00000000000E+00  0.00000000000E+00  0.73790498851E+02  0.73801426955E+02  0.12700000000E+01 0.  1.
          4   -1    0    0  501    0  0.00000000000E+00 -0.00000000000E+00 -0.52913369432E+02  0.52928608188E+02  0.12700000000E+01 0.  1.
         25    2    1    2    0    0  0.00000000000E+00  0.00000000000E+00  0.20877129418E+02  0.12673003514E+03  0.12499858909E+03 0.  0.
    9000005    1    3    3    0    0  0.36015095876E+02 -0.23780008704E+02  0.56259569281E+02  0.70913433710E+02  0.10000000000E+01 0.  0.
    9000005    1    3    3    0    0 -0.36015095876E+02  0.23780008704E+02 -0.35382439862E+02  0.55816601433E+02  0.10000000000E+01 0.  0.
<mgrwt>
<rscale>  0 0.12499859E+03</rscale>
<asrwt>0</asrwt>
<pdfrwt beam="2">  1        4 0.81425312E-02 0.12499859E+03</pdfrwt>
<pdfrwt beam="1">  1       -4 0.11354397E-01 0.12499859E+03</pdfrwt>
<totfact> 0.10415348E+04</totfact>
</mgrwt>
</event>
<event>
 5    1  0.3217527E-002  0.1249988E+03  0.7818608E-02  0.1235071E+00
         -4   -1    0    0    0  501 -0.00000000000E+00  0.00000000000E+00  0.10989821355E+03  0.10990555145E+03  0.12700000000E+01 0. -1.
          4   -1    0    0  501    0  0.00000000000E+00 -0.00000000000E+00 -0.35523695080E+02  0.35546389579E+02  0.12700000000E+01 0. -1.
         25    2    1    2    0    0  0.00000000000E+00  0.00000000000E+00  0.74374518465E+02  0.14545194103E+03  0.12499879261E+03 0.  0.
    9000005    1    3    3    0    0  0.15252188203E+02  0.42508128131E+02 -0.13072855352E+02  0.47026266589E+02  0.10000000000E+01 0.  0.
    9000005    1    3    3    0    0 -0.15252188203E+02 -0.42508128131E+02  0.87447373818E+02  0.98425674444E+02  0.10000000000E+01 0.  0.
<mgrwt>
<rscale>  0 0.12499879E+03</rscale>
<asrwt>0</asrwt>
<pdfrwt beam="2">  1        4 0.54674942E-02 0.12499879E+03</pdfrwt>
<pdfrwt beam="1">  1       -4 0.16909727E-01 0.12499879E+03</pdfrwt>
<totfact> 0.10022087E+04</totfact>
</mgrwt>
</event>
<event>
 5    1  0.3217527E-002  0.1250126E+03  0.7818608E-02  0.1235050E+00
          4   -1    0    0  501    0  0.00000000000E+00  0.00000000000E+00  0.66777164821E+03  0.66777285588E+03  0.12700000000E+01 0.  1.
         -4   -1    0    0    0  501 -0.00000000000E+00 -0.00000000000E+00 -0.57807137061E+01  0.59185767675E+01  0.12700000000E+01 0.  1.
         25    2    1    2    0    0  0.00000000000E+00  0.00000000000E+00  0.66199093450E+03  0.67369143265E+03  0.12501259561E+03 0.  0.
    9000005    1    3    3    0    0  0.61577548559E+02  0.13193002516E+01  0.38815488662E+03  0.39301240572E+03  0.10000000000E+01 0.  0.
    9000005    1    3    3    0    0 -0.61577548559E+02 -0.13193002516E+01  0.27383604788E+03  0.28067902693E+03  0.10000000000E+01 0.  0.
<mgrwt>
<rscale>  0 0.12501260E+03</rscale>
<asrwt>0</asrwt>
<pdfrwt beam="1">  1        4 0.10274477E+00 0.12501260E+03</pdfrwt>
<pdfrwt beam="2">  1       -4 0.90003856E-03 0.12501260E+03</pdfrwt>
<totfact> 0.44500086E+03</totfact>
</mgrwt>
</event>
<event>
 5    1  0.3217527E-002  0.1250002E+03  0.7818608E-02  0.1235069E+00
         -4   -1    0    0    0  501 -0.00000000000E+00  0.00000000000E+00  0.39741153360E+03  0.39741356286E+03  0.12700000000E+01 0.  1.
          4   -1    0    0  501    0  0.00000000000E+00 -0.00000000000E+00 -0.97861753309E+01  0.98682383233E+01  0.12700000000E+01 0.  1.
         25    2    1    2    0    0  0.00000000000E+00  0.00000000000E+00  0.38762535827E+03  0.40728180118E+03  0.12500018878E+03 0.  0.
    9000005    1    3    3    0    0 -0.60511754439E+02 -0.50507092177E+01  0.14569640771E+03  0.15784684130E+03  0.10000000000E+01 0.  0.
    9000005    1    3    3    0    0  0.60511754439E+02  0.50507092177E+01  0.24192895056E+03  0.24943495988E+03  0.10000000000E+01 0.  0.
<mgrwt>
<rscale>  0 0.12500019E+03</rscale>
<asrwt>0</asrwt>
<pdfrwt beam="2">  1        4 0.15120340E-02 0.12500019E+03</pdfrwt>
<pdfrwt beam="1">  1       -4 0.61146707E-01 0.12500019E+03</pdfrwt>
<totfact> 0.63850409E+03</totfact>
</mgrwt>
</event>
<event>
 5    1  0.3217527E-002  0.1249905E+03  0.7818608E-02  0.1235084E+00
          4   -1    0    0  501    0  0.00000000000E+00  0.00000000000E+00  0.83413159462E+02  0.83422827040E+02  0.12700000000E+01 0.  1.
         -4   -1    0    0    0  501 -0.00000000000E+00 -0.00000000000E+00 -0.46802055219E+02  0.46819283130E+02  0.12700000000E+01 0.  1.
         25    2    1    2    0    0  0.00000000000E+00  0.00000000000E+00  0.36611104242E+02  0.13024211017E+03  0.12499053687E+03 0.  0.
    9000005    1    3    3    0    0 -0.12679827118E+02  0.20669396302E+02 -0.41704574842E+02  0.48252186706E+02  0.10000000000E+01 0.  0.
    9000005    1    3    3    0    0  0.12679827118E+02 -0.20669396302E+02  0.78315679084E+02  0.81989923463E+02  0.10000000000E+01 0.  0.
<mgrwt>
<rscale>  0 0.12499054E+03</rscale>
<asrwt>0</asrwt>
<pdfrwt beam="1">  1        4 0.12834862E-01 0.12499054E+03</pdfrwt>
<pdfrwt beam="2">  1       -4 0.72023852E-02 0.12499054E+03</pdfrwt>
<totfact> 0.10341540E+04</totfact>
</mgrwt>
</event>
<event>
 5    1  0.3217527E-002  0.1249942E+03  0.7818608E-02  0.1235078E+00
          4   -1    0    0  501    0  0.00000000000E+00  0.00000000000E+00  0.95706915981E+02  0.95715341856E+02  0.12700000000E+01 0.  1.
         -4   -1    0    0    0  501 -0.00000000000E+00 -0.00000000000E+00 -0.40790825380E+02  0.40810590969E+02  0.12700000000E+01 0.  1.
         25    2    1    2    0    0  0.00000000000E+00  0.00000000000E+00  0.54916090600E+02  0.13652593282E+03  0.12499421317E+03 0.  0.
    9000005    1    3    3    0    0 -0.48355591284E+02  0.39556901460E+02  0.28954347181E+02  0.68864837778E+02  0.10000000000E+01 0.  0.
    9000005    1    3    3    0    0  0.48355591284E+02 -0.39556901460E+02  0.25961743419E+02  0.67661095046E+02  0.10000000000E+01 0.  0.
<mgrwt>
<rscale>  0 0.12499421E+03</rscale>
<asrwt>0</asrwt>
<pdfrwt beam="1">  1        4 0.14726309E-01 0.12499421E+03</pdfrwt>
<pdfrwt beam="2">  1       -4 0.62776802E-02 0.12499421E+03</pdfrwt>
<totfact> 0.10207339E+04</totfact>
</mgrwt>
</event>
<event>
 5    1  0.3217527E-002  0.1250051E+03  0.7818608E-02  0.1235061E+00
          4   -1    0    0  501    0  0.00000000000E+00  0.00000000000E+00  0.32502209649E+03  0.32502457769E+03  0.12700000000E+01 0. -1.
         -4   -1    0    0    0  501 -0.00000000000E+00 -0.00000000000E+00 -0.11983313242E+02  0.12050423073E+02  0.12700000000E+01 0. -1.
         25    2    1    2    0    0  0.00000000000E+00  0.00000000000E+00  0.31303878324E+03  0.33707500077E+03  0.12500510520E+03 0.  0.
    9000005    1    3    3    0    0 -0.15514980483E+02 -0.59781683070E+02  0.13079583477E+03  0.14464824453E+03  0.10000000000E+01 0.  0.
    9000005    1    3    3    0    0  0.15514980483E+02  0.59781683070E+02  0.18224294847E+03  0.19242675624E+03  0.10000000000E+01 0.  0.
<mgrwt>
<rscale>  0 0.12500511E+03</rscale>
<asrwt>0</asrwt>
<pdfrwt beam="1">  1        4 0.50008753E-01 0.12500511E+03</pdfrwt>
<pdfrwt beam="2">  1       -4 0.18489398E-02 0.12500511E+03</pdfrwt>
<totfact> 0.71162219E+03</totfact>
</mgrwt>
</event>
<event>
 4    1  0.3217527E-002  0.1249114E+03  0.7818608E-02  0.1235208E+00
          4   -1    0    0  501    0  0.00000000000E+00  0.00000000000E+00  0.43572662278E+02  0.43591166513E+02  0.12700000000E+01 0.  1.
         -4   -1    0    0    0  501 -0.00000000000E+00 -0.00000000000E+00 -0.89480100728E+02  0.89489112893E+02  0.12700000000E+01 0.  1.
    9000005    1    1    2    0    0 -0.23350943969E+02 -0.57408943026E+02 -0.14793609496E+02  0.63725224249E+02  0.10000000000E+01 0.  0.
    9000005    1    1    2    0    0  0.23350943969E+02  0.57408943026E+02 -0.31113828954E+02  0.69355055157E+02  0.10000000000E+01 0.  0.
<mgrwt>
<rscale>  0 0.12491144E+03</rscale>
<asrwt>0</asrwt>
<pdfrwt beam="1">  1        4 0.67056032E-02 0.12491144E+03</pdfrwt>
<pdfrwt beam="2">  1       -4 0.13768286E-01 0.12491144E+03</pdfrwt>
<totfact> 0.10299254E+04</totfact>
</mgrwt>
</event>
<event>
 5    1  0.3217527E-002  0.1249953E+03  0.7818608E-02  0.1235077E+00
         -4   -1    0    0    0  501 -0.00000000000E+00  0.00000000000E+00  0.36324325694E+01  0.38480470853E+01  0.12700000000E+01 0.  1.
          4   -1    0    0  501    0  0.00000000000E+00 -0.00000000000E+00 -0.10440907125E+04  0.10440914849E+04  0.12700000000E+01 0.  1.
         25    2    1    2    0    0  0.00000000000E+00  0.00000000000E+00 -0.10404582800E+04  0.10479395320E+04  0.12499532155E+03 0.  0.
    9000005    1    3    3    0    0  0.33957454428E+02  0.50651734507E+02 -0.63464636283E+03  0.63757016302E+03  0.10000000000E+01 0.  0.
    9000005    1    3    3    0    0 -0.33957454428E+02 -0.50651734507E+02 -0.40581191713E+03  0.41036936899E+03  0.10000000000E+01 0.  0.
<mgrwt>
<rscale>  0 0.12499532E+03</rscale>
<asrwt>0</asrwt>
<pdfrwt beam="2">  1        4 0.16064575E+00 0.12499532E+03</pdfrwt>
<pdfrwt beam="1">  1       -4 0.57548176E-03 0.12499532E+03</pdfrwt>
<totfact> 0.29062202E+03</totfact>
</mgrwt>
</event>
<event>
 5    1  0.3217527E-002  0.1249982E+03  0.7818608E-02  0.1235072E+00
          4   -1    0    0  501    0  0.00000000000E+00  0.00000000000E+00  0.40220737962E+03  0.40220938468E+03  0.12700000000E+01 0.  1.
         -4   -1    0    0    0  501 -0.00000000000E+00 -0.00000000000E+00 -0.96681884075E+01  0.97512443864E+01  0.12700000000E+01 0.  1.
         25    2    1    2    0    0  0.00000000000E+00  0.00000000000E+00  0.39253919122E+03  0.41196062906E+03  0.12499817302E+03 0.  0.
    9000005    1    3    3    0    0  0.38140444431E+02  0.10165038754E+01  0.35938039074E+03  0.36140142782E+03  0.10000000000E+01 0.  0.
    9000005    1    3    3    0    0 -0.38140444431E+02 -0.10165038754E+01  0.33158800475E+02  0.50559201244E+02  0.10000000000E+01 0.  0.
<mgrwt>
<rscale>  0 0.12499817E+03</rscale>
<asrwt>0</asrwt>
<pdfrwt beam="1">  1        4 0.61884601E-01 0.12499817E+03</pdfrwt>
<pdfrwt beam="2">  1       -4 0.14939568E-02 0.12499817E+03</pdfrwt>
<totfact> 0.63408457E+03</totfact>
</mgrwt>
</event>
<event>
 5    1  0.3217527E-002  0.1249924E+03  0.7818608E-02  0.1235081E+00
         -4   -1    0    0    0  501 -0.00000000000E+00  0.00000000000E+00  0.15400120428E+02  0.15452398169E+02  0.12700000000E+01 0.  1.
          4   -1    0    0  501    0  0.00000000000E+00 -0.00000000000E+00 -0.25313623071E+03  0.25313941653E+03  0.12700000000E+01 0.  1.
         25    2    1    2    0    0  0.00000000000E+00  0.00000000000E+00 -0.23773611029E+03  0.26859181470E+03  0.12499241892E+03 0.  0.
    9000005    1    3    3    0    0  0.37831700403E+02  0.39168625846E+02 -0.53007630126E+02  0.76001497733E+02  0.10000000000E+01 0.  0.
    9000005    1    3    3    0    0 -0.37831700403E+02 -0.39168625846E+02 -0.18472848016E+03  0.19259031696E+03  0.10000000000E+01 0.  0.
<mgrwt>
<rscale>  0 0.12499242E+03</rscale>
<asrwt>0</asrwt>
<pdfrwt beam="2">  1        4 0.38948299E-01 0.12499242E+03</pdfrwt>
<pdfrwt beam="1">  1       -4 0.23735159E-02 0.12499242E+03</pdfrwt>
<totfact> 0.79728686E+03</totfact>
</mgrwt>
</event>
<event>
 5    1  0.3217527E-002  0.1250032E+03  0.7818608E-02  0.1235064E+00
          4   -1    0    0  501    0  0.00000000000E+00  0.00000000000E+00  0.13354083969E+03  0.13354687853E+03  0.12700000000E+01 0. -1.
         -4   -1    0    0    0  501 -0.00000000000E+00 -0.00000000000E+00 -0.29232359352E+02  0.29259933924E+02  0.12700000000E+01 0. -1.
         25    2    1    2    0    0  0.00000000000E+00  0.00000000000E+00  0.10430848034E+03  0.16280681245E+03  0.12500319640E+03 0.  0.
    9000005    1    3    3    0    0 -0.39405540039E+02  0.47513412583E+02  0.64857275392E+02  0.89542096984E+02  0.10000000000E+01 0.  0.
    9000005    1    3    3    0    0  0.39405540039E+02 -0.47513412583E+02  0.39451204944E+02  0.73264715468E+02  0.10000000000E+01 0.  0.
<mgrwt>
<rscale>  0 0.12500320E+03</rscale>
<asrwt>0</asrwt>
<pdfrwt beam="1">  1        4 0.20547330E-01 0.12500320E+03</pdfrwt>
<pdfrwt beam="2">  1       -4 0.44998717E-02 0.12500320E+03</pdfrwt>
<totfact> 0.96797414E+03</totfact>
</mgrwt>
</event>
<event>
 5    1  0.3217527E-002  0.1250020E+03  0.7818608E-02  0.1235066E+00
          4   -1    0    0  501    0  0.00000000000E+00  0.00000000000E+00  0.44079232977E+02  0.44097524645E+02  0.12700000000E+01 0. -1.
         -4   -1    0    0    0  501 -0.00000000000E+00 -0.00000000000E+00 -0.88580370417E+02  0.88589474111E+02  0.12700000000E+01 0. -1.
         25    2    1    2    0    0  0.00000000000E+00  0.00000000000E+00 -0.44501137441E+02  0.13268699876E+03  0.12500195361E+03 0.  0.
    9000005    1    3    3    0    0 -0.43074511052E+02  0.41361312010E+02 -0.27008824782E+01  0.59786841359E+02  0.10000000000E+01 0.  0.
    9000005    1    3    3    0    0  0.43074511052E+02 -0.41361312010E+02 -0.41800254963E+02  0.72900157397E+02  0.10000000000E+01 0.  0.
<mgrwt>
<rscale>  0 0.12500195E+03</rscale>
<asrwt>0</asrwt>
<pdfrwt beam="1">  1        4 0.67835278E-02 0.12500195E+03</pdfrwt>
<pdfrwt beam="2">  1       -4 0.13629857E-01 0.12500195E+03</pdfrwt>
<totfact> 0.10286603E+04</totfact>
</mgrwt>
</event>
<event>
 5    1  0.3217527E-002  0.1249889E+03  0.7818608E-02  0.1235087E+00
         -4   -1    0    0    0  501 -0.00000000000E+00  0.00000000000E+00  0.17275579689E+02  0.17322198290E+02  0.12700000000E+01 0.  1.
          4   -1    0    0  501    0  0.00000000000E+00 -0.00000000000E+00 -0.22572072809E+03  0.22572430083E+03  0.12700000000E+01 0.  1.
         25    2    1    2    0    0  0.00000000000E+00  0.00000000000E+00 -0.20844514840E+03  0.24304649913E+03  0.12498888289E+03 0.  0.
    9000005    1    3    3    0    0 -0.65640293559E+01  0.35245174171E+02 -0.47035375248E+01  0.36172255238E+02  0.10000000000E+01 0.  0.
    9000005    1    3    3    0    0  0.65640293559E+01 -0.35245174171E+02 -0.20374161087E+03  0.20687424389E+03  0.10000000000E+01 0.  0.
<mgrwt>
<rscale>  0 0.12498888E+03</rscale>
<asrwt>0</asrwt>
<pdfrwt beam="2">  1        4 0.34730125E-01 0.12498888E+03</pdfrwt>
<pdfrwt beam="1">  1       -4 0.26616425E-02 0.12498888E+03</pdfrwt>
<totfact> 0.83366383E+03</totfact>
</mgrwt>
</event>
<event>
 5    1  0.3217527E-002  0.1249971E+03  0.7818608E-02  0.1235074E+00
          4   -1    0    0  501    0  0.00000000000E+00  0.00000000000E+00  0.73993919031E+02  0.74004817097E+02  0.12700000000E+01 0. -1.
         -4   -1    0    0    0  501 -0.00000000000E+00 -0.00000000000E+00 -0.52766644318E+02  0.52781925434E+02  0.12700000000E+01 0. -1.
         25    2    1    2    0    0  0.00000000000E+00  0.00000000000E+00  0.21227274713E+02  0.12678674253E+03  0.12499712353E+03 0.  0.
    9000005    1    3    3    0    0 -0.92466297488E+01 -0.61266303302E+02  0.23726517926E+01  0.62013623975E+02  0.10000000000E+01 0.  0.
    9000005    1    3    3    0    0  0.92466297488E+01  0.61266303302E+02  0.18854622921E+02  0.64773118556E+02  0.10000000000E+01 0.  0.
<mgrwt>
<rscale>  0 0.12499712E+03</rscale>
<asrwt>0</asrwt>
<pdfrwt beam="1">  1        4 0.11385694E-01 0.12499712E+03</pdfrwt>
<pdfrwt beam="2">  1       -4 0.81199591E-02 0.12499712E+03</pdfrwt>
<totfact> 0.10414458E+04</totfact>
</mgrwt>
</event>
<event>
 5    1  0.3217527E-002  0.1249758E+03  0.7818608E-02  0.1235107E+00
         -4   -1    0    0    0  501 -0.00000000000E+00  0.00000000000E+00  0.46734017376E+03  0.46734189937E+03  0.12700000000E+01 0.  1.
          4   -1    0    0  501    0  0.00000000000E+00 -0.00000000000E+00 -0.83052270938E+01  0.84017674974E+01  0.12700000000E+01 0.  1.
         25    2    1    2    0    0  0.00000000000E+00  0.00000000000E+00  0.45903494666E+03  0.47574366687E+03  0.12497581489E+03 0.  0.
    9000005    1    3    3    0    0 -0.57018718567E+02  0.25389957672E+02  0.21878129703E+03  0.22751272525E+03  0.10000000000E+01 0.  0.
    9000005    1    3    3    0    0  0.57018718567E+02 -0.25389957672E+02  0.24025364963E+03  0.24823094162E+03  0.10000000000E+01 0.  0.
<mgrwt>
<rscale>  0 0.12497581E+03</rscale>
<asrwt>0</asrwt>
<pdfrwt beam="2">  1        4 0.12852860E-02 0.12497581E+03</pdfrwt>
<pdfrwt beam="1">  1       -4 0.71906059E-01 0.12497581E+03</pdfrwt>
<totfact> 0.57827495E+03</totfact>
</mgrwt>
</event>
<event>
 5    1  0.3217527E-002  0.1250056E+03  0.7818608E-02  0.1235061E+00
          4   -1    0    0  501    0  0.00000000000E+00  0.00000000000E+00  0.41249404881E+01  0.43160206244E+01  0.12700000000E+01 0.  1.
         -4   -1    0    0    0  501 -0.00000000000E+00 -0.00000000000E+00 -0.92543768660E+03  0.92543855803E+03  0.12700000000E+01 0.  1.
         25    2    1    2    0    0  0.00000000000E+00  0.00000000000E+00 -0.92131274611E+03  0.92975457865E+03  0.12500560136E+03 0.  0.
    9000005    1    3    3    0    0  0.28267683094E+01 -0.22823586466E+02 -0.28456470218E+02  0.36601604002E+02  0.10000000000E+01 0.  0.
    9000005    1    3    3    0    0 -0.28267683094E+01  0.22823586466E+02 -0.89285627590E+03  0.89315297465E+03  0.10000000000E+01 0.  0.
<mgrwt>
<rscale>  0 0.12500560E+03</rscale>
<asrwt>0</asrwt>
<pdfrwt beam="1">  1        4 0.64937247E-03 0.12500560E+03</pdfrwt>
<pdfrwt beam="2">  1       -4 0.14238963E+00 0.12500560E+03</pdfrwt>
<totfact> 0.33041842E+03</totfact>
</mgrwt>
</event>
<event>
 5    1  0.3217527E-002  0.1249959E+03  0.7818608E-02  0.1235076E+00
          4   -1    0    0  501    0  0.00000000000E+00  0.00000000000E+00  0.26701057484E+02  0.26731243345E+02  0.12700000000E+01 0. -1.
         -4   -1    0    0    0  501 -0.00000000000E+00 -0.00000000000E+00 -0.14617063563E+03  0.14617615271E+03  0.12700000000E+01 0. -1.
         25    2    1    2    0    0  0.00000000000E+00  0.00000000000E+00 -0.11946957814E+03  0.17290739605E+03  0.12499594996E+03 0.  0.
    9000005    1    3    3    0    0  0.97919824145E+01 -0.29470046330E+02  0.15278437240E+02  0.34623650801E+02  0.10000000000E+01 0.  0.
    9000005    1    3    3    0    0 -0.97919824145E+01  0.29470046330E+02 -0.13474801538E+03  0.13828374525E+03  0.10000000000E+01 0.  0.
<mgrwt>
<rscale>  0 0.12499595E+03</rscale>
<asrwt>0</asrwt>
<pdfrwt beam="1">  1        4 0.41106015E-02 0.12499595E+03</pdfrwt>
<pdfrwt beam="2">  1       -4 0.22490536E-01 0.12499595E+03</pdfrwt>
<totfact> 0.94918125E+03</totfact>
</mgrwt>
</event>
<event>
 5    1  0.3217527E-002  0.1250001E+03  0.7818608E-02  0.1235069E+00
          4   -1    0    0  501    0  0.00000000000E+00  0.00000000000E+00  0.64193475829E+02  0.64206037403E+02  0.12700000000E+01 0. -1.
         -4   -1    0    0    0  501 -0.00000000000E+00 -0.00000000000E+00 -0.60826139134E+02  0.60839395970E+02  0.12700000000E+01 0. -1.
         25    2    1    2    0    0  0.00000000000E+00  0.00000000000E+00  0.33673366949E+01  0.12504543337E+03  0.12500008580E+03 0.  0.
    9000005    1    3    3    0    0  0.92725377963E+01 -0.23719844964E+02  0.58771387534E+02  0.64060026498E+02  0.10000000000E+01 0.  0.
    9000005    1    3    3    0    0 -0.92725377963E+01  0.23719844964E+02 -0.55404050839E+02  0.60985406875E+02  0.10000000000E+01 0.  0.
<mgrwt>
<rscale>  0 0.12500009E+03</rscale>
<asrwt>0</asrwt>
<pdfrwt beam="1">  1        4 0.98779054E-02 0.12500009E+03</pdfrwt>
<pdfrwt beam="2">  1       -4 0.93598536E-02 0.12500009E+03</pdfrwt>
<totfact> 0.10451856E+04</totfact>
</mgrwt>
</event>
<event>
 5    1  0.3217527E-002  0.1249997E+03  0.7818608E-02  0.1235070E+00
          4   -1    0    0  501    0  0.00000000000E+00  0.00000000000E+00  0.53556396987E+02  0.53571452829E+02  0.12700000000E+01 0. -1.
         -4   -1    0    0    0  501 -0.00000000000E+00 -0.00000000000E+00 -0.72905972581E+02  0.72917033250E+02  0.12700000000E+01 0. -1.
         25    2    1    2    0    0  0.00000000000E+00  0.00000000000E+00 -0.19349575594E+02  0.12648848608E+03  0.12499972414E+03 0.  0.
    9000005    1    3    3    0    0 -0.19534718405E+02 -0.79110531367E+01 -0.69206095596E+02  0.72351044585E+02  0.10000000000E+01 0.  0.
    9000005    1    3    3    0    0  0.19534718405E+02  0.79110531367E+01  0.49856520001E+02  0.54137441494E+02  0.10000000000E+01 0.  0.
<mgrwt>
<rscale>  0 0.12499972E+03</rscale>
<asrwt>0</asrwt>
<pdfrwt beam="1">  1        4 0.82414547E-02 0.12499972E+03</pdfrwt>
<pdfrwt beam="2">  1       -4 0.11218312E-01 0.12499972E+03</pdfrwt>
<totfact> 0.10420344E+04</totfact>
</mgrwt>
</event>
<event>
 5    1  0.3217527E-002  0.1249939E+03  0.7818608E-02  0.1235079E+00
          4   -1    0    0  501    0  0.00000000000E+00  0.00000000000E+00  0.65954815804E+02  0.65967041981E+02  0.12700000000E+01 0.  1.
         -4   -1    0    0    0  501 -0.00000000000E+00 -0.00000000000E+00 -0.59195860455E+02  0.59209482307E+02  0.12700000000E+01 0.  1.
         25    2    1    2    0    0  0.00000000000E+00  0.00000000000E+00  0.67589553486E+01  0.12517652429E+03  0.12499391487E+03 0.  0.
    9000005    1    3    3    0    0 -0.50522216449E+02 -0.35723801538E+02 -0.53616953357E+01  0.62116279091E+02  0.10000000000E+01 0.  0.
    9000005    1    3    3    0    0  0.50522216449E+02  0.35723801538E+02  0.12120650684E+02  0.63060245196E+02  0.10000000000E+01 0.  0.
<mgrwt>
<rscale>  0 0.12499391E+03</rscale>
<asrwt>0</asrwt>
<pdfrwt beam="1">  1        4 0.10148883E-01 0.12499391E+03</pdfrwt>
<pdfrwt beam="2">  1       -4 0.91090438E-02 0.12499391E+03</pdfrwt>
<totfact> 0.10450467E+04</totfact>
</mgrwt>
</event>
<event>
 5    1  0.3217527E-002  0.1250002E+03  0.7818608E-02  0.1235069E+00
         -4   -1    0    0    0  501 -0.00000000000E+00  0.00000000000E+00  0.14236511407E+02  0.14293045758E+02  0.12700000000E+01 0. -1.
          4   -1    0    0  501    0  0.00000000000E+00 -0.00000000000E+00 -0.27378182131E+03  0.27378476689E+03  0.12700000000E+01 0. -1.
         25    2    1    2    0    0  0.00000000000E+00  0.00000000000E+00 -0.25954530990E+03  0.28807781265E+03  0.12500023298E+03 0.  0.
    9000005    1    3    3    0    0  0.79114326512E+01  0.26374090183E+02 -0.48622000995E+00  0.27557572634E+02  0.10000000000E+01 0.  0.
    9000005    1    3    3    0    0 -0.79114326512E+01 -0.26374090183E+02 -0.25905908989E+03  0.26052024001E+03  0.10000000000E+01 0.  0.
<mgrwt>
<rscale>  0 0.12500023E+03</rscale>
<asrwt>0</asrwt>
<pdfrwt beam="2">  1        4 0.42124852E-01 0.12500023E+03</pdfrwt>
<pdfrwt beam="1">  1       -4 0.21948081E-02 0.12500023E+03</pdfrwt>
<totfact> 0.77118696E+03</totfact>
</mgrwt>
</event>
<event>
 5    1  0.3217527E-002  0.1249953E+03  0.7818608E-02  0.1235077E+00
         -4   -1    0    0    0  501 -0.00000000000E+00  0.00000000000E+00  0.61010768533E+02  0.61023985259E+02  0.12700000000E+01 0. -1.
          4   -1    0    0  501    0  0.00000000000E+00 -0.00000000000E+00 -0.63994317313E+02  0.64006917972E+02  0.12700000000E+01 0. -1.
         25    2    1    2    0    0  0.00000000000E+00  0.00000000000E+00 -0.29835487800E+01  0.12503090323E+03  0.12499530071E+03 0.  0.
    9000005    1    3    3    0    0  0.44494555112E+02  0.33652050807E+02  0.26671712507E+02  0.61843400668E+02  0.10000000000E+01 0.  0.
    9000005    1    3    3    0    0 -0.44494555112E+02 -0.33652050807E+02 -0.29655261287E+02  0.63187502563E+02  0.10000000000E+01 0.  0.
<mgrwt>
<rscale>  0 0.12499530E+03</rscale>
<asrwt>0</asrwt>
<pdfrwt beam="2">  1        4 0.98472655E-02 0.12499530E+03</pdfrwt>
<pdfrwt beam="1">  1       -4 0.93882581E-02 0.12499530E+03</pdfrwt>
<totfact> 0.10453302E+04</totfact>
</mgrwt>
</event>
<event>
 5    1  0.3217527E-002  0.1250000E+03  0.7818608E-02  0.1235069E+00
          4   -1    0    0  501    0  0.00000000000E+00  0.00000000000E+00  0.13591398231E+02  0.13650604597E+02  0.12700000000E+01 0.  1.
         -4   -1    0    0    0  501 -0.00000000000E+00 -0.00000000000E+00 -0.28672072954E+03  0.28672354219E+03  0.12700000000E+01 0.  1.
         25    2    1    2    0    0  0.00000000000E+00  0.00000000000E+00 -0.27312933131E+03  0.30037414679E+03  0.12499998575E+03 0.  0.
    9000005    1    3    3    0    0  0.35959732732E+02  0.22541063963E+02 -0.26339611131E+02  0.49959754375E+02  0.10000000000E+01 0.  0.
    9000005    1    3    3    0    0 -0.35959732732E+02 -0.22541063963E+02 -0.24678972018E+03  0.25041439242E+03  0.10000000000E+01 0.  0.
<mgrwt>
<rscale>  0 0.12499999E+03</rscale>
<asrwt>0</asrwt>
<pdfrwt beam="1">  1        4 0.20957553E-02 0.12499999E+03</pdfrwt>
<pdfrwt beam="2">  1       -4 0.44115648E-01 0.12499999E+03</pdfrwt>
<totfact> 0.75551956E+03</totfact>
</mgrwt>
</event>
<event>
 5    1  0.3217527E-002  0.1249995E+03  0.7818608E-02  0.1235070E+00
         -4   -1    0    0    0  501 -0.00000000000E+00  0.00000000000E+00  0.27650703014E+02  0.27679853272E+02  0.12700000000E+01 0. -1.
          4   -1    0    0  501    0  0.00000000000E+00 -0.00000000000E+00 -0.14116367358E+03  0.14116938634E+03  0.12700000000E+01 0. -1.
         25    2    1    2    0    0  0.00000000000E+00  0.00000000000E+00 -0.11351297057E+03  0.16884923961E+03  0.12499948492E+03 0.  0.
    9000005    1    3    3    0    0  0.27890520956E+02 -0.35846986188E+02 -0.11473600652E+03  0.12340275026E+03  0.10000000000E+01 0.  0.
    9000005    1    3    3    0    0 -0.27890520956E+02  0.35846986188E+02  0.12230359524E+01  0.45446489357E+02  0.10000000000E+01 0.  0.
<mgrwt>
<rscale>  0 0.12499948E+03</rscale>
<asrwt>0</asrwt>
<pdfrwt beam="2">  1        4 0.21720170E-01 0.12499948E+03</pdfrwt>
<pdfrwt beam="1">  1       -4 0.42566361E-02 0.12499948E+03</pdfrwt>
<totfact> 0.95664439E+03</totfact>
</mgrwt>
</event>
<event>
 5    1  0.3217527E-002  0.1250034E+03  0.7818608E-02  0.1235064E+00
          4   -1    0    0  501    0  0.00000000000E+00  0.00000000000E+00  0.11420940121E+03  0.11421646215E+03  0.12700000000E+01 0. -1.
         -4   -1    0    0    0  501 -0.00000000000E+00 -0.00000000000E+00 -0.34184485980E+02  0.34208068956E+02  0.12700000000E+01 0. -1.
         25    2    1    2    0    0  0.00000000000E+00  0.00000000000E+00  0.80024915233E+02  0.14842453110E+03  0.12500341745E+03 0.  0.
    9000005    1    3    3    0    0 -0.51368594762E+02 -0.34669345920E+02  0.49568155958E+02  0.79364338084E+02  0.10000000000E+01 0.  0.
    9000005    1    3    3    0    0  0.51368594762E+02  0.34669345920E+02  0.30456759275E+02  0.69060193020E+02  0.10000000000E+01 0.  0.
<mgrwt>
<rscale>  0 0.12500342E+03</rscale>
<asrwt>0</asrwt>
<pdfrwt beam="1">  1        4 0.17573034E-01 0.12500342E+03</pdfrwt>
<pdfrwt beam="2">  1       -4 0.52615090E-02 0.12500342E+03</pdfrwt>
<totfact> 0.99611013E+03</totfact>
</mgrwt>
</event>
<event>
 5    1  0.3217527E-002  0.1250079E+03  0.7818608E-02  0.1235057E+00
         -4   -1    0    0    0  501 -0.00000000000E+00  0.00000000000E+00  0.17362990893E+01  0.21511937448E+01  0.12700000000E+01 0.  1.
          4   -1    0    0  501    0  0.00000000000E+00 -0.00000000000E+00 -0.20094883655E+04  0.20094887668E+04  0.12700000000E+01 0.  1.
         25    2    1    2    0    0  0.00000000000E+00  0.00000000000E+00 -0.20077520664E+04  0.20116399606E+04  0.12500788283E+03 0.  0.
    9000005    1    3    3    0    0 -0.47831396672E+01  0.16577220871E+02 -0.37269489950E+02  0.41081596342E+02  0.10000000000E+01 0.  0.
    9000005    1    3    3    0    0  0.47831396672E+01 -0.16577220871E+02 -0.19704825765E+04  0.19705583642E+04  0.10000000000E+01 0.  0.
<mgrwt>
<rscale>  0 0.12500788E+03</rscale>
<asrwt>0</asrwt>
<pdfrwt beam="2">  1        4 0.30918234E+00 0.12500788E+03</pdfrwt>
<pdfrwt beam="1">  1       -4 0.29907039E-03 0.12500788E+03</pdfrwt>
<totfact> 0.97084786E+02</totfact>
</mgrwt>
</event>
<event>
 5    1  0.3217527E-002  0.1249927E+03  0.7818608E-02  0.1235081E+00
          4   -1    0    0  501    0  0.00000000000E+00  0.00000000000E+00  0.88575331215E+02  0.88584435426E+02  0.12700000000E+01 0.  1.
         -4   -1    0    0    0  501 -0.00000000000E+00 -0.00000000000E+00 -0.44075231908E+02  0.44093525236E+02  0.12700000000E+01 0.  1.
         25    2    1    2    0    0  0.00000000000E+00  0.00000000000E+00  0.44500099306E+02  0.13267796066E+03  0.12499272942E+03 0.  0.
    9000005    1    3    3    0    0 -0.14354963515E+02 -0.23488623455E+02  0.81797539030E+02  0.86311168459E+02  0.10000000000E+01 0.  0.
    9000005    1    3    3    0    0  0.14354963515E+02  0.23488623455E+02 -0.37297439724E+02  0.46366792204E+02  0.10000000000E+01 0.  0.
<mgrwt>
<rscale>  0 0.12499273E+03</rscale>
<asrwt>0</asrwt>
<pdfrwt beam="1">  1        4 0.13629081E-01 0.12499273E+03</pdfrwt>
<pdfrwt beam="2">  1       -4 0.67829125E-02 0.12499273E+03</pdfrwt>
<totfact> 0.10288936E+04</totfact>
</mgrwt>
</event>
<event>
 5    1  0.3217527E-002  0.1250007E+03  0.7818608E-02  0.1235068E+00
         -4   -1    0    0    0  501 -0.00000000000E+00  0.00000000000E+00  0.43733347948E+01  0.45540045265E+01  0.12700000000E+01 0.  1.
          4   -1    0    0  501    0  0.00000000000E+00 -0.00000000000E+00 -0.87494952719E+03  0.87495044890E+03  0.12700000000E+01 0.  1.
         25    2    1    2    0    0  0.00000000000E+00  0.00000000000E+00 -0.87057619240E+03  0.87950445343E+03  0.12500070732E+03 0.  0.
    9000005    1    3    3    0    0 -0.44576172593E+02 -0.13025502614E+01 -0.74331386847E+03  0.74465108532E+03  0.10000000000E+01 0.  0.
    9000005    1    3    3    0    0  0.44576172593E+02  0.13025502614E+01 -0.12726232392E+03  0.13485336811E+03  0.10000000000E+01 0.  0.
<mgrwt>
<rscale>  0 0.12500071E+03</rscale>
<asrwt>0</asrwt>
<pdfrwt beam="2">  1        4 0.13462145E+00 0.12500071E+03</pdfrwt>
<pdfrwt beam="1">  1       -4 0.68679001E-03 0.12500071E+03</pdfrwt>
<totfact> 0.34948933E+03</totfact>
</mgrwt>
</event>
<event>
 5    1  0.3217527E-002  0.1250001E+03  0.7818608E-02  0.1235069E+00
          4   -1    0    0  501    0  0.00000000000E+00  0.00000000000E+00  0.38600113594E+01  0.40635683450E+01  0.12700000000E+01 0.  1.
         -4   -1    0    0    0  501 -0.00000000000E+00 -0.00000000000E+00 -0.98577868565E+03  0.98577950373E+03  0.12700000000E+01 0.  1.
         25    2    1    2    0    0  0.00000000000E+00  0.00000000000E+00 -0.98191867429E+03  0.98984307208E+03  0.12500009769E+03 0.  0.
    9000005    1    3    3    0    0 -0.35312568347E+01 -0.58597677557E+02 -0.66063085292E+03  0.66323471066E+03  0.10000000000E+01 0.  0.
    9000005    1    3    3    0    0  0.35312568347E+01  0.58597677557E+02 -0.32128782137E+03  0.32660836142E+03  0.10000000000E+01 0.  0.
<mgrwt>
<rscale>  0 0.12500010E+03</rscale>
<asrwt>0</asrwt>
<pdfrwt beam="1">  1        4 0.60956985E-03 0.12500010E+03</pdfrwt>
<pdfrwt beam="2">  1       -4 0.15167379E+00 0.12500010E+03</pdfrwt>
<totfact> 0.30942210E+03</totfact>
</mgrwt>
</event>
<event>
 5    1  0.3217527E-002  0.1249991E+03  0.7818608E-02  0.1235071E+00
         -4   -1    0    0    0  501 -0.00000000000E+00  0.00000000000E+00  0.38375875938E+03  0.38376086082E+03  0.12700000000E+01 0.  1.
          4   -1    0    0  501    0  0.00000000000E+00 -0.00000000000E+00 -0.10137023697E+02  0.10216268861E+02  0.12700000000E+01 0.  1.
         25    2    1    2    0    0  0.00000000000E+00  0.00000000000E+00  0.37362173568E+03  0.39397712968E+03  0.12499910936E+03 0.  0.
    9000005    1    3    3    0    0  0.19008119565E+02 -0.57497716315E+01  0.57373326623E-01  0.19883957727E+02  0.10000000000E+01 0.  0.
    9000005    1    3    3    0    0 -0.19008119565E+02  0.57497716315E+01  0.37356436235E+03  0.37409317196E+03  0.10000000000E+01 0.  0.
<mgrwt>
<rscale>  0 0.12499911E+03</rscale>
<asrwt>0</asrwt>
<pdfrwt beam="2">  1        4 0.15657996E-02 0.12499911E+03</pdfrwt>
<pdfrwt beam="1">  1       -4 0.59046064E-01 0.12499911E+03</pdfrwt>
<totfact> 0.65144093E+03</totfact>
</mgrwt>
</event>
<event>
 5    1  0.3217527E-002  0.1250019E+03  0.7818608E-02  0.1235066E+00
          4   -1    0    0  501    0  0.00000000000E+00  0.00000000000E+00  0.16537648941E+02  0.16586341745E+02  0.12700000000E+01 0. -1.
         -4   -1    0    0    0  501 -0.00000000000E+00 -0.00000000000E+00 -0.23581298634E+03  0.23581640619E+03  0.12700000000E+01 0. -1.
         25    2    1    2    0    0  0.00000000000E+00  0.00000000000E+00 -0.21927533740E+03  0.25240274793E+03  0.12500189427E+03 0.  0.
    9000005    1    3    3    0    0  0.26316261626E+02 -0.28678659136E+02 -0.10916817007E+02  0.40437457999E+02  0.10000000000E+01 0.  0.
    9000005    1    3    3    0    0 -0.26316261626E+02  0.28678659136E+02 -0.20835852039E+03  0.21196528993E+03  0.10000000000E+01 0.  0.
<mgrwt>
<rscale>  0 0.12500189E+03</rscale>
<asrwt>0</asrwt>
<pdfrwt beam="1">  1        4 0.25482625E-02 0.12500189E+03</pdfrwt>
<pdfrwt beam="2">  1       -4 0.36282927E-01 0.12500189E+03</pdfrwt>
<totfact> 0.81980734E+03</totfact>
</mgrwt>
</event>
<event>
 5    1  0.3217527E-002  0.1250456E+03  0.7818608E-02  0.1234998E+00
          4   -1    0    0  501    0  0.00000000000E+00  0.00000000000E+00  0.20017238811E+02  0.20057486124E+02  0.12700000000E+01 0. -1.
         -4   -1    0    0    0  501 -0.00000000000E+00 -0.00000000000E+00 -0.19504812857E+03  0.19505226315E+03  0.12700000000E+01 0. -1.
         25    2    1    2    0    0  0.00000000000E+00  0.00000000000E+00 -0.17503088976E+03  0.21510974927E+03  0.12504555914E+03 0.  0.
    9000005    1    3    3    0    0 -0.10048135372E+02 -0.24881524336E+02 -0.18464555591E+03  0.18658787902E+03  0.10000000000E+01 0.  0.
    9000005    1    3    3    0    0  0.10048135372E+02  0.24881524336E+02  0.96146661516E+01  0.28521870256E+02  0.10000000000E+01 0.  0.
<mgrwt>
<rscale>  0 0.12504556E+03</rscale>
<asrwt>0</asrwt>
<pdfrwt beam="1">  1        4 0.30829893E-02 0.12504556E+03</pdfrwt>
<pdfrwt beam="2">  1       -4 0.30010817E-01 0.12504556E+03</pdfrwt>
<totfact> 0.87558960E+03</totfact>
</mgrwt>
</event>
<event>
 5    1  0.3217527E-002  0.1250033E+03  0.7818608E-02  0.1235064E+00
          4   -1    0    0  501    0  0.00000000000E+00  0.00000000000E+00  0.47750684382E+01  0.49410705914E+01  0.12700000000E+01 0. -1.
         -4   -1    0    0    0  501 -0.00000000000E+00 -0.00000000000E+00 -0.80395007095E+03  0.80395107406E+03  0.12700000000E+01 0. -1.
         25    2    1    2    0    0  0.00000000000E+00  0.00000000000E+00 -0.79917500251E+03  0.80889214465E+03  0.12500326811E+03 0.  0.
    9000005    1    3    3    0    0 -0.53437117223E+02  0.30260626138E+02 -0.47455674929E+03  0.47851472212E+03  0.10000000000E+01 0.  0.
    9000005    1    3    3    0    0  0.53437117223E+02 -0.30260626138E+02 -0.32461825323E+03  0.33037742253E+03  0.10000000000E+01 0.  0.
<mgrwt>
<rscale>  0 0.12500327E+03</rscale>
<asrwt>0</asrwt>
<pdfrwt beam="1">  1        4 0.74747311E-03 0.12500327E+03</pdfrwt>
<pdfrwt beam="2">  1       -4 0.12369737E+00 0.12500327E+03</pdfrwt>
<totfact> 0.37868153E+03</totfact>
</mgrwt>
</event>
<event>
 5    1  0.3217527E-002  0.1250015E+03  0.7818608E-02  0.1235067E+00
         -4   -1    0    0    0  501 -0.00000000000E+00  0.00000000000E+00  0.13653930625E+03  0.13654521248E+03  0.12700000000E+01 0. -1.
          4   -1    0    0  501    0  0.00000000000E+00 -0.00000000000E+00 -0.28589030818E+02  0.28617225287E+02  0.12700000000E+01 0. -1.
         25    2    1    2    0    0  0.00000000000E+00  0.00000000000E+00  0.10795027543E+03  0.16516243777E+03  0.12500147553E+03 0.  0.
    9000005    1    3    3    0    0  0.87178194112E+01  0.54723665984E+02  0.15802556767E+02  0.57631595452E+02  0.10000000000E+01 0.  0.
    9000005    1    3    3    0    0 -0.87178194112E+01 -0.54723665984E+02  0.92147718668E+02  0.10753084232E+03  0.10000000000E+01 0.  0.
<mgrwt>
<rscale>  0 0.12500148E+03</rscale>
<asrwt>0</asrwt>
<pdfrwt beam="2">  1        4 0.44009356E-02 0.12500148E+03</pdfrwt>
<pdfrwt beam="1">  1       -4 0.21008670E-01 0.12500148E+03</pdfrwt>
<totfact> 0.96353444E+03</totfact>
</mgrwt>
</event>
<event>
 5    1  0.3217527E-002  0.1249973E+03  0.7818608E-02  0.1235073E+00
          4   -1    0    0  501    0  0.00000000000E+00  0.00000000000E+00  0.67491388212E+02  0.67503336086E+02  0.12700000000E+01 0.  1.
         -4   -1    0    0    0  501 -0.00000000000E+00 -0.00000000000E+00 -0.57851259240E+02  0.57865197620E+02  0.12700000000E+01 0.  1.
         25    2    1    2    0    0  0.00000000000E+00  0.00000000000E+00  0.96401289719E+01  0.12536853371E+03  0.12499734860E+03 0.  0.
    9000005    1    3    3    0    0  0.57400946358E+02  0.24692956636E+02  0.55102496750E+01  0.62737338178E+02  0.10000000000E+01 0.  0.
    9000005    1    3    3    0    0 -0.57400946358E+02 -0.24692956636E+02  0.41298792970E+01  0.62631195528E+02  0.10000000000E+01 0.  0.
<mgrwt>
<rscale>  0 0.12499735E+03</rscale>
<asrwt>0</asrwt>
<pdfrwt beam="1">  1        4 0.10385282E-01 0.12499735E+03</pdfrwt>
<pdfrwt beam="2">  1       -4 0.89021849E-02 0.12499735E+03</pdfrwt>
<totfact> 0.10445489E+04</totfact>
</mgrwt>
</event>
<event>
 5    1  0.3217527E-002  0.1249986E+03  0.7818608E-02  0.1235071E+00
         -4   -1    0    0    0  501 -0.00000000000E+00  0.00000000000E+00  0.41368959798E+02  0.41388449292E+02  0.12700000000E+01 0. -1.
          4   -1    0    0  501    0  0.00000000000E+00 -0.00000000000E+00 -0.94376578274E+02  0.94385122909E+02  0.12700000000E+01 0. -1.
         25    2    1    2    0    0  0.00000000000E+00  0.00000000000E+00 -0.53007618475E+02  0.13577357220E+03  0.12499862116E+03 0.  0.
    9000005    1    3    3    0    0 -0.53893081356E+02 -0.13836741169E+02 -0.57403193085E+02  0.79950273299E+02  0.10000000000E+01 0.  0.
    9000005    1    3    3    0    0  0.53893081356E+02  0.13836741169E+02  0.43955746100E+01  0.55823298902E+02  0.10000000000E+01 0.  0.
<mgrwt>
<rscale>  0 0.12499862E+03</rscale>
<asrwt>0</asrwt>
<pdfrwt beam="2">  1        4 0.14521630E-01 0.12499862E+03</pdfrwt>
<pdfrwt beam="1">  1       -4 0.63666118E-02 0.12499862E+03</pdfrwt>
<totfact> 0.10222109E+04</totfact>
</mgrwt>
</event>
<event>
 5    1  0.3217527E-002  0.1250120E+03  0.7818608E-02  0.1235051E+00
         -4   -1    0    0    0  501 -0.00000000000E+00  0.00000000000E+00  0.31198632988E+03  0.31198891476E+03  0.12700000000E+01 0.  1.
          4   -1    0    0  501    0  0.00000000000E+00 -0.00000000000E+00 -0.12488144940E+02  0.12552556076E+02  0.12700000000E+01 0.  1.
         25    2    1    2    0    0  0.00000000000E+00  0.00000000000E+00  0.29949818495E+03  0.32454147084E+03  0.12501201346E+03 0.  0.
    9000005    1    3    3    0    0 -0.36410409822E+01 -0.44827520698E+02  0.37088780629E+02  0.58303871569E+02  0.10000000000E+01 0.  0.
    9000005    1    3    3    0    0  0.36410409822E+01  0.44827520698E+02  0.26240940432E+03  0.26623759927E+03  0.10000000000E+01 0.  0.
<mgrwt>
<rscale>  0 0.12501201E+03</rscale>
<asrwt>0</asrwt>
<pdfrwt beam="2">  1        4 0.19264066E-02 0.12501201E+03</pdfrwt>
<pdfrwt beam="1">  1       -4 0.48003050E-01 0.12501201E+03</pdfrwt>
<totfact> 0.72599882E+03</totfact>
</mgrwt>
</event>
<event>
 5    1  0.3217527E-002  0.1249997E+03  0.7818608E-02  0.1235070E+00
         -4   -1    0    0    0  501 -0.00000000000E+00  0.00000000000E+00  0.12601013402E+03  0.12601653374E+03  0.12700000000E+01 0. -1.
          4   -1    0    0  501    0  0.00000000000E+00 -0.00000000000E+00 -0.30979162034E+02  0.31005183121E+02  0.12700000000E+01 0. -1.
         25    2    1    2    0    0  0.00000000000E+00  0.00000000000E+00  0.95030971985E+02  0.15702171686E+03  0.12499973572E+03 0.  0.
    9000005    1    3    3    0    0 -0.48371264778E+02  0.30791927228E+02  0.16304837626E+02  0.59621890013E+02  0.10000000000E+01 0.  0.
    9000005    1    3    3    0    0  0.48371264778E+02 -0.30791927228E+02  0.78726134360E+02  0.97399826847E+02  0.10000000000E+01 0.  0.
<mgrwt>
<rscale>  0 0.12499974E+03</rscale>
<asrwt>0</asrwt>
<pdfrwt beam="2">  1        4 0.47685190E-02 0.12499974E+03</pdfrwt>
<pdfrwt beam="1">  1       -4 0.19388668E-01 0.12499974E+03</pdfrwt>
<totfact> 0.97920649E+03</totfact>
</mgrwt>
</event>
<event>
 5    1  0.3217527E-002  0.1250006E+03  0.7818608E-02  0.1235068E+00
          4   -1    0    0  501    0  0.00000000000E+00  0.00000000000E+00  0.17643203993E+03  0.17643661075E+03  0.12700000000E+01 0.  1.
         -4   -1    0    0    0  501 -0.00000000000E+00 -0.00000000000E+00 -0.22117405029E+02  0.22153837257E+02  0.12700000000E+01 0.  1.
         25    2    1    2    0    0  0.00000000000E+00  0.00000000000E+00  0.15431463490E+03  0.19859044801E+03  0.12500063798E+03 0.  0.
    9000005    1    3    3    0    0 -0.50612944211E+02 -0.86966006135E+01  0.20585015577E+02  0.55335737551E+02  0.10000000000E+01 0.  0.
    9000005    1    3    3    0    0  0.50612944211E+02  0.86966006135E+01  0.13372961932E+03  0.14325471045E+03  0.10000000000E+01 0.  0.
<mgrwt>
<rscale>  0 0.12500064E+03</rscale>
<asrwt>0</asrwt>
<pdfrwt beam="1">  1        4 0.27146545E-01 0.12500064E+03</pdfrwt>
<pdfrwt beam="2">  1       -4 0.34058318E-02 0.12500064E+03</pdfrwt>
<totfact> 0.90372425E+03</totfact>
</mgrwt>
</event>
<event>
 5    1  0.3217527E-002  0.1249981E+03  0.7818608E-02  0.1235072E+00
         -4   -1    0    0    0  501 -0.00000000000E+00  0.00000000000E+00  0.11050604113E+03  0.11051333868E+03  0.12700000000E+01 0. -1.
          4   -1    0    0  501    0  0.00000000000E+00 -0.00000000000E+00 -0.35327789886E+02  0.35350610154E+02  0.12700000000E+01 0. -1.
         25    2    1    2    0    0  0.00000000000E+00  0.00000000000E+00  0.75178251245E+02  0.14586394883E+03  0.12499808842E+03 0.  0.
    9000005    1    3    3    0    0  0.38241418044E+02 -0.47277406636E+02  0.20776782587E+02  0.64266896042E+02  0.10000000000E+01 0.  0.
    9000005    1    3    3    0    0 -0.38241418044E+02  0.47277406636E+02  0.54401468658E+02  0.81597052792E+02  0.10000000000E+01 0.  0.
<mgrwt>
<rscale>  0 0.12499809E+03</rscale>
<asrwt>0</asrwt>
<pdfrwt beam="2">  1        4 0.54373614E-02 0.12499809E+03</pdfrwt>
<pdfrwt beam="1">  1       -4 0.17003246E-01 0.12499809E+03</pdfrwt>
<totfact> 0.10013895E+04</totfact>
</mgrwt>
</event>
<event>
 5    1  0.3217527E-002  0.1250011E+03  0.7818608E-02  0.1235068E+00
         -4   -1    0    0    0  501 -0.00000000000E+00  0.00000000000E+00  0.12791771397E+03  0.12792401826E+03  0.12700000000E+01 0.  1.
          4   -1    0    0  501    0  0.00000000000E+00 -0.00000000000E+00 -0.30517463158E+02  0.30543877579E+02  0.12700000000E+01 0.  1.
         25    2    1    2    0    0  0.00000000000E+00  0.00000000000E+00  0.97400250813E+02  0.15846789584E+03  0.12500106061E+03 0.  0.
    9000005    1    3    3    0    0 -0.16210166419E+01 -0.61940348885E+02  0.59005610459E+02  0.85568081553E+02  0.10000000000E+01 0.  0.
    9000005    1    3    3    0    0  0.16210166419E+01  0.61940348885E+02  0.38394640354E+02  0.72899814286E+02  0.10000000000E+01 0.  0.
<mgrwt>
<rscale>  0 0.12500106E+03</rscale>
<asrwt>0</asrwt>
<pdfrwt beam="2">  1        4 0.46975110E-02 0.12500106E+03</pdfrwt>
<pdfrwt beam="1">  1       -4 0.19682166E-01 0.12500106E+03</pdfrwt>
<totfact> 0.97636649E+03</totfact>
</mgrwt>
</event>
<event>
 5    1  0.3217527E-002  0.1250068E+03  0.7818608E-02  0.1235059E+00
          4   -1    0    0  501    0  0.00000000000E+00  0.00000000000E+00  0.44216196956E+02  0.44234431987E+02  0.12700000000E+01 0. -1.
         -4   -1    0    0    0  501 -0.00000000000E+00 -0.00000000000E+00 -0.88312900165E+02  0.88322031428E+02  0.12700000000E+01 0. -1.
         25    2    1    2    0    0  0.00000000000E+00  0.00000000000E+00 -0.44096703210E+02  0.13255646342E+03  0.12500678685E+03 0.  0.
    9000005    1    3    3    0    0  0.16790753187E+02 -0.33767448229E+01 -0.85780971286E+02  0.87479750988E+02  0.10000000000E+01 0.  0.
    9000005    1    3    3    0    0 -0.16790753187E+02  0.33767448229E+01  0.41684268076E+02  0.45076712427E+02  0.10000000000E+01 0.  0.
<mgrwt>
<rscale>  0 0.12500679E+03</rscale>
<asrwt>0</asrwt>
<pdfrwt beam="1">  1        4 0.68045970E-02 0.12500679E+03</pdfrwt>
<pdfrwt beam="2">  1       -4 0.13588705E-01 0.12500679E+03</pdfrwt>
<totfact> 0.10288260E+04</totfact>
</mgrwt>
</event>
<event>
 5    1  0.3217527E-002  0.1249991E+03  0.7818608E-02  0.1235071E+00
          4   -1    0    0  501    0  0.00000000000E+00  0.00000000000E+00  0.10899818374E+02  0.10973556424E+02  0.12700000000E+01 0. -1.
         -4   -1    0    0    0  501 -0.00000000000E+00 -0.00000000000E+00 -0.35708928202E+03  0.35709154041E+03  0.12700000000E+01 0. -1.
         25    2    1    2    0    0  0.00000000000E+00  0.00000000000E+00 -0.34618946364E+03  0.36806509683E+03  0.12499908307E+03 0.  0.
    9000005    1    3    3    0    0 -0.21269578023E+02 -0.56783635442E+01 -0.34530777039E+03  0.34601025281E+03  0.10000000000E+01 0.  0.
    9000005    1    3    3    0    0  0.21269578023E+02  0.56783635442E+01 -0.88169325763E+00  0.22054844021E+02  0.10000000000E+01 0.  0.
<mgrwt>
<rscale>  0 0.12499908E+03</rscale>
<asrwt>0</asrwt>
<pdfrwt beam="1">  1        4 0.16827413E-02 0.12499908E+03</pdfrwt>
<pdfrwt beam="2">  1       -4 0.54942649E-01 0.12499908E+03</pdfrwt>
<totfact> 0.67783229E+03</totfact>
</mgrwt>
</event>
<event>
 5    1  0.3217527E-002  0.1249973E+03  0.7818608E-02  0.1235073E+00
         -4   -1    0    0    0  501 -0.00000000000E+00  0.00000000000E+00  0.55482125798E+03  0.55482271151E+03  0.12700000000E+01 0. -1.
          4   -1    0    0  501    0  0.00000000000E+00 -0.00000000000E+00 -0.69815052616E+01  0.70960774881E+01  0.12700000000E+01 0. -1.
         25    2    1    2    0    0  0.00000000000E+00  0.00000000000E+00  0.54783975272E+03  0.56191878900E+03  0.12499732305E+03 0.  0.
    9000005    1    3    3    0    0 -0.26966112614E+02  0.32248925090E+02  0.66061087034E+02  0.78308566703E+02  0.10000000000E+01 0.  0.
    9000005    1    3    3    0    0  0.26966112614E+02 -0.32248925090E+02  0.48177866568E+03  0.48361022229E+03  0.10000000000E+01 0.  0.
<mgrwt>
<rscale>  0 0.12499732E+03</rscale>
<asrwt>0</asrwt>
<pdfrwt beam="2">  1        4 0.10830024E-02 0.12499732E+03</pdfrwt>
<pdfrwt beam="1">  1       -4 0.85366075E-01 0.12499732E+03</pdfrwt>
<totfact> 0.51366159E+03</totfact>
</mgrwt>
</event>
<event>
 5    1  0.3217527E-002  0.1249960E+03  0.7818608E-02  0.1235076E+00
         -4   -1    0    0    0  501 -0.00000000000E+00  0.00000000000E+00  0.22776303181E+02  0.22811683116E+02  0.12700000000E+01 0.  1.
          4   -1    0    0  501    0  0.00000000000E+00 -0.00000000000E+00 -0.17132318182E+03  0.17132788894E+03  0.12700000000E+01 0.  1.
         25    2    1    2    0    0  0.00000000000E+00  0.00000000000E+00 -0.14854687864E+03  0.19413957205E+03  0.12499599308E+03 0.  0.
    9000005    1    3    3    0    0 -0.95485016448E+01 -0.60923808838E+02 -0.58578372031E+02  0.85060625654E+02  0.10000000000E+01 0.  0.
    9000005    1    3    3    0    0  0.95485016448E+01  0.60923808838E+02 -0.89968506604E+02  0.10907894640E+03  0.10000000000E+01 0.  0.
<mgrwt>
<rscale>  0 0.12499599E+03</rscale>
<asrwt>0</asrwt>
<pdfrwt beam="2">  1        4 0.26360495E-01 0.12499599E+03</pdfrwt>
<pdfrwt beam="1">  1       -4 0.35071304E-02 0.12499599E+03</pdfrwt>
<totfact> 0.91140167E+03</totfact>
</mgrwt>
</event>
<event>
 5    1  0.3217527E-002  0.1250003E+03  0.7818608E-02  0.1235069E+00
         -4   -1    0    0    0  501 -0.00000000000E+00  0.00000000000E+00  0.14105643346E+03  0.14106215056E+03  0.12700000000E+01 0. -1.
          4   -1    0    0  501    0  0.00000000000E+00 -0.00000000000E+00 -0.27672127134E+02  0.27701254847E+02  0.12700000000E+01 0. -1.
         25    2    1    2    0    0  0.00000000000E+00  0.00000000000E+00  0.11338430633E+03  0.16876340541E+03  0.12500034434E+03 0.  0.
    9000005    1    3    3    0    0  0.22124177947E+02  0.34148359565E+02  0.12072865794E+03  0.12740486081E+03  0.10000000000E+01 0.  0.
    9000005    1    3    3    0    0 -0.22124177947E+02 -0.34148359565E+02 -0.73443516089E+01  0.41358544599E+02  0.10000000000E+01 0.  0.
<mgrwt>
<rscale>  0 0.12500034E+03</rscale>
<asrwt>0</asrwt>
<pdfrwt beam="2">  1        4 0.42599308E-02 0.12500034E+03</pdfrwt>
<pdfrwt beam="1">  1       -4 0.21703670E-01 0.12500034E+03</pdfrwt>
<totfact> 0.95678632E+03</totfact>
</mgrwt>
</event>
<event>
 5    1  0.3217527E-002  0.1250042E+03  0.7818608E-02  0.1235063E+00
         -4   -1    0    0    0  501 -0.00000000000E+00  0.00000000000E+00  0.84891762368E+01  0.85836480112E+01  0.12700000000E+01 0.  1.
          4   -1    0    0  501    0  0.00000000000E+00 -0.00000000000E+00 -0.45753403653E+03  0.45753579913E+03  0.12700000000E+01 0.  1.
         25    2    1    2    0    0  0.00000000000E+00  0.00000000000E+00 -0.44904486030E+03  0.46611944714E+03  0.12500420971E+03 0.  0.
    9000005    1    3    3    0    0  0.17823451859E+02  0.13829617604E+02 -0.72055475487E+01  0.23703452801E+02  0.10000000000E+01 0.  0.
    9000005    1    3    3    0    0 -0.17823451859E+02 -0.13829617604E+02 -0.44183931275E+03  0.44241599434E+03  0.10000000000E+01 0.  0.
<mgrwt>
<rscale>  0 0.12500421E+03</rscale>
<asrwt>0</asrwt>
<pdfrwt beam="2">  1        4 0.70397235E-01 0.12500421E+03</pdfrwt>
<pdfrwt beam="1">  1       -4 0.13134301E-02 0.12500421E+03</pdfrwt>
<totfact> 0.58586946E+03</totfact>
</mgrwt>
</event>
<event>
 5    1  0.3217527E-002  0.1250029E+03  0.7818608E-02  0.1235065E+00
          4   -1    0    0  501    0  0.00000000000E+00  0.00000000000E+00  0.24966586490E+02  0.24998866793E+02  0.12700000000E+01 0. -1.
         -4   -1    0    0    0  501 -0.00000000000E+00 -0.00000000000E+00 -0.15633053457E+03  0.15633569310E+03  0.12700000000E+01 0. -1.
         25    2    1    2    0    0  0.00000000000E+00  0.00000000000E+00 -0.13136394808E+03  0.18133455990E+03  0.12500294300E+03 0.  0.
    9000005    1    3    3    0    0 -0.52699738178E+02 -0.32045290659E+02 -0.51083662046E+02  0.80091844688E+02  0.10000000000E+01 0.  0.
    9000005    1    3    3    0    0  0.52699738178E+02  0.32045290659E+02 -0.80280286033E+02  0.10124271521E+03  0.10000000000E+01 0.  0.
<mgrwt>
<rscale>  0 0.12500294E+03</rscale>
<asrwt>0</asrwt>
<pdfrwt beam="1">  1        4 0.38438933E-02 0.12500294E+03</pdfrwt>
<pdfrwt beam="2">  1       -4 0.24053731E-01 0.12500294E+03</pdfrwt>
<totfact> 0.93371168E+03</totfact>
</mgrwt>
</event>
<event>
 5    1  0.3217527E-002  0.1250043E+03  0.7818608E-02  0.1235063E+00
          4   -1    0    0  501    0  0.00000000000E+00  0.00000000000E+00  0.20910541737E+03  0.20910927400E+03  0.12700000000E+01 0. -1.
         -4   -1    0    0    0  501 -0.00000000000E+00 -0.00000000000E+00 -0.18656440507E+02  0.18699616905E+02  0.12700000000E+01 0. -1.
         25    2    1    2    0    0  0.00000000000E+00  0.00000000000E+00  0.19044897686E+03  0.22780889090E+03  0.12500431188E+03 0.  0.
    9000005    1    3    3    0    0 -0.40938644833E+02  0.37706472620E+02  0.14701965183E+03  0.15720537122E+03  0.10000000000E+01 0.  0.
    9000005    1    3    3    0    0  0.40938644833E+02 -0.37706472620E+02  0.43429325031E+02  0.70603519678E+02  0.10000000000E+01 0.  0.
<mgrwt>
<rscale>  0 0.12500431E+03</rscale>
<asrwt>0</asrwt>
<pdfrwt beam="1">  1        4 0.32173683E-01 0.12500431E+03</pdfrwt>
<pdfrwt beam="2">  1       -4 0.28738395E-02 0.12500431E+03</pdfrwt>
<totfact> 0.85638941E+03</totfact>
</mgrwt>
</event>
<event>
 5    1  0.3217527E-002  0.1250211E+03  0.7818608E-02  0.1235036E+00
          4   -1    0    0  501    0  0.00000000000E+00  0.00000000000E+00  0.65962496869E+02  0.65974721622E+02  0.12700000000E+01 0. -1.
         -4   -1    0    0    0  501 -0.00000000000E+00 -0.00000000000E+00 -0.59214746090E+02  0.59228363599E+02  0.12700000000E+01 0. -1.
         25    2    1    2    0    0  0.00000000000E+00  0.00000000000E+00  0.67477507781E+01  0.12520308522E+03  0.12502111985E+03 0.  0.
    9000005    1    3    3    0    0  0.35959321495E+02 -0.11582556448E+02  0.53239336261E+02  0.65289013944E+02  0.10000000000E+01 0.  0.
    9000005    1    3    3    0    0 -0.35959321495E+02  0.11582556448E+02 -0.46491585483E+02  0.59914071277E+02  0.10000000000E+01 0.  0.
<mgrwt>
<rscale>  0 0.12502112E+03</rscale>
<asrwt>0</asrwt>
<pdfrwt beam="1">  1        4 0.10150064E-01 0.12502112E+03</pdfrwt>
<pdfrwt beam="2">  1       -4 0.91119488E-02 0.12502112E+03</pdfrwt>
<totfact> 0.10443468E+04</totfact>
</mgrwt>
</event>
<event>
 5    1  0.3217527E-002  0.1250006E+03  0.7818608E-02  0.1235068E+00
         -4   -1    0    0    0  501 -0.00000000000E+00  0.00000000000E+00  0.15699672638E+03  0.15700186302E+03  0.12700000000E+01 0.  1.
          4   -1    0    0  501    0  0.00000000000E+00 -0.00000000000E+00 -0.24859563686E+02  0.24891982778E+02  0.12700000000E+01 0.  1.
         25    2    1    2    0    0  0.00000000000E+00  0.00000000000E+00  0.13213716269E+03  0.18189384580E+03  0.12500056551E+03 0.  0.
    9000005    1    3    3    0    0 -0.53771065783E+02 -0.15948513605E+01  0.19791009077E+02  0.57328484252E+02  0.10000000000E+01 0.  0.
    9000005    1    3    3    0    0  0.53771065783E+02  0.15948513605E+01  0.11234615361E+03  0.12456536155E+03  0.10000000000E+01 0.  0.
<mgrwt>
<rscale>  0 0.12500057E+03</rscale>
<asrwt>0</asrwt>
<pdfrwt beam="2">  1        4 0.38274373E-02 0.12500057E+03</pdfrwt>
<pdfrwt beam="1">  1       -4 0.24156231E-01 0.12500057E+03</pdfrwt>
<totfact> 0.93276029E+03</totfact>
</mgrwt>
</event>
<event>
 5    1  0.3217527E-002  0.1250069E+03  0.7818608E-02  0.1235059E+00
          4   -1    0    0  501    0  0.00000000000E+00  0.00000000000E+00  0.11690177282E+02  0.11758960196E+02  0.12700000000E+01 0.  1.
         -4   -1    0    0    0  501 -0.00000000000E+00 -0.00000000000E+00 -0.33313447902E+03  0.33313689980E+03  0.12700000000E+01 0.  1.
         25    2    1    2    0    0  0.00000000000E+00  0.00000000000E+00 -0.32144430174E+03  0.34489586000E+03  0.12500686031E+03 0.  0.
    9000005    1    3    3    0    0  0.47155512092E+02 -0.19467675680E+02 -0.61127957578E+02  0.79625749068E+02  0.10000000000E+01 0.  0.
    9000005    1    3    3    0    0 -0.47155512092E+02  0.19467675680E+02 -0.26031634416E+03  0.26527011093E+03  0.10000000000E+01 0.  0.
<mgrwt>
<rscale>  0 0.12500686E+03</rscale>
<asrwt>0</asrwt>
<pdfrwt beam="1">  1        4 0.18039663E-02 0.12500686E+03</pdfrwt>
<pdfrwt beam="2">  1       -4 0.51256928E-01 0.12500686E+03</pdfrwt>
<totfact> 0.70279077E+03</totfact>
</mgrwt>
</event>
<event>
 5    1  0.3217527E-002  0.1249989E+03  0.7818608E-02  0.1235071E+00
          4   -1    0    0  501    0  0.00000000000E+00  0.00000000000E+00  0.38336679734E+02  0.38357709956E+02  0.12700000000E+01 0.  1.
         -4   -1    0    0    0  501 -0.00000000000E+00 -0.00000000000E+00 -0.10183852751E+03  0.10184644612E+03  0.12700000000E+01 0.  1.
         25    2    1    2    0    0  0.00000000000E+00  0.00000000000E+00 -0.63501847780E+02  0.14020415607E+03  0.12499888283E+03 0.  0.
    9000005    1    3    3    0    0 -0.42564407934E+02  0.45304014038E+02 -0.38932740713E+02  0.73354896293E+02  0.10000000000E+01 0.  0.
    9000005    1    3    3    0    0  0.42564407934E+02 -0.45304014038E+02 -0.24569107067E+02  0.66849259778E+02  0.10000000000E+01 0.  0.
<mgrwt>
<rscale>  0 0.12499888E+03</rscale>
<asrwt>0</asrwt>
<pdfrwt beam="1">  1        4 0.59001776E-02 0.12499888E+03</pdfrwt>
<pdfrwt beam="2">  1       -4 0.15669693E-01 0.12499888E+03</pdfrwt>
<totfact> 0.10129611E+04</totfact>
</mgrwt>
</event>
<event>
 5    1  0.3217527E-002  0.1249988E+03  0.7818608E-02  0.1235071E+00
         -4   -1    0    0    0  501 -0.00000000000E+00  0.00000000000E+00  0.76299068437E+02  0.76309637297E+02  0.12700000000E+01 0.  1.
          4   -1    0    0  501    0  0.00000000000E+00 -0.00000000000E+00 -0.51173576546E+02  0.51189333230E+02  0.12700000000E+01 0.  1.
         25    2    1    2    0    0  0.00000000000E+00  0.00000000000E+00  0.25125491891E+02  0.12749897053E+03  0.12499878856E+03 0.  0.
    9000005    1    3    3    0    0  0.40750726389E+02 -0.46811295592E+02  0.51191662817E+01  0.62282621651E+02  0.10000000000E+01 0.  0.
    9000005    1    3    3    0    0 -0.40750726389E+02  0.46811295592E+02  0.20006325609E+02  0.65216348876E+02  0.10000000000E+01 0.  0.
<mgrwt>
<rscale>  0 0.12499879E+03</rscale>
<asrwt>0</asrwt>
<pdfrwt beam="2">  1        4 0.78748831E-02 0.12499879E+03</pdfrwt>
<pdfrwt beam="1">  1       -4 0.11740343E-01 0.12499879E+03</pdfrwt>
<totfact> 0.10398607E+04</totfact>
</mgrwt>
</event>
<event>
 5    1  0.3217527E-002  0.1250022E+03  0.7818608E-02  0.1235066E+00
          4   -1    0    0  501    0  0.00000000000E+00  0.00000000000E+00  0.40868502971E+02  0.40888231010E+02  0.12700000000E+01 0. -1.
         -4   -1    0    0    0  501 -0.00000000000E+00 -0.00000000000E+00 -0.95537262578E+02  0.95545703414E+02  0.12700000000E+01 0. -1.
         25    2    1    2    0    0  0.00000000000E+00  0.00000000000E+00 -0.54668759606E+02  0.13643393442E+03  0.12500218072E+03 0.  0.
    9000005    1    3    3    0    0 -0.55668822585E+02  0.24874066164E+02 -0.12383101961E+02  0.62226025020E+02  0.10000000000E+01 0.  0.
    9000005    1    3    3    0    0  0.55668822585E+02 -0.24874066164E+02 -0.42285657646E+02  0.74207909404E+02  0.10000000000E+01 0.  0.
<mgrwt>
<rscale>  0 0.12500218E+03</rscale>
<asrwt>0</asrwt>
<pdfrwt beam="1">  1        4 0.62896288E-02 0.12500218E+03</pdfrwt>
<pdfrwt beam="2">  1       -4 0.14700207E-01 0.12500218E+03</pdfrwt>
<totfact> 0.10207433E+04</totfact>
</mgrwt>
</event>
<event>
 5    1  0.3217527E-002  0.1250468E+03  0.7818608E-02  0.1234996E+00
          4   -1    0    0  501    0  0.00000000000E+00  0.00000000000E+00  0.13123399757E+02  0.13184707854E+02  0.12700000000E+01 0.  1.
         -4   -1    0    0    0  501 -0.00000000000E+00 -0.00000000000E+00 -0.29712147954E+03  0.29712419373E+03  0.12700000000E+01 0.  1.
         25    2    1    2    0    0  0.00000000000E+00  0.00000000000E+00 -0.28399807978E+03  0.31030890159E+03  0.12504681158E+03 0.  0.
    9000005    1    3    3    0    0 -0.10029460303E+02  0.40983213901E+02 -0.25647217678E+03  0.25992150999E+03  0.10000000000E+01 0.  0.
    9000005    1    3    3    0    0  0.10029460303E+02 -0.40983213901E+02 -0.27525903001E+02  0.50387391594E+02  0.10000000000E+01 0.  0.
<mgrwt>
<rscale>  0 0.12504681E+03</rscale>
<asrwt>0</asrwt>
<pdfrwt beam="1">  1        4 0.20239096E-02 0.12504681E+03</pdfrwt>
<pdfrwt beam="2">  1       -4 0.45715917E-01 0.12504681E+03</pdfrwt>
<totfact> 0.74246510E+03</totfact>
</mgrwt>
</event>
<event>
 5    1  0.3217527E-002  0.1250010E+03  0.7818608E-02  0.1235068E+00
         -4   -1    0    0    0  501 -0.00000000000E+00  0.00000000000E+00  0.35444928680E+02  0.35467673579E+02  0.12700000000E+01 0.  1.
          4   -1    0    0  501    0  0.00000000000E+00 -0.00000000000E+00 -0.11014623721E+03  0.11015355859E+03  0.12700000000E+01 0.  1.
         25    2    1    2    0    0  0.00000000000E+00  0.00000000000E+00 -0.74701308527E+02  0.14562123217E+03  0.12500103105E+03 0.  0.
    9000005    1    3    3    0    0  0.15891780849E+02 -0.60433057534E+02 -0.36439822598E+02  0.72343374350E+02  0.10000000000E+01 0.  0.
    9000005    1    3    3    0    0 -0.15891780849E+02  0.60433057534E+02 -0.38261485929E+02  0.73277857822E+02  0.10000000000E+01 0.  0.
<mgrwt>
<rscale>  0 0.12500103E+03</rscale>
<asrwt>0</asrwt>
<pdfrwt beam="2">  1        4 0.16947888E-01 0.12500103E+03</pdfrwt>
<pdfrwt beam="1">  1       -4 0.54553788E-02 0.12500103E+03</pdfrwt>
<totfact> 0.10018149E+04</totfact>
</mgrwt>
</event>
<event>
 5    1  0.3217527E-002  0.1250003E+03  0.7818608E-02  0.1235069E+00
          4   -1    0    0  501    0  0.00000000000E+00  0.00000000000E+00  0.50129896056E+03  0.50130056928E+03  0.12700000000E+01 0.  1.
         -4   -1    0    0    0  501 -0.00000000000E+00 -0.00000000000E+00 -0.77389129732E+01  0.78424278133E+01  0.12700000000E+01 0.  1.
         25    2    1    2    0    0  0.00000000000E+00  0.00000000000E+00  0.49356004759E+03  0.50914299710E+03  0.12500028365E+03 0.  0.
    9000005    1    3    3    0    0  0.11614725524E+02  0.30460881006E+02  0.46393963694E+03  0.46508467384E+03  0.10000000000E+01 0.  0.
    9000005    1    3    3    0    0 -0.11614725524E+02 -0.30460881006E+02  0.29620410654E+02  0.44058323254E+02  0.10000000000E+01 0.  0.
<mgrwt>
<rscale>  0 0.12500028E+03</rscale>
<asrwt>0</asrwt>
<pdfrwt beam="1">  1        4 0.77130976E-01 0.12500028E+03</pdfrwt>
<pdfrwt beam="2">  1       -4 0.11986889E-02 0.12500028E+03</pdfrwt>
<totfact> 0.55161564E+03</totfact>
</mgrwt>
</event>
<event>
 5    1  0.3217527E-002  0.1249999E+03  0.7818608E-02  0.1235069E+00
          4   -1    0    0  501    0  0.00000000000E+00  0.00000000000E+00  0.12104148573E+03  0.12104814814E+03  0.12700000000E+01 0. -1.
         -4   -1    0    0    0  501 -0.00000000000E+00 -0.00000000000E+00 -0.32251889520E+02  0.32276884571E+02  0.12700000000E+01 0. -1.
         25    2    1    2    0    0  0.00000000000E+00  0.00000000000E+00  0.88789596212E+02  0.15332503271E+03  0.12499989304E+03 0.  0.
    9000005    1    3    3    0    0 -0.23745816896E+02  0.56850146657E+02  0.57226731659E+02  0.84093411225E+02  0.10000000000E+01 0.  0.
    9000005    1    3    3    0    0  0.23745816896E+02 -0.56850146657E+02  0.31562864553E+02  0.69231621487E+02  0.10000000000E+01 0.  0.
<mgrwt>
<rscale>  0 0.12499989E+03</rscale>
<asrwt>0</asrwt>
<pdfrwt beam="1">  1        4 0.18624202E-01 0.12499989E+03</pdfrwt>
<pdfrwt beam="2">  1       -4 0.49642644E-02 0.12499989E+03</pdfrwt>
<totfact> 0.98645222E+03</totfact>
</mgrwt>
</event>
<event>
 5    1  0.3217527E-002  0.1250006E+03  0.7818608E-02  0.1235068E+00
          4   -1    0    0  501    0  0.00000000000E+00  0.00000000000E+00  0.62561727026E+01  0.63837760679E+01  0.12700000000E+01 0. -1.
         -4   -1    0    0    0  501 -0.00000000000E+00 -0.00000000000E+00 -0.61795733545E+03  0.61795864048E+03  0.12700000000E+01 0. -1.
         25    2    1    2    0    0  0.00000000000E+00  0.00000000000E+00 -0.61170116275E+03  0.62434241655E+03  0.12500056235E+03 0.  0.
    9000005    1    3    3    0    0 -0.20006643964E+01  0.38288885190E+02 -0.59370349551E+02  0.70681537851E+02  0.10000000000E+01 0.  0.
    9000005    1    3    3    0    0  0.20006643964E+01 -0.38288885190E+02 -0.55233081320E+03  0.55366087870E+03  0.10000000000E+01 0.  0.
<mgrwt>
<rscale>  0 0.12500056E+03</rscale>
<asrwt>0</asrwt>
<pdfrwt beam="1">  1        4 0.97240462E-03 0.12500056E+03</pdfrwt>
<pdfrwt beam="2">  1       -4 0.95080228E-01 0.12500056E+03</pdfrwt>
<totfact> 0.47365670E+03</totfact>
</mgrwt>
</event>
<event>
 5    1  0.3217527E-002  0.1249987E+03  0.7818608E-02  0.1235071E+00
          4   -1    0    0  501    0  0.00000000000E+00  0.00000000000E+00  0.25311262924E+03  0.25311581535E+03  0.12700000000E+01 0. -1.
         -4   -1    0    0    0  501 -0.00000000000E+00 -0.00000000000E+00 -0.15403125884E+02  0.15455393460E+02  0.12700000000E+01 0. -1.
         25    2    1    2    0    0  0.00000000000E+00  0.00000000000E+00  0.23770950335E+03  0.26857120881E+03  0.12499874486E+03 0.  0.
    9000005    1    3    3    0    0  0.58255493256E+02 -0.22566552426E+02  0.12205591545E+03  0.13711892021E+03  0.10000000000E+01 0.  0.
    9000005    1    3    3    0    0 -0.58255493256E+02  0.22566552426E+02  0.11565358790E+03  0.13145228860E+03  0.10000000000E+01 0.  0.
<mgrwt>
<rscale>  0 0.12499874E+03</rscale>
<asrwt>0</asrwt>
<pdfrwt beam="1">  1        4 0.38944666E-01 0.12499874E+03</pdfrwt>
<pdfrwt beam="2">  1       -4 0.23739776E-02 0.12499874E+03</pdfrwt>
<totfact> 0.79720288E+03</totfact>
</mgrwt>
</event>
<event>
 5    1  0.3217527E-002  0.1250020E+03  0.7818608E-02  0.1235066E+00
          4   -1    0    0  501    0  0.00000000000E+00  0.00000000000E+00  0.75113429414E+02  0.75124165076E+02  0.12700000000E+01 0. -1.
         -4   -1    0    0    0  501 -0.00000000000E+00 -0.00000000000E+00 -0.51984130421E+02  0.51999641495E+02  0.12700000000E+01 0. -1.
         25    2    1    2    0    0  0.00000000000E+00  0.00000000000E+00  0.23129298993E+02  0.12712380657E+03  0.12500199089E+03 0.  0.
    9000005    1    3    3    0    0 -0.26506232065E+02 -0.51403315409E+02 -0.12511950376E+02  0.59181332154E+02  0.10000000000E+01 0.  0.
    9000005    1    3    3    0    0  0.26506232065E+02  0.51403315409E+02  0.35641249369E+02  0.67942474417E+02  0.10000000000E+01 0.  0.
<mgrwt>
<rscale>  0 0.12500199E+03</rscale>
<asrwt>0</asrwt>
<pdfrwt beam="1">  1        4 0.11557931E-01 0.12500199E+03</pdfrwt>
<pdfrwt beam="2">  1       -4 0.79995775E-02 0.12500199E+03</pdfrwt>
<totfact> 0.10405989E+04</totfact>
</mgrwt>
</event>
<event>
 5    1  0.3217527E-002  0.1250007E+03  0.7818608E-02  0.1235068E+00
          4   -1    0    0  501    0  0.00000000000E+00  0.00000000000E+00  0.61419152644E+02  0.61432281510E+02  0.12700000000E+01 0.  1.
         -4   -1    0    0    0  501 -0.00000000000E+00 -0.00000000000E+00 -0.63574315031E+02  0.63586998920E+02  0.12700000000E+01 0.  1.
         25    2    1    2    0    0  0.00000000000E+00  0.00000000000E+00 -0.21551623872E+01  0.12501928043E+03  0.12500070301E+03 0.  0.
    9000005    1    3    3    0    0 -0.37788644290E+02 -0.17095553539E+01  0.48673049521E+02  0.61652006995E+02  0.10000000000E+01 0.  0.
    9000005    1    3    3    0    0  0.37788644290E+02  0.17095553539E+01 -0.50828211908E+02  0.63367273435E+02  0.10000000000E+01 0.  0.
<mgrwt>
<rscale>  0 0.12500070E+03</rscale>
<asrwt>0</asrwt>
<pdfrwt beam="1">  1        4 0.94510860E-02 0.12500070E+03</pdfrwt>
<pdfrwt beam="2">  1       -4 0.97826495E-02 0.12500070E+03</pdfrwt>
<totfact> 0.10452278E+04</totfact>
</mgrwt>
</event>
<event>
 5    1  0.3217527E-002  0.1249911E+03  0.7818608E-02  0.1235083E+00
         -4   -1    0    0    0  501 -0.00000000000E+00  0.00000000000E+00  0.25805548464E+03  0.25805860973E+03  0.12700000000E+01 0.  1.
          4   -1    0    0  501    0  0.00000000000E+00 -0.00000000000E+00 -0.15105240819E+02  0.15158535556E+02  0.12700000000E+01 0.  1.
         25    2    1    2    0    0  0.00000000000E+00  0.00000000000E+00  0.24295024382E+03  0.27321714528E+03  0.12499114970E+03 0.  0.
    9000005    1    3    3    0    0 -0.21493775171E+02  0.22262387335E+02  0.28091589113E+01  0.31088384241E+02  0.10000000000E+01 0.  0.
    9000005    1    3    3    0    0  0.21493775171E+02 -0.22262387335E+02  0.24014108491E+03  0.24212876104E+03  0.10000000000E+01 0.  0.
<mgrwt>
<rscale>  0 0.12499115E+03</rscale>
<asrwt>0</asrwt>
<pdfrwt beam="2">  1        4 0.23282232E-02 0.12499115E+03</pdfrwt>
<pdfrwt beam="1">  1       -4 0.39705183E-01 0.12499115E+03</pdfrwt>
<totfact> 0.79101711E+03</totfact>
</mgrwt>
</event>
<event>
 5    1  0.3217527E-002  0.1250017E+03  0.7818608E-02  0.1235067E+00
          4   -1    0    0  501    0  0.00000000000E+00  0.00000000000E+00  0.30438466141E+02  0.30464949056E+02  0.12700000000E+01 0. -1.
         -4   -1    0    0    0  501 -0.00000000000E+00 -0.00000000000E+00 -0.12825082892E+03  0.12825711684E+03  0.12700000000E+01 0. -1.
         25    2    1    2    0    0  0.00000000000E+00  0.00000000000E+00 -0.97812362782E+02  0.15872206589E+03  0.12500174354E+03 0.  0.
    9000005    1    3    3    0    0 -0.21181327500E+02  0.18073141062E+02 -0.11994543576E+03  0.12313892407E+03  0.10000000000E+01 0.  0.
    9000005    1    3    3    0    0  0.21181327500E+02 -0.18073141062E+02  0.22133072976E+02  0.35583141821E+02  0.10000000000E+01 0.  0.
<mgrwt>
<rscale>  0 0.12500174E+03</rscale>
<asrwt>0</asrwt>
<pdfrwt beam="1">  1        4 0.46853618E-02 0.12500174E+03</pdfrwt>
<pdfrwt beam="2">  1       -4 0.19733417E-01 0.12500174E+03</pdfrwt>
<totfact> 0.97585903E+03</totfact>
</mgrwt>
</event>
<event>
 5    1  0.3217527E-002  0.1250010E+03  0.7818608E-02  0.1235068E+00
         -4   -1    0    0    0  501 -0.00000000000E+00  0.00000000000E+00  0.10749628218E+04  0.10749635720E+04  0.12700000000E+01 0. -1.
          4   -1    0    0  501    0  0.00000000000E+00 -0.00000000000E+00 -0.35221673497E+01  0.37441371288E+01  0.12700000000E+01 0. -1.
         25    2    1    2    0    0  0.00000000000E+00  0.00000000000E+00  0.10714406544E+04  0.10787077091E+04  0.12500098300E+03 0.  0.
    9000005    1    3    3    0    0 -0.80839741639E+01 -0.45972758203E+02  0.89428657558E+03  0.89550450831E+03  0.10000000000E+01 0.  0.
    9000005    1    3    3    0    0  0.80839741639E+01  0.45972758203E+02  0.17715407885E+03  0.18320320081E+03  0.10000000000E+01 0.  0.
<mgrwt>
<rscale>  0 0.12500098E+03</rscale>
<asrwt>0</asrwt>
<pdfrwt beam="2">  1        4 0.55900458E-03 0.12500098E+03</pdfrwt>
<pdfrwt beam="1">  1       -4 0.16539592E+00 0.12500098E+03</pdfrwt>
<totfact> 0.28114478E+03</totfact>
</mgrwt>
</event>
<event>
 5    1  0.3217527E-002  0.1250004E+03  0.7818608E-02  0.1235069E+00
         -4   -1    0    0    0  501 -0.00000000000E+00  0.00000000000E+00  0.13891824488E+02  0.13949755826E+02  0.12700000000E+01 0.  1.
          4   -1    0    0  501    0  0.00000000000E+00 -0.00000000000E+00 -0.28054778516E+03  0.28055065970E+03  0.12700000000E+01 0.  1.
         25    2    1    2    0    0  0.00000000000E+00  0.00000000000E+00 -0.26665596067E+03  0.29450041553E+03  0.12500037353E+03 0.  0.
    9000005    1    3    3    0    0  0.42769535510E+02  0.43213311845E+02 -0.16735968059E+03  0.17806427540E+03  0.10000000000E+01 0.  0.
    9000005    1    3    3    0    0 -0.42769535510E+02 -0.43213311845E+02 -0.99296280083E+02  0.11643614012E+03  0.10000000000E+01 0.  0.
<mgrwt>
<rscale>  0 0.12500037E+03</rscale>
<asrwt>0</asrwt>
<pdfrwt beam="2">  1        4 0.43165871E-01 0.12500037E+03</pdfrwt>
<pdfrwt beam="1">  1       -4 0.21418813E-02 0.12500037E+03</pdfrwt>
<totfact> 0.76293285E+03</totfact>
</mgrwt>
</event>
<event>
 5    1  0.3217527E-002  0.1250074E+03  0.7818608E-02  0.1235058E+00
         -4   -1    0    0    0  501 -0.00000000000E+00  0.00000000000E+00  0.22453033683E+02  0.22488922196E+02  0.12700000000E+01 0.  1.
          4   -1    0    0  501    0  0.00000000000E+00 -0.00000000000E+00 -0.17381779533E+03  0.17382243490E+03  0.12700000000E+01 0.  1.
         25    2    1    2    0    0  0.00000000000E+00  0.00000000000E+00 -0.15136476165E+03  0.19631135710E+03  0.12500743120E+03 0.  0.
    9000005    1    3    3    0    0 -0.35861348686E+02  0.46052175898E+02 -0.11075801765E+03  0.12520054995E+03  0.10000000000E+01 0.  0.
    9000005    1    3    3    0    0  0.35861348686E+02 -0.46052175898E+02 -0.40606744004E+02  0.71110807148E+02  0.10000000000E+01 0.  0.
<mgrwt>
<rscale>  0 0.12500743E+03</rscale>
<asrwt>0</asrwt>
<pdfrwt beam="2">  1        4 0.26744316E-01 0.12500743E+03</pdfrwt>
<pdfrwt beam="1">  1       -4 0.34574305E-02 0.12500743E+03</pdfrwt>
<totfact> 0.90745511E+03</totfact>
</mgrwt>
</event>
<event>
 5    1  0.3217527E-002  0.1250019E+03  0.7818608E-02  0.1235066E+00
          4   -1    0    0  501    0  0.00000000000E+00  0.00000000000E+00  0.18240177945E+02  0.18284337327E+02  0.12700000000E+01 0.  1.
         -4   -1    0    0    0  501 -0.00000000000E+00 -0.00000000000E+00 -0.21385803036E+03  0.21386180128E+03  0.12700000000E+01 0.  1.
         25    2    1    2    0    0  0.00000000000E+00  0.00000000000E+00 -0.19561785241E+03  0.23214613861E+03  0.12500194194E+03 0.  0.
    9000005    1    3    3    0    0 -0.48831413598E+02  0.37755768416E+02 -0.11594496056E+03  0.13135539152E+03  0.10000000000E+01 0.  0.
    9000005    1    3    3    0    0  0.48831413598E+02 -0.37755768416E+02 -0.79672891856E+02  0.10079074709E+03  0.10000000000E+01 0.  0.
<mgrwt>
<rscale>  0 0.12500194E+03</rscale>
<asrwt>0</asrwt>
<pdfrwt beam="1">  1        4 0.28098683E-02 0.12500194E+03</pdfrwt>
<pdfrwt beam="2">  1       -4 0.32904921E-01 0.12500194E+03</pdfrwt>
<totfact> 0.84977461E+03</totfact>
</mgrwt>
</event>
<event>
 5    1  0.3217527E-002  0.1250014E+03  0.7818608E-02  0.1235067E+00
         -4   -1    0    0    0  501 -0.00000000000E+00  0.00000000000E+00  0.29900132139E+03  0.29900401853E+03  0.12700000000E+01 0. -1.
          4   -1    0    0  501    0  0.00000000000E+00 -0.00000000000E+00 -0.13030995629E+02  0.13092736425E+02  0.12700000000E+01 0. -1.
         25    2    1    2    0    0  0.00000000000E+00  0.00000000000E+00  0.28597032576E+03  0.31209675495E+03  0.12500142892E+03 0.  0.
    9000005    1    3    3    0    0  0.57693771226E+02  0.80266496315E+01  0.86471453133E+02  0.10426557701E+03  0.10000000000E+01 0.  0.
    9000005    1    3    3    0    0 -0.57693771226E+02 -0.80266496315E+01  0.19949887263E+03  0.20783117794E+03  0.10000000000E+01 0.  0.
<mgrwt>
<rscale>  0 0.12500143E+03</rscale>
<asrwt>0</asrwt>
<pdfrwt beam="2">  1        4 0.20097254E-02 0.12500143E+03</pdfrwt>
<pdfrwt beam="1">  1       -4 0.46005158E-01 0.12500143E+03</pdfrwt>
<totfact> 0.74103723E+03</totfact>
</mgrwt>
</event>
<event>
 5    1  0.3217527E-002  0.1249949E+03  0.7818608E-02  0.1235077E+00
          4   -1    0    0  501    0  0.00000000000E+00  0.00000000000E+00  0.19484862406E+03  0.19485276287E+03  0.12700000000E+01 0.  1.
         -4   -1    0    0    0  501 -0.00000000000E+00 -0.00000000000E+00 -0.20021495033E+02  0.20061733807E+02  0.12700000000E+01 0.  1.
         25    2    1    2    0    0  0.00000000000E+00  0.00000000000E+00  0.17482712903E+03  0.21491449668E+03  0.12499486325E+03 0.  0.
    9000005    1    3    3    0    0 -0.66039597414E+01  0.50650589880E+02  0.25519600073E+02  0.57108182665E+02  0.10000000000E+01 0.  0.
    9000005    1    3    3    0    0  0.66039597414E+01 -0.50650589880E+02  0.14930752895E+03  0.15780631401E+03  0.10000000000E+01 0.  0.
<mgrwt>
<rscale>  0 0.12499486E+03</rscale>
<asrwt>0</asrwt>
<pdfrwt beam="1">  1        4 0.29980124E-01 0.12499486E+03</pdfrwt>
<pdfrwt beam="2">  1       -4 0.30836438E-02 0.12499486E+03</pdfrwt>
<totfact> 0.87689582E+03</totfact>
</mgrwt>
</event>
<event>
 5    1  0.3217527E-002  0.1250006E+03  0.7818608E-02  0.1235068E+00
         -4   -1    0    0    0  501 -0.00000000000E+00  0.00000000000E+00  0.13068695516E+02  0.13130259041E+02  0.12700000000E+01 0. -1.
          4   -1    0    0  501    0  0.00000000000E+00 -0.00000000000E+00 -0.29813867965E+03  0.29814138459E+03  0.12700000000E+01 0. -1.
         25    2    1    2    0    0  0.00000000000E+00  0.00000000000E+00 -0.28506998414E+03  0.31127164363E+03  0.12500056109E+03 0.  0.
    9000005    1    3    3    0    0  0.20641951023E+01  0.36978750684E+02 -0.26787689763E+03  0.27042692393E+03  0.10000000000E+01 0.  0.
    9000005    1    3    3    0    0 -0.20641951023E+01 -0.36978750684E+02 -0.17193086506E+02  0.40844719698E+02  0.10000000000E+01 0.  0.
<mgrwt>
<rscale>  0 0.12500056E+03</rscale>
<asrwt>0</asrwt>
<pdfrwt beam="2">  1        4 0.45872428E-01 0.12500056E+03</pdfrwt>
<pdfrwt beam="1">  1       -4 0.20155125E-02 0.12500056E+03</pdfrwt>
<totfact> 0.74205431E+03</totfact>
</mgrwt>
</event>
<event>
 5    1  0.3217527E-002  0.1250069E+03  0.7818608E-02  0.1235059E+00
         -4   -1    0    0    0  501 -0.00000000000E+00  0.00000000000E+00  0.33021493920E+02  0.33045906867E+02  0.12700000000E+01 0. -1.
          4   -1    0    0  501    0  0.00000000000E+00 -0.00000000000E+00 -0.11823560608E+03  0.11824242658E+03  0.12700000000E+01 0. -1.
         25    2    1    2    0    0  0.00000000000E+00  0.00000000000E+00 -0.85214112158E+02  0.15128833345E+03  0.12500685952E+03 0.  0.
    9000005    1    3    3    0    0  0.56784287723E+02  0.96874179262E+00 -0.74172872187E+02  0.93423812603E+02  0.10000000000E+01 0.  0.
    9000005    1    3    3    0    0 -0.56784287723E+02 -0.96874179262E+00 -0.11041239970E+02  0.57864520848E+02  0.10000000000E+01 0.  0.
<mgrwt>
<rscale>  0 0.12500686E+03</rscale>
<asrwt>0</asrwt>
<pdfrwt beam="2">  1        4 0.18192496E-01 0.12500686E+03</pdfrwt>
<pdfrwt beam="1">  1       -4 0.50826325E-02 0.12500686E+03</pdfrwt>
<totfact> 0.99032219E+03</totfact>
</mgrwt>
</event>
<event>
 5    1  0.3217527E-002  0.1250136E+03  0.7818608E-02  0.1235048E+00
          4   -1    0    0  501    0  0.00000000000E+00  0.00000000000E+00  0.23771882788E+02  0.23805783148E+02  0.12700000000E+01 0. -1.
         -4   -1    0    0    0  501 -0.00000000000E+00 -0.00000000000E+00 -0.16420459770E+03  0.16420950888E+03  0.12700000000E+01 0. -1.
         25    2    1    2    0    0  0.00000000000E+00  0.00000000000E+00 -0.14043271491E+03  0.18801529202E+03  0.12501360973E+03 0.  0.
    9000005    1    3    3    0    0 -0.31773035596E+02  0.50337058381E+02 -0.41571752888E+02  0.72612367236E+02  0.10000000000E+01 0.  0.
    9000005    1    3    3    0    0  0.31773035596E+02 -0.50337058381E+02 -0.98860962023E+02  0.11540292479E+03  0.10000000000E+01 0.  0.
<mgrwt>
<rscale>  0 0.12501361E+03</rscale>
<asrwt>0</asrwt>
<pdfrwt beam="1">  1        4 0.36601983E-02 0.12501361E+03</pdfrwt>
<pdfrwt beam="2">  1       -4 0.25265231E-01 0.12501361E+03</pdfrwt>
<totfact> 0.92165693E+03</totfact>
</mgrwt>
</event>
<event>
 5    1  0.3217527E-002  0.1250002E+03  0.7818608E-02  0.1235069E+00
         -4   -1    0    0    0  501 -0.00000000000E+00  0.00000000000E+00  0.12089556750E+04  0.12089563421E+04  0.12700000000E+01 0. -1.
          4   -1    0    0  501    0  0.00000000000E+00 -0.00000000000E+00 -0.31056180145E+01  0.33552590439E+01  0.12700000000E+01 0. -1.
         25    2    1    2    0    0  0.00000000000E+00  0.00000000000E+00  0.12058500570E+04  0.12123116011E+04  0.12500023299E+03 0.  0.
    9000005    1    3    3    0    0 -0.52907194664E+02  0.64822292171E+01  0.91929070419E+03  0.92083526721E+03  0.10000000000E+01 0.  0.
    9000005    1    3    3    0    0  0.52907194664E+02 -0.64822292171E+01  0.28655935282E+03  0.29147633391E+03  0.10000000000E+01 0.  0.
<mgrwt>
<rscale>  0 0.12500023E+03</rscale>
<asrwt>0</asrwt>
<pdfrwt beam="2">  1        4 0.49704226E-03 0.12500023E+03</pdfrwt>
<pdfrwt beam="1">  1       -4 0.18601228E+00 0.12500023E+03</pdfrwt>
<totfact> 0.24392653E+03</totfact>
</mgrwt>
</event>
<event>
 5    1  0.3217527E-002  0.1250001E+03  0.7818608E-02  0.1235069E+00
          4   -1    0    0  501    0  0.00000000000E+00  0.00000000000E+00  0.96383690591E+02  0.96392057308E+02  0.12700000000E+01 0. -1.
         -4   -1    0    0    0  501 -0.00000000000E+00 -0.00000000000E+00 -0.40508123776E+02  0.40528027238E+02  0.12700000000E+01 0. -1.
         25    2    1    2    0    0  0.00000000000E+00  0.00000000000E+00  0.55875566816E+02  0.13692008455E+03  0.12500012234E+03 0.  0.
    9000005    1    3    3    0    0 -0.29127310494E+02 -0.53206670023E+02  0.11474280963E+02  0.61741469655E+02  0.10000000000E+01 0.  0.
    9000005    1    3    3    0    0  0.29127310494E+02  0.53206670023E+02  0.44401285853E+02  0.75178614891E+02  0.10000000000E+01 0.  0.
<mgrwt>
<rscale>  0 0.12500012E+03</rscale>
<asrwt>0</asrwt>
<pdfrwt beam="1">  1        4 0.14830434E-01 0.12500012E+03</pdfrwt>
<pdfrwt beam="2">  1       -4 0.62341938E-02 0.12500012E+03</pdfrwt>
<totfact> 0.10197729E+04</totfact>
</mgrwt>
</event>
<event>
 5    1  0.3217527E-002  0.1249964E+03  0.7818608E-02  0.1235075E+00
         -4   -1    0    0    0  501 -0.00000000000E+00  0.00000000000E+00  0.25859268132E+02  0.25890435460E+02  0.12700000000E+01 0. -1.
          4   -1    0    0  501    0  0.00000000000E+00 -0.00000000000E+00 -0.15092458593E+03  0.15092992923E+03  0.12700000000E+01 0. -1.
         25    2    1    2    0    0  0.00000000000E+00  0.00000000000E+00 -0.12506531779E+03  0.17682036469E+03  0.12499643056E+03 0.  0.
    9000005    1    3    3    0    0 -0.40283549158E+02 -0.10461487721E+02 -0.12847229274E+03  0.13504938749E+03  0.10000000000E+01 0.  0.
    9000005    1    3    3    0    0  0.40283549158E+02  0.10461487721E+02  0.34069749488E+01  0.41770977202E+02  0.10000000000E+01 0.  0.
<mgrwt>
<rscale>  0 0.12499643E+03</rscale>
<asrwt>0</asrwt>
<pdfrwt beam="2">  1        4 0.23221975E-01 0.12499643E+03</pdfrwt>
<pdfrwt beam="1">  1       -4 0.39811576E-02 0.12499643E+03</pdfrwt>
<totfact> 0.94200041E+03</totfact>
</mgrwt>
</event>
<event>
 5    1  0.3217527E-002  0.1249962E+03  0.7818608E-02  0.1235075E+00
          4   -1    0    0  501    0  0.00000000000E+00  0.00000000000E+00  0.11474788801E+02  0.11544855046E+02  0.12700000000E+01 0. -1.
         -4   -1    0    0    0  501 -0.00000000000E+00 -0.00000000000E+00 -0.33929190568E+03  0.33929428253E+03  0.12700000000E+01 0. -1.
         25    2    1    2    0    0  0.00000000000E+00  0.00000000000E+00 -0.32781711688E+03  0.35083913758E+03  0.12499615330E+03 0.  0.
    9000005    1    3    3    0    0  0.44128557693E+02  0.16258790540E+01 -0.39803689138E+02  0.59458445622E+02  0.10000000000E+01 0.  0.
    9000005    1    3    3    0    0 -0.44128557693E+02 -0.16258790540E+01 -0.28801342774E+03  0.29138069196E+03  0.10000000000E+01 0.  0.
<mgrwt>
<rscale>  0 0.12499615E+03</rscale>
<asrwt>0</asrwt>
<pdfrwt beam="1">  1        4 0.17709249E-02 0.12499615E+03</pdfrwt>
<pdfrwt beam="2">  1       -4 0.52204320E-01 0.12499615E+03</pdfrwt>
<totfact> 0.69638270E+03</totfact>
</mgrwt>
</event>
<event>
 5    1  0.3217527E-002  0.1249908E+03  0.7818608E-02  0.1235084E+00
         -4   -1    0    0    0  501 -0.00000000000E+00  0.00000000000E+00  0.78426103624E+01  0.79447742130E+01  0.12700000000E+01 0.  1.
          4   -1    0    0  501    0  0.00000000000E+00 -0.00000000000E+00 -0.49468105316E+03  0.49468268340E+03  0.12700000000E+01 0.  1.
         25    2    1    2    0    0  0.00000000000E+00  0.00000000000E+00 -0.48683844280E+03  0.50262745762E+03  0.12499076670E+03 0.  0.
    9000005    1    3    3    0    0 -0.35261454553E+02  0.48040295742E+02 -0.16781924303E+03  0.17808856932E+03  0.10000000000E+01 0.  0.
    9000005    1    3    3    0    0  0.35261454553E+02 -0.48040295742E+02 -0.31901919978E+03  0.32453888830E+03  0.10000000000E+01 0.  0.
<mgrwt>
<rscale>  0 0.12499077E+03</rscale>
<asrwt>0</asrwt>
<pdfrwt beam="2">  1        4 0.76112738E-01 0.12499077E+03</pdfrwt>
<pdfrwt beam="1">  1       -4 0.12145400E-02 0.12499077E+03</pdfrwt>
<totfact> 0.55672394E+03</totfact>
</mgrwt>
</event>
<event>
 5    1  0.3217527E-002  0.1249985E+03  0.7818608E-02  0.1235072E+00
          4   -1    0    0  501    0  0.00000000000E+00  0.00000000000E+00  0.45880976166E+03  0.45881151935E+03  0.12700000000E+01 0.  1.
         -4   -1    0    0    0  501 -0.00000000000E+00 -0.00000000000E+00 -0.84645229604E+01  0.85592668463E+01  0.12700000000E+01 0.  1.
         25    2    1    2    0    0  0.00000000000E+00  0.00000000000E+00  0.45034523870E+03  0.46737078620E+03  0.12499847110E+03 0.  0.
    9000005    1    3    3    0    0  0.16603183621E+02  0.59754527746E+02  0.19648068949E+03  0.20603866296E+03  0.10000000000E+01 0.  0.
    9000005    1    3    3    0    0 -0.16603183621E+02 -0.59754527746E+02  0.25386454921E+03  0.26133212324E+03  0.10000000000E+01 0.  0.
<mgrwt>
<rscale>  0 0.12499847E+03</rscale>
<asrwt>0</asrwt>
<pdfrwt beam="1">  1        4 0.70593547E-01 0.12499847E+03</pdfrwt>
<pdfrwt beam="2">  1       -4 0.13096574E-02 0.12499847E+03</pdfrwt>
<totfact> 0.58489920E+03</totfact>
</mgrwt>
</event>
<event>
 5    1  0.3217527E-002  0.1249930E+03  0.7818608E-02  0.1235080E+00
          4   -1    0    0  501    0  0.00000000000E+00  0.00000000000E+00  0.13413263014E+03  0.13413864234E+03  0.12700000000E+01 0.  1.
         -4   -1    0    0    0  501 -0.00000000000E+00 -0.00000000000E+00 -0.29098515374E+02  0.29126216661E+02  0.12700000000E+01 0.  1.
         25    2    1    2    0    0  0.00000000000E+00  0.00000000000E+00  0.10503411477E+03  0.16326485900E+03  0.12499299548E+03 0.  0.
    9000005    1    3    3    0    0 -0.30171703197E+02 -0.53250740280E+02  0.36054931873E+02  0.71041756218E+02  0.10000000000E+01 0.  0.
    9000005    1    3    3    0    0  0.30171703197E+02  0.53250740280E+02  0.68979182896E+02  0.92223102785E+02  0.10000000000E+01 0.  0.
<mgrwt>
<rscale>  0 0.12499300E+03</rscale>
<asrwt>0</asrwt>
<pdfrwt beam="1">  1        4 0.20638382E-01 0.12499300E+03</pdfrwt>
<pdfrwt beam="2">  1       -4 0.44792881E-02 0.12499300E+03</pdfrwt>
<totfact> 0.96732237E+03</totfact>
</mgrwt>
</event>
<event>
 5    1  0.3217527E-002  0.1249995E+03  0.7818608E-02  0.1235070E+00
          4   -1    0    0  501    0  0.00000000000E+00  0.00000000000E+00  0.33556492013E+02  0.33580516021E+02  0.12700000000E+01 0. -1.
         -4   -1    0    0    0  501 -0.00000000000E+00 -0.00000000000E+00 -0.11633805309E+03  0.11634498484E+03  0.12700000000E+01 0. -1.
         25    2    1    2    0    0  0.00000000000E+00  0.00000000000E+00 -0.82781561075E+02  0.14992550086E+03  0.12499947581E+03 0.  0.
    9000005    1    3    3    0    0  0.51347782010E+01 -0.44188952199E+01 -0.11590222345E+03  0.11610434093E+03  0.10000000000E+01 0.  0.
    9000005    1    3    3    0    0 -0.51347782010E+01  0.44188952199E+01  0.33120662378E+02  0.33821159923E+02  0.10000000000E+01 0.  0.
<mgrwt>
<rscale>  0 0.12499948E+03</rscale>
<asrwt>0</asrwt>
<pdfrwt beam="1">  1        4 0.51649185E-02 0.12499948E+03</pdfrwt>
<pdfrwt beam="2">  1       -4 0.17900543E-01 0.12499948E+03</pdfrwt>
<totfact> 0.99319722E+03</totfact>
</mgrwt>
</event>
<event>
 5    1  0.3217527E-002  0.1250015E+03  0.7818608E-02  0.1235067E+00
         -4   -1    0    0    0  501 -0.00000000000E+00  0.00000000000E+00  0.15349300308E+03  0.15349825698E+03  0.12700000000E+01 0. -1.
          4   -1    0    0  501    0  0.00000000000E+00 -0.00000000000E+00 -0.25428099479E+02  0.25459794640E+02  0.12700000000E+01 0. -1.
         25    2    1    2    0    0  0.00000000000E+00  0.00000000000E+00  0.12806490361E+03  0.17895805162E+03  0.12500145881E+03 0.  0.
    9000005    1    3    3    0    0 -0.12481947723E+02 -0.23567681824E+02 -0.16879161327E+02  0.31577535253E+02  0.10000000000E+01 0.  0.
    9000005    1    3    3    0    0  0.12481947723E+02  0.23567681824E+02  0.14494406493E+03  0.14738051637E+03  0.10000000000E+01 0.  0.
<mgrwt>
<rscale>  0 0.12500146E+03</rscale>
<asrwt>0</asrwt>
<pdfrwt beam="2">  1        4 0.39148575E-02 0.12500146E+03</pdfrwt>
<pdfrwt beam="1">  1       -4 0.23617151E-01 0.12500146E+03</pdfrwt>
<totfact> 0.93801825E+03</totfact>
</mgrwt>
</event>
<event>
 5    1  0.3217527E-002  0.1249919E+03  0.7818608E-02  0.1235082E+00
         -4   -1    0    0    0  501 -0.00000000000E+00  0.00000000000E+00  0.21522803164E+02  0.21560240166E+02  0.12700000000E+01 0. -1.
          4   -1    0    0  501    0  0.00000000000E+00 -0.00000000000E+00 -0.18127271243E+03  0.18127716119E+03  0.12700000000E+01 0. -1.
         25    2    1    2    0    0  0.00000000000E+00  0.00000000000E+00 -0.15974990926E+03  0.20283740136E+03  0.12499191126E+03 0.  0.
    9000005    1    3    3    0    0 -0.55799505951E+02  0.15908053678E+02 -0.11751888621E+03  0.13106616517E+03  0.10000000000E+01 0.  0.
    9000005    1    3    3    0    0  0.55799505951E+02 -0.15908053678E+02 -0.42231023054E+02  0.71771236192E+02  0.10000000000E+01 0.  0.
<mgrwt>
<rscale>  0 0.12499191E+03</rscale>
<asrwt>0</asrwt>
<pdfrwt beam="2">  1        4 0.27891330E-01 0.12499191E+03</pdfrwt>
<pdfrwt beam="1">  1       -4 0.33144226E-02 0.12499191E+03</pdfrwt>
<totfact> 0.89675379E+03</totfact>
</mgrwt>
</event>
<event>
 5    1  0.3217527E-002  0.1249991E+03  0.7818608E-02  0.1235071E+00
          4   -1    0    0  501    0  0.00000000000E+00  0.00000000000E+00  0.20987119835E+03  0.20987504091E+03  0.12700000000E+01 0. -1.
         -4   -1    0    0    0  501 -0.00000000000E+00 -0.00000000000E+00 -0.18586653367E+02  0.18629991503E+02  0.12700000000E+01 0. -1.
         25    2    1    2    0    0  0.00000000000E+00  0.00000000000E+00  0.19128454498E+03  0.22850503241E+03  0.12499909075E+03 0.  0.
    9000005    1    3    3    0    0  0.43818195108E+02  0.24514160791E+02  0.16365507496E+03  0.17118692083E+03  0.10000000000E+01 0.  0.
    9000005    1    3    3    0    0 -0.43818195108E+02 -0.24514160791E+02  0.27629470019E+02  0.57318111583E+02  0.10000000000E+01 0.  0.
<mgrwt>
<rscale>  0 0.12499909E+03</rscale>
<asrwt>0</asrwt>
<pdfrwt beam="1">  1        4 0.32291506E-01 0.12499909E+03</pdfrwt>
<pdfrwt beam="2">  1       -4 0.28631145E-02 0.12499909E+03</pdfrwt>
<totfact> 0.85541415E+03</totfact>
</mgrwt>
</event>
<event>
 5    1  0.3217527E-002  0.1249985E+03  0.7818608E-02  0.1235072E+00
          4   -1    0    0  501    0  0.00000000000E+00  0.00000000000E+00  0.13328973478E+04  0.13328979528E+04  0.12700000000E+01 0. -1.
         -4   -1    0    0    0  501 -0.00000000000E+00 -0.00000000000E+00 -0.27923471210E+01  0.30675890279E+01  0.12700000000E+01 0. -1.
         25    2    1    2    0    0  0.00000000000E+00  0.00000000000E+00  0.13301050007E+04  0.13359655418E+04  0.12499846485E+03 0.  0.
    9000005    1    3    3    0    0 -0.55780254015E+01 -0.41873615868E+02  0.17287240077E+03  0.17796174033E+03  0.10000000000E+01 0.  0.
    9000005    1    3    3    0    0  0.55780254015E+01  0.41873615868E+02  0.11572325999E+04  0.11580038015E+04  0.10000000000E+01 0.  0.
<mgrwt>
<rscale>  0 0.12499846E+03</rscale>
<asrwt>0</asrwt>
<pdfrwt beam="1">  1        4 0.20508244E+00 0.12499846E+03</pdfrwt>
<pdfrwt beam="2">  1       -4 0.45081067E-03 0.12499846E+03</pdfrwt>
<totfact> 0.21395950E+03</totfact>
</mgrwt>
</event>
<event>
 5    1  0.3217527E-002  0.1250050E+03  0.7818608E-02  0.1235061E+00
          4   -1    0    0  501    0  0.00000000000E+00  0.00000000000E+00  0.33163713552E+02  0.33188021883E+02  0.12700000000E+01 0. -1.
         -4   -1    0    0    0  501 -0.00000000000E+00 -0.00000000000E+00 -0.11772540356E+03  0.11773225362E+03  0.12700000000E+01 0. -1.
         25    2    1    2    0    0  0.00000000000E+00  0.00000000000E+00 -0.84561690008E+02  0.15092027551E+03  0.12500500047E+03 0.  0.
    9000005    1    3    3    0    0  0.54006892705E+02 -0.27637182168E+02 -0.24170965860E+02  0.65313045316E+02  0.10000000000E+01 0.  0.
    9000005    1    3    3    0    0 -0.54006892705E+02  0.27637182168E+02 -0.60390724149E+02  0.85607230191E+02  0.10000000000E+01 0.  0.
<mgrwt>
<rscale>  0 0.12500500E+03</rscale>
<asrwt>0</asrwt>
<pdfrwt beam="1">  1        4 0.51045067E-02 0.12500500E+03</pdfrwt>
<pdfrwt beam="2">  1       -4 0.18113997E-01 0.12500500E+03</pdfrwt>
<totfact> 0.99109418E+03</totfact>
</mgrwt>
</event>
<event>
 5    1  0.3217527E-002  0.1249954E+03  0.7818608E-02  0.1235077E+00
         -4   -1    0    0    0  501 -0.00000000000E+00  0.00000000000E+00  0.49569355112E+03  0.49569517803E+03  0.12700000000E+01 0. -1.
          4   -1    0    0  501    0  0.00000000000E+00 -0.00000000000E+00 -0.78269650584E+01  0.79293304904E+01  0.12700000000E+01 0. -1.
         25    2    1    2    0    0  0.00000000000E+00  0.00000000000E+00  0.48786658606E+03  0.50362450852E+03  0.12499535906E+03 0.  0.
    9000005    1    3    3    0    0 -0.41787303405E+02 -0.43399195980E+02  0.17708212773E+03  0.18705279709E+03  0.10000000000E+01 0.  0.
    9000005    1    3    3    0    0  0.41787303405E+02  0.43399195980E+02  0.31078445833E+03  0.31657171143E+03  0.10000000000E+01 0.  0.
<mgrwt>
<rscale>  0 0.12499536E+03</rscale>
<asrwt>0</asrwt>
<pdfrwt beam="2">  1        4 0.12121476E-02 0.12499536E+03</pdfrwt>
<pdfrwt beam="1">  1       -4 0.76268562E-01 0.12499536E+03</pdfrwt>
<totfact> 0.55589904E+03</totfact>
</mgrwt>
</event>
<event>
 5    1  0.3217527E-002  0.1250010E+03  0.7818608E-02  0.1235068E+00
         -4   -1    0    0    0  501 -0.00000000000E+00  0.00000000000E+00  0.85721405581E+02  0.85730812867E+02  0.12700000000E+01 0.  1.
          4   -1    0    0  501    0  0.00000000000E+00 -0.00000000000E+00 -0.45549120277E+02  0.45566821900E+02  0.12700000000E+01 0.  1.
         25    2    1    2    0    0  0.00000000000E+00  0.00000000000E+00  0.40172285304E+02  0.13129763477E+03  0.12500102555E+03 0.  0.
    9000005    1    3    3    0    0  0.10110302844E+02  0.23323227366E+02  0.80050571027E+02  0.83995744417E+02  0.10000000000E+01 0.  0.
    9000005    1    3    3    0    0 -0.10110302844E+02 -0.23323227366E+02 -0.39878285723E+02  0.47301890349E+02  0.10000000000E+01 0.  0.
<mgrwt>
<rscale>  0 0.12500103E+03</rscale>
<asrwt>0</asrwt>
<pdfrwt beam="2">  1        4 0.70096423E-02 0.12500103E+03</pdfrwt>
<pdfrwt beam="1">  1       -4 0.13189994E-01 0.12500103E+03</pdfrwt>
<totfact> 0.10316474E+04</totfact>
</mgrwt>
</event>
<event>
 5    1  0.3217527E-002  0.1250104E+03  0.7818608E-02  0.1235053E+00
          4   -1    0    0  501    0  0.00000000000E+00  0.00000000000E+00  0.41403700634E+02  0.41423173783E+02  0.12700000000E+01 0. -1.
         -4   -1    0    0    0  501 -0.00000000000E+00 -0.00000000000E+00 -0.94315263154E+02  0.94323813344E+02  0.12700000000E+01 0. -1.
         25    2    1    2    0    0  0.00000000000E+00  0.00000000000E+00 -0.52911562520E+02  0.13574698713E+03  0.12501044383E+03 0.  0.
    9000005    1    3    3    0    0 -0.91951584142E+01 -0.64704163473E-01 -0.93581998892E+02  0.94038001050E+02  0.10000000000E+01 0.  0.
    9000005    1    3    3    0    0  0.91951584142E+01  0.64704163473E-01  0.40670436372E+02  0.41708986077E+02  0.10000000000E+01 0.  0.
<mgrwt>
<rscale>  0 0.12501044E+03</rscale>
<asrwt>0</asrwt>
<pdfrwt beam="1">  1        4 0.63719558E-02 0.12501044E+03</pdfrwt>
<pdfrwt beam="2">  1       -4 0.14512196E-01 0.12501044E+03</pdfrwt>
<totfact> 0.10219943E+04</totfact>
</mgrwt>
</event>
<event>
 5    1  0.3217527E-002  0.1250021E+03  0.7818608E-02  0.1235066E+00
          4   -1    0    0  501    0  0.00000000000E+00  0.00000000000E+00  0.11297548087E+04  0.11297555226E+04  0.12700000000E+01 0. -1.
         -4   -1    0    0    0  501 -0.00000000000E+00 -0.00000000000E+00 -0.33403717500E+01  0.35736512740E+01  0.12700000000E+01 0. -1.
         25    2    1    2    0    0  0.00000000000E+00  0.00000000000E+00  0.11264144370E+04  0.11333291738E+04  0.12500212966E+03 0.  0.
    9000005    1    3    3    0    0  0.30801685339E+02 -0.45986520697E+02  0.30014193042E+03  0.30520432877E+03  0.10000000000E+01 0.  0.
    9000005    1    3    3    0    0 -0.30801685339E+02  0.45986520697E+02  0.82627250657E+03  0.82812484506E+03  0.10000000000E+01 0.  0.
<mgrwt>
<rscale>  0 0.12500213E+03</rscale>
<asrwt>0</asrwt>
<pdfrwt beam="1">  1        4 0.17382644E+00 0.12500213E+03</pdfrwt>
<pdfrwt beam="2">  1       -4 0.53190281E-03 0.12500213E+03</pdfrwt>
<totfact> 0.26526116E+03</totfact>
</mgrwt>
</event>
<event>
 5    1  0.3217527E-002  0.1250046E+03  0.7818608E-02  0.1235062E+00
         -4   -1    0    0    0  501 -0.00000000000E+00  0.00000000000E+00  0.60739894169E+02  0.60753169824E+02  0.12700000000E+01 0.  1.
          4   -1    0    0  501    0  0.00000000000E+00 -0.00000000000E+00 -0.64289264868E+02  0.64301807729E+02  0.12700000000E+01 0.  1.
         25    2    1    2    0    0  0.00000000000E+00  0.00000000000E+00 -0.35493706994E+01  0.12505497755E+03  0.12500459743E+03 0.  0.
    9000005    1    3    3    0    0  0.39523869851E+02 -0.39353910987E+02  0.26426580968E+02  0.61727066832E+02  0.10000000000E+01 0.  0.
    9000005    1    3    3    0    0 -0.39523869851E+02  0.39353910987E+02 -0.29975951667E+02  0.63327910721E+02  0.10000000000E+01 0.  0.
<mgrwt>
<rscale>  0 0.12500460E+03</rscale>
<asrwt>0</asrwt>
<pdfrwt beam="2">  1        4 0.98926421E-02 0.12500460E+03</pdfrwt>
<pdfrwt beam="1">  1       -4 0.93465852E-02 0.12500460E+03</pdfrwt>
<totfact> 0.10450583E+04</totfact>
</mgrwt>
</event>
<event>
 5    1  0.3217527E-002  0.1249949E+03  0.7818608E-02  0.1235077E+00
         -4   -1    0    0    0  501 -0.00000000000E+00  0.00000000000E+00  0.69033599088E+02  0.69045280092E+02  0.12700000000E+01 0. -1.
          4   -1    0    0  501    0  0.00000000000E+00 -0.00000000000E+00 -0.56556531888E+02  0.56570789275E+02  0.12700000000E+01 0. -1.
         25    2    1    2    0    0  0.00000000000E+00  0.00000000000E+00  0.12477067200E+02  0.12561606937E+03  0.12499487860E+03 0.  0.
    9000005    1    3    3    0    0 -0.35382995541E+02  0.47315840703E+02 -0.14214137784E+02  0.60776532213E+02  0.10000000000E+01 0.  0.
    9000005    1    3    3    0    0  0.35382995541E+02 -0.47315840703E+02  0.26691204984E+02  0.64839537154E+02  0.10000000000E+01 0.  0.
<mgrwt>
<rscale>  0 0.12499488E+03</rscale>
<asrwt>0</asrwt>
<pdfrwt beam="2">  1        4 0.87030002E-02 0.12499488E+03</pdfrwt>
<pdfrwt beam="1">  1       -4 0.10622549E-01 0.12499488E+03</pdfrwt>
<totfact> 0.10440599E+04</totfact>
</mgrwt>
</event>
<event>
 5    1  0.3217527E-002  0.1249966E+03  0.7818608E-02  0.1235075E+00
         -4   -1    0    0    0  501 -0.00000000000E+00  0.00000000000E+00  0.30524548299E+03  0.30524812495E+03  0.12700000000E+01 0. -1.
          4   -1    0    0  501    0  0.00000000000E+00 -0.00000000000E+00 -0.12762165505E+02  0.12825200520E+02  0.12700000000E+01 0. -1.
         25    2    1    2    0    0  0.00000000000E+00  0.00000000000E+00  0.29248331749E+03  0.31807332547E+03  0.12499659743E+03 0.  0.
    9000005    1    3    3    0    0  0.11168605454E+02  0.31241432668E+02  0.28099488235E+03  0.28294856206E+03  0.10000000000E+01 0.  0.
    9000005    1    3    3    0    0 -0.11168605454E+02 -0.31241432668E+02  0.11488435133E+02  0.35124763412E+02  0.10000000000E+01 0.  0.
<mgrwt>
<rscale>  0 0.12499660E+03</rscale>
<asrwt>0</asrwt>
<pdfrwt beam="2">  1        4 0.19684623E-02 0.12499660E+03</pdfrwt>
<pdfrwt beam="1">  1       -4 0.46965891E-01 0.12499660E+03</pdfrwt>
<totfact> 0.73391402E+03</totfact>
</mgrwt>
</event>
<event>
 5    1  0.3217527E-002  0.1249994E+03  0.7818608E-02  0.1235070E+00
          4   -1    0    0  501    0  0.00000000000E+00  0.00000000000E+00  0.20071787984E+03  0.20072189763E+03  0.12700000000E+01 0.  1.
         -4   -1    0    0    0  501 -0.00000000000E+00 -0.00000000000E+00 -0.19436284701E+02  0.19477732491E+02  0.12700000000E+01 0.  1.
         25    2    1    2    0    0  0.00000000000E+00  0.00000000000E+00  0.18128159514E+03  0.22019963012E+03  0.12499944147E+03 0.  0.
    9000005    1    3    3    0    0 -0.62005232383E+02  0.74327425248E+01  0.86577409292E+02  0.10675458915E+03  0.10000000000E+01 0.  0.
    9000005    1    3    3    0    0  0.62005232383E+02 -0.74327425248E+01  0.94704185846E+02  0.11344504097E+03  0.10000000000E+01 0.  0.
<mgrwt>
<rscale>  0 0.12499944E+03</rscale>
<asrwt>0</asrwt>
<pdfrwt beam="1">  1        4 0.30883170E-01 0.12499944E+03</pdfrwt>
<pdfrwt beam="2">  1       -4 0.29936951E-02 0.12499944E+03</pdfrwt>
<totfact> 0.86837854E+03</totfact>
</mgrwt>
</event>
<event>
 5    1  0.3217527E-002  0.1249989E+03  0.7818608E-02  0.1235071E+00
          4   -1    0    0  501    0  0.00000000000E+00  0.00000000000E+00  0.24889107011E+02  0.24921487672E+02  0.12700000000E+01 0.  1.
         -4   -1    0    0    0  501 -0.00000000000E+00 -0.00000000000E+00 -0.15680651015E+03  0.15681165303E+03  0.12700000000E+01 0.  1.
         25    2    1    2    0    0  0.00000000000E+00  0.00000000000E+00 -0.13191740314E+03  0.18173314070E+03  0.12499893271E+03 0.  0.
    9000005    1    3    3    0    0 -0.14788540795E+02 -0.52922714509E+02 -0.22691036216E+02  0.59459211014E+02  0.10000000000E+01 0.  0.
    9000005    1    3    3    0    0  0.14788540795E+02  0.52922714509E+02 -0.10922636693E+03  0.12227392969E+03  0.10000000000E+01 0.  0.
<mgrwt>
<rscale>  0 0.12499893E+03</rscale>
<asrwt>0</asrwt>
<pdfrwt beam="1">  1        4 0.38319799E-02 0.12499893E+03</pdfrwt>
<pdfrwt beam="2">  1       -4 0.24126964E-01 0.12499893E+03</pdfrwt>
<totfact> 0.93308192E+03</totfact>
</mgrwt>
</event>
<event>
 5    1  0.3217527E-002  0.1249984E+03  0.7818608E-02  0.1235072E+00
          4   -1    0    0  501    0  0.00000000000E+00  0.00000000000E+00  0.35078854632E+02  0.35101836736E+02  0.12700000000E+01 0.  1.
         -4   -1    0    0    0  501 -0.00000000000E+00 -0.00000000000E+00 -0.11129037011E+03  0.11129761624E+03  0.12700000000E+01 0.  1.
         25    2    1    2    0    0  0.00000000000E+00  0.00000000000E+00 -0.76211515480E+02  0.14639945297E+03  0.12499841894E+03 0.  0.
    9000005    1    3    3    0    0  0.30893257263E+02  0.22480338913E+02 -0.96023176170E+02  0.10334993635E+03  0.10000000000E+01 0.  0.
    9000005    1    3    3    0    0 -0.30893257263E+02 -0.22480338913E+02  0.19811660690E+02  0.43049516621E+02  0.10000000000E+01 0.  0.
<mgrwt>
<rscale>  0 0.12499842E+03</rscale>
<asrwt>0</asrwt>
<pdfrwt beam="1">  1        4 0.53990722E-02 0.12499842E+03</pdfrwt>
<pdfrwt beam="2">  1       -4 0.17123920E-01 0.12499842E+03</pdfrwt>
<totfact> 0.10002988E+04</totfact>
</mgrwt>
</event>
<event>
 5    1  0.3217527E-002  0.1250055E+03  0.7818608E-02  0.1235061E+00
          4   -1    0    0  501    0  0.00000000000E+00  0.00000000000E+00  0.39363528354E+03  0.39363733225E+03  0.12700000000E+01 0.  1.
         -4   -1    0    0    0  501 -0.00000000000E+00 -0.00000000000E+00 -0.98816940738E+01  0.99629703286E+01  0.12700000000E+01 0.  1.
         25    2    1    2    0    0  0.00000000000E+00  0.00000000000E+00  0.38375358946E+03  0.40360030258E+03  0.12500554716E+03 0.  0.
    9000005    1    3    3    0    0  0.43746658345E+02 -0.58853837040E+01  0.33471308557E+03  0.33761258494E+03  0.10000000000E+01 0.  0.
    9000005    1    3    3    0    0 -0.43746658345E+02  0.58853837040E+01  0.49040503888E+02  0.65987717639E+02  0.10000000000E+01 0.  0.
<mgrwt>
<rscale>  0 0.12500555E+03</rscale>
<asrwt>0</asrwt>
<pdfrwt beam="1">  1        4 0.60565671E-01 0.12500555E+03</pdfrwt>
<pdfrwt beam="2">  1       -4 0.15266706E-02 0.12500555E+03</pdfrwt>
<totfact> 0.64196273E+03</totfact>
</mgrwt>
</event>
<event>
 5    1  0.3217527E-002  0.1250055E+03  0.7818608E-02  0.1235061E+00
          4   -1    0    0  501    0  0.00000000000E+00  0.00000000000E+00  0.21221840973E+03  0.21222220979E+03  0.12700000000E+01 0. -1.
         -4   -1    0    0    0  501 -0.00000000000E+00 -0.00000000000E+00 -0.18382497014E+02  0.18426315326E+02  0.12700000000E+01 0. -1.
         25    2    1    2    0    0  0.00000000000E+00  0.00000000000E+00  0.19383591271E+03  0.23064852511E+03  0.12500552420E+03 0.  0.
    9000005    1    3    3    0    0  0.31698353369E+02  0.53598304910E+02  0.10668681156E+03  0.12353396155E+03  0.10000000000E+01 0.  0.
    9000005    1    3    3    0    0 -0.31698353369E+02 -0.53598304910E+02  0.87149101153E+02  0.10711456356E+03  0.10000000000E+01 0.  0.
<mgrwt>
<rscale>  0 0.12500552E+03</rscale>
<asrwt>0</asrwt>
<pdfrwt beam="1">  1        4 0.32652651E-01 0.12500552E+03</pdfrwt>
<pdfrwt beam="2">  1       -4 0.28317392E-02 0.12500552E+03</pdfrwt>
<totfact> 0.85199611E+03</totfact>
</mgrwt>
</event>
<event>
 5    1  0.3217527E-002  0.1249988E+03  0.7818608E-02  0.1235071E+00
         -4   -1    0    0    0  501 -0.00000000000E+00  0.00000000000E+00  0.38542093577E+02  0.38563011777E+02  0.12700000000E+01 0. -1.
          4   -1    0    0  501    0  0.00000000000E+00 -0.00000000000E+00 -0.10129583490E+03  0.10130379593E+03  0.12700000000E+01 0. -1.
         25    2    1    2    0    0  0.00000000000E+00  0.00000000000E+00 -0.62753741327E+02  0.13986680770E+03  0.12499876738E+03 0.  0.
    9000005    1    3    3    0    0 -0.58582045016E+02 -0.56829628626E+00 -0.55712173176E+02  0.80851871957E+02  0.10000000000E+01 0.  0.
    9000005    1    3    3    0    0  0.58582045016E+02  0.56829628626E+00 -0.70415681513E+01  0.59014935745E+02  0.10000000000E+01 0.  0.
<mgrwt>
<rscale>  0 0.12499877E+03</rscale>
<asrwt>0</asrwt>
<pdfrwt beam="2">  1        4 0.15586196E-01 0.12499877E+03</pdfrwt>
<pdfrwt beam="1">  1       -4 0.59317744E-02 0.12499877E+03</pdfrwt>
<totfact> 0.10136628E+04</totfact>
</mgrwt>
</event>
<event>
 5    1  0.3217527E-002  0.1250107E+03  0.7818608E-02  0.1235053E+00
          4   -1    0    0  501    0  0.00000000000E+00  0.00000000000E+00  0.28463281854E+02  0.28491600761E+02  0.12700000000E+01 0. -1.
         -4   -1    0    0    0  501 -0.00000000000E+00 -0.00000000000E+00 -0.13716224380E+03  0.13716812321E+03  0.12700000000E+01 0. -1.
         25    2    1    2    0    0  0.00000000000E+00  0.00000000000E+00 -0.10869896195E+03  0.16565972397E+03  0.12501071881E+03 0.  0.
    9000005    1    3    3    0    0 -0.88545124568E+01 -0.44556699523E+02  0.25279801747E+01  0.45509257816E+02  0.10000000000E+01 0.  0.
    9000005    1    3    3    0    0  0.88545124568E+01  0.44556699523E+02 -0.11122694212E+03  0.12015046616E+03  0.10000000000E+01 0.  0.
<mgrwt>
<rscale>  0 0.12501072E+03</rscale>
<asrwt>0</asrwt>
<pdfrwt beam="1">  1        4 0.43815972E-02 0.12501072E+03</pdfrwt>
<pdfrwt beam="2">  1       -4 0.21104514E-01 0.12501072E+03</pdfrwt>
<totfact> 0.96239423E+03</totfact>
</mgrwt>
</event>
<event>
 5    1  0.3217527E-002  0.1249966E+03  0.7818608E-02  0.1235075E+00
         -4   -1    0    0    0  501 -0.00000000000E+00  0.00000000000E+00  0.12796628084E+02  0.12859494170E+02  0.12700000000E+01 0.  1.
          4   -1    0    0  501    0  0.00000000000E+00 -0.00000000000E+00 -0.30442729110E+03  0.30442994016E+03  0.12700000000E+01 0.  1.
         25    2    1    2    0    0  0.00000000000E+00  0.00000000000E+00 -0.29163066302E+03  0.31728943433E+03  0.12499656606E+03 0.  0.
    9000005    1    3    3    0    0  0.52843200813E+02 -0.29125222833E+02 -0.10454389631E+03  0.12071084762E+03  0.10000000000E+01 0.  0.
    9000005    1    3    3    0    0 -0.52843200813E+02  0.29125222833E+02 -0.18708676671E+03  0.19657858671E+03  0.10000000000E+01 0.  0.
<mgrwt>
<rscale>  0 0.12499657E+03</rscale>
<asrwt>0</asrwt>
<pdfrwt beam="2">  1        4 0.46840002E-01 0.12499657E+03</pdfrwt>
<pdfrwt beam="1">  1       -4 0.19737519E-02 0.12499657E+03</pdfrwt>
<totfact> 0.73485271E+03</totfact>
</mgrwt>
</event>
<event>
 5    1  0.3217527E-002  0.1250023E+03  0.7818608E-02  0.1235066E+00
          4   -1    0    0  501    0  0.00000000000E+00  0.00000000000E+00  0.15351744640E+02  0.15404186557E+02  0.12700000000E+01 0.  1.
         -4   -1    0    0    0  501 -0.00000000000E+00 -0.00000000000E+00 -0.25397131149E+03  0.25397448682E+03  0.12700000000E+01 0.  1.
         25    2    1    2    0    0  0.00000000000E+00  0.00000000000E+00 -0.23861956685E+03  0.26937867338E+03  0.12500228794E+03 0.  0.
    9000005    1    3    3    0    0 -0.21808037717E+02  0.30400467868E+02 -0.11439372068E+02  0.39136149388E+02  0.10000000000E+01 0.  0.
    9000005    1    3    3    0    0  0.21808037717E+02 -0.30400467868E+02 -0.22718019478E+03  0.23024252399E+03  0.10000000000E+01 0.  0.
<mgrwt>
<rscale>  0 0.12500229E+03</rscale>
<asrwt>0</asrwt>
<pdfrwt beam="1">  1        4 0.23660853E-02 0.12500229E+03</pdfrwt>
<pdfrwt beam="2">  1       -4 0.39076785E-01 0.12500229E+03</pdfrwt>
<totfact> 0.79603600E+03</totfact>
</mgrwt>
</event>
<event>
 5    1  0.3217527E-002  0.1250095E+03  0.7818608E-02  0.1235054E+00
          4   -1    0    0  501    0  0.00000000000E+00  0.00000000000E+00  0.30026392135E+02  0.30053238172E+02  0.12700000000E+01 0.  1.
         -4   -1    0    0    0  501 -0.00000000000E+00 -0.00000000000E+00 -0.13002560748E+03  0.13003180957E+03  0.12700000000E+01 0.  1.
         25    2    1    2    0    0  0.00000000000E+00  0.00000000000E+00 -0.99999215347E+02  0.16008504775E+03  0.12500951740E+03 0.  0.
    9000005    1    3    3    0    0 -0.57757722371E+02 -0.88940299997E+01 -0.78369261628E+02  0.97763998645E+02  0.10000000000E+01 0.  0.
    9000005    1    3    3    0    0  0.57757722371E+02  0.88940299997E+01 -0.21629953720E+02  0.62321049101E+02  0.10000000000E+01 0.  0.
<mgrwt>
<rscale>  0 0.12500952E+03</rscale>
<asrwt>0</asrwt>
<pdfrwt beam="1">  1        4 0.46219872E-02 0.12500952E+03</pdfrwt>
<pdfrwt beam="2">  1       -4 0.20006481E-01 0.12500952E+03</pdfrwt>
<totfact> 0.97305574E+03</totfact>
</mgrwt>
</event>
<event>
 5    1  0.3217527E-002  0.1250015E+03  0.7818608E-02  0.1235067E+00
          4   -1    0    0  501    0  0.00000000000E+00  0.00000000000E+00  0.11258752310E+02  0.11330154614E+02  0.12700000000E+01 0.  1.
         -4   -1    0    0    0  501 -0.00000000000E+00 -0.00000000000E+00 -0.34579125638E+03  0.34579358856E+03  0.12700000000E+01 0.  1.
         25    2    1    2    0    0  0.00000000000E+00  0.00000000000E+00 -0.33453250407E+03  0.35712374318E+03  0.12500148663E+03 0.  0.
    9000005    1    3    3    0    0  0.35299834069E+02  0.11063191399E+00 -0.31459358469E+03  0.31656944586E+03  0.10000000000E+01 0.  0.
    9000005    1    3    3    0    0 -0.35299834069E+02 -0.11063191399E+00 -0.19938919385E+02  0.40554297318E+02  0.10000000000E+01 0.  0.
<mgrwt>
<rscale>  0 0.12500149E+03</rscale>
<asrwt>0</asrwt>
<pdfrwt beam="1">  1        4 0.17377879E-02 0.12500149E+03</pdfrwt>
<pdfrwt beam="2">  1       -4 0.53204319E-01 0.12500149E+03</pdfrwt>
<totfact> 0.68945638E+03</totfact>
</mgrwt>
</event>
<event>
 5    1  0.3217527E-002  0.1250007E+03  0.7818608E-02  0.1235068E+00
          4   -1    0    0  501    0  0.00000000000E+00  0.00000000000E+00  0.69226379493E+03  0.69226495988E+03  0.12700000000E+01 0. -1.
         -4   -1    0    0    0  501 -0.00000000000E+00 -0.00000000000E+00 -0.55701421191E+01  0.57130887641E+01  0.12700000000E+01 0. -1.
         25    2    1    2    0    0  0.00000000000E+00  0.00000000000E+00  0.68669365282E+03  0.69797804864E+03  0.12500073428E+03 0.  0.
    9000005    1    3    3    0    0 -0.23995399585E+01 -0.28780322458E+02  0.65279323839E+03  0.65343253427E+03  0.10000000000E+01 0.  0.
    9000005    1    3    3    0    0  0.23995399585E+01  0.28780322458E+02  0.33900414428E+02  0.44545514378E+02  0.10000000000E+01 0.  0.
<mgrwt>
<rscale>  0 0.12500073E+03</rscale>
<asrwt>0</asrwt>
<pdfrwt beam="1">  1        4 0.10651321E+00 0.12500073E+03</pdfrwt>
<pdfrwt beam="2">  1       -4 0.86803043E-03 0.12500073E+03</pdfrwt>
<totfact> 0.43192944E+03</totfact>
</mgrwt>
</event>
<event>
 5    1  0.3217527E-002  0.1249736E+03  0.7818608E-02  0.1235110E+00
          4   -1    0    0  501    0  0.00000000000E+00  0.00000000000E+00  0.14158030929E+04  0.14158036625E+04  0.12700000000E+01 0. -1.
         -4   -1    0    0    0  501 -0.00000000000E+00 -0.00000000000E+00 -0.26110619702E+01  0.29035400139E+01  0.12700000000E+01 0. -1.
         25    2    1    2    0    0  0.00000000000E+00  0.00000000000E+00  0.14131920310E+04  0.14187072026E+04  0.12497363801E+03 0.  0.
    9000005    1    3    3    0    0  0.24400525892E+02  0.57499880137E+02  0.69061956025E+03  0.69343925392E+03  0.10000000000E+01 0.  0.
    9000005    1    3    3    0    0 -0.24400525892E+02 -0.57499880137E+02  0.72257247072E+03  0.72526794864E+03  0.10000000000E+01 0.  0.
<mgrwt>
<rscale>  0 0.12497364E+03</rscale>
<asrwt>0</asrwt>
<pdfrwt beam="1">  1        4 0.21783919E+00 0.12497364E+03</pdfrwt>
<pdfrwt beam="2">  1       -4 0.42424244E-03 0.12497364E+03</pdfrwt>
<totfact> 0.19594177E+03</totfact>
</mgrwt>
</event>
<event>
 5    1  0.3217527E-002  0.1250042E+03  0.7818608E-02  0.1235063E+00
         -4   -1    0    0    0  501 -0.00000000000E+00  0.00000000000E+00  0.41335012249E+02  0.41354517741E+02  0.12700000000E+01 0. -1.
          4   -1    0    0  501    0  0.00000000000E+00 -0.00000000000E+00 -0.94462473474E+02  0.94471010341E+02  0.12700000000E+01 0. -1.
         25    2    1    2    0    0  0.00000000000E+00  0.00000000000E+00 -0.53127461225E+02  0.13582552808E+03  0.12500418770E+03 0.  0.
    9000005    1    3    3    0    0  0.67462327687E+01 -0.12475636395E+02  0.39568527087E+02  0.42045469385E+02  0.10000000000E+01 0.  0.
    9000005    1    3    3    0    0 -0.67462327687E+01  0.12475636395E+02 -0.92695988312E+02  0.93780058696E+02  0.10000000000E+01 0.  0.
<mgrwt>
<rscale>  0 0.12500419E+03</rscale>
<asrwt>0</asrwt>
<pdfrwt beam="2">  1        4 0.14534845E-01 0.12500419E+03</pdfrwt>
<pdfrwt beam="1">  1       -4 0.63613898E-02 0.12500419E+03</pdfrwt>
<totfact> 0.10219735E+04</totfact>
</mgrwt>
</event>
<event>
 5    1  0.3217527E-002  0.1249985E+03  0.7818608E-02  0.1235072E+00
          4   -1    0    0  501    0  0.00000000000E+00  0.00000000000E+00  0.27637024455E+02  0.27666189126E+02  0.12700000000E+01 0.  1.
         -4   -1    0    0    0  501 -0.00000000000E+00 -0.00000000000E+00 -0.14123133920E+03  0.14123704922E+03  0.12700000000E+01 0.  1.
         25    2    1    2    0    0  0.00000000000E+00  0.00000000000E+00 -0.11359431475E+03  0.16890323835E+03  0.12499854232E+03 0.  0.
    9000005    1    3    3    0    0  0.56366632971E+02  0.18960975007E+02 -0.30860250157E+02  0.67007991504E+02  0.10000000000E+01 0.  0.
    9000005    1    3    3    0    0 -0.56366632971E+02 -0.18960975007E+02 -0.82734064591E+02  0.10189524684E+03  0.10000000000E+01 0.  0.
<mgrwt>
<rscale>  0 0.12499854E+03</rscale>
<asrwt>0</asrwt>
<pdfrwt beam="1">  1        4 0.42545327E-02 0.12499854E+03</pdfrwt>
<pdfrwt beam="2">  1       -4 0.21730581E-01 0.12499854E+03</pdfrwt>
<totfact> 0.95656376E+03</totfact>
</mgrwt>
</event>
<event>
 5    1  0.3217527E-002  0.1249980E+03  0.7818608E-02  0.1235072E+00
          4   -1    0    0  501    0  0.00000000000E+00  0.00000000000E+00  0.50109169859E+02  0.50125261136E+02  0.12700000000E+01 0. -1.
         -4   -1    0    0    0  501 -0.00000000000E+00 -0.00000000000E+00 -0.77918499627E+02  0.77928848857E+02  0.12700000000E+01 0. -1.
         25    2    1    2    0    0  0.00000000000E+00  0.00000000000E+00 -0.27809329768E+02  0.12805410999E+03  0.12499798504E+03 0.  0.
    9000005    1    3    3    0    0  0.54568810228E+02 -0.22327508987E+02 -0.35119707327E+02  0.68634295727E+02  0.10000000000E+01 0.  0.
    9000005    1    3    3    0    0 -0.54568810228E+02  0.22327508987E+02  0.73103775585E+01  0.59419814265E+02  0.10000000000E+01 0.  0.
<mgrwt>
<rscale>  0 0.12499799E+03</rscale>
<asrwt>0</asrwt>
<pdfrwt beam="1">  1        4 0.77111370E-02 0.12499799E+03</pdfrwt>
<pdfrwt beam="2">  1       -4 0.11989495E-01 0.12499799E+03</pdfrwt>
<totfact> 0.10386792E+04</totfact>
</mgrwt>
</event>
<event>
 5    1  0.3217527E-002  0.1250053E+03  0.7818608E-02  0.1235061E+00
         -4   -1    0    0    0  501 -0.00000000000E+00  0.00000000000E+00  0.58913747508E+03  0.58913884394E+03  0.12700000000E+01 0. -1.
          4   -1    0    0  501    0  0.00000000000E+00 -0.00000000000E+00 -0.65688249276E+01  0.66904679156E+01  0.12700000000E+01 0. -1.
         25    2    1    2    0    0  0.00000000000E+00  0.00000000000E+00  0.58256865015E+03  0.59582931186E+03  0.12500534681E+03 0.  0.
    9000005    1    3    3    0    0  0.31446271702E+02 -0.38161823525E+02  0.10913485621E+03  0.11981907035E+03  0.10000000000E+01 0.  0.
    9000005    1    3    3    0    0 -0.31446271702E+02  0.38161823525E+02  0.47343379394E+03  0.47601024151E+03  0.10000000000E+01 0.  0.
<mgrwt>
<rscale>  0 0.12500535E+03</rscale>
<asrwt>0</asrwt>
<pdfrwt beam="2">  1        4 0.10200505E-02 0.12500535E+03</pdfrwt>
<pdfrwt beam="1">  1       -4 0.90646034E-01 0.12500535E+03</pdfrwt>
<totfact> 0.49126163E+03</totfact>
</mgrwt>
</event>
<event>
 4    1  0.3217527E-002  0.1250948E+03  0.7818608E-02  0.1234921E+00
          4   -1    0    0  501    0  0.00000000000E+00  0.00000000000E+00  0.42041058615E+01  0.43917429450E+01  0.12700000000E+01 0. -1.
         -4   -1    0    0    0  501 -0.00000000000E+00 -0.00000000000E+00 -0.91006050448E+03  0.91006139063E+03  0.12700000000E+01 0. -1.
    9000005    1    1    2    0    0  0.60745896935E+02 -0.61262333128E+01 -0.35388137367E+03  0.35911087614E+03  0.10000000000E+01 0.  0.
    9000005    1    1    2    0    0 -0.60745896935E+02  0.61262333128E+01 -0.55197502495E+03  0.55534225744E+03  0.10000000000E+01 0.  0.
<mgrwt>
<rscale>  0 0.12509484E+03</rscale>
<asrwt>0</asrwt>
<pdfrwt beam="1">  1        4 0.66128803E-03 0.12509484E+03</pdfrwt>
<pdfrwt beam="2">  1       -4 0.14002366E+00 0.12509484E+03</pdfrwt>
<totfact> 0.33543069E+03</totfact>
</mgrwt>
</event>
<event>
 5    1  0.3217527E-002  0.1250156E+03  0.7818608E-02  0.1235045E+00
         -4   -1    0    0    0  501 -0.00000000000E+00  0.00000000000E+00  0.15031191578E+01  0.19678077148E+01  0.12700000000E+01 0.  1.
          4   -1    0    0  501    0  0.00000000000E+00 -0.00000000000E+00 -0.22509370864E+04  0.22509374447E+04  0.12700000000E+01 0.  1.
         25    2    1    2    0    0  0.00000000000E+00  0.00000000000E+00 -0.22494339672E+04  0.22529052524E+04  0.12501561204E+03 0.  0.
    9000005    1    3    3    0    0  0.26930565767E+02  0.18325870393E+02 -0.20859528256E+04  0.20862073922E+04  0.10000000000E+01 0.  0.
    9000005    1    3    3    0    0 -0.26930565767E+02 -0.18325870393E+02 -0.16348114166E+03  0.16669786015E+03  0.10000000000E+01 0.  0.
<mgrwt>
<rscale>  0 0.12501561E+03</rscale>
<asrwt>0</asrwt>
<pdfrwt beam="2">  1        4 0.34633145E+00 0.12501561E+03</pdfrwt>
<pdfrwt beam="1">  1       -4 0.26702374E-03 0.12501561E+03</pdfrwt>
<totfact> 0.69086162E+02</totfact>
</mgrwt>
</event>
<event>
 5    1  0.3217527E-002  0.1250036E+03  0.7818608E-02  0.1235064E+00
         -4   -1    0    0    0  501 -0.00000000000E+00  0.00000000000E+00  0.81368477598E+02  0.81378388081E+02  0.12700000000E+01 0.  1.
          4   -1    0    0  501    0  0.00000000000E+00 -0.00000000000E+00 -0.47988470045E+02  0.48005272182E+02  0.12700000000E+01 0.  1.
         25    2    1    2    0    0  0.00000000000E+00  0.00000000000E+00  0.33380007553E+02  0.12938366026E+03  0.12500362650E+03 0.  0.
    9000005    1    3    3    0    0  0.21692044793E+02 -0.81411198321E+01 -0.43383785244E+02  0.49193246097E+02  0.10000000000E+01 0.  0.
    9000005    1    3    3    0    0 -0.21692044793E+02  0.81411198321E+01  0.76763792797E+02  0.80190414166E+02  0.10000000000E+01 0.  0.
<mgrwt>
<rscale>  0 0.12500363E+03</rscale>
<asrwt>0</asrwt>
<pdfrwt beam="2">  1        4 0.73848964E-02 0.12500363E+03</pdfrwt>
<pdfrwt beam="1">  1       -4 0.12520282E-01 0.12500363E+03</pdfrwt>
<totfact> 0.10356862E+04</totfact>
</mgrwt>
</event>
<event>
 5    1  0.3217527E-002  0.1249974E+03  0.7818608E-02  0.1235073E+00
         -4   -1    0    0    0  501 -0.00000000000E+00  0.00000000000E+00  0.23278348014E+02  0.23312966054E+02  0.12700000000E+01 0.  1.
          4   -1    0    0  501    0  0.00000000000E+00 -0.00000000000E+00 -0.16763744178E+03  0.16764225239E+03  0.12700000000E+01 0.  1.
         25    2    1    2    0    0  0.00000000000E+00  0.00000000000E+00 -0.14435909376E+03  0.19095521844E+03  0.12499738997E+03 0.  0.
    9000005    1    3    3    0    0 -0.43145115402E+02 -0.34711061881E+02 -0.27936892322E+02  0.62030869352E+02  0.10000000000E+01 0.  0.
    9000005    1    3    3    0    0  0.43145115402E+02  0.34711061881E+02 -0.11642220144E+03  0.12892434909E+03  0.10000000000E+01 0.  0.
<mgrwt>
<rscale>  0 0.12499739E+03</rscale>
<asrwt>0</asrwt>
<pdfrwt beam="2">  1        4 0.25793408E-01 0.12499739E+03</pdfrwt>
<pdfrwt beam="1">  1       -4 0.35843174E-02 0.12499739E+03</pdfrwt>
<totfact> 0.91686735E+03</totfact>
</mgrwt>
</event>
<event>
 5    1  0.3217527E-002  0.1249987E+03  0.7818608E-02  0.1235071E+00
          4   -1    0    0  501    0  0.00000000000E+00  0.00000000000E+00  0.94762666164E+01  0.95609899584E+01  0.12700000000E+01 0.  1.
         -4   -1    0    0    0  501 -0.00000000000E+00 -0.00000000000E+00 -0.41028552479E+03  0.41028749036E+03  0.12700000000E+01 0.  1.
         25    2    1    2    0    0  0.00000000000E+00  0.00000000000E+00 -0.40080925817E+03  0.41984848032E+03  0.12499873997E+03 0.  0.
    9000005    1    3    3    0    0  0.97055925421E+01 -0.59952312045E+02 -0.24984815049E+03  0.25712560461E+03  0.10000000000E+01 0.  0.
    9000005    1    3    3    0    0 -0.97055925421E+01  0.59952312045E+02 -0.15096110768E+03  0.16272287571E+03  0.10000000000E+01 0.  0.
<mgrwt>
<rscale>  0 0.12499874E+03</rscale>
<asrwt>0</asrwt>
<pdfrwt beam="1">  1        4 0.14645559E-02 0.12499874E+03</pdfrwt>
<pdfrwt beam="2">  1       -4 0.63127505E-01 0.12499874E+03</pdfrwt>
<totfact> 0.62668817E+03</totfact>
</mgrwt>
</event>
<event>
 5    1  0.3217527E-002  0.1250019E+03  0.7818608E-02  0.1235066E+00
         -4   -1    0    0    0  501 -0.00000000000E+00  0.00000000000E+00  0.40391177404E+03  0.40391377063E+03  0.12700000000E+01 0. -1.
          4   -1    0    0  501    0  0.00000000000E+00 -0.00000000000E+00 -0.96276162769E+01  0.97110192656E+01  0.12700000000E+01 0. -1.
         25    2    1    2    0    0  0.00000000000E+00  0.00000000000E+00  0.39428415776E+03  0.41362478990E+03  0.12500187901E+03 0.  0.
    9000005    1    3    3    0    0 -0.37616509917E+02  0.20177116218E+02  0.34817119196E+03  0.35077955577E+03  0.10000000000E+01 0.  0.
    9000005    1    3    3    0    0  0.37616509917E+02 -0.20177116218E+02  0.46112965799E+02  0.62845234124E+02  0.10000000000E+01 0.  0.
<mgrwt>
<rscale>  0 0.12500188E+03</rscale>
<asrwt>0</asrwt>
<pdfrwt beam="2">  1        4 0.14877408E-02 0.12500188E+03</pdfrwt>
<pdfrwt beam="1">  1       -4 0.62146848E-01 0.12500188E+03</pdfrwt>
<totfact> 0.63246256E+03</totfact>
</mgrwt>
</event>
<event>
 5    1  0.3217527E-002  0.1249992E+03  0.7818608E-02  0.1235070E+00
         -4   -1    0    0    0  501 -0.00000000000E+00  0.00000000000E+00  0.48501663567E+02  0.48518287982E+02  0.12700000000E+01 0. -1.
          4   -1    0    0  501    0  0.00000000000E+00 -0.00000000000E+00 -0.80502039697E+02  0.80512056833E+02  0.12700000000E+01 0. -1.
         25    2    1    2    0    0  0.00000000000E+00  0.00000000000E+00 -0.32000376131E+02  0.12903034482E+03  0.12499922324E+03 0.  0.
    9000005    1    3    3    0    0  0.61389006314E+02  0.11549599484E+02 -0.17846185626E+02  0.64972991972E+02  0.10000000000E+01 0.  0.
    9000005    1    3    3    0    0 -0.61389006314E+02 -0.11549599484E+02 -0.14154190505E+02  0.64057352843E+02  0.10000000000E+01 0.  0.
<mgrwt>
<rscale>  0 0.12499922E+03</rscale>
<asrwt>0</asrwt>
<pdfrwt beam="2">  1        4 0.12386979E-01 0.12499922E+03</pdfrwt>
<pdfrwt beam="1">  1       -4 0.74638438E-02 0.12499922E+03</pdfrwt>
<totfact> 0.10365476E+04</totfact>
</mgrwt>
</event>
<event>
 5    1  0.3217527E-002  0.1249970E+03  0.7818608E-02  0.1235074E+00
          4   -1    0    0  501    0  0.00000000000E+00  0.00000000000E+00  0.34393505625E+03  0.34393740101E+03  0.12700000000E+01 0.  1.
         -4   -1    0    0    0  501 -0.00000000000E+00 -0.00000000000E+00 -0.11319086037E+02  0.11390110127E+02  0.12700000000E+01 0.  1.
         25    2    1    2    0    0  0.00000000000E+00  0.00000000000E+00  0.33261597021E+03  0.35532751114E+03  0.12499702610E+03 0.  0.
    9000005    1    3    3    0    0 -0.31186508683E+02 -0.36549568392E+02  0.27989443259E+03  0.28399007495E+03  0.10000000000E+01 0.  0.
    9000005    1    3    3    0    0  0.31186508683E+02  0.36549568392E+02  0.52721537615E+02  0.71337436188E+02  0.10000000000E+01 0.  0.
<mgrwt>
<rscale>  0 0.12499703E+03</rscale>
<asrwt>0</asrwt>
<pdfrwt beam="1">  1        4 0.52918724E-01 0.12499703E+03</pdfrwt>
<pdfrwt beam="2">  1       -4 0.17470418E-02 0.12499703E+03</pdfrwt>
<totfact> 0.69146965E+03</totfact>
</mgrwt>
</event>
<event>
 5    1  0.3217527E-002  0.1250003E+03  0.7818608E-02  0.1235069E+00
         -4   -1    0    0    0  501 -0.00000000000E+00  0.00000000000E+00  0.30647163661E+02  0.30673466392E+02  0.12700000000E+01 0. -1.
          4   -1    0    0  501    0  0.00000000000E+00 -0.00000000000E+00 -0.12737517624E+03  0.12738150738E+03  0.12700000000E+01 0. -1.
         25    2    1    2    0    0  0.00000000000E+00  0.00000000000E+00 -0.96728012579E+02  0.15805497377E+03  0.12500026526E+03 0.  0.
    9000005    1    3    3    0    0 -0.39863271597E+02  0.45571359371E+02 -0.28798405340E+02  0.67053541052E+02  0.10000000000E+01 0.  0.
    9000005    1    3    3    0    0  0.39863271597E+02 -0.45571359371E+02 -0.67929607239E+02  0.91001432720E+02  0.10000000000E+01 0.  0.
<mgrwt>
<rscale>  0 0.12500027E+03</rscale>
<asrwt>0</asrwt>
<pdfrwt beam="2">  1        4 0.19598691E-01 0.12500027E+03</pdfrwt>
<pdfrwt beam="1">  1       -4 0.47174586E-02 0.12500027E+03</pdfrwt>
<totfact> 0.97718504E+03</totfact>
</mgrwt>
</event>
<event>
 5    1  0.3217527E-002  0.1250028E+03  0.7818608E-02  0.1235065E+00
          4   -1    0    0  501    0  0.00000000000E+00  0.00000000000E+00  0.21241713229E+02  0.21279644755E+02  0.12700000000E+01 0. -1.
         -4   -1    0    0    0  501 -0.00000000000E+00 -0.00000000000E+00 -0.18369937743E+03  0.18370376743E+03  0.12700000000E+01 0. -1.
         25    2    1    2    0    0  0.00000000000E+00  0.00000000000E+00 -0.16245766420E+03  0.20498341218E+03  0.12500282642E+03 0.  0.
    9000005    1    3    3    0    0  0.51324203357E+02 -0.12905844060E+02 -0.13573171670E+03  0.14568745169E+03  0.10000000000E+01 0.  0.
    9000005    1    3    3    0    0 -0.51324203357E+02  0.12905844060E+02 -0.26725947498E+02  0.59295960493E+02  0.10000000000E+01 0.  0.
<mgrwt>
<rscale>  0 0.12500283E+03</rscale>
<asrwt>0</asrwt>
<pdfrwt beam="1">  1        4 0.32712115E-02 0.12500283E+03</pdfrwt>
<pdfrwt beam="2">  1       -4 0.28264697E-01 0.12500283E+03</pdfrwt>
<totfact> 0.89296121E+03</totfact>
</mgrwt>
</event>
<event>
 5    1  0.3217527E-002  0.1249881E+03  0.7818608E-02  0.1235088E+00
          4   -1    0    0  501    0  0.00000000000E+00  0.00000000000E+00  0.77509161985E+03  0.77509266031E+03  0.12700000000E+01 0. -1.
         -4   -1    0    0    0  501 -0.00000000000E+00 -0.00000000000E+00 -0.49576799417E+01  0.51177622458E+01  0.12700000000E+01 0. -1.
         25    2    1    2    0    0  0.00000000000E+00  0.00000000000E+00  0.77013393991E+03  0.78021042256E+03  0.12498807168E+03 0.  0.
    9000005    1    3    3    0    0  0.36390938519E+01  0.38314408199E+02  0.77780194012E+02  0.86787069660E+02  0.10000000000E+01 0.  0.
    9000005    1    3    3    0    0 -0.36390938519E+01 -0.38314408199E+02  0.69235374590E+03  0.69342335290E+03  0.10000000000E+01 0.  0.
<mgrwt>
<rscale>  0 0.12498807E+03</rscale>
<asrwt>0</asrwt>
<pdfrwt beam="1">  1        4 0.11925725E+00 0.12498807E+03</pdfrwt>
<pdfrwt beam="2">  1       -4 0.77511411E-03 0.12498807E+03</pdfrwt>
<totfact> 0.39173806E+03</totfact>
</mgrwt>
</event>
<event>
 5    1  0.3217527E-002  0.1249836E+03  0.7818608E-02  0.1235095E+00
          4   -1    0    0  501    0  0.00000000000E+00  0.00000000000E+00  0.30124058410E+02  0.30150817486E+02  0.12700000000E+01 0. -1.
         -4   -1    0    0    0  501 -0.00000000000E+00 -0.00000000000E+00 -0.12955068747E+03  0.12955691230E+03  0.12700000000E+01 0. -1.
         25    2    1    2    0    0  0.00000000000E+00  0.00000000000E+00 -0.99426629065E+02  0.15970772979E+03  0.12498361647E+03 0.  0.
    9000005    1    3    3    0    0 -0.35434494097E+02  0.94366967526E+01 -0.11436152094E+03  0.12010084134E+03  0.10000000000E+01 0.  0.
    9000005    1    3    3    0    0  0.35434494097E+02 -0.94366967526E+01  0.14934891876E+02  0.39606888452E+02  0.10000000000E+01 0.  0.
<mgrwt>
<rscale>  0 0.12498362E+03</rscale>
<asrwt>0</asrwt>
<pdfrwt beam="1">  1        4 0.46370078E-02 0.12498362E+03</pdfrwt>
<pdfrwt beam="2">  1       -4 0.19933412E-01 0.12498362E+03</pdfrwt>
<totfact> 0.97435040E+03</totfact>
</mgrwt>
</event>
<event>
 5    1  0.3217527E-002  0.1250184E+03  0.7818608E-02  0.1235041E+00
         -4   -1    0    0    0  501 -0.00000000000E+00  0.00000000000E+00  0.19467993429E+03  0.19468407668E+03  0.12700000000E+01 0. -1.
          4   -1    0    0  501    0  0.00000000000E+00 -0.00000000000E+00 -0.20046431940E+02  0.20086620759E+02  0.12700000000E+01 0. -1.
         25    2    1    2    0    0  0.00000000000E+00  0.00000000000E+00  0.17463350235E+03  0.21477069744E+03  0.12501836800E+03 0.  0.
    9000005    1    3    3    0    0 -0.63429298131E+01 -0.60037402973E+02  0.11510638291E+03  0.12998154447E+03  0.10000000000E+01 0.  0.
    9000005    1    3    3    0    0  0.63429298131E+01  0.60037402973E+02  0.59527119433E+02  0.84789152976E+02  0.10000000000E+01 0.  0.
<mgrwt>
<rscale>  0 0.12501837E+03</rscale>
<asrwt>0</asrwt>
<pdfrwt beam="2">  1        4 0.30874766E-02 0.12501837E+03</pdfrwt>
<pdfrwt beam="1">  1       -4 0.29954168E-01 0.12501837E+03</pdfrwt>
<totfact> 0.87666653E+03</totfact>
</mgrwt>
</event>
<event>
 5    1  0.3217527E-002  0.1249994E+03  0.7818608E-02  0.1235070E+00
          4   -1    0    0  501    0  0.00000000000E+00  0.00000000000E+00  0.43851383399E+01  0.45653409796E+01  0.12700000000E+01 0.  1.
         -4   -1    0    0    0  501 -0.00000000000E+00 -0.00000000000E+00 -0.87266937746E+03  0.87267030158E+03  0.12700000000E+01 0.  1.
         25    2    1    2    0    0  0.00000000000E+00  0.00000000000E+00 -0.86828423912E+03  0.87723564256E+03  0.12499941068E+03 0.  0.
    9000005    1    3    3    0    0  0.12769583499E+02  0.59833055632E+02 -0.52350873181E+03  0.52707252735E+03  0.10000000000E+01 0.  0.
    9000005    1    3    3    0    0 -0.12769583499E+02 -0.59833055632E+02 -0.34477550731E+03  0.35016311521E+03  0.10000000000E+01 0.  0.
<mgrwt>
<rscale>  0 0.12499941E+03</rscale>
<asrwt>0</asrwt>
<pdfrwt beam="1">  1        4 0.68857019E-03 0.12499941E+03</pdfrwt>
<pdfrwt beam="2">  1       -4 0.13427062E+00 0.12499941E+03</pdfrwt>
<totfact> 0.35038475E+03</totfact>
</mgrwt>
</event>
<event>
 4    1  0.3217527E-002  0.1251090E+03  0.7818608E-02  0.1234899E+00
         -4   -1    0    0    0  501 -0.00000000000E+00  0.00000000000E+00  0.45719809382E+01  0.47450932234E+01  0.12700000000E+01 0.  1.
          4   -1    0    0  501    0  0.00000000000E+00 -0.00000000000E+00 -0.83980366881E+03  0.83980462910E+03  0.12700000000E+01 0.  1.
    9000005    1    1    2    0    0 -0.91060566882E+01  0.43012418389E+02 -0.11730707590E+03  0.12527944149E+03  0.10000000000E+01 0.  0.
    9000005    1    1    2    0    0  0.91060566882E+01 -0.43012418389E+02 -0.71792461198E+03  0.71927028083E+03  0.10000000000E+01 0.  0.
<mgrwt>
<rscale>  0 0.12510900E+03</rscale>
<asrwt>0</asrwt>
<pdfrwt beam="2">  1        4 0.12921383E+00 0.12510900E+03</pdfrwt>
<pdfrwt beam="1">  1       -4 0.71677255E-03 0.12510900E+03</pdfrwt>
<totfact> 0.36265042E+03</totfact>
</mgrwt>
</event>
<event>
 5    1  0.3217527E-002  0.1250036E+03  0.7818608E-02  0.1235064E+00
          4   -1    0    0  501    0  0.00000000000E+00  0.00000000000E+00  0.82135796110E+02  0.82145614020E+02  0.12700000000E+01 0.  1.
         -4   -1    0    0    0  501 -0.00000000000E+00 -0.00000000000E+00 -0.47540039203E+02  0.47556999774E+02  0.12700000000E+01 0.  1.
         25    2    1    2    0    0  0.00000000000E+00  0.00000000000E+00  0.34595756907E+02  0.12970261379E+03  0.12500360646E+03 0.  0.
    9000005    1    3    3    0    0 -0.21352501333E+02 -0.43704948062E+02 -0.23412510954E+02  0.53992568631E+02  0.10000000000E+01 0.  0.
    9000005    1    3    3    0    0  0.21352501333E+02  0.43704948062E+02  0.58008267861E+02  0.75710045162E+02  0.10000000000E+01 0.  0.
<mgrwt>
<rscale>  0 0.12500361E+03</rscale>
<asrwt>0</asrwt>
<pdfrwt beam="1">  1        4 0.12638336E-01 0.12500361E+03</pdfrwt>
<pdfrwt beam="2">  1       -4 0.73159121E-02 0.12500361E+03</pdfrwt>
<totfact> 0.10350031E+04</totfact>
</mgrwt>
</event>
<event>
 5    1  0.3217527E-002  0.1249559E+03  0.7818608E-02  0.1235138E+00
          4   -1    0    0  501    0  0.00000000000E+00  0.00000000000E+00  0.16653592149E+03  0.16654076392E+03  0.12700000000E+01 0. -1.
         -4   -1    0    0    0  501 -0.00000000000E+00 -0.00000000000E+00 -0.23416973811E+02  0.23451387218E+02  0.12700000000E+01 0. -1.
         25    2    1    2    0    0  0.00000000000E+00  0.00000000000E+00  0.14311894768E+03  0.18999215113E+03  0.12495592947E+03 0.  0.
    9000005    1    3    3    0    0  0.49968929438E+02  0.26688435828E+02  0.31523661092E+02  0.64837548726E+02  0.10000000000E+01 0.  0.
    9000005    1    3    3    0    0 -0.49968929438E+02 -0.26688435828E+02  0.11159528659E+03  0.12515460241E+03  0.10000000000E+01 0.  0.
<mgrwt>
<rscale>  0 0.12495593E+03</rscale>
<asrwt>0</asrwt>
<pdfrwt beam="1">  1        4 0.25623931E-01 0.12495593E+03</pdfrwt>
<pdfrwt beam="2">  1       -4 0.36056310E-02 0.12495593E+03</pdfrwt>
<totfact> 0.91939409E+03</totfact>
</mgrwt>
</event>
<event>
 5    1  0.3217527E-002  0.1250105E+03  0.7818608E-02  0.1235053E+00
          4   -1    0    0  501    0  0.00000000000E+00  0.00000000000E+00  0.37000655297E+02  0.37022444441E+02  0.12700000000E+01 0. -1.
         -4   -1    0    0    0  501 -0.00000000000E+00 -0.00000000000E+00 -0.10553353465E+03  0.10554117602E+03  0.12700000000E+01 0. -1.
         25    2    1    2    0    0  0.00000000000E+00  0.00000000000E+00 -0.68532879358E+02  0.14256362047E+03  0.12501052087E+03 0.  0.
    9000005    1    3    3    0    0 -0.42363724720E+02  0.94254656758E+00 -0.86655155248E+02  0.96466001768E+02  0.10000000000E+01 0.  0.
    9000005    1    3    3    0    0  0.42363724720E+02 -0.94254656758E+00  0.18122275890E+02  0.46097618698E+02  0.10000000000E+01 0.  0.
<mgrwt>
<rscale>  0 0.12501052E+03</rscale>
<asrwt>0</asrwt>
<pdfrwt beam="1">  1        4 0.56946724E-02 0.12501052E+03</pdfrwt>
<pdfrwt beam="2">  1       -4 0.16238192E-01 0.12501052E+03</pdfrwt>
<totfact> 0.10078339E+04</totfact>
</mgrwt>
</event>
<event>
 5    1  0.3217527E-002  0.1249984E+03  0.7818608E-02  0.1235072E+00
          4   -1    0    0  501    0  0.00000000000E+00  0.00000000000E+00  0.51008101346E+02  0.51023909130E+02  0.12700000000E+01 0.  1.
         -4   -1    0    0    0  501 -0.00000000000E+00 -0.00000000000E+00 -0.76546084938E+02  0.76556619697E+02  0.12700000000E+01 0.  1.
         25    2    1    2    0    0  0.00000000000E+00  0.00000000000E+00 -0.25537983593E+02  0.12758052883E+03  0.12499841091E+03 0.  0.
    9000005    1    3    3    0    0  0.99628811201E+01  0.17073398278E+01  0.50173181859E+02  0.51191036201E+02  0.10000000000E+01 0.  0.
    9000005    1    3    3    0    0 -0.99628811201E+01 -0.17073398278E+01 -0.75711165452E+02  0.76389492625E+02  0.10000000000E+01 0.  0.
<mgrwt>
<rscale>  0 0.12499841E+03</rscale>
<asrwt>0</asrwt>
<pdfrwt beam="1">  1        4 0.78494265E-02 0.12499841E+03</pdfrwt>
<pdfrwt beam="2">  1       -4 0.11778347E-01 0.12499841E+03</pdfrwt>
<totfact> 0.10396930E+04</totfact>
</mgrwt>
</event>
<event>
 5    1  0.3217527E-002  0.1249992E+03  0.7818608E-02  0.1235071E+00
         -4   -1    0    0    0  501 -0.00000000000E+00  0.00000000000E+00  0.13705912738E+04  0.13705918622E+04  0.12700000000E+01 0.  1.
          4   -1    0    0  501    0  0.00000000000E+00 -0.00000000000E+00 -0.27079100163E+01  0.29909324058E+01  0.12700000000E+01 0.  1.
         25    2    1    2    0    0  0.00000000000E+00  0.00000000000E+00  0.13678833637E+04  0.13735827946E+04  0.12499918683E+03 0.  0.
    9000005    1    3    3    0    0 -0.56909619341E+02  0.13577276810E+02  0.44265151607E+03  0.44650242094E+03  0.10000000000E+01 0.  0.
    9000005    1    3    3    0    0  0.56909619341E+02 -0.13577276810E+02  0.92523184767E+03  0.92708037363E+03  0.10000000000E+01 0.  0.
<mgrwt>
<rscale>  0 0.12499919E+03</rscale>
<asrwt>0</asrwt>
<pdfrwt beam="2">  1        4 0.43841642E-03 0.12499919E+03</pdfrwt>
<pdfrwt beam="1">  1       -4 0.21088265E+00 0.12499919E+03</pdfrwt>
<totfact> 0.20555271E+03</totfact>
</mgrwt>
</event>
<event>
 5    1  0.3217527E-002  0.1249939E+03  0.7818608E-02  0.1235079E+00
          4   -1    0    0  501    0  0.00000000000E+00  0.00000000000E+00  0.52346391994E+02  0.52361795756E+02  0.12700000000E+01 0.  1.
         -4   -1    0    0    0  501 -0.00000000000E+00 -0.00000000000E+00 -0.74584007131E+02  0.74594818987E+02  0.12700000000E+01 0.  1.
         25    2    1    2    0    0  0.00000000000E+00  0.00000000000E+00 -0.22237615137E+02  0.12695661474E+03  0.12499388185E+03 0.  0.
    9000005    1    3    3    0    0 -0.59614673331E+02 -0.37696395997E+01 -0.29757661172E+02  0.66743073480E+02  0.10000000000E+01 0.  0.
    9000005    1    3    3    0    0  0.59614673331E+02  0.37696395997E+01  0.75200460344E+01  0.60213541263E+02  0.10000000000E+01 0.  0.
<mgrwt>
<rscale>  0 0.12499388E+03</rscale>
<asrwt>0</asrwt>
<pdfrwt beam="1">  1        4 0.80553077E-02 0.12499388E+03</pdfrwt>
<pdfrwt beam="2">  1       -4 0.11476479E-01 0.12499388E+03</pdfrwt>
<totfact> 0.10411526E+04</totfact>
</mgrwt>
</event>
<event>
 5    1  0.3217527E-002  0.1250181E+03  0.7818608E-02  0.1235041E+00
         -4   -1    0    0    0  501 -0.00000000000E+00  0.00000000000E+00  0.41117082581E+03  0.41117278716E+03  0.12700000000E+01 0.  1.
          4   -1    0    0  501    0  0.00000000000E+00 -0.00000000000E+00 -0.94586352110E+01  0.95435150786E+01  0.12700000000E+01 0.  1.
         25    2    1    2    0    0  0.00000000000E+00  0.00000000000E+00  0.40171219060E+03  0.42071630223E+03  0.12501809025E+03 0.  0.
    9000005    1    3    3    0    0 -0.26407968563E+02 -0.56241227558E+02  0.22366148389E+03  0.23213340099E+03  0.10000000000E+01 0.  0.
    9000005    1    3    3    0    0  0.26407968563E+02  0.56241227558E+02  0.17805070671E+03  0.18858290124E+03  0.10000000000E+01 0.  0.
<mgrwt>
<rscale>  0 0.12501809E+03</rscale>
<asrwt>0</asrwt>
<pdfrwt beam="2">  1        4 0.14618550E-02 0.12501809E+03</pdfrwt>
<pdfrwt beam="1">  1       -4 0.63263718E-01 0.12501809E+03</pdfrwt>
<totfact> 0.62561651E+03</totfact>
</mgrwt>
</event>
<event>
 5    1  0.3217527E-002  0.1250019E+03  0.7818608E-02  0.1235066E+00
         -4   -1    0    0    0  501 -0.00000000000E+00  0.00000000000E+00  0.10926445912E+03  0.10927183959E+03  0.12700000000E+01 0. -1.
          4   -1    0    0  501    0  0.00000000000E+00 -0.00000000000E+00 -0.35731619239E+02  0.35754181762E+02  0.12700000000E+01 0. -1.
         25    2    1    2    0    0  0.00000000000E+00  0.00000000000E+00  0.73532839884E+02  0.14502602135E+03  0.12500187330E+03 0.  0.
    9000005    1    3    3    0    0 -0.38219881414E+02 -0.40385303055E+00 -0.20594950031E+02  0.43428958073E+02  0.10000000000E+01 0.  0.
    9000005    1    3    3    0    0  0.38219881414E+02  0.40385303055E+00  0.94127789915E+02  0.10159706328E+03  0.10000000000E+01 0.  0.
<mgrwt>
<rscale>  0 0.12500187E+03</rscale>
<asrwt>0</asrwt>
<pdfrwt beam="2">  1        4 0.54994756E-02 0.12500187E+03</pdfrwt>
<pdfrwt beam="1">  1       -4 0.16812220E-01 0.12500187E+03</pdfrwt>
<totfact> 0.10030037E+04</totfact>
</mgrwt>
</event>
<event>
 5    1  0.3217527E-002  0.1250013E+03  0.7818608E-02  0.1235067E+00
         -4   -1    0    0    0  501 -0.00000000000E+00  0.00000000000E+00  0.17590886091E+03  0.17591344533E+03  0.12700000000E+01 0. -1.
          4   -1    0    0  501    0  0.00000000000E+00 -0.00000000000E+00 -0.22183541347E+02  0.22219865136E+02  0.12700000000E+01 0. -1.
         25    2    1    2    0    0  0.00000000000E+00  0.00000000000E+00  0.15372531956E+03  0.19813331046E+03  0.12500133935E+03 0.  0.
    9000005    1    3    3    0    0  0.51842537694E+02 -0.99389114147E+01  0.23842741316E+02  0.57930190645E+02  0.10000000000E+01 0.  0.
    9000005    1    3    3    0    0 -0.51842537694E+02  0.99389114147E+01  0.12988257825E+03  0.14020311982E+03  0.10000000000E+01 0.  0.
<mgrwt>
<rscale>  0 0.12500134E+03</rscale>
<asrwt>0</asrwt>
<pdfrwt beam="2">  1        4 0.34159993E-02 0.12500134E+03</pdfrwt>
<pdfrwt beam="1">  1       -4 0.27066049E-01 0.12500134E+03</pdfrwt>
<totfact> 0.90448374E+03</totfact>
</mgrwt>
</event>
<event>
 5    1  0.3217527E-002  0.1250599E+03  0.7818608E-02  0.1234976E+00
          4   -1    0    0  501    0  0.00000000000E+00  0.00000000000E+00  0.47183176669E+02  0.47200265471E+02  0.12700000000E+01 0.  1.
         -4   -1    0    0    0  501 -0.00000000000E+00 -0.00000000000E+00 -0.82831446474E+02  0.82841181939E+02  0.12700000000E+01 0.  1.
         25    2    1    2    0    0  0.00000000000E+00  0.00000000000E+00 -0.35648269805E+02  0.13004144741E+03  0.12505990126E+03 0.  0.
    9000005    1    3    3    0    0 -0.12126339851E+02 -0.37887364726E+02  0.32330918887E+02  0.51271715791E+02  0.10000000000E+01 0.  0.
    9000005    1    3    3    0    0  0.12126339851E+02  0.37887364726E+02 -0.67979188692E+02  0.78769731619E+02  0.10000000000E+01 0.  0.
<mgrwt>
<rscale>  0 0.12505990E+03</rscale>
<asrwt>0</asrwt>
<pdfrwt beam="1">  1        4 0.72610137E-02 0.12505990E+03</pdfrwt>
<pdfrwt beam="2">  1       -4 0.12745363E-01 0.12505990E+03</pdfrwt>
<totfact> 0.10329648E+04</totfact>
</mgrwt>
</event>
<event>
 5    1  0.3217527E-002  0.1250008E+03  0.7818608E-02  0.1235068E+00
         -4   -1    0    0    0  501 -0.00000000000E+00  0.00000000000E+00  0.12790093091E+03  0.12790723602E+03  0.12700000000E+01 0.  1.
          4   -1    0    0  501    0  0.00000000000E+00 -0.00000000000E+00 -0.30521350829E+02  0.30547761889E+02  0.12700000000E+01 0.  1.
         25    2    1    2    0    0  0.00000000000E+00  0.00000000000E+00  0.97379580079E+02  0.15845499791E+03  0.12500081498E+03 0.  0.
    9000005    1    3    3    0    0  0.32915690244E+02  0.28706810829E+01 -0.18549887631E+02  0.37904904765E+02  0.10000000000E+01 0.  0.
    9000005    1    3    3    0    0 -0.32915690244E+02 -0.28706810829E+01  0.11592946771E+03  0.12055009315E+03  0.10000000000E+01 0.  0.
<mgrwt>
<rscale>  0 0.12500081E+03</rscale>
<asrwt>0</asrwt>
<pdfrwt beam="2">  1        4 0.46981090E-02 0.12500081E+03</pdfrwt>
<pdfrwt beam="1">  1       -4 0.19679583E-01 0.12500081E+03</pdfrwt>
<totfact> 0.97639689E+03</totfact>
</mgrwt>
</event>
<event>
 5    1  0.3217527E-002  0.1249996E+03  0.7818608E-02  0.1235070E+00
         -4   -1    0    0    0  501 -0.00000000000E+00  0.00000000000E+00  0.61415884335E+01  0.62715236177E+01  0.12700000000E+01 0.  1.
          4   -1    0    0  501    0  0.00000000000E+00 -0.00000000000E+00 -0.62924051998E+03  0.62924180160E+03  0.12700000000E+01 0.  1.
         25    2    1    2    0    0  0.00000000000E+00  0.00000000000E+00 -0.62309893155E+03  0.63551332522E+03  0.12499963215E+03 0.  0.
    9000005    1    3    3    0    0 -0.24689179826E+02 -0.11989797469E+02 -0.59698185642E+03  0.59761329281E+03  0.10000000000E+01 0.  0.
    9000005    1    3    3    0    0  0.24689179826E+02  0.11989797469E+02 -0.26117075124E+02  0.37900032412E+02  0.10000000000E+01 0.  0.
<mgrwt>
<rscale>  0 0.12499963E+03</rscale>
<asrwt>0</asrwt>
<pdfrwt beam="2">  1        4 0.96816277E-01 0.12499963E+03</pdfrwt>
<pdfrwt beam="1">  1       -4 0.95495385E-03 0.12499963E+03</pdfrwt>
<totfact> 0.46700387E+03</totfact>
</mgrwt>
</event>
<event>
 5    1  0.3217527E-002  0.1249921E+03  0.7818608E-02  0.1235082E+00
          4   -1    0    0  501    0  0.00000000000E+00  0.00000000000E+00  0.61880083996E+02  0.61893115088E+02  0.12700000000E+01 0. -1.
         -4   -1    0    0    0  501 -0.00000000000E+00 -0.00000000000E+00 -0.63092118832E+02  0.63104899641E+02  0.12700000000E+01 0. -1.
         25    2    1    2    0    0  0.00000000000E+00  0.00000000000E+00 -0.12120348365E+01  0.12499801473E+03  0.12499213838E+03 0.  0.
    9000005    1    3    3    0    0  0.58282340946E+02 -0.12279583941E+02  0.18292998384E+02  0.62315754330E+02  0.10000000000E+01 0.  0.
    9000005    1    3    3    0    0 -0.58282340946E+02  0.12279583941E+02 -0.19505033220E+02  0.62682260400E+02  0.10000000000E+01 0.  0.
<mgrwt>
<rscale>  0 0.12499214E+03</rscale>
<asrwt>0</asrwt>
<pdfrwt beam="1">  1        4 0.95219984E-02 0.12499214E+03</pdfrwt>
<pdfrwt beam="2">  1       -4 0.97084654E-02 0.12499214E+03</pdfrwt>
<totfact> 0.10454763E+04</totfact>
</mgrwt>
</event>
<event>
 5    1  0.3217527E-002  0.1249947E+03  0.7818608E-02  0.1235078E+00
         -4   -1    0    0    0  501 -0.00000000000E+00  0.00000000000E+00  0.50369792750E+02  0.50385800795E+02  0.12700000000E+01 0.  1.
          4   -1    0    0  501    0  0.00000000000E+00 -0.00000000000E+00 -0.77511288084E+02  0.77521691676E+02  0.12700000000E+01 0.  1.
         25    2    1    2    0    0  0.00000000000E+00  0.00000000000E+00 -0.27141495333E+02  0.12790749247E+03  0.12499466333E+03 0.  0.
    9000005    1    3    3    0    0  0.18189642983E+02  0.44651568962E+02 -0.54250004656E+02  0.72585733638E+02  0.10000000000E+01 0.  0.
    9000005    1    3    3    0    0 -0.18189642983E+02 -0.44651568962E+02  0.27108509323E+02  0.55321758833E+02  0.10000000000E+01 0.  0.
<mgrwt>
<rscale>  0 0.12499466E+03</rscale>
<asrwt>0</asrwt>
<pdfrwt beam="2">  1        4 0.11926845E-01 0.12499466E+03</pdfrwt>
<pdfrwt beam="1">  1       -4 0.77512306E-02 0.12499466E+03</pdfrwt>
<totfact> 0.10390738E+04</totfact>
</mgrwt>
</event>
<event>
 5    1  0.3217527E-002  0.1249994E+03  0.7818608E-02  0.1235070E+00
         -4   -1    0    0    0  501 -0.00000000000E+00  0.00000000000E+00  0.91396554211E+01  0.92274699250E+01  0.12700000000E+01 0. -1.
          4   -1    0    0  501    0  0.00000000000E+00 -0.00000000000E+00 -0.42525919721E+03  0.42526109358E+03  0.12700000000E+01 0. -1.
         25    2    1    2    0    0  0.00000000000E+00  0.00000000000E+00 -0.41611954179E+03  0.43448856351E+03  0.12499935503E+03 0.  0.
    9000005    1    3    3    0    0  0.50048106991E+02  0.99055300887E+00 -0.78029665565E+02  0.92711503692E+02  0.10000000000E+01 0.  0.
    9000005    1    3    3    0    0 -0.50048106991E+02 -0.99055300887E+00 -0.33808987623E+03  0.34177705982E+03  0.10000000000E+01 0.  0.
<mgrwt>
<rscale>  0 0.12499936E+03</rscale>
<asrwt>0</asrwt>
<pdfrwt beam="2">  1        4 0.65431377E-01 0.12499936E+03</pdfrwt>
<pdfrwt beam="1">  1       -4 0.14130020E-02 0.12499936E+03</pdfrwt>
<totfact> 0.61332107E+03</totfact>
</mgrwt>
</event>
<event>
 5    1  0.3217527E-002  0.1250011E+03  0.7818608E-02  0.1235068E+00
          4   -1    0    0  501    0  0.00000000000E+00  0.00000000000E+00  0.23305125245E+03  0.23305471282E+03  0.12700000000E+01 0.  1.
         -4   -1    0    0    0  501 -0.00000000000E+00 -0.00000000000E+00 -0.16733991210E+02  0.16782114343E+02  0.12700000000E+01 0.  1.
         25    2    1    2    0    0  0.00000000000E+00  0.00000000000E+00  0.21631726124E+03  0.24983682717E+03  0.12500113078E+03 0.  0.
    9000005    1    3    3    0    0 -0.29959586850E+02 -0.10893304040E+02  0.72944591938E+00  0.31902554890E+02  0.10000000000E+01 0.  0.
    9000005    1    3    3    0    0  0.29959586850E+02  0.10893304040E+02  0.21558781532E+03  0.21793427228E+03  0.10000000000E+01 0.  0.
<mgrwt>
<rscale>  0 0.12500113E+03</rscale>
<asrwt>0</asrwt>
<pdfrwt beam="1">  1        4 0.35858007E-01 0.12500113E+03</pdfrwt>
<pdfrwt beam="2">  1       -4 0.25784281E-02 0.12500113E+03</pdfrwt>
<totfact> 0.82351741E+03</totfact>
</mgrwt>
</event>
<event>
 5    1  0.3217527E-002  0.1249940E+03  0.7818608E-02  0.1235079E+00
          4   -1    0    0  501    0  0.00000000000E+00  0.00000000000E+00  0.62401345816E+02  0.62414268077E+02  0.12700000000E+01 0. -1.
         -4   -1    0    0    0  501 -0.00000000000E+00 -0.00000000000E+00 -0.62566968042E+02  0.62579856104E+02  0.12700000000E+01 0. -1.
         25    2    1    2    0    0  0.00000000000E+00  0.00000000000E+00 -0.16562222639E+00  0.12499412418E+03  0.12499401445E+03 0.  0.
    9000005    1    3    3    0    0 -0.62499281327E+01  0.76338423047E+01 -0.61788122451E+02  0.62578824102E+02  0.10000000000E+01 0.  0.
    9000005    1    3    3    0    0  0.62499281327E+01 -0.76338423047E+01  0.61622500224E+02  0.62415300079E+02  0.10000000000E+01 0.  0.
<mgrwt>
<rscale>  0 0.12499401E+03</rscale>
<asrwt>0</asrwt>
<pdfrwt beam="1">  1        4 0.96021924E-02 0.12499401E+03</pdfrwt>
<pdfrwt beam="2">  1       -4 0.96276729E-02 0.12499401E+03</pdfrwt>
<totfact> 0.10454404E+04</totfact>
</mgrwt>
</event>
<event>
 5    1  0.3217527E-002  0.1249995E+03  0.7818608E-02  0.1235070E+00
          4   -1    0    0  501    0  0.00000000000E+00  0.00000000000E+00  0.12697610724E+03  0.12698245828E+03  0.12700000000E+01 0. -1.
         -4   -1    0    0    0  501 -0.00000000000E+00 -0.00000000000E+00 -0.30743199691E+02  0.30769420326E+02  0.12700000000E+01 0. -1.
         25    2    1    2    0    0  0.00000000000E+00  0.00000000000E+00  0.96232907553E+02  0.15775187861E+03  0.12499953083E+03 0.  0.
    9000005    1    3    3    0    0  0.27123764777E+02 -0.13129934879E+02 -0.20974107462E+02  0.36728830494E+02  0.10000000000E+01 0.  0.
    9000005    1    3    3    0    0 -0.27123764777E+02  0.13129934879E+02  0.11720701502E+03  0.12102304811E+03  0.10000000000E+01 0.  0.
<mgrwt>
<rscale>  0 0.12499953E+03</rscale>
<asrwt>0</asrwt>
<pdfrwt beam="1">  1        4 0.19537292E-01 0.12499953E+03</pdfrwt>
<pdfrwt beam="2">  1       -4 0.47322285E-02 0.12499953E+03</pdfrwt>
<totfact> 0.97778995E+03</totfact>
</mgrwt>
</event>
<event>
 5    1  0.3217527E-002  0.1249974E+03  0.7818608E-02  0.1235073E+00
         -4   -1    0    0    0  501 -0.00000000000E+00  0.00000000000E+00  0.62147849761E+02  0.62160824720E+02  0.12700000000E+01 0. -1.
          4   -1    0    0  501    0  0.00000000000E+00 -0.00000000000E+00 -0.62825587229E+02  0.62838422248E+02  0.12700000000E+01 0. -1.
         25    2    1    2    0    0  0.00000000000E+00  0.00000000000E+00 -0.67773746827E+00  0.12499924697E+03  0.12499740963E+03 0.  0.
    9000005    1    3    3    0    0 -0.24435985170E+02  0.30965060505E+02 -0.48807464967E+02  0.62762416937E+02  0.10000000000E+01 0.  0.
    9000005    1    3    3    0    0  0.24435985170E+02 -0.30965060505E+02  0.48129727498E+02  0.62236830031E+02  0.10000000000E+01 0.  0.
<mgrwt>
<rscale>  0 0.12499741E+03</rscale>
<asrwt>0</asrwt>
<pdfrwt beam="2">  1        4 0.96674604E-02 0.12499741E+03</pdfrwt>
<pdfrwt beam="1">  1       -4 0.95631930E-02 0.12499741E+03</pdfrwt>
<totfact> 0.10453491E+04</totfact>
</mgrwt>
</event>
<event>
 5    1  0.3217527E-002  0.1250002E+03  0.7818608E-02  0.1235069E+00
         -4   -1    0    0    0  501 -0.00000000000E+00  0.00000000000E+00  0.72406594868E+02  0.72417731809E+02  0.12700000000E+01 0.  1.
          4   -1    0    0  501    0  0.00000000000E+00 -0.00000000000E+00 -0.53926198053E+02  0.53941150678E+02  0.12700000000E+01 0.  1.
         25    2    1    2    0    0  0.00000000000E+00  0.00000000000E+00  0.18480396815E+02  0.12635888249E+03  0.12500016847E+03 0.  0.
    9000005    1    3    3    0    0 -0.94756628753E+01  0.57796853830E+02 -0.12791103800E+02  0.59957291767E+02  0.10000000000E+01 0.  0.
    9000005    1    3    3    0    0  0.94756628753E+01 -0.57796853830E+02  0.31271500615E+02  0.66401590721E+02  0.10000000000E+01 0.  0.
<mgrwt>
<rscale>  0 0.12500017E+03</rscale>
<asrwt>0</asrwt>
<pdfrwt beam="2">  1        4 0.82983450E-02 0.12500017E+03</pdfrwt>
<pdfrwt beam="1">  1       -4 0.11141483E-01 0.12500017E+03</pdfrwt>
<totfact> 0.10423068E+04</totfact>
</mgrwt>
</event>
<event>
 5    1  0.3217527E-002  0.1249563E+03  0.7818608E-02  0.1235138E+00
          4   -1    0    0  501    0  0.00000000000E+00  0.00000000000E+00  0.44851045926E+03  0.44851225732E+03  0.12700000000E+01 0. -1.
         -4   -1    0    0    0  501 -0.00000000000E+00 -0.00000000000E+00 -0.86551379265E+01  0.87478175865E+01  0.12700000000E+01 0. -1.
         25    2    1    2    0    0  0.00000000000E+00  0.00000000000E+00  0.43985532133E+03  0.45726007491E+03  0.12495628194E+03 0.  0.
    9000005    1    3    3    0    0 -0.70626020889E+01  0.53321664002E+02  0.10366373258E+03  0.11679147937E+03  0.10000000000E+01 0.  0.
    9000005    1    3    3    0    0  0.70626020889E+01 -0.53321664002E+02  0.33619158875E+03  0.34046859554E+03  0.10000000000E+01 0.  0.
<mgrwt>
<rscale>  0 0.12495628E+03</rscale>
<asrwt>0</asrwt>
<pdfrwt beam="1">  1        4 0.69008877E-01 0.12495628E+03</pdfrwt>
<pdfrwt beam="2">  1       -4 0.13388272E-02 0.12495628E+03</pdfrwt>
<totfact> 0.59397137E+03</totfact>
</mgrwt>
</event>
<event>
 5    1  0.3217527E-002  0.1249992E+03  0.7818608E-02  0.1235071E+00
         -4   -1    0    0    0  501 -0.00000000000E+00  0.00000000000E+00  0.20413188995E+04  0.20413192945E+04  0.12700000000E+01 0. -1.
          4   -1    0    0  501    0  0.00000000000E+00 -0.00000000000E+00 -0.17024073753E+01  0.21239328783E+01  0.12700000000E+01 0. -1.
         25    2    1    2    0    0  0.00000000000E+00  0.00000000000E+00  0.20396164921E+04  0.20434432274E+04  0.12499915531E+03 0.  0.
    9000005    1    3    3    0    0 -0.55062228658E+02 -0.21066839673E+02  0.68099880066E+03  0.68354665332E+03  0.10000000000E+01 0.  0.
    9000005    1    3    3    0    0  0.55062228658E+02  0.21066839673E+02  0.13586176914E+04  0.13598965741E+04  0.10000000000E+01 0.  0.
<mgrwt>
<rscale>  0 0.12499916E+03</rscale>
<asrwt>0</asrwt>
<pdfrwt beam="2">  1        4 0.29436476E-03 0.12499916E+03</pdfrwt>
<pdfrwt beam="1">  1       -4 0.31408098E+00 0.12499916E+03</pdfrwt>
<totfact> 0.93050007E+02</totfact>
</mgrwt>
</event>
<event>
 5    1  0.3217527E-002  0.1249975E+03  0.7818608E-02  0.1235073E+00
         -4   -1    0    0    0  501 -0.00000000000E+00  0.00000000000E+00  0.74590655773E+01  0.75664099338E+01  0.12700000000E+01 0.  1.
          4   -1    0    0  501    0  0.00000000000E+00 -0.00000000000E+00 -0.51982129711E+03  0.51982284851E+03  0.12700000000E+01 0.  1.
         25    2    1    2    0    0  0.00000000000E+00  0.00000000000E+00 -0.51236223153E+03  0.52738925844E+03  0.12499749444E+03 0.  0.
    9000005    1    3    3    0    0 -0.32366199759E+02 -0.51130259584E+02 -0.19038067752E+03  0.19976905843E+03  0.10000000000E+01 0.  0.
    9000005    1    3    3    0    0  0.32366199759E+02  0.51130259584E+02 -0.32198155401E+03  0.32762020001E+03  0.10000000000E+01 0.  0.
<mgrwt>
<rscale>  0 0.12499749E+03</rscale>
<asrwt>0</asrwt>
<pdfrwt beam="2">  1        4 0.79980856E-01 0.12499749E+03</pdfrwt>
<pdfrwt beam="1">  1       -4 0.11559256E-02 0.12499749E+03</pdfrwt>
<totfact> 0.53803177E+03</totfact>
</mgrwt>
</event>
<event>
 5    1  0.3217527E-002  0.1249989E+03  0.7818608E-02  0.1235071E+00
         -4   -1    0    0    0  501 -0.00000000000E+00  0.00000000000E+00  0.50202929824E+02  0.50218991058E+02  0.12700000000E+01 0. -1.
          4   -1    0    0  501    0  0.00000000000E+00 -0.00000000000E+00 -0.77774178779E+02  0.77784547211E+02  0.12700000000E+01 0. -1.
         25    2    1    2    0    0  0.00000000000E+00  0.00000000000E+00 -0.27571248955E+02  0.12800353827E+03  0.12499892816E+03 0.  0.
    9000005    1    3    3    0    0  0.41854557721E+02  0.84170324485E+01 -0.60517325228E+02  0.74067517105E+02  0.10000000000E+01 0.  0.
    9000005    1    3    3    0    0 -0.41854557721E+02 -0.84170324485E+01  0.32946076273E+02  0.53936021165E+02  0.10000000000E+01 0.  0.
<mgrwt>
<rscale>  0 0.12499893E+03</rscale>
<asrwt>0</asrwt>
<pdfrwt beam="2">  1        4 0.11967291E-01 0.12499893E+03</pdfrwt>
<pdfrwt beam="1">  1       -4 0.77255607E-02 0.12499893E+03</pdfrwt>
<totfact> 0.10387662E+04</totfact>
</mgrwt>
</event>
<event>
 5    1  0.3217527E-002  0.1249994E+03  0.7818608E-02  0.1235070E+00
          4   -1    0    0  501    0  0.00000000000E+00  0.00000000000E+00  0.97953716747E+03  0.97953799076E+03  0.12700000000E+01 0. -1.
         -4   -1    0    0    0  501 -0.00000000000E+00 -0.00000000000E+00 -0.38858529644E+01  0.40881234401E+01  0.12700000000E+01 0. -1.
         25    2    1    2    0    0  0.00000000000E+00  0.00000000000E+00  0.97565131450E+03  0.98362611420E+03  0.12499938021E+03 0.  0.
    9000005    1    3    3    0    0 -0.25942953142E+02 -0.47894601412E+02  0.24678583924E+03  0.25272748191E+03  0.10000000000E+01 0.  0.
    9000005    1    3    3    0    0  0.25942953142E+02  0.47894601412E+02  0.72886547526E+03  0.73089863229E+03  0.10000000000E+01 0.  0.
<mgrwt>
<rscale>  0 0.12499938E+03</rscale>
<asrwt>0</asrwt>
<pdfrwt beam="1">  1        4 0.15071396E+00 0.12499938E+03</pdfrwt>
<pdfrwt beam="2">  1       -4 0.61344487E-03 0.12499938E+03</pdfrwt>
<totfact> 0.31151726E+03</totfact>
</mgrwt>
</event>
<event>
 5    1  0.3217527E-002  0.1249921E+03  0.7818608E-02  0.1235082E+00
          4   -1    0    0  501    0  0.00000000000E+00  0.00000000000E+00  0.29848931154E+02  0.29875936655E+02  0.12700000000E+01 0. -1.
         -4   -1    0    0    0  501 -0.00000000000E+00 -0.00000000000E+00 -0.13076152726E+03  0.13076769444E+03  0.12700000000E+01 0. -1.
         25    2    1    2    0    0  0.00000000000E+00  0.00000000000E+00 -0.10091259610E+03  0.16064363110E+03  0.12499209639E+03 0.  0.
    9000005    1    3    3    0    0  0.26931157100E+02 -0.49435302331E+02 -0.15597883067E+02  0.58424569279E+02  0.10000000000E+01 0.  0.
    9000005    1    3    3    0    0 -0.26931157100E+02  0.49435302331E+02 -0.85314713035E+02  0.10221906182E+03  0.10000000000E+01 0.  0.
<mgrwt>
<rscale>  0 0.12499210E+03</rscale>
<asrwt>0</asrwt>
<pdfrwt beam="1">  1        4 0.45946951E-02 0.12499210E+03</pdfrwt>
<pdfrwt beam="2">  1       -4 0.20119709E-01 0.12499210E+03</pdfrwt>
<totfact> 0.97236113E+03</totfact>
</mgrwt>
</event>
<event>
 5    1  0.3217527E-002  0.1250001E+03  0.7818608E-02  0.1235069E+00
          4   -1    0    0  501    0  0.00000000000E+00  0.00000000000E+00  0.10872011553E+02  0.10945936927E+02  0.12700000000E+01 0.  1.
         -4   -1    0    0    0  501 -0.00000000000E+00 -0.00000000000E+00 -0.35800249427E+03  0.35800474690E+03  0.12700000000E+01 0.  1.
         25    2    1    2    0    0  0.00000000000E+00  0.00000000000E+00 -0.34713048272E+03  0.36895068383E+03  0.12500014026E+03 0.  0.
    9000005    1    3    3    0    0  0.34072675994E+02 -0.52137648480E+02 -0.18860889715E+03  0.19862929724E+03  0.10000000000E+01 0.  0.
    9000005    1    3    3    0    0 -0.34072675994E+02  0.52137648480E+02 -0.15852158557E+03  0.17032138659E+03  0.10000000000E+01 0.  0.
<mgrwt>
<rscale>  0 0.12500014E+03</rscale>
<asrwt>0</asrwt>
<pdfrwt beam="1">  1        4 0.16784773E-02 0.12500014E+03</pdfrwt>
<pdfrwt beam="2">  1       -4 0.55083158E-01 0.12500014E+03</pdfrwt>
<totfact> 0.67688652E+03</totfact>
</mgrwt>
</event>
<event>
 5    1  0.3217527E-002  0.1250015E+03  0.7818608E-02  0.1235067E+00
         -4   -1    0    0    0  501 -0.00000000000E+00  0.00000000000E+00  0.50318974628E+01  0.51896909422E+01  0.12700000000E+01 0. -1.
          4   -1    0    0  501    0  0.00000000000E+00 -0.00000000000E+00 -0.76417397161E+03  0.76417502693E+03  0.12700000000E+01 0. -1.
         25    2    1    2    0    0  0.00000000000E+00  0.00000000000E+00 -0.75914207415E+03  0.76936471787E+03  0.12500152147E+03 0.  0.
    9000005    1    3    3    0    0  0.61982395621E+02  0.23406939903E+01 -0.33267740429E+03  0.33841180763E+03  0.10000000000E+01 0.  0.
    9000005    1    3    3    0    0 -0.61982395621E+02 -0.23406939903E+01 -0.42646466985E+03  0.43095291024E+03  0.10000000000E+01 0.  0.
<mgrwt>
<rscale>  0 0.12500152E+03</rscale>
<asrwt>0</asrwt>
<pdfrwt beam="2">  1        4 0.11757735E+00 0.12500152E+03</pdfrwt>
<pdfrwt beam="1">  1       -4 0.78635782E-03 0.12500152E+03</pdfrwt>
<totfact> 0.39663305E+03</totfact>
</mgrwt>
</event>
<event>
 4    1  0.3217527E-002  0.1250708E+03  0.7818608E-02  0.1234959E+00
          4   -1    0    0  501    0  0.00000000000E+00  0.00000000000E+00  0.87697017996E+02  0.87706213380E+02  0.12700000000E+01 0. -1.
         -4   -1    0    0    0  501 -0.00000000000E+00 -0.00000000000E+00 -0.44572455847E+02  0.44590545188E+02  0.12700000000E+01 0. -1.
    9000005    1    1    2    0    0  0.25221063599E+02 -0.47118717484E+02  0.55893565333E+02  0.77339292937E+02  0.10000000000E+01 0.  0.
    9000005    1    1    2    0    0 -0.25221063599E+02  0.47118717484E+02 -0.12769003183E+02  0.54957465631E+02  0.10000000000E+01 0.  0.
<mgrwt>
<rscale>  0 0.12507080E+03</rscale>
<asrwt>0</asrwt>
<pdfrwt beam="1">  1        4 0.13493948E-01 0.12507080E+03</pdfrwt>
<pdfrwt beam="2">  1       -4 0.68593998E-02 0.12507080E+03</pdfrwt>
<totfact> 0.10278943E+04</totfact>
</mgrwt>
</event>
<event>
 5    1  0.3217527E-002  0.1249995E+03  0.7818608E-02  0.1235070E+00
          4   -1    0    0  501    0  0.00000000000E+00  0.00000000000E+00  0.14226548958E+04  0.14226554626E+04  0.12700000000E+01 0. -1.
         -4   -1    0    0    0  501 -0.00000000000E+00 -0.00000000000E+00 -0.25982729148E+01  0.28920446296E+01  0.12700000000E+01 0. -1.
         25    2    1    2    0    0  0.00000000000E+00  0.00000000000E+00  0.14200566229E+04  0.14255475073E+04  0.12499953339E+03 0.  0.
    9000005    1    3    3    0    0 -0.58850415497E+02  0.96045187342E+01  0.49679224492E+03  0.50035902390E+03  0.10000000000E+01 0.  0.
    9000005    1    3    3    0    0  0.58850415497E+02 -0.96045187342E+01  0.92326437793E+03  0.92518848336E+03  0.10000000000E+01 0.  0.
<mgrwt>
<rscale>  0 0.12499953E+03</rscale>
<asrwt>0</asrwt>
<pdfrwt beam="1">  1        4 0.21889310E+00 0.12499953E+03</pdfrwt>
<pdfrwt beam="2">  1       -4 0.42237482E-03 0.12499953E+03</pdfrwt>
<totfact> 0.19439376E+03</totfact>
</mgrwt>
</event>
<event>
 5    1  0.3217527E-002  0.1250420E+03  0.7818608E-02  0.1235004E+00
         -4   -1    0    0    0  501 -0.00000000000E+00  0.00000000000E+00  0.16194492874E+03  0.16194990845E+03  0.12700000000E+01 0. -1.
          4   -1    0    0  501    0  0.00000000000E+00 -0.00000000000E+00 -0.24115002157E+02  0.24148420840E+02  0.12700000000E+01 0. -1.
         25    2    1    2    0    0  0.00000000000E+00  0.00000000000E+00  0.13782992659E+03  0.18609832929E+03  0.12504199095E+03 0.  0.
    9000005    1    3    3    0    0  0.10276217886E+01 -0.44491895147E+01 -0.23873756308E+02  0.24327094650E+02  0.10000000000E+01 0.  0.
    9000005    1    3    3    0    0 -0.10276217886E+01  0.44491895147E+01  0.16170368290E+03  0.16177123464E+03  0.10000000000E+01 0.  0.
<mgrwt>
<rscale>  0 0.12504199E+03</rscale>
<asrwt>0</asrwt>
<pdfrwt beam="2">  1        4 0.37129541E-02 0.12504199E+03</pdfrwt>
<pdfrwt beam="1">  1       -4 0.24917558E-01 0.12504199E+03</pdfrwt>
<totfact> 0.92443646E+03</totfact>
</mgrwt>
</event>
<event>
 5    1  0.3217527E-002  0.1250028E+03  0.7818608E-02  0.1235065E+00
         -4   -1    0    0    0  501 -0.00000000000E+00  0.00000000000E+00  0.12904517108E+03  0.12905142029E+03  0.12700000000E+01 0. -1.
          4   -1    0    0  501    0  0.00000000000E+00 -0.00000000000E+00 -0.30251448269E+02  0.30278094761E+02  0.12700000000E+01 0. -1.
         25    2    1    2    0    0  0.00000000000E+00  0.00000000000E+00  0.98793722807E+02  0.15932951505E+03  0.12500277877E+03 0.  0.
    9000005    1    3    3    0    0 -0.48809192491E+02 -0.25926428345E+02  0.86577559762E+02  0.10271898954E+03  0.10000000000E+01 0.  0.
    9000005    1    3    3    0    0  0.48809192491E+02  0.25926428345E+02  0.12216163045E+02  0.56610525504E+02  0.10000000000E+01 0.  0.
<mgrwt>
<rscale>  0 0.12500278E+03</rscale>
<asrwt>0</asrwt>
<pdfrwt beam="2">  1        4 0.46565994E-02 0.12500278E+03</pdfrwt>
<pdfrwt beam="1">  1       -4 0.19855634E-01 0.12500278E+03</pdfrwt>
<totfact> 0.97466116E+03</totfact>
</mgrwt>
</event>
<event>
 5    1  0.3217527E-002  0.1249937E+03  0.7818608E-02  0.1235079E+00
          4   -1    0    0  501    0  0.00000000000E+00  0.00000000000E+00  0.17536037030E+01  0.21651849683E+01  0.12700000000E+01 0.  1.
         -4   -1    0    0    0  501 -0.00000000000E+00 -0.00000000000E+00 -0.19929867371E+04  0.19929871418E+04  0.12700000000E+01 0.  1.
         25    2    1    2    0    0  0.00000000000E+00  0.00000000000E+00 -0.19912331334E+04  0.19951523267E+04  0.12499366083E+03 0.  0.
    9000005    1    3    3    0    0  0.46120056830E+01 -0.13711508482E+02 -0.25264706073E+02  0.29130421113E+02  0.10000000000E+01 0.  0.
    9000005    1    3    3    0    0 -0.46120056830E+01  0.13711508482E+02 -0.19659684273E+04  0.19660219056E+04  0.10000000000E+01 0.  0.
<mgrwt>
<rscale>  0 0.12499366E+03</rscale>
<asrwt>0</asrwt>
<pdfrwt beam="1">  1        4 0.30147800E-03 0.12499366E+03</pdfrwt>
<pdfrwt beam="2">  1       -4 0.30664341E+00 0.12499366E+03</pdfrwt>
<totfact> 0.99261435E+02</totfact>
</mgrwt>
</event>
<event>
 5    1  0.3217527E-002  0.1250027E+03  0.7818608E-02  0.1235065E+00
          4   -1    0    0  501    0  0.00000000000E+00  0.00000000000E+00  0.56100742288E+02  0.56115115479E+02  0.12700000000E+01 0.  1.
         -4   -1    0    0    0  501 -0.00000000000E+00 -0.00000000000E+00 -0.69603074339E+02  0.69614659788E+02  0.12700000000E+01 0.  1.
         25    2    1    2    0    0  0.00000000000E+00  0.00000000000E+00 -0.13502332051E+02  0.12572977527E+03  0.12500265364E+03 0.  0.
    9000005    1    3    3    0    0  0.26936210347E+02 -0.29551812765E+02  0.41554718748E+02  0.57677237414E+02  0.10000000000E+01 0.  0.
    9000005    1    3    3    0    0 -0.26936210347E+02  0.29551812765E+02 -0.55057050799E+02  0.68052537853E+02  0.10000000000E+01 0.  0.
<mgrwt>
<rscale>  0 0.12500265E+03</rscale>
<asrwt>0</asrwt>
<pdfrwt beam="1">  1        4 0.86328803E-02 0.12500265E+03</pdfrwt>
<pdfrwt beam="2">  1       -4 0.10710162E-01 0.12500265E+03</pdfrwt>
<totfact> 0.10436264E+04</totfact>
</mgrwt>
</event>
<event>
 5    1  0.3217527E-002  0.1249986E+03  0.7818608E-02  0.1235071E+00
          4   -1    0    0  501    0  0.00000000000E+00  0.00000000000E+00  0.10759443397E+02  0.10834136893E+02  0.12700000000E+01 0. -1.
         -4   -1    0    0    0  501 -0.00000000000E+00 -0.00000000000E+00 -0.36171334031E+03  0.36171556983E+03  0.12700000000E+01 0. -1.
         25    2    1    2    0    0  0.00000000000E+00  0.00000000000E+00 -0.35095389691E+03  0.37254970672E+03  0.12499858488E+03 0.  0.
    9000005    1    3    3    0    0 -0.19727524801E+02 -0.29441724511E+01 -0.35198589056E+03  0.35255199693E+03  0.10000000000E+01 0.  0.
    9000005    1    3    3    0    0  0.19727524801E+02  0.29441724511E+01  0.10319936447E+01  0.19997709796E+02  0.10000000000E+01 0.  0.
<mgrwt>
<rscale>  0 0.12499858E+03</rscale>
<asrwt>0</asrwt>
<pdfrwt beam="1">  1        4 0.16612164E-02 0.12499858E+03</pdfrwt>
<pdfrwt beam="2">  1       -4 0.55654114E-01 0.12499858E+03</pdfrwt>
<totfact> 0.67315141E+03</totfact>
</mgrwt>
</event>
<event>
 5    1  0.3217527E-002  0.1250010E+03  0.7818608E-02  0.1235068E+00
          4   -1    0    0  501    0  0.00000000000E+00  0.00000000000E+00  0.19831817838E+02  0.19872440685E+02  0.12700000000E+01 0. -1.
         -4   -1    0    0    0  501 -0.00000000000E+00 -0.00000000000E+00 -0.19672781409E+03  0.19673191336E+03  0.12700000000E+01 0. -1.
         25    2    1    2    0    0  0.00000000000E+00  0.00000000000E+00 -0.17689599625E+03  0.21660435405E+03  0.12500101081E+03 0.  0.
    9000005    1    3    3    0    0 -0.41004082781E+02  0.36659180087E+02 -0.37041804765E+02  0.66319873263E+02  0.10000000000E+01 0.  0.
    9000005    1    3    3    0    0  0.41004082781E+02 -0.36659180087E+02 -0.13985419148E+03  0.15028448078E+03  0.10000000000E+01 0.  0.
<mgrwt>
<rscale>  0 0.12500101E+03</rscale>
<asrwt>0</asrwt>
<pdfrwt beam="1">  1        4 0.30544892E-02 0.12500101E+03</pdfrwt>
<pdfrwt beam="2">  1       -4 0.30269256E-01 0.12500101E+03</pdfrwt>
<totfact> 0.87406561E+03</totfact>
</mgrwt>
</event>
<event>
 5    1  0.3217527E-002  0.1250178E+03  0.7818608E-02  0.1235041E+00
         -4   -1    0    0    0  501 -0.00000000000E+00  0.00000000000E+00  0.32470507196E+02  0.32495334090E+02  0.12700000000E+01 0. -1.
          4   -1    0    0  501    0  0.00000000000E+00 -0.00000000000E+00 -0.12026160508E+03  0.12026831069E+03  0.12700000000E+01 0. -1.
         25    2    1    2    0    0  0.00000000000E+00  0.00000000000E+00 -0.87791097879E+02  0.15276364478E+03  0.12501781592E+03 0.  0.
    9000005    1    3    3    0    0  0.13257324324E+02 -0.60559916962E+02 -0.53602312002E+02  0.81960161314E+02  0.10000000000E+01 0.  0.
    9000005    1    3    3    0    0 -0.13257324324E+02  0.60559916962E+02 -0.34188785877E+02  0.70803483462E+02  0.10000000000E+01 0.  0.
<mgrwt>
<rscale>  0 0.12501782E+03</rscale>
<asrwt>0</asrwt>
<pdfrwt beam="2">  1        4 0.18504211E-01 0.12501782E+03</pdfrwt>
<pdfrwt beam="1">  1       -4 0.49978883E-02 0.12501782E+03</pdfrwt>
<totfact> 0.98716058E+03</totfact>
</mgrwt>
</event>
<event>
 5    1  0.3217527E-002  0.1250088E+03  0.7818608E-02  0.1235056E+00
         -4   -1    0    0    0  501 -0.00000000000E+00  0.00000000000E+00  0.57961247296E+01  0.59336297392E+01  0.12700000000E+01 0.  1.
          4   -1    0    0  501    0  0.00000000000E+00 -0.00000000000E+00 -0.66599636396E+03  0.66599757485E+03  0.12700000000E+01 0.  1.
         25    2    1    2    0    0  0.00000000000E+00  0.00000000000E+00 -0.66020023923E+03  0.67193120459E+03  0.12500875098E+03 0.  0.
    9000005    1    3    3    0    0  0.18810102880E+02  0.69901228618E+01 -0.11965009157E+02  0.23384679431E+02  0.10000000000E+01 0.  0.
    9000005    1    3    3    0    0 -0.18810102880E+02 -0.69901228618E+01 -0.64823523007E+03  0.64854652516E+03  0.10000000000E+01 0.  0.
<mgrwt>
<rscale>  0 0.12500875E+03</rscale>
<asrwt>0</asrwt>
<pdfrwt beam="2">  1        4 0.10247159E+00 0.12500875E+03</pdfrwt>
<pdfrwt beam="1">  1       -4 0.90238248E-03 0.12500875E+03</pdfrwt>
<totfact> 0.44601870E+03</totfact>
</mgrwt>
</event>
<event>
 4    1  0.3217527E-002  0.1250830E+03  0.7818608E-02  0.1234940E+00
         -4   -1    0    0    0  501 -0.00000000000E+00  0.00000000000E+00  0.52380980782E+01  0.53898582057E+01  0.12700000000E+01 0. -1.
          4   -1    0    0  501    0  0.00000000000E+00 -0.00000000000E+00 -0.73591364477E+03  0.73591474062E+03  0.12700000000E+01 0. -1.
    9000005    1    1    2    0    0 -0.29966392920E+02 -0.23731920727E+02 -0.72035804736E+02  0.81555784161E+02  0.10000000000E+01 0.  0.
    9000005    1    1    2    0    0  0.29966392920E+02  0.23731920727E+02 -0.65863974196E+03  0.65974881467E+03  0.10000000000E+01 0.  0.
<mgrwt>
<rscale>  0 0.12508299E+03</rscale>
<asrwt>0</asrwt>
<pdfrwt beam="2">  1        4 0.11322916E+00 0.12508299E+03</pdfrwt>
<pdfrwt beam="1">  1       -4 0.81761998E-03 0.12508299E+03</pdfrwt>
<totfact> 0.40919260E+03</totfact>
</mgrwt>
</event>
<event>
 5    1  0.3217527E-002  0.1249996E+03  0.7818608E-02  0.1235070E+00
         -4   -1    0    0    0  501 -0.00000000000E+00  0.00000000000E+00  0.84185427363E+02  0.84195006267E+02  0.12700000000E+01 0.  1.
          4   -1    0    0  501    0  0.00000000000E+00 -0.00000000000E+00 -0.46379313791E+02  0.46396698672E+02  0.12700000000E+01 0.  1.
         25    2    1    2    0    0  0.00000000000E+00  0.00000000000E+00  0.37806113572E+02  0.13059170494E+03  0.12499956470E+03 0.  0.
    9000005    1    3    3    0    0  0.37336112631E+02  0.13416087000E+02  0.69346085215E+02  0.79899037738E+02  0.10000000000E+01 0.  0.
    9000005    1    3    3    0    0 -0.37336112631E+02 -0.13416087000E+02 -0.31539971643E+02  0.50692667201E+02  0.10000000000E+01 0.  0.
<mgrwt>
<rscale>  0 0.12499956E+03</rscale>
<asrwt>0</asrwt>
<pdfrwt beam="2">  1        4 0.71373533E-02 0.12499956E+03</pdfrwt>
<pdfrwt beam="1">  1       -4 0.12953678E-01 0.12499956E+03</pdfrwt>
<totfact> 0.10331952E+04</totfact>
</mgrwt>
</event>
<event>
 5    1  0.3217527E-002  0.1249970E+03  0.7818608E-02  0.1235074E+00
          4   -1    0    0  501    0  0.00000000000E+00  0.00000000000E+00  0.64361444162E+01  0.65602480858E+01  0.12700000000E+01 0.  1.
         -4   -1    0    0    0  501 -0.00000000000E+00 -0.00000000000E+00 -0.60097434217E+03  0.60097568407E+03  0.12700000000E+01 0.  1.
         25    2    1    2    0    0  0.00000000000E+00  0.00000000000E+00 -0.59453819775E+03  0.60753593216E+03  0.12499696106E+03 0.  0.
    9000005    1    3    3    0    0 -0.48248742718E+02 -0.39699717386E+02 -0.29228550133E+03  0.29889098852E+03  0.10000000000E+01 0.  0.
    9000005    1    3    3    0    0  0.48248742718E+02  0.39699717386E+02 -0.30225269643E+03  0.30864494364E+03  0.10000000000E+01 0.  0.
<mgrwt>
<rscale>  0 0.12499696E+03</rscale>
<asrwt>0</asrwt>
<pdfrwt beam="1">  1        4 0.99982620E-03 0.12499696E+03</pdfrwt>
<pdfrwt beam="2">  1       -4 0.92467197E-01 0.12499696E+03</pdfrwt>
<totfact> 0.48398591E+03</totfact>
</mgrwt>
</event>
<event>
 5    1  0.3217527E-002  0.1249996E+03  0.7818608E-02  0.1235070E+00
         -4   -1    0    0    0  501 -0.00000000000E+00  0.00000000000E+00  0.47773450350E+02  0.47790328084E+02  0.12700000000E+01 0.  1.
          4   -1    0    0  501    0  0.00000000000E+00 -0.00000000000E+00 -0.81729328760E+02  0.81739195491E+02  0.12700000000E+01 0.  1.
         25    2    1    2    0    0  0.00000000000E+00  0.00000000000E+00 -0.33955878410E+02  0.12952952357E+03  0.12499958319E+03 0.  0.
    9000005    1    3    3    0    0  0.57075178847E+02 -0.18824365951E+02  0.76843711878E+00  0.60112588445E+02  0.10000000000E+01 0.  0.
    9000005    1    3    3    0    0 -0.57075178847E+02  0.18824365951E+02 -0.34724315528E+02  0.69416935130E+02  0.10000000000E+01 0.  0.
<mgrwt>
<rscale>  0 0.12499958E+03</rscale>
<asrwt>0</asrwt>
<pdfrwt beam="2">  1        4 0.12575800E-01 0.12499958E+03</pdfrwt>
<pdfrwt beam="1">  1       -4 0.73518189E-02 0.12499958E+03</pdfrwt>
<totfact> 0.10354680E+04</totfact>
</mgrwt>
</event>
<event>
 5    1  0.3217527E-002  0.1249957E+03  0.7818608E-02  0.1235076E+00
          4   -1    0    0  501    0  0.00000000000E+00  0.00000000000E+00  0.16639326864E+02  0.16687722987E+02  0.12700000000E+01 0. -1.
         -4   -1    0    0    0  501 -0.00000000000E+00 -0.00000000000E+00 -0.23435277344E+03  0.23435621459E+03  0.12700000000E+01 0. -1.
         25    2    1    2    0    0  0.00000000000E+00  0.00000000000E+00 -0.21771344657E+03  0.25104393758E+03  0.12499565503E+03 0.  0.
    9000005    1    3    3    0    0  0.50258815238E+02  0.15159375214E+02 -0.17694259912E+03  0.18456824903E+03  0.10000000000E+01 0.  0.
    9000005    1    3    3    0    0 -0.50258815238E+02 -0.15159375214E+02 -0.40770847452E+02  0.66475688548E+02  0.10000000000E+01 0.  0.
<mgrwt>
<rscale>  0 0.12499566E+03</rscale>
<asrwt>0</asrwt>
<pdfrwt beam="1">  1        4 0.25638841E-02 0.12499566E+03</pdfrwt>
<pdfrwt beam="2">  1       -4 0.36058258E-01 0.12499566E+03</pdfrwt>
<totfact> 0.82187535E+03</totfact>
</mgrwt>
</event>
<event>
 5    1  0.3217527E-002  0.1249983E+03  0.7818608E-02  0.1235072E+00
          4   -1    0    0  501    0  0.00000000000E+00  0.00000000000E+00  0.64856275792E+02  0.64868709018E+02  0.12700000000E+01 0.  1.
         -4   -1    0    0    0  501 -0.00000000000E+00 -0.00000000000E+00 -0.60202803742E+02  0.60216197808E+02  0.12700000000E+01 0.  1.
         25    2    1    2    0    0  0.00000000000E+00  0.00000000000E+00  0.46534720498E+01  0.12508490683E+03  0.12499831644E+03 0.  0.
    9000005    1    3    3    0    0  0.30579201349E+02  0.30284841324E+02  0.47666903592E+02  0.64229221288E+02  0.10000000000E+01 0.  0.
    9000005    1    3    3    0    0 -0.30579201349E+02 -0.30284841324E+02 -0.43013431542E+02  0.60855685538E+02  0.10000000000E+01 0.  0.
<mgrwt>
<rscale>  0 0.12499832E+03</rscale>
<asrwt>0</asrwt>
<pdfrwt beam="1">  1        4 0.99798752E-02 0.12499832E+03</pdfrwt>
<pdfrwt beam="2">  1       -4 0.92639566E-02 0.12499832E+03</pdfrwt>
<totfact> 0.10451416E+04</totfact>
</mgrwt>
</event>
<event>
 5    1  0.3217527E-002  0.1249955E+03  0.7818608E-02  0.1235076E+00
          4   -1    0    0  501    0  0.00000000000E+00  0.00000000000E+00  0.90829811273E+02  0.90838689532E+02  0.12700000000E+01 0.  1.
         -4   -1    0    0    0  501 -0.00000000000E+00 -0.00000000000E+00 -0.42982797167E+02  0.43001555231E+02  0.12700000000E+01 0.  1.
         25    2    1    2    0    0  0.00000000000E+00  0.00000000000E+00  0.47847014106E+02  0.13384024476E+03  0.12499549736E+03 0.  0.
    9000005    1    3    3    0    0  0.35608850857E+02  0.50834641720E+02  0.31705331048E+02  0.69702073678E+02  0.10000000000E+01 0.  0.
    9000005    1    3    3    0    0 -0.35608850857E+02 -0.50834641720E+02  0.16141683057E+02  0.64138171085E+02  0.10000000000E+01 0.  0.
<mgrwt>
<rscale>  0 0.12499550E+03</rscale>
<asrwt>0</asrwt>
<pdfrwt beam="1">  1        4 0.13975943E-01 0.12499550E+03</pdfrwt>
<pdfrwt beam="2">  1       -4 0.66148640E-02 0.12499550E+03</pdfrwt>
<totfact> 0.10263616E+04</totfact>
</mgrwt>
</event>
<event>
 5    1  0.3217527E-002  0.1250444E+03  0.7818608E-02  0.1235000E+00
         -4   -1    0    0    0  501 -0.00000000000E+00  0.00000000000E+00  0.33157859479E+02  0.33182172100E+02  0.12700000000E+01 0. -1.
          4   -1    0    0  501    0  0.00000000000E+00 -0.00000000000E+00 -0.11782036009E+03  0.11782720463E+03  0.12700000000E+01 0. -1.
         25    2    1    2    0    0  0.00000000000E+00  0.00000000000E+00 -0.84662500610E+02  0.15100937673E+03  0.12504436353E+03 0.  0.
    9000005    1    3    3    0    0  0.42412552577E+02 -0.28721631283E+02 -0.85609269047E+02  0.99768249791E+02  0.10000000000E+01 0.  0.
    9000005    1    3    3    0    0 -0.42412552577E+02  0.28721631283E+02  0.94676843736E+00  0.51241126941E+02  0.10000000000E+01 0.  0.
<mgrwt>
<rscale>  0 0.12504436E+03</rscale>
<asrwt>0</asrwt>
<pdfrwt beam="2">  1        4 0.18128606E-01 0.12504436E+03</pdfrwt>
<pdfrwt beam="1">  1       -4 0.51036059E-02 0.12504436E+03</pdfrwt>
<totfact> 0.99004002E+03</totfact>
</mgrwt>
</event>
<event>
 5    1  0.3217527E-002  0.1249966E+03  0.7818608E-02  0.1235075E+00
          4   -1    0    0  501    0  0.00000000000E+00  0.00000000000E+00  0.53349390745E+02  0.53364504990E+02  0.12700000000E+01 0.  1.
         -4   -1    0    0    0  501 -0.00000000000E+00 -0.00000000000E+00 -0.73185183981E+02  0.73196202458E+02  0.12700000000E+01 0.  1.
         25    2    1    2    0    0  0.00000000000E+00  0.00000000000E+00 -0.19835793236E+02  0.12656070745E+03  0.12499661586E+03 0.  0.
    9000005    1    3    3    0    0  0.55586588226E+01 -0.30834908639E+01  0.53026156578E+02  0.53415165311E+02  0.10000000000E+01 0.  0.
    9000005    1    3    3    0    0 -0.55586588226E+01  0.30834908639E+01 -0.72861949814E+02  0.73145542137E+02  0.10000000000E+01 0.  0.
<mgrwt>
<rscale>  0 0.12499662E+03</rscale>
<asrwt>0</asrwt>
<pdfrwt beam="1">  1        4 0.82096088E-02 0.12499662E+03</pdfrwt>
<pdfrwt beam="2">  1       -4 0.11261269E-01 0.12499662E+03</pdfrwt>
<totfact> 0.10419500E+04</totfact>
</mgrwt>
</event>
<event>
 5    1  0.3217527E-002  0.1250026E+03  0.7818608E-02  0.1235065E+00
         -4   -1    0    0    0  501 -0.00000000000E+00  0.00000000000E+00  0.59750422269E+02  0.59763917720E+02  0.12700000000E+01 0.  1.
          4   -1    0    0  501    0  0.00000000000E+00 -0.00000000000E+00 -0.65351732133E+02  0.65364071115E+02  0.12700000000E+01 0.  1.
         25    2    1    2    0    0  0.00000000000E+00  0.00000000000E+00 -0.56013098644E+01  0.12512798884E+03  0.12500255565E+03 0.  0.
    9000005    1    3    3    0    0 -0.37441657795E+02  0.14483616450E+02  0.45140584861E+02  0.60417921890E+02  0.10000000000E+01 0.  0.
    9000005    1    3    3    0    0  0.37441657795E+02 -0.14483616450E+02 -0.50741894725E+02  0.64710066946E+02  0.10000000000E+01 0.  0.
<mgrwt>
<rscale>  0 0.12500256E+03</rscale>
<asrwt>0</asrwt>
<pdfrwt beam="2">  1        4 0.10056100E-01 0.12500256E+03</pdfrwt>
<pdfrwt beam="1">  1       -4 0.91943599E-02 0.12500256E+03</pdfrwt>
<totfact> 0.10449480E+04</totfact>
</mgrwt>
</event>
<event>
 5    1  0.3217527E-002  0.1249996E+03  0.7818608E-02  0.1235070E+00
         -4   -1    0    0    0  501 -0.00000000000E+00  0.00000000000E+00  0.92110316813E+02  0.92119071660E+02  0.12700000000E+01 0. -1.
          4   -1    0    0  501    0  0.00000000000E+00 -0.00000000000E+00 -0.42387868035E+02  0.42406889258E+02  0.12700000000E+01 0. -1.
         25    2    1    2    0    0  0.00000000000E+00  0.00000000000E+00  0.49722448778E+02  0.13452596092E+03  0.12499964899E+03 0.  0.
    9000005    1    3    3    0    0  0.54661761765E+02  0.21179171704E+02  0.15602671492E+01  0.58650660242E+02  0.10000000000E+01 0.  0.
    9000005    1    3    3    0    0 -0.54661761765E+02 -0.21179171704E+02  0.48162181629E+02  0.75875300675E+02  0.10000000000E+01 0.  0.
<mgrwt>
<rscale>  0 0.12499965E+03</rscale>
<asrwt>0</asrwt>
<pdfrwt beam="2">  1        4 0.65233472E-02 0.12499965E+03</pdfrwt>
<pdfrwt beam="1">  1       -4 0.14172954E-01 0.12499965E+03</pdfrwt>
<totfact> 0.10248153E+04</totfact>
</mgrwt>
</event>
<event>
 5    1  0.3217527E-002  0.1249938E+03  0.7818608E-02  0.1235079E+00
         -4   -1    0    0    0  501 -0.00000000000E+00  0.00000000000E+00  0.70926630993E+03  0.70926744695E+03  0.12700000000E+01 0.  1.
          4   -1    0    0  501    0  0.00000000000E+00 -0.00000000000E+00 -0.54325310997E+01  0.55790047633E+01  0.12700000000E+01 0.  1.
         25    2    1    2    0    0  0.00000000000E+00  0.00000000000E+00  0.70383377883E+03  0.71484645172E+03  0.12499384506E+03 0.  0.
    9000005    1    3    3    0    0  0.36455064487E+02 -0.16711102216E+02  0.77841584327E+02  0.87570228472E+02  0.10000000000E+01 0.  0.
    9000005    1    3    3    0    0 -0.36455064487E+02  0.16711102216E+02  0.62599219451E+03  0.62727622324E+03  0.10000000000E+01 0.  0.
<mgrwt>
<rscale>  0 0.12499385E+03</rscale>
<asrwt>0</asrwt>
<pdfrwt beam="2">  1        4 0.84712861E-03 0.12499385E+03</pdfrwt>
<pdfrwt beam="1">  1       -4 0.10912926E+00 0.12499385E+03</pdfrwt>
<totfact> 0.42320167E+03</totfact>
</mgrwt>
</event>
<event>
 5    1  0.3217527E-002  0.1249996E+03  0.7818608E-02  0.1235070E+00
         -4   -1    0    0    0  501 -0.00000000000E+00  0.00000000000E+00  0.31168737357E+03  0.31168996093E+03  0.12700000000E+01 0. -1.
          4   -1    0    0  501    0  0.00000000000E+00 -0.00000000000E+00 -0.12497680018E+02  0.12562042263E+02  0.12700000000E+01 0. -1.
         25    2    1    2    0    0  0.00000000000E+00  0.00000000000E+00  0.29918969356E+03  0.32425200319E+03  0.12499955538E+03 0.  0.
    9000005    1    3    3    0    0 -0.41484201490E+02  0.12621731904E+02  0.32864427475E+02  0.54417990433E+02  0.10000000000E+01 0.  0.
    9000005    1    3    3    0    0  0.41484201490E+02 -0.12621731904E+02  0.26632526608E+03  0.26983401276E+03  0.10000000000E+01 0.  0.
<mgrwt>
<rscale>  0 0.12499956E+03</rscale>
<asrwt>0</asrwt>
<pdfrwt beam="2">  1        4 0.19278702E-02 0.12499956E+03</pdfrwt>
<pdfrwt beam="1">  1       -4 0.47957048E-01 0.12499956E+03</pdfrwt>
<totfact> 0.72653962E+03</totfact>
</mgrwt>
</event>
<event>
 5    1  0.3217527E-002  0.1249987E+03  0.7818608E-02  0.1235071E+00
          4   -1    0    0  501    0  0.00000000000E+00  0.00000000000E+00  0.37151855381E+02  0.37173555900E+02  0.12700000000E+01 0.  1.
         -4   -1    0    0    0  501 -0.00000000000E+00 -0.00000000000E+00 -0.10508434752E+03  0.10509202155E+03  0.12700000000E+01 0.  1.
         25    2    1    2    0    0  0.00000000000E+00  0.00000000000E+00 -0.67932492136E+02  0.14226557745E+03  0.12499868415E+03 0.  0.
    9000005    1    3    3    0    0 -0.61728721319E+02  0.70041884037E+01 -0.26274423798E+02  0.67459906884E+02  0.10000000000E+01 0.  0.
    9000005    1    3    3    0    0  0.61728721319E+02 -0.70041884037E+01 -0.41658068338E+02  0.74805670564E+02  0.10000000000E+01 0.  0.
<mgrwt>
<rscale>  0 0.12499868E+03</rscale>
<asrwt>0</asrwt>
<pdfrwt beam="1">  1        4 0.57179297E-02 0.12499868E+03</pdfrwt>
<pdfrwt beam="2">  1       -4 0.16169082E-01 0.12499868E+03</pdfrwt>
<totfact> 0.10087143E+04</totfact>
</mgrwt>
</event>
<event>
 5    1  0.3217527E-002  0.1250064E+03  0.7818608E-02  0.1235059E+00
          4   -1    0    0  501    0  0.00000000000E+00  0.00000000000E+00  0.17318630992E+03  0.17319096640E+03  0.12700000000E+01 0.  1.
         -4   -1    0    0    0  501 -0.00000000000E+00 -0.00000000000E+00 -0.22534653868E+02  0.22570412601E+02  0.12700000000E+01 0.  1.
         25    2    1    2    0    0  0.00000000000E+00  0.00000000000E+00  0.15065165605E+03  0.19576137900E+03  0.12500638399E+03 0.  0.
    9000005    1    3    3    0    0  0.77099044280E+01  0.16619169294E+02 -0.18242639078E+02  0.25873409030E+02  0.10000000000E+01 0.  0.
    9000005    1    3    3    0    0 -0.77099044280E+01 -0.16619169294E+02  0.16889429513E+03  0.16988796997E+03  0.10000000000E+01 0.  0.
<mgrwt>
<rscale>  0 0.12500638E+03</rscale>
<asrwt>0</asrwt>
<pdfrwt beam="1">  1        4 0.26647156E-01 0.12500638E+03</pdfrwt>
<pdfrwt beam="2">  1       -4 0.34699787E-02 0.12500638E+03</pdfrwt>
<totfact> 0.90841421E+03</totfact>
</mgrwt>
</event>
<event>
 5    1  0.3217527E-002  0.1249988E+03  0.7818608E-02  0.1235071E+00
         -4   -1    0    0    0  501 -0.00000000000E+00  0.00000000000E+00  0.59308653161E+01  0.60653164302E+01  0.12700000000E+01 0.  1.
          4   -1    0    0  501    0  0.00000000000E+00 -0.00000000000E+00 -0.65110153780E+03  0.65110277640E+03  0.12700000000E+01 0.  1.
         25    2    1    2    0    0  0.00000000000E+00  0.00000000000E+00 -0.64517067249E+03  0.65716809283E+03  0.12499882236E+03 0.  0.
    9000005    1    3    3    0    0  0.28332104693E+02  0.21833415337E+02 -0.59198615213E+03  0.59306661556E+03  0.10000000000E+01 0.  0.
    9000005    1    3    3    0    0 -0.28332104693E+02 -0.21833415337E+02 -0.53184520355E+02  0.64101477261E+02  0.10000000000E+01 0.  0.
<mgrwt>
<rscale>  0 0.12499882E+03</rscale>
<asrwt>0</asrwt>
<pdfrwt beam="2">  1        4 0.10017985E+00 0.12499882E+03</pdfrwt>
<pdfrwt beam="1">  1       -4 0.92287900E-03 0.12499882E+03</pdfrwt>
<totfact> 0.45447168E+03</totfact>
</mgrwt>
</event>
<event>
 5    1  0.3217527E-002  0.1250041E+03  0.7818608E-02  0.1235063E+00
          4   -1    0    0  501    0  0.00000000000E+00  0.00000000000E+00  0.51658366405E+01  0.53196586541E+01  0.12700000000E+01 0.  1.
         -4   -1    0    0    0  501 -0.00000000000E+00 -0.00000000000E+00 -0.74497125412E+03  0.74497233665E+03  0.12700000000E+01 0.  1.
         25    2    1    2    0    0  0.00000000000E+00  0.00000000000E+00 -0.73980541748E+03  0.75029199530E+03  0.12500408984E+03 0.  0.
    9000005    1    3    3    0    0 -0.38171203857E+02 -0.49480379642E+02 -0.37227978188E+03  0.37748984724E+03  0.10000000000E+01 0.  0.
    9000005    1    3    3    0    0  0.38171203857E+02  0.49480379642E+02 -0.36752563560E+03  0.37280214806E+03  0.10000000000E+01 0.  0.
<mgrwt>
<rscale>  0 0.12500409E+03</rscale>
<asrwt>0</asrwt>
<pdfrwt beam="1">  1        4 0.80666042E-03 0.12500409E+03</pdfrwt>
<pdfrwt beam="2">  1       -4 0.11462279E+00 0.12500409E+03</pdfrwt>
<totfact> 0.40556571E+03</totfact>
</mgrwt>
</event>
<event>
 5    1  0.3217527E-002  0.1249983E+03  0.7818608E-02  0.1235072E+00
         -4   -1    0    0    0  501 -0.00000000000E+00  0.00000000000E+00  0.11476002227E+03  0.11476704933E+03  0.12700000000E+01 0.  1.
          4   -1    0    0  501    0  0.00000000000E+00 -0.00000000000E+00 -0.34017574147E+02  0.34041272756E+02  0.12700000000E+01 0.  1.
         25    2    1    2    0    0  0.00000000000E+00  0.00000000000E+00  0.80742448127E+02  0.14880832209E+03  0.12499829516E+03 0.  0.
    9000005    1    3    3    0    0 -0.11217769794E+02 -0.26908588145E+02 -0.25431715695E+02  0.38699904888E+02  0.10000000000E+01 0.  0.
    9000005    1    3    3    0    0  0.11217769794E+02  0.26908588145E+02  0.10617416382E+03  0.11010841720E+03  0.10000000000E+01 0.  0.
<mgrwt>
<rscale>  0 0.12499830E+03</rscale>
<asrwt>0</asrwt>
<pdfrwt beam="2">  1        4 0.52358363E-02 0.12499830E+03</pdfrwt>
<pdfrwt beam="1">  1       -4 0.17657752E-01 0.12499830E+03</pdfrwt>
<totfact> 0.99545592E+03</totfact>
</mgrwt>
</event>
<event>
 5    1  0.3217527E-002  0.1249984E+03  0.7818608E-02  0.1235072E+00
         -4   -1    0    0    0  501 -0.00000000000E+00  0.00000000000E+00  0.46490159011E+03  0.46490332478E+03  0.12700000000E+01 0. -1.
          4   -1    0    0  501    0  0.00000000000E+00 -0.00000000000E+00 -0.83523478519E+01  0.84483498175E+01  0.12700000000E+01 0. -1.
         25    2    1    2    0    0  0.00000000000E+00  0.00000000000E+00  0.45654924226E+03  0.47335167459E+03  0.12499838892E+03 0.  0.
    9000005    1    3    3    0    0  0.43270931209E+02 -0.25790197012E+02  0.88230253450E+02  0.10160258547E+03  0.10000000000E+01 0.  0.
    9000005    1    3    3    0    0 -0.43270931209E+02  0.25790197012E+02  0.36831898881E+03  0.37174908913E+03  0.10000000000E+01 0.  0.
<mgrwt>
<rscale>  0 0.12499839E+03</rscale>
<asrwt>0</asrwt>
<pdfrwt beam="2">  1        4 0.12924948E-02 0.12499839E+03</pdfrwt>
<pdfrwt beam="1">  1       -4 0.71530841E-01 0.12499839E+03</pdfrwt>
<totfact> 0.57994953E+03</totfact>
</mgrwt>
</event>
<event>
 5    1  0.3217527E-002  0.1249975E+03  0.7818608E-02  0.1235073E+00
         -4   -1    0    0    0  501 -0.00000000000E+00  0.00000000000E+00  0.21629429829E+02  0.21666682596E+02  0.12700000000E+01 0.  1.
          4   -1    0    0  501    0  0.00000000000E+00 -0.00000000000E+00 -0.18039681459E+03  0.18040128495E+03  0.12700000000E+01 0.  1.
         25    2    1    2    0    0  0.00000000000E+00  0.00000000000E+00 -0.15876738476E+03  0.20206796755E+03  0.12499752416E+03 0.  0.
    9000005    1    3    3    0    0 -0.59317861130E+02 -0.26527442976E+01 -0.11087372345E+03  0.12577610367E+03  0.10000000000E+01 0.  0.
    9000005    1    3    3    0    0  0.59317861130E+02  0.26527442976E+01 -0.47893661302E+02  0.76291863880E+02  0.10000000000E+01 0.  0.
<mgrwt>
<rscale>  0 0.12499752E+03</rscale>
<asrwt>0</asrwt>
<pdfrwt beam="2">  1        4 0.27756565E-01 0.12499752E+03</pdfrwt>
<pdfrwt beam="1">  1       -4 0.33308142E-02 0.12499752E+03</pdfrwt>
<totfact> 0.89792869E+03</totfact>
</mgrwt>
</event>
<event>
 5    1  0.3217527E-002  0.1249974E+03  0.7818608E-02  0.1235073E+00
         -4   -1    0    0    0  501 -0.00000000000E+00  0.00000000000E+00  0.98660386622E+02  0.98668560283E+02  0.12700000000E+01 0.  1.
          4   -1    0    0  501    0  0.00000000000E+00 -0.00000000000E+00 -0.39571232624E+02  0.39591607083E+02  0.12700000000E+01 0.  1.
         25    2    1    2    0    0  0.00000000000E+00  0.00000000000E+00  0.59089153998E+02  0.13826016737E+03  0.12499738301E+03 0.  0.
    9000005    1    3    3    0    0  0.54570049782E+02 -0.10729750115E+02 -0.19758802203E+01  0.55658979270E+02  0.10000000000E+01 0.  0.
    9000005    1    3    3    0    0 -0.54570049782E+02  0.10729750115E+02  0.61065034218E+02  0.82601188096E+02  0.10000000000E+01 0.  0.
<mgrwt>
<rscale>  0 0.12499738E+03</rscale>
<asrwt>0</asrwt>
<pdfrwt beam="2">  1        4 0.60900780E-02 0.12499738E+03</pdfrwt>
<pdfrwt beam="1">  1       -4 0.15180717E-01 0.12499738E+03</pdfrwt>
<totfact> 0.10170372E+04</totfact>
</mgrwt>
</event>
<event>
 5    1  0.3217527E-002  0.1249683E+03  0.7818608E-02  0.1235119E+00
         -4   -1    0    0    0  501 -0.00000000000E+00  0.00000000000E+00  0.80808376070E+02  0.80818355236E+02  0.12700000000E+01 0. -1.
          4   -1    0    0  501    0  0.00000000000E+00 -0.00000000000E+00 -0.48293850484E+02  0.48310546412E+02  0.12700000000E+01 0. -1.
         25    2    1    2    0    0  0.00000000000E+00  0.00000000000E+00  0.32514525585E+02  0.12912890165E+03  0.12496831145E+03 0.  0.
    9000005    1    3    3    0    0 -0.60226927872E+02 -0.83855474615E+01  0.31075906946E+02  0.68295770291E+02  0.10000000000E+01 0.  0.
    9000005    1    3    3    0    0  0.60226927872E+02  0.83855474615E+01  0.14386186390E+01  0.60833131357E+02  0.10000000000E+01 0.  0.
<mgrwt>
<rscale>  0 0.12496831E+03</rscale>
<asrwt>0</asrwt>
<pdfrwt beam="2">  1        4 0.74318751E-02 0.12496831E+03</pdfrwt>
<pdfrwt beam="1">  1       -4 0.12434110E-01 0.12496831E+03</pdfrwt>
<totfact> 0.10370594E+04</totfact>
</mgrwt>
</event>
<event>
 5    1  0.3217527E-002  0.1250022E+03  0.7818608E-02  0.1235066E+00
          4   -1    0    0  501    0  0.00000000000E+00  0.00000000000E+00  0.86591318918E+02  0.86600631707E+02  0.12700000000E+01 0.  1.
         -4   -1    0    0    0  501 -0.00000000000E+00 -0.00000000000E+00 -0.45092265839E+02  0.45110146736E+02  0.12700000000E+01 0.  1.
         25    2    1    2    0    0  0.00000000000E+00  0.00000000000E+00  0.41499053079E+02  0.13171077844E+03  0.12500223099E+03 0.  0.
    9000005    1    3    3    0    0  0.13164667441E+02  0.73014285337E+01 -0.43158422025E+02  0.45719456680E+02  0.10000000000E+01 0.  0.
    9000005    1    3    3    0    0 -0.13164667441E+02 -0.73014285337E+01  0.84657475104E+02  0.85991321762E+02  0.10000000000E+01 0.  0.
<mgrwt>
<rscale>  0 0.12500223E+03</rscale>
<asrwt>0</asrwt>
<pdfrwt beam="1">  1        4 0.13323833E-01 0.12500223E+03</pdfrwt>
<pdfrwt beam="2">  1       -4 0.69393635E-02 0.12500223E+03</pdfrwt>
<totfact> 0.10307357E+04</totfact>
</mgrwt>
</event>
<event>
 5    1  0.3217527E-002  0.1250008E+03  0.7818608E-02  0.1235068E+00
          4   -1    0    0  501    0  0.00000000000E+00  0.00000000000E+00  0.27632631433E+02  0.27661800736E+02  0.12700000000E+01 0.  1.
         -4   -1    0    0    0  501 -0.00000000000E+00 -0.00000000000E+00 -0.14125894025E+03  0.14126464915E+03  0.12700000000E+01 0.  1.
         25    2    1    2    0    0  0.00000000000E+00  0.00000000000E+00 -0.11362630881E+03  0.16892644989E+03  0.12500082966E+03 0.  0.
    9000005    1    3    3    0    0 -0.47542055137E+02 -0.39940247913E+02 -0.66352893488E+02  0.90880013667E+02  0.10000000000E+01 0.  0.
    9000005    1    3    3    0    0  0.47542055137E+02  0.39940247913E+02 -0.47273415327E+02  0.78046436220E+02  0.10000000000E+01 0.  0.
<mgrwt>
<rscale>  0 0.12500083E+03</rscale>
<asrwt>0</asrwt>
<pdfrwt beam="1">  1        4 0.42538571E-02 0.12500083E+03</pdfrwt>
<pdfrwt beam="2">  1       -4 0.21734827E-01 0.12500083E+03</pdfrwt>
<totfact> 0.95647127E+03</totfact>
</mgrwt>
</event>
<event>
 5    1  0.3217527E-002  0.1249970E+03  0.7818608E-02  0.1235074E+00
          4   -1    0    0  501    0  0.00000000000E+00  0.00000000000E+00  0.14942720053E+03  0.14943259738E+03  0.12700000000E+01 0. -1.
         -4   -1    0    0    0  501 -0.00000000000E+00 -0.00000000000E+00 -0.26118950547E+02  0.26149808368E+02  0.12700000000E+01 0. -1.
         25    2    1    2    0    0  0.00000000000E+00  0.00000000000E+00  0.12330824998E+03  0.17558240574E+03  0.12499702674E+03 0.  0.
    9000005    1    3    3    0    0 -0.27630611815E+02  0.11674873218E+02 -0.15352130961E+02  0.33711145026E+02  0.10000000000E+01 0.  0.
    9000005    1    3    3    0    0  0.27630611815E+02 -0.11674873218E+02  0.13866038094E+03  0.14187126072E+03  0.10000000000E+01 0.  0.
<mgrwt>
<rscale>  0 0.12499703E+03</rscale>
<asrwt>0</asrwt>
<pdfrwt beam="1">  1        4 0.22991589E-01 0.12499703E+03</pdfrwt>
<pdfrwt beam="2">  1       -4 0.40210889E-02 0.12499703E+03</pdfrwt>
<totfact> 0.94424580E+03</totfact>
</mgrwt>
</event>
<event>
 5    1  0.3217527E-002  0.1250365E+03  0.7818608E-02  0.1235012E+00
         -4   -1    0    0    0  501 -0.00000000000E+00  0.00000000000E+00  0.11353420163E+02  0.11424230801E+02  0.12700000000E+01 0. -1.
          4   -1    0    0  501    0  0.00000000000E+00 -0.00000000000E+00 -0.34311791255E+03  0.34312026290E+03  0.12700000000E+01 0. -1.
         25    2    1    2    0    0  0.00000000000E+00  0.00000000000E+00 -0.33176449239E+03  0.35454449370E+03  0.12503647310E+03 0.  0.
    9000005    1    3    3    0    0 -0.48016353136E+02 -0.84442401130E+01 -0.27681827673E+03  0.28108047547E+03  0.10000000000E+01 0.  0.
    9000005    1    3    3    0    0  0.48016353136E+02  0.84442401130E+01 -0.54946215659E+02  0.73464018233E+02  0.10000000000E+01 0.  0.
<mgrwt>
<rscale>  0 0.12503647E+03</rscale>
<asrwt>0</asrwt>
<pdfrwt beam="2">  1        4 0.52792991E-01 0.12503647E+03</pdfrwt>
<pdfrwt beam="1">  1       -4 0.17523080E-02 0.12503647E+03</pdfrwt>
<totfact> 0.69171651E+03</totfact>
</mgrwt>
</event>
<event>
 5    1  0.3217527E-002  0.1250025E+03  0.7818608E-02  0.1235065E+00
         -4   -1    0    0    0  501 -0.00000000000E+00  0.00000000000E+00  0.21813007552E+02  0.21849947333E+02  0.12700000000E+01 0.  1.
          4   -1    0    0  501    0  0.00000000000E+00 -0.00000000000E+00 -0.17889531023E+03  0.17889981811E+03  0.12700000000E+01 0.  1.
         25    2    1    2    0    0  0.00000000000E+00  0.00000000000E+00 -0.15708230268E+03  0.20074976545E+03  0.12500247403E+03 0.  0.
    9000005    1    3    3    0    0  0.40783920359E+02 -0.44249086671E+02 -0.10560989367E+03  0.12155558183E+03  0.10000000000E+01 0.  0.
    9000005    1    3    3    0    0 -0.40783920359E+02  0.44249086671E+02 -0.51472409001E+02  0.79194183622E+02  0.10000000000E+01 0.  0.
<mgrwt>
<rscale>  0 0.12500247E+03</rscale>
<asrwt>0</asrwt>
<pdfrwt beam="2">  1        4 0.27525543E-01 0.12500247E+03</pdfrwt>
<pdfrwt beam="1">  1       -4 0.33590357E-02 0.12500247E+03</pdfrwt>
<totfact> 0.90004224E+03</totfact>
</mgrwt>
</event>
<event>
 5    1  0.3217527E-002  0.1250011E+03  0.7818608E-02  0.1235068E+00
         -4   -1    0    0    0  501 -0.00000000000E+00  0.00000000000E+00  0.77547435755E+02  0.77557834499E+02  0.12700000000E+01 0.  1.
          4   -1    0    0  501    0  0.00000000000E+00 -0.00000000000E+00 -0.50351525006E+02  0.50367538856E+02  0.12700000000E+01 0.  1.
         25    2    1    2    0    0  0.00000000000E+00  0.00000000000E+00  0.27195910749E+02  0.12792537335E+03  0.12500113434E+03 0.  0.
    9000005    1    3    3    0    0  0.76626972692E+01  0.41170068816E+02  0.61068746999E+02  0.74054597128E+02  0.10000000000E+01 0.  0.
    9000005    1    3    3    0    0 -0.76626972692E+01 -0.41170068816E+02 -0.33872836250E+02  0.53870776227E+02  0.10000000000E+01 0.  0.
<mgrwt>
<rscale>  0 0.12500113E+03</rscale>
<asrwt>0</asrwt>
<pdfrwt beam="2">  1        4 0.77484202E-02 0.12500113E+03</pdfrwt>
<pdfrwt beam="1">  1       -4 0.11932406E-01 0.12500113E+03</pdfrwt>
<totfact> 0.10388833E+04</totfact>
</mgrwt>
</event>
<event>
 5    1  0.3217527E-002  0.1250019E+03  0.7818608E-02  0.1235066E+00
          4   -1    0    0  501    0  0.00000000000E+00  0.00000000000E+00  0.42914570612E+01  0.44754333542E+01  0.12700000000E+01 0. -1.
         -4   -1    0    0    0  501 -0.00000000000E+00 -0.00000000000E+00 -0.89097978364E+03  0.89098068877E+03  0.12700000000E+01 0. -1.
         25    2    1    2    0    0  0.00000000000E+00  0.00000000000E+00 -0.88668832658E+03  0.89545612212E+03  0.12500191260E+03 0.  0.
    9000005    1    3    3    0    0 -0.58726489240E+02 -0.48468348460E+01 -0.29426727880E+03  0.30011085238E+03  0.10000000000E+01 0.  0.
    9000005    1    3    3    0    0  0.58726489240E+02  0.48468348460E+01 -0.59242104778E+03  0.59534526974E+03  0.10000000000E+01 0.  0.
<mgrwt>
<rscale>  0 0.12500191E+03</rscale>
<asrwt>0</asrwt>
<pdfrwt beam="1">  1        4 0.67444652E-03 0.12500191E+03</pdfrwt>
<pdfrwt beam="2">  1       -4 0.13708789E+00 0.12500191E+03</pdfrwt>
<totfact> 0.34333106E+03</totfact>
</mgrwt>
</event>
<event>
 5    1  0.3217527E-002  0.1250048E+03  0.7818608E-02  0.1235062E+00
         -4   -1    0    0    0  501 -0.00000000000E+00  0.00000000000E+00  0.58231192211E+03  0.58231330702E+03  0.12700000000E+01 0.  1.
          4   -1    0    0  501    0  0.00000000000E+00 -0.00000000000E+00 -0.66471819359E+01  0.67674166186E+01  0.12700000000E+01 0.  1.
         25    2    1    2    0    0  0.00000000000E+00  0.00000000000E+00  0.57566474017E+03  0.58908072364E+03  0.12500482343E+03 0.  0.
    9000005    1    3    3    0    0  0.36759029355E+02  0.30118405819E+02  0.47909147196E+03  0.48144364480E+03  0.10000000000E+01 0.  0.
    9000005    1    3    3    0    0 -0.36759029355E+02 -0.30118405819E+02  0.96573268209E+02  0.10763707884E+03  0.10000000000E+01 0.  0.
<mgrwt>
<rscale>  0 0.12500482E+03</rscale>
<asrwt>0</asrwt>
<pdfrwt beam="2">  1        4 0.10319989E-02 0.12500482E+03</pdfrwt>
<pdfrwt beam="1">  1       -4 0.89595790E-01 0.12500482E+03</pdfrwt>
<totfact> 0.49558964E+03</totfact>
</mgrwt>
</event>
<event>
 5    1  0.3217527E-002  0.1250029E+03  0.7818608E-02  0.1235065E+00
          4   -1    0    0  501    0  0.00000000000E+00  0.00000000000E+00  0.33144801702E+02  0.33169123894E+02  0.12700000000E+01 0.  1.
         -4   -1    0    0    0  501 -0.00000000000E+00 -0.00000000000E+00 -0.11778850434E+03  0.11779535074E+03  0.12700000000E+01 0.  1.
         25    2    1    2    0    0  0.00000000000E+00  0.00000000000E+00 -0.84643702641E+02  0.15096447463E+03  0.12500286478E+03 0.  0.
    9000005    1    3    3    0    0 -0.44224644474E+02  0.41995807197E+02 -0.25852861683E+02  0.66248301550E+02  0.10000000000E+01 0.  0.
    9000005    1    3    3    0    0  0.44224644474E+02 -0.41995807197E+02 -0.58790840958E+02  0.84716173081E+02  0.10000000000E+01 0.  0.
<mgrwt>
<rscale>  0 0.12500286E+03</rscale>
<asrwt>0</asrwt>
<pdfrwt beam="1">  1        4 0.51015979E-02 0.12500286E+03</pdfrwt>
<pdfrwt beam="2">  1       -4 0.18123706E-01 0.12500286E+03</pdfrwt>
<totfact> 0.99105402E+03</totfact>
</mgrwt>
</event>
<event>
 5    1  0.3217527E-002  0.1250007E+03  0.7818608E-02  0.1235068E+00
         -4   -1    0    0    0  501 -0.00000000000E+00  0.00000000000E+00  0.73470747989E+01  0.74560316590E+01  0.12700000000E+01 0.  1.
          4   -1    0    0  501    0  0.00000000000E+00 -0.00000000000E+00 -0.52765692323E+03  0.52765845159E+03  0.12700000000E+01 0.  1.
         25    2    1    2    0    0  0.00000000000E+00  0.00000000000E+00 -0.52030984843E+03  0.53511448325E+03  0.12500068722E+03 0.  0.
    9000005    1    3    3    0    0 -0.35216310095E+02 -0.50752580902E+02 -0.30060425710E+03  0.30688749136E+03  0.10000000000E+01 0.  0.
    9000005    1    3    3    0    0  0.35216310095E+02  0.50752580902E+02 -0.21970559133E+03  0.22822699189E+03  0.10000000000E+01 0.  0.
<mgrwt>
<rscale>  0 0.12500069E+03</rscale>
<asrwt>0</asrwt>
<pdfrwt beam="2">  1        4 0.81186458E-01 0.12500069E+03</pdfrwt>
<pdfrwt beam="1">  1       -4 0.11388185E-02 0.12500069E+03</pdfrwt>
<totfact> 0.53238467E+03</totfact>
</mgrwt>
</event>
<event>
 4    1  0.3217527E-002  0.1249350E+03  0.7818608E-02  0.1235171E+00
          4   -1    0    0  501    0  0.00000000000E+00  0.00000000000E+00  0.14742817457E+03  0.14743364459E+03  0.12700000000E+01 0. -1.
         -4   -1    0    0    0  501 -0.00000000000E+00 -0.00000000000E+00 -0.26447210854E+02  0.26477686114E+02  0.12700000000E+01 0. -1.
    9000005    1    1    2    0    0 -0.38292822211E+02  0.48243308133E+02  0.74918650459E+02  0.96992583217E+02  0.10000000000E+01 0.  0.
    9000005    1    1    2    0    0  0.38292822211E+02 -0.48243308133E+02  0.46062313259E+02  0.76918747489E+02  0.10000000000E+01 0.  0.
<mgrwt>
<rscale>  0 0.12493501E+03</rscale>
<asrwt>0</asrwt>
<pdfrwt beam="1">  1        4 0.22684023E-01 0.12493501E+03</pdfrwt>
<pdfrwt beam="2">  1       -4 0.40715667E-02 0.12493501E+03</pdfrwt>
<totfact> 0.94862852E+03</totfact>
</mgrwt>
</event>
<event>
 5    1  0.3217527E-002  0.1249993E+03  0.7818608E-02  0.1235070E+00
          4   -1    0    0  501    0  0.00000000000E+00  0.00000000000E+00  0.19289384003E+02  0.19331146764E+02  0.12700000000E+01 0. -1.
         -4   -1    0    0    0  501 -0.00000000000E+00 -0.00000000000E+00 -0.20224270806E+03  0.20224669555E+03  0.12700000000E+01 0. -1.
         25    2    1    2    0    0  0.00000000000E+00  0.00000000000E+00 -0.18295332405E+03  0.22157784232E+03  0.12499928569E+03 0.  0.
    9000005    1    3    3    0    0 -0.37325418078E+02  0.21382637222E+02 -0.11123361799E+02  0.44442470532E+02  0.10000000000E+01 0.  0.
    9000005    1    3    3    0    0  0.37325418078E+02 -0.21382637222E+02 -0.17182996225E+03  0.17713537178E+03  0.10000000000E+01 0.  0.
<mgrwt>
<rscale>  0 0.12499929E+03</rscale>
<asrwt>0</asrwt>
<pdfrwt beam="1">  1        4 0.29711169E-02 0.12499929E+03</pdfrwt>
<pdfrwt beam="2">  1       -4 0.31117781E-01 0.12499929E+03</pdfrwt>
<totfact> 0.86620673E+03</totfact>
</mgrwt>
</event>
<event>
 5    1  0.3217527E-002  0.1249986E+03  0.7818608E-02  0.1235072E+00
         -4   -1    0    0    0  501 -0.00000000000E+00  0.00000000000E+00  0.27453002352E+02  0.27482362310E+02  0.12700000000E+01 0.  1.
          4   -1    0    0  501    0  0.00000000000E+00 -0.00000000000E+00 -0.14217709772E+03  0.14218276976E+03  0.12700000000E+01 0.  1.
         25    2    1    2    0    0  0.00000000000E+00  0.00000000000E+00 -0.11472409537E+03  0.16966513207E+03  0.12499855592E+03 0.  0.
    9000005    1    3    3    0    0  0.22535361558E+02 -0.56876264338E+02 -0.74659853543E+02  0.96528988892E+02  0.10000000000E+01 0.  0.
    9000005    1    3    3    0    0 -0.22535361558E+02  0.56876264338E+02 -0.40064241824E+02  0.73136143175E+02  0.10000000000E+01 0.  0.
<mgrwt>
<rscale>  0 0.12499856E+03</rscale>
<asrwt>0</asrwt>
<pdfrwt beam="2">  1        4 0.21876094E-01 0.12499856E+03</pdfrwt>
<pdfrwt beam="1">  1       -4 0.42262337E-02 0.12499856E+03</pdfrwt>
<totfact> 0.95514184E+03</totfact>
</mgrwt>
</event>
<event>
 5    1  0.3217527E-002  0.1249973E+03  0.7818608E-02  0.1235074E+00
         -4   -1    0    0    0  501 -0.00000000000E+00  0.00000000000E+00  0.14125088756E+03  0.14125659679E+03  0.12700000000E+01 0.  1.
          4   -1    0    0  501    0  0.00000000000E+00 -0.00000000000E+00 -0.27632636071E+02  0.27661805368E+02  0.12700000000E+01 0.  1.
         25    2    1    2    0    0  0.00000000000E+00  0.00000000000E+00  0.11361825149E+03  0.16891840216E+03  0.12499727803E+03 0.  0.
    9000005    1    3    3    0    0 -0.63982585578E+01 -0.41715217145E+02 -0.54713482474E+01  0.42567977467E+02  0.10000000000E+01 0.  0.
    9000005    1    3    3    0    0  0.63982585578E+01  0.41715217145E+02  0.11908959974E+03  0.12635042469E+03  0.10000000000E+01 0.  0.
<mgrwt>
<rscale>  0 0.12499728E+03</rscale>
<asrwt>0</asrwt>
<pdfrwt beam="2">  1        4 0.42538577E-02 0.12499728E+03</pdfrwt>
<pdfrwt beam="1">  1       -4 0.21733589E-01 0.12499728E+03</pdfrwt>
<totfact> 0.95656258E+03</totfact>
</mgrwt>
</event>
<event>
 5    1  0.3217527E-002  0.1249992E+03  0.7818608E-02  0.1235071E+00
         -4   -1    0    0    0  501 -0.00000000000E+00  0.00000000000E+00  0.65981186796E+02  0.65993408088E+02  0.12700000000E+01 0. -1.
          4   -1    0    0  501    0  0.00000000000E+00 -0.00000000000E+00 -0.59177162942E+02  0.59190789097E+02  0.12700000000E+01 0. -1.
         25    2    1    2    0    0  0.00000000000E+00  0.00000000000E+00  0.68040238544E+01  0.12518419718E+03  0.12499915393E+03 0.  0.
    9000005    1    3    3    0    0  0.92719794036E+01  0.41087829822E+02  0.49633297433E+02  0.65104865990E+02  0.10000000000E+01 0.  0.
    9000005    1    3    3    0    0 -0.92719794036E+01 -0.41087829822E+02 -0.42829273578E+02  0.60079331195E+02  0.10000000000E+01 0.  0.
<mgrwt>
<rscale>  0 0.12499915E+03</rscale>
<asrwt>0</asrwt>
<pdfrwt beam="2">  1        4 0.91061673E-02 0.12499915E+03</pdfrwt>
<pdfrwt beam="1">  1       -4 0.10152940E-01 0.12499915E+03</pdfrwt>
<totfact> 0.10449063E+04</totfact>
</mgrwt>
</event>
<event>
 5    1  0.3217527E-002  0.1249990E+03  0.7818608E-02  0.1235071E+00
          4   -1    0    0  501    0  0.00000000000E+00  0.00000000000E+00  0.79625655750E+02  0.79635783123E+02  0.12700000000E+01 0.  1.
         -4   -1    0    0    0  501 -0.00000000000E+00 -0.00000000000E+00 -0.49035403452E+02  0.49051846976E+02  0.12700000000E+01 0.  1.
         25    2    1    2    0    0  0.00000000000E+00  0.00000000000E+00  0.30590252298E+02  0.12868763010E+03  0.12499897042E+03 0.  0.
    9000005    1    3    3    0    0 -0.16962368744E+02 -0.43360776392E+02 -0.27615872619E+02  0.54143469627E+02  0.10000000000E+01 0.  0.
    9000005    1    3    3    0    0  0.16962368744E+02  0.43360776392E+02  0.58206124917E+02  0.74544160473E+02  0.10000000000E+01 0.  0.
<mgrwt>
<rscale>  0 0.12499897E+03</rscale>
<asrwt>0</asrwt>
<pdfrwt beam="1">  1        4 0.12252145E-01 0.12499897E+03</pdfrwt>
<pdfrwt beam="2">  1       -4 0.75459523E-02 0.12499897E+03</pdfrwt>
<totfact> 0.10372905E+04</totfact>
</mgrwt>
</event>
<event>
 5    1  0.3217527E-002  0.1249950E+03  0.7818608E-02  0.1235077E+00
         -4   -1    0    0    0  501 -0.00000000000E+00  0.00000000000E+00  0.66617258383E+02  0.66629363005E+02  0.12700000000E+01 0. -1.
          4   -1    0    0  501    0  0.00000000000E+00 -0.00000000000E+00 -0.58608217945E+02  0.58621976346E+02  0.12700000000E+01 0. -1.
         25    2    1    2    0    0  0.00000000000E+00  0.00000000000E+00  0.80090404383E+01  0.12525133935E+03  0.12499501302E+03 0.  0.
    9000005    1    3    3    0    0 -0.35182168230E+02 -0.36331433634E+02  0.40783743417E+02  0.64977471160E+02  0.10000000000E+01 0.  0.
    9000005    1    3    3    0    0  0.35182168230E+02  0.36331433634E+02 -0.32774702979E+02  0.60273868191E+02  0.10000000000E+01 0.  0.
<mgrwt>
<rscale>  0 0.12499501E+03</rscale>
<asrwt>0</asrwt>
<pdfrwt beam="2">  1        4 0.90186384E-02 0.12499501E+03</pdfrwt>
<pdfrwt beam="1">  1       -4 0.10250798E-01 0.12499501E+03</pdfrwt>
<totfact> 0.10448583E+04</totfact>
</mgrwt>
</event>
<event>
 5    1  0.3217527E-002  0.1249993E+03  0.7818608E-02  0.1235070E+00
          4   -1    0    0  501    0  0.00000000000E+00  0.00000000000E+00  0.36354500014E+03  0.36354721843E+03  0.12700000000E+01 0. -1.
         -4   -1    0    0    0  501 -0.00000000000E+00 -0.00000000000E+00 -0.10704985781E+02  0.10780056613E+02  0.12700000000E+01 0. -1.
         25    2    1    2    0    0  0.00000000000E+00  0.00000000000E+00  0.35284001436E+03  0.37432727504E+03  0.12499933242E+03 0.  0.
    9000005    1    3    3    0    0 -0.25290746058E+02  0.24162330576E+01  0.54437482775E+01  0.26001815584E+02  0.10000000000E+01 0.  0.
    9000005    1    3    3    0    0  0.25290746058E+02 -0.24162330576E+01  0.34739626608E+03  0.34832545946E+03  0.10000000000E+01 0.  0.
<mgrwt>
<rscale>  0 0.12499933E+03</rscale>
<asrwt>0</asrwt>
<pdfrwt beam="1">  1        4 0.55935936E-01 0.12499933E+03</pdfrwt>
<pdfrwt beam="2">  1       -4 0.16528665E-02 0.12499933E+03</pdfrwt>
<totfact> 0.67129635E+03</totfact>
</mgrwt>
</event>
<event>
 5    1  0.3217527E-002  0.1250106E+03  0.7818608E-02  0.1235053E+00
          4   -1    0    0  501    0  0.00000000000E+00  0.00000000000E+00  0.41547233454E+01  0.43444937653E+01  0.12700000000E+01 0.  1.
         -4   -1    0    0    0  501 -0.00000000000E+00 -0.00000000000E+00 -0.91916869360E+03  0.91916957097E+03  0.12700000000E+01 0.  1.
         25    2    1    2    0    0  0.00000000000E+00  0.00000000000E+00 -0.91501397025E+03  0.92351406473E+03  0.12501064755E+03 0.  0.
    9000005    1    3    3    0    0  0.49549415447E+01 -0.51801328446E+02 -0.20181185442E+03  0.20841533931E+03  0.10000000000E+01 0.  0.
    9000005    1    3    3    0    0 -0.49549415447E+01  0.51801328446E+02 -0.71320211583E+03  0.71509872542E+03  0.10000000000E+01 0.  0.
<mgrwt>
<rscale>  0 0.12501065E+03</rscale>
<asrwt>0</asrwt>
<pdfrwt beam="1">  1        4 0.65385415E-03 0.12501065E+03</pdfrwt>
<pdfrwt beam="2">  1       -4 0.14142508E+00 0.12501065E+03</pdfrwt>
<totfact> 0.33267677E+03</totfact>
</mgrwt>
</event>
<event>
 5    1  0.3217527E-002  0.1249999E+03  0.7818608E-02  0.1235069E+00
          4   -1    0    0  501    0  0.00000000000E+00  0.00000000000E+00  0.51565491320E+02  0.51581128284E+02  0.12700000000E+01 0.  1.
         -4   -1    0    0    0  501 -0.00000000000E+00 -0.00000000000E+00 -0.75720608212E+02  0.75731257800E+02  0.12700000000E+01 0.  1.
         25    2    1    2    0    0  0.00000000000E+00  0.00000000000E+00 -0.24155116893E+02  0.12731238608E+03  0.12499989591E+03 0.  0.
    9000005    1    3    3    0    0  0.25664980626E+02 -0.50327689467E+02  0.15131375937E+02  0.58493812454E+02  0.10000000000E+01 0.  0.
    9000005    1    3    3    0    0 -0.25664980626E+02  0.50327689467E+02 -0.39286492830E+02  0.68818573630E+02  0.10000000000E+01 0.  0.
<mgrwt>
<rscale>  0 0.12499990E+03</rscale>
<asrwt>0</asrwt>
<pdfrwt beam="1">  1        4 0.79351746E-02 0.12499990E+03</pdfrwt>
<pdfrwt beam="2">  1       -4 0.11651346E-01 0.12499990E+03</pdfrwt>
<totfact> 0.10402390E+04</totfact>
</mgrwt>
</event>
<event>
 5    1  0.3217527E-002  0.1249771E+03  0.7818608E-02  0.1235105E+00
          4   -1    0    0  501    0  0.00000000000E+00  0.00000000000E+00  0.49556329263E+02  0.49572599993E+02  0.12700000000E+01 0.  1.
         -4   -1    0    0    0  501 -0.00000000000E+00 -0.00000000000E+00 -0.78761265389E+02  0.78771503894E+02  0.12700000000E+01 0.  1.
         25    2    1    2    0    0  0.00000000000E+00  0.00000000000E+00 -0.29204936126E+02  0.12834410389E+03  0.12497712074E+03 0.  0.
    9000005    1    3    3    0    0 -0.71874811492E+01  0.60762857143E+02 -0.27593796138E+02  0.67128252463E+02  0.10000000000E+01 0.  0.
    9000005    1    3    3    0    0  0.71874811492E+01 -0.60762857143E+02 -0.16111399875E+01  0.61215851424E+02  0.10000000000E+01 0.  0.
<mgrwt>
<rscale>  0 0.12497712E+03</rscale>
<asrwt>0</asrwt>
<pdfrwt beam="1">  1        4 0.76260899E-02 0.12497712E+03</pdfrwt>
<pdfrwt beam="2">  1       -4 0.12119157E-01 0.12497712E+03</pdfrwt>
<totfact> 0.10385426E+04</totfact>
</mgrwt>
</event>
<event>
 5    1  0.3217527E-002  0.1249984E+03  0.7818608E-02  0.1235072E+00
          4   -1    0    0  501    0  0.00000000000E+00  0.00000000000E+00  0.29005388646E+03  0.29005666680E+03  0.12700000000E+01 0. -1.
         -4   -1    0    0    0  501 -0.00000000000E+00 -0.00000000000E+00 -0.13434181665E+02  0.13494077849E+02  0.12700000000E+01 0. -1.
         25    2    1    2    0    0  0.00000000000E+00  0.00000000000E+00  0.27661970480E+03  0.30355074465E+03  0.12499837396E+03 0.  0.
    9000005    1    3    3    0    0  0.19671950750E+02  0.59288141719E+02  0.13404866888E+03  0.14789224126E+03  0.10000000000E+01 0.  0.
    9000005    1    3    3    0    0 -0.19671950750E+02 -0.59288141719E+02  0.14257103592E+03  0.15565850339E+03  0.10000000000E+01 0.  0.
<mgrwt>
<rscale>  0 0.12499837E+03</rscale>
<asrwt>0</asrwt>
<pdfrwt beam="1">  1        4 0.44628492E-01 0.12499837E+03</pdfrwt>
<pdfrwt beam="2">  1       -4 0.20716186E-02 0.12499837E+03</pdfrwt>
<totfact> 0.75158301E+03</totfact>
</mgrwt>
</event>
<event>
 5    1  0.3217527E-002  0.1249780E+03  0.7818608E-02  0.1235104E+00
          4   -1    0    0  501    0  0.00000000000E+00  0.00000000000E+00  0.19496996847E+04  0.19497000983E+04  0.12700000000E+01 0. -1.
         -4   -1    0    0    0  501 -0.00000000000E+00 -0.00000000000E+00 -0.18010233444E+01  0.22037661144E+01  0.12700000000E+01 0. -1.
         25    2    1    2    0    0  0.00000000000E+00  0.00000000000E+00  0.19478986614E+04  0.19519038645E+04  0.12497800252E+03 0.  0.
    9000005    1    3    3    0    0 -0.45265718695E+02  0.29089969906E+02  0.14699680054E+04  0.14709528030E+04  0.10000000000E+01 0.  0.
    9000005    1    3    3    0    0  0.45265718695E+02 -0.29089969906E+02  0.47793065596E+03  0.48095106148E+03  0.10000000000E+01 0.  0.
<mgrwt>
<rscale>  0 0.12497800E+03</rscale>
<asrwt>0</asrwt>
<pdfrwt beam="1">  1        4 0.29998459E+00 0.12497800E+03</pdfrwt>
<pdfrwt beam="2">  1       -4 0.30809277E-03 0.12497800E+03</pdfrwt>
<totfact> 0.10507236E+03</totfact>
</mgrwt>
</event>
<event>
 5    1  0.3217527E-002  0.1249971E+03  0.7818608E-02  0.1235074E+00
         -4   -1    0    0    0  501 -0.00000000000E+00  0.00000000000E+00  0.13329948674E+03  0.13330553652E+03  0.12700000000E+01 0.  1.
          4   -1    0    0  501    0  0.00000000000E+00 -0.00000000000E+00 -0.29282459739E+02  0.29309987178E+02  0.12700000000E+01 0.  1.
         25    2    1    2    0    0  0.00000000000E+00  0.00000000000E+00  0.10401702701E+03  0.16261552370E+03  0.12499706652E+03 0.  0.
    9000005    1    3    3    0    0  0.48912199903E+02 -0.35546643614E+02  0.72541333454E+02  0.94441581048E+02  0.10000000000E+01 0.  0.
    9000005    1    3    3    0    0 -0.48912199903E+02  0.35546643614E+02  0.31475693552E+02  0.68173942648E+02  0.10000000000E+01 0.  0.
<mgrwt>
<rscale>  0 0.12499707E+03</rscale>
<asrwt>0</asrwt>
<pdfrwt beam="2">  1        4 0.45075767E-02 0.12499707E+03</pdfrwt>
<pdfrwt beam="1">  1       -4 0.20510196E-01 0.12499707E+03</pdfrwt>
<totfact> 0.96847273E+03</totfact>
</mgrwt>
</event>
<event>
 5    1  0.3217527E-002  0.1249997E+03  0.7818608E-02  0.1235070E+00
         -4   -1    0    0    0  501 -0.00000000000E+00  0.00000000000E+00  0.73051025046E+02  0.73062063756E+02  0.12700000000E+01 0. -1.
          4   -1    0    0  501    0  0.00000000000E+00 -0.00000000000E+00 -0.53450034972E+02  0.53465120766E+02  0.12700000000E+01 0. -1.
         25    2    1    2    0    0  0.00000000000E+00  0.00000000000E+00  0.19600990074E+02  0.12652718452E+03  0.12499971844E+03 0.  0.
    9000005    1    3    3    0    0  0.23348725247E+02  0.24291806987E+02  0.63074203989E+02  0.71516502055E+02  0.10000000000E+01 0.  0.
    9000005    1    3    3    0    0 -0.23348725247E+02 -0.24291806987E+02 -0.43473213915E+02  0.55010682467E+02  0.10000000000E+01 0.  0.
<mgrwt>
<rscale>  0 0.12499972E+03</rscale>
<asrwt>0</asrwt>
<pdfrwt beam="2">  1        4 0.82250919E-02 0.12499972E+03</pdfrwt>
<pdfrwt beam="1">  1       -4 0.11240629E-01 0.12499972E+03</pdfrwt>
<totfact> 0.10419502E+04</totfact>
</mgrwt>
</event>
<event>
 5    1  0.3217527E-002  0.1250019E+03  0.7818608E-02  0.1235066E+00
          4   -1    0    0  501    0  0.00000000000E+00  0.00000000000E+00  0.92692215002E+02  0.92700914893E+02  0.12700000000E+01 0.  1.
         -4   -1    0    0    0  501 -0.00000000000E+00 -0.00000000000E+00 -0.42123193398E+02  0.42142334084E+02  0.12700000000E+01 0.  1.
         25    2    1    2    0    0  0.00000000000E+00  0.00000000000E+00  0.50569021605E+02  0.13484324898E+03  0.12500190338E+03 0.  0.
    9000005    1    3    3    0    0  0.22790752029E+02 -0.55836443969E+02  0.76169717674E+01  0.60795930062E+02  0.10000000000E+01 0.  0.
    9000005    1    3    3    0    0 -0.22790752029E+02  0.55836443969E+02  0.42952049837E+02  0.74047318915E+02  0.10000000000E+01 0.  0.
<mgrwt>
<rscale>  0 0.12500190E+03</rscale>
<asrwt>0</asrwt>
<pdfrwt beam="1">  1        4 0.14262482E-01 0.12500190E+03</pdfrwt>
<pdfrwt beam="2">  1       -4 0.64826329E-02 0.12500190E+03</pdfrwt>
<totfact> 0.10240936E+04</totfact>
</mgrwt>
</event>
<event>
 5    1  0.3217527E-002  0.1250005E+03  0.7818608E-02  0.1235069E+00
          4   -1    0    0  501    0  0.00000000000E+00  0.00000000000E+00  0.18262339883E+03  0.18262781469E+03  0.12700000000E+01 0. -1.
         -4   -1    0    0    0  501 -0.00000000000E+00 -0.00000000000E+00 -0.21366282781E+02  0.21403993550E+02  0.12700000000E+01 0. -1.
         25    2    1    2    0    0  0.00000000000E+00  0.00000000000E+00  0.16125711605E+03  0.20403180824E+03  0.12500048520E+03 0.  0.
    9000005    1    3    3    0    0 -0.51449121252E+02 -0.19372915742E+02  0.32126932196E+02  0.63682507129E+02  0.10000000000E+01 0.  0.
    9000005    1    3    3    0    0  0.51449121252E+02  0.19372915742E+02  0.12913018385E+03  0.14034930112E+03  0.10000000000E+01 0.  0.
<mgrwt>
<rscale>  0 0.12500049E+03</rscale>
<asrwt>0</asrwt>
<pdfrwt beam="1">  1        4 0.28099147E-01 0.12500049E+03</pdfrwt>
<pdfrwt beam="2">  1       -4 0.32903611E-02 0.12500049E+03</pdfrwt>
<totfact> 0.89458965E+03</totfact>
</mgrwt>
</event>
<event>
 5    1  0.3217527E-002  0.1250015E+03  0.7818608E-02  0.1235067E+00
          4   -1    0    0  501    0  0.00000000000E+00  0.00000000000E+00  0.58373818158E+03  0.58373956311E+03  0.12700000000E+01 0. -1.
         -4   -1    0    0    0  501 -0.00000000000E+00 -0.00000000000E+00 -0.66302824761E+01  0.67508181514E+01  0.12700000000E+01 0. -1.
         25    2    1    2    0    0  0.00000000000E+00  0.00000000000E+00  0.57710789911E+03  0.59049038126E+03  0.12500145259E+03 0.  0.
    9000005    1    3    3    0    0  0.18051233963E+02  0.18397090587E+02  0.55748442321E+03  0.55808080249E+03  0.10000000000E+01 0.  0.
    9000005    1    3    3    0    0 -0.18051233963E+02 -0.18397090587E+02  0.19623475902E+02  0.32409578771E+02  0.10000000000E+01 0.  0.
<mgrwt>
<rscale>  0 0.12500145E+03</rscale>
<asrwt>0</asrwt>
<pdfrwt beam="1">  1        4 0.89815261E-01 0.12500145E+03</pdfrwt>
<pdfrwt beam="2">  1       -4 0.10294216E-02 0.12500145E+03</pdfrwt>
<totfact> 0.49471860E+03</totfact>
</mgrwt>
</event>
<event>
 5    1  0.3217527E-002  0.1249997E+03  0.7818608E-02  0.1235070E+00
          4   -1    0    0  501    0  0.00000000000E+00  0.00000000000E+00  0.63037075796E+01  0.64303677382E+01  0.12700000000E+01 0. -1.
         -4   -1    0    0    0  501 -0.00000000000E+00 -0.00000000000E+00 -0.61338106543E+03  0.61338238019E+03  0.12700000000E+01 0. -1.
         25    2    1    2    0    0  0.00000000000E+00  0.00000000000E+00 -0.60707735785E+03  0.61981274793E+03  0.12499969632E+03 0.  0.
    9000005    1    3    3    0    0 -0.48346046422E+02  0.38748518063E+02 -0.34395685363E+03  0.34949407007E+03  0.10000000000E+01 0.  0.
    9000005    1    3    3    0    0  0.48346046422E+02 -0.38748518063E+02 -0.26312050422E+03  0.27031867786E+03  0.10000000000E+01 0.  0.
<mgrwt>
<rscale>  0 0.12499970E+03</rscale>
<asrwt>0</asrwt>
<pdfrwt beam="1">  1        4 0.97964587E-03 0.12499970E+03</pdfrwt>
<pdfrwt beam="2">  1       -4 0.94376115E-01 0.12499970E+03</pdfrwt>
<totfact> 0.47640723E+03</totfact>
</mgrwt>
</event>
<event>
 5    1  0.3217527E-002  0.1249974E+03  0.7818608E-02  0.1235073E+00
          4   -1    0    0  501    0  0.00000000000E+00  0.00000000000E+00  0.46296017572E+02  0.46313433721E+02  0.12700000000E+01 0.  1.
         -4   -1    0    0    0  501 -0.00000000000E+00 -0.00000000000E+00 -0.84333960826E+02  0.84343522861E+02  0.12700000000E+01 0.  1.
         25    2    1    2    0    0  0.00000000000E+00  0.00000000000E+00 -0.38037943254E+02  0.13065695658E+03  0.12499742068E+03 0.  0.
    9000005    1    3    3    0    0 -0.58805741973E+02  0.30873889445E+01 -0.40881052406E+02  0.71693149640E+02  0.10000000000E+01 0.  0.
    9000005    1    3    3    0    0  0.58805741973E+02 -0.30873889445E+01  0.28431091526E+01  0.58963806942E+02  0.10000000000E+01 0.  0.
<mgrwt>
<rscale>  0 0.12499742E+03</rscale>
<asrwt>0</asrwt>
<pdfrwt beam="1">  1        4 0.71245395E-02 0.12499742E+03</pdfrwt>
<pdfrwt beam="2">  1       -4 0.12976531E-01 0.12499742E+03</pdfrwt>
<totfact> 0.10331050E+04</totfact>
</mgrwt>
</event>
<event>
 5    1  0.3217527E-002  0.1250034E+03  0.7818608E-02  0.1235064E+00
         -4   -1    0    0    0  501 -0.00000000000E+00  0.00000000000E+00  0.39675554659E+03  0.39675757920E+03  0.12700000000E+01 0. -1.
          4   -1    0    0  501    0  0.00000000000E+00 -0.00000000000E+00 -0.98029938180E+01  0.98849171871E+01  0.12700000000E+01 0. -1.
         25    2    1    2    0    0  0.00000000000E+00  0.00000000000E+00  0.38695255277E+03  0.40664249639E+03  0.12500336703E+03 0.  0.
    9000005    1    3    3    0    0 -0.12915448592E+02 -0.12346001088E+02  0.38828571437E+03  0.38869786279E+03  0.10000000000E+01 0.  0.
    9000005    1    3    3    0    0  0.12915448592E+02  0.12346001088E+02 -0.13331615905E+01  0.17944633599E+02  0.10000000000E+01 0.  0.
<mgrwt>
<rscale>  0 0.12500337E+03</rscale>
<asrwt>0</asrwt>
<pdfrwt beam="2">  1        4 0.15146113E-02 0.12500337E+03</pdfrwt>
<pdfrwt beam="1">  1       -4 0.61045763E-01 0.12500337E+03</pdfrwt>
<totfact> 0.63907090E+03</totfact>
</mgrwt>
</event>
<event>
 5    1  0.3217527E-002  0.1250018E+03  0.7818608E-02  0.1235066E+00
          4   -1    0    0  501    0  0.00000000000E+00  0.00000000000E+00  0.14059377503E+03  0.14059951094E+03  0.12700000000E+01 0. -1.
         -4   -1    0    0    0  501 -0.00000000000E+00 -0.00000000000E+00 -0.27763943112E+02  0.27792974601E+02  0.12700000000E+01 0. -1.
         25    2    1    2    0    0  0.00000000000E+00  0.00000000000E+00  0.11282983192E+03  0.16839248554E+03  0.12500183285E+03 0.  0.
    9000005    1    3    3    0    0 -0.42521213359E+02 -0.23858299798E+02  0.10907495156E+03  0.11948061397E+03  0.10000000000E+01 0.  0.
    9000005    1    3    3    0    0  0.42521213359E+02  0.23858299798E+02  0.37548803545E+01  0.48911871578E+02  0.10000000000E+01 0.  0.
<mgrwt>
<rscale>  0 0.12500183E+03</rscale>
<asrwt>0</asrwt>
<pdfrwt beam="1">  1        4 0.21632486E-01 0.12500183E+03</pdfrwt>
<pdfrwt beam="2">  1       -4 0.42740502E-02 0.12500183E+03</pdfrwt>
<totfact> 0.95744798E+03</totfact>
</mgrwt>
</event>
<event>
 5    1  0.3217527E-002  0.1249786E+03  0.7818608E-02  0.1235103E+00
         -4   -1    0    0    0  501 -0.00000000000E+00  0.00000000000E+00  0.92205484171E+01  0.93075997503E+01  0.12700000000E+01 0.  1.
          4   -1    0    0  501    0  0.00000000000E+00 -0.00000000000E+00 -0.42142321375E+03  0.42142512738E+03  0.12700000000E+01 0.  1.
         25    2    1    2    0    0  0.00000000000E+00  0.00000000000E+00 -0.41220266534E+03  0.43073272713E+03  0.12497857782E+03 0.  0.
    9000005    1    3    3    0    0 -0.43044575714E+02 -0.16581258098E+02 -0.60853186628E+02  0.76366772495E+02  0.10000000000E+01 0.  0.
    9000005    1    3    3    0    0  0.43044575714E+02  0.16581258098E+02 -0.35134947871E+03  0.35436595464E+03  0.10000000000E+01 0.  0.
<mgrwt>
<rscale>  0 0.12497858E+03</rscale>
<asrwt>0</asrwt>
<pdfrwt beam="2">  1        4 0.64841169E-01 0.12497858E+03</pdfrwt>
<pdfrwt beam="1">  1       -4 0.14253897E-02 0.12497858E+03</pdfrwt>
<totfact> 0.61698773E+03</totfact>
</mgrwt>
</event>
<event>
 5    1  0.3217527E-002  0.1250331E+03  0.7818608E-02  0.1235018E+00
          4   -1    0    0  501    0  0.00000000000E+00  0.00000000000E+00  0.18361543077E+02  0.18405411274E+02  0.12700000000E+01 0.  1.
         -4   -1    0    0    0  501 -0.00000000000E+00 -0.00000000000E+00 -0.21255367536E+03  0.21255746942E+03  0.12700000000E+01 0.  1.
         25    2    1    2    0    0  0.00000000000E+00  0.00000000000E+00 -0.19419213228E+03  0.23096288070E+03  0.12503306771E+03 0.  0.
    9000005    1    3    3    0    0  0.23984101896E+02  0.53444731868E+02 -0.13738653876E+03  0.14935741542E+03  0.10000000000E+01 0.  0.
    9000005    1    3    3    0    0 -0.23984101896E+02 -0.53444731868E+02 -0.56805593517E+02  0.81605465277E+02  0.10000000000E+01 0.  0.
<mgrwt>
<rscale>  0 0.12503307E+03</rscale>
<asrwt>0</asrwt>
<pdfrwt beam="1">  1        4 0.28285193E-02 0.12503307E+03</pdfrwt>
<pdfrwt beam="2">  1       -4 0.32704230E-01 0.12503307E+03</pdfrwt>
<totfact> 0.85099169E+03</totfact>
</mgrwt>
</event>
<event>
 5    1  0.3217527E-002  0.1249972E+03  0.7818608E-02  0.1235074E+00
          4   -1    0    0  501    0  0.00000000000E+00  0.00000000000E+00  0.91045333121E+02  0.91054190366E+02  0.12700000000E+01 0. -1.
         -4   -1    0    0    0  501 -0.00000000000E+00 -0.00000000000E+00 -0.42882212516E+02  0.42901014559E+02  0.12700000000E+01 0. -1.
         25    2    1    2    0    0  0.00000000000E+00  0.00000000000E+00  0.48163120606E+02  0.13395520493E+03  0.12499724293E+03 0.  0.
    9000005    1    3    3    0    0  0.38047319876E+02 -0.75729973774E+01 -0.28420511006E+02  0.48100668237E+02  0.10000000000E+01 0.  0.
    9000005    1    3    3    0    0 -0.38047319876E+02  0.75729973774E+01  0.76583631612E+02  0.85854536688E+02  0.10000000000E+01 0.  0.
<mgrwt>
<rscale>  0 0.12499724E+03</rscale>
<asrwt>0</asrwt>
<pdfrwt beam="1">  1        4 0.14009102E-01 0.12499724E+03</pdfrwt>
<pdfrwt beam="2">  1       -4 0.65993912E-02 0.12499724E+03</pdfrwt>
<totfact> 0.10260778E+04</totfact>
</mgrwt>
</event>
<event>
 5    1  0.3217527E-002  0.1250006E+03  0.7818608E-02  0.1235068E+00
          4   -1    0    0  501    0  0.00000000000E+00  0.00000000000E+00  0.28011608639E+02  0.28040383709E+02  0.12700000000E+01 0.  1.
         -4   -1    0    0    0  501 -0.00000000000E+00 -0.00000000000E+00 -0.13934921862E+03  0.13935500576E+03  0.12700000000E+01 0.  1.
         25    2    1    2    0    0  0.00000000000E+00  0.00000000000E+00 -0.11133760998E+03  0.16739538947E+03  0.12500061208E+03 0.  0.
    9000005    1    3    3    0    0 -0.30920938634E+02 -0.23316331274E+02 -0.12134938321E+03  0.12738299947E+03  0.10000000000E+01 0.  0.
    9000005    1    3    3    0    0  0.30920938634E+02  0.23316331274E+02  0.10011773225E+02  0.40012389996E+02  0.10000000000E+01 0.  0.
<mgrwt>
<rscale>  0 0.12500061E+03</rscale>
<asrwt>0</asrwt>
<pdfrwt beam="1">  1        4 0.43121370E-02 0.12500061E+03</pdfrwt>
<pdfrwt beam="2">  1       -4 0.21441000E-01 0.12500061E+03</pdfrwt>
<totfact> 0.95934339E+03</totfact>
</mgrwt>
</event>
<event>
 5    1  0.3217527E-002  0.1249980E+03  0.7818608E-02  0.1235072E+00
          4   -1    0    0  501    0  0.00000000000E+00  0.00000000000E+00  0.30804712239E+03  0.30804974033E+03  0.12700000000E+01 0.  1.
         -4   -1    0    0    0  501 -0.00000000000E+00 -0.00000000000E+00 -0.12645815080E+02  0.12709427172E+02  0.12700000000E+01 0.  1.
         25    2    1    2    0    0  0.00000000000E+00  0.00000000000E+00  0.29540130731E+03  0.32075916750E+03  0.12499804467E+03 0.  0.
    9000005    1    3    3    0    0  0.47177697267E+02 -0.31834809674E+02  0.21392117805E+03  0.22136499417E+03  0.10000000000E+01 0.  0.
    9000005    1    3    3    0    0 -0.47177697267E+02  0.31834809674E+02  0.81480129266E+02  0.99394173328E+02  0.10000000000E+01 0.  0.
<mgrwt>
<rscale>  0 0.12499804E+03</rscale>
<asrwt>0</asrwt>
<pdfrwt beam="1">  1        4 0.47396962E-01 0.12499804E+03</pdfrwt>
<pdfrwt beam="2">  1       -4 0.19506046E-02 0.12499804E+03</pdfrwt>
<totfact> 0.73069087E+03</totfact>
</mgrwt>
</event>
<event>
 5    1  0.3217527E-002  0.1249977E+03  0.7818608E-02  0.1235073E+00
          4   -1    0    0  501    0  0.00000000000E+00  0.00000000000E+00  0.48320946266E+02  0.48337632834E+02  0.12700000000E+01 0. -1.
         -4   -1    0    0    0  501 -0.00000000000E+00 -0.00000000000E+00 -0.80801101696E+02  0.80811081761E+02  0.12700000000E+01 0. -1.
         25    2    1    2    0    0  0.00000000000E+00  0.00000000000E+00 -0.32480155431E+02  0.12914871459E+03  0.12499771992E+03 0.  0.
    9000005    1    3    3    0    0  0.19903956202E+02 -0.56788870041E+02  0.11707669434E+01  0.60195630475E+02  0.10000000000E+01 0.  0.
    9000005    1    3    3    0    0 -0.19903956202E+02  0.56788870041E+02 -0.33650922374E+02  0.68953084120E+02  0.10000000000E+01 0.  0.
<mgrwt>
<rscale>  0 0.12499772E+03</rscale>
<asrwt>0</asrwt>
<pdfrwt beam="1">  1        4 0.74360430E-02 0.12499772E+03</pdfrwt>
<pdfrwt beam="2">  1       -4 0.12432990E-01 0.12499772E+03</pdfrwt>
<totfact> 0.10363286E+04</totfact>
</mgrwt>
</event>
<event>
 5    1  0.3217527E-002  0.1250079E+03  0.7818608E-02  0.1235057E+00
          4   -1    0    0  501    0  0.00000000000E+00  0.00000000000E+00  0.20863097282E+02  0.20901715915E+02  0.12700000000E+01 0. -1.
         -4   -1    0    0    0  501 -0.00000000000E+00 -0.00000000000E+00 -0.18704230371E+03  0.18704661525E+03  0.12700000000E+01 0. -1.
         25    2    1    2    0    0  0.00000000000E+00  0.00000000000E+00 -0.16617920643E+03  0.20794833117E+03  0.12500791889E+03 0.  0.
    9000005    1    3    3    0    0  0.69948738250E+00 -0.54522845961E+02 -0.32291697035E+02  0.63379679012E+02  0.10000000000E+01 0.  0.
    9000005    1    3    3    0    0 -0.69948738250E+00  0.54522845961E+02 -0.13388750940E+03  0.14456865216E+03  0.10000000000E+01 0.  0.
<mgrwt>
<rscale>  0 0.12500792E+03</rscale>
<asrwt>0</asrwt>
<pdfrwt beam="1">  1        4 0.32130097E-02 0.12500792E+03</pdfrwt>
<pdfrwt beam="2">  1       -4 0.28779040E-01 0.12500792E+03</pdfrwt>
<totfact> 0.88796321E+03</totfact>
</mgrwt>
</event>
<event>
 5    1  0.3217527E-002  0.1249993E+03  0.7818608E-02  0.1235070E+00
          4   -1    0    0  501    0  0.00000000000E+00  0.00000000000E+00  0.72348548746E+02  0.72359694621E+02  0.12700000000E+01 0. -1.
         -4   -1    0    0    0  501 -0.00000000000E+00 -0.00000000000E+00 -0.53968677827E+02  0.53983618686E+02  0.12700000000E+01 0. -1.
         25    2    1    2    0    0  0.00000000000E+00  0.00000000000E+00  0.18379870918E+02  0.12634331331E+03  0.12499925265E+03 0.  0.
    9000005    1    3    3    0    0  0.42737787546E+02  0.44928812201E+02  0.13550291605E+01  0.62031868859E+02  0.10000000000E+01 0.  0.
    9000005    1    3    3    0    0 -0.42737787546E+02 -0.44928812201E+02  0.17024841758E+02  0.64311444448E+02  0.10000000000E+01 0.  0.
<mgrwt>
<rscale>  0 0.12499925E+03</rscale>
<asrwt>0</asrwt>
<pdfrwt beam="1">  1        4 0.11132553E-01 0.12499925E+03</pdfrwt>
<pdfrwt beam="2">  1       -4 0.83048802E-02 0.12499925E+03</pdfrwt>
<totfact> 0.10423623E+04</totfact>
</mgrwt>
</event>
<event>
 5    1  0.3217527E-002  0.1249999E+03  0.7818608E-02  0.1235069E+00
          4   -1    0    0  501    0  0.00000000000E+00  0.00000000000E+00  0.23676495494E+02  0.23710532235E+02  0.12700000000E+01 0. -1.
         -4   -1    0    0    0  501 -0.00000000000E+00 -0.00000000000E+00 -0.16482914996E+03  0.16483404253E+03  0.12700000000E+01 0. -1.
         25    2    1    2    0    0  0.00000000000E+00  0.00000000000E+00 -0.14115265447E+03  0.18854457477E+03  0.12499993924E+03 0.  0.
    9000005    1    3    3    0    0 -0.60560822851E+01 -0.38257094979E+02 -0.14454683441E+03  0.14964982054E+03  0.10000000000E+01 0.  0.
    9000005    1    3    3    0    0  0.60560822851E+01  0.38257094979E+02  0.33941799443E+01  0.38894754227E+02  0.10000000000E+01 0.  0.
<mgrwt>
<rscale>  0 0.12499994E+03</rscale>
<asrwt>0</asrwt>
<pdfrwt beam="1">  1        4 0.36455324E-02 0.12499994E+03</pdfrwt>
<pdfrwt beam="2">  1       -4 0.25361325E-01 0.12499994E+03</pdfrwt>
<totfact> 0.92101298E+03</totfact>
</mgrwt>
</event>
<event>
 5    1  0.3217527E-002  0.1249589E+03  0.7818608E-02  0.1235133E+00
          4   -1    0    0  501    0  0.00000000000E+00  0.00000000000E+00  0.14310380223E+02  0.14366623894E+02  0.12700000000E+01 0. -1.
         -4   -1    0    0    0  501 -0.00000000000E+00 -0.00000000000E+00 -0.27219411750E+03  0.27219708026E+03  0.12700000000E+01 0. -1.
         25    2    1    2    0    0  0.00000000000E+00  0.00000000000E+00 -0.25788373728E+03  0.28656370415E+03  0.12495893160E+03 0.  0.
    9000005    1    3    3    0    0  0.82396692167E+01  0.46040862660E+02 -0.22391260345E+03  0.22874769325E+03  0.10000000000E+01 0.  0.
    9000005    1    3    3    0    0 -0.82396692167E+01 -0.46040862660E+02 -0.33971133827E+02  0.57816010904E+02  0.10000000000E+01 0.  0.
<mgrwt>
<rscale>  0 0.12495893E+03</rscale>
<asrwt>0</asrwt>
<pdfrwt beam="1">  1        4 0.22061515E-02 0.12495893E+03</pdfrwt>
<pdfrwt beam="2">  1       -4 0.41880569E-01 0.12495893E+03</pdfrwt>
<totfact> 0.77386371E+03</totfact>
</mgrwt>
</event>
<event>
 5    1  0.3217527E-002  0.1250138E+03  0.7818608E-02  0.1235048E+00
         -4   -1    0    0    0  501 -0.00000000000E+00  0.00000000000E+00  0.17350623739E+04  0.17350628387E+04  0.12700000000E+01 0.  1.
          4   -1    0    0  501    0  0.00000000000E+00 -0.00000000000E+00 -0.20722928943E+01  0.24304933326E+01  0.12700000000E+01 0.  1.
         25    2    1    2    0    0  0.00000000000E+00  0.00000000000E+00  0.17329900810E+04  0.17374933320E+04  0.12501383115E+03 0.  0.
    9000005    1    3    3    0    0 -0.20933407806E+02 -0.35211211541E+02  0.21045517672E+03  0.21440713232E+03  0.10000000000E+01 0.  0.
    9000005    1    3    3    0    0  0.20933407806E+02  0.35211211541E+02  0.15225349043E+04  0.15230861997E+04  0.10000000000E+01 0.  0.
<mgrwt>
<rscale>  0 0.12501383E+03</rscale>
<asrwt>0</asrwt>
<pdfrwt beam="2">  1        4 0.34640201E-03 0.12501383E+03</pdfrwt>
<pdfrwt beam="1">  1       -4 0.26696174E+00 0.12501383E+03</pdfrwt>
<totfact> 0.13687201E+03</totfact>
</mgrwt>
</event>
<event>
 5    1  0.3217527E-002  0.1249969E+03  0.7818608E-02  0.1235074E+00
         -4   -1    0    0    0  501 -0.00000000000E+00  0.00000000000E+00  0.35218755248E+02  0.35241646119E+02  0.12700000000E+01 0. -1.
          4   -1    0    0  501    0  0.00000000000E+00 -0.00000000000E+00 -0.11084592169E+03  0.11085319687E+03  0.12700000000E+01 0. -1.
         25    2    1    2    0    0  0.00000000000E+00  0.00000000000E+00 -0.75627166444E+02  0.14609484299E+03  0.12499693933E+03 0.  0.
    9000005    1    3    3    0    0 -0.28937923550E+02  0.46310266826E+02 -0.23044751637E+01  0.54665847096E+02  0.10000000000E+01 0.  0.
    9000005    1    3    3    0    0  0.28937923550E+02 -0.46310266826E+02 -0.73322691280E+02  0.91428995890E+02  0.10000000000E+01 0.  0.
<mgrwt>
<rscale>  0 0.12499694E+03</rscale>
<asrwt>0</asrwt>
<pdfrwt beam="2">  1        4 0.17055539E-01 0.12499694E+03</pdfrwt>
<pdfrwt beam="1">  1       -4 0.54205906E-02 0.12499694E+03</pdfrwt>
<totfact> 0.10009481E+04</totfact>
</mgrwt>
</event>
<event>
 5    1  0.3217527E-002  0.1250021E+03  0.7818608E-02  0.1235066E+00
         -4   -1    0    0    0  501 -0.00000000000E+00  0.00000000000E+00  0.81648145619E+03  0.81648244391E+03  0.12700000000E+01 0.  1.
          4   -1    0    0  501    0  0.00000000000E+00 -0.00000000000E+00 -0.46991192659E+01  0.48677121808E+01  0.12700000000E+01 0.  1.
         25    2    1    2    0    0  0.00000000000E+00  0.00000000000E+00  0.81178233693E+03  0.82135015609E+03  0.12500206541E+03 0.  0.
    9000005    1    3    3    0    0 -0.42350262543E+02 -0.52539438664E+01  0.10591688763E+03  0.11419516517E+03  0.10000000000E+01 0.  0.
    9000005    1    3    3    0    0  0.42350262543E+02  0.52539438664E+01  0.70586544930E+03  0.70715499091E+03  0.10000000000E+01 0.  0.
<mgrwt>
<rscale>  0 0.12500207E+03</rscale>
<asrwt>0</asrwt>
<pdfrwt beam="2">  1        4 0.73598573E-03 0.12500207E+03</pdfrwt>
<pdfrwt beam="1">  1       -4 0.12562564E+00 0.12500207E+03</pdfrwt>
<totfact> 0.37327487E+03</totfact>
</mgrwt>
</event>
<event>
 5    1  0.3217527E-002  0.1250004E+03  0.7818608E-02  0.1235069E+00
          4   -1    0    0  501    0  0.00000000000E+00  0.00000000000E+00  0.12616635580E+02  0.12680394054E+02  0.12700000000E+01 0. -1.
         -4   -1    0    0    0  501 -0.00000000000E+00 -0.00000000000E+00 -0.30876768428E+03  0.30877029611E+03  0.12700000000E+01 0. -1.
         25    2    1    2    0    0  0.00000000000E+00  0.00000000000E+00 -0.29615104870E+03  0.32145069016E+03  0.12500041023E+03 0.  0.
    9000005    1    3    3    0    0 -0.28628542186E+02  0.35451137688E+02 -0.25805149182E+03  0.26204570026E+03  0.10000000000E+01 0.  0.
    9000005    1    3    3    0    0  0.28628542186E+02 -0.35451137688E+02 -0.38099556881E+02  0.59404989905E+02  0.10000000000E+01 0.  0.
<mgrwt>
<rscale>  0 0.12500041E+03</rscale>
<asrwt>0</asrwt>
<pdfrwt beam="1">  1        4 0.19461265E-02 0.12500041E+03</pdfrwt>
<pdfrwt beam="2">  1       -4 0.47507820E-01 0.12500041E+03</pdfrwt>
<totfact> 0.72983255E+03</totfact>
</mgrwt>
</event>
<event>
 5    1  0.3217527E-002  0.1249678E+03  0.7818608E-02  0.1235120E+00
          4   -1    0    0  501    0  0.00000000000E+00  0.00000000000E+00  0.80578073933E+02  0.80588081617E+02  0.12700000000E+01 0.  1.
         -4   -1    0    0    0  501 -0.00000000000E+00 -0.00000000000E+00 -0.48431550852E+02  0.48448199326E+02  0.12700000000E+01 0.  1.
         25    2    1    2    0    0  0.00000000000E+00  0.00000000000E+00  0.32146523081E+02  0.12903628094E+03  0.12496784728E+03 0.  0.
    9000005    1    3    3    0    0  0.22485935689E+02 -0.85488030534E+01 -0.43462706558E+02  0.49686076508E+02  0.10000000000E+01 0.  0.
    9000005    1    3    3    0    0 -0.22485935689E+02  0.85488030534E+01  0.75609229638E+02  0.79350204435E+02  0.10000000000E+01 0.  0.
<mgrwt>
<rscale>  0 0.12496785E+03</rscale>
<asrwt>0</asrwt>
<pdfrwt beam="1">  1        4 0.12398677E-01 0.12496785E+03</pdfrwt>
<pdfrwt beam="2">  1       -4 0.74530584E-02 0.12496785E+03</pdfrwt>
<totfact> 0.10372694E+04</totfact>
</mgrwt>
</event>
<event>
 5    1  0.3217527E-002  0.1250036E+03  0.7818608E-02  0.1235064E+00
         -4   -1    0    0    0  501 -0.00000000000E+00  0.00000000000E+00  0.31542170558E+02  0.31567727563E+02  0.12700000000E+01 0.  1.
          4   -1    0    0  501    0  0.00000000000E+00 -0.00000000000E+00 -0.12377040218E+03  0.12377691770E+03  0.12700000000E+01 0.  1.
         25    2    1    2    0    0  0.00000000000E+00  0.00000000000E+00 -0.92228231620E+02  0.15534464526E+03  0.12500364836E+03 0.  0.
    9000005    1    3    3    0    0  0.36940028938E+02 -0.35054739173E+02 -0.10995203630E+01  0.50947123780E+02  0.10000000000E+01 0.  0.
    9000005    1    3    3    0    0 -0.36940028938E+02  0.35054739173E+02 -0.91128711257E+02  0.10439752148E+03  0.10000000000E+01 0.  0.
<mgrwt>
<rscale>  0 0.12500365E+03</rscale>
<asrwt>0</asrwt>
<pdfrwt beam="2">  1        4 0.19044067E-01 0.12500365E+03</pdfrwt>
<pdfrwt beam="1">  1       -4 0.48551088E-02 0.12500365E+03</pdfrwt>
<totfact> 0.98239823E+03</totfact>
</mgrwt>
</event>
<event>
 5    1  0.3217527E-002  0.1250010E+03  0.7818608E-02  0.1235068E+00
         -4   -1    0    0    0  501 -0.00000000000E+00  0.00000000000E+00  0.33001100995E+02  0.33025529017E+02  0.12700000000E+01 0.  1.
          4   -1    0    0  501    0  0.00000000000E+00 -0.00000000000E+00 -0.11829755740E+03  0.11830437434E+03  0.12700000000E+01 0.  1.
         25    2    1    2    0    0  0.00000000000E+00  0.00000000000E+00 -0.85296456410E+02  0.15132990336E+03  0.12500101669E+03 0.  0.
    9000005    1    3    3    0    0 -0.17959827085E+02 -0.58030797197E+02 -0.24889292480E+02  0.65655203087E+02  0.10000000000E+01 0.  0.
    9000005    1    3    3    0    0  0.17959827085E+02  0.58030797197E+02 -0.60407163930E+02  0.85674700270E+02  0.10000000000E+01 0.  0.
<mgrwt>
<rscale>  0 0.12500102E+03</rscale>
<asrwt>0</asrwt>
<pdfrwt beam="2">  1        4 0.18202027E-01 0.12500102E+03</pdfrwt>
<pdfrwt beam="1">  1       -4 0.50794960E-02 0.12500102E+03</pdfrwt>
<totfact> 0.99036994E+03</totfact>
</mgrwt>
</event>
<event>
 5    1  0.3217527E-002  0.1250012E+03  0.7818608E-02  0.1235067E+00
         -4   -1    0    0    0  501 -0.00000000000E+00  0.00000000000E+00  0.17002906413E+03  0.17003380707E+03  0.12700000000E+01 0.  1.
          4   -1    0    0  501    0  0.00000000000E+00 -0.00000000000E+00 -0.22951847763E+02  0.22986957514E+02  0.12700000000E+01 0.  1.
         25    2    1    2    0    0  0.00000000000E+00  0.00000000000E+00  0.14707721636E+03  0.19302076459E+03  0.12500123195E+03 0.  0.
    9000005    1    3    3    0    0  0.36551718940E+02  0.29671551246E+02  0.13699734668E+03  0.14486442665E+03  0.10000000000E+01 0.  0.
    9000005    1    3    3    0    0 -0.36551718940E+02 -0.29671551246E+02  0.10079869682E+02  0.48156337938E+02  0.10000000000E+01 0.  0.
<mgrwt>
<rscale>  0 0.12500123E+03</rscale>
<asrwt>0</asrwt>
<pdfrwt beam="2">  1        4 0.35341192E-02 0.12500123E+03</pdfrwt>
<pdfrwt beam="1">  1       -4 0.26161383E-01 0.12500123E+03</pdfrwt>
<totfact> 0.91321833E+03</totfact>
</mgrwt>
</event>
<event>
 5    1  0.3217527E-002  0.1250038E+03  0.7818608E-02  0.1235063E+00
          4   -1    0    0  501    0  0.00000000000E+00  0.00000000000E+00  0.39934235185E+02  0.39954424534E+02  0.12700000000E+01 0. -1.
         -4   -1    0    0    0  501 -0.00000000000E+00 -0.00000000000E+00 -0.97773957348E+02  0.97782205107E+02  0.12700000000E+01 0. -1.
         25    2    1    2    0    0  0.00000000000E+00  0.00000000000E+00 -0.57839722163E+02  0.13773662964E+03  0.12500378268E+03 0.  0.
    9000005    1    3    3    0    0  0.28840384662E+02 -0.41203968478E+02  0.11952326024E+02  0.51704863438E+02  0.10000000000E+01 0.  0.
    9000005    1    3    3    0    0 -0.28840384662E+02  0.41203968478E+02 -0.69792048187E+02  0.86031766202E+02  0.10000000000E+01 0.  0.
<mgrwt>
<rscale>  0 0.12500378E+03</rscale>
<asrwt>0</asrwt>
<pdfrwt beam="1">  1        4 0.61459160E-02 0.12500378E+03</pdfrwt>
<pdfrwt beam="2">  1       -4 0.15044335E-01 0.12500378E+03</pdfrwt>
<totfact> 0.10179838E+04</totfact>
</mgrwt>
</event>
<event>
 5    1  0.3217527E-002  0.1249914E+03  0.7818608E-02  0.1235083E+00
          4   -1    0    0  501    0  0.00000000000E+00  0.00000000000E+00  0.53614011675E+02  0.53629051343E+02  0.12700000000E+01 0.  1.
         -4   -1    0    0    0  501 -0.00000000000E+00 -0.00000000000E+00 -0.72817912661E+02  0.72828986704E+02  0.12700000000E+01 0.  1.
         25    2    1    2    0    0  0.00000000000E+00  0.00000000000E+00 -0.19203900986E+02  0.12645803805E+03  0.12499138200E+03 0.  0.
    9000005    1    3    3    0    0 -0.18627361714E+02  0.45299408912E+02 -0.48860573906E+02  0.69190828399E+02  0.10000000000E+01 0.  0.
    9000005    1    3    3    0    0  0.18627361714E+02 -0.45299408912E+02  0.29656672920E+02  0.57267209648E+02  0.10000000000E+01 0.  0.
<mgrwt>
<rscale>  0 0.12499138E+03</rscale>
<asrwt>0</asrwt>
<pdfrwt beam="1">  1        4 0.82503182E-02 0.12499138E+03</pdfrwt>
<pdfrwt beam="2">  1       -4 0.11204765E-01 0.12499138E+03</pdfrwt>
<totfact> 0.10422971E+04</totfact>
</mgrwt>
</event>
<event>
 5    1  0.3217527E-002  0.1249937E+03  0.7818608E-02  0.1235079E+00
         -4   -1    0    0    0  501 -0.00000000000E+00  0.00000000000E+00  0.39436062793E+02  0.39456507051E+02  0.12700000000E+01 0. -1.
          4   -1    0    0  501    0  0.00000000000E+00 -0.00000000000E+00 -0.98992539750E+02  0.99000685988E+02  0.12700000000E+01 0. -1.
         25    2    1    2    0    0  0.00000000000E+00  0.00000000000E+00 -0.59556476956E+02  0.13845719304E+03  0.12499368127E+03 0.  0.
    9000005    1    3    3    0    0  0.36679026795E+02 -0.50577384760E+02 -0.28452571758E+02  0.68658369450E+02  0.10000000000E+01 0.  0.
    9000005    1    3    3    0    0 -0.36679026795E+02  0.50577384760E+02 -0.31103905198E+02  0.69798823589E+02  0.10000000000E+01 0.  0.
<mgrwt>
<rscale>  0 0.12499368E+03</rscale>
<asrwt>0</asrwt>
<pdfrwt beam="2">  1        4 0.15231821E-01 0.12499368E+03</pdfrwt>
<pdfrwt beam="1">  1       -4 0.60692859E-02 0.12499368E+03</pdfrwt>
<totfact> 0.10167109E+04</totfact>
</mgrwt>
</event>
<event>
 5    1  0.3217527E-002  0.1250023E+03  0.7818608E-02  0.1235066E+00
         -4   -1    0    0    0  501 -0.00000000000E+00  0.00000000000E+00  0.23065127858E+02  0.23100065435E+02  0.12700000000E+01 0.  1.
          4   -1    0    0  501    0  0.00000000000E+00 -0.00000000000E+00 -0.16919825152E+03  0.16920301776E+03  0.12700000000E+01 0.  1.
         25    2    1    2    0    0  0.00000000000E+00  0.00000000000E+00 -0.14613312367E+03  0.19230308319E+03  0.12500234387E+03 0.  0.
    9000005    1    3    3    0    0  0.21215484832E+02  0.51329113484E+02 -0.28996910205E+02  0.62662552527E+02  0.10000000000E+01 0.  0.
    9000005    1    3    3    0    0 -0.21215484832E+02 -0.51329113484E+02 -0.11713621346E+03  0.12964053067E+03  0.10000000000E+01 0.  0.
<mgrwt>
<rscale>  0 0.12500234E+03</rscale>
<asrwt>0</asrwt>
<pdfrwt beam="2">  1        4 0.26033554E-01 0.12500234E+03</pdfrwt>
<pdfrwt beam="1">  1       -4 0.35515354E-02 0.12500234E+03</pdfrwt>
<totfact> 0.91443323E+03</totfact>
</mgrwt>
</event>
<event>
 5    1  0.3217527E-002  0.1250000E+03  0.7818608E-02  0.1235069E+00
         -4   -1    0    0    0  501 -0.00000000000E+00  0.00000000000E+00  0.16924699545E+04  0.16924704310E+04  0.12700000000E+01 0. -1.
          4   -1    0    0  501    0  0.00000000000E+00 -0.00000000000E+00 -0.21327993440E+01  0.24822838359E+01  0.12700000000E+01 0. -1.
         25    2    1    2    0    0  0.00000000000E+00  0.00000000000E+00  0.16903371552E+04  0.16949527149E+04  0.12500002962E+03 0.  0.
    9000005    1    3    3    0    0 -0.57605980061E+02  0.23035177236E+02  0.94680560437E+03  0.94883661439E+03  0.10000000000E+01 0.  0.
    9000005    1    3    3    0    0  0.57605980061E+02 -0.23035177236E+02  0.74353155081E+03  0.74611610047E+03  0.10000000000E+01 0.  0.
<mgrwt>
<rscale>  0 0.12500003E+03</rscale>
<asrwt>0</asrwt>
<pdfrwt beam="2">  1        4 0.35504200E-03 0.12500003E+03</pdfrwt>
<pdfrwt beam="1">  1       -4 0.26040769E+00 0.12500003E+03</pdfrwt>
<totfact> 0.14392206E+03</totfact>
</mgrwt>
</event>
<event>
 5    1  0.3217527E-002  0.1250028E+03  0.7818608E-02  0.1235065E+00
          4   -1    0    0  501    0  0.00000000000E+00  0.00000000000E+00  0.13543453564E+03  0.13544049004E+03  0.12700000000E+01 0. -1.
         -4   -1    0    0    0  501 -0.00000000000E+00 -0.00000000000E+00 -0.28823060791E+02  0.28851026556E+02  0.12700000000E+01 0. -1.
         25    2    1    2    0    0  0.00000000000E+00  0.00000000000E+00  0.10661147484E+03  0.16429151660E+03  0.12500278340E+03 0.  0.
    9000005    1    3    3    0    0  0.15452707281E+02 -0.45117844003E+02  0.22648150058E+00  0.47701753675E+02  0.10000000000E+01 0.  0.
    9000005    1    3    3    0    0 -0.15452707281E+02  0.45117844003E+02  0.10638499334E+03  0.11658976292E+03  0.10000000000E+01 0.  0.
<mgrwt>
<rscale>  0 0.12500278E+03</rscale>
<asrwt>0</asrwt>
<pdfrwt beam="1">  1        4 0.20838692E-01 0.12500278E+03</pdfrwt>
<pdfrwt beam="2">  1       -4 0.44369263E-02 0.12500278E+03</pdfrwt>
<totfact> 0.96515700E+03</totfact>
</mgrwt>
</event>
<event>
 5    1  0.3217527E-002  0.1249995E+03  0.7818608E-02  0.1235070E+00
          4   -1    0    0  501    0  0.00000000000E+00  0.00000000000E+00  0.20440264910E+02  0.20479680896E+02  0.12700000000E+01 0.  1.
         -4   -1    0    0    0  501 -0.00000000000E+00 -0.00000000000E+00 -0.19087836334E+03  0.19088258824E+03  0.12700000000E+01 0.  1.
         25    2    1    2    0    0  0.00000000000E+00  0.00000000000E+00 -0.17043809843E+03  0.21136226914E+03  0.12499945366E+03 0.  0.
    9000005    1    3    3    0    0 -0.26982639557E+02  0.56364244413E+02 -0.86021059800E+02  0.10632785907E+03  0.10000000000E+01 0.  0.
    9000005    1    3    3    0    0  0.26982639557E+02 -0.56364244413E+02 -0.84417038635E+02  0.10503441006E+03  0.10000000000E+01 0.  0.
<mgrwt>
<rscale>  0 0.12499945E+03</rscale>
<asrwt>0</asrwt>
<pdfrwt beam="1">  1        4 0.31480133E-02 0.12499945E+03</pdfrwt>
<pdfrwt beam="2">  1       -4 0.29369258E-01 0.12499945E+03</pdfrwt>
<totfact> 0.88254965E+03</totfact>
</mgrwt>
</event>
<event>
 5    1  0.3217527E-002  0.1249987E+03  0.7818608E-02  0.1235071E+00
         -4   -1    0    0    0  501 -0.00000000000E+00  0.00000000000E+00  0.11993033148E+03  0.11993705561E+03  0.12700000000E+01 0.  1.
          4   -1    0    0  501    0  0.00000000000E+00 -0.00000000000E+00 -0.32550270349E+02  0.32575036452E+02  0.12700000000E+01 0.  1.
         25    2    1    2    0    0  0.00000000000E+00  0.00000000000E+00  0.87380061133E+02  0.15251209207E+03  0.12499865256E+03 0.  0.
    9000005    1    3    3    0    0  0.99153548378E+00 -0.40557492768E+02 -0.14303993931E+02  0.43029032114E+02  0.10000000000E+01 0.  0.
    9000005    1    3    3    0    0 -0.99153548378E+00  0.40557492768E+02  0.10168405506E+03  0.10948305995E+03  0.10000000000E+01 0.  0.
<mgrwt>
<rscale>  0 0.12499865E+03</rscale>
<asrwt>0</asrwt>
<pdfrwt beam="2">  1        4 0.50101562E-02 0.12499865E+03</pdfrwt>
<pdfrwt beam="1">  1       -4 0.18453243E-01 0.12499865E+03</pdfrwt>
<totfact> 0.98808282E+03</totfact>
</mgrwt>
</event>
<event>
 5    1  0.3217527E-002  0.1250005E+03  0.7818608E-02  0.1235068E+00
          4   -1    0    0  501    0  0.00000000000E+00  0.00000000000E+00  0.21073933421E+02  0.21112166393E+02  0.12700000000E+01 0. -1.
         -4   -1    0    0    0  501 -0.00000000000E+00 -0.00000000000E+00 -0.18515241298E+03  0.18515676853E+03  0.12700000000E+01 0. -1.
         25    2    1    2    0    0  0.00000000000E+00  0.00000000000E+00 -0.16407847956E+03  0.20626893492E+03  0.12500050424E+03 0.  0.
    9000005    1    3    3    0    0  0.20874547738E+02  0.43723490997E+02 -0.14716857889E+03  0.15494218606E+03  0.10000000000E+01 0.  0.
    9000005    1    3    3    0    0 -0.20874547738E+02 -0.43723490997E+02 -0.16909900667E+02  0.51326748862E+02  0.10000000000E+01 0.  0.
<mgrwt>
<rscale>  0 0.12500050E+03</rscale>
<asrwt>0</asrwt>
<pdfrwt beam="1">  1        4 0.32454198E-02 0.12500050E+03</pdfrwt>
<pdfrwt beam="2">  1       -4 0.28488262E-01 0.12500050E+03</pdfrwt>
<totfact> 0.89087857E+03</totfact>
</mgrwt>
</event>
<event>
 5    1  0.3217527E-002  0.1250104E+03  0.7818608E-02  0.1235053E+00
          4   -1    0    0  501    0  0.00000000000E+00  0.00000000000E+00  0.17141337476E+03  0.17141807941E+03  0.12700000000E+01 0. -1.
         -4   -1    0    0    0  501 -0.00000000000E+00 -0.00000000000E+00 -0.22769551271E+02  0.22804941681E+02  0.12700000000E+01 0. -1.
         25    2    1    2    0    0  0.00000000000E+00  0.00000000000E+00  0.14864382349E+03  0.19422302109E+03  0.12501038220E+03 0.  0.
    9000005    1    3    3    0    0 -0.60364018693E+02  0.15525028549E+02  0.81451420016E+02  0.10256790476E+03  0.10000000000E+01 0.  0.
    9000005    1    3    3    0    0  0.60364018693E+02 -0.15525028549E+02  0.67192403476E+02  0.91655116328E+02  0.10000000000E+01 0.  0.
<mgrwt>
<rscale>  0 0.12501038E+03</rscale>
<asrwt>0</asrwt>
<pdfrwt beam="1">  1        4 0.26374374E-01 0.12501038E+03</pdfrwt>
<pdfrwt beam="2">  1       -4 0.35060919E-02 0.12501038E+03</pdfrwt>
<totfact> 0.91096490E+03</totfact>
</mgrwt>
</event>
<event>
 5    1  0.3217527E-002  0.1250009E+03  0.7818608E-02  0.1235068E+00
          4   -1    0    0  501    0  0.00000000000E+00  0.00000000000E+00  0.28889670042E+02  0.28917571391E+02  0.12700000000E+01 0.  1.
         -4   -1    0    0    0  501 -0.00000000000E+00 -0.00000000000E+00 -0.13511839391E+03  0.13512436224E+03  0.12700000000E+01 0.  1.
         25    2    1    2    0    0  0.00000000000E+00  0.00000000000E+00 -0.10622872386E+03  0.16404193363E+03  0.12500085686E+03 0.  0.
    9000005    1    3    3    0    0 -0.55727896729E+02 -0.82553132163E+01 -0.17619511796E+02  0.59035547479E+02  0.10000000000E+01 0.  0.
    9000005    1    3    3    0    0  0.55727896729E+02  0.82553132163E+01 -0.88609212068E+02  0.10500638616E+03  0.10000000000E+01 0.  0.
<mgrwt>
<rscale>  0 0.12500086E+03</rscale>
<asrwt>0</asrwt>
<pdfrwt beam="1">  1        4 0.44471701E-02 0.12500086E+03</pdfrwt>
<pdfrwt beam="2">  1       -4 0.20790050E-01 0.12500086E+03</pdfrwt>
<totfact> 0.96567284E+03</totfact>
</mgrwt>
</event>
<event>
 5    1  0.3217527E-002  0.1250037E+03  0.7818608E-02  0.1235063E+00
         -4   -1    0    0    0  501 -0.00000000000E+00  0.00000000000E+00  0.25543718466E+02  0.25575270342E+02  0.12700000000E+01 0.  1.
          4   -1    0    0  501    0  0.00000000000E+00 -0.00000000000E+00 -0.15280460955E+03  0.15280988711E+03  0.12700000000E+01 0.  1.
         25    2    1    2    0    0  0.00000000000E+00  0.00000000000E+00 -0.12726089108E+03  0.17838515745E+03  0.12500371995E+03 0.  0.
    9000005    1    3    3    0    0  0.34282207957E+02 -0.15219266291E+02 -0.13496221323E+03  0.14008102958E+03  0.10000000000E+01 0.  0.
    9000005    1    3    3    0    0 -0.34282207957E+02  0.15219266291E+02  0.77013221511E+01  0.38304127868E+02  0.10000000000E+01 0.  0.
<mgrwt>
<rscale>  0 0.12500372E+03</rscale>
<asrwt>0</asrwt>
<pdfrwt beam="2">  1        4 0.23511234E-01 0.12500372E+03</pdfrwt>
<pdfrwt beam="1">  1       -4 0.39326360E-02 0.12500372E+03</pdfrwt>
<totfact> 0.93900657E+03</totfact>
</mgrwt>
</event>
<event>
 5    1  0.3217527E-002  0.1250007E+03  0.7818608E-02  0.1235068E+00
          4   -1    0    0  501    0  0.00000000000E+00  0.00000000000E+00  0.56385830080E+02  0.56400130619E+02  0.12700000000E+01 0.  1.
         -4   -1    0    0    0  501 -0.00000000000E+00 -0.00000000000E+00 -0.69249060266E+02  0.69260704933E+02  0.12700000000E+01 0.  1.
         25    2    1    2    0    0  0.00000000000E+00  0.00000000000E+00 -0.12863230186E+02  0.12566083555E+03  0.12500073160E+03 0.  0.
    9000005    1    3    3    0    0 -0.21417821882E+02 -0.52872724144E+02  0.19218763740E+02  0.60204725166E+02  0.10000000000E+01 0.  0.
    9000005    1    3    3    0    0  0.21417821882E+02  0.52872724144E+02 -0.32081993926E+02  0.65456110386E+02  0.10000000000E+01 0.  0.
<mgrwt>
<rscale>  0 0.12500073E+03</rscale>
<asrwt>0</asrwt>
<pdfrwt beam="1">  1        4 0.86767389E-02 0.12500073E+03</pdfrwt>
<pdfrwt beam="2">  1       -4 0.10655697E-01 0.12500073E+03</pdfrwt>
<totfact> 0.10438234E+04</totfact>
</mgrwt>
</event>
<event>
 5    1  0.3217527E-002  0.1249923E+03  0.7818608E-02  0.1235081E+00
          4   -1    0    0  501    0  0.00000000000E+00  0.00000000000E+00  0.97352573264E+02  0.97360856719E+02  0.12700000000E+01 0.  1.
         -4   -1    0    0    0  501 -0.00000000000E+00 -0.00000000000E+00 -0.40099757962E+02  0.40119864015E+02  0.12700000000E+01 0.  1.
         25    2    1    2    0    0  0.00000000000E+00  0.00000000000E+00  0.57252815303E+02  0.13748072073E+03  0.12499225461E+03 0.  0.
    9000005    1    3    3    0    0  0.38531465365E+01  0.53733690967E+02 -0.62012797223E+01  0.54236631103E+02  0.10000000000E+01 0.  0.
    9000005    1    3    3    0    0 -0.38531465365E+01 -0.53733690967E+02  0.63454095025E+02  0.83244089632E+02  0.10000000000E+01 0.  0.
<mgrwt>
<rscale>  0 0.12499225E+03</rscale>
<asrwt>0</asrwt>
<pdfrwt beam="1">  1        4 0.14979503E-01 0.12499225E+03</pdfrwt>
<pdfrwt beam="2">  1       -4 0.61713774E-02 0.12499225E+03</pdfrwt>
<totfact> 0.10187823E+04</totfact>
</mgrwt>
</event>
<event>
 5    1  0.3217527E-002  0.1250001E+03  0.7818608E-02  0.1235069E+00
          4   -1    0    0  501    0  0.00000000000E+00  0.00000000000E+00  0.21682096028E+03  0.21682467967E+03  0.12700000000E+01 0. -1.
         -4   -1    0    0    0  501 -0.00000000000E+00 -0.00000000000E+00 -0.17989772524E+02  0.18034545058E+02  0.12700000000E+01 0. -1.
         25    2    1    2    0    0  0.00000000000E+00  0.00000000000E+00  0.19883118775E+03  0.23485922473E+03  0.12500005687E+03 0.  0.
    9000005    1    3    3    0    0 -0.28538764522E+02 -0.55313849690E+02  0.88925742332E+02  0.10854893227E+03  0.10000000000E+01 0.  0.
    9000005    1    3    3    0    0  0.28538764522E+02  0.55313849690E+02  0.10990544542E+03  0.12631029246E+03  0.10000000000E+01 0.  0.
<mgrwt>
<rscale>  0 0.12500006E+03</rscale>
<asrwt>0</asrwt>
<pdfrwt beam="1">  1        4 0.33360802E-01 0.12500006E+03</pdfrwt>
<pdfrwt beam="2">  1       -4 0.27713874E-02 0.12500006E+03</pdfrwt>
<totfact> 0.84568892E+03</totfact>
</mgrwt>
</event>
<event>
 5    1  0.3217527E-002  0.1249795E+03  0.7818608E-02  0.1235101E+00
          4   -1    0    0  501    0  0.00000000000E+00  0.00000000000E+00  0.11353775111E+02  0.11424583549E+02  0.12700000000E+01 0.  1.
         -4   -1    0    0    0  501 -0.00000000000E+00 -0.00000000000E+00 -0.34279460128E+03  0.34279695385E+03  0.12700000000E+01 0.  1.
         25    2    1    2    0    0  0.00000000000E+00  0.00000000000E+00 -0.33144082617E+03  0.35422153739E+03  0.12497950354E+03 0.  0.
    9000005    1    3    3    0    0  0.28517552173E+02  0.53302136245E+02 -0.21049782118E+03  0.21900845014E+03  0.10000000000E+01 0.  0.
    9000005    1    3    3    0    0 -0.28517552173E+02 -0.53302136245E+02 -0.12094300498E+03  0.13521308725E+03  0.10000000000E+01 0.  0.
<mgrwt>
<rscale>  0 0.12497950E+03</rscale>
<asrwt>0</asrwt>
<pdfrwt beam="1">  1        4 0.17523627E-02 0.12497950E+03</pdfrwt>
<pdfrwt beam="2">  1       -4 0.52743251E-01 0.12497950E+03</pdfrwt>
<totfact> 0.69294042E+03</totfact>
</mgrwt>
</event>
<event>
 5    1  0.3217527E-002  0.1249962E+03  0.7818608E-02  0.1235075E+00
         -4   -1    0    0    0  501 -0.00000000000E+00  0.00000000000E+00  0.15996921242E+02  0.16047254881E+02  0.12700000000E+01 0.  1.
          4   -1    0    0  501    0  0.00000000000E+00 -0.00000000000E+00 -0.24373706937E+03  0.24374037804E+03  0.12700000000E+01 0.  1.
         25    2    1    2    0    0  0.00000000000E+00  0.00000000000E+00 -0.22774014813E+03  0.25978763292E+03  0.12499615653E+03 0.  0.
    9000005    1    3    3    0    0 -0.10889988920E+02  0.47938076216E+02 -0.19405184241E+03  0.20018433643E+03  0.10000000000E+01 0.  0.
    9000005    1    3    3    0    0  0.10889988920E+02 -0.47938076216E+02 -0.33688305722E+02  0.59603296489E+02  0.10000000000E+01 0.  0.
<mgrwt>
<rscale>  0 0.12499616E+03</rscale>
<asrwt>0</asrwt>
<pdfrwt beam="2">  1        4 0.37502134E-01 0.12499616E+03</pdfrwt>
<pdfrwt beam="1">  1       -4 0.24651913E-02 0.12499616E+03</pdfrwt>
<totfact> 0.80942799E+03</totfact>
</mgrwt>
</event>
<event>
 5    1  0.3217527E-002  0.1249977E+03  0.7818608E-02  0.1235073E+00
          4   -1    0    0  501    0  0.00000000000E+00  0.00000000000E+00  0.55194258470E+03  0.55194404581E+03  0.12700000000E+01 0.  1.
         -4   -1    0    0    0  501 -0.00000000000E+00 -0.00000000000E+00 -0.70185579732E+01  0.71325350348E+01  0.12700000000E+01 0.  1.
         25    2    1    2    0    0  0.00000000000E+00  0.00000000000E+00  0.54492402673E+03  0.55907658084E+03  0.12499771336E+03 0.  0.
    9000005    1    3    3    0    0 -0.51277761814E+02  0.35619729899E+02  0.26068508393E+03  0.26805948406E+03  0.10000000000E+01 0.  0.
    9000005    1    3    3    0    0  0.51277761814E+02 -0.35619729899E+02  0.28423894280E+03  0.29101709678E+03  0.10000000000E+01 0.  0.
<mgrwt>
<rscale>  0 0.12499771E+03</rscale>
<asrwt>0</asrwt>
<pdfrwt beam="1">  1        4 0.84923119E-01 0.12499771E+03</pdfrwt>
<pdfrwt beam="2">  1       -4 0.10886581E-02 0.12499771E+03</pdfrwt>
<totfact> 0.51559677E+03</totfact>
</mgrwt>
</event>
<event>
 5    1  0.3217527E-002  0.1250017E+03  0.7818608E-02  0.1235067E+00
         -4   -1    0    0    0  501 -0.00000000000E+00  0.00000000000E+00  0.95047516827E+03  0.95047601674E+03  0.12700000000E+01 0.  1.
          4   -1    0    0  501    0  0.00000000000E+00 -0.00000000000E+00 -0.40109175889E+01  0.42071795665E+01  0.12700000000E+01 0.  1.
         25    2    1    2    0    0  0.00000000000E+00  0.00000000000E+00  0.94646425068E+03  0.95468319631E+03  0.12500170996E+03 0.  0.
    9000005    1    3    3    0    0  0.23638540720E+02 -0.19145282634E+02  0.89015331137E+03  0.89067347563E+03  0.10000000000E+01 0.  0.
    9000005    1    3    3    0    0 -0.23638540720E+02  0.19145282634E+02  0.56310939310E+02  0.64009720672E+02  0.10000000000E+01 0.  0.
<mgrwt>
<rscale>  0 0.12500171E+03</rscale>
<asrwt>0</asrwt>
<pdfrwt beam="2">  1        4 0.63222623E-03 0.12500171E+03</pdfrwt>
<pdfrwt beam="1">  1       -4 0.14624219E+00 0.12500171E+03</pdfrwt>
<totfact> 0.32149060E+03</totfact>
</mgrwt>
</event>
<event>
 5    1  0.3217527E-002  0.1250043E+03  0.7818608E-02  0.1235063E+00
          4   -1    0    0  501    0  0.00000000000E+00  0.00000000000E+00  0.13932124523E+02  0.13989888982E+02  0.12700000000E+01 0. -1.
         -4   -1    0    0    0  501 -0.00000000000E+00 -0.00000000000E+00 -0.27975719864E+03  0.27976008130E+03  0.12700000000E+01 0. -1.
         25    2    1    2    0    0  0.00000000000E+00  0.00000000000E+00 -0.26582507412E+03  0.29374997029E+03  0.12500429998E+03 0.  0.
    9000005    1    3    3    0    0  0.28440437238E+02 -0.37580499441E+02 -0.36469438178E+02  0.59600103436E+02  0.10000000000E+01 0.  0.
    9000005    1    3    3    0    0 -0.28440437238E+02  0.37580499441E+02 -0.22935563594E+03  0.23414986685E+03  0.10000000000E+01 0.  0.
<mgrwt>
<rscale>  0 0.12500430E+03</rscale>
<asrwt>0</asrwt>
<pdfrwt beam="1">  1        4 0.21480691E-02 0.12500430E+03</pdfrwt>
<pdfrwt beam="2">  1       -4 0.43044230E-01 0.12500430E+03</pdfrwt>
<totfact> 0.76382287E+03</totfact>
</mgrwt>
</event>
<event>
 5    1  0.3217527E-002  0.1249981E+03  0.7818608E-02  0.1235072E+00
         -4   -1    0    0    0  501 -0.00000000000E+00  0.00000000000E+00  0.31124301518E+03  0.31124560623E+03  0.12700000000E+01 0.  1.
          4   -1    0    0  501    0  0.00000000000E+00 -0.00000000000E+00 -0.12515323025E+02  0.12579595003E+02  0.12700000000E+01 0.  1.
         25    2    1    2    0    0  0.00000000000E+00  0.00000000000E+00  0.29872769215E+03  0.32382520123E+03  0.12499810756E+03 0.  0.
    9000005    1    3    3    0    0 -0.18083566723E+02  0.59455315670E+02  0.16638768337E+03  0.17761703501E+03  0.10000000000E+01 0.  0.
    9000005    1    3    3    0    0  0.18083566723E+02 -0.59455315670E+02  0.13234000878E+03  0.14620816623E+03  0.10000000000E+01 0.  0.
<mgrwt>
<rscale>  0 0.12499811E+03</rscale>
<asrwt>0</asrwt>
<pdfrwt beam="2">  1        4 0.19305775E-02 0.12499811E+03</pdfrwt>
<pdfrwt beam="1">  1       -4 0.47888686E-01 0.12499811E+03</pdfrwt>
<totfact> 0.72706512E+03</totfact>
</mgrwt>
</event>
<event>
 5    1  0.3217527E-002  0.1250010E+03  0.7818608E-02  0.1235068E+00
          4   -1    0    0  501    0  0.00000000000E+00  0.00000000000E+00  0.71582616803E+02  0.71593881920E+02  0.12700000000E+01 0. -1.
         -4   -1    0    0    0  501 -0.00000000000E+00 -0.00000000000E+00 -0.54547747115E+02  0.54562529408E+02  0.12700000000E+01 0. -1.
         25    2    1    2    0    0  0.00000000000E+00  0.00000000000E+00  0.17034869688E+02  0.12615641133E+03  0.12500101333E+03 0.  0.
    9000005    1    3    3    0    0 -0.32437910476E+02 -0.47289686108E+02  0.33582061829E+02  0.66462676179E+02  0.10000000000E+01 0.  0.
    9000005    1    3    3    0    0  0.32437910476E+02  0.47289686108E+02 -0.16547192141E+02  0.59693735148E+02  0.10000000000E+01 0.  0.
<mgrwt>
<rscale>  0 0.12500101E+03</rscale>
<asrwt>0</asrwt>
<pdfrwt beam="1">  1        4 0.11014714E-01 0.12500101E+03</pdfrwt>
<pdfrwt beam="2">  1       -4 0.83939648E-02 0.12500101E+03</pdfrwt>
<totfact> 0.10427294E+04</totfact>
</mgrwt>
</event>
<event>
 5    1  0.3217527E-002  0.1249995E+03  0.7818608E-02  0.1235070E+00
          4   -1    0    0  501    0  0.00000000000E+00  0.00000000000E+00  0.36137463547E+03  0.36137686708E+03  0.12700000000E+01 0.  1.
         -4   -1    0    0    0  501 -0.00000000000E+00 -0.00000000000E+00 -0.10769751611E+02  0.10844374107E+02  0.12700000000E+01 0.  1.
         25    2    1    2    0    0  0.00000000000E+00  0.00000000000E+00  0.35060488386E+03  0.37222124119E+03  0.12499947122E+03 0.  0.
    9000005    1    3    3    0    0  0.48016729714E-01  0.30874428243E+01  0.36116193384E+03  0.36117651787E+03  0.10000000000E+01 0.  0.
    9000005    1    3    3    0    0 -0.48016729714E-01 -0.30874428243E+01 -0.10557049980E+02  0.11044723314E+02  0.10000000000E+01 0.  0.
<mgrwt>
<rscale>  0 0.12499947E+03</rscale>
<asrwt>0</asrwt>
<pdfrwt beam="1">  1        4 0.55602003E-01 0.12499947E+03</pdfrwt>
<pdfrwt beam="2">  1       -4 0.16627969E-02 0.12499947E+03</pdfrwt>
<totfact> 0.67347982E+03</totfact>
</mgrwt>
</event>
<event>
 5    1  0.3217527E-002  0.1250129E+03  0.7818608E-02  0.1235049E+00
          4   -1    0    0  501    0  0.00000000000E+00  0.00000000000E+00  0.13194333545E+04  0.13194339657E+04  0.12700000000E+01 0. -1.
         -4   -1    0    0    0  501 -0.00000000000E+00 -0.00000000000E+00 -0.28243534045E+01  0.30967518715E+01  0.12700000000E+01 0. -1.
         25    2    1    2    0    0  0.00000000000E+00  0.00000000000E+00  0.13166090011E+04  0.13225307176E+04  0.12501294805E+03 0.  0.
    9000005    1    3    3    0    0  0.50783903171E+02  0.75578948054E+01  0.10353043043E+04  0.10365771216E+04  0.10000000000E+01 0.  0.
    9000005    1    3    3    0    0 -0.50783903171E+02 -0.75578948054E+01  0.28130469682E+03  0.28595359597E+03  0.10000000000E+01 0.  0.
<mgrwt>
<rscale>  0 0.12501295E+03</rscale>
<asrwt>0</asrwt>
<pdfrwt beam="1">  1        4 0.20300988E+00 0.12501295E+03</pdfrwt>
<pdfrwt beam="2">  1       -4 0.45551861E-03 0.12501295E+03</pdfrwt>
<totfact> 0.21696921E+03</totfact>
</mgrwt>
</event>
<event>
 5    1  0.3217527E-002  0.1249977E+03  0.7818608E-02  0.1235073E+00
         -4   -1    0    0    0  501 -0.00000000000E+00  0.00000000000E+00  0.96548553767E+03  0.96548637294E+03  0.12700000000E+01 0.  1.
          4   -1    0    0  501    0  0.00000000000E+00 -0.00000000000E+00 -0.39452174592E+01  0.41445917532E+01  0.12700000000E+01 0.  1.
         25    2    1    2    0    0  0.00000000000E+00  0.00000000000E+00  0.96154032021E+03  0.96963096470E+03  0.12499768125E+03 0.  0.
    9000005    1    3    3    0    0 -0.42648326264E+01  0.19663636231E+02  0.93970869894E+03  0.93992461733E+03  0.10000000000E+01 0.  0.
    9000005    1    3    3    0    0  0.42648326264E+01 -0.19663636231E+02  0.21831621265E+02  0.29706347373E+02  0.10000000000E+01 0.  0.
<mgrwt>
<rscale>  0 0.12499768E+03</rscale>
<asrwt>0</asrwt>
<pdfrwt beam="2">  1        4 0.62235682E-03 0.12499768E+03</pdfrwt>
<pdfrwt beam="1">  1       -4 0.14855175E+00 0.12499768E+03</pdfrwt>
<totfact> 0.31630664E+03</totfact>
</mgrwt>
</event>
<event>
 5    1  0.3217527E-002  0.1249947E+03  0.7818608E-02  0.1235078E+00
         -4   -1    0    0    0  501 -0.00000000000E+00  0.00000000000E+00  0.34474823256E+01  0.36739671182E+01  0.12700000000E+01 0. -1.
          4   -1    0    0  501    0  0.00000000000E+00 -0.00000000000E+00 -0.10967175737E+04  0.10967183090E+04  0.12700000000E+01 0. -1.
         25    2    1    2    0    0  0.00000000000E+00  0.00000000000E+00 -0.10932700914E+04  0.11003922762E+04  0.12499467474E+03 0.  0.
    9000005    1    3    3    0    0  0.21157633148E+02 -0.11673470716E+02 -0.39305004718E+02  0.46149742739E+02  0.10000000000E+01 0.  0.
    9000005    1    3    3    0    0 -0.21157633148E+02  0.11673470716E+02 -0.10539650867E+04  0.10542425334E+04  0.10000000000E+01 0.  0.
<mgrwt>
<rscale>  0 0.12499467E+03</rscale>
<asrwt>0</asrwt>
<pdfrwt beam="2">  1        4 0.16874299E+00 0.12499467E+03</pdfrwt>
<pdfrwt beam="1">  1       -4 0.54786124E-03 0.12499467E+03</pdfrwt>
<totfact> 0.27475152E+03</totfact>
</mgrwt>
</event>
<event>
 5    1  0.3217527E-002  0.1249985E+03  0.7818608E-02  0.1235072E+00
         -4   -1    0    0    0  501 -0.00000000000E+00  0.00000000000E+00  0.18007851804E+02  0.18052579500E+02  0.12700000000E+01 0.  1.
          4   -1    0    0  501    0  0.00000000000E+00 -0.00000000000E+00 -0.21659854407E+03  0.21660226729E+03  0.12700000000E+01 0.  1.
         25    2    1    2    0    0  0.00000000000E+00  0.00000000000E+00 -0.19859069227E+03  0.23465484679E+03  0.12499853625E+03 0.  0.
    9000005    1    3    3    0    0  0.59000804084E+02  0.14707641481E+02 -0.12635323974E+03  0.14022678344E+03  0.10000000000E+01 0.  0.
    9000005    1    3    3    0    0 -0.59000804084E+02 -0.14707641481E+02 -0.72237452531E+02  0.94428063353E+02  0.10000000000E+01 0.  0.
<mgrwt>
<rscale>  0 0.12499854E+03</rscale>
<asrwt>0</asrwt>
<pdfrwt beam="2">  1        4 0.33326578E-01 0.12499854E+03</pdfrwt>
<pdfrwt beam="1">  1       -4 0.27741659E-02 0.12499854E+03</pdfrwt>
<totfact> 0.84602691E+03</totfact>
</mgrwt>
</event>
<event>
 5    1  0.3217527E-002  0.1250009E+03  0.7818608E-02  0.1235068E+00
         -4   -1    0    0    0  501 -0.00000000000E+00  0.00000000000E+00  0.18496096345E+02  0.18539646167E+02  0.12700000000E+01 0. -1.
          4   -1    0    0  501    0  0.00000000000E+00 -0.00000000000E+00 -0.21090232531E+03  0.21090614908E+03  0.12700000000E+01 0. -1.
         25    2    1    2    0    0  0.00000000000E+00  0.00000000000E+00 -0.19240622896E+03  0.22944579525E+03  0.12500086405E+03 0.  0.
    9000005    1    3    3    0    0 -0.41589239426E+02 -0.25635677276E+02 -0.24676526171E+02  0.54742887476E+02  0.10000000000E+01 0.  0.
    9000005    1    3    3    0    0  0.41589239426E+02  0.25635677276E+02 -0.16772970279E+03  0.17470290777E+03  0.10000000000E+01 0.  0.
<mgrwt>
<rscale>  0 0.12500086E+03</rscale>
<asrwt>0</asrwt>
<pdfrwt beam="2">  1        4 0.32450154E-01 0.12500086E+03</pdfrwt>
<pdfrwt beam="1">  1       -4 0.28491975E-02 0.12500086E+03</pdfrwt>
<totfact> 0.85393122E+03</totfact>
</mgrwt>
</event>
<event>
 5    1  0.3217527E-002  0.1250295E+03  0.7818608E-02  0.1235023E+00
         -4   -1    0    0    0  501 -0.00000000000E+00  0.00000000000E+00  0.62295451347E+01  0.63576829573E+01  0.12700000000E+01 0.  1.
          4   -1    0    0  501    0  0.00000000000E+00 -0.00000000000E+00 -0.62083256292E+03  0.62083386190E+03  0.12700000000E+01 0.  1.
         25    2    1    2    0    0  0.00000000000E+00  0.00000000000E+00 -0.61460301778E+03  0.62719154486E+03  0.12502945441E+03 0.  0.
    9000005    1    3    3    0    0 -0.17572326341E+02 -0.56739598693E+02 -0.40494942989E+03  0.40928377623E+03  0.10000000000E+01 0.  0.
    9000005    1    3    3    0    0  0.17572326341E+02  0.56739598693E+02 -0.20965358789E+03  0.21790776863E+03  0.10000000000E+01 0.  0.
<mgrwt>
<rscale>  0 0.12502945E+03</rscale>
<asrwt>0</asrwt>
<pdfrwt beam="2">  1        4 0.95522610E-01 0.12502945E+03</pdfrwt>
<pdfrwt beam="1">  1       -4 0.96834873E-03 0.12502945E+03</pdfrwt>
<totfact> 0.47164557E+03</totfact>
</mgrwt>
</event>
<event>
 5    1  0.3217527E-002  0.1249983E+03  0.7818608E-02  0.1235072E+00
         -4   -1    0    0    0  501 -0.00000000000E+00  0.00000000000E+00  0.66463232686E+02  0.66475365354E+02  0.12700000000E+01 0. -1.
          4   -1    0    0  501    0  0.00000000000E+00 -0.00000000000E+00 -0.58747111250E+02  0.58760837130E+02  0.12700000000E+01 0. -1.
         25    2    1    2    0    0  0.00000000000E+00  0.00000000000E+00  0.77161214355E+01  0.12523620248E+03  0.12499827152E+03 0.  0.
    9000005    1    3    3    0    0  0.36368799364E+02  0.28004650721E+02  0.46343871056E+02  0.65235760237E+02  0.10000000000E+01 0.  0.
    9000005    1    3    3    0    0 -0.36368799364E+02 -0.28004650721E+02 -0.38627749620E+02  0.60000442248E+02  0.10000000000E+01 0.  0.
<mgrwt>
<rscale>  0 0.12499827E+03</rscale>
<asrwt>0</asrwt>
<pdfrwt beam="2">  1        4 0.90400062E-02 0.12499827E+03</pdfrwt>
<pdfrwt beam="1">  1       -4 0.10227102E-01 0.12499827E+03</pdfrwt>
<totfact> 0.10448143E+04</totfact>
</mgrwt>
</event>
<event>
 5    1  0.3217527E-002  0.1249995E+03  0.7818608E-02  0.1235070E+00
          4   -1    0    0  501    0  0.00000000000E+00  0.00000000000E+00  0.16953315238E+03  0.16953790920E+03  0.12700000000E+01 0. -1.
         -4   -1    0    0    0  501 -0.00000000000E+00 -0.00000000000E+00 -0.23018455476E+02  0.23053463785E+02  0.12700000000E+01 0. -1.
         25    2    1    2    0    0  0.00000000000E+00  0.00000000000E+00  0.14651469691E+03  0.19259137299E+03  0.12499952216E+03 0.  0.
    9000005    1    3    3    0    0 -0.37553880213E+01 -0.60700443969E+02  0.51112864314E+02  0.79449177061E+02  0.10000000000E+01 0.  0.
    9000005    1    3    3    0    0  0.37553880213E+01  0.60700443969E+02  0.95401832592E+02  0.11314219593E+03  0.10000000000E+01 0.  0.
<mgrwt>
<rscale>  0 0.12499952E+03</rscale>
<asrwt>0</asrwt>
<pdfrwt beam="1">  1        4 0.26085082E-01 0.12499952E+03</pdfrwt>
<pdfrwt beam="2">  1       -4 0.35443597E-02 0.12499952E+03</pdfrwt>
<totfact> 0.91399347E+03</totfact>
</mgrwt>
</event>
<event>
 5    1  0.3217527E-002  0.1249967E+03  0.7818608E-02  0.1235074E+00
          4   -1    0    0  501    0  0.00000000000E+00  0.00000000000E+00  0.18371579347E+03  0.18372018307E+03  0.12700000000E+01 0.  1.
         -4   -1    0    0    0  501 -0.00000000000E+00 -0.00000000000E+00 -0.21237728740E+02  0.21275667370E+02  0.12700000000E+01 0.  1.
         25    2    1    2    0    0  0.00000000000E+00  0.00000000000E+00  0.16247806473E+03  0.20499585044E+03  0.12499670869E+03 0.  0.
    9000005    1    3    3    0    0  0.49052688036E+02 -0.32658406440E+02  0.47139971681E+02  0.75471283578E+02  0.10000000000E+01 0.  0.
    9000005    1    3    3    0    0 -0.49052688036E+02  0.32658406440E+02  0.11533809304E+03  0.12952456687E+03  0.10000000000E+01 0.  0.
<mgrwt>
<rscale>  0 0.12499671E+03</rscale>
<asrwt>0</asrwt>
<pdfrwt beam="1">  1        4 0.28267224E-01 0.12499671E+03</pdfrwt>
<pdfrwt beam="2">  1       -4 0.32705989E-02 0.12499671E+03</pdfrwt>
<totfact> 0.89306275E+03</totfact>
</mgrwt>
</event>
<event>
 5    1  0.3217527E-002  0.1250010E+03  0.7818608E-02  0.1235068E+00
         -4   -1    0    0    0  501 -0.00000000000E+00  0.00000000000E+00  0.14598001414E+03  0.14598553842E+03  0.12700000000E+01 0. -1.
          4   -1    0    0  501    0  0.00000000000E+00 -0.00000000000E+00 -0.26738131238E+02  0.26768275292E+02  0.12700000000E+01 0. -1.
         25    2    1    2    0    0  0.00000000000E+00  0.00000000000E+00  0.11924188290E+03  0.17275381371E+03  0.12500101405E+03 0.  0.
    9000005    1    3    3    0    0  0.12883651845E+02 -0.35921133114E+01 -0.24743629592E+02  0.28144963462E+02  0.10000000000E+01 0.  0.
    9000005    1    3    3    0    0 -0.12883651845E+02  0.35921133114E+01  0.14398551249E+03  0.14460885025E+03  0.10000000000E+01 0.  0.
<mgrwt>
<rscale>  0 0.12500101E+03</rscale>
<asrwt>0</asrwt>
<pdfrwt beam="2">  1        4 0.41163025E-02 0.12500101E+03</pdfrwt>
<pdfrwt beam="1">  1       -4 0.22461207E-01 0.12500101E+03</pdfrwt>
<totfact> 0.94935682E+03</totfact>
</mgrwt>
</event>
<event>
 5    1  0.3217527E-002  0.1249964E+03  0.7818608E-02  0.1235075E+00
          4   -1    0    0  501    0  0.00000000000E+00  0.00000000000E+00  0.30685018280E+02  0.30711288590E+02  0.12700000000E+01 0. -1.
         -4   -1    0    0    0  501 -0.00000000000E+00 -0.00000000000E+00 -0.12721035605E+03  0.12721669539E+03  0.12700000000E+01 0. -1.
         25    2    1    2    0    0  0.00000000000E+00  0.00000000000E+00 -0.96525337771E+02  0.15792798398E+03  0.12499642912E+03 0.  0.
    9000005    1    3    3    0    0  0.56525640362E+02  0.16900745336E+01 -0.81857935195E+02  0.99497366421E+02  0.10000000000E+01 0.  0.
    9000005    1    3    3    0    0 -0.56525640362E+02 -0.16900745336E+01 -0.14667402576E+02  0.58430617562E+02  0.10000000000E+01 0.  0.
<mgrwt>
<rscale>  0 0.12499643E+03</rscale>
<asrwt>0</asrwt>
<pdfrwt beam="1">  1        4 0.47232805E-02 0.12499643E+03</pdfrwt>
<pdfrwt beam="2">  1       -4 0.19573332E-01 0.12499643E+03</pdfrwt>
<totfact> 0.97751594E+03</totfact>
</mgrwt>
</event>
<event>
 5    1  0.3217527E-002  0.1249994E+03  0.7818608E-02  0.1235070E+00
          4   -1    0    0  501    0  0.00000000000E+00  0.00000000000E+00  0.46109353202E+02  0.46126839830E+02  0.12700000000E+01 0.  1.
         -4   -1    0    0    0  501 -0.00000000000E+00 -0.00000000000E+00 -0.84677948516E+02  0.84687471712E+02  0.12700000000E+01 0.  1.
         25    2    1    2    0    0  0.00000000000E+00  0.00000000000E+00 -0.38568595314E+02  0.13081431154E+03  0.12499939024E+03 0.  0.
    9000005    1    3    3    0    0 -0.43200582406E+02 -0.39873107365E+02 -0.41461054880E+02  0.71945632828E+02  0.10000000000E+01 0.  0.
    9000005    1    3    3    0    0  0.43200582406E+02  0.39873107365E+02  0.28924595667E+01  0.58868678714E+02  0.10000000000E+01 0.  0.
<mgrwt>
<rscale>  0 0.12499939E+03</rscale>
<asrwt>0</asrwt>
<pdfrwt beam="1">  1        4 0.70958243E-02 0.12499939E+03</pdfrwt>
<pdfrwt beam="2">  1       -4 0.13029454E-01 0.12499939E+03</pdfrwt>
<totfact> 0.10327214E+04</totfact>
</mgrwt>
</event>
<event>
 5    1  0.3217527E-002  0.1249955E+03  0.7818608E-02  0.1235076E+00
         -4   -1    0    0    0  501 -0.00000000000E+00  0.00000000000E+00  0.21791028085E+02  0.21828005062E+02  0.12700000000E+01 0.  1.
          4   -1    0    0  501    0  0.00000000000E+00 -0.00000000000E+00 -0.17905544941E+03  0.17905995326E+03  0.12700000000E+01 0.  1.
         25    2    1    2    0    0  0.00000000000E+00  0.00000000000E+00 -0.15726442132E+03  0.20088795832E+03  0.12499549426E+03 0.  0.
    9000005    1    3    3    0    0 -0.37655427971E+02 -0.48654772491E+02 -0.96219453878E+02  0.11421208976E+03  0.10000000000E+01 0.  0.
    9000005    1    3    3    0    0  0.37655427971E+02  0.48654772491E+02 -0.61044967445E+02  0.86675868569E+02  0.10000000000E+01 0.  0.
<mgrwt>
<rscale>  0 0.12499549E+03</rscale>
<asrwt>0</asrwt>
<pdfrwt beam="2">  1        4 0.27550182E-01 0.12499549E+03</pdfrwt>
<pdfrwt beam="1">  1       -4 0.33556568E-02 0.12499549E+03</pdfrwt>
<totfact> 0.89995034E+03</totfact>
</mgrwt>
</event>
<event>
 5    1  0.3217527E-002  0.1249963E+03  0.7818608E-02  0.1235075E+00
         -4   -1    0    0    0  501 -0.00000000000E+00  0.00000000000E+00  0.55669612951E+02  0.55684097426E+02  0.12700000000E+01 0.  1.
          4   -1    0    0  501    0  0.00000000000E+00 -0.00000000000E+00 -0.70134929576E+02  0.70146427183E+02  0.12700000000E+01 0.  1.
         25    2    1    2    0    0  0.00000000000E+00  0.00000000000E+00 -0.14465316625E+02  0.12583052461E+03  0.12499630210E+03 0.  0.
    9000005    1    3    3    0    0  0.21435558349E+02 -0.36126992583E+02  0.39340307136E+02  0.57561293596E+02  0.10000000000E+01 0.  0.
    9000005    1    3    3    0    0 -0.21435558349E+02  0.36126992583E+02 -0.53805623761E+02  0.68269231013E+02  0.10000000000E+01 0.  0.
<mgrwt>
<rscale>  0 0.12499630E+03</rscale>
<asrwt>0</asrwt>
<pdfrwt beam="2">  1        4 0.10791988E-01 0.12499630E+03</pdfrwt>
<pdfrwt beam="1">  1       -4 0.85665545E-02 0.12499630E+03</pdfrwt>
<totfact> 0.10435545E+04</totfact>
</mgrwt>
</event>
<event>
 5    1  0.3217527E-002  0.1249969E+03  0.7818608E-02  0.1235074E+00
         -4   -1    0    0    0  501 -0.00000000000E+00  0.00000000000E+00  0.21282976460E+02  0.21320834575E+02  0.12700000000E+01 0.  1.
          4   -1    0    0  501    0  0.00000000000E+00 -0.00000000000E+00 -0.18332642763E+03  0.18333082657E+03  0.12700000000E+01 0.  1.
         25    2    1    2    0    0  0.00000000000E+00  0.00000000000E+00 -0.16204345118E+03  0.20465166114E+03  0.12499688932E+03 0.  0.
    9000005    1    3    3    0    0 -0.48319380003E+02  0.22970684200E+02 -0.13388857385E+03  0.14418586971E+03  0.10000000000E+01 0.  0.
    9000005    1    3    3    0    0  0.48319380003E+02 -0.22970684200E+02 -0.28154877328E+02  0.60465791434E+02  0.10000000000E+01 0.  0.
<mgrwt>
<rscale>  0 0.12499689E+03</rscale>
<asrwt>0</asrwt>
<pdfrwt beam="2">  1        4 0.28207315E-01 0.12499689E+03</pdfrwt>
<pdfrwt beam="1">  1       -4 0.32775547E-02 0.12499689E+03</pdfrwt>
<totfact> 0.89363070E+03</totfact>
</mgrwt>
</event>
<event>
 5    1  0.3217527E-002  0.1250004E+03  0.7818608E-02  0.1235069E+00
         -4   -1    0    0    0  501 -0.00000000000E+00  0.00000000000E+00  0.11151255621E+02  0.11223341834E+02  0.12700000000E+01 0.  1.
          4   -1    0    0  501    0  0.00000000000E+00 -0.00000000000E+00 -0.34909730121E+03  0.34909961131E+03  0.12700000000E+01 0.  1.
         25    2    1    2    0    0  0.00000000000E+00  0.00000000000E+00 -0.33794604559E+03  0.36032295314E+03  0.12500040332E+03 0.  0.
    9000005    1    3    3    0    0  0.15848355937E+02  0.48074313630E+01 -0.34267039380E+03  0.34307183004E+03  0.10000000000E+01 0.  0.
    9000005    1    3    3    0    0 -0.15848355937E+02 -0.48074313630E+01  0.47243482060E+01  0.17251123100E+02  0.10000000000E+01 0.  0.
<mgrwt>
<rscale>  0 0.12500040E+03</rscale>
<asrwt>0</asrwt>
<pdfrwt beam="2">  1        4 0.53712992E-01 0.12500040E+03</pdfrwt>
<pdfrwt beam="1">  1       -4 0.17213008E-02 0.12500040E+03</pdfrwt>
<totfact> 0.68603029E+03</totfact>
</mgrwt>
</event>
<event>
 5    1  0.3217527E-002  0.1250043E+03  0.7818608E-02  0.1235063E+00
          4   -1    0    0  501    0  0.00000000000E+00  0.00000000000E+00  0.20087036253E+03  0.20087437727E+03  0.12700000000E+01 0.  1.
         -4   -1    0    0    0  501 -0.00000000000E+00 -0.00000000000E+00 -0.19423020231E+02  0.19464496267E+02  0.12700000000E+01 0.  1.
         25    2    1    2    0    0  0.00000000000E+00  0.00000000000E+00  0.18144734230E+03  0.22033887353E+03  0.12500432458E+03 0.  0.
    9000005    1    3    3    0    0  0.53302321264E+02  0.27277274063E+02  0.59176019636E+02  0.84190192020E+02  0.10000000000E+01 0.  0.
    9000005    1    3    3    0    0 -0.53302321264E+02 -0.27277274063E+02  0.12227132266E+03  0.13614868151E+03  0.10000000000E+01 0.  0.
<mgrwt>
<rscale>  0 0.12500432E+03</rscale>
<asrwt>0</asrwt>
<pdfrwt beam="1">  1        4 0.30906633E-01 0.12500432E+03</pdfrwt>
<pdfrwt beam="2">  1       -4 0.29916562E-02 0.12500432E+03</pdfrwt>
<totfact> 0.86806369E+03</totfact>
</mgrwt>
</event>
<event>
 5    1  0.3217527E-002  0.1250086E+03  0.7818608E-02  0.1235056E+00
         -4   -1    0    0    0  501 -0.00000000000E+00  0.00000000000E+00  0.77372584871E+02  0.77383007111E+02  0.12700000000E+01 0.  1.
          4   -1    0    0  501    0  0.00000000000E+00 -0.00000000000E+00 -0.50471403909E+02  0.50487379736E+02  0.12700000000E+01 0.  1.
         25    2    1    2    0    0  0.00000000000E+00  0.00000000000E+00  0.26901180962E+02  0.12787038685E+03  0.12500864888E+03 0.  0.
    9000005    1    3    3    0    0 -0.61890573374E+02 -0.21830546925E+01  0.48569693853E+01  0.62127280255E+02  0.10000000000E+01 0.  0.
    9000005    1    3    3    0    0  0.61890573374E+02  0.21830546925E+01  0.22044211576E+02  0.65743106592E+02  0.10000000000E+01 0.  0.
<mgrwt>
<rscale>  0 0.12500865E+03</rscale>
<asrwt>0</asrwt>
<pdfrwt beam="2">  1        4 0.77668620E-02 0.12500865E+03</pdfrwt>
<pdfrwt beam="1">  1       -4 0.11905505E-01 0.12500865E+03</pdfrwt>
<totfact> 0.10388259E+04</totfact>
</mgrwt>
</event>
<event>
 5    1  0.3217527E-002  0.1250045E+03  0.7818608E-02  0.1235062E+00
         -4   -1    0    0    0  501 -0.00000000000E+00  0.00000000000E+00  0.39734422405E+02  0.39754713229E+02  0.12700000000E+01 0.  1.
          4   -1    0    0  501    0  0.00000000000E+00 -0.00000000000E+00 -0.98266520634E+02  0.98274727054E+02  0.12700000000E+01 0.  1.
         25    2    1    2    0    0  0.00000000000E+00  0.00000000000E+00 -0.58532098229E+02  0.13802944028E+03  0.12500447937E+03 0.  0.
    9000005    1    3    3    0    0  0.12681495098E+02 -0.57948725544E+02 -0.75536464121E+01  0.59807463449E+02  0.10000000000E+01 0.  0.
    9000005    1    3    3    0    0 -0.12681495098E+02  0.57948725544E+02 -0.50978451817E+02  0.78221976834E+02  0.10000000000E+01 0.  0.
<mgrwt>
<rscale>  0 0.12500448E+03</rscale>
<asrwt>0</asrwt>
<pdfrwt beam="2">  1        4 0.15120118E-01 0.12500448E+03</pdfrwt>
<pdfrwt beam="1">  1       -4 0.61151802E-02 0.12500448E+03</pdfrwt>
<totfact> 0.10173564E+04</totfact>
</mgrwt>
</event>
<event>
 5    1  0.3217527E-002  0.1249892E+03  0.7818608E-02  0.1235086E+00
          4   -1    0    0  501    0  0.00000000000E+00  0.00000000000E+00  0.28103421621E+03  0.28103708577E+03  0.12700000000E+01 0.  1.
         -4   -1    0    0    0  501 -0.00000000000E+00 -0.00000000000E+00 -0.13865193154E+02  0.13923235299E+02  0.12700000000E+01 0.  1.
         25    2    1    2    0    0  0.00000000000E+00  0.00000000000E+00  0.26716902305E+03  0.29496032107E+03  0.12498921604E+03 0.  0.
    9000005    1    3    3    0    0 -0.94398253165E+01  0.14104686802E+02 -0.83332333287E+01  0.18933971308E+02  0.10000000000E+01 0.  0.
    9000005    1    3    3    0    0  0.94398253165E+01 -0.14104686802E+02  0.27550225638E+03  0.27602634976E+03  0.10000000000E+01 0.  0.
<mgrwt>
<rscale>  0 0.12498922E+03</rscale>
<asrwt>0</asrwt>
<pdfrwt beam="1">  1        4 0.43240719E-01 0.12498922E+03</pdfrwt>
<pdfrwt beam="2">  1       -4 0.21377921E-02 0.12498922E+03</pdfrwt>
<totfact> 0.76253644E+03</totfact>
</mgrwt>
</event>
<event>
 5    1  0.3217527E-002  0.1250025E+03  0.7818608E-02  0.1235065E+00
          4   -1    0    0  501    0  0.00000000000E+00  0.00000000000E+00  0.46179895028E+01  0.47894391162E+01  0.12700000000E+01 0.  1.
         -4   -1    0    0    0  501 -0.00000000000E+00 -0.00000000000E+00 -0.83032187469E+03  0.83032284594E+03  0.12700000000E+01 0.  1.
         25    2    1    2    0    0  0.00000000000E+00  0.00000000000E+00 -0.82570388519E+03  0.83511228506E+03  0.12500249053E+03 0.  0.
    9000005    1    3    3    0    0  0.10412302137E+02 -0.15268804648E+02 -0.14023510120E+02  0.23220923049E+02  0.10000000000E+01 0.  0.
    9000005    1    3    3    0    0 -0.10412302137E+02  0.15268804648E+02 -0.81168037507E+03  0.81189136201E+03  0.10000000000E+01 0.  0.
<mgrwt>
<rscale>  0 0.12500249E+03</rscale>
<asrwt>0</asrwt>
<pdfrwt beam="1">  1        4 0.72372373E-03 0.12500249E+03</pdfrwt>
<pdfrwt beam="2">  1       -4 0.12775497E+00 0.12500249E+03</pdfrwt>
<totfact> 0.36742439E+03</totfact>
</mgrwt>
</event>
<event>
 5    1  0.3217527E-002  0.1249979E+03  0.7818608E-02  0.1235073E+00
          4   -1    0    0  501    0  0.00000000000E+00  0.00000000000E+00  0.35230104580E+01  0.37449302646E+01  0.12700000000E+01 0. -1.
         -4   -1    0    0    0  501 -0.00000000000E+00 -0.00000000000E+00 -0.10746678513E+04  0.10746686017E+04  0.12700000000E+01 0. -1.
         25    2    1    2    0    0  0.00000000000E+00  0.00000000000E+00 -0.10711448409E+04  0.10784135320E+04  0.12499790358E+03 0.  0.
    9000005    1    3    3    0    0  0.18947193753E+02  0.92848764687E+01 -0.10430481129E+04  0.10432619857E+04  0.10000000000E+01 0.  0.
    9000005    1    3    3    0    0 -0.18947193753E+02 -0.92848764687E+01 -0.28096727978E+02  0.35151546271E+02  0.10000000000E+01 0.  0.
<mgrwt>
<rscale>  0 0.12499790E+03</rscale>
<asrwt>0</asrwt>
<pdfrwt beam="1">  1        4 0.55913094E-03 0.12499790E+03</pdfrwt>
<pdfrwt beam="2">  1       -4 0.16535039E+00 0.12499790E+03</pdfrwt>
<totfact> 0.28125244E+03</totfact>
</mgrwt>
</event>
<event>
 5    1  0.3217527E-002  0.1249925E+03  0.7818608E-02  0.1235081E+00
         -4   -1    0    0    0  501 -0.00000000000E+00  0.00000000000E+00  0.40765897894E+03  0.40766095718E+03  0.12700000000E+01 0.  1.
          4   -1    0    0  501    0  0.00000000000E+00 -0.00000000000E+00 -0.95369008102E+01  0.96210902222E+01  0.12700000000E+01 0.  1.
         25    2    1    2    0    0  0.00000000000E+00  0.00000000000E+00  0.39812207813E+03  0.41728204740E+03  0.12499247174E+03 0.  0.
    9000005    1    3    3    0    0 -0.16074583053E+02  0.21669087967E+02  0.10894077509E+02  0.29113957450E+02  0.10000000000E+01 0.  0.
    9000005    1    3    3    0    0  0.16074583053E+02 -0.21669087967E+02  0.38722800062E+03  0.38816808995E+03  0.10000000000E+01 0.  0.
<mgrwt>
<rscale>  0 0.12499247E+03</rscale>
<asrwt>0</asrwt>
<pdfrwt beam="2">  1        4 0.14738436E-02 0.12499247E+03</pdfrwt>
<pdfrwt beam="1">  1       -4 0.62723401E-01 0.12499247E+03</pdfrwt>
<totfact> 0.62916404E+03</totfact>
</mgrwt>
</event>
<event>
 5    1  0.3217527E-002  0.1249986E+03  0.7818608E-02  0.1235071E+00
          4   -1    0    0  501    0  0.00000000000E+00  0.00000000000E+00  0.64430061227E+03  0.64430186393E+03  0.12700000000E+01 0.  1.
         -4   -1    0    0    0  501 -0.00000000000E+00 -0.00000000000E+00 -0.59948593466E+01  0.61279065418E+01  0.12700000000E+01 0.  1.
         25    2    1    2    0    0  0.00000000000E+00  0.00000000000E+00  0.63830575292E+03  0.65042977048E+03  0.12499860843E+03 0.  0.
    9000005    1    3    3    0    0  0.28562217294E+02  0.49398735294E+02  0.45172747206E+03  0.45531828903E+03  0.10000000000E+01 0.  0.
    9000005    1    3    3    0    0 -0.28562217294E+02 -0.49398735294E+02  0.18657828086E+03  0.19511148145E+03  0.10000000000E+01 0.  0.
<mgrwt>
<rscale>  0 0.12499861E+03</rscale>
<asrwt>0</asrwt>
<pdfrwt beam="1">  1        4 0.99133417E-01 0.12499861E+03</pdfrwt>
<pdfrwt beam="2">  1       -4 0.93261753E-03 0.12499861E+03</pdfrwt>
<totfact> 0.45832833E+03</totfact>
</mgrwt>
</event>
<event>
 5    1  0.3217527E-002  0.1250023E+03  0.7818608E-02  0.1235066E+00
         -4   -1    0    0    0  501 -0.00000000000E+00  0.00000000000E+00  0.30321783436E+02  0.30348368172E+02  0.12700000000E+01 0. -1.
          4   -1    0    0  501    0  0.00000000000E+00 -0.00000000000E+00 -0.12874507565E+03  0.12875133943E+03  0.12700000000E+01 0. -1.
         25    2    1    2    0    0  0.00000000000E+00  0.00000000000E+00 -0.98423292213E+02  0.15909970760E+03  0.12500229001E+03 0.  0.
    9000005    1    3    3    0    0  0.59609310520E+02  0.98789133066E+01 -0.69517495245E+02  0.92111589792E+02  0.10000000000E+01 0.  0.
    9000005    1    3    3    0    0 -0.59609310520E+02 -0.98789133066E+01 -0.28905796968E+02  0.66988117806E+02  0.10000000000E+01 0.  0.
<mgrwt>
<rscale>  0 0.12500229E+03</rscale>
<asrwt>0</asrwt>
<pdfrwt beam="2">  1        4 0.19809461E-01 0.12500229E+03</pdfrwt>
<pdfrwt beam="1">  1       -4 0.46674166E-02 0.12500229E+03</pdfrwt>
<totfact> 0.97511616E+03</totfact>
</mgrwt>
</event>
<event>
 5    1  0.3217527E-002  0.1250002E+03  0.7818608E-02  0.1235069E+00
          4   -1    0    0  501    0  0.00000000000E+00  0.00000000000E+00  0.35216232131E+02  0.35239124642E+02  0.12700000000E+01 0.  1.
         -4   -1    0    0    0  501 -0.00000000000E+00 -0.00000000000E+00 -0.11085966740E+03  0.11086694168E+03  0.12700000000E+01 0.  1.
         25    2    1    2    0    0  0.00000000000E+00  0.00000000000E+00 -0.75643435273E+02  0.14610606632E+03  0.12500021326E+03 0.  0.
    9000005    1    3    3    0    0  0.25300131672E+01  0.59725942181E+02 -0.59108662473E+02  0.84073914595E+02  0.10000000000E+01 0.  0.
    9000005    1    3    3    0    0 -0.25300131672E+01 -0.59725942181E+02 -0.16534772800E+02  0.62032151724E+02  0.10000000000E+01 0.  0.
<mgrwt>
<rscale>  0 0.12500021E+03</rscale>
<asrwt>0</asrwt>
<pdfrwt beam="1">  1        4 0.54202024E-02 0.12500021E+03</pdfrwt>
<pdfrwt beam="2">  1       -4 0.17057654E-01 0.12500021E+03</pdfrwt>
<totfact> 0.10008516E+04</totfact>
</mgrwt>
</event>
<event>
 5    1  0.3217527E-002  0.1250033E+03  0.7818608E-02  0.1235064E+00
          4   -1    0    0  501    0  0.00000000000E+00  0.00000000000E+00  0.24374597993E+02  0.24407661242E+02  0.12700000000E+01 0. -1.
         -4   -1    0    0    0  501 -0.00000000000E+00 -0.00000000000E+00 -0.16012339985E+03  0.16012843620E+03  0.12700000000E+01 0. -1.
         25    2    1    2    0    0  0.00000000000E+00  0.00000000000E+00 -0.13574880186E+03  0.18453609744E+03  0.12500333617E+03 0.  0.
    9000005    1    3    3    0    0 -0.41332014170E+02 -0.13585903391E+02 -0.13410103354E+03  0.14098581263E+03  0.10000000000E+01 0.  0.
    9000005    1    3    3    0    0  0.41332014170E+02  0.13585903391E+02 -0.16477683113E+01  0.43550284806E+02  0.10000000000E+01 0.  0.
<mgrwt>
<rscale>  0 0.12500334E+03</rscale>
<asrwt>0</asrwt>
<pdfrwt beam="1">  1        4 0.37528690E-02 0.12500334E+03</pdfrwt>
<pdfrwt beam="2">  1       -4 0.24637299E-01 0.12500334E+03</pdfrwt>
<totfact> 0.92799866E+03</totfact>
</mgrwt>
</event>
<event>
 5    1  0.3217527E-002  0.1250017E+03  0.7818608E-02  0.1235067E+00
          4   -1    0    0  501    0  0.00000000000E+00  0.00000000000E+00  0.18206087352E+02  0.18250329221E+02  0.12700000000E+01 0.  1.
         -4   -1    0    0    0  501 -0.00000000000E+00 -0.00000000000E+00 -0.21425680881E+03  0.21426057272E+03  0.12700000000E+01 0.  1.
         25    2    1    2    0    0  0.00000000000E+00  0.00000000000E+00 -0.19605072146E+03  0.23251090194E+03  0.12500173653E+03 0.  0.
    9000005    1    3    3    0    0  0.47779918489E+02  0.26012590894E+02 -0.40821803680E+02  0.68022019608E+02  0.10000000000E+01 0.  0.
    9000005    1    3    3    0    0 -0.47779918489E+02 -0.26012590894E+02 -0.15522891778E+03  0.16448888233E+03  0.10000000000E+01 0.  0.
<mgrwt>
<rscale>  0 0.12500174E+03</rscale>
<asrwt>0</asrwt>
<pdfrwt beam="1">  1        4 0.28046294E-02 0.12500174E+03</pdfrwt>
<pdfrwt beam="2">  1       -4 0.32966277E-01 0.12500174E+03</pdfrwt>
<totfact> 0.84922242E+03</totfact>
</mgrwt>
</event>
<event>
 5    1  0.3217527E-002  0.1250006E+03  0.7818608E-02  0.1235068E+00
          4   -1    0    0  501    0  0.00000000000E+00  0.00000000000E+00  0.63292404314E+02  0.63305144687E+02  0.12700000000E+01 0. -1.
         -4   -1    0    0    0  501 -0.00000000000E+00 -0.00000000000E+00 -0.61692605876E+02  0.61705676560E+02  0.12700000000E+01 0. -1.
         25    2    1    2    0    0  0.00000000000E+00  0.00000000000E+00  0.15997984378E+01  0.12501082125E+03  0.12500058429E+03 0.  0.
    9000005    1    3    3    0    0  0.59084824263E+02  0.17435119636E+02  0.11302505002E+02  0.62639815407E+02  0.10000000000E+01 0.  0.
    9000005    1    3    3    0    0 -0.59084824263E+02 -0.17435119636E+02 -0.97027065639E+01  0.62371005840E+02  0.10000000000E+01 0.  0.
<mgrwt>
<rscale>  0 0.12500058E+03</rscale>
<asrwt>0</asrwt>
<pdfrwt beam="1">  1        4 0.97392784E-02 0.12500058E+03</pdfrwt>
<pdfrwt beam="2">  1       -4 0.94931556E-02 0.12500058E+03</pdfrwt>
<totfact> 0.10452489E+04</totfact>
</mgrwt>
</event>
<event>
 5    1  0.3217527E-002  0.1249976E+03  0.7818608E-02  0.1235073E+00
          4   -1    0    0  501    0  0.00000000000E+00  0.00000000000E+00  0.10210865678E+03  0.10211655443E+03  0.12700000000E+01 0. -1.
         -4   -1    0    0    0  501 -0.00000000000E+00 -0.00000000000E+00 -0.38234440746E+02  0.38255527171E+02  0.12700000000E+01 0. -1.
         25    2    1    2    0    0  0.00000000000E+00  0.00000000000E+00  0.63874216031E+02  0.14037208160E+03  0.12499762326E+03 0.  0.
    9000005    1    3    3    0    0  0.22360056994E+02  0.50603934453E+02  0.64569256713E+02  0.85034811950E+02  0.10000000000E+01 0.  0.
    9000005    1    3    3    0    0 -0.22360056994E+02 -0.50603934453E+02 -0.69504068184E+00  0.55337269652E+02  0.10000000000E+01 0.  0.
<mgrwt>
<rscale>  0 0.12499762E+03</rscale>
<asrwt>0</asrwt>
<pdfrwt beam="1">  1        4 0.15711254E-01 0.12499762E+03</pdfrwt>
<pdfrwt beam="2">  1       -4 0.58844512E-02 0.12499762E+03</pdfrwt>
<totfact> 0.10126422E+04</totfact>
</mgrwt>
</event>
<event>
 5    1  0.3217527E-002  0.1250013E+03  0.7818608E-02  0.1235067E+00
         -4   -1    0    0    0  501 -0.00000000000E+00  0.00000000000E+00  0.11537164477E+04  0.11537171467E+04  0.12700000000E+01 0.  1.
          4   -1    0    0  501    0  0.00000000000E+00 -0.00000000000E+00 -0.32660529047E+01  0.35042833185E+01  0.12700000000E+01 0.  1.
         25    2    1    2    0    0  0.00000000000E+00  0.00000000000E+00  0.11504503948E+04  0.11572214300E+04  0.12500130885E+03 0.  0.
    9000005    1    3    3    0    0 -0.61922231392E+02  0.83408507207E+01  0.58617617726E+03  0.58949761943E+03  0.10000000000E+01 0.  0.
    9000005    1    3    3    0    0  0.61922231392E+02 -0.83408507207E+01  0.56427421754E+03  0.56772381059E+03  0.10000000000E+01 0.  0.
<mgrwt>
<rscale>  0 0.12500131E+03</rscale>
<asrwt>0</asrwt>
<pdfrwt beam="2">  1        4 0.52084865E-03 0.12500131E+03</pdfrwt>
<pdfrwt beam="1">  1       -4 0.17751329E+00 0.12500131E+03</pdfrwt>
<totfact> 0.25859961E+03</totfact>
</mgrwt>
</event>
<event>
 5    1  0.3217527E-002  0.1250128E+03  0.7818608E-02  0.1235049E+00
         -4   -1    0    0    0  501 -0.00000000000E+00  0.00000000000E+00  0.26889796698E+03  0.26890096605E+03  0.12700000000E+01 0. -1.
          4   -1    0    0  501    0  0.00000000000E+00 -0.00000000000E+00 -0.14499019052E+02  0.14554533777E+02  0.12700000000E+01 0. -1.
         25    2    1    2    0    0  0.00000000000E+00  0.00000000000E+00  0.25439894793E+03  0.28345549983E+03  0.12501278206E+03 0.  0.
    9000005    1    3    3    0    0  0.17121444004E+01 -0.19544663761E+02  0.26174557060E+03  0.26248174993E+03  0.10000000000E+01 0.  0.
    9000005    1    3    3    0    0 -0.17121444004E+01  0.19544663761E+02 -0.73466226741E+01  0.20973749896E+02  0.10000000000E+01 0.  0.
<mgrwt>
<rscale>  0 0.12501278E+03</rscale>
<asrwt>0</asrwt>
<pdfrwt beam="2">  1        4 0.22351195E-02 0.12501278E+03</pdfrwt>
<pdfrwt beam="1">  1       -4 0.41373417E-01 0.12501278E+03</pdfrwt>
<totfact> 0.77700078E+03</totfact>
</mgrwt>
</event>
<event>
 5    1  0.3217527E-002  0.1249966E+03  0.7818608E-02  0.1235075E+00
         -4   -1    0    0    0  501 -0.00000000000E+00  0.00000000000E+00  0.39814484480E+02  0.39834734522E+02  0.12700000000E+01 0. -1.
          4   -1    0    0  501    0  0.00000000000E+00 -0.00000000000E+00 -0.98056647086E+02  0.98064871068E+02  0.12700000000E+01 0. -1.
         25    2    1    2    0    0  0.00000000000E+00  0.00000000000E+00 -0.58242162606E+02  0.13789960559E+03  0.12499660682E+03 0.  0.
    9000005    1    3    3    0    0 -0.59161290284E+02 -0.12030743172E+02 -0.11323845294E+02  0.61433106071E+02  0.10000000000E+01 0.  0.
    9000005    1    3    3    0    0  0.59161290284E+02  0.12030743172E+02 -0.46918317312E+02  0.76466499519E+02  0.10000000000E+01 0.  0.
<mgrwt>
<rscale>  0 0.12499661E+03</rscale>
<asrwt>0</asrwt>
<pdfrwt beam="2">  1        4 0.15087828E-01 0.12499661E+03</pdfrwt>
<pdfrwt beam="1">  1       -4 0.61274957E-02 0.12499661E+03</pdfrwt>
<totfact> 0.10178083E+04</totfact>
</mgrwt>
</event>
<event>
 5    1  0.3217527E-002  0.1250032E+03  0.7818608E-02  0.1235064E+00
          4   -1    0    0  501    0  0.00000000000E+00  0.00000000000E+00  0.45222774032E+02  0.45240603346E+02  0.12700000000E+01 0. -1.
         -4   -1    0    0    0  501 -0.00000000000E+00 -0.00000000000E+00 -0.86342872630E+02  0.86352212213E+02  0.12700000000E+01 0. -1.
         25    2    1    2    0    0  0.00000000000E+00  0.00000000000E+00 -0.41120098598E+02  0.13159281556E+03  0.12500322635E+03 0.  0.
    9000005    1    3    3    0    0  0.22244888620E+02 -0.35091779418E+02  0.28582520985E+02  0.50440346532E+02  0.10000000000E+01 0.  0.
    9000005    1    3    3    0    0 -0.22244888620E+02  0.35091779418E+02 -0.69702619583E+02  0.81152469027E+02  0.10000000000E+01 0.  0.
<mgrwt>
<rscale>  0 0.12500323E+03</rscale>
<asrwt>0</asrwt>
<pdfrwt beam="1">  1        4 0.69594398E-02 0.12500323E+03</pdfrwt>
<pdfrwt beam="2">  1       -4 0.13285609E-01 0.12500323E+03</pdfrwt>
<totfact> 0.10309647E+04</totfact>
</mgrwt>
</event>
<event>
 5    1  0.3217527E-002  0.1249994E+03  0.7818608E-02  0.1235070E+00
         -4   -1    0    0    0  501 -0.00000000000E+00  0.00000000000E+00  0.68424893382E+02  0.68436678283E+02  0.12700000000E+01 0.  1.
          4   -1    0    0  501    0  0.00000000000E+00 -0.00000000000E+00 -0.57063840920E+02  0.57077971587E+02  0.12700000000E+01 0.  1.
         25    2    1    2    0    0  0.00000000000E+00  0.00000000000E+00  0.11361052463E+02  0.12551464987E+03  0.12499941527E+03 0.  0.
    9000005    1    3    3    0    0  0.40801330154E+02 -0.39496937061E+02  0.31873616566E+02  0.65128212108E+02  0.10000000000E+01 0.  0.
    9000005    1    3    3    0    0 -0.40801330154E+02  0.39496937061E+02 -0.20512564103E+02  0.60386437762E+02  0.10000000000E+01 0.  0.
<mgrwt>
<rscale>  0 0.12499942E+03</rscale>
<asrwt>0</asrwt>
<pdfrwt beam="2">  1        4 0.87810460E-02 0.12499942E+03</pdfrwt>
<pdfrwt beam="1">  1       -4 0.10528900E-01 0.12499942E+03</pdfrwt>
<totfact> 0.10441768E+04</totfact>
</mgrwt>
</event>
<event>
 5    1  0.3217527E-002  0.1250011E+03  0.7818608E-02  0.1235068E+00
          4   -1    0    0  501    0  0.00000000000E+00  0.00000000000E+00  0.13374081374E+02  0.13434245517E+02  0.12700000000E+01 0. -1.
         -4   -1    0    0    0  501 -0.00000000000E+00 -0.00000000000E+00 -0.29136428563E+03  0.29136705345E+03  0.12700000000E+01 0. -1.
         25    2    1    2    0    0  0.00000000000E+00  0.00000000000E+00 -0.27799020425E+03  0.30480129897E+03  0.12500111277E+03 0.  0.
    9000005    1    3    3    0    0  0.18214129564E+02  0.42469442726E+02 -0.36411320235E+02  0.58840397029E+02  0.10000000000E+01 0.  0.
    9000005    1    3    3    0    0 -0.18214129564E+02 -0.42469442726E+02 -0.24157888402E+03  0.24596090194E+03  0.10000000000E+01 0.  0.
<mgrwt>
<rscale>  0 0.12500111E+03</rscale>
<asrwt>0</asrwt>
<pdfrwt beam="1">  1        4 0.20623921E-02 0.12500111E+03</pdfrwt>
<pdfrwt beam="2">  1       -4 0.44830111E-01 0.12500111E+03</pdfrwt>
<totfact> 0.74998643E+03</totfact>
</mgrwt>
</event>
<event>
 5    1  0.3217527E-002  0.1249948E+03  0.7818608E-02  0.1235077E+00
         -4   -1    0    0    0  501 -0.00000000000E+00  0.00000000000E+00  0.39686857847E+03  0.39687061050E+03  0.12700000000E+01 0. -1.
          4   -1    0    0  501    0  0.00000000000E+00 -0.00000000000E+00 -0.97988276069E+01  0.98807855189E+01  0.12700000000E+01 0. -1.
         25    2    1    2    0    0  0.00000000000E+00  0.00000000000E+00  0.38706975086E+03  0.40675139602E+03  0.12499482441E+03 0.  0.
    9000005    1    3    3    0    0 -0.60796668298E+02  0.14428891322E+02  0.19583302858E+03  0.20556264949E+03  0.10000000000E+01 0.  0.
    9000005    1    3    3    0    0  0.60796668298E+02 -0.14428891322E+02  0.19123672228E+03  0.20118874653E+03  0.10000000000E+01 0.  0.
<mgrwt>
<rscale>  0 0.12499482E+03</rscale>
<asrwt>0</asrwt>
<pdfrwt beam="2">  1        4 0.15139729E-02 0.12499482E+03</pdfrwt>
<pdfrwt beam="1">  1       -4 0.61063158E-01 0.12499482E+03</pdfrwt>
<totfact> 0.63908713E+03</totfact>
</mgrwt>
</event>
<event>
 5    1  0.3217527E-002  0.1250047E+03  0.7818608E-02  0.1235062E+00
         -4   -1    0    0    0  501 -0.00000000000E+00  0.00000000000E+00  0.38428467629E+02  0.38449447646E+02  0.12700000000E+01 0. -1.
          4   -1    0    0  501    0  0.00000000000E+00 -0.00000000000E+00 -0.10160481707E+03  0.10161275388E+03  0.12700000000E+01 0. -1.
         25    2    1    2    0    0  0.00000000000E+00  0.00000000000E+00 -0.63176349443E+02  0.14006220153E+03  0.12500467659E+03 0.  0.
    9000005    1    3    3    0    0  0.25080825380E+02 -0.17343624773E+02 -0.92708936956E+02  0.97600185008E+02  0.10000000000E+01 0.  0.
    9000005    1    3    3    0    0 -0.25080825380E+02  0.17343624773E+02  0.29532587514E+02  0.42462016523E+02  0.10000000000E+01 0.  0.
<mgrwt>
<rscale>  0 0.12500468E+03</rscale>
<asrwt>0</asrwt>
<pdfrwt beam="2">  1        4 0.15633735E-01 0.12500468E+03</pdfrwt>
<pdfrwt beam="1">  1       -4 0.59142964E-02 0.12500468E+03</pdfrwt>
<totfact> 0.10131229E+04</totfact>
</mgrwt>
</event>
<event>
 5    1  0.3217527E-002  0.1250148E+03  0.7818608E-02  0.1235046E+00
         -4   -1    0    0    0  501 -0.00000000000E+00  0.00000000000E+00  0.33397700337E+03  0.33397941805E+03  0.12700000000E+01 0. -1.
          4   -1    0    0  501    0  0.00000000000E+00 -0.00000000000E+00 -0.11662001402E+02  0.11730949522E+02  0.12700000000E+01 0. -1.
         25    2    1    2    0    0  0.00000000000E+00  0.00000000000E+00  0.32231500197E+03  0.34571036757E+03  0.12501479013E+03 0.  0.
    9000005    1    3    3    0    0 -0.26243568331E+02 -0.12021334843E+02  0.78625535548E+01  0.29934213177E+02  0.10000000000E+01 0.  0.
    9000005    1    3    3    0    0  0.26243568331E+02  0.12021334843E+02  0.31445244841E+03  0.31577615439E+03  0.10000000000E+01 0.  0.
<mgrwt>
<rscale>  0 0.12501479E+03</rscale>
<asrwt>0</asrwt>
<pdfrwt beam="2">  1        4 0.17996438E-02 0.12501479E+03</pdfrwt>
<pdfrwt beam="1">  1       -4 0.51386559E-01 0.12501479E+03</pdfrwt>
<totfact> 0.70176086E+03</totfact>
</mgrwt>
</event>
<event>
 5    1  0.3217527E-002  0.1249999E+03  0.7818608E-02  0.1235069E+00
          4   -1    0    0  501    0  0.00000000000E+00  0.00000000000E+00  0.51601078161E+03  0.51601234446E+03  0.12700000000E+01 0. -1.
         -4   -1    0    0    0  501 -0.00000000000E+00 -0.00000000000E+00 -0.75152318822E+01  0.76217852399E+01  0.12700000000E+01 0. -1.
         25    2    1    2    0    0  0.00000000000E+00  0.00000000000E+00  0.50849554973E+03  0.52363412970E+03  0.12499991079E+03 0.  0.
    9000005    1    3    3    0    0  0.26881516750E+02 -0.43363715105E+02  0.40541577639E+03  0.40861470786E+03  0.10000000000E+01 0.  0.
    9000005    1    3    3    0    0 -0.26881516750E+02  0.43363715105E+02  0.10307977334E+03  0.11501942184E+03  0.10000000000E+01 0.  0.
<mgrwt>
<rscale>  0 0.12499991E+03</rscale>
<asrwt>0</asrwt>
<pdfrwt beam="1">  1        4 0.79394581E-01 0.12499991E+03</pdfrwt>
<pdfrwt beam="2">  1       -4 0.11645063E-02 0.12499991E+03</pdfrwt>
<totfact> 0.54076280E+03</totfact>
</mgrwt>
</event>
<event>
 5    1  0.3217527E-002  0.1250018E+03  0.7818608E-02  0.1235067E+00
         -4   -1    0    0    0  501 -0.00000000000E+00  0.00000000000E+00  0.60360779074E+01  0.61682360935E+01  0.12700000000E+01 0.  1.
          4   -1    0    0  501    0  0.00000000000E+00 -0.00000000000E+00 -0.64002777284E+03  0.64002903287E+03  0.12700000000E+01 0.  1.
         25    2    1    2    0    0  0.00000000000E+00  0.00000000000E+00 -0.63399169494E+03  0.64619726896E+03  0.12500176464E+03 0.  0.
    9000005    1    3    3    0    0  0.24470816563E+02 -0.77654107555E+01 -0.61153236056E+03  0.61207185075E+03  0.10000000000E+01 0.  0.
    9000005    1    3    3    0    0 -0.24470816563E+02  0.77654107555E+01 -0.22459334378E+02  0.34125418212E+02  0.10000000000E+01 0.  0.
<mgrwt>
<rscale>  0 0.12500176E+03</rscale>
<asrwt>0</asrwt>
<pdfrwt beam="2">  1        4 0.98476021E-01 0.12500176E+03</pdfrwt>
<pdfrwt beam="1">  1       -4 0.93889082E-03 0.12500176E+03</pdfrwt>
<totfact> 0.46073686E+03</totfact>
</mgrwt>
</event>
<event>
 5    1  0.3217527E-002  0.1250009E+03  0.7818608E-02  0.1235068E+00
          4   -1    0    0  501    0  0.00000000000E+00  0.00000000000E+00  0.29152821829E+02  0.29180471562E+02  0.12700000000E+01 0. -1.
         -4   -1    0    0    0  501 -0.00000000000E+00 -0.00000000000E+00 -0.13390002816E+03  0.13390605081E+03  0.12700000000E+01 0. -1.
         25    2    1    2    0    0  0.00000000000E+00  0.00000000000E+00 -0.10474720634E+03  0.16308652237E+03  0.12500094617E+03 0.  0.
    9000005    1    3    3    0    0 -0.60498872857E+02 -0.15550364799E+02 -0.49974380261E+02  0.80002288373E+02  0.10000000000E+01 0.  0.
    9000005    1    3    3    0    0  0.60498872857E+02  0.15550364799E+02 -0.54772826075E+02  0.83084233995E+02  0.10000000000E+01 0.  0.
<mgrwt>
<rscale>  0 0.12500095E+03</rscale>
<asrwt>0</asrwt>
<pdfrwt beam="1">  1        4 0.44876398E-02 0.12500095E+03</pdfrwt>
<pdfrwt beam="2">  1       -4 0.20602594E-01 0.12500095E+03</pdfrwt>
<totfact> 0.96748950E+03</totfact>
</mgrwt>
</event>
<event>
 5    1  0.3217527E-002  0.1250005E+03  0.7818608E-02  0.1235068E+00
          4   -1    0    0  501    0  0.00000000000E+00  0.00000000000E+00  0.22591022495E+03  0.22591379470E+03  0.12700000000E+01 0.  1.
         -4   -1    0    0    0  501 -0.00000000000E+00 -0.00000000000E+00 -0.17264268541E+02  0.17310917603E+02  0.12700000000E+01 0.  1.
         25    2    1    2    0    0  0.00000000000E+00  0.00000000000E+00  0.20864595641E+03  0.24322471230E+03  0.12500050220E+03 0.  0.
    9000005    1    3    3    0    0 -0.59694249644E+02  0.16849430273E+02  0.11913843325E+03  0.13432152850E+03  0.10000000000E+01 0.  0.
    9000005    1    3    3    0    0  0.59694249644E+02 -0.16849430273E+02  0.89507523160E+02  0.10890318381E+03  0.10000000000E+01 0.  0.
<mgrwt>
<rscale>  0 0.12500050E+03</rscale>
<asrwt>0</asrwt>
<pdfrwt beam="1">  1        4 0.34759279E-01 0.12500050E+03</pdfrwt>
<pdfrwt beam="2">  1       -4 0.26599045E-02 0.12500050E+03</pdfrwt>
<totfact> 0.83318505E+03</totfact>
</mgrwt>
</event>
<event>
 5    1  0.3217527E-002  0.1250005E+03  0.7818608E-02  0.1235069E+00
          4   -1    0    0  501    0  0.00000000000E+00  0.00000000000E+00  0.84715635502E+02  0.84725154461E+02  0.12700000000E+01 0.  1.
         -4   -1    0    0    0  501 -0.00000000000E+00 -0.00000000000E+00 -0.46089619233E+02  0.46107113345E+02  0.12700000000E+01 0.  1.
         25    2    1    2    0    0  0.00000000000E+00  0.00000000000E+00  0.38626016269E+02  0.13083226781E+03  0.12500045266E+03 0.  0.
    9000005    1    3    3    0    0  0.29665568249E+02 -0.54996413080E+02  0.18484298188E+02  0.65171471295E+02  0.10000000000E+01 0.  0.
    9000005    1    3    3    0    0 -0.29665568249E+02  0.54996413080E+02  0.20141718081E+02  0.65660796511E+02  0.10000000000E+01 0.  0.
<mgrwt>
<rscale>  0 0.12500045E+03</rscale>
<asrwt>0</asrwt>
<pdfrwt beam="1">  1        4 0.13035253E-01 0.12500045E+03</pdfrwt>
<pdfrwt beam="2">  1       -4 0.70927886E-02 0.12500045E+03</pdfrwt>
<totfact> 0.10326581E+04</totfact>
</mgrwt>
</event>
<event>
 5    1  0.3217527E-002  0.1250035E+03  0.7818608E-02  0.1235064E+00
          4   -1    0    0  501    0  0.00000000000E+00  0.00000000000E+00  0.14661919788E+02  0.14716820032E+02  0.12700000000E+01 0. -1.
         -4   -1    0    0    0  501 -0.00000000000E+00 -0.00000000000E+00 -0.26588191979E+03  0.26588495289E+03  0.12700000000E+01 0. -1.
         25    2    1    2    0    0  0.00000000000E+00  0.00000000000E+00 -0.25122000000E+03  0.28060177292E+03  0.12500346621E+03 0.  0.
    9000005    1    3    3    0    0 -0.51948540522E+01  0.49847358819E+02 -0.20941236389E+03  0.21532831639E+03  0.10000000000E+01 0.  0.
    9000005    1    3    3    0    0  0.51948540522E+01 -0.49847358819E+02 -0.41807636114E+02  0.65273456529E+02  0.10000000000E+01 0.  0.
<mgrwt>
<rscale>  0 0.12500347E+03</rscale>
<asrwt>0</asrwt>
<pdfrwt beam="1">  1        4 0.22601366E-02 0.12500347E+03</pdfrwt>
<pdfrwt beam="2">  1       -4 0.40909363E-01 0.12500347E+03</pdfrwt>
<totfact> 0.78092367E+03</totfact>
</mgrwt>
</event>
<event>
 5    1  0.3217527E-002  0.1250011E+03  0.7818608E-02  0.1235067E+00
         -4   -1    0    0    0  501 -0.00000000000E+00  0.00000000000E+00  0.14634277882E+03  0.14634828940E+03  0.12700000000E+01 0.  1.
          4   -1    0    0  501    0  0.00000000000E+00 -0.00000000000E+00 -0.26671836227E+02  0.26702055122E+02  0.12700000000E+01 0.  1.
         25    2    1    2    0    0  0.00000000000E+00  0.00000000000E+00  0.11967094259E+03  0.17305034453E+03  0.12500114896E+03 0.  0.
    9000005    1    3    3    0    0 -0.60454555666E+02 -0.14692457030E+02  0.67990482297E+02  0.92164674780E+02  0.10000000000E+01 0.  0.
    9000005    1    3    3    0    0  0.60454555666E+02  0.14692457030E+02  0.51680460292E+02  0.80885669746E+02  0.10000000000E+01 0.  0.
<mgrwt>
<rscale>  0 0.12500115E+03</rscale>
<asrwt>0</asrwt>
<pdfrwt beam="2">  1        4 0.41061079E-02 0.12500115E+03</pdfrwt>
<pdfrwt beam="1">  1       -4 0.22517022E-01 0.12500115E+03</pdfrwt>
<totfact> 0.94880687E+03</totfact>
</mgrwt>
</event>
<event>
 5    1  0.3217527E-002  0.1250000E+03  0.7818608E-02  0.1235069E+00
          4   -1    0    0  501    0  0.00000000000E+00  0.00000000000E+00  0.16369809366E+02  0.16418999930E+02  0.12700000000E+01 0.  1.
         -4   -1    0    0    0  501 -0.00000000000E+00 -0.00000000000E+00 -0.23821651749E+03  0.23821990283E+03  0.12700000000E+01 0.  1.
         25    2    1    2    0    0  0.00000000000E+00  0.00000000000E+00 -0.22184670812E+03  0.25463890276E+03  0.12500003558E+03 0.  0.
    9000005    1    3    3    0    0  0.17417359638E+02  0.59690470392E+02 -0.12363459003E+03  0.13839374453E+03  0.10000000000E+01 0.  0.
    9000005    1    3    3    0    0 -0.17417359638E+02 -0.59690470392E+02 -0.98212118092E+02  0.11624515823E+03  0.10000000000E+01 0.  0.
<mgrwt>
<rscale>  0 0.12500004E+03</rscale>
<asrwt>0</asrwt>
<pdfrwt beam="1">  1        4 0.25224767E-02 0.12500004E+03</pdfrwt>
<pdfrwt beam="2">  1       -4 0.36652737E-01 0.12500004E+03</pdfrwt>
<totfact> 0.81664287E+03</totfact>
</mgrwt>
</event>
<event>
 5    1  0.3217527E-002  0.1249988E+03  0.7818608E-02  0.1235071E+00
         -4   -1    0    0    0  501 -0.00000000000E+00  0.00000000000E+00  0.23232572588E+03  0.23232919706E+03  0.12700000000E+01 0.  1.
          4   -1    0    0  501    0  0.00000000000E+00 -0.00000000000E+00 -0.16785763944E+02  0.16833739073E+02  0.12700000000E+01 0.  1.
         25    2    1    2    0    0  0.00000000000E+00  0.00000000000E+00  0.21553996193E+03  0.24916293613E+03  0.12499877419E+03 0.  0.
    9000005    1    3    3    0    0  0.25215868576E+02  0.29074292304E+01 -0.60569715594E+01  0.26114748271E+02  0.10000000000E+01 0.  0.
    9000005    1    3    3    0    0 -0.25215868576E+02 -0.29074292304E+01  0.22159693349E+03  0.22304818786E+03  0.10000000000E+01 0.  0.
<mgrwt>
<rscale>  0 0.12499877E+03</rscale>
<asrwt>0</asrwt>
<pdfrwt beam="2">  1        4 0.25863828E-02 0.12499877E+03</pdfrwt>
<pdfrwt beam="1">  1       -4 0.35746374E-01 0.12499877E+03</pdfrwt>
<totfact> 0.82453613E+03</totfact>
</mgrwt>
</event>
<event>
 5    1  0.3217527E-002  0.1250005E+03  0.7818608E-02  0.1235068E+00
          4   -1    0    0  501    0  0.00000000000E+00  0.00000000000E+00  0.76188235729E+03  0.76188341578E+03  0.12700000000E+01 0. -1.
         -4   -1    0    0    0  501 -0.00000000000E+00 -0.00000000000E+00 -0.50474245506E+01  0.52047473132E+01  0.12700000000E+01 0. -1.
         25    2    1    2    0    0  0.00000000000E+00  0.00000000000E+00  0.75683493274E+03  0.76708816310E+03  0.12500053821E+03 0.  0.
    9000005    1    3    3    0    0 -0.56475121331E+02 -0.11371281712E+02  0.52703894299E+03  0.53017901958E+03  0.10000000000E+01 0.  0.
    9000005    1    3    3    0    0  0.56475121331E+02  0.11371281712E+02  0.22979598975E+03  0.23690914352E+03  0.10000000000E+01 0.  0.
<mgrwt>
<rscale>  0 0.12500054E+03</rscale>
<asrwt>0</asrwt>
<pdfrwt beam="1">  1        4 0.11722480E+00 0.12500054E+03</pdfrwt>
<pdfrwt beam="2">  1       -4 0.78871040E-03 0.12500054E+03</pdfrwt>
<totfact> 0.39769388E+03</totfact>
</mgrwt>
</event>
<event>
 5    1  0.3217527E-002  0.1249996E+03  0.7818608E-02  0.1235070E+00
          4   -1    0    0  501    0  0.00000000000E+00  0.00000000000E+00  0.11913441821E+03  0.11914118726E+03  0.12700000000E+01 0.  1.
         -4   -1    0    0    0  501 -0.00000000000E+00 -0.00000000000E+00 -0.32768397559E+02  0.32792998926E+02  0.12700000000E+01 0.  1.
         25    2    1    2    0    0  0.00000000000E+00  0.00000000000E+00  0.86366020647E+02  0.15193418618E+03  0.12499962963E+03 0.  0.
    9000005    1    3    3    0    0 -0.51074424937E+02  0.31855397041E+02  0.22776614206E+02  0.64367207163E+02  0.10000000000E+01 0.  0.
    9000005    1    3    3    0    0  0.51074424937E+02 -0.31855397041E+02  0.63589406440E+02  0.87566979020E+02  0.10000000000E+01 0.  0.
<mgrwt>
<rscale>  0 0.12499963E+03</rscale>
<asrwt>0</asrwt>
<pdfrwt beam="1">  1        4 0.18330785E-01 0.12499963E+03</pdfrwt>
<pdfrwt beam="2">  1       -4 0.50437051E-02 0.12499963E+03</pdfrwt>
<totfact> 0.98920360E+03</totfact>
</mgrwt>
</event>
<event>
 5    1  0.3217527E-002  0.1249959E+03  0.7818608E-02  0.1235076E+00
          4   -1    0    0  501    0  0.00000000000E+00  0.00000000000E+00  0.17198150555E+02  0.17244978473E+02  0.12700000000E+01 0. -1.
         -4   -1    0    0    0  501 -0.00000000000E+00 -0.00000000000E+00 -0.22675969689E+03  0.22676325327E+03  0.12700000000E+01 0. -1.
         25    2    1    2    0    0  0.00000000000E+00  0.00000000000E+00 -0.20956154634E+03  0.24400823174E+03  0.12499590176E+03 0.  0.
    9000005    1    3    3    0    0  0.27072963725E+02 -0.18330675547E+02 -0.82120087637E+00  0.32720534863E+02  0.10000000000E+01 0.  0.
    9000005    1    3    3    0    0 -0.27072963725E+02  0.18330675547E+02 -0.20874034546E+03  0.21128769688E+03  0.10000000000E+01 0.  0.
<mgrwt>
<rscale>  0 0.12499590E+03</rscale>
<asrwt>0</asrwt>
<pdfrwt beam="1">  1        4 0.26497452E-02 0.12499590E+03</pdfrwt>
<pdfrwt beam="2">  1       -4 0.34889981E-01 0.12499590E+03</pdfrwt>
<totfact> 0.83211612E+03</totfact>
</mgrwt>
</event>
<event>
 5    1  0.3217527E-002  0.1249979E+03  0.7818608E-02  0.1235073E+00
         -4   -1    0    0    0  501 -0.00000000000E+00  0.00000000000E+00  0.40883882671E+02  0.40903603292E+02  0.12700000000E+01 0.  1.
          4   -1    0    0  501    0  0.00000000000E+00 -0.00000000000E+00 -0.95494732929E+02  0.95503177524E+02  0.12700000000E+01 0.  1.
         25    2    1    2    0    0  0.00000000000E+00  0.00000000000E+00 -0.54610850257E+02  0.13640678082E+03  0.12499785953E+03 0.  0.
    9000005    1    3    3    0    0 -0.36975687575E+02  0.33775003049E+02  0.13484890368E+02  0.51872869314E+02  0.10000000000E+01 0.  0.
    9000005    1    3    3    0    0  0.36975687575E+02 -0.33775003049E+02 -0.68095740625E+02  0.84533911502E+02  0.10000000000E+01 0.  0.
<mgrwt>
<rscale>  0 0.12499786E+03</rscale>
<asrwt>0</asrwt>
<pdfrwt beam="2">  1        4 0.14693664E-01 0.12499786E+03</pdfrwt>
<pdfrwt beam="1">  1       -4 0.62919947E-02 0.12499786E+03</pdfrwt>
<totfact> 0.10208997E+04</totfact>
</mgrwt>
</event>
<event>
 5    1  0.3217527E-002  0.1249993E+03  0.7818608E-02  0.1235070E+00
          4   -1    0    0  501    0  0.00000000000E+00  0.00000000000E+00  0.22006090494E+02  0.22042706704E+02  0.12700000000E+01 0. -1.
         -4   -1    0    0    0  501 -0.00000000000E+00 -0.00000000000E+00 -0.17731915096E+03  0.17732369891E+03  0.12700000000E+01 0. -1.
         25    2    1    2    0    0  0.00000000000E+00  0.00000000000E+00 -0.15531306047E+03  0.19936640562E+03  0.12499926775E+03 0.  0.
    9000005    1    3    3    0    0  0.60999534874E+02  0.71202459226E+01 -0.96089177784E+02  0.11404284828E+03  0.10000000000E+01 0.  0.
    9000005    1    3    3    0    0 -0.60999534874E+02 -0.71202459226E+01 -0.59223882681E+02  0.85323557337E+02  0.10000000000E+01 0.  0.
<mgrwt>
<rscale>  0 0.12499927E+03</rscale>
<asrwt>0</asrwt>
<pdfrwt beam="1">  1        4 0.33887190E-02 0.12499927E+03</pdfrwt>
<pdfrwt beam="2">  1       -4 0.27283035E-01 0.12499927E+03</pdfrwt>
<totfact> 0.90243956E+03</totfact>
</mgrwt>
</event>
<event>
 5    1  0.3217527E-002  0.1249986E+03  0.7818608E-02  0.1235071E+00
          4   -1    0    0  501    0  0.00000000000E+00  0.00000000000E+00  0.13602328054E+02  0.13661487053E+02  0.12700000000E+01 0.  1.
         -4   -1    0    0    0  501 -0.00000000000E+00 -0.00000000000E+00 -0.28648514941E+03  0.28648796438E+03  0.12700000000E+01 0.  1.
         25    2    1    2    0    0  0.00000000000E+00  0.00000000000E+00 -0.27288282136E+03  0.30014945143E+03  0.12499863600E+03 0.  0.
    9000005    1    3    3    0    0  0.30977153810E+02  0.43273655164E+02 -0.21509641611E+03  0.22158443427E+03  0.10000000000E+01 0.  0.
    9000005    1    3    3    0    0 -0.30977153810E+02 -0.43273655164E+02 -0.57786405251E+02  0.78565017159E+02  0.10000000000E+01 0.  0.
<mgrwt>
<rscale>  0 0.12499864E+03</rscale>
<asrwt>0</asrwt>
<pdfrwt beam="1">  1        4 0.20974333E-02 0.12499864E+03</pdfrwt>
<pdfrwt beam="2">  1       -4 0.44079401E-01 0.12499864E+03</pdfrwt>
<totfact> 0.75582386E+03</totfact>
</mgrwt>
</event>
<event>
 5    1  0.3217527E-002  0.1250000E+03  0.7818608E-02  0.1235069E+00
         -4   -1    0    0    0  501 -0.00000000000E+00  0.00000000000E+00  0.76981696751E+02  0.76992171905E+02  0.12700000000E+01 0. -1.
          4   -1    0    0  501    0  0.00000000000E+00 -0.00000000000E+00 -0.50720729913E+02  0.50736627233E+02  0.12700000000E+01 0. -1.
         25    2    1    2    0    0  0.00000000000E+00  0.00000000000E+00  0.26260966838E+02  0.12772879914E+03  0.12500003100E+03 0.  0.
    9000005    1    3    3    0    0  0.94835736495E+01 -0.19609191347E+02 -0.46721147656E+02  0.51558939019E+02  0.10000000000E+01 0.  0.
    9000005    1    3    3    0    0 -0.94835736495E+01  0.19609191347E+02  0.72982114494E+02  0.76169860118E+02  0.10000000000E+01 0.  0.
<mgrwt>
<rscale>  0 0.12500003E+03</rscale>
<asrwt>0</asrwt>
<pdfrwt beam="2">  1        4 0.78052178E-02 0.12500003E+03</pdfrwt>
<pdfrwt beam="1">  1       -4 0.11845367E-01 0.12500003E+03</pdfrwt>
<totfact> 0.10393341E+04</totfact>
</mgrwt>
</event>
<event>
 5    1  0.3217527E-002  0.1250016E+03  0.7818608E-02  0.1235067E+00
         -4   -1    0    0    0  501 -0.00000000000E+00  0.00000000000E+00  0.88488094126E+02  0.88497207312E+02  0.12700000000E+01 0.  1.
          4   -1    0    0  501    0  0.00000000000E+00 -0.00000000000E+00 -0.44124988726E+02  0.44143261435E+02  0.12700000000E+01 0.  1.
         25    2    1    2    0    0  0.00000000000E+00  0.00000000000E+00  0.44363105400E+02  0.13264046875E+03  0.12500163530E+03 0.  0.
    9000005    1    3    3    0    0  0.37328672807E+02  0.44144432835E+02  0.47363445878E+02  0.74742603442E+02  0.10000000000E+01 0.  0.
    9000005    1    3    3    0    0 -0.37328672807E+02 -0.44144432835E+02 -0.30003404780E+01  0.57897865305E+02  0.10000000000E+01 0.  0.
<mgrwt>
<rscale>  0 0.12500164E+03</rscale>
<asrwt>0</asrwt>
<pdfrwt beam="2">  1        4 0.67905665E-02 0.12500164E+03</pdfrwt>
<pdfrwt beam="1">  1       -4 0.13615659E-01 0.12500164E+03</pdfrwt>
<totfact> 0.10287667E+04</totfact>
</mgrwt>
</event>
<event>
 5    1  0.3217527E-002  0.1250091E+03  0.7818608E-02  0.1235055E+00
          4   -1    0    0  501    0  0.00000000000E+00  0.00000000000E+00  0.46376791185E+02  0.46394177012E+02  0.12700000000E+01 0.  1.
         -4   -1    0    0    0  501 -0.00000000000E+00 -0.00000000000E+00 -0.84202916907E+02  0.84212493821E+02  0.12700000000E+01 0.  1.
         25    2    1    2    0    0  0.00000000000E+00  0.00000000000E+00 -0.37826125722E+02  0.13060667083E+03  0.12500914638E+03 0.  0.
    9000005    1    3    3    0    0  0.59354438285E+02  0.35531834250E+01 -0.39016460779E+02  0.71125654080E+02  0.10000000000E+01 0.  0.
    9000005    1    3    3    0    0 -0.59354438285E+02 -0.35531834250E+01  0.11903350578E+01  0.59481016754E+02  0.10000000000E+01 0.  0.
<mgrwt>
<rscale>  0 0.12500915E+03</rscale>
<asrwt>0</asrwt>
<pdfrwt beam="1">  1        4 0.71369650E-02 0.12500915E+03</pdfrwt>
<pdfrwt beam="2">  1       -4 0.12956369E-01 0.12500915E+03</pdfrwt>
<totfact> 0.10329397E+04</totfact>
</mgrwt>
</event>
<event>
 5    1  0.3217527E-002  0.1250022E+03  0.7818608E-02  0.1235066E+00
          4   -1    0    0  501    0  0.00000000000E+00  0.00000000000E+00  0.47056944540E+03  0.47057115917E+03  0.12700000000E+01 0.  1.
         -4   -1    0    0    0  501 -0.00000000000E+00 -0.00000000000E+00 -0.82510881028E+01  0.83482546008E+01  0.12700000000E+01 0.  1.
         25    2    1    2    0    0  0.00000000000E+00  0.00000000000E+00  0.46231835730E+03  0.47891941377E+03  0.12500216556E+03 0.  0.
    9000005    1    3    3    0    0 -0.45247517088E+02 -0.35841069180E+02  0.13941078280E+03  0.15089163795E+03  0.10000000000E+01 0.  0.
    9000005    1    3    3    0    0  0.45247517088E+02  0.35841069180E+02  0.32290757450E+03  0.32802777582E+03  0.10000000000E+01 0.  0.
<mgrwt>
<rscale>  0 0.12500217E+03</rscale>
<asrwt>0</asrwt>
<pdfrwt beam="1">  1        4 0.72402913E-01 0.12500217E+03</pdfrwt>
<pdfrwt beam="2">  1       -4 0.12770042E-02 0.12500217E+03</pdfrwt>
<totfact> 0.57535131E+03</totfact>
</mgrwt>
</event>
<event>
 5    1  0.3217527E-002  0.1250149E+03  0.7818608E-02  0.1235046E+00
         -4   -1    0    0    0  501 -0.00000000000E+00  0.00000000000E+00  0.75222770483E+01  0.76287320041E+01  0.12700000000E+01 0.  1.
          4   -1    0    0  501    0  0.00000000000E+00 -0.00000000000E+00 -0.51565787919E+03  0.51565944311E+03  0.12700000000E+01 0.  1.
         25    2    1    2    0    0  0.00000000000E+00  0.00000000000E+00 -0.50813560214E+03  0.52328817511E+03  0.12501489532E+03 0.  0.
    9000005    1    3    3    0    0  0.47325255539E+02  0.57410924311E+01 -0.84889684057E+02  0.97364769878E+02  0.10000000000E+01 0.  0.
    9000005    1    3    3    0    0 -0.47325255539E+02 -0.57410924311E+01 -0.42324591808E+03  0.42592340524E+03  0.10000000000E+01 0.  0.
<mgrwt>
<rscale>  0 0.12501490E+03</rscale>
<asrwt>0</asrwt>
<pdfrwt beam="2">  1        4 0.79340263E-01 0.12501490E+03</pdfrwt>
<pdfrwt beam="1">  1       -4 0.11655829E-02 0.12501490E+03</pdfrwt>
<totfact> 0.54084013E+03</totfact>
</mgrwt>
</event>
<event>
 5    1  0.3217527E-002  0.1250007E+03  0.7818608E-02  0.1235068E+00
          4   -1    0    0  501    0  0.00000000000E+00  0.00000000000E+00  0.29803732345E+03  0.29804002930E+03  0.12700000000E+01 0.  1.
         -4   -1    0    0    0  501 -0.00000000000E+00 -0.00000000000E+00 -0.13073197958E+02  0.13134740380E+02  0.12700000000E+01 0.  1.
         25    2    1    2    0    0  0.00000000000E+00  0.00000000000E+00  0.28496412549E+03  0.31117476968E+03  0.12500073789E+03 0.  0.
    9000005    1    3    3    0    0  0.54829730448E+02 -0.28669658636E+02  0.16433304362E+03  0.17559782998E+03  0.10000000000E+01 0.  0.
    9000005    1    3    3    0    0 -0.54829730448E+02  0.28669658636E+02  0.12063108186E+03  0.13557693970E+03  0.10000000000E+01 0.  0.
<mgrwt>
<rscale>  0 0.12500074E+03</rscale>
<asrwt>0</asrwt>
<pdfrwt beam="1">  1        4 0.45856837E-01 0.12500074E+03</pdfrwt>
<pdfrwt beam="2">  1       -4 0.20162035E-02 0.12500074E+03</pdfrwt>
<totfact> 0.74216926E+03</totfact>
</mgrwt>
</event>
<event>
 5    1  0.3217527E-002  0.1250020E+03  0.7818608E-02  0.1235066E+00
         -4   -1    0    0    0  501 -0.00000000000E+00  0.00000000000E+00  0.64863589122E+03  0.64863713452E+03  0.12700000000E+01 0. -1.
          4   -1    0    0  501    0  0.00000000000E+00 -0.00000000000E+00 -0.59542326873E+01  0.60881677781E+01  0.12700000000E+01 0. -1.
         25    2    1    2    0    0  0.00000000000E+00  0.00000000000E+00  0.64268165853E+03  0.65472530230E+03  0.12500202900E+03 0.  0.
    9000005    1    3    3    0    0 -0.56381529211E+02  0.21953780613E+02  0.23943600866E+03  0.24696446619E+03  0.10000000000E+01 0.  0.
    9000005    1    3    3    0    0  0.56381529211E+02 -0.21953780613E+02  0.40324564987E+03  0.40776083611E+03  0.10000000000E+01 0.  0.
<mgrwt>
<rscale>  0 0.12500203E+03</rscale>
<asrwt>0</asrwt>
<pdfrwt beam="2">  1        4 0.92643467E-03 0.12500203E+03</pdfrwt>
<pdfrwt beam="1">  1       -4 0.99800478E-01 0.12500203E+03</pdfrwt>
<totfact> 0.45583648E+03</totfact>
</mgrwt>
</event>
<event>
 5    1  0.3217527E-002  0.1249980E+03  0.7818608E-02  0.1235072E+00
          4   -1    0    0  501    0  0.00000000000E+00  0.00000000000E+00  0.10694150318E+04  0.10694157859E+04  0.12700000000E+01 0.  1.
         -4   -1    0    0    0  501 -0.00000000000E+00 -0.00000000000E+00 -0.35414062668E+01  0.37622411335E+01  0.12700000000E+01 0.  1.
         25    2    1    2    0    0  0.00000000000E+00  0.00000000000E+00  0.10658736256E+04  0.10731780271E+04  0.12499796842E+03 0.  0.
    9000005    1    3    3    0    0 -0.14543659571E+02  0.37773973530E+02  0.94169728997E+03  0.94256733290E+03  0.10000000000E+01 0.  0.
    9000005    1    3    3    0    0  0.14543659571E+02 -0.37773973530E+02  0.12417633560E+03  0.13061069417E+03  0.10000000000E+01 0.  0.
<mgrwt>
<rscale>  0 0.12499797E+03</rscale>
<asrwt>0</asrwt>
<pdfrwt beam="1">  1        4 0.16454250E+00 0.12499797E+03</pdfrwt>
<pdfrwt beam="2">  1       -4 0.56187680E-03 0.12499797E+03</pdfrwt>
<totfact> 0.28283196E+03</totfact>
</mgrwt>
</event>
<event>
 5    1  0.3217527E-002  0.1250030E+03  0.7818608E-02  0.1235065E+00
         -4   -1    0    0    0  501 -0.00000000000E+00  0.00000000000E+00  0.32888423807E+02  0.32912935458E+02  0.12700000000E+01 0.  1.
          4   -1    0    0  501    0  0.00000000000E+00 -0.00000000000E+00 -0.11870630409E+03  0.11871309756E+03  0.12700000000E+01 0.  1.
         25    2    1    2    0    0  0.00000000000E+00  0.00000000000E+00 -0.85817880288E+02  0.15162603302E+03  0.12500298121E+03 0.  0.
    9000005    1    3    3    0    0  0.34512414318E+02  0.19022974483E+02 -0.10174101420E+03  0.10911101810E+03  0.10000000000E+01 0.  0.
    9000005    1    3    3    0    0 -0.34512414318E+02 -0.19022974483E+02  0.15923133909E+02  0.42515014920E+02  0.10000000000E+01 0.  0.
<mgrwt>
<rscale>  0 0.12500298E+03</rscale>
<asrwt>0</asrwt>
<pdfrwt beam="2">  1        4 0.18264916E-01 0.12500298E+03</pdfrwt>
<pdfrwt beam="1">  1       -4 0.50621657E-02 0.12500298E+03</pdfrwt>
<totfact> 0.98973916E+03</totfact>
</mgrwt>
</event>
<event>
 5    1  0.3217527E-002  0.1249940E+03  0.7818608E-02  0.1235079E+00
         -4   -1    0    0    0  501 -0.00000000000E+00  0.00000000000E+00  0.93409625250E+03  0.93409711585E+03  0.12700000000E+01 0.  1.
          4   -1    0    0  501    0  0.00000000000E+00 -0.00000000000E+00 -0.40841288036E+01  0.42770326261E+01  0.12700000000E+01 0.  1.
         25    2    1    2    0    0  0.00000000000E+00  0.00000000000E+00  0.93001212370E+03  0.93837414847E+03  0.12499396906E+03 0.  0.
    9000005    1    3    3    0    0 -0.50363795611E+02 -0.26906022975E+02  0.27442757613E+03  0.28030686849E+03  0.10000000000E+01 0.  0.
    9000005    1    3    3    0    0  0.50363795611E+02  0.26906022975E+02  0.65558454757E+03  0.65806727999E+03  0.10000000000E+01 0.  0.
<mgrwt>
<rscale>  0 0.12499397E+03</rscale>
<asrwt>0</asrwt>
<pdfrwt beam="2">  1        4 0.64323313E-03 0.12499397E+03</pdfrwt>
<pdfrwt beam="1">  1       -4 0.14372192E+00 0.12499397E+03</pdfrwt>
<totfact> 0.32736697E+03</totfact>
</mgrwt>
</event>
<event>
 5    1  0.3217527E-002  0.1250018E+03  0.7818608E-02  0.1235066E+00
          4   -1    0    0  501    0  0.00000000000E+00  0.00000000000E+00  0.11276281340E+02  0.11347573346E+02  0.12700000000E+01 0. -1.
         -4   -1    0    0    0  501 -0.00000000000E+00 -0.00000000000E+00 -0.34525899163E+03  0.34526132741E+03  0.12700000000E+01 0. -1.
         25    2    1    2    0    0  0.00000000000E+00  0.00000000000E+00 -0.33398271029E+03  0.35660890075E+03  0.12500182928E+03 0.  0.
    9000005    1    3    3    0    0  0.18676421480E+02  0.16320292195E+01  0.30787298325E+01  0.19025005021E+02  0.10000000000E+01 0.  0.
    9000005    1    3    3    0    0 -0.18676421480E+02 -0.16320292195E+01 -0.33706144012E+03  0.33758389573E+03  0.10000000000E+01 0.  0.
<mgrwt>
<rscale>  0 0.12500183E+03</rscale>
<asrwt>0</asrwt>
<pdfrwt beam="1">  1        4 0.17404765E-02 0.12500183E+03</pdfrwt>
<pdfrwt beam="2">  1       -4 0.53122424E-01 0.12500183E+03</pdfrwt>
<totfact> 0.69000775E+03</totfact>
</mgrwt>
</event>
<event>
 5    1  0.3217527E-002  0.1249971E+03  0.7818608E-02  0.1235074E+00
          4   -1    0    0  501    0  0.00000000000E+00  0.00000000000E+00  0.18171911431E+02  0.18216236304E+02  0.12700000000E+01 0.  1.
         -4   -1    0    0    0  501 -0.00000000000E+00 -0.00000000000E+00 -0.21464285313E+03  0.21464661027E+03  0.12700000000E+01 0.  1.
         25    2    1    2    0    0  0.00000000000E+00  0.00000000000E+00 -0.19647094170E+03  0.23286284657E+03  0.12499709749E+03 0.  0.
    9000005    1    3    3    0    0  0.60862194738E+02  0.25196211870E+00 -0.71836903603E+02  0.94158435376E+02  0.10000000000E+01 0.  0.
    9000005    1    3    3    0    0 -0.60862194738E+02 -0.25196211870E+00 -0.12463403810E+03  0.13870441120E+03  0.10000000000E+01 0.  0.
<mgrwt>
<rscale>  0 0.12499710E+03</rscale>
<asrwt>0</asrwt>
<pdfrwt beam="1">  1        4 0.27993774E-02 0.12499710E+03</pdfrwt>
<pdfrwt beam="2">  1       -4 0.33025674E-01 0.12499710E+03</pdfrwt>
<totfact> 0.84877430E+03</totfact>
</mgrwt>
</event>
<event>
 5    1  0.3217527E-002  0.1249941E+03  0.7818608E-02  0.1235078E+00
         -4   -1    0    0    0  501 -0.00000000000E+00  0.00000000000E+00  0.97591394679E+01  0.98414279022E+01  0.12700000000E+01 0. -1.
          4   -1    0    0  501    0  0.00000000000E+00 -0.00000000000E+00 -0.39846454301E+03  0.39846656690E+03  0.12700000000E+01 0. -1.
         25    2    1    2    0    0  0.00000000000E+00  0.00000000000E+00 -0.38870540354E+03  0.40830799480E+03  0.12499411136E+03 0.  0.
    9000005    1    3    3    0    0 -0.55535726818E+02  0.13261034014E+02 -0.27730228530E+03  0.28312122740E+03  0.10000000000E+01 0.  0.
    9000005    1    3    3    0    0  0.55535726818E+02 -0.13261034014E+02 -0.11140311825E+03  0.12518676740E+03  0.10000000000E+01 0.  0.
<mgrwt>
<rscale>  0 0.12499411E+03</rscale>
<asrwt>0</asrwt>
<pdfrwt beam="2">  1        4 0.61308710E-01 0.12499411E+03</pdfrwt>
<pdfrwt beam="1">  1       -4 0.15078919E-02 0.12499411E+03</pdfrwt>
<totfact> 0.63760997E+03</totfact>
</mgrwt>
</event>
<event>
 5    1  0.3217527E-002  0.1249985E+03  0.7818608E-02  0.1235072E+00
         -4   -1    0    0    0  501 -0.00000000000E+00  0.00000000000E+00  0.61221899475E+03  0.61222031201E+03  0.12700000000E+01 0.  1.
          4   -1    0    0  501    0  0.00000000000E+00 -0.00000000000E+00 -0.63157901475E+01  0.64422127556E+01  0.12700000000E+01 0.  1.
         25    2    1    2    0    0  0.00000000000E+00  0.00000000000E+00  0.60590320461E+03  0.61866252476E+03  0.12499850478E+03 0.  0.
    9000005    1    3    3    0    0  0.75474306510E+01  0.67992765155E+01  0.60812938708E+03  0.60821504856E+03  0.10000000000E+01 0.  0.
    9000005    1    3    3    0    0 -0.75474306510E+01 -0.67992765155E+01 -0.22261824732E+01  0.10447476201E+02  0.10000000000E+01 0.  0.
<mgrwt>
<rscale>  0 0.12499850E+03</rscale>
<asrwt>0</asrwt>
<pdfrwt beam="2">  1        4 0.98148591E-03 0.12499850E+03</pdfrwt>
<pdfrwt beam="1">  1       -4 0.94197388E-01 0.12499850E+03</pdfrwt>
<totfact> 0.47711931E+03</totfact>
</mgrwt>
</event>
<event>
 5    1  0.3217527E-002  0.1249973E+03  0.7818608E-02  0.1235074E+00
          4   -1    0    0  501    0  0.00000000000E+00  0.00000000000E+00  0.10585028928E+03  0.10585790778E+03  0.12700000000E+01 0. -1.
         -4   -1    0    0    0  501 -0.00000000000E+00 -0.00000000000E+00 -0.36882050490E+02  0.36903909662E+02  0.12700000000E+01 0. -1.
         25    2    1    2    0    0  0.00000000000E+00  0.00000000000E+00  0.68968238788E+02  0.14276181744E+03  0.12499727420E+03 0.  0.
    9000005    1    3    3    0    0 -0.37209941520E+02  0.32073851341E+02  0.78596669234E+02  0.92691683027E+02  0.10000000000E+01 0.  0.
    9000005    1    3    3    0    0  0.37209941520E+02 -0.32073851341E+02 -0.96284304462E+01  0.50070134418E+02  0.10000000000E+01 0.  0.
<mgrwt>
<rscale>  0 0.12499727E+03</rscale>
<asrwt>0</asrwt>
<pdfrwt beam="1">  1        4 0.16286927E-01 0.12499727E+03</pdfrwt>
<pdfrwt beam="2">  1       -4 0.56764292E-02 0.12499727E+03</pdfrwt>
<totfact> 0.10077282E+04</totfact>
</mgrwt>
</event>
<event>
 5    1  0.3217527E-002  0.1250009E+03  0.7818608E-02  0.1235068E+00
         -4   -1    0    0    0  501 -0.00000000000E+00  0.00000000000E+00  0.10275275002E+03  0.10276059817E+03  0.12700000000E+01 0. -1.
          4   -1    0    0  501    0  0.00000000000E+00 -0.00000000000E+00 -0.37996655001E+02  0.38017873313E+02  0.12700000000E+01 0. -1.
         25    2    1    2    0    0  0.00000000000E+00  0.00000000000E+00  0.64756095015E+02  0.14077847148E+03  0.12500090476E+03 0.  0.
    9000005    1    3    3    0    0  0.39720534818E+02  0.47953370542E+02  0.26412280809E+02  0.67645067892E+02  0.10000000000E+01 0.  0.
    9000005    1    3    3    0    0 -0.39720534818E+02 -0.47953370542E+02  0.38343814206E+02  0.73133403589E+02  0.10000000000E+01 0.  0.
<mgrwt>
<rscale>  0 0.12500090E+03</rscale>
<asrwt>0</asrwt>
<pdfrwt beam="2">  1        4 0.58478752E-02 0.12500090E+03</pdfrwt>
<pdfrwt beam="1">  1       -4 0.15810351E-01 0.12500090E+03</pdfrwt>
<totfact> 0.10117271E+04</totfact>
</mgrwt>
</event>
<event>
 5    1  0.3217527E-002  0.1250015E+03  0.7818608E-02  0.1235067E+00
         -4   -1    0    0    0  501 -0.00000000000E+00  0.00000000000E+00  0.66098389097E+03  0.66098511104E+03  0.12700000000E+01 0.  1.
          4   -1    0    0  501    0  0.00000000000E+00 -0.00000000000E+00 -0.58404229789E+01  0.59769089480E+01  0.12700000000E+01 0.  1.
         25    2    1    2    0    0  0.00000000000E+00  0.00000000000E+00  0.65514346799E+03  0.66696201999E+03  0.12500148983E+03 0.  0.
    9000005    1    3    3    0    0  0.21256375895E+02 -0.51175380662E+02  0.17342919568E+03  0.18206987400E+03  0.10000000000E+01 0.  0.
    9000005    1    3    3    0    0 -0.21256375895E+02  0.51175380662E+02  0.48171427231E+03  0.48489214599E+03  0.10000000000E+01 0.  0.
<mgrwt>
<rscale>  0 0.12500149E+03</rscale>
<asrwt>0</asrwt>
<pdfrwt beam="2">  1        4 0.90911940E-03 0.12500149E+03</pdfrwt>
<pdfrwt beam="1">  1       -4 0.10170042E+00 0.12500149E+03</pdfrwt>
<totfact> 0.44887535E+03</totfact>
</mgrwt>
</event>
<event>
 5    1  0.3217527E-002  0.1250018E+03  0.7818608E-02  0.1235067E+00
         -4   -1    0    0    0  501 -0.00000000000E+00  0.00000000000E+00  0.28751077691E+02  0.28779113406E+02  0.12700000000E+01 0. -1.
          4   -1    0    0  501    0  0.00000000000E+00 -0.00000000000E+00 -0.13577111737E+03  0.13577705701E+03  0.12700000000E+01 0. -1.
         25    2    1    2    0    0  0.00000000000E+00  0.00000000000E+00 -0.10702003968E+03  0.16455617042E+03  0.12500177731E+03 0.  0.
    9000005    1    3    3    0    0  0.16394399930E+02 -0.24677865344E+02  0.18924627436E+02  0.35169801117E+02  0.10000000000E+01 0.  0.
    9000005    1    3    3    0    0 -0.16394399930E+02  0.24677865344E+02 -0.12594466711E+03  0.12938636930E+03  0.10000000000E+01 0.  0.
<mgrwt>
<rscale>  0 0.12500178E+03</rscale>
<asrwt>0</asrwt>
<pdfrwt beam="2">  1        4 0.20890477E-01 0.12500178E+03</pdfrwt>
<pdfrwt beam="1">  1       -4 0.44258563E-02 0.12500178E+03</pdfrwt>
<totfact> 0.96467661E+03</totfact>
</mgrwt>
</event>
<event>
 5    1  0.3217527E-002  0.1249985E+03  0.7818608E-02  0.1235072E+00
         -4   -1    0    0    0  501 -0.00000000000E+00  0.00000000000E+00  0.55165774526E+02  0.55180391255E+02  0.12700000000E+01 0.  1.
          4   -1    0    0  501    0  0.00000000000E+00 -0.00000000000E+00 -0.70777907215E+02  0.70789300390E+02  0.12700000000E+01 0.  1.
         25    2    1    2    0    0  0.00000000000E+00  0.00000000000E+00 -0.15612132689E+02  0.12596969164E+03  0.12499849809E+03 0.  0.
    9000005    1    3    3    0    0 -0.38727729709E+02 -0.36663791679E+02  0.25021331138E+02  0.58916361740E+02  0.10000000000E+01 0.  0.
    9000005    1    3    3    0    0  0.38727729709E+02  0.36663791679E+02 -0.40633463827E+02  0.67053329905E+02  0.10000000000E+01 0.  0.
<mgrwt>
<rscale>  0 0.12499850E+03</rscale>
<asrwt>0</asrwt>
<pdfrwt beam="2">  1        4 0.10890910E-01 0.12499850E+03</pdfrwt>
<pdfrwt beam="1">  1       -4 0.84890430E-02 0.12499850E+03</pdfrwt>
<totfact> 0.10431975E+04</totfact>
</mgrwt>
</event>
<event>
 5    1  0.3217527E-002  0.1250014E+03  0.7818608E-02  0.1235067E+00
          4   -1    0    0  501    0  0.00000000000E+00  0.00000000000E+00  0.90705008016E+02  0.90713898490E+02  0.12700000000E+01 0.  1.
         -4   -1    0    0    0  501 -0.00000000000E+00 -0.00000000000E+00 -0.43045999443E+02  0.43064729977E+02  0.12700000000E+01 0.  1.
         25    2    1    2    0    0  0.00000000000E+00  0.00000000000E+00  0.47659008574E+02  0.13377862847E+03  0.12500136134E+03 0.  0.
    9000005    1    3    3    0    0  0.11869415403E+02  0.55890368551E+02 -0.32602906961E+01  0.57238499405E+02  0.10000000000E+01 0.  0.
    9000005    1    3    3    0    0 -0.11869415403E+02 -0.55890368551E+02  0.50919299270E+02  0.76540129062E+02  0.10000000000E+01 0.  0.
<mgrwt>
<rscale>  0 0.12500136E+03</rscale>
<asrwt>0</asrwt>
<pdfrwt beam="1">  1        4 0.13956741E-01 0.12500136E+03</pdfrwt>
<pdfrwt beam="2">  1       -4 0.66245862E-02 0.12500136E+03</pdfrwt>
<totfact> 0.10263564E+04</totfact>
</mgrwt>
</event>
<event>
 5    1  0.3217527E-002  0.1250099E+03  0.7818608E-02  0.1235054E+00
          4   -1    0    0  501    0  0.00000000000E+00  0.00000000000E+00  0.86199098229E+02  0.86208453388E+02  0.12700000000E+01 0.  1.
         -4   -1    0    0    0  501 -0.00000000000E+00 -0.00000000000E+00 -0.45303049735E+02  0.45320847469E+02  0.12700000000E+01 0.  1.
         25    2    1    2    0    0  0.00000000000E+00  0.00000000000E+00  0.40896048494E+02  0.13152930086E+03  0.12500988041E+03 0.  0.
    9000005    1    3    3    0    0  0.35098422689E+02  0.42503650780E+02 -0.10539713362E+02  0.56129717286E+02  0.10000000000E+01 0.  0.
    9000005    1    3    3    0    0 -0.35098422689E+02 -0.42503650780E+02  0.51435761856E+02  0.75399583570E+02  0.10000000000E+01 0.  0.
<mgrwt>
<rscale>  0 0.12500988E+03</rscale>
<asrwt>0</asrwt>
<pdfrwt beam="1">  1        4 0.13263488E-01 0.12500988E+03</pdfrwt>
<pdfrwt beam="2">  1       -4 0.69717887E-02 0.12500988E+03</pdfrwt>
<totfact> 0.10309457E+04</totfact>
</mgrwt>
</event>
<event>
 5    1  0.3217527E-002  0.1250004E+03  0.7818608E-02  0.1235069E+00
         -4   -1    0    0    0  501 -0.00000000000E+00  0.00000000000E+00  0.63846941936E+02  0.63859571675E+02  0.12700000000E+01 0. -1.
          4   -1    0    0  501    0  0.00000000000E+00 -0.00000000000E+00 -0.61156613256E+02  0.61169798471E+02  0.12700000000E+01 0. -1.
         25    2    1    2    0    0  0.00000000000E+00  0.00000000000E+00  0.26903286794E+01  0.12502937015E+03  0.12500042212E+03 0.  0.
    9000005    1    3    3    0    0 -0.26145144876E+02  0.54391006088E+02  0.17576252318E+02  0.62863938704E+02  0.10000000000E+01 0.  0.
    9000005    1    3    3    0    0  0.26145144876E+02 -0.54391006088E+02 -0.14885923638E+02  0.62165431442E+02  0.10000000000E+01 0.  0.
<mgrwt>
<rscale>  0 0.12500042E+03</rscale>
<asrwt>0</asrwt>
<pdfrwt beam="2">  1        4 0.94106955E-02 0.12500042E+03</pdfrwt>
<pdfrwt beam="1">  1       -4 0.98245922E-02 0.12500042E+03</pdfrwt>
<totfact> 0.10452125E+04</totfact>
</mgrwt>
</event>
<event>
 5    1  0.3217527E-002  0.1249663E+03  0.7818608E-02  0.1235122E+00
          4   -1    0    0  501    0  0.00000000000E+00  0.00000000000E+00  0.15643308637E+03  0.15643824153E+03  0.12700000000E+01 0.  1.
         -4   -1    0    0    0  501 -0.00000000000E+00 -0.00000000000E+00 -0.24935562957E+02  0.24967883370E+02  0.12700000000E+01 0.  1.
         25    2    1    2    0    0  0.00000000000E+00  0.00000000000E+00  0.13149752342E+03  0.18140612490E+03  0.12496632941E+03 0.  0.
    9000005    1    3    3    0    0 -0.41469265391E+01 -0.31997099860E+02  0.14340993542E+03  0.14699803052E+03  0.10000000000E+01 0.  0.
    9000005    1    3    3    0    0  0.41469265391E+01  0.31997099860E+02 -0.11912412003E+02  0.34408094380E+02  0.10000000000E+01 0.  0.
<mgrwt>
<rscale>  0 0.12496633E+03</rscale>
<asrwt>0</asrwt>
<pdfrwt beam="1">  1        4 0.24069511E-01 0.12496633E+03</pdfrwt>
<pdfrwt beam="2">  1       -4 0.38391233E-02 0.12496633E+03</pdfrwt>
<totfact> 0.93435018E+03</totfact>
</mgrwt>
</event>
<event>
 5    1  0.3217527E-002  0.1249758E+03  0.7818608E-02  0.1235107E+00
         -4   -1    0    0    0  501 -0.00000000000E+00  0.00000000000E+00  0.74664403563E+03  0.74664511573E+03  0.12700000000E+01 0. -1.
          4   -1    0    0  501    0  0.00000000000E+00 -0.00000000000E+00 -0.51515162734E+01  0.53057534729E+01  0.12700000000E+01 0. -1.
         25    2    1    2    0    0  0.00000000000E+00  0.00000000000E+00  0.74149251936E+03  0.75195086920E+03  0.12497581139E+03 0.  0.
    9000005    1    3    3    0    0  0.44421990929E+02  0.27079044806E+02  0.57892571138E+03  0.58125946636E+03  0.10000000000E+01 0.  0.
    9000005    1    3    3    0    0 -0.44421990929E+02 -0.27079044806E+02  0.16256680798E+03  0.17069140284E+03  0.10000000000E+01 0.  0.
<mgrwt>
<rscale>  0 0.12497581E+03</rscale>
<asrwt>0</asrwt>
<pdfrwt beam="2">  1        4 0.80448814E-03 0.12497581E+03</pdfrwt>
<pdfrwt beam="1">  1       -4 0.11488031E+00 0.12497581E+03</pdfrwt>
<totfact> 0.40502398E+03</totfact>
</mgrwt>
</event>
<event>
 5    1  0.3217527E-002  0.1249921E+03  0.7818608E-02  0.1235082E+00
         -4   -1    0    0    0  501 -0.00000000000E+00  0.00000000000E+00  0.18613201407E+02  0.18656477872E+02  0.12700000000E+01 0. -1.
          4   -1    0    0  501    0  0.00000000000E+00 -0.00000000000E+00 -0.20954915942E+03  0.20955300788E+03  0.12700000000E+01 0. -1.
         25    2    1    2    0    0  0.00000000000E+00  0.00000000000E+00 -0.19093595801E+03  0.22820948575E+03  0.12499211706E+03 0.  0.
    9000005    1    3    3    0    0 -0.32890758138E+01  0.12641229492E+02  0.16101726524E+02  0.20757752765E+02  0.10000000000E+01 0.  0.
    9000005    1    3    3    0    0  0.32890758138E+01 -0.12641229492E+02 -0.20703768453E+03  0.20745173299E+03  0.10000000000E+01 0.  0.
<mgrwt>
<rscale>  0 0.12499212E+03</rscale>
<asrwt>0</asrwt>
<pdfrwt beam="2">  1        4 0.32241955E-01 0.12499212E+03</pdfrwt>
<pdfrwt beam="1">  1       -4 0.28671946E-02 0.12499212E+03</pdfrwt>
<totfact> 0.85600350E+03</totfact>
</mgrwt>
</event>
<event>
 5    1  0.3217527E-002  0.1250145E+03  0.7818608E-02  0.1235047E+00
         -4   -1    0    0    0  501 -0.00000000000E+00  0.00000000000E+00  0.21174801819E+04  0.21174805628E+04  0.12700000000E+01 0. -1.
          4   -1    0    0  501    0  0.00000000000E+00 -0.00000000000E+00 -0.16262385594E+01  0.20633835931E+01  0.12700000000E+01 0. -1.
         25    2    1    2    0    0  0.00000000000E+00  0.00000000000E+00  0.21158539434E+04  0.21195439464E+04  0.12501452294E+03 0.  0.
    9000005    1    3    3    0    0 -0.30099032106E+02  0.41375324009E+02  0.44938780732E+03  0.45229224019E+03  0.10000000000E+01 0.  0.
    9000005    1    3    3    0    0  0.30099032106E+02 -0.41375324009E+02  0.16664661361E+04  0.16672517062E+04  0.10000000000E+01 0.  0.
<mgrwt>
<rscale>  0 0.12501452E+03</rscale>
<asrwt>0</asrwt>
<pdfrwt beam="2">  1        4 0.28384657E-03 0.12501452E+03</pdfrwt>
<pdfrwt beam="1">  1       -4 0.32579963E+00 0.12501452E+03</pdfrwt>
<totfact> 0.83778566E+02</totfact>
</mgrwt>
</event>
<event>
 5    1  0.3217527E-002  0.1249935E+03  0.7818608E-02  0.1235080E+00
         -4   -1    0    0    0  501 -0.00000000000E+00  0.00000000000E+00  0.12222034902E+02  0.12287841028E+02  0.12700000000E+01 0.  1.
          4   -1    0    0  501    0  0.00000000000E+00 -0.00000000000E+00 -0.31864863119E+03  0.31865116203E+03  0.12700000000E+01 0.  1.
         25    2    1    2    0    0  0.00000000000E+00  0.00000000000E+00 -0.30642659629E+03  0.33093900305E+03  0.12499345914E+03 0.  0.
    9000005    1    3    3    0    0  0.39727432666E+02  0.17603496066E+02 -0.34313763106E+02  0.55376766955E+02  0.10000000000E+01 0.  0.
    9000005    1    3    3    0    0 -0.39727432666E+02 -0.17603496066E+02 -0.27211283318E+03  0.27556223610E+03  0.10000000000E+01 0.  0.
<mgrwt>
<rscale>  0 0.12499346E+03</rscale>
<asrwt>0</asrwt>
<pdfrwt beam="2">  1        4 0.49028117E-01 0.12499346E+03</pdfrwt>
<pdfrwt beam="1">  1       -4 0.18855700E-02 0.12499346E+03</pdfrwt>
<totfact> 0.71884109E+03</totfact>
</mgrwt>
</event>
<event>
 5    1  0.3217527E-002  0.1250020E+03  0.7818608E-02  0.1235066E+00
          4   -1    0    0  501    0  0.00000000000E+00  0.00000000000E+00  0.44431558112E+03  0.44431739615E+03  0.12700000000E+01 0. -1.
         -4   -1    0    0    0  501 -0.00000000000E+00 -0.00000000000E+00 -0.87441895386E+01  0.88359351903E+01  0.12700000000E+01 0. -1.
         25    2    1    2    0    0  0.00000000000E+00  0.00000000000E+00  0.43557139158E+03  0.45315333134E+03  0.12500201816E+03 0.  0.
    9000005    1    3    3    0    0 -0.61935422182E+02  0.81568349081E+01  0.21167036954E+03  0.22069860855E+03  0.10000000000E+01 0.  0.
    9000005    1    3    3    0    0  0.61935422182E+02 -0.81568349081E+01  0.22390102204E+03  0.23245472279E+03  0.10000000000E+01 0.  0.
<mgrwt>
<rscale>  0 0.12500202E+03</rscale>
<asrwt>0</asrwt>
<pdfrwt beam="1">  1        4 0.68363426E-01 0.12500202E+03</pdfrwt>
<pdfrwt beam="2">  1       -4 0.13524572E-02 0.12500202E+03</pdfrwt>
<totfact> 0.59688945E+03</totfact>
</mgrwt>
</event>
<event>
 5    1  0.3217527E-002  0.1249987E+03  0.7818608E-02  0.1235071E+00
         -4   -1    0    0    0  501 -0.00000000000E+00  0.00000000000E+00  0.75464262987E+02  0.75474948746E+02  0.12700000000E+01 0. -1.
          4   -1    0    0  501    0  0.00000000000E+00 -0.00000000000E+00 -0.51739717588E+02  0.51755301913E+02  0.12700000000E+01 0. -1.
         25    2    1    2    0    0  0.00000000000E+00  0.00000000000E+00  0.23724545399E+02  0.12723025066E+03  0.12499873051E+03 0.  0.
    9000005    1    3    3    0    0  0.57567166753E+01 -0.47998431523E+02 -0.28444955624E+02  0.56099061632E+02  0.10000000000E+01 0.  0.
    9000005    1    3    3    0    0 -0.57567166753E+01  0.47998431523E+02  0.52169501023E+02  0.71131189027E+02  0.10000000000E+01 0.  0.
<mgrwt>
<rscale>  0 0.12499873E+03</rscale>
<asrwt>0</asrwt>
<pdfrwt beam="2">  1        4 0.79619773E-02 0.12499873E+03</pdfrwt>
<pdfrwt beam="1">  1       -4 0.11611907E-01 0.12499873E+03</pdfrwt>
<totfact> 0.10404445E+04</totfact>
</mgrwt>
</event>
<event>
 5    1  0.3217527E-002  0.1250066E+03  0.7818608E-02  0.1235059E+00
         -4   -1    0    0    0  501 -0.00000000000E+00  0.00000000000E+00  0.28942619347E+03  0.28942897983E+03  0.12700000000E+01 0.  1.
          4   -1    0    0  501    0  0.00000000000E+00 -0.00000000000E+00 -0.13465224683E+02  0.13524983392E+02  0.12700000000E+01 0.  1.
         25    2    1    2    0    0  0.00000000000E+00  0.00000000000E+00  0.27596096878E+03  0.30295396322E+03  0.12500658998E+03 0.  0.
    9000005    1    3    3    0    0  0.49494808824E+02 -0.37456004325E+02  0.15561945200E+03  0.16754432906E+03  0.10000000000E+01 0.  0.
    9000005    1    3    3    0    0 -0.49494808824E+02  0.37456004325E+02  0.12034151678E+03  0.13540963416E+03  0.10000000000E+01 0.  0.
<mgrwt>
<rscale>  0 0.12500659E+03</rscale>
<asrwt>0</asrwt>
<pdfrwt beam="2">  1        4 0.20763846E-02 0.12500659E+03</pdfrwt>
<pdfrwt beam="1">  1       -4 0.44531910E-01 0.12500659E+03</pdfrwt>
<totfact> 0.75218789E+03</totfact>
</mgrwt>
</event>
<event>
 5    1  0.3217527E-002  0.1249969E+03  0.7818608E-02  0.1235074E+00
         -4   -1    0    0    0  501 -0.00000000000E+00  0.00000000000E+00  0.66330989970E+03  0.66331111549E+03  0.12700000000E+01 0. -1.
          4   -1    0    0  501    0  0.00000000000E+00 -0.00000000000E+00 -0.58190291148E+01  0.59560053592E+01  0.12700000000E+01 0. -1.
         25    2    1    2    0    0  0.00000000000E+00  0.00000000000E+00  0.65749087058E+03  0.66926712085E+03  0.12499693658E+03 0.  0.
    9000005    1    3    3    0    0  0.24446465014E+02  0.31868449692E+02  0.72420181317E+02  0.82818538984E+02  0.10000000000E+01 0.  0.
    9000005    1    3    3    0    0 -0.24446465014E+02 -0.31868449692E+02  0.58507068926E+03  0.58644858187E+03  0.10000000000E+01 0.  0.
<mgrwt>
<rscale>  0 0.12499694E+03</rscale>
<asrwt>0</asrwt>
<pdfrwt beam="2">  1        4 0.90586624E-03 0.12499694E+03</pdfrwt>
<pdfrwt beam="1">  1       -4 0.10205821E+00 0.12499694E+03</pdfrwt>
<totfact> 0.44762461E+03</totfact>
</mgrwt>
</event>
<event>
 5    1  0.3217527E-002  0.1250015E+03  0.7818608E-02  0.1235067E+00
          4   -1    0    0  501    0  0.00000000000E+00  0.00000000000E+00  0.13464641485E+03  0.13465240411E+03  0.12700000000E+01 0. -1.
         -4   -1    0    0    0  501 -0.00000000000E+00 -0.00000000000E+00 -0.28991326411E+02  0.29019130019E+02  0.12700000000E+01 0. -1.
         25    2    1    2    0    0  0.00000000000E+00  0.00000000000E+00  0.10565508844E+03  0.16367153412E+03  0.12500149347E+03 0.  0.
    9000005    1    3    3    0    0 -0.19463208007E+02  0.55516648059E+02  0.25224372791E+02  0.64017057573E+02  0.10000000000E+01 0.  0.
    9000005    1    3    3    0    0  0.19463208007E+02 -0.55516648059E+02  0.80430715645E+02  0.99654476552E+02  0.10000000000E+01 0.  0.
<mgrwt>
<rscale>  0 0.12500149E+03</rscale>
<asrwt>0</asrwt>
<pdfrwt beam="1">  1        4 0.20717433E-01 0.12500149E+03</pdfrwt>
<pdfrwt beam="2">  1       -4 0.44628035E-02 0.12500149E+03</pdfrwt>
<totfact> 0.96636333E+03</totfact>
</mgrwt>
</event>
<event>
 5    1  0.3217527E-002  0.1250271E+03  0.7818608E-02  0.1235027E+00
          4   -1    0    0  501    0  0.00000000000E+00  0.00000000000E+00  0.12427932974E+04  0.12427939463E+04  0.12700000000E+01 0. -1.
         -4   -1    0    0    0  501 -0.00000000000E+00 -0.00000000000E+00 -0.30155752291E+01  0.32720932080E+01  0.12700000000E+01 0. -1.
         25    2    1    2    0    0  0.00000000000E+00  0.00000000000E+00  0.12397777222E+04  0.12460660396E+04  0.12502709477E+03 0.  0.
    9000005    1    3    3    0    0 -0.14023967998E+02  0.43096696961E+02  0.10488998105E+04  0.10498789499E+04  0.10000000000E+01 0.  0.
    9000005    1    3    3    0    0  0.14023967998E+02 -0.43096696961E+02  0.19087791170E+03  0.19618708964E+03  0.10000000000E+01 0.  0.
<mgrwt>
<rscale>  0 0.12502709E+03</rscale>
<asrwt>0</asrwt>
<pdfrwt beam="1">  1        4 0.19121859E+00 0.12502709E+03</pdfrwt>
<pdfrwt beam="2">  1       -4 0.48371714E-03 0.12502709E+03</pdfrwt>
<totfact> 0.23523904E+03</totfact>
</mgrwt>
</event>
<event>
 5    1  0.3217527E-002  0.1250006E+03  0.7818608E-02  0.1235068E+00
          4   -1    0    0  501    0  0.00000000000E+00  0.00000000000E+00  0.25779061589E+03  0.25779374418E+03  0.12700000000E+01 0.  1.
         -4   -1    0    0    0  501 -0.00000000000E+00 -0.00000000000E+00 -0.15123107331E+02  0.15176339326E+02  0.12700000000E+01 0.  1.
         25    2    1    2    0    0  0.00000000000E+00  0.00000000000E+00  0.24266750856E+03  0.27297008351E+03  0.12500058713E+03 0.  0.
    9000005    1    3    3    0    0  0.24988105979E+02 -0.40210787797E+02  0.32254567909E+02  0.57294590030E+02  0.10000000000E+01 0.  0.
    9000005    1    3    3    0    0 -0.24988105979E+02  0.40210787797E+02  0.21041294065E+03  0.21567549348E+03  0.10000000000E+01 0.  0.
<mgrwt>
<rscale>  0 0.12500059E+03</rscale>
<asrwt>0</asrwt>
<pdfrwt beam="1">  1        4 0.39664426E-01 0.12500059E+03</pdfrwt>
<pdfrwt beam="2">  1       -4 0.23309676E-02 0.12500059E+03</pdfrwt>
<totfact> 0.79118520E+03</totfact>
</mgrwt>
</event>
<event>
 5    1  0.3217527E-002  0.1250025E+03  0.7818608E-02  0.1235065E+00
          4   -1    0    0  501    0  0.00000000000E+00  0.00000000000E+00  0.15781374585E+03  0.15781885590E+03  0.12700000000E+01 0.  1.
         -4   -1    0    0    0  501 -0.00000000000E+00 -0.00000000000E+00 -0.24731474643E+02  0.24764061420E+02  0.12700000000E+01 0.  1.
         25    2    1    2    0    0  0.00000000000E+00  0.00000000000E+00  0.13308227120E+03  0.18258291732E+03  0.12500252313E+03 0.  0.
    9000005    1    3    3    0    0 -0.23814564567E+02 -0.48053531658E+02  0.11339840416E+03  0.12544510137E+03  0.10000000000E+01 0.  0.
    9000005    1    3    3    0    0  0.23814564567E+02  0.48053531658E+02  0.19683867040E+02  0.57137815954E+02  0.10000000000E+01 0.  0.
<mgrwt>
<rscale>  0 0.12500252E+03</rscale>
<asrwt>0</asrwt>
<pdfrwt beam="1">  1        4 0.24281938E-01 0.12500252E+03</pdfrwt>
<pdfrwt beam="2">  1       -4 0.38077420E-02 0.12500252E+03</pdfrwt>
<totfact> 0.93148856E+03</totfact>
</mgrwt>
</event>
<event>
 5    1  0.3217527E-002  0.1250031E+03  0.7818608E-02  0.1235064E+00
          4   -1    0    0  501    0  0.00000000000E+00  0.00000000000E+00  0.19930456980E+04  0.19930461026E+04  0.12700000000E+01 0.  1.
         -4   -1    0    0    0  501 -0.00000000000E+00 -0.00000000000E+00 -0.17538673232E+01  0.21653984823E+01  0.12700000000E+01 0.  1.
         25    2    1    2    0    0  0.00000000000E+00  0.00000000000E+00  0.19912918307E+04  0.19952115011E+04  0.12500311700E+03 0.  0.
    9000005    1    3    3    0    0 -0.22244829527E+02  0.58392464080E+02  0.10110592094E+04  0.10129887646E+04  0.10000000000E+01 0.  0.
    9000005    1    3    3    0    0  0.22244829527E+02 -0.58392464080E+02  0.98023262128E+03  0.98222273652E+03  0.10000000000E+01 0.  0.
<mgrwt>
<rscale>  0 0.12500312E+03</rscale>
<asrwt>0</asrwt>
<pdfrwt beam="1">  1        4 0.30665348E+00 0.12500312E+03</pdfrwt>
<pdfrwt beam="2">  1       -4 0.30151372E-03 0.12500312E+03</pdfrwt>
<totfact> 0.99232177E+02</totfact>
</mgrwt>
</event>
<event>
 4    1  0.3217527E-002  0.1249323E+03  0.7818608E-02  0.1235175E+00
         -4   -1    0    0    0  501 -0.00000000000E+00  0.00000000000E+00  0.56035979002E+03  0.56036122919E+03  0.12700000000E+01 0.  1.
          4   -1    0    0  501    0  0.00000000000E+00 -0.00000000000E+00 -0.69040567309E+01  0.70198931148E+01  0.12700000000E+01 0.  1.
    9000005    1    1    2    0    0 -0.40799374651E+02  0.34279772421E+02  0.42468140050E+03  0.42801283123E+03  0.10000000000E+01 0.  0.
    9000005    1    1    2    0    0  0.40799374651E+02 -0.34279772421E+02  0.12877433280E+03  0.13936829107E+03  0.10000000000E+01 0.  0.
<mgrwt>
<rscale>  0 0.12493234E+03</rscale>
<asrwt>0</asrwt>
<pdfrwt beam="2">  1        4 0.10711838E-02 0.12493234E+03</pdfrwt>
<pdfrwt beam="1">  1       -4 0.86218218E-01 0.12493234E+03</pdfrwt>
<totfact> 0.51069333E+03</totfact>
</mgrwt>
</event>
<event>
 5    1  0.3217527E-002  0.1250013E+03  0.7818608E-02  0.1235067E+00
         -4   -1    0    0    0  501 -0.00000000000E+00  0.00000000000E+00  0.12281893332E+03  0.12282549932E+03  0.12700000000E+01 0.  1.
          4   -1    0    0  501    0  0.00000000000E+00 -0.00000000000E+00 -0.31785496079E+02  0.31810857596E+02  0.12700000000E+01 0.  1.
         25    2    1    2    0    0  0.00000000000E+00  0.00000000000E+00  0.91033437243E+02  0.15463635691E+03  0.12500126473E+03 0.  0.
    9000005    1    3    3    0    0  0.47081748120E+02  0.23270882265E+02  0.36182051889E+01  0.52652790773E+02  0.10000000000E+01 0.  0.
    9000005    1    3    3    0    0 -0.47081748120E+02 -0.23270882265E+02  0.87415232054E+02  0.10198356614E+03  0.10000000000E+01 0.  0.
<mgrwt>
<rscale>  0 0.12500126E+03</rscale>
<asrwt>0</asrwt>
<pdfrwt beam="2">  1        4 0.48925323E-02 0.12500126E+03</pdfrwt>
<pdfrwt beam="1">  1       -4 0.18897676E-01 0.12500126E+03</pdfrwt>
<totfact> 0.98384135E+03</totfact>
</mgrwt>
</event>
<event>
 5    1  0.3217527E-002  0.1250012E+03  0.7818608E-02  0.1235067E+00
          4   -1    0    0  501    0  0.00000000000E+00  0.00000000000E+00  0.13634506588E+03  0.13635098053E+03  0.12700000000E+01 0.  1.
         -4   -1    0    0    0  501 -0.00000000000E+00 -0.00000000000E+00 -0.28629654288E+02  0.28657808790E+02  0.12700000000E+01 0.  1.
         25    2    1    2    0    0  0.00000000000E+00  0.00000000000E+00  0.10771541159E+03  0.16500878932E+03  0.12500116262E+03 0.  0.
    9000005    1    3    3    0    0  0.32136676389E+02  0.34715065671E+02 -0.45630619366E-01  0.47317056502E+02  0.10000000000E+01 0.  0.
    9000005    1    3    3    0    0 -0.32136676389E+02 -0.34715065671E+02  0.10776104221E+03  0.11769173281E+03  0.10000000000E+01 0.  0.
<mgrwt>
<rscale>  0 0.12500116E+03</rscale>
<asrwt>0</asrwt>
<pdfrwt beam="1">  1        4 0.20978784E-01 0.12500116E+03</pdfrwt>
<pdfrwt beam="2">  1       -4 0.44071829E-02 0.12500116E+03</pdfrwt>
<totfact> 0.96383210E+03</totfact>
</mgrwt>
</event>
<event>
 5    1  0.3217527E-002  0.1249991E+03  0.7818608E-02  0.1235071E+00
         -4   -1    0    0    0  501 -0.00000000000E+00  0.00000000000E+00  0.90269259941E+01  0.91158265069E+01  0.12700000000E+01 0. -1.
          4   -1    0    0  501    0  0.00000000000E+00 -0.00000000000E+00 -0.43051636229E+03  0.43051823550E+03  0.12700000000E+01 0. -1.
         25    2    1    2    0    0  0.00000000000E+00  0.00000000000E+00 -0.42148943630E+03  0.43963406201E+03  0.12499905427E+03 0.  0.
    9000005    1    3    3    0    0  0.21918941617E+02  0.54451349457E+02 -0.13532762894E+03  0.14751256426E+03  0.10000000000E+01 0.  0.
    9000005    1    3    3    0    0 -0.21918941617E+02 -0.54451349457E+02 -0.28616180735E+03  0.29212149775E+03  0.10000000000E+01 0.  0.
<mgrwt>
<rscale>  0 0.12499905E+03</rscale>
<asrwt>0</asrwt>
<pdfrwt beam="2">  1        4 0.66240253E-01 0.12499905E+03</pdfrwt>
<pdfrwt beam="1">  1       -4 0.13957408E-02 0.12499905E+03</pdfrwt>
<totfact> 0.60873602E+03</totfact>
</mgrwt>
</event>
<event>
 5    1  0.3217527E-002  0.1249990E+03  0.7818608E-02  0.1235071E+00
         -4   -1    0    0    0  501 -0.00000000000E+00  0.00000000000E+00  0.32967934875E+03  0.32968179491E+03  0.12700000000E+01 0.  1.
          4   -1    0    0  501    0  0.00000000000E+00 -0.00000000000E+00 -0.11811912283E+02  0.11879990395E+02  0.12700000000E+01 0.  1.
         25    2    1    2    0    0  0.00000000000E+00  0.00000000000E+00  0.31786743647E+03  0.34156178531E+03  0.12499898404E+03 0.  0.
    9000005    1    3    3    0    0  0.43932989403E+02  0.44408944133E+02  0.15426069472E+03  0.16643203962E+03  0.10000000000E+01 0.  0.
    9000005    1    3    3    0    0 -0.43932989403E+02 -0.44408944133E+02  0.16360674175E+03  0.17512974568E+03  0.10000000000E+01 0.  0.
<mgrwt>
<rscale>  0 0.12499898E+03</rscale>
<asrwt>0</asrwt>
<pdfrwt beam="2">  1        4 0.18226423E-02 0.12499898E+03</pdfrwt>
<pdfrwt beam="1">  1       -4 0.50725323E-01 0.12499898E+03</pdfrwt>
<totfact> 0.70664537E+03</totfact>
</mgrwt>
</event>
<event>
 5    1  0.3217527E-002  0.1249992E+03  0.7818608E-02  0.1235071E+00
          4   -1    0    0  501    0  0.00000000000E+00  0.00000000000E+00  0.72312104918E+01  0.73418870310E+01  0.12700000000E+01 0.  1.
         -4   -1    0    0    0  501 -0.00000000000E+00 -0.00000000000E+00 -0.53597213382E+03  0.53597363847E+03  0.12700000000E+01 0.  1.
         25    2    1    2    0    0  0.00000000000E+00  0.00000000000E+00 -0.52874092333E+03  0.54331552550E+03  0.12499918498E+03 0.  0.
    9000005    1    3    3    0    0  0.70130923614E+01  0.55469674861E+02 -0.14304551432E+03  0.15358739356E+03  0.10000000000E+01 0.  0.
    9000005    1    3    3    0    0 -0.70130923614E+01 -0.55469674861E+02 -0.38569540901E+03  0.38972813194E+03  0.10000000000E+01 0.  0.
<mgrwt>
<rscale>  0 0.12499918E+03</rscale>
<asrwt>0</asrwt>
<pdfrwt beam="1">  1        4 0.11211237E-02 0.12499918E+03</pdfrwt>
<pdfrwt beam="2">  1       -4 0.82465850E-01 0.12499918E+03</pdfrwt>
<totfact> 0.52654521E+03</totfact>
</mgrwt>
</event>
<event>
 5    1  0.3217527E-002  0.1249968E+03  0.7818608E-02  0.1235074E+00
          4   -1    0    0  501    0  0.00000000000E+00  0.00000000000E+00  0.11589269521E+03  0.11589965360E+03  0.12700000000E+01 0. -1.
         -4   -1    0    0    0  501 -0.00000000000E+00 -0.00000000000E+00 -0.33684096103E+02  0.33708029166E+02  0.12700000000E+01 0. -1.
         25    2    1    2    0    0  0.00000000000E+00  0.00000000000E+00  0.82208599110E+02  0.14960768276E+03  0.12499681985E+03 0.  0.
    9000005    1    3    3    0    0  0.63188861934E+01 -0.16619481158E+02 -0.30598574718E+02  0.35403506202E+02  0.10000000000E+01 0.  0.
    9000005    1    3    3    0    0 -0.63188861934E+01  0.16619481158E+02  0.11280717383E+03  0.11420417656E+03  0.10000000000E+01 0.  0.
<mgrwt>
<rscale>  0 0.12499682E+03</rscale>
<asrwt>0</asrwt>
<pdfrwt beam="1">  1        4 0.17832022E-01 0.12499682E+03</pdfrwt>
<pdfrwt beam="2">  1       -4 0.51845449E-02 0.12499682E+03</pdfrwt>
<totfact> 0.99389071E+03</totfact>
</mgrwt>
</event>
<event>
 5    1  0.3217527E-002  0.1250016E+03  0.7818608E-02  0.1235067E+00
         -4   -1    0    0    0  501 -0.00000000000E+00  0.00000000000E+00  0.36911110013E+02  0.36932951986E+02  0.12700000000E+01 0.  1.
          4   -1    0    0  501    0  0.00000000000E+00 -0.00000000000E+00 -0.10577439052E+03  0.10578201449E+03  0.12700000000E+01 0.  1.
         25    2    1    2    0    0  0.00000000000E+00  0.00000000000E+00 -0.68863280503E+02  0.14271496647E+03  0.12500164100E+03 0.  0.
    9000005    1    3    3    0    0  0.39927922901E+02 -0.31189441109E+02 -0.76198880956E+02  0.91511145348E+02  0.10000000000E+01 0.  0.
    9000005    1    3    3    0    0 -0.39927922901E+02  0.31189441109E+02  0.73356004530E+01  0.51203821125E+02  0.10000000000E+01 0.  0.
<mgrwt>
<rscale>  0 0.12500164E+03</rscale>
<asrwt>0</asrwt>
<pdfrwt beam="2">  1        4 0.16275250E-01 0.12500164E+03</pdfrwt>
<pdfrwt beam="1">  1       -4 0.56808990E-02 0.12500164E+03</pdfrwt>
<totfact> 0.10077251E+04</totfact>
</mgrwt>
</event>
<event>
 5    1  0.3217527E-002  0.1250040E+03  0.7818608E-02  0.1235063E+00
         -4   -1    0    0    0  501 -0.00000000000E+00  0.00000000000E+00  0.85880028914E+01  0.86813992917E+01  0.12700000000E+01 0.  1.
          4   -1    0    0  501    0  0.00000000000E+00 -0.00000000000E+00 -0.45232420660E+03  0.45232598950E+03  0.12700000000E+01 0.  1.
         25    2    1    2    0    0  0.00000000000E+00  0.00000000000E+00 -0.44373620371E+03  0.46100738879E+03  0.12500397609E+03 0.  0.
    9000005    1    3    3    0    0  0.51541735830E+01  0.41245421452E+02 -0.49765319312E+02  0.64848572092E+02  0.10000000000E+01 0.  0.
    9000005    1    3    3    0    0 -0.51541735830E+01 -0.41245421452E+02 -0.39397088439E+03  0.39615881670E+03  0.10000000000E+01 0.  0.
<mgrwt>
<rscale>  0 0.12500398E+03</rscale>
<asrwt>0</asrwt>
<pdfrwt beam="2">  1        4 0.69595643E-01 0.12500398E+03</pdfrwt>
<pdfrwt beam="1">  1       -4 0.13285530E-02 0.12500398E+03</pdfrwt>
<totfact> 0.59016789E+03</totfact>
</mgrwt>
</event>
<event>
 5    1  0.3217527E-002  0.1249998E+03  0.7818608E-02  0.1235070E+00
         -4   -1    0    0    0  501 -0.00000000000E+00  0.00000000000E+00  0.11654969117E+02  0.11723958594E+02  0.12700000000E+01 0. -1.
          4   -1    0    0  501    0  0.00000000000E+00 -0.00000000000E+00 -0.33409740418E+03  0.33409981798E+03  0.12700000000E+01 0. -1.
         25    2    1    2    0    0  0.00000000000E+00  0.00000000000E+00 -0.32244243506E+03  0.34582377658E+03  0.12499984208E+03 0.  0.
    9000005    1    3    3    0    0 -0.29986680332E+02  0.28172664794E+02 -0.29134938972E+03  0.29424202101E+03  0.10000000000E+01 0.  0.
    9000005    1    3    3    0    0  0.29986680332E+02 -0.28172664794E+02 -0.31093045342E+02  0.51581755569E+02  0.10000000000E+01 0.  0.
<mgrwt>
<rscale>  0 0.12499984E+03</rscale>
<asrwt>0</asrwt>
<pdfrwt beam="2">  1        4 0.51405086E-01 0.12499984E+03</pdfrwt>
<pdfrwt beam="1">  1       -4 0.17985650E-02 0.12499984E+03</pdfrwt>
<totfact> 0.70186697E+03</totfact>
</mgrwt>
</event>
<event>
 5    1  0.3217527E-002  0.1249930E+03  0.7818608E-02  0.1235080E+00
          4   -1    0    0  501    0  0.00000000000E+00  0.00000000000E+00  0.37052455635E+02  0.37074214335E+02  0.12700000000E+01 0.  1.
         -4   -1    0    0    0  501 -0.00000000000E+00 -0.00000000000E+00 -0.10535655869E+03  0.10536421290E+03  0.12700000000E+01 0.  1.
         25    2    1    2    0    0  0.00000000000E+00  0.00000000000E+00 -0.68304103057E+02  0.14243842723E+03  0.12499302004E+03 0.  0.
    9000005    1    3    3    0    0 -0.57058142685E+02 -0.23693544426E+02 -0.23474199609E+02  0.66098818003E+02  0.10000000000E+01 0.  0.
    9000005    1    3    3    0    0  0.57058142685E+02  0.23693544426E+02 -0.44829903448E+02  0.76339609229E+02  0.10000000000E+01 0.  0.
<mgrwt>
<rscale>  0 0.12499302E+03</rscale>
<asrwt>0</asrwt>
<pdfrwt beam="1">  1        4 0.57026404E-02 0.12499302E+03</pdfrwt>
<pdfrwt beam="2">  1       -4 0.16210964E-01 0.12499302E+03</pdfrwt>
<totfact> 0.10084881E+04</totfact>
</mgrwt>
</event>
<event>
 5    1  0.3217527E-002  0.1250000E+03  0.7818608E-02  0.1235069E+00
         -4   -1    0    0    0  501 -0.00000000000E+00  0.00000000000E+00  0.47447447876E+02  0.47464441532E+02  0.12700000000E+01 0.  1.
          4   -1    0    0  501    0  0.00000000000E+00 -0.00000000000E+00 -0.82291296732E+02  0.82301096092E+02  0.12700000000E+01 0.  1.
         25    2    1    2    0    0  0.00000000000E+00  0.00000000000E+00 -0.34843848856E+02  0.12976553762E+03  0.12500000381E+03 0.  0.
    9000005    1    3    3    0    0  0.27723156217E+02  0.20432768033E+02 -0.71555689014E+02  0.79418436338E+02  0.10000000000E+01 0.  0.
    9000005    1    3    3    0    0 -0.27723156217E+02 -0.20432768033E+02  0.36711840158E+02  0.50347101286E+02  0.10000000000E+01 0.  0.
<mgrwt>
<rscale>  0 0.12500000E+03</rscale>
<asrwt>0</asrwt>
<pdfrwt beam="2">  1        4 0.12662260E-01 0.12500000E+03</pdfrwt>
<pdfrwt beam="1">  1       -4 0.73016684E-02 0.12500000E+03</pdfrwt>
<totfact> 0.10349525E+04</totfact>
</mgrwt>
</event>
<event>
 5    1  0.3217527E-002  0.1250032E+03  0.7818608E-02  0.1235064E+00
          4   -1    0    0  501    0  0.00000000000E+00  0.00000000000E+00  0.27766799856E+01  0.30533345284E+01  0.12700000000E+01 0. -1.
         -4   -1    0    0    0  501 -0.00000000000E+00 -0.00000000000E+00 -0.13398391135E+04  0.13398397154E+04  0.12700000000E+01 0. -1.
         25    2    1    2    0    0  0.00000000000E+00  0.00000000000E+00 -0.13370624335E+04  0.13428930499E+04  0.12500316969E+03 0.  0.
    9000005    1    3    3    0    0 -0.54192496340E+02  0.10502520636E+02 -0.98326592564E+03  0.98481470853E+03  0.10000000000E+01 0.  0.
    9000005    1    3    3    0    0  0.54192496340E+02 -0.10502520636E+02 -0.35379650783E+03  0.35807834137E+03  0.10000000000E+01 0.  0.
<mgrwt>
<rscale>  0 0.12500317E+03</rscale>
<asrwt>0</asrwt>
<pdfrwt beam="1">  1        4 0.44851002E-03 0.12500317E+03</pdfrwt>
<pdfrwt beam="2">  1       -4 0.20614993E+00 0.12500317E+03</pdfrwt>
<totfact> 0.21236821E+03</totfact>
</mgrwt>
</event>
<event>
 5    1  0.3217527E-002  0.1249997E+03  0.7818608E-02  0.1235070E+00
         -4   -1    0    0    0  501 -0.00000000000E+00  0.00000000000E+00  0.53447975489E+03  0.53448126373E+03  0.12700000000E+01 0. -1.
          4   -1    0    0  501    0  0.00000000000E+00 -0.00000000000E+00 -0.72517699216E+01  0.73621373932E+01  0.12700000000E+01 0. -1.
         25    2    1    2    0    0  0.00000000000E+00  0.00000000000E+00  0.52722798496E+03  0.54184340113E+03  0.12499969286E+03 0.  0.
    9000005    1    3    3    0    0  0.53411932250E+02  0.22304541222E+02  0.16150272478E+03  0.17156473174E+03  0.10000000000E+01 0.  0.
    9000005    1    3    3    0    0 -0.53411932250E+02 -0.22304541222E+02  0.36572526019E+03  0.37027866939E+03  0.10000000000E+01 0.  0.
<mgrwt>
<rscale>  0 0.12499969E+03</rscale>
<asrwt>0</asrwt>
<pdfrwt beam="2">  1        4 0.11242624E-02 0.12499969E+03</pdfrwt>
<pdfrwt beam="1">  1       -4 0.82236287E-01 0.12499969E+03</pdfrwt>
<totfact> 0.52758310E+03</totfact>
</mgrwt>
</event>
<event>
 5    1  0.3217527E-002  0.1250020E+03  0.7818608E-02  0.1235066E+00
          4   -1    0    0  501    0  0.00000000000E+00  0.00000000000E+00  0.73304896775E+01  0.74396894365E+01  0.12700000000E+01 0. -1.
         -4   -1    0    0    0  501 -0.00000000000E+00 -0.00000000000E+00 -0.52884452447E+03  0.52884604940E+03  0.12700000000E+01 0. -1.
         25    2    1    2    0    0  0.00000000000E+00  0.00000000000E+00 -0.52151403479E+03  0.53628573883E+03  0.12500202074E+03 0.  0.
    9000005    1    3    3    0    0  0.22701045182E+02 -0.58194482942E+02 -0.25279869437E+03  0.26040375415E+03  0.10000000000E+01 0.  0.
    9000005    1    3    3    0    0 -0.22701045182E+02  0.58194482942E+02 -0.26871534042E+03  0.27588198469E+03  0.10000000000E+01 0.  0.
<mgrwt>
<rscale>  0 0.12500202E+03</rscale>
<asrwt>0</asrwt>
<pdfrwt beam="1">  1        4 0.11362853E-02 0.12500202E+03</pdfrwt>
<pdfrwt beam="2">  1       -4 0.81369184E-01 0.12500202E+03</pdfrwt>
<totfact> 0.53152652E+03</totfact>
</mgrwt>
</event>
<event>
 5    1  0.3217527E-002  0.1249983E+03  0.7818608E-02  0.1235072E+00
         -4   -1    0    0    0  501 -0.00000000000E+00  0.00000000000E+00  0.89054911239E+02  0.89063966428E+02  0.12700000000E+01 0.  1.
          4   -1    0    0  501    0  0.00000000000E+00 -0.00000000000E+00 -0.43841691892E+02  0.43860082626E+02  0.12700000000E+01 0.  1.
         25    2    1    2    0    0  0.00000000000E+00  0.00000000000E+00  0.45213219347E+02  0.13292404905E+03  0.12499827044E+03 0.  0.
    9000005    1    3    3    0    0  0.57977676173E+02  0.30645227130E+01 -0.19748838854E+01  0.58100795178E+02  0.10000000000E+01 0.  0.
    9000005    1    3    3    0    0 -0.57977676173E+02 -0.30645227130E+01  0.47188103233E+02  0.74823253876E+02  0.10000000000E+01 0.  0.
<mgrwt>
<rscale>  0 0.12499827E+03</rscale>
<asrwt>0</asrwt>
<pdfrwt beam="2">  1        4 0.67469870E-02 0.12499827E+03</pdfrwt>
<pdfrwt beam="1">  1       -4 0.13702867E-01 0.12499827E+03</pdfrwt>
<totfact> 0.10282416E+04</totfact>
</mgrwt>
</event>
<event>
 5    1  0.3217527E-002  0.1249998E+03  0.7818608E-02  0.1235070E+00
         -4   -1    0    0    0  501 -0.00000000000E+00  0.00000000000E+00  0.49743205444E+03  0.49743367567E+03  0.12700000000E+01 0.  1.
          4   -1    0    0  501    0  0.00000000000E+00 -0.00000000000E+00 -0.77998082833E+01  0.79025254986E+01  0.12700000000E+01 0.  1.
         25    2    1    2    0    0  0.00000000000E+00  0.00000000000E+00  0.48963224616E+03  0.50533620117E+03  0.12499975892E+03 0.  0.
    9000005    1    3    3    0    0  0.36766076141E+02  0.42620938193E+01  0.44837407225E+03  0.44990023168E+03  0.10000000000E+01 0.  0.
    9000005    1    3    3    0    0 -0.36766076141E+02 -0.42620938193E+01  0.41258173908E+02  0.55435969485E+02  0.10000000000E+01 0.  0.
<mgrwt>
<rscale>  0 0.12499976E+03</rscale>
<asrwt>0</asrwt>
<pdfrwt beam="2">  1        4 0.12079966E-02 0.12499976E+03</pdfrwt>
<pdfrwt beam="1">  1       -4 0.76536033E-01 0.12499976E+03</pdfrwt>
<totfact> 0.55453001E+03</totfact>
</mgrwt>
</event>
<event>
 5    1  0.3217527E-002  0.1250053E+03  0.7818608E-02  0.1235061E+00
          4   -1    0    0  501    0  0.00000000000E+00  0.00000000000E+00  0.14941917955E+03  0.14942457668E+03  0.12700000000E+01 0. -1.
         -4   -1    0    0    0  501 -0.00000000000E+00 -0.00000000000E+00 -0.26123807829E+02  0.26154659919E+02  0.12700000000E+01 0. -1.
         25    2    1    2    0    0  0.00000000000E+00  0.00000000000E+00  0.12329537172E+03  0.17557923660E+03  0.12500527844E+03 0.  0.
    9000005    1    3    3    0    0 -0.20204629250E+02 -0.46106332181E+02  0.11366549438E+03  0.12431759941E+03  0.10000000000E+01 0.  0.
    9000005    1    3    3    0    0  0.20204629250E+02  0.46106332181E+02  0.96298773442E+01  0.51261637196E+02  0.10000000000E+01 0.  0.
<mgrwt>
<rscale>  0 0.12500528E+03</rscale>
<asrwt>0</asrwt>
<pdfrwt beam="1">  1        4 0.22990354E-01 0.12500528E+03</pdfrwt>
<pdfrwt beam="2">  1       -4 0.40218358E-02 0.12500528E+03</pdfrwt>
<totfact> 0.94407683E+03</totfact>
</mgrwt>
</event>
<event>
 5    1  0.3217527E-002  0.1249994E+03  0.7818608E-02  0.1235070E+00
          4   -1    0    0  501    0  0.00000000000E+00  0.00000000000E+00  0.13180399633E+03  0.13181011474E+03  0.12700000000E+01 0.  1.
         -4   -1    0    0    0  501 -0.00000000000E+00 -0.00000000000E+00 -0.29616118707E+02  0.29643336305E+02  0.12700000000E+01 0.  1.
         25    2    1    2    0    0  0.00000000000E+00  0.00000000000E+00  0.10218787762E+03  0.16145345105E+03  0.12499941809E+03 0.  0.
    9000005    1    3    3    0    0 -0.50161525732E+02 -0.36871507364E+02  0.44075373391E+02  0.76284502086E+02  0.10000000000E+01 0.  0.
    9000005    1    3    3    0    0  0.50161525732E+02  0.36871507364E+02  0.58112504231E+02  0.85168948960E+02  0.10000000000E+01 0.  0.
<mgrwt>
<rscale>  0 0.12499942E+03</rscale>
<asrwt>0</asrwt>
<pdfrwt beam="1">  1        4 0.20280102E-01 0.12499942E+03</pdfrwt>
<pdfrwt beam="2">  1       -4 0.45588903E-02 0.12499942E+03</pdfrwt>
<totfact> 0.97064570E+03</totfact>
</mgrwt>
</event>
<event>
 5    1  0.3217527E-002  0.1250052E+03  0.7818608E-02  0.1235061E+00
         -4   -1    0    0    0  501 -0.00000000000E+00  0.00000000000E+00  0.88137732129E+02  0.88146881537E+02  0.12700000000E+01 0. -1.
          4   -1    0    0  501    0  0.00000000000E+00 -0.00000000000E+00 -0.44303003476E+02  0.44321202792E+02  0.12700000000E+01 0. -1.
         25    2    1    2    0    0  0.00000000000E+00  0.00000000000E+00  0.43834728653E+02  0.13246808433E+03  0.12500523961E+03 0.  0.
    9000005    1    3    3    0    0 -0.59719987240E+02 -0.80582996324E+01  0.43709419132E+01  0.60427793292E+02  0.10000000000E+01 0.  0.
    9000005    1    3    3    0    0  0.59719987240E+02  0.80582996324E+01  0.39463786740E+02  0.72040291038E+02  0.10000000000E+01 0.  0.
<mgrwt>
<rscale>  0 0.12500524E+03</rscale>
<asrwt>0</asrwt>
<pdfrwt beam="2">  1        4 0.68179506E-02 0.12500524E+03</pdfrwt>
<pdfrwt beam="1">  1       -4 0.13561755E-01 0.12500524E+03</pdfrwt>
<totfact> 0.10290501E+04</totfact>
</mgrwt>
</event>
<event>
 5    1  0.3217527E-002  0.1250010E+03  0.7818608E-02  0.1235068E+00
          4   -1    0    0  501    0  0.00000000000E+00  0.00000000000E+00  0.22372480596E+02  0.22408498120E+02  0.12700000000E+01 0.  1.
         -4   -1    0    0    0  501 -0.00000000000E+00 -0.00000000000E+00 -0.17442474693E+03  0.17442937035E+03  0.12700000000E+01 0.  1.
         25    2    1    2    0    0  0.00000000000E+00  0.00000000000E+00 -0.15205226634E+03  0.19683786847E+03  0.12500101907E+03 0.  0.
    9000005    1    3    3    0    0  0.29988978462E+02 -0.18425493048E+02  0.52876083810E+01  0.35606129046E+02  0.10000000000E+01 0.  0.
    9000005    1    3    3    0    0 -0.29988978462E+02  0.18425493048E+02 -0.15733987472E+03  0.16123173943E+03  0.10000000000E+01 0.  0.
<mgrwt>
<rscale>  0 0.12500102E+03</rscale>
<asrwt>0</asrwt>
<pdfrwt beam="1">  1        4 0.34450464E-02 0.12500102E+03</pdfrwt>
<pdfrwt beam="2">  1       -4 0.26837702E-01 0.12500102E+03</pdfrwt>
<totfact> 0.90668904E+03</totfact>
</mgrwt>
</event>
<event>
 5    1  0.3217527E-002  0.1250017E+03  0.7818608E-02  0.1235067E+00
         -4   -1    0    0    0  501 -0.00000000000E+00  0.00000000000E+00  0.48766021520E+03  0.48766186891E+03  0.12700000000E+01 0.  1.
          4   -1    0    0  501    0  0.00000000000E+00 -0.00000000000E+00 -0.79583870059E+01  0.80590833061E+01  0.12700000000E+01 0.  1.
         25    2    1    2    0    0  0.00000000000E+00  0.00000000000E+00  0.47970182820E+03  0.49572095222E+03  0.12500167396E+03 0.  0.
    9000005    1    3    3    0    0  0.10524659647E+01  0.56944820123E+02  0.34185032479E+03  0.34656379612E+03  0.10000000000E+01 0.  0.
    9000005    1    3    3    0    0 -0.10524659647E+01 -0.56944820123E+02  0.13785150341E+03  0.14915715610E+03  0.10000000000E+01 0.  0.
<mgrwt>
<rscale>  0 0.12500167E+03</rscale>
<asrwt>0</asrwt>
<pdfrwt beam="2">  1        4 0.12322401E-02 0.12500167E+03</pdfrwt>
<pdfrwt beam="1">  1       -4 0.75032536E-01 0.12500167E+03</pdfrwt>
<totfact> 0.56195825E+03</totfact>
</mgrwt>
</event>
<event>
 5    1  0.3217527E-002  0.1250010E+03  0.7818608E-02  0.1235068E+00
          4   -1    0    0  501    0  0.00000000000E+00  0.00000000000E+00  0.38227340264E+02  0.38248430604E+02  0.12700000000E+01 0. -1.
         -4   -1    0    0    0  501 -0.00000000000E+00 -0.00000000000E+00 -0.10213306439E+03  0.10214096016E+03  0.12700000000E+01 0. -1.
         25    2    1    2    0    0  0.00000000000E+00  0.00000000000E+00 -0.63905724126E+02  0.14038939076E+03  0.12500095784E+03 0.  0.
    9000005    1    3    3    0    0  0.49817329117E+02 -0.31432779860E+02 -0.55391208132E+02  0.80863909554E+02  0.10000000000E+01 0.  0.
    9000005    1    3    3    0    0 -0.49817329117E+02  0.31432779860E+02 -0.85145159940E+01  0.59525481205E+02  0.10000000000E+01 0.  0.
<mgrwt>
<rscale>  0 0.12500096E+03</rscale>
<asrwt>0</asrwt>
<pdfrwt beam="1">  1        4 0.58833590E-02 0.12500096E+03</pdfrwt>
<pdfrwt beam="2">  1       -4 0.15715009E-01 0.12500096E+03</pdfrwt>
<totfact> 0.10125303E+04</totfact>
</mgrwt>
</event>
<event>
 5    1  0.3217527E-002  0.1250016E+03  0.7818608E-02  0.1235067E+00
         -4   -1    0    0    0  501 -0.00000000000E+00  0.00000000000E+00  0.68654784091E+02  0.68666529536E+02  0.12700000000E+01 0.  1.
          4   -1    0    0  501    0  0.00000000000E+00 -0.00000000000E+00 -0.56874697720E+02  0.56888875369E+02  0.12700000000E+01 0.  1.
         25    2    1    2    0    0  0.00000000000E+00  0.00000000000E+00  0.11780086371E+02  0.12555540491E+03  0.12500155705E+03 0.  0.
    9000005    1    3    3    0    0  0.24397127450E+02  0.50286805290E+02 -0.22186710009E+02  0.60143434514E+02  0.10000000000E+01 0.  0.
    9000005    1    3    3    0    0 -0.24397127450E+02 -0.50286805290E+02  0.33966796380E+02  0.65411970391E+02  0.10000000000E+01 0.  0.
<mgrwt>
<rscale>  0 0.12500156E+03</rscale>
<asrwt>0</asrwt>
<pdfrwt beam="2">  1        4 0.87519476E-02 0.12500156E+03</pdfrwt>
<pdfrwt beam="1">  1       -4 0.10564269E-01 0.12500156E+03</pdfrwt>
<totfact> 0.10440364E+04</totfact>
</mgrwt>
</event>
<event>
 5    1  0.3217527E-002  0.1249474E+03  0.7818608E-02  0.1235152E+00
         -4   -1    0    0    0  501 -0.00000000000E+00  0.00000000000E+00  0.55293005047E+02  0.55307588151E+02  0.12700000000E+01 0. -1.
          4   -1    0    0  501    0  0.00000000000E+00 -0.00000000000E+00 -0.70557306614E+02  0.70568735405E+02  0.12700000000E+01 0. -1.
         25    2    1    2    0    0  0.00000000000E+00  0.00000000000E+00 -0.15264301567E+02  0.12587632356E+03  0.12494738865E+03 0.  0.
    9000005    1    3    3    0    0 -0.15245728258E+02 -0.26896606921E+02 -0.62313700421E+02  0.69569080447E+02  0.10000000000E+01 0.  0.
    9000005    1    3    3    0    0  0.15245728258E+02  0.26896606921E+02  0.47049398854E+02  0.56307243109E+02  0.10000000000E+01 0.  0.
<mgrwt>
<rscale>  0 0.12494739E+03</rscale>
<asrwt>0</asrwt>
<pdfrwt beam="2">  1        4 0.10856971E-01 0.12494739E+03</pdfrwt>
<pdfrwt beam="1">  1       -4 0.85086170E-02 0.12494739E+03</pdfrwt>
<totfact> 0.10446066E+04</totfact>
</mgrwt>
</event>
<event>
 5    1  0.3217527E-002  0.1250002E+03  0.7818608E-02  0.1235069E+00
          4   -1    0    0  501    0  0.00000000000E+00  0.00000000000E+00  0.70071241421E+02  0.70082749477E+02  0.12700000000E+01 0. -1.
         -4   -1    0    0    0  501 -0.00000000000E+00 -0.00000000000E+00 -0.55723699040E+02  0.55738169459E+02  0.12700000000E+01 0. -1.
         25    2    1    2    0    0  0.00000000000E+00  0.00000000000E+00  0.14347542381E+02  0.12582091894E+03  0.12500020668E+03 0.  0.
    9000005    1    3    3    0    0 -0.73321730688E+01  0.53349384293E+02  0.39089132006E+02  0.66549814480E+02  0.10000000000E+01 0.  0.
    9000005    1    3    3    0    0  0.73321730688E+01 -0.53349384293E+02 -0.24741589625E+02  0.59271104457E+02  0.10000000000E+01 0.  0.
<mgrwt>
<rscale>  0 0.12500021E+03</rscale>
<asrwt>0</asrwt>
<pdfrwt beam="1">  1        4 0.10782189E-01 0.12500021E+03</pdfrwt>
<pdfrwt beam="2">  1       -4 0.85748751E-02 0.12500021E+03</pdfrwt>
<totfact> 0.10434837E+04</totfact>
</mgrwt>
</event>
<event>
 5    1  0.3217527E-002  0.1249980E+03  0.7818608E-02  0.1235072E+00
         -4   -1    0    0    0  501 -0.00000000000E+00  0.00000000000E+00  0.11880524644E+04  0.11880531432E+04  0.12700000000E+01 0. -1.
          4   -1    0    0  501    0  0.00000000000E+00 -0.00000000000E+00 -0.31644909027E+01  0.34098244344E+01  0.12700000000E+01 0. -1.
         25    2    1    2    0    0  0.00000000000E+00  0.00000000000E+00  0.11848879735E+04  0.11914629677E+04  0.12499797401E+03 0.  0.
    9000005    1    3    3    0    0  0.27282406050E+02  0.27705082216E+02  0.12614005402E+03  0.13200081245E+03  0.10000000000E+01 0.  0.
    9000005    1    3    3    0    0 -0.27282406050E+02 -0.27705082216E+02  0.10587479195E+04  0.10594621552E+04  0.10000000000E+01 0.  0.
<mgrwt>
<rscale>  0 0.12499797E+03</rscale>
<asrwt>0</asrwt>
<pdfrwt beam="2">  1        4 0.50576878E-03 0.12499797E+03</pdfrwt>
<pdfrwt beam="1">  1       -4 0.18279622E+00 0.12499797E+03</pdfrwt>
<totfact> 0.24938405E+03</totfact>
</mgrwt>
</event>
<event>
 5    1  0.3217527E-002  0.1250010E+03  0.7818608E-02  0.1235068E+00
         -4   -1    0    0    0  501 -0.00000000000E+00  0.00000000000E+00  0.19131273847E+02  0.19173381001E+02  0.12700000000E+01 0. -1.
          4   -1    0    0  501    0  0.00000000000E+00 -0.00000000000E+00 -0.20391623761E+03  0.20392019238E+03  0.12700000000E+01 0. -1.
         25    2    1    2    0    0  0.00000000000E+00  0.00000000000E+00 -0.18478496376E+03  0.22309357338E+03  0.12500103860E+03 0.  0.
    9000005    1    3    3    0    0  0.53264925479E+02 -0.16891141617E+02 -0.42456538326E+02  0.70185615321E+02  0.10000000000E+01 0.  0.
    9000005    1    3    3    0    0 -0.53264925479E+02  0.16891141617E+02 -0.14232842544E+03  0.15290795806E+03  0.10000000000E+01 0.  0.
<mgrwt>
<rscale>  0 0.12500104E+03</rscale>
<asrwt>0</asrwt>
<pdfrwt beam="2">  1        4 0.31375271E-01 0.12500104E+03</pdfrwt>
<pdfrwt beam="1">  1       -4 0.29468163E-02 0.12500104E+03</pdfrwt>
<totfact> 0.86379184E+03</totfact>
</mgrwt>
</event>
<event>
 5    1  0.3217527E-002  0.1250035E+03  0.7818608E-02  0.1235064E+00
          4   -1    0    0  501    0  0.00000000000E+00  0.00000000000E+00  0.25893586183E+02  0.25924712254E+02  0.12700000000E+01 0. -1.
         -4   -1    0    0    0  501 -0.00000000000E+00 -0.00000000000E+00 -0.15074184570E+03  0.15074719548E+03  0.12700000000E+01 0. -1.
         25    2    1    2    0    0  0.00000000000E+00  0.00000000000E+00 -0.12484825952E+03  0.17667190774E+03  0.12500350026E+03 0.  0.
    9000005    1    3    3    0    0  0.15101200957E+02 -0.19279187660E+02 -0.14368460734E+03  0.14576007592E+03  0.10000000000E+01 0.  0.
    9000005    1    3    3    0    0 -0.15101200957E+02  0.19279187660E+02  0.18836347816E+02  0.30911831816E+02  0.10000000000E+01 0.  0.
<mgrwt>
<rscale>  0 0.12500350E+03</rscale>
<asrwt>0</asrwt>
<pdfrwt beam="1">  1        4 0.39864346E-02 0.12500350E+03</pdfrwt>
<pdfrwt beam="2">  1       -4 0.23193859E-01 0.12500350E+03</pdfrwt>
<totfact> 0.94212127E+03</totfact>
</mgrwt>
</event>
<event>
 5    1  0.3217527E-002  0.1250015E+03  0.7818608E-02  0.1235067E+00
         -4   -1    0    0    0  501 -0.00000000000E+00  0.00000000000E+00  0.64022307614E+02  0.64034902765E+02  0.12700000000E+01 0. -1.
          4   -1    0    0  501    0  0.00000000000E+00 -0.00000000000E+00 -0.60990147473E+02  0.61003368668E+02  0.12700000000E+01 0. -1.
         25    2    1    2    0    0  0.00000000000E+00  0.00000000000E+00  0.30321601403E+01  0.12503827143E+03  0.12500150130E+03 0.  0.
    9000005    1    3    3    0    0 -0.57427581728E+02 -0.23960605320E+02 -0.42567596873E+01  0.62379145181E+02  0.10000000000E+01 0.  0.
    9000005    1    3    3    0    0  0.57427581728E+02  0.23960605320E+02  0.72889198276E+01  0.62659126252E+02  0.10000000000E+01 0.  0.
<mgrwt>
<rscale>  0 0.12500150E+03</rscale>
<asrwt>0</asrwt>
<pdfrwt beam="2">  1        4 0.93850856E-02 0.12500150E+03</pdfrwt>
<pdfrwt beam="1">  1       -4 0.98515716E-02 0.12500150E+03</pdfrwt>
<totfact> 0.10451677E+04</totfact>
</mgrwt>
</event>
<event>
 5    1  0.3217527E-002  0.1250008E+03  0.7818608E-02  0.1235068E+00
          4   -1    0    0  501    0  0.00000000000E+00  0.00000000000E+00  0.51550834565E+02  0.51566475974E+02  0.12700000000E+01 0.  1.
         -4   -1    0    0    0  501 -0.00000000000E+00 -0.00000000000E+00 -0.75743220178E+02  0.75753866587E+02  0.12700000000E+01 0.  1.
         25    2    1    2    0    0  0.00000000000E+00  0.00000000000E+00 -0.24192385612E+02  0.12732034256E+03  0.12500079243E+03 0.  0.
    9000005    1    3    3    0    0 -0.45385830712E+02  0.42237091198E+02 -0.20080922116E+02  0.65177365207E+02  0.10000000000E+01 0.  0.
    9000005    1    3    3    0    0  0.45385830712E+02 -0.42237091198E+02 -0.41114634965E+01  0.62142977354E+02  0.10000000000E+01 0.  0.
<mgrwt>
<rscale>  0 0.12500079E+03</rscale>
<asrwt>0</asrwt>
<pdfrwt beam="1">  1        4 0.79329198E-02 0.12500079E+03</pdfrwt>
<pdfrwt beam="2">  1       -4 0.11654825E-01 0.12500079E+03</pdfrwt>
<totfact> 0.10402007E+04</totfact>
</mgrwt>
</event>
<event>
 5    1  0.3217527E-002  0.1250001E+03  0.7818608E-02  0.1235069E+00
         -4   -1    0    0    0  501 -0.00000000000E+00  0.00000000000E+00  0.13295652179E+02  0.13356169618E+02  0.12700000000E+01 0. -1.
          4   -1    0    0  501    0  0.00000000000E+00 -0.00000000000E+00 -0.29307072030E+03  0.29307347201E+03  0.12700000000E+01 0. -1.
         25    2    1    2    0    0  0.00000000000E+00  0.00000000000E+00 -0.27977506812E+03  0.30642964163E+03  0.12500014611E+03 0.  0.
    9000005    1    3    3    0    0  0.28833004848E+02 -0.29799792493E+02 -0.25450065477E+03  0.25785839734E+03  0.10000000000E+01 0.  0.
    9000005    1    3    3    0    0 -0.28833004848E+02  0.29799792493E+02 -0.25274413347E+02  0.48571244284E+02  0.10000000000E+01 0.  0.
<mgrwt>
<rscale>  0 0.12500015E+03</rscale>
<asrwt>0</asrwt>
<pdfrwt beam="2">  1        4 0.45092665E-01 0.12500015E+03</pdfrwt>
<pdfrwt beam="1">  1       -4 0.20503520E-02 0.12500015E+03</pdfrwt>
<totfact> 0.74799090E+03</totfact>
</mgrwt>
</event>
<event>
 5    1  0.3217527E-002  0.1250002E+03  0.7818608E-02  0.1235069E+00
          4   -1    0    0  501    0  0.00000000000E+00  0.00000000000E+00  0.26992778010E+02  0.27022638004E+02  0.12700000000E+01 0.  1.
         -4   -1    0    0    0  501 -0.00000000000E+00 -0.00000000000E+00 -0.14460236169E+03  0.14460793861E+03  0.12700000000E+01 0.  1.
         25    2    1    2    0    0  0.00000000000E+00  0.00000000000E+00 -0.11760958368E+03  0.17163057661E+03  0.12500016261E+03 0.  0.
    9000005    1    3    3    0    0 -0.59612089021E+02 -0.40407219943E+01 -0.83948035596E+02  0.10304465669E+03  0.10000000000E+01 0.  0.
    9000005    1    3    3    0    0  0.59612089021E+02  0.40407219943E+01 -0.33661548088E+02  0.68585919921E+02  0.10000000000E+01 0.  0.
<mgrwt>
<rscale>  0 0.12500016E+03</rscale>
<asrwt>0</asrwt>
<pdfrwt beam="1">  1        4 0.41554611E-02 0.12500016E+03</pdfrwt>
<pdfrwt beam="2">  1       -4 0.22249243E-01 0.12500016E+03</pdfrwt>
<totfact> 0.95145243E+03</totfact>
</mgrwt>
</event>
<event>
 5    1  0.3217527E-002  0.1249973E+03  0.7818608E-02  0.1235074E+00
          4   -1    0    0  501    0  0.00000000000E+00  0.00000000000E+00  0.14739732057E+02  0.14794343552E+02  0.12700000000E+01 0.  1.
         -4   -1    0    0    0  501 -0.00000000000E+00 -0.00000000000E+00 -0.26445721503E+03  0.26446026447E+03  0.12700000000E+01 0.  1.
         25    2    1    2    0    0  0.00000000000E+00  0.00000000000E+00 -0.24971748297E+03  0.27925460802E+03  0.12499725916E+03 0.  0.
    9000005    1    3    3    0    0 -0.41516329123E+02 -0.46517212445E+02 -0.11548035304E+03  0.13124087997E+03  0.10000000000E+01 0.  0.
    9000005    1    3    3    0    0  0.41516329123E+02  0.46517212445E+02 -0.13423712994E+03  0.14801372805E+03  0.10000000000E+01 0.  0.
<mgrwt>
<rscale>  0 0.12499726E+03</rscale>
<asrwt>0</asrwt>
<pdfrwt beam="1">  1        4 0.22720867E-02 0.12499726E+03</pdfrwt>
<pdfrwt beam="2">  1       -4 0.40690157E-01 0.12499726E+03</pdfrwt>
<totfact> 0.78281814E+03</totfact>
</mgrwt>
</event>
<event>
 5    1  0.3217527E-002  0.1249981E+03  0.7818608E-02  0.1235072E+00
         -4   -1    0    0    0  501 -0.00000000000E+00  0.00000000000E+00  0.14501502950E+03  0.14502059054E+03  0.12700000000E+01 0.  1.
          4   -1    0    0  501    0  0.00000000000E+00 -0.00000000000E+00 -0.26915011546E+02  0.26944957720E+02  0.12700000000E+01 0.  1.
         25    2    1    2    0    0  0.00000000000E+00  0.00000000000E+00  0.11810001795E+03  0.17196554826E+03  0.12499814218E+03 0.  0.
    9000005    1    3    3    0    0 -0.24108686149E+02  0.25659067330E+02 -0.11977838201E+02  0.37203294102E+02  0.10000000000E+01 0.  0.
    9000005    1    3    3    0    0  0.24108686149E+02 -0.25659067330E+02  0.13007785615E+03  0.13476225416E+03  0.10000000000E+01 0.  0.
<mgrwt>
<rscale>  0 0.12499814E+03</rscale>
<asrwt>0</asrwt>
<pdfrwt beam="2">  1        4 0.41435023E-02 0.12499814E+03</pdfrwt>
<pdfrwt beam="1">  1       -4 0.22312736E-01 0.12499814E+03</pdfrwt>
<totfact> 0.95087513E+03</totfact>
</mgrwt>
</event>
<event>
 5    1  0.3217527E-002  0.1250013E+03  0.7818608E-02  0.1235067E+00
          4   -1    0    0  501    0  0.00000000000E+00  0.00000000000E+00  0.12522993682E+03  0.12523637641E+03  0.12700000000E+01 0. -1.
         -4   -1    0    0    0  501 -0.00000000000E+00 -0.00000000000E+00 -0.31173112791E+02  0.31198972116E+02  0.12700000000E+01 0. -1.
         25    2    1    2    0    0  0.00000000000E+00  0.00000000000E+00  0.94056824027E+02  0.15643534852E+03  0.12500132848E+03 0.  0.
    9000005    1    3    3    0    0  0.10029322567E+02 -0.34674851495E+02 -0.16813711406E+02  0.39832568691E+02  0.10000000000E+01 0.  0.
    9000005    1    3    3    0    0 -0.10029322567E+02  0.34674851495E+02  0.11087053543E+03  0.11660277983E+03  0.10000000000E+01 0.  0.
<mgrwt>
<rscale>  0 0.12500133E+03</rscale>
<asrwt>0</asrwt>
<pdfrwt beam="1">  1        4 0.19268629E-01 0.12500133E+03</pdfrwt>
<pdfrwt beam="2">  1       -4 0.47983479E-02 0.12500133E+03</pdfrwt>
<totfact> 0.98031528E+03</totfact>
</mgrwt>
</event>
<event>
 5    1  0.3217527E-002  0.1249996E+03  0.7818608E-02  0.1235070E+00
          4   -1    0    0  501    0  0.00000000000E+00  0.00000000000E+00  0.15091904173E+03  0.15092438523E+03  0.12700000000E+01 0.  1.
         -4   -1    0    0    0  501 -0.00000000000E+00 -0.00000000000E+00 -0.25861521599E+02  0.25892686215E+02  0.12700000000E+01 0.  1.
         25    2    1    2    0    0  0.00000000000E+00  0.00000000000E+00  0.12505752014E+03  0.17681707145E+03  0.12499957365E+03 0.  0.
    9000005    1    3    3    0    0 -0.54323696768E+02 -0.30329097180E+02  0.54243701987E+02  0.82548757541E+02  0.10000000000E+01 0.  0.
    9000005    1    3    3    0    0  0.54323696768E+02  0.30329097180E+02  0.70813818148E+02  0.94268313908E+02  0.10000000000E+01 0.  0.
<mgrwt>
<rscale>  0 0.12499957E+03</rscale>
<asrwt>0</asrwt>
<pdfrwt beam="1">  1        4 0.23221123E-01 0.12499957E+03</pdfrwt>
<pdfrwt beam="2">  1       -4 0.39815038E-02 0.12499957E+03</pdfrwt>
<totfact> 0.94193998E+03</totfact>
</mgrwt>
</event>
<event>
 5    1  0.3217527E-002  0.1249980E+03  0.7818608E-02  0.1235072E+00
         -4   -1    0    0    0  501 -0.00000000000E+00  0.00000000000E+00  0.24612407147E+02  0.24645151360E+02  0.12700000000E+01 0. -1.
          4   -1    0    0  501    0  0.00000000000E+00 -0.00000000000E+00 -0.15856483545E+03  0.15856992130E+03  0.12700000000E+01 0. -1.
         25    2    1    2    0    0  0.00000000000E+00  0.00000000000E+00 -0.13395242830E+03  0.18321507266E+03  0.12499803919E+03 0.  0.
    9000005    1    3    3    0    0  0.34543237255E+02  0.30485877079E+02 -0.12885947576E+03  0.13685170234E+03  0.10000000000E+01 0.  0.
    9000005    1    3    3    0    0 -0.34543237255E+02 -0.30485877079E+02 -0.50929525404E+01  0.46363370314E+02  0.10000000000E+01 0.  0.
<mgrwt>
<rscale>  0 0.12499804E+03</rscale>
<asrwt>0</asrwt>
<pdfrwt beam="2">  1        4 0.24397499E-01 0.12499804E+03</pdfrwt>
<pdfrwt beam="1">  1       -4 0.37894343E-02 0.12499804E+03</pdfrwt>
<totfact> 0.93045550E+03</totfact>
</mgrwt>
</event>
<event>
 5    1  0.3217527E-002  0.1249991E+03  0.7818608E-02  0.1235071E+00
         -4   -1    0    0    0  501 -0.00000000000E+00  0.00000000000E+00  0.70566661884E+02  0.70578089160E+02  0.12700000000E+01 0.  1.
          4   -1    0    0  501    0  0.00000000000E+00 -0.00000000000E+00 -0.55331458297E+02  0.55346031269E+02  0.12700000000E+01 0.  1.
         25    2    1    2    0    0  0.00000000000E+00  0.00000000000E+00  0.15235203587E+02  0.12592412043E+03  0.12499909071E+03 0.  0.
    9000005    1    3    3    0    0  0.98334644089E+01 -0.60295604724E+02 -0.56302367250E+01  0.61359241658E+02  0.10000000000E+01 0.  0.
    9000005    1    3    3    0    0 -0.98334644089E+01  0.60295604724E+02  0.20865440312E+02  0.64564878771E+02  0.10000000000E+01 0.  0.
<mgrwt>
<rscale>  0 0.12499909E+03</rscale>
<asrwt>0</asrwt>
<pdfrwt beam="2">  1        4 0.85145320E-02 0.12499909E+03</pdfrwt>
<pdfrwt beam="1">  1       -4 0.10858410E-01 0.12499909E+03</pdfrwt>
<totfact> 0.10432835E+04</totfact>
</mgrwt>
</event>
<event>
 5    1  0.3217527E-002  0.1250023E+03  0.7818608E-02  0.1235066E+00
          4   -1    0    0  501    0  0.00000000000E+00  0.00000000000E+00  0.11105183147E+03  0.11105909316E+03  0.12700000000E+01 0.  1.
         -4   -1    0    0    0  501 -0.00000000000E+00 -0.00000000000E+00 -0.35156414769E+02  0.35179346205E+02  0.12700000000E+01 0.  1.
         25    2    1    2    0    0  0.00000000000E+00  0.00000000000E+00  0.75895416704E+02  0.14623843936E+03  0.12500226746E+03 0.  0.
    9000005    1    3    3    0    0  0.39699795644E+02  0.42936456754E+02  0.12162962602E+02  0.59737348050E+02  0.10000000000E+01 0.  0.
    9000005    1    3    3    0    0 -0.39699795644E+02 -0.42936456754E+02  0.63732454102E+02  0.86501091315E+02  0.10000000000E+01 0.  0.
<mgrwt>
<rscale>  0 0.12500227E+03</rscale>
<asrwt>0</asrwt>
<pdfrwt beam="1">  1        4 0.17087220E-01 0.12500227E+03</pdfrwt>
<pdfrwt beam="2">  1       -4 0.54110017E-02 0.12500227E+03</pdfrwt>
<totfact> 0.10005376E+04</totfact>
</mgrwt>
</event>
<event>
 5    1  0.3217527E-002  0.1250002E+03  0.7818608E-02  0.1235069E+00
          4   -1    0    0  501    0  0.00000000000E+00  0.00000000000E+00  0.34993063071E+03  0.34993293530E+03  0.12700000000E+01 0.  1.
         -4   -1    0    0    0  501 -0.00000000000E+00 -0.00000000000E+00 -0.11124499923E+02  0.11196758394E+02  0.12700000000E+01 0.  1.
         25    2    1    2    0    0  0.00000000000E+00  0.00000000000E+00  0.33880613079E+03  0.36112969369E+03  0.12500024564E+03 0.  0.
    9000005    1    3    3    0    0 -0.54774725428E+02  0.24771468544E+02  0.12008862391E+03  0.13429882275E+03  0.10000000000E+01 0.  0.
    9000005    1    3    3    0    0  0.54774725428E+02 -0.24771468544E+02  0.21871750687E+03  0.22683087094E+03  0.10000000000E+01 0.  0.
<mgrwt>
<rscale>  0 0.12500025E+03</rscale>
<asrwt>0</asrwt>
<pdfrwt beam="1">  1        4 0.53841214E-01 0.12500025E+03</pdfrwt>
<pdfrwt beam="2">  1       -4 0.17171973E-02 0.12500025E+03</pdfrwt>
<totfact> 0.68516890E+03</totfact>
</mgrwt>
</event>
<event>
 5    1  0.3217527E-002  0.1250033E+03  0.7818608E-02  0.1235064E+00
          4   -1    0    0  501    0  0.00000000000E+00  0.00000000000E+00  0.43860656281E+01  0.45662316732E+01  0.12700000000E+01 0. -1.
         -4   -1    0    0    0  501 -0.00000000000E+00 -0.00000000000E+00 -0.87254695707E+03  0.87254788131E+03  0.12700000000E+01 0. -1.
         25    2    1    2    0    0  0.00000000000E+00  0.00000000000E+00 -0.86816089144E+03  0.87711411299E+03  0.12500333507E+03 0.  0.
    9000005    1    3    3    0    0  0.16782154958E+02  0.57302661500E+02 -0.56350484123E+03  0.56666034080E+03  0.10000000000E+01 0.  0.
    9000005    1    3    3    0    0 -0.16782154958E+02 -0.57302661500E+02 -0.30465605020E+03  0.31045377219E+03  0.10000000000E+01 0.  0.
<mgrwt>
<rscale>  0 0.12500334E+03</rscale>
<asrwt>0</asrwt>
<pdfrwt beam="1">  1        4 0.68871004E-03 0.12500334E+03</pdfrwt>
<pdfrwt beam="2">  1       -4 0.13425179E+00 0.12500334E+03</pdfrwt>
<totfact> 0.35040226E+03</totfact>
</mgrwt>
</event>
<event>
 5    1  0.3217527E-002  0.1250009E+03  0.7818608E-02  0.1235068E+00
         -4   -1    0    0    0  501 -0.00000000000E+00  0.00000000000E+00  0.31963770060E+02  0.31988990238E+02  0.12700000000E+01 0.  1.
          4   -1    0    0  501    0  0.00000000000E+00 -0.00000000000E+00 -0.12213364942E+03  0.12214025225E+03  0.12700000000E+01 0.  1.
         25    2    1    2    0    0  0.00000000000E+00  0.00000000000E+00 -0.90169879358E+02  0.15412924249E+03  0.12500086499E+03 0.  0.
    9000005    1    3    3    0    0  0.18786965752E+02 -0.13924069813E+02  0.26371773796E+02  0.35260463064E+02  0.10000000000E+01 0.  0.
    9000005    1    3    3    0    0 -0.18786965752E+02  0.13924069813E+02 -0.11654165315E+03  0.11886877943E+03  0.10000000000E+01 0.  0.
<mgrwt>
<rscale>  0 0.12500086E+03</rscale>
<asrwt>0</asrwt>
<pdfrwt beam="2">  1        4 0.18792240E-01 0.12500086E+03</pdfrwt>
<pdfrwt beam="1">  1       -4 0.49199511E-02 0.12500086E+03</pdfrwt>
<totfact> 0.98484795E+03</totfact>
</mgrwt>
</event>
<event>
 5    1  0.3217527E-002  0.1250010E+03  0.7818608E-02  0.1235068E+00
         -4   -1    0    0    0  501 -0.00000000000E+00  0.00000000000E+00  0.96577471653E+01  0.97408921721E+01  0.12700000000E+01 0.  1.
          4   -1    0    0  501    0  0.00000000000E+00 -0.00000000000E+00 -0.40265641723E+03  0.40265842005E+03  0.12700000000E+01 0.  1.
         25    2    1    2    0    0  0.00000000000E+00  0.00000000000E+00 -0.39299867006E+03  0.41239931222E+03  0.12500095219E+03 0.  0.
    9000005    1    3    3    0    0 -0.56368661517E+02  0.11601306263E+02 -0.27685921841E+03  0.28277914196E+03  0.10000000000E+01 0.  0.
    9000005    1    3    3    0    0  0.56368661517E+02 -0.11601306263E+02 -0.11613945165E+03  0.12962017026E+03  0.10000000000E+01 0.  0.
<mgrwt>
<rscale>  0 0.12500095E+03</rscale>
<asrwt>0</asrwt>
<pdfrwt beam="2">  1        4 0.61953678E-01 0.12500095E+03</pdfrwt>
<pdfrwt beam="1">  1       -4 0.14923574E-02 0.12500095E+03</pdfrwt>
<totfact> 0.63363126E+03</totfact>
</mgrwt>
</event>
<event>
 5    1  0.3217527E-002  0.1250003E+03  0.7818608E-02  0.1235069E+00
         -4   -1    0    0    0  501 -0.00000000000E+00  0.00000000000E+00  0.10507647414E+02  0.10584118016E+02  0.12700000000E+01 0. -1.
          4   -1    0    0  501    0  0.00000000000E+00 -0.00000000000E+00 -0.37032925042E+03  0.37033142807E+03  0.12700000000E+01 0. -1.
         25    2    1    2    0    0  0.00000000000E+00  0.00000000000E+00 -0.35982160301E+03  0.38091554609E+03  0.12500026904E+03 0.  0.
    9000005    1    3    3    0    0 -0.16052783013E+02 -0.36922717035E+02 -0.34266608577E+02  0.52878912045E+02  0.10000000000E+01 0.  0.
    9000005    1    3    3    0    0  0.16052783013E+02  0.36922717035E+02 -0.32555499443E+03  0.32803663404E+03  0.10000000000E+01 0.  0.
<mgrwt>
<rscale>  0 0.12500027E+03</rscale>
<asrwt>0</asrwt>
<pdfrwt beam="2">  1        4 0.56979771E-01 0.12500027E+03</pdfrwt>
<pdfrwt beam="1">  1       -4 0.16226113E-02 0.12500027E+03</pdfrwt>
<totfact> 0.66451829E+03</totfact>
</mgrwt>
</event>
<event>
 5    1  0.3217527E-002  0.1249990E+03  0.7818608E-02  0.1235071E+00
          4   -1    0    0  501    0  0.00000000000E+00  0.00000000000E+00  0.15557549315E+03  0.15558067672E+03  0.12700000000E+01 0.  1.
         -4   -1    0    0    0  501 -0.00000000000E+00 -0.00000000000E+00 -0.25086322019E+02  0.25118448448E+02  0.12700000000E+01 0.  1.
         25    2    1    2    0    0  0.00000000000E+00  0.00000000000E+00  0.13048917113E+03  0.18069912517E+03  0.12499900021E+03 0.  0.
    9000005    1    3    3    0    0  0.31408969001E+02  0.53840947437E+02  0.58809362114E+02  0.85702462198E+02  0.10000000000E+01 0.  0.
    9000005    1    3    3    0    0 -0.31408969001E+02 -0.53840947437E+02  0.71679809016E+02  0.94996662969E+02  0.10000000000E+01 0.  0.
<mgrwt>
<rscale>  0 0.12499900E+03</rscale>
<asrwt>0</asrwt>
<pdfrwt beam="1">  1        4 0.23937560E-01 0.12499900E+03</pdfrwt>
<pdfrwt beam="2">  1       -4 0.38623043E-02 0.12499900E+03</pdfrwt>
<totfact> 0.93493406E+03</totfact>
</mgrwt>
</event>
<event>
 5    1  0.3217527E-002  0.1250000E+03  0.7818608E-02  0.1235069E+00
         -4   -1    0    0    0  501 -0.00000000000E+00  0.00000000000E+00  0.30039136274E+02  0.30065970932E+02  0.12700000000E+01 0.  1.
          4   -1    0    0  501    0  0.00000000000E+00 -0.00000000000E+00 -0.12995075987E+03  0.12995696554E+03  0.12700000000E+01 0.  1.
         25    2    1    2    0    0  0.00000000000E+00  0.00000000000E+00 -0.99911623600E+02  0.16002293647E+03  0.12500003066E+03 0.  0.
    9000005    1    3    3    0    0 -0.52454389195E+02 -0.47375271204E+01 -0.93015374009E+02  0.10689605657E+03  0.10000000000E+01 0.  0.
    9000005    1    3    3    0    0  0.52454389195E+02  0.47375271204E+01 -0.68962495909E+01  0.53126879896E+02  0.10000000000E+01 0.  0.
<mgrwt>
<rscale>  0 0.12500003E+03</rscale>
<asrwt>0</asrwt>
<pdfrwt beam="2">  1        4 0.19994966E-01 0.12500003E+03</pdfrwt>
<pdfrwt beam="1">  1       -4 0.46239472E-02 0.12500003E+03</pdfrwt>
<totfact> 0.97338296E+03</totfact>
</mgrwt>
</event>
<event>
 5    1  0.3217527E-002  0.1249965E+03  0.7818608E-02  0.1235075E+00
         -4   -1    0    0    0  501 -0.00000000000E+00  0.00000000000E+00  0.13195255058E+03  0.13195866211E+03  0.12700000000E+01 0.  1.
          4   -1    0    0  501    0  0.00000000000E+00 -0.00000000000E+00 -0.29581384655E+02  0.29608634182E+02  0.12700000000E+01 0.  1.
         25    2    1    2    0    0  0.00000000000E+00  0.00000000000E+00  0.10237116593E+03  0.16156729629E+03  0.12499654242E+03 0.  0.
    9000005    1    3    3    0    0 -0.97815248058E+01 -0.35283789640E+01 -0.28461595014E+02  0.30318147641E+02  0.10000000000E+01 0.  0.
    9000005    1    3    3    0    0  0.97815248058E+01  0.35283789640E+01  0.13083276094E+03  0.13124914865E+03  0.10000000000E+01 0.  0.
<mgrwt>
<rscale>  0 0.12499654E+03</rscale>
<asrwt>0</asrwt>
<pdfrwt beam="2">  1        4 0.45535486E-02 0.12499654E+03</pdfrwt>
<pdfrwt beam="1">  1       -4 0.20302958E-01 0.12499654E+03</pdfrwt>
<totfact> 0.97049012E+03</totfact>
</mgrwt>
</event>
<event>
 5    1  0.3217527E-002  0.1250016E+03  0.7818608E-02  0.1235067E+00
         -4   -1    0    0    0  501 -0.00000000000E+00  0.00000000000E+00  0.14238102975E+02  0.14294631031E+02  0.12700000000E+01 0.  1.
          4   -1    0    0  501    0  0.00000000000E+00 -0.00000000000E+00 -0.27375720726E+03  0.27376015310E+03  0.12700000000E+01 0.  1.
         25    2    1    2    0    0  0.00000000000E+00  0.00000000000E+00 -0.25951910428E+03  0.28805478413E+03  0.12500157268E+03 0.  0.
    9000005    1    3    3    0    0  0.19671331233E+01 -0.56627838341E+02 -0.19050015294E+03  0.19875082379E+03  0.10000000000E+01 0.  0.
    9000005    1    3    3    0    0 -0.19671331233E+01  0.56627838341E+02 -0.69018951344E+02  0.89303960341E+02  0.10000000000E+01 0.  0.
<mgrwt>
<rscale>  0 0.12500157E+03</rscale>
<asrwt>0</asrwt>
<pdfrwt beam="2">  1        4 0.42121065E-01 0.12500157E+03</pdfrwt>
<pdfrwt beam="1">  1       -4 0.21950525E-02 0.12500157E+03</pdfrwt>
<totfact> 0.77119386E+03</totfact>
</mgrwt>
</event>
<event>
 5    1  0.3217527E-002  0.1250008E+03  0.7818608E-02  0.1235068E+00
         -4   -1    0    0    0  501 -0.00000000000E+00  0.00000000000E+00  0.29872099821E+03  0.29872369788E+03  0.12700000000E+01 0. -1.
          4   -1    0    0  501    0  0.00000000000E+00 -0.00000000000E+00 -0.13043152152E+02  0.13104835675E+02  0.12700000000E+01 0. -1.
         25    2    1    2    0    0  0.00000000000E+00  0.00000000000E+00  0.28567784606E+03  0.31182853355E+03  0.12500081043E+03 0.  0.
    9000005    1    3    3    0    0  0.39409879497E+02 -0.65426128971E+01  0.26271940827E+03  0.26574128747E+03  0.10000000000E+01 0.  0.
    9000005    1    3    3    0    0 -0.39409879497E+02  0.65426128971E+01  0.22958437792E+02  0.46087246081E+02  0.10000000000E+01 0.  0.
<mgrwt>
<rscale>  0 0.12500081E+03</rscale>
<asrwt>0</asrwt>
<pdfrwt beam="2">  1        4 0.20115914E-02 0.12500081E+03</pdfrwt>
<pdfrwt beam="1">  1       -4 0.45962029E-01 0.12500081E+03</pdfrwt>
<totfact> 0.74137313E+03</totfact>
</mgrwt>
</event>
<event>
 5    1  0.3217527E-002  0.1249964E+03  0.7818608E-02  0.1235075E+00
         -4   -1    0    0    0  501 -0.00000000000E+00  0.00000000000E+00  0.15860468886E+03  0.15860977343E+03  0.12700000000E+01 0. -1.
          4   -1    0    0  501    0  0.00000000000E+00 -0.00000000000E+00 -0.24605571208E+02  0.24638324506E+02  0.12700000000E+01 0. -1.
         25    2    1    2    0    0  0.00000000000E+00  0.00000000000E+00  0.13399911765E+03  0.18324809794E+03  0.12499640741E+03 0.  0.
    9000005    1    3    3    0    0 -0.19363149957E+02  0.31956084174E+02 -0.64321852363E+01  0.37927508472E+02  0.10000000000E+01 0.  0.
    9000005    1    3    3    0    0  0.19363149957E+02 -0.31956084174E+02  0.14043130289E+03  0.14532058946E+03  0.10000000000E+01 0.  0.
<mgrwt>
<rscale>  0 0.12499641E+03</rscale>
<asrwt>0</asrwt>
<pdfrwt beam="2">  1        4 0.37883831E-02 0.12499641E+03</pdfrwt>
<pdfrwt beam="1">  1       -4 0.24403632E-01 0.12499641E+03</pdfrwt>
<totfact> 0.93043073E+03</totfact>
</mgrwt>
</event>
<event>
 5    1  0.3217527E-002  0.1249977E+03  0.7818608E-02  0.1235073E+00
          4   -1    0    0  501    0  0.00000000000E+00  0.00000000000E+00  0.91693017573E+02  0.91701812259E+02  0.12700000000E+01 0. -1.
         -4   -1    0    0    0  501 -0.00000000000E+00 -0.00000000000E+00 -0.42579537977E+02  0.42598473615E+02  0.12700000000E+01 0. -1.
         25    2    1    2    0    0  0.00000000000E+00  0.00000000000E+00  0.49113479596E+02  0.13430028587E+03  0.12499773161E+03 0.  0.
    9000005    1    3    3    0    0  0.25032772386E+02  0.33841600393E+01  0.85968343078E+02  0.89608304549E+02  0.10000000000E+01 0.  0.
    9000005    1    3    3    0    0 -0.25032772386E+02 -0.33841600393E+01 -0.36854863483E+02  0.44691981326E+02  0.10000000000E+01 0.  0.
<mgrwt>
<rscale>  0 0.12499773E+03</rscale>
<asrwt>0</asrwt>
<pdfrwt beam="1">  1        4 0.14108751E-01 0.12499773E+03</pdfrwt>
<pdfrwt beam="2">  1       -4 0.65528313E-02 0.12499773E+03</pdfrwt>
<totfact> 0.10253365E+04</totfact>
</mgrwt>
</event>
<event>
 5    1  0.3217527E-002  0.1249995E+03  0.7818608E-02  0.1235070E+00
          4   -1    0    0  501    0  0.00000000000E+00  0.00000000000E+00  0.11906704055E+02  0.11974243252E+02  0.12700000000E+01 0. -1.
         -4   -1    0    0    0  501 -0.00000000000E+00 -0.00000000000E+00 -0.32707242541E+03  0.32707489106E+03  0.12700000000E+01 0. -1.
         25    2    1    2    0    0  0.00000000000E+00  0.00000000000E+00 -0.31516572135E+03  0.33904913431E+03  0.12499953425E+03 0.  0.
    9000005    1    3    3    0    0 -0.58215197999E+02 -0.20826992967E+02 -0.13295400434E+03  0.14663062498E+03  0.10000000000E+01 0.  0.
    9000005    1    3    3    0    0  0.58215197999E+02  0.20826992967E+02 -0.18221171702E+03  0.19241850933E+03  0.10000000000E+01 0.  0.
<mgrwt>
<rscale>  0 0.12499953E+03</rscale>
<asrwt>0</asrwt>
<pdfrwt beam="1">  1        4 0.18371859E-02 0.12499953E+03</pdfrwt>
<pdfrwt beam="2">  1       -4 0.50324213E-01 0.12499953E+03</pdfrwt>
<totfact> 0.70947062E+03</totfact>
</mgrwt>
</event>
<event>
 5    1  0.3217527E-002  0.1250077E+03  0.7818608E-02  0.1235057E+00
          4   -1    0    0  501    0  0.00000000000E+00  0.00000000000E+00  0.98244859343E+01  0.99062315677E+01  0.12700000000E+01 0.  1.
         -4   -1    0    0    0  501 -0.00000000000E+00 -0.00000000000E+00 -0.39592202727E+03  0.39592406416E+03  0.12700000000E+01 0.  1.
         25    2    1    2    0    0  0.00000000000E+00  0.00000000000E+00 -0.38609754134E+03  0.40583029572E+03  0.12500766977E+03 0.  0.
    9000005    1    3    3    0    0 -0.51458771432E+02 -0.27030010195E+01 -0.78250482028E+02  0.93698715623E+02  0.10000000000E+01 0.  0.
    9000005    1    3    3    0    0  0.51458771432E+02  0.27030010195E+01 -0.30784705931E+03  0.31213158010E+03  0.10000000000E+01 0.  0.
<mgrwt>
<rscale>  0 0.12500767E+03</rscale>
<asrwt>0</asrwt>
<pdfrwt beam="1">  1        4 0.15179045E-02 0.12500767E+03</pdfrwt>
<pdfrwt beam="2">  1       -4 0.60917514E-01 0.12500767E+03</pdfrwt>
<totfact> 0.63978839E+03</totfact>
</mgrwt>
</event>
<event>
 5    1  0.3217527E-002  0.1250048E+03  0.7818608E-02  0.1235062E+00
         -4   -1    0    0    0  501 -0.00000000000E+00  0.00000000000E+00  0.20143080232E+03  0.20143480589E+03  0.12700000000E+01 0. -1.
          4   -1    0    0  501    0  0.00000000000E+00 -0.00000000000E+00 -0.19369000831E+02  0.19410592293E+02  0.12700000000E+01 0. -1.
         25    2    1    2    0    0  0.00000000000E+00  0.00000000000E+00  0.18206180149E+03  0.22084539818E+03  0.12500476126E+03 0.  0.
    9000005    1    3    3    0    0 -0.50573945707E+02 -0.20242335208E+02  0.36920623152E+02  0.65814956758E+02  0.10000000000E+01 0.  0.
    9000005    1    3    3    0    0  0.50573945707E+02  0.20242335208E+02  0.14514117834E+03  0.15503044142E+03  0.10000000000E+01 0.  0.
<mgrwt>
<rscale>  0 0.12500476E+03</rscale>
<asrwt>0</asrwt>
<pdfrwt beam="2">  1        4 0.29833538E-02 0.12500476E+03</pdfrwt>
<pdfrwt beam="1">  1       -4 0.30992860E-01 0.12500476E+03</pdfrwt>
<totfact> 0.86725531E+03</totfact>
</mgrwt>
</event>
<event>
 5    1  0.3217527E-002  0.1250005E+03  0.7818608E-02  0.1235069E+00
          4   -1    0    0  501    0  0.00000000000E+00  0.00000000000E+00  0.10753262621E+02  0.10827998753E+02  0.12700000000E+01 0. -1.
         -4   -1    0    0    0  501 -0.00000000000E+00 -0.00000000000E+00 -0.36193083599E+03  0.36193306417E+03  0.12700000000E+01 0. -1.
         25    2    1    2    0    0  0.00000000000E+00  0.00000000000E+00 -0.35117757337E+03  0.37276106292E+03  0.12500048798E+03 0.  0.
    9000005    1    3    3    0    0 -0.34880776162E+00  0.53900268271E+02 -0.26988656082E+03  0.27521830662E+03  0.10000000000E+01 0.  0.
    9000005    1    3    3    0    0  0.34880776162E+00 -0.53900268271E+02 -0.81291012545E+02  0.97542756302E+02  0.10000000000E+01 0.  0.
<mgrwt>
<rscale>  0 0.12500049E+03</rscale>
<asrwt>0</asrwt>
<pdfrwt beam="1">  1        4 0.16602687E-02 0.12500049E+03</pdfrwt>
<pdfrwt beam="2">  1       -4 0.55687578E-01 0.12500049E+03</pdfrwt>
<totfact> 0.67290343E+03</totfact>
</mgrwt>
</event>
<event>
 5    1  0.3217527E-002  0.1250025E+03  0.7818608E-02  0.1235065E+00
         -4   -1    0    0    0  501 -0.00000000000E+00  0.00000000000E+00  0.34084091578E+02  0.34107743970E+02  0.12700000000E+01 0.  1.
          4   -1    0    0  501    0  0.00000000000E+00 -0.00000000000E+00 -0.11454396030E+03  0.11455100061E+03  0.12700000000E+01 0.  1.
         25    2    1    2    0    0  0.00000000000E+00  0.00000000000E+00 -0.80459868721E+02  0.14865874458E+03  0.12500252744E+03 0.  0.
    9000005    1    3    3    0    0  0.51461992078E+02  0.30695616884E+02 -0.19127924564E+02  0.62908147506E+02  0.10000000000E+01 0.  0.
    9000005    1    3    3    0    0 -0.51461992078E+02 -0.30695616884E+02 -0.61331944157E+02  0.85750597074E+02  0.10000000000E+01 0.  0.
<mgrwt>
<rscale>  0 0.12500253E+03</rscale>
<asrwt>0</asrwt>
<pdfrwt beam="2">  1        4 0.17624509E-01 0.12500253E+03</pdfrwt>
<pdfrwt beam="1">  1       -4 0.52460674E-02 0.12500253E+03</pdfrwt>
<totfact> 0.99566067E+03</totfact>
</mgrwt>
</event>
<event>
 5    1  0.3217527E-002  0.1249939E+03  0.7818608E-02  0.1235079E+00
          4   -1    0    0  501    0  0.00000000000E+00  0.00000000000E+00  0.13741301605E+04  0.13741307474E+04  0.12700000000E+01 0. -1.
         -4   -1    0    0    0  501 -0.00000000000E+00 -0.00000000000E+00 -0.26999530959E+01  0.29837303364E+01  0.12700000000E+01 0. -1.
         25    2    1    2    0    0  0.00000000000E+00  0.00000000000E+00  0.13714302074E+04  0.13771144778E+04  0.12499388368E+03 0.  0.
    9000005    1    3    3    0    0  0.57097885859E+02  0.21910453644E+02  0.54435158671E+03  0.54777722342E+03  0.10000000000E+01 0.  0.
    9000005    1    3    3    0    0 -0.57097885859E+02 -0.21910453644E+02  0.82707862074E+03  0.82933725434E+03  0.10000000000E+01 0.  0.
<mgrwt>
<rscale>  0 0.12499388E+03</rscale>
<asrwt>0</asrwt>
<pdfrwt beam="1">  1        4 0.21142648E+00 0.12499388E+03</pdfrwt>
<pdfrwt beam="2">  1       -4 0.43725163E-03 0.12499388E+03</pdfrwt>
<totfact> 0.20480152E+03</totfact>
</mgrwt>
</event>
<event>
 5    1  0.3217527E-002  0.1249979E+03  0.7818608E-02  0.1235073E+00
         -4   -1    0    0    0  501 -0.00000000000E+00  0.00000000000E+00  0.18414558885E+02  0.18458301085E+02  0.12700000000E+01 0. -1.
          4   -1    0    0  501    0  0.00000000000E+00 -0.00000000000E+00 -0.21182400399E+03  0.21182781112E+03  0.12700000000E+01 0. -1.
         25    2    1    2    0    0  0.00000000000E+00  0.00000000000E+00 -0.19340944510E+03  0.23028611221E+03  0.12499792007E+03 0.  0.
    9000005    1    3    3    0    0  0.18996703442E+02  0.11277729960E+02 -0.20439863157E+03  0.20559149429E+03  0.10000000000E+01 0.  0.
    9000005    1    3    3    0    0 -0.18996703442E+02 -0.11277729960E+02  0.10989186474E+02  0.24694617917E+02  0.10000000000E+01 0.  0.
<mgrwt>
<rscale>  0 0.12499792E+03</rscale>
<asrwt>0</asrwt>
<pdfrwt beam="2">  1        4 0.32591964E-01 0.12499792E+03</pdfrwt>
<pdfrwt beam="1">  1       -4 0.28366668E-02 0.12499792E+03</pdfrwt>
<totfact> 0.85269641E+03</totfact>
</mgrwt>
</event>
<event>
 5    1  0.3217527E-002  0.1250004E+03  0.7818608E-02  0.1235069E+00
         -4   -1    0    0    0  501 -0.00000000000E+00  0.00000000000E+00  0.17361132183E+02  0.17407521670E+02  0.12700000000E+01 0.  1.
          4   -1    0    0  501    0  0.00000000000E+00 -0.00000000000E+00 -0.22465273413E+03  0.22465632387E+03  0.12700000000E+01 0.  1.
         25    2    1    2    0    0  0.00000000000E+00  0.00000000000E+00 -0.20729160195E+03  0.24206384554E+03  0.12500038831E+03 0.  0.
    9000005    1    3    3    0    0  0.30847359196E+02  0.40801135378E+02 -0.34120640276E+02  0.61493985968E+02  0.10000000000E+01 0.  0.
    9000005    1    3    3    0    0 -0.30847359196E+02 -0.40801135378E+02 -0.17317096167E+03  0.18056985957E+03  0.10000000000E+01 0.  0.
<mgrwt>
<rscale>  0 0.12500039E+03</rscale>
<asrwt>0</asrwt>
<pdfrwt beam="2">  1        4 0.34565801E-01 0.12500039E+03</pdfrwt>
<pdfrwt beam="1">  1       -4 0.26747881E-02 0.12500039E+03</pdfrwt>
<totfact> 0.83490230E+03</totfact>
</mgrwt>
</event>
<event>
 5    1  0.3217527E-002  0.1250036E+03  0.7818608E-02  0.1235064E+00
         -4   -1    0    0    0  501 -0.00000000000E+00  0.00000000000E+00  0.67531912112E+01  0.68715712566E+01  0.12700000000E+01 0.  1.
          4   -1    0    0  501    0  0.00000000000E+00 -0.00000000000E+00 -0.57331810108E+03  0.57331950771E+03  0.12700000000E+01 0.  1.
         25    2    1    2    0    0  0.00000000000E+00  0.00000000000E+00 -0.56656490986E+03  0.58019107897E+03  0.12500356404E+03 0.  0.
    9000005    1    3    3    0    0 -0.48371446850E+02  0.84762810167E+01 -0.10389212515E+03  0.11491830958E+03  0.10000000000E+01 0.  0.
    9000005    1    3    3    0    0  0.48371446850E+02 -0.84762810167E+01 -0.46267278472E+03  0.46527276938E+03  0.10000000000E+01 0.  0.
<mgrwt>
<rscale>  0 0.12500356E+03</rscale>
<asrwt>0</asrwt>
<pdfrwt beam="2">  1        4 0.88211961E-01 0.12500356E+03</pdfrwt>
<pdfrwt beam="1">  1       -4 0.10481673E-02 0.12500356E+03</pdfrwt>
<totfact> 0.50138461E+03</totfact>
</mgrwt>
</event>
<event>
 5    1  0.3217527E-002  0.1249937E+03  0.7818608E-02  0.1235079E+00
          4   -1    0    0  501    0  0.00000000000E+00  0.00000000000E+00  0.34510524346E+02  0.34533884673E+02  0.12700000000E+01 0.  1.
         -4   -1    0    0    0  501 -0.00000000000E+00 -0.00000000000E+00 -0.11311351710E+03  0.11312064643E+03  0.12700000000E+01 0.  1.
         25    2    1    2    0    0  0.00000000000E+00  0.00000000000E+00 -0.78602992749E+02  0.14765453111E+03  0.12499372019E+03 0.  0.
    9000005    1    3    3    0    0  0.51566116997E+02 -0.59814981691E+01  0.17901859587E+01  0.51952358063E+02  0.10000000000E+01 0.  0.
    9000005    1    3    3    0    0 -0.51566116997E+02  0.59814981691E+01 -0.80393178708E+02  0.95702173044E+02  0.10000000000E+01 0.  0.
<mgrwt>
<rscale>  0 0.12499372E+03</rscale>
<asrwt>0</asrwt>
<pdfrwt beam="1">  1        4 0.53116569E-02 0.12499372E+03</pdfrwt>
<pdfrwt beam="2">  1       -4 0.17404425E-01 0.12499372E+03</pdfrwt>
<totfact> 0.99787409E+03</totfact>
</mgrwt>
</event>
<event>
 4    1  0.3217527E-002  0.1226744E+03  0.7818608E-02  0.1238749E+00
         -4   -1    0    0    0  501 -0.00000000000E+00  0.00000000000E+00  0.11100423071E+03  0.11101149551E+03  0.12700000000E+01 0. -1.
          4   -1    0    0  501    0  0.00000000000E+00 -0.00000000000E+00 -0.33872576763E+02  0.33896376747E+02  0.12700000000E+01 0. -1.
    9000005    1    1    2    0    0 -0.44881514909E+02 -0.40928173895E+02  0.48573938810E+02  0.77781060230E+02  0.10000000000E+01 0.  0.
    9000005    1    1    2    0    0  0.44881514909E+02  0.40928173895E+02  0.28557715133E+02  0.67126812025E+02  0.10000000000E+01 0.  0.
<mgrwt>
<rscale>  0 0.12267436E+03</rscale>
<asrwt>0</asrwt>
<pdfrwt beam="2">  1        4 0.52135552E-02 0.12267436E+03</pdfrwt>
<pdfrwt beam="1">  1       -4 0.17079964E-01 0.12267436E+03</pdfrwt>
<totfact> 0.10576876E+04</totfact>
</mgrwt>
</event>
<event>
 5    1  0.3217527E-002  0.1249894E+03  0.7818608E-02  0.1235086E+00
         -4   -1    0    0    0  501 -0.00000000000E+00  0.00000000000E+00  0.13018628266E+03  0.13019247710E+03  0.12700000000E+01 0.  1.
          4   -1    0    0  501    0  0.00000000000E+00 -0.00000000000E+00 -0.29979634304E+02  0.30006522175E+02  0.12700000000E+01 0.  1.
         25    2    1    2    0    0  0.00000000000E+00  0.00000000000E+00  0.10020664836E+03  0.16019899927E+03  0.12498938752E+03 0.  0.
    9000005    1    3    3    0    0  0.23703828264E+02  0.41966568111E+02  0.10107446306E+03  0.11198263882E+03  0.10000000000E+01 0.  0.
    9000005    1    3    3    0    0 -0.23703828264E+02 -0.41966568111E+02 -0.86781470346E+00  0.48216360457E+02  0.10000000000E+01 0.  0.
<mgrwt>
<rscale>  0 0.12498939E+03</rscale>
<asrwt>0</asrwt>
<pdfrwt beam="2">  1        4 0.46147963E-02 0.12498939E+03</pdfrwt>
<pdfrwt beam="1">  1       -4 0.20031203E-01 0.12498939E+03</pdfrwt>
<totfact> 0.97327647E+03</totfact>
</mgrwt>
</event>
<event>
 5    1  0.3217527E-002  0.1249979E+03  0.7818608E-02  0.1235073E+00
          4   -1    0    0  501    0  0.00000000000E+00  0.00000000000E+00  0.24995226549E+03  0.24995549189E+03  0.12700000000E+01 0. -1.
         -4   -1    0    0    0  501 -0.00000000000E+00 -0.00000000000E+00 -0.15598329648E+02  0.15649945297E+02  0.12700000000E+01 0. -1.
         25    2    1    2    0    0  0.00000000000E+00  0.00000000000E+00  0.23435393585E+03  0.26560543719E+03  0.12499792405E+03 0.  0.
    9000005    1    3    3    0    0 -0.25156913940E+02  0.19352420036E+02  0.23156047341E+03  0.23372770338E+03  0.10000000000E+01 0.  0.
    9000005    1    3    3    0    0  0.25156913940E+02 -0.19352420036E+02  0.27934624339E+01  0.31877733807E+02  0.10000000000E+01 0.  0.
<mgrwt>
<rscale>  0 0.12499792E+03</rscale>
<asrwt>0</asrwt>
<pdfrwt beam="1">  1        4 0.38458410E-01 0.12499792E+03</pdfrwt>
<pdfrwt beam="2">  1       -4 0.24039619E-02 0.12499792E+03</pdfrwt>
<totfact> 0.80129500E+03</totfact>
</mgrwt>
</event>
<event>
 5    1  0.3217527E-002  0.1250003E+03  0.7818608E-02  0.1235069E+00
          4   -1    0    0  501    0  0.00000000000E+00  0.00000000000E+00  0.55486248062E+03  0.55486393405E+03  0.12700000000E+01 0. -1.
         -4   -1    0    0    0  501 -0.00000000000E+00 -0.00000000000E+00 -0.69813130390E+01  0.70958883692E+01  0.12700000000E+01 0. -1.
         25    2    1    2    0    0  0.00000000000E+00  0.00000000000E+00  0.54788116759E+03  0.56195982241E+03  0.12500027286E+03 0.  0.
    9000005    1    3    3    0    0  0.31364476190E+02 -0.14296579632E+02  0.50828287565E+03  0.50945127758E+03  0.10000000000E+01 0.  0.
    9000005    1    3    3    0    0 -0.31364476190E+02  0.14296579632E+02  0.39598291939E+02  0.52508544832E+02  0.10000000000E+01 0.  0.
<mgrwt>
<rscale>  0 0.12500027E+03</rscale>
<asrwt>0</asrwt>
<pdfrwt beam="1">  1        4 0.85372381E-01 0.12500027E+03</pdfrwt>
<pdfrwt beam="2">  1       -4 0.10829735E-02 0.12500027E+03</pdfrwt>
<totfact> 0.51360057E+03</totfact>
</mgrwt>
</event>
<event>
 5    1  0.3217527E-002  0.1249924E+03  0.7818608E-02  0.1235081E+00
          4   -1    0    0  501    0  0.00000000000E+00  0.00000000000E+00  0.50673588078E+03  0.50673747224E+03  0.12700000000E+01 0.  1.
         -4   -1    0    0    0  501 -0.00000000000E+00 -0.00000000000E+00 -0.76537871962E+01  0.77584378869E+01  0.12700000000E+01 0.  1.
         25    2    1    2    0    0  0.00000000000E+00  0.00000000000E+00  0.49908209358E+03  0.51449591012E+03  0.12499242137E+03 0.  0.
    9000005    1    3    3    0    0 -0.57153038064E+02  0.15207593836E+02  0.33258623724E+03  0.33780518923E+03  0.10000000000E+01 0.  0.
    9000005    1    3    3    0    0  0.57153038064E+02 -0.15207593836E+02  0.16649585635E+03  0.17669072090E+03  0.10000000000E+01 0.  0.
<mgrwt>
<rscale>  0 0.12499242E+03</rscale>
<asrwt>0</asrwt>
<pdfrwt beam="1">  1        4 0.77967530E-01 0.12499242E+03</pdfrwt>
<pdfrwt beam="2">  1       -4 0.11856783E-02 0.12499242E+03</pdfrwt>
<totfact> 0.54766070E+03</totfact>
</mgrwt>
</event>
<event>
 5    1  0.3217527E-002  0.1249982E+03  0.7818608E-02  0.1235072E+00
         -4   -1    0    0    0  501 -0.00000000000E+00  0.00000000000E+00  0.19386529276E+02  0.19428083214E+02  0.12700000000E+01 0.  1.
          4   -1    0    0  501    0  0.00000000000E+00 -0.00000000000E+00 -0.20122786402E+03  0.20123187163E+03  0.12700000000E+01 0.  1.
         25    2    1    2    0    0  0.00000000000E+00  0.00000000000E+00 -0.18184133475E+03  0.22065995485E+03  0.12499817858E+03 0.  0.
    9000005    1    3    3    0    0  0.24589120479E+02 -0.56343660241E+02 -0.11072856305E+03  0.12665325725E+03  0.10000000000E+01 0.  0.
    9000005    1    3    3    0    0 -0.24589120479E+02  0.56343660241E+02 -0.71112771695E+02  0.94006697599E+02  0.10000000000E+01 0.  0.
<mgrwt>
<rscale>  0 0.12499818E+03</rscale>
<asrwt>0</asrwt>
<pdfrwt beam="2">  1        4 0.30961636E-01 0.12499818E+03</pdfrwt>
<pdfrwt beam="1">  1       -4 0.29860478E-02 0.12499818E+03</pdfrwt>
<totfact> 0.86767558E+03</totfact>
</mgrwt>
</event>
<event>
 5    1  0.3217527E-002  0.1250011E+03  0.7818608E-02  0.1235068E+00
          4   -1    0    0  501    0  0.00000000000E+00  0.00000000000E+00  0.34009099415E+02  0.34032803925E+02  0.12700000000E+01 0.  1.
         -4   -1    0    0    0  501 -0.00000000000E+00 -0.00000000000E+00 -0.11479371423E+03  0.11480073922E+03  0.12700000000E+01 0.  1.
         25    2    1    2    0    0  0.00000000000E+00  0.00000000000E+00 -0.80784614813E+02  0.14883354315E+03  0.12500107830E+03 0.  0.
    9000005    1    3    3    0    0 -0.15546235503E+02  0.56017007936E+02 -0.67692587977E+02  0.89234954381E+02  0.10000000000E+01 0.  0.
    9000005    1    3    3    0    0  0.15546235503E+02 -0.56017007936E+02 -0.13092026836E+02  0.59598588767E+02  0.10000000000E+01 0.  0.
<mgrwt>
<rscale>  0 0.12500108E+03</rscale>
<asrwt>0</asrwt>
<pdfrwt beam="1">  1        4 0.52345330E-02 0.12500108E+03</pdfrwt>
<pdfrwt beam="2">  1       -4 0.17662935E-01 0.12500108E+03</pdfrwt>
<totfact> 0.99534308E+03</totfact>
</mgrwt>
</event>
<event>
 5    1  0.3217527E-002  0.1249974E+03  0.7818608E-02  0.1235073E+00
         -4   -1    0    0    0  501 -0.00000000000E+00  0.00000000000E+00  0.31640698596E+02  0.31666176082E+02  0.12700000000E+01 0.  1.
          4   -1    0    0  501    0  0.00000000000E+00 -0.00000000000E+00 -0.12337292893E+03  0.12337946544E+03  0.12700000000E+01 0.  1.
         25    2    1    2    0    0  0.00000000000E+00  0.00000000000E+00 -0.91732230336E+02  0.15504564153E+03  0.12499739547E+03 0.  0.
    9000005    1    3    3    0    0 -0.29286709359E+02  0.21271591834E+02 -0.10905177344E+03  0.11490640215E+03  0.10000000000E+01 0.  0.
    9000005    1    3    3    0    0  0.29286709359E+02 -0.21271591834E+02  0.17319543107E+02  0.40139239376E+02  0.10000000000E+01 0.  0.
<mgrwt>
<rscale>  0 0.12499740E+03</rscale>
<asrwt>0</asrwt>
<pdfrwt beam="2">  1        4 0.18982913E-01 0.12499740E+03</pdfrwt>
<pdfrwt beam="1">  1       -4 0.48702625E-02 0.12499740E+03</pdfrwt>
<totfact> 0.98312298E+03</totfact>
</mgrwt>
</event>
<event>
 5    1  0.3217527E-002  0.1249933E+03  0.7818608E-02  0.1235080E+00
         -4   -1    0    0    0  501 -0.00000000000E+00  0.00000000000E+00  0.44405415407E+03  0.44405597017E+03  0.12700000000E+01 0. -1.
          4   -1    0    0  501    0  0.00000000000E+00 -0.00000000000E+00 -0.87481613659E+01  0.88398657956E+01  0.12700000000E+01 0. -1.
         25    2    1    2    0    0  0.00000000000E+00  0.00000000000E+00  0.43530599270E+03  0.45289583597E+03  0.12499332364E+03 0.  0.
    9000005    1    3    3    0    0 -0.31360452742E+02  0.95099974895E+01  0.24867258312E+02  0.41149709408E+02  0.10000000000E+01 0.  0.
    9000005    1    3    3    0    0  0.31360452742E+02 -0.95099974895E+01  0.41043873439E+03  0.41174612656E+03  0.10000000000E+01 0.  0.
<mgrwt>
<rscale>  0 0.12499332E+03</rscale>
<asrwt>0</asrwt>
<pdfrwt beam="2">  1        4 0.13530650E-02 0.12499332E+03</pdfrwt>
<pdfrwt beam="1">  1       -4 0.68323211E-01 0.12499332E+03</pdfrwt>
<totfact> 0.59722530E+03</totfact>
</mgrwt>
</event>
<event>
 5    1  0.3217527E-002  0.1249995E+03  0.7818608E-02  0.1235070E+00
          4   -1    0    0  501    0  0.00000000000E+00  0.00000000000E+00  0.20472465041E+03  0.20472858956E+03  0.12700000000E+01 0. -1.
         -4   -1    0    0    0  501 -0.00000000000E+00 -0.00000000000E+00 -0.19055098241E+02  0.19097373353E+02  0.12700000000E+01 0. -1.
         25    2    1    2    0    0  0.00000000000E+00  0.00000000000E+00  0.18566955217E+03  0.22382596292E+03  0.12499951629E+03 0.  0.
    9000005    1    3    3    0    0 -0.50275778966E+02 -0.32883652304E+02  0.62015846595E+02  0.86347864874E+02  0.10000000000E+01 0.  0.
    9000005    1    3    3    0    0  0.50275778966E+02  0.32883652304E+02  0.12365370557E+03  0.13747809804E+03  0.10000000000E+01 0.  0.
<mgrwt>
<rscale>  0 0.12499952E+03</rscale>
<asrwt>0</asrwt>
<pdfrwt beam="1">  1        4 0.31499653E-01 0.12499952E+03</pdfrwt>
<pdfrwt beam="2">  1       -4 0.29351087E-02 0.12499952E+03</pdfrwt>
<totfact> 0.86267471E+03</totfact>
</mgrwt>
</event>
<event>
 5    1  0.3217527E-002  0.1250026E+03  0.7818608E-02  0.1235065E+00
         -4   -1    0    0    0  501 -0.00000000000E+00  0.00000000000E+00  0.52528164935E+03  0.52528318462E+03  0.12700000000E+01 0. -1.
          4   -1    0    0  501    0  0.00000000000E+00 -0.00000000000E+00 -0.73810209574E+01  0.74894839858E+01  0.12700000000E+01 0. -1.
         25    2    1    2    0    0  0.00000000000E+00  0.00000000000E+00  0.51790062839E+03  0.53277266860E+03  0.12500262207E+03 0.  0.
    9000005    1    3    3    0    0 -0.18090954593E+02  0.52414891024E+02  0.38179992571E+03  0.38580667012E+03  0.10000000000E+01 0.  0.
    9000005    1    3    3    0    0  0.18090954593E+02 -0.52414891024E+02  0.13610070268E+03  0.14696599848E+03  0.10000000000E+01 0.  0.
<mgrwt>
<rscale>  0 0.12500262E+03</rscale>
<asrwt>0</asrwt>
<pdfrwt beam="2">  1        4 0.11440033E-02 0.12500262E+03</pdfrwt>
<pdfrwt beam="1">  1       -4 0.80821010E-01 0.12500262E+03</pdfrwt>
<totfact> 0.53405275E+03</totfact>
</mgrwt>
</event>
<event>
 5    1  0.3217527E-002  0.1250067E+03  0.7818608E-02  0.1235059E+00
         -4   -1    0    0    0  501 -0.00000000000E+00  0.00000000000E+00  0.45914299994E+02  0.45931860880E+02  0.12700000000E+01 0. -1.
          4   -1    0    0  501    0  0.00000000000E+00 -0.00000000000E+00 -0.85047497206E+02  0.85056979026E+02  0.12700000000E+01 0. -1.
         25    2    1    2    0    0  0.00000000000E+00  0.00000000000E+00 -0.39133197212E+02  0.13098883991E+03  0.12500667605E+03 0.  0.
    9000005    1    3    3    0    0  0.46905955254E+02  0.36006918568E+02  0.16249637599E+01  0.59163395189E+02  0.10000000000E+01 0.  0.
    9000005    1    3    3    0    0 -0.46905955254E+02 -0.36006918568E+02 -0.40758160972E+02  0.71825444717E+02  0.10000000000E+01 0.  0.
<mgrwt>
<rscale>  0 0.12500668E+03</rscale>
<asrwt>0</asrwt>
<pdfrwt beam="2">  1        4 0.13086311E-01 0.12500668E+03</pdfrwt>
<pdfrwt beam="1">  1       -4 0.70658187E-02 0.12500668E+03</pdfrwt>
<totfact> 0.10321774E+04</totfact>
</mgrwt>
</event>
<event>
 5    1  0.3217527E-002  0.1250047E+03  0.7818608E-02  0.1235062E+00
         -4   -1    0    0    0  501 -0.00000000000E+00  0.00000000000E+00  0.21791063589E+03  0.21791433669E+03  0.12700000000E+01 0. -1.
          4   -1    0    0  501    0  0.00000000000E+00 -0.00000000000E+00 -0.17900915249E+02  0.17945909472E+02  0.12700000000E+01 0. -1.
         25    2    1    2    0    0  0.00000000000E+00  0.00000000000E+00  0.20000972065E+03  0.23586024616E+03  0.12500466938E+03 0.  0.
    9000005    1    3    3    0    0 -0.30187629391E+02 -0.29232794482E+01 -0.30935185684E+01  0.30502596416E+02  0.10000000000E+01 0.  0.
    9000005    1    3    3    0    0  0.30187629391E+02  0.29232794482E+01  0.20310323921E+03  0.20535764975E+03  0.10000000000E+01 0.  0.
<mgrwt>
<rscale>  0 0.12500467E+03</rscale>
<asrwt>0</asrwt>
<pdfrwt beam="2">  1        4 0.27577325E-02 0.12500467E+03</pdfrwt>
<pdfrwt beam="1">  1       -4 0.33528461E-01 0.12500467E+03</pdfrwt>
<totfact> 0.84409006E+03</totfact>
</mgrwt>
</event>
<event>
 5    1  0.3217527E-002  0.1250026E+03  0.7818608E-02  0.1235065E+00
         -4   -1    0    0    0  501 -0.00000000000E+00  0.00000000000E+00  0.17260913417E+02  0.17307571522E+02  0.12700000000E+01 0.  1.
          4   -1    0    0  501    0  0.00000000000E+00 -0.00000000000E+00 -0.22596169579E+03  0.22596526473E+03  0.12700000000E+01 0.  1.
         25    2    1    2    0    0  0.00000000000E+00  0.00000000000E+00 -0.20870078237E+03  0.24327283625E+03  0.12500262515E+03 0.  0.
    9000005    1    3    3    0    0 -0.57123274727E+02  0.82279211287E+01 -0.57697881860E+02  0.81613802587E+02  0.10000000000E+01 0.  0.
    9000005    1    3    3    0    0  0.57123274727E+02 -0.82279211287E+01 -0.15100290051E+03  0.16165903366E+03  0.10000000000E+01 0.  0.
<mgrwt>
<rscale>  0 0.12500263E+03</rscale>
<asrwt>0</asrwt>
<pdfrwt beam="2">  1        4 0.34767199E-01 0.12500263E+03</pdfrwt>
<pdfrwt beam="1">  1       -4 0.26593889E-02 0.12500263E+03</pdfrwt>
<totfact> 0.83307465E+03</totfact>
</mgrwt>
</event>
<event>
 5    1  0.3217527E-002  0.1249964E+03  0.7818608E-02  0.1235075E+00
          4   -1    0    0  501    0  0.00000000000E+00  0.00000000000E+00  0.76869766880E+03  0.76869871791E+03  0.12700000000E+01 0. -1.
         -4   -1    0    0    0  501 -0.00000000000E+00 -0.00000000000E+00 -0.50009328490E+01  0.51596733773E+01  0.12700000000E+01 0. -1.
         25    2    1    2    0    0  0.00000000000E+00  0.00000000000E+00  0.76369673595E+03  0.77385839128E+03  0.12499642101E+03 0.  0.
    9000005    1    3    3    0    0 -0.45983850812E+01 -0.34976031842E+02  0.70118615660E+03  0.70207370992E+03  0.10000000000E+01 0.  0.
    9000005    1    3    3    0    0  0.45983850812E+01  0.34976031842E+02  0.62510579344E+02  0.71784681365E+02  0.10000000000E+01 0.  0.
<mgrwt>
<rscale>  0 0.12499642E+03</rscale>
<asrwt>0</asrwt>
<pdfrwt beam="1">  1        4 0.11827347E+00 0.12499642E+03</pdfrwt>
<pdfrwt beam="2">  1       -4 0.78166578E-03 0.12499642E+03</pdfrwt>
<totfact> 0.39461213E+03</totfact>
</mgrwt>
</event>
<event>
 5    1  0.3217527E-002  0.1250004E+03  0.7818608E-02  0.1235069E+00
         -4   -1    0    0    0  501 -0.00000000000E+00  0.00000000000E+00  0.32418237114E+02  0.32443104007E+02  0.12700000000E+01 0.  1.
          4   -1    0    0  501    0  0.00000000000E+00 -0.00000000000E+00 -0.12042189710E+03  0.12042859378E+03  0.12700000000E+01 0.  1.
         25    2    1    2    0    0  0.00000000000E+00  0.00000000000E+00 -0.88003659982E+02  0.15287169779E+03  0.12500044726E+03 0.  0.
    9000005    1    3    3    0    0 -0.23784569870E+02  0.21017268291E+02  0.21832621219E+02  0.38536926183E+02  0.10000000000E+01 0.  0.
    9000005    1    3    3    0    0  0.23784569870E+02 -0.21017268291E+02 -0.10983628120E+03  0.11433477161E+03  0.10000000000E+01 0.  0.
<mgrwt>
<rscale>  0 0.12500045E+03</rscale>
<asrwt>0</asrwt>
<pdfrwt beam="2">  1        4 0.18528873E-01 0.12500045E+03</pdfrwt>
<pdfrwt beam="1">  1       -4 0.49898491E-02 0.12500045E+03</pdfrwt>
<totfact> 0.98733324E+03</totfact>
</mgrwt>
</event>
<event>
 5    1  0.3217527E-002  0.1250005E+03  0.7818608E-02  0.1235068E+00
          4   -1    0    0  501    0  0.00000000000E+00  0.00000000000E+00  0.60879975941E+03  0.60880108407E+03  0.12700000000E+01 0. -1.
         -4   -1    0    0    0  501 -0.00000000000E+00 -0.00000000000E+00 -0.63521777767E+01  0.64778902820E+01  0.12700000000E+01 0. -1.
         25    2    1    2    0    0  0.00000000000E+00  0.00000000000E+00  0.60244758163E+03  0.61527897435E+03  0.12500051063E+03 0.  0.
    9000005    1    3    3    0    0 -0.54960764479E+02  0.71535936527E+01  0.15912418720E+03  0.16850331298E+03  0.10000000000E+01 0.  0.
    9000005    1    3    3    0    0  0.54960764479E+02 -0.71535936527E+01  0.44332339444E+03  0.44677566137E+03  0.10000000000E+01 0.  0.
<mgrwt>
<rscale>  0 0.12500051E+03</rscale>
<asrwt>0</asrwt>
<pdfrwt beam="1">  1        4 0.93671304E-01 0.12500051E+03</pdfrwt>
<pdfrwt beam="2">  1       -4 0.98702988E-03 0.12500051E+03</pdfrwt>
<totfact> 0.47916596E+03</totfact>
</mgrwt>
</event>
<event>
 5    1  0.3217527E-002  0.1249947E+03  0.7818608E-02  0.1235078E+00
         -4   -1    0    0    0  501 -0.00000000000E+00  0.00000000000E+00  0.56980956197E+02  0.56995107414E+02  0.12700000000E+01 0. -1.
          4   -1    0    0  501    0  0.00000000000E+00 -0.00000000000E+00 -0.68519230448E+02  0.68530999126E+02  0.12700000000E+01 0. -1.
         25    2    1    2    0    0  0.00000000000E+00  0.00000000000E+00 -0.11538274251E+02  0.12552610654E+03  0.12499468649E+03 0.  0.
    9000005    1    3    3    0    0 -0.14105859468E+02  0.52374199868E+02  0.25393191600E+02  0.59898633230E+02  0.10000000000E+01 0.  0.
    9000005    1    3    3    0    0  0.14105859468E+02 -0.52374199868E+02 -0.36931465851E+02  0.65627473310E+02  0.10000000000E+01 0.  0.
<mgrwt>
<rscale>  0 0.12499469E+03</rscale>
<asrwt>0</asrwt>
<pdfrwt beam="2">  1        4 0.10543414E-01 0.12499469E+03</pdfrwt>
<pdfrwt beam="1">  1       -4 0.87682948E-02 0.12499469E+03</pdfrwt>
<totfact> 0.10442629E+04</totfact>
</mgrwt>
</event>
<event>
 5    1  0.3217527E-002  0.1249989E+03  0.7818608E-02  0.1235071E+00
          4   -1    0    0  501    0  0.00000000000E+00  0.00000000000E+00  0.55281450037E+01  0.56721501374E+01  0.12700000000E+01 0. -1.
         -4   -1    0    0    0  501 -0.00000000000E+00 -0.00000000000E+00 -0.69736930809E+03  0.69737046451E+03  0.12700000000E+01 0. -1.
         25    2    1    2    0    0  0.00000000000E+00  0.00000000000E+00 -0.69184116309E+03  0.70304261465E+03  0.12499889225E+03 0.  0.
    9000005    1    3    3    0    0 -0.18489056951E+00 -0.30276563648E+02 -0.65338891390E+03  0.65409080203E+03  0.10000000000E+01 0.  0.
    9000005    1    3    3    0    0  0.18489056951E+00  0.30276563648E+02 -0.38452249188E+02  0.48951812617E+02  0.10000000000E+01 0.  0.
<mgrwt>
<rscale>  0 0.12499889E+03</rscale>
<asrwt>0</asrwt>
<pdfrwt beam="1">  1        4 0.86165067E-03 0.12499889E+03</pdfrwt>
<pdfrwt beam="2">  1       -4 0.10729868E+00 0.12499889E+03</pdfrwt>
<totfact> 0.42927626E+03</totfact>
</mgrwt>
</event>
<event>
 5    1  0.3217527E-002  0.1249962E+03  0.7818608E-02  0.1235075E+00
         -4   -1    0    0    0  501 -0.00000000000E+00  0.00000000000E+00  0.40491929548E+02  0.40511840966E+02  0.12700000000E+01 0. -1.
          4   -1    0    0  501    0  0.00000000000E+00 -0.00000000000E+00 -0.96416166918E+02  0.96424530817E+02  0.12700000000E+01 0. -1.
         25    2    1    2    0    0  0.00000000000E+00  0.00000000000E+00 -0.55924237371E+02  0.13693637178E+03  0.12499619831E+03 0.  0.
    9000005    1    3    3    0    0  0.14125603488E+02  0.85306336432E+01 -0.93991504615E+02  0.95434308946E+02  0.10000000000E+01 0.  0.
    9000005    1    3    3    0    0 -0.14125603488E+02 -0.85306336432E+01  0.38067267244E+02  0.41502062837E+02  0.10000000000E+01 0.  0.
<mgrwt>
<rscale>  0 0.12499620E+03</rscale>
<asrwt>0</asrwt>
<pdfrwt beam="2">  1        4 0.14835431E-01 0.12499620E+03</pdfrwt>
<pdfrwt beam="1">  1       -4 0.62317027E-02 0.12499620E+03</pdfrwt>
<totfact> 0.10198291E+04</totfact>
</mgrwt>
</event>
<event>
 5    1  0.3217527E-002  0.1249996E+03  0.7818608E-02  0.1235070E+00
         -4   -1    0    0    0  501 -0.00000000000E+00  0.00000000000E+00  0.82837331039E+01  0.83805211137E+01  0.12700000000E+01 0. -1.
          4   -1    0    0  501    0  0.00000000000E+00 -0.00000000000E+00 -0.46871713309E+03  0.46871885363E+03  0.12700000000E+01 0. -1.
         25    2    1    2    0    0  0.00000000000E+00  0.00000000000E+00 -0.46043339998E+03  0.47709937475E+03  0.12499959025E+03 0.  0.
    9000005    1    3    3    0    0  0.19204165106E+02 -0.51839999448E+02 -0.11900152492E+03  0.13121946667E+03  0.10000000000E+01 0.  0.
    9000005    1    3    3    0    0 -0.19204165106E+02  0.51839999448E+02 -0.34143187506E+03  0.34587990807E+03  0.10000000000E+01 0.  0.
<mgrwt>
<rscale>  0 0.12499959E+03</rscale>
<asrwt>0</asrwt>
<pdfrwt beam="2">  1        4 0.72117885E-01 0.12499959E+03</pdfrwt>
<pdfrwt beam="1">  1       -4 0.12819984E-02 0.12499959E+03</pdfrwt>
<totfact> 0.57686536E+03</totfact>
</mgrwt>
</event>
<event>
 5    1  0.3217527E-002  0.1250022E+03  0.7818608E-02  0.1235066E+00
         -4   -1    0    0    0  501 -0.00000000000E+00  0.00000000000E+00  0.84975471212E+01  0.85919268547E+01  0.12700000000E+01 0. -1.
          4   -1    0    0  501    0  0.00000000000E+00 -0.00000000000E+00 -0.45707381311E+03  0.45707557748E+03  0.12700000000E+01 0. -1.
         25    2    1    2    0    0  0.00000000000E+00  0.00000000000E+00 -0.44857626599E+03  0.46566750434E+03  0.12500223273E+03 0.  0.
    9000005    1    3    3    0    0  0.54224723936E+01  0.80435285814E+01 -0.45427023839E+03  0.45437490142E+03  0.10000000000E+01 0.  0.
    9000005    1    3    3    0    0 -0.54224723936E+01 -0.80435285814E+01  0.56939723984E+01  0.11292602914E+02  0.10000000000E+01 0.  0.
<mgrwt>
<rscale>  0 0.12500223E+03</rscale>
<asrwt>0</asrwt>
<pdfrwt beam="2">  1        4 0.70326425E-01 0.12500223E+03</pdfrwt>
<pdfrwt beam="1">  1       -4 0.13147110E-02 0.12500223E+03</pdfrwt>
<totfact> 0.58627275E+03</totfact>
</mgrwt>
</event>
<event>
 5    1  0.3217527E-002  0.1250037E+03  0.7818608E-02  0.1235063E+00
         -4   -1    0    0    0  501 -0.00000000000E+00  0.00000000000E+00  0.55835088655E+02  0.55849530214E+02  0.12700000000E+01 0. -1.
          4   -1    0    0  501    0  0.00000000000E+00 -0.00000000000E+00 -0.69935393952E+02  0.69946924358E+02  0.12700000000E+01 0. -1.
         25    2    1    2    0    0  0.00000000000E+00  0.00000000000E+00 -0.14100305297E+02  0.12579645457E+03  0.12500371744E+03 0.  0.
    9000005    1    3    3    0    0 -0.44449686403E+02  0.15864478458E+02 -0.48273648799E+02  0.67518897106E+02  0.10000000000E+01 0.  0.
    9000005    1    3    3    0    0  0.44449686403E+02 -0.15864478458E+02  0.34173343502E+02  0.58277557466E+02  0.10000000000E+01 0.  0.
<mgrwt>
<rscale>  0 0.12500372E+03</rscale>
<asrwt>0</asrwt>
<pdfrwt beam="2">  1        4 0.10761289E-01 0.12500372E+03</pdfrwt>
<pdfrwt beam="1">  1       -4 0.85920115E-02 0.12500372E+03</pdfrwt>
<totfact> 0.10434548E+04</totfact>
</mgrwt>
</event>
<event>
 5    1  0.3217527E-002  0.1250003E+03  0.7818608E-02  0.1235069E+00
         -4   -1    0    0    0  501 -0.00000000000E+00  0.00000000000E+00  0.41045066635E+01  0.42964956593E+01  0.12700000000E+01 0.  1.
          4   -1    0    0  501    0  0.00000000000E+00 -0.00000000000E+00 -0.92976055539E+03  0.92976142276E+03  0.12700000000E+01 0.  1.
         25    2    1    2    0    0  0.00000000000E+00  0.00000000000E+00 -0.92565604873E+03  0.93405791842E+03  0.12500029770E+03 0.  0.
    9000005    1    3    3    0    0  0.54146518955E+02  0.84326148776E+01 -0.68728940534E+03  0.68947130557E+03  0.10000000000E+01 0.  0.
    9000005    1    3    3    0    0 -0.54146518955E+02 -0.84326148776E+01 -0.23836664338E+03  0.24458661285E+03  0.10000000000E+01 0.  0.
<mgrwt>
<rscale>  0 0.12500030E+03</rscale>
<asrwt>0</asrwt>
<pdfrwt beam="2">  1        4 0.14305476E+00 0.12500030E+03</pdfrwt>
<pdfrwt beam="1">  1       -4 0.64629841E-03 0.12500030E+03</pdfrwt>
<totfact> 0.32888652E+03</totfact>
</mgrwt>
</event>
<event>
 5    1  0.3217527E-002  0.1249990E+03  0.7818608E-02  0.1235071E+00
         -4   -1    0    0    0  501 -0.00000000000E+00  0.00000000000E+00  0.13048075252E+03  0.13048693297E+03  0.12700000000E+01 0.  1.
          4   -1    0    0  501    0  0.00000000000E+00 -0.00000000000E+00 -0.29916509830E+02  0.29943454384E+02  0.12700000000E+01 0.  1.
         25    2    1    2    0    0  0.00000000000E+00  0.00000000000E+00  0.10056424269E+03  0.16043038736E+03  0.12499896912E+03 0.  0.
    9000005    1    3    3    0    0 -0.61275116714E+02  0.94327389848E+01  0.60352864571E+02  0.86527942047E+02  0.10000000000E+01 0.  0.
    9000005    1    3    3    0    0  0.61275116714E+02 -0.94327389848E+01  0.40211378115E+02  0.73902445311E+02  0.10000000000E+01 0.  0.
<mgrwt>
<rscale>  0 0.12499897E+03</rscale>
<asrwt>0</asrwt>
<pdfrwt beam="2">  1        4 0.46050881E-02 0.12499897E+03</pdfrwt>
<pdfrwt beam="1">  1       -4 0.20076510E-01 0.12499897E+03</pdfrwt>
<totfact> 0.97262128E+03</totfact>
</mgrwt>
</event>
<event>
 5    1  0.3217527E-002  0.1249993E+03  0.7818608E-02  0.1235070E+00
          4   -1    0    0  501    0  0.00000000000E+00  0.00000000000E+00  0.45372238233E+03  0.45372415974E+03  0.12700000000E+01 0. -1.
         -4   -1    0    0    0  501 -0.00000000000E+00 -0.00000000000E+00 -0.85605995715E+01  0.86542917113E+01  0.12700000000E+01 0. -1.
         25    2    1    2    0    0  0.00000000000E+00  0.00000000000E+00  0.44516178276E+03  0.46237845145E+03  0.12499927813E+03 0.  0.
    9000005    1    3    3    0    0 -0.38043755258E+02  0.46667352521E+02  0.16068000873E+03  0.17159322339E+03  0.10000000000E+01 0.  0.
    9000005    1    3    3    0    0  0.38043755258E+02 -0.46667352521E+02  0.28448177403E+03  0.29078522806E+03  0.10000000000E+01 0.  0.
<mgrwt>
<rscale>  0 0.12499928E+03</rscale>
<asrwt>0</asrwt>
<pdfrwt beam="1">  1        4 0.69810802E-01 0.12499928E+03</pdfrwt>
<pdfrwt beam="2">  1       -4 0.13243589E-02 0.12499928E+03</pdfrwt>
<totfact> 0.58907179E+03</totfact>
</mgrwt>
</event>
<event>
 5    1  0.3217527E-002  0.1250004E+03  0.7818608E-02  0.1235069E+00
         -4   -1    0    0    0  501 -0.00000000000E+00  0.00000000000E+00  0.22472552485E+02  0.22508409877E+02  0.12700000000E+01 0.  1.
          4   -1    0    0  501    0  0.00000000000E+00 -0.00000000000E+00 -0.17364763037E+03  0.17365227448E+03  0.12700000000E+01 0.  1.
         25    2    1    2    0    0  0.00000000000E+00  0.00000000000E+00 -0.15117507788E+03  0.19616068436E+03  0.12500043966E+03 0.  0.
    9000005    1    3    3    0    0  0.17760905386E+02 -0.59758974909E+02 -0.82372317963E+02  0.10330916517E+03  0.10000000000E+01 0.  0.
    9000005    1    3    3    0    0 -0.17760905386E+02  0.59758974909E+02 -0.68802759918E+02  0.92851519183E+02  0.10000000000E+01 0.  0.
<mgrwt>
<rscale>  0 0.12500044E+03</rscale>
<asrwt>0</asrwt>
<pdfrwt beam="2">  1        4 0.26718135E-01 0.12500044E+03</pdfrwt>
<pdfrwt beam="1">  1       -4 0.34604314E-02 0.12500044E+03</pdfrwt>
<totfact> 0.90785395E+03</totfact>
</mgrwt>
</event>
<event>
 5    1  0.3217527E-002  0.1250285E+03  0.7818608E-02  0.1235025E+00
         -4   -1    0    0    0  501 -0.00000000000E+00  0.00000000000E+00  0.69002826982E+02  0.69014513195E+02  0.12700000000E+01 0. -1.
          4   -1    0    0  501    0  0.00000000000E+00 -0.00000000000E+00 -0.56612200859E+02  0.56626444229E+02  0.12700000000E+01 0. -1.
         25    2    1    2    0    0  0.00000000000E+00  0.00000000000E+00  0.12390626123E+02  0.12564095742E+03  0.12502848702E+03 0.  0.
    9000005    1    3    3    0    0 -0.21493423065E+02 -0.55852676527E+02  0.24326478860E+02  0.64608562003E+02  0.10000000000E+01 0.  0.
    9000005    1    3    3    0    0  0.21493423065E+02  0.55852676527E+02 -0.11935852737E+02  0.61032395421E+02  0.10000000000E+01 0.  0.
<mgrwt>
<rscale>  0 0.12502849E+03</rscale>
<asrwt>0</asrwt>
<pdfrwt beam="2">  1        4 0.87115639E-02 0.12502849E+03</pdfrwt>
<pdfrwt beam="1">  1       -4 0.10617814E-01 0.12502849E+03</pdfrwt>
<totfact> 0.10432139E+04</totfact>
</mgrwt>
</event>
<event>
 5    1  0.3217527E-002  0.1250035E+03  0.7818608E-02  0.1235064E+00
          4   -1    0    0  501    0  0.00000000000E+00  0.00000000000E+00  0.24544547839E+03  0.24544876403E+03  0.12700000000E+01 0.  1.
         -4   -1    0    0    0  501 -0.00000000000E+00 -0.00000000000E+00 -0.15887110058E+02  0.15937790499E+02  0.12700000000E+01 0.  1.
         25    2    1    2    0    0  0.00000000000E+00  0.00000000000E+00  0.22955836833E+03  0.26138655453E+03  0.12500354561E+03 0.  0.
    9000005    1    3    3    0    0 -0.26619410589E+02 -0.16256822748E+02  0.22801580621E+03  0.23014144605E+03  0.10000000000E+01 0.  0.
    9000005    1    3    3    0    0  0.26619410589E+02  0.16256822748E+02  0.15425621204E+01  0.31245108479E+02  0.10000000000E+01 0.  0.
<mgrwt>
<rscale>  0 0.12500355E+03</rscale>
<asrwt>0</asrwt>
<pdfrwt beam="1">  1        4 0.37764994E-01 0.12500355E+03</pdfrwt>
<pdfrwt beam="2">  1       -4 0.24483220E-02 0.12500355E+03</pdfrwt>
<totfact> 0.80705500E+03</totfact>
</mgrwt>
</event>
<event>
 5    1  0.3217527E-002  0.1249984E+03  0.7818608E-02  0.1235072E+00
         -4   -1    0    0    0  501 -0.00000000000E+00  0.00000000000E+00  0.84554464780E+02  0.84564001882E+02  0.12700000000E+01 0.  1.
          4   -1    0    0  501    0  0.00000000000E+00 -0.00000000000E+00 -0.46176012683E+02  0.46193474077E+02  0.12700000000E+01 0.  1.
         25    2    1    2    0    0  0.00000000000E+00  0.00000000000E+00  0.38378452097E+02  0.13075747596E+03  0.12499844773E+03 0.  0.
    9000005    1    3    3    0    0  0.59773390668E+02  0.18212192643E+02  0.18371687802E+02  0.65138783421E+02  0.10000000000E+01 0.  0.
    9000005    1    3    3    0    0 -0.59773390668E+02 -0.18212192643E+02  0.20006764295E+02  0.65618692538E+02  0.10000000000E+01 0.  0.
<mgrwt>
<rscale>  0 0.12499845E+03</rscale>
<asrwt>0</asrwt>
<pdfrwt beam="2">  1        4 0.71060788E-02 0.12499845E+03</pdfrwt>
<pdfrwt beam="1">  1       -4 0.13010456E-01 0.12499845E+03</pdfrwt>
<totfact> 0.10328653E+04</totfact>
</mgrwt>
</event>
<event>
 5    1  0.3217527E-002  0.1250001E+03  0.7818608E-02  0.1235069E+00
          4   -1    0    0  501    0  0.00000000000E+00  0.00000000000E+00  0.29473293787E+02  0.29500643156E+02  0.12700000000E+01 0.  1.
         -4   -1    0    0    0  501 -0.00000000000E+00 -0.00000000000E+00 -0.13244355732E+03  0.13244964619E+03  0.12700000000E+01 0.  1.
         25    2    1    2    0    0  0.00000000000E+00  0.00000000000E+00 -0.10297026353E+03  0.16195028935E+03  0.12500008419E+03 0.  0.
    9000005    1    3    3    0    0 -0.34359743548E+02 -0.25398557110E+02 -0.11056763424E+03  0.11854062773E+03  0.10000000000E+01 0.  0.
    9000005    1    3    3    0    0  0.34359743548E+02  0.25398557110E+02  0.75973707111E+01  0.43409661617E+02  0.10000000000E+01 0.  0.
<mgrwt>
<rscale>  0 0.12500008E+03</rscale>
<asrwt>0</asrwt>
<pdfrwt beam="1">  1        4 0.45369252E-02 0.12500008E+03</pdfrwt>
<pdfrwt beam="2">  1       -4 0.20378504E-01 0.12500008E+03</pdfrwt>
<totfact> 0.96967914E+03</totfact>
</mgrwt>
</event>
<event>
 5    1  0.3217527E-002  0.1250023E+03  0.7818608E-02  0.1235066E+00
          4   -1    0    0  501    0  0.00000000000E+00  0.00000000000E+00  0.17341345129E+03  0.17341810167E+03  0.12700000000E+01 0. -1.
         -4   -1    0    0    0  501 -0.00000000000E+00 -0.00000000000E+00 -0.22503613025E+02  0.22539421004E+02  0.12700000000E+01 0. -1.
         25    2    1    2    0    0  0.00000000000E+00  0.00000000000E+00  0.15090983826E+03  0.19595752267E+03  0.12500228561E+03 0.  0.
    9000005    1    3    3    0    0 -0.49707737071E+02 -0.28637018258E+02  0.11431368440E+03  0.12790448147E+03  0.10000000000E+01 0.  0.
    9000005    1    3    3    0    0  0.49707737071E+02  0.28637018258E+02  0.36596153860E+02  0.68053041202E+02  0.10000000000E+01 0.  0.
<mgrwt>
<rscale>  0 0.12500229E+03</rscale>
<asrwt>0</asrwt>
<pdfrwt beam="1">  1        4 0.26682104E-01 0.12500229E+03</pdfrwt>
<pdfrwt beam="2">  1       -4 0.34652066E-02 0.12500229E+03</pdfrwt>
<totfact> 0.90816287E+03</totfact>
</mgrwt>
</event>
<event>
 5    1  0.3217527E-002  0.1249836E+03  0.7818608E-02  0.1235095E+00
         -4   -1    0    0    0  501 -0.00000000000E+00  0.00000000000E+00  0.52203248759E+02  0.52218694746E+02  0.12700000000E+01 0.  1.
          4   -1    0    0  501    0  0.00000000000E+00 -0.00000000000E+00 -0.74776220328E+02  0.74787004396E+02  0.12700000000E+01 0.  1.
         25    2    1    2    0    0  0.00000000000E+00  0.00000000000E+00 -0.22572971569E+02  0.12700569914E+03  0.12498363321E+03 0.  0.
    9000005    1    3    3    0    0 -0.40545657341E+02 -0.28335863506E+02 -0.50079438691E+02  0.70397597043E+02  0.10000000000E+01 0.  0.
    9000005    1    3    3    0    0  0.40545657341E+02  0.28335863506E+02  0.27506467121E+02  0.56608102100E+02  0.10000000000E+01 0.  0.
<mgrwt>
<rscale>  0 0.12498363E+03</rscale>
<asrwt>0</asrwt>
<pdfrwt beam="2">  1        4 0.11506052E-01 0.12498363E+03</pdfrwt>
<pdfrwt beam="1">  1       -4 0.80332867E-02 0.12498363E+03</pdfrwt>
<totfact> 0.10412868E+04</totfact>
</mgrwt>
</event>
<event>
 5    1  0.3217527E-002  0.1250002E+03  0.7818608E-02  0.1235069E+00
          4   -1    0    0  501    0  0.00000000000E+00  0.00000000000E+00  0.22043176219E+02  0.22079730927E+02  0.12700000000E+01 0. -1.
         -4   -1    0    0    0  501 -0.00000000000E+00 -0.00000000000E+00 -0.17702390935E+03  0.17702846489E+03  0.12700000000E+01 0. -1.
         25    2    1    2    0    0  0.00000000000E+00  0.00000000000E+00 -0.15498073313E+03  0.19910819582E+03  0.12500018400E+03 0.  0.
    9000005    1    3    3    0    0  0.41484291348E+02  0.46695205252E+02 -0.74355670853E+02  0.97114130847E+02  0.10000000000E+01 0.  0.
    9000005    1    3    3    0    0 -0.41484291348E+02 -0.46695205252E+02 -0.80625062281E+02  0.10199406497E+03  0.10000000000E+01 0.  0.
<mgrwt>
<rscale>  0 0.12500018E+03</rscale>
<asrwt>0</asrwt>
<pdfrwt beam="1">  1        4 0.33944203E-02 0.12500018E+03</pdfrwt>
<pdfrwt beam="2">  1       -4 0.27237609E-01 0.12500018E+03</pdfrwt>
<totfact> 0.90285763E+03</totfact>
</mgrwt>
</event>
<event>
 5    1  0.3217527E-002  0.1249970E+03  0.7818608E-02  0.1235074E+00
         -4   -1    0    0    0  501 -0.00000000000E+00  0.00000000000E+00  0.50367082221E+02  0.50383091127E+02  0.12700000000E+01 0.  1.
          4   -1    0    0  501    0  0.00000000000E+00 -0.00000000000E+00 -0.77518360639E+02  0.77528763283E+02  0.12700000000E+01 0.  1.
         25    2    1    2    0    0  0.00000000000E+00  0.00000000000E+00 -0.27151278418E+02  0.12791185441E+03  0.12499700228E+03 0.  0.
    9000005    1    3    3    0    0  0.19892264442E+02 -0.12726097223E+02  0.45630324085E+02  0.51388541634E+02  0.10000000000E+01 0.  0.
    9000005    1    3    3    0    0 -0.19892264442E+02  0.12726097223E+02 -0.72781602503E+02  0.76523312775E+02  0.10000000000E+01 0.  0.
<mgrwt>
<rscale>  0 0.12499700E+03</rscale>
<asrwt>0</asrwt>
<pdfrwt beam="2">  1        4 0.11927933E-01 0.12499700E+03</pdfrwt>
<pdfrwt beam="1">  1       -4 0.77508135E-02 0.12499700E+03</pdfrwt>
<totfact> 0.10390095E+04</totfact>
</mgrwt>
</event>
<event>
 5    1  0.3217527E-002  0.1250007E+03  0.7818608E-02  0.1235068E+00
         -4   -1    0    0    0  501 -0.00000000000E+00  0.00000000000E+00  0.91963581293E+02  0.91972350107E+02  0.12700000000E+01 0. -1.
          4   -1    0    0  501    0  0.00000000000E+00 -0.00000000000E+00 -0.42456248947E+02  0.42475239548E+02  0.12700000000E+01 0. -1.
         25    2    1    2    0    0  0.00000000000E+00  0.00000000000E+00  0.49507332346E+02  0.13444758966E+03  0.12500071363E+03 0.  0.
    9000005    1    3    3    0    0 -0.27137819556E+02  0.46605369981E+02 -0.92040619089E+01  0.54719617296E+02  0.10000000000E+01 0.  0.
    9000005    1    3    3    0    0  0.27137819556E+02 -0.46605369981E+02  0.58711394254E+02  0.79727972360E+02  0.10000000000E+01 0.  0.
<mgrwt>
<rscale>  0 0.12500071E+03</rscale>
<asrwt>0</asrwt>
<pdfrwt beam="2">  1        4 0.65338659E-02 0.12500071E+03</pdfrwt>
<pdfrwt beam="1">  1       -4 0.14150379E-01 0.12500071E+03</pdfrwt>
<totfact> 0.10249562E+04</totfact>
</mgrwt>
</event>
<event>
 5    1  0.3217527E-002  0.1249775E+03  0.7818608E-02  0.1235104E+00
          4   -1    0    0  501    0  0.00000000000E+00  0.00000000000E+00  0.14451577549E+03  0.14452135574E+03  0.12700000000E+01 0. -1.
         -4   -1    0    0    0  501 -0.00000000000E+00 -0.00000000000E+00 -0.26999155562E+02  0.27029008510E+02  0.12700000000E+01 0. -1.
         25    2    1    2    0    0  0.00000000000E+00  0.00000000000E+00  0.11751661993E+03  0.17155036425E+03  0.12497748403E+03 0.  0.
    9000005    1    3    3    0    0  0.67587851969E+01 -0.22862286268E+02  0.13803378976E+03  0.14008102094E+03  0.10000000000E+01 0.  0.
    9000005    1    3    3    0    0 -0.67587851969E+01  0.22862286268E+02 -0.20517169833E+02  0.31469343315E+02  0.10000000000E+01 0.  0.
<mgrwt>
<rscale>  0 0.12497748E+03</rscale>
<asrwt>0</asrwt>
<pdfrwt beam="1">  1        4 0.22235923E-01 0.12497748E+03</pdfrwt>
<pdfrwt beam="2">  1       -4 0.41564417E-02 0.12497748E+03</pdfrwt>
<totfact> 0.95208556E+03</totfact>
</mgrwt>
</event>
<event>
 5    1  0.3217527E-002  0.1250016E+03  0.7818608E-02  0.1235067E+00
          4   -1    0    0  501    0  0.00000000000E+00  0.00000000000E+00  0.11116359993E+03  0.11117085432E+03  0.12700000000E+01 0. -1.
         -4   -1    0    0    0  501 -0.00000000000E+00 -0.00000000000E+00 -0.35120685029E+02  0.35143639779E+02  0.12700000000E+01 0. -1.
         25    2    1    2    0    0  0.00000000000E+00  0.00000000000E+00  0.76042914900E+02  0.14631449410E+03  0.12500162509E+03 0.  0.
    9000005    1    3    3    0    0  0.55844856702E+02  0.25813390080E+02  0.50863533150E+02  0.79831561001E+02  0.10000000000E+01 0.  0.
    9000005    1    3    3    0    0 -0.55844856702E+02 -0.25813390080E+02  0.25179381751E+02  0.66482933094E+02  0.10000000000E+01 0.  0.
<mgrwt>
<rscale>  0 0.12500163E+03</rscale>
<asrwt>0</asrwt>
<pdfrwt beam="1">  1        4 0.17104416E-01 0.12500163E+03</pdfrwt>
<pdfrwt beam="2">  1       -4 0.54055061E-02 0.12500163E+03</pdfrwt>
<totfact> 0.10003983E+04</totfact>
</mgrwt>
</event>
<event>
 5    1  0.3217527E-002  0.1249963E+03  0.7818608E-02  0.1235075E+00
         -4   -1    0    0    0  501 -0.00000000000E+00  0.00000000000E+00  0.21885767689E+03  0.21886136168E+03  0.12700000000E+01 0.  1.
          4   -1    0    0  501    0  0.00000000000E+00 -0.00000000000E+00 -0.17820866199E+02  0.17866062019E+02  0.12700000000E+01 0.  1.
         25    2    1    2    0    0  0.00000000000E+00  0.00000000000E+00  0.20103681069E+03  0.23672742369E+03  0.12499629545E+03 0.  0.
    9000005    1    3    3    0    0  0.76861006977E+01  0.76819491399E+01 -0.16026976070E+02  0.19389493249E+02  0.10000000000E+01 0.  0.
    9000005    1    3    3    0    0 -0.76861006977E+01 -0.76819491399E+01  0.21706378676E+03  0.21733793045E+03  0.10000000000E+01 0.  0.
<mgrwt>
<rscale>  0 0.12499630E+03</rscale>
<asrwt>0</asrwt>
<pdfrwt beam="2">  1        4 0.27454318E-02 0.12499630E+03</pdfrwt>
<pdfrwt beam="1">  1       -4 0.33674171E-01 0.12499630E+03</pdfrwt>
<totfact> 0.84294149E+03</totfact>
</mgrwt>
</event>
<event>
 5    1  0.3217527E-002  0.1249991E+03  0.7818608E-02  0.1235071E+00
         -4   -1    0    0    0  501 -0.00000000000E+00  0.00000000000E+00  0.71934002319E+03  0.71934114428E+03  0.12700000000E+01 0.  1.
          4   -1    0    0  501    0  0.00000000000E+00 -0.00000000000E+00 -0.53548509864E+01  0.55033925071E+01  0.12700000000E+01 0.  1.
         25    2    1    2    0    0  0.00000000000E+00  0.00000000000E+00  0.71398517220E+03  0.72484453679E+03  0.12499910557E+03 0.  0.
    9000005    1    3    3    0    0 -0.59933573470E+02  0.41428928346E+01  0.45675842191E+03  0.46069344773E+03  0.10000000000E+01 0.  0.
    9000005    1    3    3    0    0  0.59933573470E+02 -0.41428928346E+01  0.25722675029E+03  0.26415108907E+03  0.10000000000E+01 0.  0.
<mgrwt>
<rscale>  0 0.12499911E+03</rscale>
<asrwt>0</asrwt>
<pdfrwt beam="2">  1        4 0.83533622E-03 0.12499911E+03</pdfrwt>
<pdfrwt beam="1">  1       -4 0.11067914E+00 0.12499911E+03</pdfrwt>
<totfact> 0.41808008E+03</totfact>
</mgrwt>
</event>
<event>
 5    1  0.3217527E-002  0.1250016E+03  0.7818608E-02  0.1235067E+00
         -4   -1    0    0    0  501 -0.00000000000E+00  0.00000000000E+00  0.75077137620E+03  0.75077245036E+03  0.12700000000E+01 0. -1.
          4   -1    0    0  501    0  0.00000000000E+00 -0.00000000000E+00 -0.51245243127E+01  0.52795501164E+01  0.12700000000E+01 0. -1.
         25    2    1    2    0    0  0.00000000000E+00  0.00000000000E+00  0.74564685188E+03  0.75605200047E+03  0.12500159878E+03 0.  0.
    9000005    1    3    3    0    0  0.35358458260E+02  0.28271920645E+02  0.63338174503E+03  0.63499839134E+03  0.10000000000E+01 0.  0.
    9000005    1    3    3    0    0 -0.35358458260E+02 -0.28271920645E+02  0.11226510685E+03  0.12105360913E+03  0.10000000000E+01 0.  0.
<mgrwt>
<rscale>  0 0.12500160E+03</rscale>
<asrwt>0</asrwt>
<pdfrwt beam="2">  1        4 0.80039617E-03 0.12500160E+03</pdfrwt>
<pdfrwt beam="1">  1       -4 0.11551528E+00 0.12500160E+03</pdfrwt>
<totfact> 0.40284926E+03</totfact>
</mgrwt>
</event>
<event>
 5    1  0.3217527E-002  0.1249987E+03  0.7818608E-02  0.1235071E+00
          4   -1    0    0  501    0  0.00000000000E+00  0.00000000000E+00  0.16784535006E+02  0.16832513637E+02  0.12700000000E+01 0. -1.
         -4   -1    0    0    0  501 -0.00000000000E+00 -0.00000000000E+00 -0.23234244298E+03  0.23234591391E+03  0.12700000000E+01 0. -1.
         25    2    1    2    0    0  0.00000000000E+00  0.00000000000E+00 -0.21555790798E+03  0.24917842755E+03  0.12499870825E+03 0.  0.
    9000005    1    3    3    0    0 -0.39428579536E+02 -0.23322677121E+02 -0.23048991476E+02  0.51291482338E+02  0.10000000000E+01 0.  0.
    9000005    1    3    3    0    0  0.39428579536E+02  0.23322677121E+02 -0.19250891650E+03  0.19788694521E+03  0.10000000000E+01 0.  0.
<mgrwt>
<rscale>  0 0.12499871E+03</rscale>
<asrwt>0</asrwt>
<pdfrwt beam="1">  1        4 0.25861940E-02 0.12499871E+03</pdfrwt>
<pdfrwt beam="2">  1       -4 0.35748947E-01 0.12499871E+03</pdfrwt>
<totfact> 0.82451489E+03</totfact>
</mgrwt>
</event>
<event>
 5    1  0.3217527E-002  0.1250023E+03  0.7818608E-02  0.1235066E+00
          4   -1    0    0  501    0  0.00000000000E+00  0.00000000000E+00  0.20209500067E+02  0.20249365249E+02  0.12700000000E+01 0.  1.
         -4   -1    0    0    0  501 -0.00000000000E+00 -0.00000000000E+00 -0.19306249433E+03  0.19306667143E+03  0.12700000000E+01 0.  1.
         25    2    1    2    0    0  0.00000000000E+00  0.00000000000E+00 -0.17285299427E+03  0.21331603668E+03  0.12500229549E+03 0.  0.
    9000005    1    3    3    0    0 -0.12187122094E+02  0.44970486827E+02 -0.15354989337E+02  0.49067772804E+02  0.10000000000E+01 0.  0.
    9000005    1    3    3    0    0  0.12187122094E+02 -0.44970486827E+02 -0.15749800493E+03  0.16424826388E+03  0.10000000000E+01 0.  0.
<mgrwt>
<rscale>  0 0.12500230E+03</rscale>
<asrwt>0</asrwt>
<pdfrwt beam="1">  1        4 0.31125419E-02 0.12500230E+03</pdfrwt>
<pdfrwt beam="2">  1       -4 0.29705309E-01 0.12500230E+03</pdfrwt>
<totfact> 0.87932665E+03</totfact>
</mgrwt>
</event>
<event>
 5    1  0.3217527E-002  0.1249976E+03  0.7818608E-02  0.1235073E+00
          4   -1    0    0  501    0  0.00000000000E+00  0.00000000000E+00  0.81012907048E+02  0.81022861023E+02  0.12700000000E+01 0.  1.
         -4   -1    0    0    0  501 -0.00000000000E+00 -0.00000000000E+00 -0.48194526331E+02  0.48211256655E+02  0.12700000000E+01 0.  1.
         25    2    1    2    0    0  0.00000000000E+00  0.00000000000E+00  0.32818380718E+02  0.12923411768E+03  0.12499764421E+03 0.  0.
    9000005    1    3    3    0    0 -0.39805796367E+02 -0.19766647690E+02 -0.29010128499E+02  0.53083041933E+02  0.10000000000E+01 0.  0.
    9000005    1    3    3    0    0  0.39805796367E+02  0.19766647690E+02  0.61828509216E+02  0.76151075746E+02  0.10000000000E+01 0.  0.
<mgrwt>
<rscale>  0 0.12499764E+03</rscale>
<asrwt>0</asrwt>
<pdfrwt beam="1">  1        4 0.12465577E-01 0.12499764E+03</pdfrwt>
<pdfrwt beam="2">  1       -4 0.74165952E-02 0.12499764E+03</pdfrwt>
<totfact> 0.10361470E+04</totfact>
</mgrwt>
</event>
<event>
 5    1  0.3217527E-002  0.1249813E+03  0.7818608E-02  0.1235099E+00
         -4   -1    0    0    0  501 -0.00000000000E+00  0.00000000000E+00  0.39859506458E+02  0.39879733638E+02  0.12700000000E+01 0. -1.
          4   -1    0    0  501    0  0.00000000000E+00 -0.00000000000E+00 -0.97921922200E+02  0.97930157497E+02  0.12700000000E+01 0. -1.
         25    2    1    2    0    0  0.00000000000E+00  0.00000000000E+00 -0.58062415742E+02  0.13780989114E+03  0.12498128649E+03 0.  0.
    9000005    1    3    3    0    0  0.51554831901E+02  0.33178565027E+02 -0.42325394626E+02  0.74506086327E+02  0.10000000000E+01 0.  0.
    9000005    1    3    3    0    0 -0.51554831901E+02 -0.33178565027E+02 -0.15737021116E+02  0.63303804808E+02  0.10000000000E+01 0.  0.
<mgrwt>
<rscale>  0 0.12498129E+03</rscale>
<asrwt>0</asrwt>
<pdfrwt beam="2">  1        4 0.15067101E-01 0.12498129E+03</pdfrwt>
<pdfrwt beam="1">  1       -4 0.61344212E-02 0.12498129E+03</pdfrwt>
<totfact> 0.10183474E+04</totfact>
</mgrwt>
</event>
<event>
 5    1  0.3217527E-002  0.1250004E+03  0.7818608E-02  0.1235069E+00
         -4   -1    0    0    0  501 -0.00000000000E+00  0.00000000000E+00  0.20390250600E+02  0.20429763081E+02  0.12700000000E+01 0. -1.
          4   -1    0    0  501    0  0.00000000000E+00 -0.00000000000E+00 -0.19134843428E+03  0.19135264879E+03  0.12700000000E+01 0. -1.
         25    2    1    2    0    0  0.00000000000E+00  0.00000000000E+00 -0.17095818368E+03  0.21178241187E+03  0.12500035765E+03 0.  0.
    9000005    1    3    3    0    0 -0.50051170398E+02 -0.23949979971E+02 -0.36769610777E+02  0.66571206054E+02  0.10000000000E+01 0.  0.
    9000005    1    3    3    0    0  0.50051170398E+02  0.23949979971E+02 -0.13418857290E+03  0.14521120582E+03  0.10000000000E+01 0.  0.
<mgrwt>
<rscale>  0 0.12500036E+03</rscale>
<asrwt>0</asrwt>
<pdfrwt beam="2">  1        4 0.29441583E-01 0.12500036E+03</pdfrwt>
<pdfrwt beam="1">  1       -4 0.31403254E-02 0.12500036E+03</pdfrwt>
<totfact> 0.88184910E+03</totfact>
</mgrwt>
</event>
<event>
 5    1  0.3217527E-002  0.1249985E+03  0.7818608E-02  0.1235072E+00
          4   -1    0    0  501    0  0.00000000000E+00  0.00000000000E+00  0.26220432222E+02  0.26251170754E+02  0.12700000000E+01 0.  1.
         -4   -1    0    0    0  501 -0.00000000000E+00 -0.00000000000E+00 -0.14885292548E+03  0.14885834315E+03  0.12700000000E+01 0.  1.
         25    2    1    2    0    0  0.00000000000E+00  0.00000000000E+00 -0.12263249326E+03  0.17510951390E+03  0.12499845381E+03 0.  0.
    9000005    1    3    3    0    0 -0.78372328005E+01 -0.40479013995E+02 -0.12710129226E+03  0.13362526440E+03  0.10000000000E+01 0.  0.
    9000005    1    3    3    0    0  0.78372328005E+01  0.40479013995E+02  0.44687990012E+01  0.41484249499E+02  0.10000000000E+01 0.  0.
<mgrwt>
<rscale>  0 0.12499845E+03</rscale>
<asrwt>0</asrwt>
<pdfrwt beam="1">  1        4 0.40366940E-02 0.12499845E+03</pdfrwt>
<pdfrwt beam="2">  1       -4 0.22903231E-01 0.12499845E+03</pdfrwt>
<totfact> 0.94508065E+03</totfact>
</mgrwt>
</event>
<event>
 5    1  0.3217527E-002  0.1249994E+03  0.7818608E-02  0.1235070E+00
         -4   -1    0    0    0  501 -0.00000000000E+00  0.00000000000E+00  0.27567603544E+03  0.27567896078E+03  0.12700000000E+01 0.  1.
          4   -1    0    0  501    0  0.00000000000E+00 -0.00000000000E+00 -0.14138114618E+02  0.14195040857E+02  0.12700000000E+01 0.  1.
         25    2    1    2    0    0  0.00000000000E+00  0.00000000000E+00  0.26153792082E+03  0.28987400163E+03  0.12499941118E+03 0.  0.
    9000005    1    3    3    0    0 -0.36186069796E+02  0.44692569316E+02  0.74043105335E+02  0.93756273641E+02  0.10000000000E+01 0.  0.
    9000005    1    3    3    0    0  0.36186069796E+02 -0.44692569316E+02  0.18749481549E+03  0.19611772799E+03  0.10000000000E+01 0.  0.
<mgrwt>
<rscale>  0 0.12499941E+03</rscale>
<asrwt>0</asrwt>
<pdfrwt beam="2">  1        4 0.21796984E-02 0.12499941E+03</pdfrwt>
<pdfrwt beam="1">  1       -4 0.42416303E-01 0.12499941E+03</pdfrwt>
<totfact> 0.76887841E+03</totfact>
</mgrwt>
</event>
<event>
 5    1  0.3217527E-002  0.1249976E+03  0.7818608E-02  0.1235073E+00
          4   -1    0    0  501    0  0.00000000000E+00  0.00000000000E+00  0.27083335690E+02  0.27113095952E+02  0.12700000000E+01 0.  1.
         -4   -1    0    0    0  501 -0.00000000000E+00 -0.00000000000E+00 -0.14411355657E+03  0.14411915240E+03  0.12700000000E+01 0.  1.
         25    2    1    2    0    0  0.00000000000E+00  0.00000000000E+00 -0.11703022088E+03  0.17123224835E+03  0.12499764108E+03 0.  0.
    9000005    1    3    3    0    0  0.32016688890E+02  0.52976660166E+02 -0.70260031359E+02  0.93643296057E+02  0.10000000000E+01 0.  0.
    9000005    1    3    3    0    0 -0.32016688890E+02 -0.52976660166E+02 -0.46770189520E+02  0.77588952290E+02  0.10000000000E+01 0.  0.
<mgrwt>
<rscale>  0 0.12499764E+03</rscale>
<asrwt>0</asrwt>
<pdfrwt beam="1">  1        4 0.41693868E-02 0.12499764E+03</pdfrwt>
<pdfrwt beam="2">  1       -4 0.22174036E-01 0.12499764E+03</pdfrwt>
<totfact> 0.95224501E+03</totfact>
</mgrwt>
</event>
<event>
 5    1  0.3217527E-002  0.1249985E+03  0.7818608E-02  0.1235072E+00
         -4   -1    0    0    0  501 -0.00000000000E+00  0.00000000000E+00  0.20380035767E+02  0.20419568014E+02  0.12700000000E+01 0.  1.
          4   -1    0    0  501    0  0.00000000000E+00 -0.00000000000E+00 -0.19143839191E+03  0.19144260445E+03  0.12700000000E+01 0.  1.
         25    2    1    2    0    0  0.00000000000E+00  0.00000000000E+00 -0.17105835615E+03  0.21186217246E+03  0.12499847564E+03 0.  0.
    9000005    1    3    3    0    0 -0.53025092029E+02 -0.32792861890E+02 -0.92744544481E+02  0.11175680161E+03  0.10000000000E+01 0.  0.
    9000005    1    3    3    0    0  0.53025092029E+02  0.32792861890E+02 -0.78313811665E+02  0.10010537085E+03  0.10000000000E+01 0.  0.
<mgrwt>
<rscale>  0 0.12499848E+03</rscale>
<asrwt>0</asrwt>
<pdfrwt beam="2">  1        4 0.29455424E-01 0.12499848E+03</pdfrwt>
<pdfrwt beam="1">  1       -4 0.31387552E-02 0.12499848E+03</pdfrwt>
<totfact> 0.88175669E+03</totfact>
</mgrwt>
</event>
<event>
 5    1  0.3217527E-002  0.1250022E+03  0.7818608E-02  0.1235066E+00
         -4   -1    0    0    0  501 -0.00000000000E+00  0.00000000000E+00  0.11159817446E+04  0.11159824673E+04  0.12700000000E+01 0.  1.
          4   -1    0    0  501    0  0.00000000000E+00 -0.00000000000E+00 -0.33844613364E+01  0.36148967534E+01  0.12700000000E+01 0.  1.
         25    2    1    2    0    0  0.00000000000E+00  0.00000000000E+00  0.11125972833E+04  0.11195973640E+04  0.12500217090E+03 0.  0.
    9000005    1    3    3    0    0 -0.19613162665E+02  0.17918705318E+02  0.49664841784E+02  0.56332518668E+02  0.10000000000E+01 0.  0.
    9000005    1    3    3    0    0  0.19613162665E+02 -0.17918705318E+02  0.10629324415E+04  0.10632648454E+04  0.10000000000E+01 0.  0.
<mgrwt>
<rscale>  0 0.12500217E+03</rscale>
<asrwt>0</asrwt>
<pdfrwt beam="2">  1        4 0.53846763E-03 0.12500217E+03</pdfrwt>
<pdfrwt beam="1">  1       -4 0.17170732E+00 0.12500217E+03</pdfrwt>
<totfact> 0.26915520E+03</totfact>
</mgrwt>
</event>
<event>
 5    1  0.3217527E-002  0.1250005E+03  0.7818608E-02  0.1235068E+00
         -4   -1    0    0    0  501 -0.00000000000E+00  0.00000000000E+00  0.13504641466E+02  0.13564226522E+02  0.12700000000E+01 0. -1.
          4   -1    0    0  501    0  0.00000000000E+00 -0.00000000000E+00 -0.28855708522E+03  0.28855987998E+03  0.12700000000E+01 0. -1.
         25    2    1    2    0    0  0.00000000000E+00  0.00000000000E+00 -0.27505244375E+03  0.30212410650E+03  0.12500051564E+03 0.  0.
    9000005    1    3    3    0    0 -0.16569009095E+02 -0.55712506972E+02 -0.82047817349E+02  0.10055476034E+03  0.10000000000E+01 0.  0.
    9000005    1    3    3    0    0  0.16569009095E+02  0.55712506972E+02 -0.19300462641E+03  0.20156934616E+03  0.10000000000E+01 0.  0.
<mgrwt>
<rscale>  0 0.12500052E+03</rscale>
<asrwt>0</asrwt>
<pdfrwt beam="2">  1        4 0.44398191E-01 0.12500052E+03</pdfrwt>
<pdfrwt beam="1">  1       -4 0.20824358E-02 0.12500052E+03</pdfrwt>
<totfact> 0.75332305E+03</totfact>
</mgrwt>
</event>
<event>
 5    1  0.3217527E-002  0.1249927E+03  0.7818608E-02  0.1235081E+00
          4   -1    0    0  501    0  0.00000000000E+00  0.00000000000E+00  0.19847247204E+03  0.19847653528E+03  0.12700000000E+01 0. -1.
         -4   -1    0    0    0  501 -0.00000000000E+00 -0.00000000000E+00 -0.19654500434E+02  0.19695489009E+02  0.12700000000E+01 0. -1.
         25    2    1    2    0    0  0.00000000000E+00  0.00000000000E+00  0.17881797160E+03  0.21817202429E+03  0.12499266064E+03 0.  0.
    9000005    1    3    3    0    0  0.14125085924E+02  0.29696265099E+02  0.18215625796E+03  0.18510345358E+03  0.10000000000E+01 0.  0.
    9000005    1    3    3    0    0 -0.14125085924E+02 -0.29696265099E+02 -0.33382863524E+01  0.33068570713E+02  0.10000000000E+01 0.  0.
<mgrwt>
<rscale>  0 0.12499266E+03</rscale>
<asrwt>0</asrwt>
<pdfrwt beam="1">  1        4 0.30537691E-01 0.12499266E+03</pdfrwt>
<pdfrwt beam="2">  1       -4 0.30272349E-02 0.12499266E+03</pdfrwt>
<totfact> 0.87172724E+03</totfact>
</mgrwt>
</event>
<event>
 5    1  0.3217527E-002  0.1249942E+03  0.7818608E-02  0.1235078E+00
         -4   -1    0    0    0  501 -0.00000000000E+00  0.00000000000E+00  0.25251191120E+02  0.25283108056E+02  0.12700000000E+01 0.  1.
          4   -1    0    0  501    0  0.00000000000E+00 -0.00000000000E+00 -0.15454903381E+03  0.15455425181E+03  0.12700000000E+01 0.  1.
         25    2    1    2    0    0  0.00000000000E+00  0.00000000000E+00 -0.12929784269E+03  0.17983735987E+03  0.12499417538E+03 0.  0.
    9000005    1    3    3    0    0 -0.45418139680E+01 -0.30905183439E+02  0.13219125763E+02  0.33933813866E+02  0.10000000000E+01 0.  0.
    9000005    1    3    3    0    0  0.45418139680E+01  0.30905183439E+02 -0.14251696846E+03  0.14590354600E+03  0.10000000000E+01 0.  0.
<mgrwt>
<rscale>  0 0.12499418E+03</rscale>
<asrwt>0</asrwt>
<pdfrwt beam="2">  1        4 0.23779630E-01 0.12499418E+03</pdfrwt>
<pdfrwt beam="1">  1       -4 0.38876553E-02 0.12499418E+03</pdfrwt>
<totfact> 0.93658519E+03</totfact>
</mgrwt>
</event>
<event>
 5    1  0.3217527E-002  0.1250000E+03  0.7818608E-02  0.1235069E+00
         -4   -1    0    0    0  501 -0.00000000000E+00  0.00000000000E+00  0.44750628560E+03  0.44750808770E+03  0.12700000000E+01 0. -1.
          4   -1    0    0  501    0  0.00000000000E+00 -0.00000000000E+00 -0.86809106784E+01  0.87733180842E+01  0.12700000000E+01 0. -1.
         25    2    1    2    0    0  0.00000000000E+00  0.00000000000E+00  0.43882537492E+03  0.45628140578E+03  0.12500004634E+03 0.  0.
    9000005    1    3    3    0    0 -0.55519083652E+01  0.58573458885E+02  0.29629176192E+03  0.30207860228E+03  0.10000000000E+01 0.  0.
    9000005    1    3    3    0    0  0.55519083652E+01 -0.58573458885E+02  0.14253361300E+03  0.15420280350E+03  0.10000000000E+01 0.  0.
<mgrwt>
<rscale>  0 0.12500005E+03</rscale>
<asrwt>0</asrwt>
<pdfrwt beam="2">  1        4 0.13427713E-02 0.12500005E+03</pdfrwt>
<pdfrwt beam="1">  1       -4 0.68854385E-01 0.12500005E+03</pdfrwt>
<totfact> 0.59423402E+03</totfact>
</mgrwt>
</event>
<event>
 5    1  0.3217527E-002  0.1250013E+03  0.7818608E-02  0.1235067E+00
         -4   -1    0    0    0  501 -0.00000000000E+00  0.00000000000E+00  0.65078473707E+03  0.65078597627E+03  0.12700000000E+01 0.  1.
          4   -1    0    0  501    0  0.00000000000E+00 -0.00000000000E+00 -0.59340582729E+01  0.60684386449E+01  0.12700000000E+01 0.  1.
         25    2    1    2    0    0  0.00000000000E+00  0.00000000000E+00  0.64485067880E+03  0.65685441491E+03  0.12500129776E+03 0.  0.
    9000005    1    3    3    0    0  0.26695284543E+02 -0.18442715903E+02  0.60307978683E+03  0.60395281378E+03  0.10000000000E+01 0.  0.
    9000005    1    3    3    0    0 -0.26695284543E+02  0.18442715903E+02  0.41770891969E+02  0.52901601134E+02  0.10000000000E+01 0.  0.
<mgrwt>
<rscale>  0 0.12500130E+03</rscale>
<asrwt>0</asrwt>
<pdfrwt beam="2">  1        4 0.92336461E-03 0.12500130E+03</pdfrwt>
<pdfrwt beam="1">  1       -4 0.10013113E+00 0.12500130E+03</pdfrwt>
<totfact> 0.45462707E+03</totfact>
</mgrwt>
</event>
<event>
 5    1  0.3217527E-002  0.1249398E+03  0.7818608E-02  0.1235163E+00
          4   -1    0    0  501    0  0.00000000000E+00  0.00000000000E+00  0.17303074144E+02  0.17349618867E+02  0.12700000000E+01 0. -1.
         -4   -1    0    0    0  501 -0.00000000000E+00 -0.00000000000E+00 -0.22518591581E+03  0.22518949705E+03  0.12700000000E+01 0. -1.
         25    2    1    2    0    0  0.00000000000E+00  0.00000000000E+00 -0.20788284167E+03  0.24253911591E+03  0.12493977304E+03 0.  0.
    9000005    1    3    3    0    0  0.23857570212E+02  0.19454986208E+02 -0.20944619302E+03  0.21169881416E+03  0.10000000000E+01 0.  0.
    9000005    1    3    3    0    0 -0.23857570212E+02 -0.19454986208E+02  0.15633513559E+01  0.30840301753E+02  0.10000000000E+01 0.  0.
<mgrwt>
<rscale>  0 0.12493977E+03</rscale>
<asrwt>0</asrwt>
<pdfrwt beam="1">  1        4 0.26658674E-02 0.12493977E+03</pdfrwt>
<pdfrwt beam="2">  1       -4 0.34647841E-01 0.12493977E+03</pdfrwt>
<totfact> 0.83532743E+03</totfact>
</mgrwt>
</event>
<event>
 5    1  0.3217527E-002  0.1250006E+03  0.7818608E-02  0.1235068E+00
         -4   -1    0    0    0  501 -0.00000000000E+00  0.00000000000E+00  0.30863757564E+03  0.30864018856E+03  0.12700000000E+01 0. -1.
          4   -1    0    0  501    0  0.00000000000E+00 -0.00000000000E+00 -0.12622009789E+02  0.12685741252E+02  0.12700000000E+01 0. -1.
         25    2    1    2    0    0  0.00000000000E+00  0.00000000000E+00  0.29601556585E+03  0.32132592981E+03  0.12500055178E+03 0.  0.
    9000005    1    3    3    0    0 -0.47951606367E+02 -0.30437494297E+02  0.81000134232E+02  0.98933408705E+02  0.10000000000E+01 0.  0.
    9000005    1    3    3    0    0  0.47951606367E+02  0.30437494297E+02  0.21501543161E+03  0.22239252111E+03  0.10000000000E+01 0.  0.
<mgrwt>
<rscale>  0 0.12500055E+03</rscale>
<asrwt>0</asrwt>
<pdfrwt beam="2">  1        4 0.19469511E-02 0.12500055E+03</pdfrwt>
<pdfrwt beam="1">  1       -4 0.47487807E-01 0.12500055E+03</pdfrwt>
<totfact> 0.72997806E+03</totfact>
</mgrwt>
</event>
<event>
 5    1  0.3217527E-002  0.1250049E+03  0.7818608E-02  0.1235062E+00
          4   -1    0    0  501    0  0.00000000000E+00  0.00000000000E+00  0.42007009149E+01  0.43884835851E+01  0.12700000000E+01 0. -1.
         -4   -1    0    0    0  501 -0.00000000000E+00 -0.00000000000E+00 -0.90945660283E+03  0.90945748957E+03  0.12700000000E+01 0. -1.
         25    2    1    2    0    0  0.00000000000E+00  0.00000000000E+00 -0.90525590192E+03  0.91384597316E+03  0.12500485869E+03 0.  0.
    9000005    1    3    3    0    0  0.51105188778E+02 -0.29461049118E+02 -0.30176607542E+03  0.30747919932E+03  0.10000000000E+01 0.  0.
    9000005    1    3    3    0    0 -0.51105188778E+02  0.29461049118E+02 -0.60348982649E+03  0.60636677384E+03  0.10000000000E+01 0.  0.
<mgrwt>
<rscale>  0 0.12500486E+03</rscale>
<asrwt>0</asrwt>
<pdfrwt beam="1">  1        4 0.66077543E-03 0.12500486E+03</pdfrwt>
<pdfrwt beam="2">  1       -4 0.13993076E+00 0.12500486E+03</pdfrwt>
<totfact> 0.33631733E+03</totfact>
</mgrwt>
</event>
<event>
 5    1  0.3217527E-002  0.1249955E+03  0.7818608E-02  0.1235076E+00
          4   -1    0    0  501    0  0.00000000000E+00  0.00000000000E+00  0.29715413100E+02  0.29742539833E+02  0.12700000000E+01 0. -1.
         -4   -1    0    0    0  501 -0.00000000000E+00 -0.00000000000E+00 -0.13135573055E+03  0.13136186984E+03  0.12700000000E+01 0. -1.
         25    2    1    2    0    0  0.00000000000E+00  0.00000000000E+00 -0.10164031745E+03  0.16110440967E+03  0.12499550666E+03 0.  0.
    9000005    1    3    3    0    0  0.11308572519E+01 -0.35075185916E+02 -0.11746196477E+03  0.12259633222E+03  0.10000000000E+01 0.  0.
    9000005    1    3    3    0    0 -0.11308572519E+01  0.35075185916E+02  0.15821647325E+02  0.38508077454E+02  0.10000000000E+01 0.  0.
<mgrwt>
<rscale>  0 0.12499551E+03</rscale>
<asrwt>0</asrwt>
<pdfrwt beam="1">  1        4 0.45741610E-02 0.12499551E+03</pdfrwt>
<pdfrwt beam="2">  1       -4 0.20211133E-01 0.12499551E+03</pdfrwt>
<totfact> 0.97140095E+03</totfact>
</mgrwt>
</event>
<event>
 5    1  0.3217527E-002  0.1250090E+03  0.7818608E-02  0.1235055E+00
         -4   -1    0    0    0  501 -0.00000000000E+00  0.00000000000E+00  0.16258829542E+03  0.16259325542E+03  0.12700000000E+01 0. -1.
          4   -1    0    0  501    0  0.00000000000E+00 -0.00000000000E+00 -0.24006757318E+02  0.24040326473E+02  0.12700000000E+01 0. -1.
         25    2    1    2    0    0  0.00000000000E+00  0.00000000000E+00  0.13858153810E+03  0.18663358189E+03  0.12500900442E+03 0.  0.
    9000005    1    3    3    0    0 -0.91715504936E+01  0.64163962774E+01  0.16108694085E+03  0.16147845055E+03  0.10000000000E+01 0.  0.
    9000005    1    3    3    0    0  0.91715504936E+01 -0.64163962774E+01 -0.22505402751E+02  0.25155131338E+02  0.10000000000E+01 0.  0.
<mgrwt>
<rscale>  0 0.12500900E+03</rscale>
<asrwt>0</asrwt>
<pdfrwt beam="2">  1        4 0.36963111E-02 0.12500900E+03</pdfrwt>
<pdfrwt beam="1">  1       -4 0.25016547E-01 0.12500900E+03</pdfrwt>
<totfact> 0.92417734E+03</totfact>
</mgrwt>
</event>
<event>
 5    1  0.3217527E-002  0.1249949E+03  0.7818608E-02  0.1235077E+00
         -4   -1    0    0    0  501 -0.00000000000E+00  0.00000000000E+00  0.36670173374E+02  0.36692158771E+02  0.12700000000E+01 0.  1.
          4   -1    0    0  501    0  0.00000000000E+00 -0.00000000000E+00 -0.10645746811E+03  0.10646504317E+03  0.12700000000E+01 0.  1.
         25    2    1    2    0    0  0.00000000000E+00  0.00000000000E+00 -0.69787294738E+02  0.14315720194E+03  0.12499487174E+03 0.  0.
    9000005    1    3    3    0    0 -0.13914153811E+02 -0.38028948808E+02  0.19615210211E+02  0.45006233961E+02  0.10000000000E+01 0.  0.
    9000005    1    3    3    0    0  0.13914153811E+02  0.38028948808E+02 -0.89402504950E+02  0.98150967978E+02  0.10000000000E+01 0.  0.
<mgrwt>
<rscale>  0 0.12499487E+03</rscale>
<asrwt>0</asrwt>
<pdfrwt beam="2">  1        4 0.16380346E-01 0.12499487E+03</pdfrwt>
<pdfrwt beam="1">  1       -4 0.56438391E-02 0.12499487E+03</pdfrwt>
<totfact> 0.10069728E+04</totfact>
</mgrwt>
</event>
<event>
 5    1  0.3217527E-002  0.1250016E+03  0.7818608E-02  0.1235067E+00
          4   -1    0    0  501    0  0.00000000000E+00  0.00000000000E+00  0.45266906336E+02  0.45284718275E+02  0.12700000000E+01 0.  1.
         -4   -1    0    0    0  501 -0.00000000000E+00 -0.00000000000E+00 -0.86256461034E+02  0.86265809972E+02  0.12700000000E+01 0.  1.
         25    2    1    2    0    0  0.00000000000E+00  0.00000000000E+00 -0.40989554697E+02  0.13155052825E+03  0.12500159154E+03 0.  0.
    9000005    1    3    3    0    0  0.25922667395E+02 -0.52021548526E+02 -0.44656792405E+02  0.73303855996E+02  0.10000000000E+01 0.  0.
    9000005    1    3    3    0    0 -0.25922667395E+02  0.52021548526E+02  0.36672377074E+01  0.58246672251E+02  0.10000000000E+01 0.  0.
<mgrwt>
<rscale>  0 0.12500159E+03</rscale>
<asrwt>0</asrwt>
<pdfrwt beam="1">  1        4 0.69662287E-02 0.12500159E+03</pdfrwt>
<pdfrwt beam="2">  1       -4 0.13272314E-01 0.12500159E+03</pdfrwt>
<totfact> 0.10310931E+04</totfact>
</mgrwt>
</event>
<event>
 5    1  0.3217527E-002  0.1249989E+03  0.7818608E-02  0.1235071E+00
          4   -1    0    0  501    0  0.00000000000E+00  0.00000000000E+00  0.25104417424E+03  0.25104738660E+03  0.12700000000E+01 0. -1.
         -4   -1    0    0    0  501 -0.00000000000E+00 -0.00000000000E+00 -0.15530493654E+02  0.15582334008E+02  0.12700000000E+01 0. -1.
         25    2    1    2    0    0  0.00000000000E+00  0.00000000000E+00  0.23551368059E+03  0.26662972061E+03  0.12499885667E+03 0.  0.
    9000005    1    3    3    0    0  0.26721358548E+02  0.51881182554E+02  0.16542914032E+03  0.17542374005E+03  0.10000000000E+01 0.  0.
    9000005    1    3    3    0    0 -0.26721358548E+02 -0.51881182554E+02  0.70084540266E+02  0.91205980562E+02  0.10000000000E+01 0.  0.
<mgrwt>
<rscale>  0 0.12499886E+03</rscale>
<asrwt>0</asrwt>
<pdfrwt beam="1">  1        4 0.38626411E-01 0.12499886E+03</pdfrwt>
<pdfrwt beam="2">  1       -4 0.23935418E-02 0.12499886E+03</pdfrwt>
<totfact> 0.79986621E+03</totfact>
</mgrwt>
</event>
<event>
 5    1  0.3217527E-002  0.1249977E+03  0.7818608E-02  0.1235073E+00
          4   -1    0    0  501    0  0.00000000000E+00  0.00000000000E+00  0.34690308052E+02  0.34713547395E+02  0.12700000000E+01 0. -1.
         -4   -1    0    0    0  501 -0.00000000000E+00 -0.00000000000E+00 -0.11253489508E+03  0.11254206108E+03  0.12700000000E+01 0. -1.
         25    2    1    2    0    0  0.00000000000E+00  0.00000000000E+00 -0.77844587032E+02  0.14725560847E+03  0.12499773797E+03 0.  0.
    9000005    1    3    3    0    0  0.37206121823E+02  0.50086660031E+02 -0.34817682032E+02  0.71457959643E+02  0.10000000000E+01 0.  0.
    9000005    1    3    3    0    0 -0.37206121823E+02 -0.50086660031E+02 -0.43026905000E+02  0.75797648830E+02  0.10000000000E+01 0.  0.
<mgrwt>
<rscale>  0 0.12499774E+03</rscale>
<asrwt>0</asrwt>
<pdfrwt beam="1">  1        4 0.53393094E-02 0.12499774E+03</pdfrwt>
<pdfrwt beam="2">  1       -4 0.17315399E-01 0.12499774E+03</pdfrwt>
<totfact> 0.99858677E+03</totfact>
</mgrwt>
</event>
<event>
 5    1  0.3217527E-002  0.1249983E+03  0.7818608E-02  0.1235072E+00
          4   -1    0    0  501    0  0.00000000000E+00  0.00000000000E+00  0.13170585194E+03  0.13171197491E+03  0.12700000000E+01 0.  1.
         -4   -1    0    0    0  501 -0.00000000000E+00 -0.00000000000E+00 -0.29637673281E+02  0.29664871102E+02  0.12700000000E+01 0.  1.
         25    2    1    2    0    0  0.00000000000E+00  0.00000000000E+00  0.10206817866E+03  0.16137684602E+03  0.12499829333E+03 0.  0.
    9000005    1    3    3    0    0  0.22045643203E+02 -0.51805064741E+02  0.86043884313E+02  0.10283153770E+03  0.10000000000E+01 0.  0.
    9000005    1    3    3    0    0 -0.22045643203E+02  0.51805064741E+02  0.16024294346E+02  0.58545308320E+02  0.10000000000E+01 0.  0.
<mgrwt>
<rscale>  0 0.12499829E+03</rscale>
<asrwt>0</asrwt>
<pdfrwt beam="1">  1        4 0.20265002E-01 0.12499829E+03</pdfrwt>
<pdfrwt beam="2">  1       -4 0.45622052E-02 0.12499829E+03</pdfrwt>
<totfact> 0.97081718E+03</totfact>
</mgrwt>
</event>
<event>
 5    1  0.3217527E-002  0.1250007E+03  0.7818608E-02  0.1235068E+00
          4   -1    0    0  501    0  0.00000000000E+00  0.00000000000E+00  0.24441310668E+03  0.24441640620E+03  0.12700000000E+01 0.  1.
         -4   -1    0    0    0  501 -0.00000000000E+00 -0.00000000000E+00 -0.15953689975E+02  0.16004159578E+02  0.12700000000E+01 0.  1.
         25    2    1    2    0    0  0.00000000000E+00  0.00000000000E+00  0.22845941671E+03  0.26042056578E+03  0.12500066398E+03 0.  0.
    9000005    1    3    3    0    0  0.24373522022E+02 -0.36905899490E+02  0.22250714701E+02  0.49519776834E+02  0.10000000000E+01 0.  0.
    9000005    1    3    3    0    0 -0.24373522022E+02  0.36905899490E+02  0.20620870201E+03  0.21090078894E+03  0.10000000000E+01 0.  0.
<mgrwt>
<rscale>  0 0.12500066E+03</rscale>
<asrwt>0</asrwt>
<pdfrwt beam="1">  1        4 0.37606150E-01 0.12500066E+03</pdfrwt>
<pdfrwt beam="2">  1       -4 0.24585501E-02 0.12500066E+03</pdfrwt>
<totfact> 0.80845883E+03</totfact>
</mgrwt>
</event>
<event>
 4    1  0.3217527E-002  0.1249249E+03  0.7818608E-02  0.1235187E+00
         -4   -1    0    0    0  501 -0.00000000000E+00  0.00000000000E+00  0.39400221042E+02  0.39420683887E+02  0.12700000000E+01 0.  1.
          4   -1    0    0  501    0  0.00000000000E+00 -0.00000000000E+00 -0.98973545038E+02  0.98981692840E+02  0.12700000000E+01 0.  1.
    9000005    1    1    2    0    0 -0.53628738674E+01  0.62222460946E+02 -0.29337762810E+02  0.69007966127E+02  0.10000000000E+01 0.  0.
    9000005    1    1    2    0    0  0.53628738674E+01 -0.62222460946E+02 -0.30235561186E+02  0.69394410600E+02  0.10000000000E+01 0.  0.
<mgrwt>
<rscale>  0 0.12492493E+03</rscale>
<asrwt>0</asrwt>
<pdfrwt beam="2">  1        4 0.15228900E-01 0.12492493E+03</pdfrwt>
<pdfrwt beam="1">  1       -4 0.60637733E-02 0.12492493E+03</pdfrwt>
<totfact> 0.10184023E+04</totfact>
</mgrwt>
</event>
<event>
 5    1  0.3217527E-002  0.1250008E+03  0.7818608E-02  0.1235068E+00
         -4   -1    0    0    0  501 -0.00000000000E+00  0.00000000000E+00  0.22929655992E+02  0.22964799671E+02  0.12700000000E+01 0. -1.
          4   -1    0    0  501    0  0.00000000000E+00 -0.00000000000E+00 -0.17019206547E+03  0.17019680387E+03  0.12700000000E+01 0. -1.
         25    2    1    2    0    0  0.00000000000E+00  0.00000000000E+00 -0.14726240947E+03  0.19316160354E+03  0.12500075135E+03 0.  0.
    9000005    1    3    3    0    0  0.39609357197E+02 -0.39297476438E+02 -0.30140212429E+02  0.63424169188E+02  0.10000000000E+01 0.  0.
    9000005    1    3    3    0    0 -0.39609357197E+02  0.39297476438E+02 -0.11712219704E+03  0.12973743435E+03  0.10000000000E+01 0.  0.
<mgrwt>
<rscale>  0 0.12500075E+03</rscale>
<asrwt>0</asrwt>
<pdfrwt beam="2">  1        4 0.26186462E-01 0.12500075E+03</pdfrwt>
<pdfrwt beam="1">  1       -4 0.35307074E-02 0.12500075E+03</pdfrwt>
<totfact> 0.91298562E+03</totfact>
</mgrwt>
</event>
<event>
 5    1  0.3217527E-002  0.1250019E+03  0.7818608E-02  0.1235066E+00
         -4   -1    0    0    0  501 -0.00000000000E+00  0.00000000000E+00  0.18160790026E+02  0.18205141976E+02  0.12700000000E+01 0. -1.
          4   -1    0    0  501    0  0.00000000000E+00 -0.00000000000E+00 -0.21479039844E+03  0.21479415300E+03  0.12700000000E+01 0. -1.
         25    2    1    2    0    0  0.00000000000E+00  0.00000000000E+00 -0.19662960842E+03  0.23299929498E+03  0.12500187420E+03 0.  0.
    9000005    1    3    3    0    0  0.46930100247E+02  0.28829458576E+02 -0.43279001394E+02  0.70054578384E+02  0.10000000000E+01 0.  0.
    9000005    1    3    3    0    0 -0.46930100247E+02 -0.28829458576E+02 -0.15335060703E+03  0.16294471659E+03  0.10000000000E+01 0.  0.
<mgrwt>
<rscale>  0 0.12500187E+03</rscale>
<asrwt>0</asrwt>
<pdfrwt beam="2">  1        4 0.33048375E-01 0.12500187E+03</pdfrwt>
<pdfrwt beam="1">  1       -4 0.27976683E-02 0.12500187E+03</pdfrwt>
<totfact> 0.84847624E+03</totfact>
</mgrwt>
</event>
<event>
 5    1  0.3217527E-002  0.1249975E+03  0.7818608E-02  0.1235073E+00
         -4   -1    0    0    0  501 -0.00000000000E+00  0.00000000000E+00  0.11221963751E+03  0.11222682363E+03  0.12700000000E+01 0. -1.
          4   -1    0    0  501    0  0.00000000000E+00 -0.00000000000E+00 -0.34787679631E+02  0.34810853970E+02  0.12700000000E+01 0. -1.
         25    2    1    2    0    0  0.00000000000E+00  0.00000000000E+00  0.77431957875E+02  0.14703767760E+03  0.12499748211E+03 0.  0.
    9000005    1    3    3    0    0  0.39777367460E+02 -0.27730922850E+02 -0.76534618518E+01  0.49100086787E+02  0.10000000000E+01 0.  0.
    9000005    1    3    3    0    0 -0.39777367460E+02  0.27730922850E+02  0.85085419726E+02  0.97937590813E+02  0.10000000000E+01 0.  0.
<mgrwt>
<rscale>  0 0.12499748E+03</rscale>
<asrwt>0</asrwt>
<pdfrwt beam="2">  1        4 0.53542863E-02 0.12499748E+03</pdfrwt>
<pdfrwt beam="1">  1       -4 0.17266895E-01 0.12499748E+03</pdfrwt>
<totfact> 0.99903168E+03</totfact>
</mgrwt>
</event>
<event>
 5    1  0.3217527E-002  0.1250014E+03  0.7818608E-02  0.1235067E+00
          4   -1    0    0  501    0  0.00000000000E+00  0.00000000000E+00  0.96509439361E+02  0.96517795177E+02  0.12700000000E+01 0. -1.
         -4   -1    0    0    0  501 -0.00000000000E+00 -0.00000000000E+00 -0.40456181070E+02  0.40476110075E+02  0.12700000000E+01 0. -1.
         25    2    1    2    0    0  0.00000000000E+00  0.00000000000E+00  0.56053258291E+02  0.13699390525E+03  0.12500144924E+03 0.  0.
    9000005    1    3    3    0    0  0.38895915743E+02  0.42272892538E+00  0.81629896206E+02  0.90429590930E+02  0.10000000000E+01 0.  0.
    9000005    1    3    3    0    0 -0.38895915743E+02 -0.42272892538E+00 -0.25576637914E+02  0.46564314322E+02  0.10000000000E+01 0.  0.
<mgrwt>
<rscale>  0 0.12500145E+03</rscale>
<asrwt>0</asrwt>
<pdfrwt beam="1">  1        4 0.14849782E-01 0.12500145E+03</pdfrwt>
<pdfrwt beam="2">  1       -4 0.62262037E-02 0.12500145E+03</pdfrwt>
<totfact> 0.10195880E+04</totfact>
</mgrwt>
</event>
<event>
 5    1  0.3217527E-002  0.1249993E+03  0.7818608E-02  0.1235070E+00
         -4   -1    0    0    0  501 -0.00000000000E+00  0.00000000000E+00  0.12572365358E+03  0.12573006789E+03  0.12700000000E+01 0.  1.
          4   -1    0    0  501    0  0.00000000000E+00 -0.00000000000E+00 -0.31049601591E+02  0.31075563695E+02  0.12700000000E+01 0.  1.
         25    2    1    2    0    0  0.00000000000E+00  0.00000000000E+00  0.94674051993E+02  0.15680563158E+03  0.12499931990E+03 0.  0.
    9000005    1    3    3    0    0 -0.52354249014E+02  0.31518463064E+02  0.63732793139E+02  0.88302037491E+02  0.10000000000E+01 0.  0.
    9000005    1    3    3    0    0  0.52354249014E+02 -0.31518463064E+02  0.30941258854E+02  0.68503594090E+02  0.10000000000E+01 0.  0.
<mgrwt>
<rscale>  0 0.12499932E+03</rscale>
<asrwt>0</asrwt>
<pdfrwt beam="2">  1        4 0.47793523E-02 0.12499932E+03</pdfrwt>
<pdfrwt beam="1">  1       -4 0.19344591E-01 0.12499932E+03</pdfrwt>
<totfact> 0.97963691E+03</totfact>
</mgrwt>
</event>
<event>
 5    1  0.3217527E-002  0.1249996E+03  0.7818608E-02  0.1235070E+00
          4   -1    0    0  501    0  0.00000000000E+00  0.00000000000E+00  0.31778006700E+03  0.31778260475E+03  0.12700000000E+01 0. -1.
         -4   -1    0    0    0  501 -0.00000000000E+00 -0.00000000000E+00 -0.12256835258E+02  0.12322455540E+02  0.12700000000E+01 0. -1.
         25    2    1    2    0    0  0.00000000000E+00  0.00000000000E+00  0.30552323174E+03  0.33010506029E+03  0.12499962278E+03 0.  0.
    9000005    1    3    3    0    0  0.45759029779E+02 -0.78728749233E+01  0.42307345395E+02  0.62823422704E+02  0.10000000000E+01 0.  0.
    9000005    1    3    3    0    0 -0.45759029779E+02  0.78728749233E+01  0.26321588635E+03  0.26728163759E+03  0.10000000000E+01 0.  0.
<mgrwt>
<rscale>  0 0.12499962E+03</rscale>
<asrwt>0</asrwt>
<pdfrwt beam="1">  1        4 0.48894480E-01 0.12499962E+03</pdfrwt>
<pdfrwt beam="2">  1       -4 0.18909100E-02 0.12499962E+03</pdfrwt>
<totfact> 0.71970767E+03</totfact>
</mgrwt>
</event>
<event>
 5    1  0.3217527E-002  0.1249929E+03  0.7818608E-02  0.1235080E+00
          4   -1    0    0  501    0  0.00000000000E+00  0.00000000000E+00  0.82791028044E+02  0.82800768261E+02  0.12700000000E+01 0.  1.
         -4   -1    0    0    0  501 -0.00000000000E+00 -0.00000000000E+00 -0.47155588484E+02  0.47172687280E+02  0.12700000000E+01 0.  1.
         25    2    1    2    0    0  0.00000000000E+00  0.00000000000E+00  0.35635439560E+02  0.12997345554E+03  0.12499285817E+03 0.  0.
    9000005    1    3    3    0    0  0.56091910431E+02  0.27504871343E+02  0.19282127497E+02  0.65388231389E+02  0.10000000000E+01 0.  0.
    9000005    1    3    3    0    0 -0.56091910431E+02 -0.27504871343E+02  0.16353312063E+02  0.64585224152E+02  0.10000000000E+01 0.  0.
<mgrwt>
<rscale>  0 0.12499286E+03</rscale>
<asrwt>0</asrwt>
<pdfrwt beam="1">  1        4 0.12739146E-01 0.12499286E+03</pdfrwt>
<pdfrwt beam="2">  1       -4 0.72567705E-02 0.12499286E+03</pdfrwt>
<totfact> 0.10346743E+04</totfact>
</mgrwt>
</event>
<event>
 5    1  0.3217527E-002  0.1249849E+03  0.7818608E-02  0.1235093E+00
         -4   -1    0    0    0  501 -0.00000000000E+00  0.00000000000E+00  0.10678317556E+02  0.10753574560E+02  0.12700000000E+01 0.  1.
          4   -1    0    0  501    0  0.00000000000E+00 -0.00000000000E+00 -0.36436223704E+03  0.36436445035E+03  0.12700000000E+01 0.  1.
         25    2    1    2    0    0  0.00000000000E+00  0.00000000000E+00 -0.35368391948E+03  0.37511802491E+03  0.12498486993E+03 0.  0.
    9000005    1    3    3    0    0  0.50342910182E+02  0.13173921596E+02 -0.73032134956E+02  0.89680842726E+02  0.10000000000E+01 0.  0.
    9000005    1    3    3    0    0 -0.50342910182E+02 -0.13173921596E+02 -0.28065178452E+03  0.28543718218E+03  0.10000000000E+01 0.  0.
<mgrwt>
<rscale>  0 0.12498487E+03</rscale>
<asrwt>0</asrwt>
<pdfrwt beam="2">  1        4 0.56061678E-01 0.12498487E+03</pdfrwt>
<pdfrwt beam="1">  1       -4 0.16487776E-02 0.12498487E+03</pdfrwt>
<totfact> 0.67069304E+03</totfact>
</mgrwt>
</event>
<event>
 5    1  0.3217527E-002  0.1250034E+03  0.7818608E-02  0.1235064E+00
          4   -1    0    0  501    0  0.00000000000E+00  0.00000000000E+00  0.28089943526E+03  0.28090230620E+03  0.12700000000E+01 0. -1.
         -4   -1    0    0    0  501 -0.00000000000E+00 -0.00000000000E+00 -0.13875042928E+02  0.13933044041E+02  0.12700000000E+01 0. -1.
         25    2    1    2    0    0  0.00000000000E+00  0.00000000000E+00  0.26702439233E+03  0.29483535024E+03  0.12500343056E+03 0.  0.
    9000005    1    3    3    0    0  0.47412164751E+02  0.34021559999E+02  0.80767436304E+02  0.99648174485E+02  0.10000000000E+01 0.  0.
    9000005    1    3    3    0    0 -0.47412164751E+02 -0.34021559999E+02  0.18625695602E+03  0.19518717575E+03  0.10000000000E+01 0.  0.
<mgrwt>
<rscale>  0 0.12500343E+03</rscale>
<asrwt>0</asrwt>
<pdfrwt beam="1">  1        4 0.43219975E-01 0.12500343E+03</pdfrwt>
<pdfrwt beam="2">  1       -4 0.21393047E-02 0.12500343E+03</pdfrwt>
<totfact> 0.76245477E+03</totfact>
</mgrwt>
</event>
<event>
 5    1  0.3217527E-002  0.1249994E+03  0.7818608E-02  0.1235070E+00
          4   -1    0    0  501    0  0.00000000000E+00  0.00000000000E+00  0.12701427493E+03  0.12702062406E+03  0.12700000000E+01 0.  1.
         -4   -1    0    0    0  501 -0.00000000000E+00 -0.00000000000E+00 -0.30733911886E+02  0.30760140438E+02  0.12700000000E+01 0.  1.
         25    2    1    2    0    0  0.00000000000E+00  0.00000000000E+00  0.96280363043E+02  0.15778076450E+03  0.12499944535E+03 0.  0.
    9000005    1    3    3    0    0  0.22958962819E+02 -0.52174838351E+02  0.15813532990E+02  0.59164140797E+02  0.10000000000E+01 0.  0.
    9000005    1    3    3    0    0 -0.22958962819E+02  0.52174838351E+02  0.80466830053E+02  0.98616623698E+02  0.10000000000E+01 0.  0.
<mgrwt>
<rscale>  0 0.12499945E+03</rscale>
<asrwt>0</asrwt>
<pdfrwt beam="1">  1        4 0.19543164E-01 0.12499945E+03</pdfrwt>
<pdfrwt beam="2">  1       -4 0.47308001E-02 0.12499945E+03</pdfrwt>
<totfact> 0.97773569E+03</totfact>
</mgrwt>
</event>
<event>
 5    1  0.3217527E-002  0.1249999E+03  0.7818608E-02  0.1235069E+00
          4   -1    0    0  501    0  0.00000000000E+00  0.00000000000E+00  0.23324634390E+01  0.26558022694E+01  0.12700000000E+01 0. -1.
         -4   -1    0    0    0  501 -0.00000000000E+00 -0.00000000000E+00 -0.15658490616E+04  0.15658495767E+04  0.12700000000E+01 0. -1.
         25    2    1    2    0    0  0.00000000000E+00  0.00000000000E+00 -0.15635165982E+04  0.15685053789E+04  0.12499988357E+03 0.  0.
    9000005    1    3    3    0    0 -0.21551714674E+02 -0.25513052179E+02 -0.14445344438E+04  0.14449208115E+04  0.10000000000E+01 0.  0.
    9000005    1    3    3    0    0  0.21551714674E+02  0.25513052179E+02 -0.11898215438E+03  0.12358456740E+03  0.10000000000E+01 0.  0.
<mgrwt>
<rscale>  0 0.12499988E+03</rscale>
<asrwt>0</asrwt>
<pdfrwt beam="1">  1        4 0.38375362E-03 0.12499988E+03</pdfrwt>
<pdfrwt beam="2">  1       -4 0.24092398E+00 0.12499988E+03</pdfrwt>
<totfact> 0.16622559E+03</totfact>
</mgrwt>
</event>
<event>
 5    1  0.3217527E-002  0.1250001E+03  0.7818608E-02  0.1235069E+00
          4   -1    0    0  501    0  0.00000000000E+00  0.00000000000E+00  0.28879133769E+04  0.28879136562E+04  0.12700000000E+01 0.  1.
         -4   -1    0    0    0  501 -0.00000000000E+00 -0.00000000000E+00 -0.10541749443E+01  0.16505104705E+01  0.12700000000E+01 0.  1.
         25    2    1    2    0    0  0.00000000000E+00  0.00000000000E+00  0.28868592020E+04  0.28895641667E+04  0.12500008441E+03 0.  0.
    9000005    1    3    3    0    0 -0.20741338885E+01  0.57729507285E+02  0.89237513969E+03  0.89424347242E+03  0.10000000000E+01 0.  0.
    9000005    1    3    3    0    0  0.20741338885E+01 -0.57729507285E+02  0.19944840623E+04  0.19953206942E+04  0.10000000000E+01 0.  0.
<mgrwt>
<rscale>  0 0.12500008E+03</rscale>
<asrwt>0</asrwt>
<pdfrwt beam="1">  1        4 0.44433628E+00 0.12500008E+03</pdfrwt>
<pdfrwt beam="2">  1       -4 0.20807607E-03 0.12500008E+03</pdfrwt>
<totfact> 0.22792616E+02</totfact>
</mgrwt>
</event>
<event>
 5    1  0.3217527E-002  0.1250034E+03  0.7818608E-02  0.1235064E+00
          4   -1    0    0  501    0  0.00000000000E+00  0.00000000000E+00  0.30896297180E+03  0.30896558197E+03  0.12700000000E+01 0. -1.
         -4   -1    0    0    0  501 -0.00000000000E+00 -0.00000000000E+00 -0.12609229550E+02  0.12673025283E+02  0.12700000000E+01 0. -1.
         25    2    1    2    0    0  0.00000000000E+00  0.00000000000E+00  0.29635374225E+03  0.32163860725E+03  0.12500341248E+03 0.  0.
    9000005    1    3    3    0    0 -0.40898213924E+01 -0.59476173222E+02  0.99948938555E+02  0.11638269690E+03  0.10000000000E+01 0.  0.
    9000005    1    3    3    0    0  0.40898213924E+01  0.59476173222E+02  0.19640480369E+03  0.20525591035E+03  0.10000000000E+01 0.  0.
<mgrwt>
<rscale>  0 0.12500341E+03</rscale>
<asrwt>0</asrwt>
<pdfrwt beam="1">  1        4 0.47537874E-01 0.12500341E+03</pdfrwt>
<pdfrwt beam="2">  1       -4 0.19449896E-02 0.12500341E+03</pdfrwt>
<totfact> 0.72956137E+03</totfact>
</mgrwt>
</event>
<event>
 5    1  0.3217527E-002  0.1250119E+03  0.7818608E-02  0.1235051E+00
         -4   -1    0    0    0  501 -0.00000000000E+00  0.00000000000E+00  0.57945122567E+03  0.57945261742E+03  0.12700000000E+01 0.  1.
          4   -1    0    0  501    0  0.00000000000E+00 -0.00000000000E+00 -0.66813603407E+01  0.68009908104E+01  0.12700000000E+01 0.  1.
         25    2    1    2    0    0  0.00000000000E+00  0.00000000000E+00  0.57276986533E+03  0.58625360823E+03  0.12501189755E+03 0.  0.
    9000005    1    3    3    0    0 -0.21267838179E+02 -0.16148714392E+02  0.55137297475E+03  0.55202016195E+03  0.10000000000E+01 0.  0.
    9000005    1    3    3    0    0  0.21267838179E+02  0.16148714392E+02  0.21396890579E+02  0.34233446273E+02  0.10000000000E+01 0.  0.
<mgrwt>
<rscale>  0 0.12501190E+03</rscale>
<asrwt>0</asrwt>
<pdfrwt beam="2">  1        4 0.10372107E-02 0.12501190E+03</pdfrwt>
<pdfrwt beam="1">  1       -4 0.89155673E-01 0.12501190E+03</pdfrwt>
<totfact> 0.49733990E+03</totfact>
</mgrwt>
</event>
<event>
 5    1  0.3217527E-002  0.1249993E+03  0.7818608E-02  0.1235070E+00
          4   -1    0    0  501    0  0.00000000000E+00  0.00000000000E+00  0.31484398844E+03  0.31484654986E+03  0.12700000000E+01 0.  1.
         -4   -1    0    0    0  501 -0.00000000000E+00 -0.00000000000E+00 -0.12371682305E+02  0.12436696629E+02  0.12700000000E+01 0.  1.
         25    2    1    2    0    0  0.00000000000E+00  0.00000000000E+00  0.30247230613E+03  0.32728324648E+03  0.12499930980E+03 0.  0.
    9000005    1    3    3    0    0  0.18384610291E+02  0.36905493229E+02  0.28282932515E+02  0.50009335105E+02  0.10000000000E+01 0.  0.
    9000005    1    3    3    0    0 -0.18384610291E+02 -0.36905493229E+02  0.27418937362E+03  0.27727391138E+03  0.10000000000E+01 0.  0.
<mgrwt>
<rscale>  0 0.12499931E+03</rscale>
<asrwt>0</asrwt>
<pdfrwt beam="1">  1        4 0.48442733E-01 0.12499931E+03</pdfrwt>
<pdfrwt beam="2">  1       -4 0.19085339E-02 0.12499931E+03</pdfrwt>
<totfact> 0.72299277E+03</totfact>
</mgrwt>
</event>
<event>
 5    1  0.3217527E-002  0.1249991E+03  0.7818608E-02  0.1235071E+00
         -4   -1    0    0    0  501 -0.00000000000E+00  0.00000000000E+00  0.45508674994E+02  0.45526392342E+02  0.12700000000E+01 0. -1.
          4   -1    0    0  501    0  0.00000000000E+00 -0.00000000000E+00 -0.85794888254E+02  0.85804287483E+02  0.12700000000E+01 0. -1.
         25    2    1    2    0    0  0.00000000000E+00  0.00000000000E+00 -0.40286213260E+02  0.13133067983E+03  0.12499907393E+03 0.  0.
    9000005    1    3    3    0    0 -0.37716663502E+02 -0.47425544972E+02 -0.40896514308E+01  0.60740878084E+02  0.10000000000E+01 0.  0.
    9000005    1    3    3    0    0  0.37716663502E+02  0.47425544972E+02 -0.36196561829E+02  0.70589801741E+02  0.10000000000E+01 0.  0.
<mgrwt>
<rscale>  0 0.12499907E+03</rscale>
<asrwt>0</asrwt>
<pdfrwt beam="2">  1        4 0.13201299E-01 0.12499907E+03</pdfrwt>
<pdfrwt beam="1">  1       -4 0.70034205E-02 0.12499907E+03</pdfrwt>
<totfact> 0.10316221E+04</totfact>
</mgrwt>
</event>
<event>
 5    1  0.3217527E-002  0.1250005E+03  0.7818608E-02  0.1235069E+00
         -4   -1    0    0    0  501 -0.00000000000E+00  0.00000000000E+00  0.12085886304E+03  0.12086553551E+03  0.12700000000E+01 0.  1.
          4   -1    0    0  501    0  0.00000000000E+00 -0.00000000000E+00 -0.32300961425E+02  0.32325918533E+02  0.12700000000E+01 0.  1.
         25    2    1    2    0    0  0.00000000000E+00  0.00000000000E+00  0.88557901611E+02  0.15319145404E+03  0.12500047862E+03 0.  0.
    9000005    1    3    3    0    0  0.45698968645E+02 -0.22221683697E+02  0.88856488000E+02  0.10236539660E+03  0.10000000000E+01 0.  0.
    9000005    1    3    3    0    0 -0.45698968645E+02  0.22221683697E+02 -0.29858638850E+00  0.50826057444E+02  0.10000000000E+01 0.  0.
<mgrwt>
<rscale>  0 0.12500048E+03</rscale>
<asrwt>0</asrwt>
<pdfrwt beam="2">  1        4 0.49718117E-02 0.12500048E+03</pdfrwt>
<pdfrwt beam="1">  1       -4 0.18596105E-01 0.12500048E+03</pdfrwt>
<totfact> 0.98670229E+03</totfact>
</mgrwt>
</event>
<event>
 5    1  0.3217527E-002  0.1249946E+03  0.7818608E-02  0.1235078E+00
         -4   -1    0    0    0  501 -0.00000000000E+00  0.00000000000E+00  0.11007339255E+02  0.11080361794E+02  0.12700000000E+01 0. -1.
          4   -1    0    0  501    0  0.00000000000E+00 -0.00000000000E+00 -0.35359863370E+03  0.35360091438E+03  0.12700000000E+01 0. -1.
         25    2    1    2    0    0  0.00000000000E+00  0.00000000000E+00 -0.34259129444E+03  0.36468127618E+03  0.12499455255E+03 0.  0.
    9000005    1    3    3    0    0 -0.18010949415E+02  0.56992476091E+01  0.24909401565E+01  0.19080893716E+02  0.10000000000E+01 0.  0.
    9000005    1    3    3    0    0  0.18010949415E+02 -0.56992476091E+01 -0.34508223460E+03  0.34560038246E+03  0.10000000000E+01 0.  0.
<mgrwt>
<rscale>  0 0.12499455E+03</rscale>
<asrwt>0</asrwt>
<pdfrwt beam="2">  1        4 0.54405574E-01 0.12499455E+03</pdfrwt>
<pdfrwt beam="1">  1       -4 0.16992296E-02 0.12499455E+03</pdfrwt>
<totfact> 0.68147283E+03</totfact>
</mgrwt>
</event>
<event>
 5    1  0.3217527E-002  0.1249927E+03  0.7818608E-02  0.1235081E+00
         -4   -1    0    0    0  501 -0.00000000000E+00  0.00000000000E+00  0.45691370840E+02  0.45709017373E+02  0.12700000000E+01 0.  1.
          4   -1    0    0  501    0  0.00000000000E+00 -0.00000000000E+00 -0.85443228169E+02  0.85452666079E+02  0.12700000000E+01 0.  1.
         25    2    1    2    0    0  0.00000000000E+00  0.00000000000E+00 -0.39751857330E+02  0.13116168345E+03  0.12499270797E+03 0.  0.
    9000005    1    3    3    0    0 -0.21169083768E+02 -0.11196728552E+02  0.40690087688E+02  0.47224782413E+02  0.10000000000E+01 0.  0.
    9000005    1    3    3    0    0  0.21169083768E+02  0.11196728552E+02 -0.80441945018E+02  0.83936901040E+02  0.10000000000E+01 0.  0.
<mgrwt>
<rscale>  0 0.12499271E+03</rscale>
<asrwt>0</asrwt>
<pdfrwt beam="2">  1        4 0.13147195E-01 0.12499271E+03</pdfrwt>
<pdfrwt beam="1">  1       -4 0.70315251E-02 0.12499271E+03</pdfrwt>
<totfact> 0.10321322E+04</totfact>
</mgrwt>
</event>
<event>
 5    1  0.3217527E-002  0.1249984E+03  0.7818608E-02  0.1235072E+00
          4   -1    0    0  501    0  0.00000000000E+00  0.00000000000E+00  0.47112881489E+01  0.48794606282E+01  0.12700000000E+01 0.  1.
         -4   -1    0    0    0  501 -0.00000000000E+00 -0.00000000000E+00 -0.81439700610E+03  0.81439799634E+03  0.12700000000E+01 0.  1.
         25    2    1    2    0    0  0.00000000000E+00  0.00000000000E+00 -0.80968571795E+03  0.81927745697E+03  0.12499835857E+03 0.  0.
    9000005    1    3    3    0    0 -0.28253771875E+02 -0.47605662064E+02 -0.59486943453E+03  0.59744055673E+03  0.10000000000E+01 0.  0.
    9000005    1    3    3    0    0  0.28253771875E+02  0.47605662064E+02 -0.21481628342E+03  0.22183690024E+03  0.10000000000E+01 0.  0.
<mgrwt>
<rscale>  0 0.12499836E+03</rscale>
<asrwt>0</asrwt>
<pdfrwt beam="1">  1        4 0.73782672E-03 0.12499836E+03</pdfrwt>
<pdfrwt beam="2">  1       -4 0.12530475E+00 0.12499836E+03</pdfrwt>
<totfact> 0.37419858E+03</totfact>
</mgrwt>
</event>
<event>
 5    1  0.3217527E-002  0.1250043E+03  0.7818608E-02  0.1235062E+00
         -4   -1    0    0    0  501 -0.00000000000E+00  0.00000000000E+00  0.12631126697E+03  0.12631765144E+03  0.12700000000E+01 0. -1.
          4   -1    0    0  501    0  0.00000000000E+00 -0.00000000000E+00 -0.30907529733E+02  0.30933611076E+02  0.12700000000E+01 0. -1.
         25    2    1    2    0    0  0.00000000000E+00  0.00000000000E+00  0.95403737240E+02  0.15725126251E+03  0.12500434585E+03 0.  0.
    9000005    1    3    3    0    0 -0.40133492589E+02 -0.14770348165E+02  0.10502789700E+03  0.11340511259E+03  0.10000000000E+01 0.  0.
    9000005    1    3    3    0    0  0.40133492589E+02  0.14770348165E+02 -0.96241597598E+01  0.43846149927E+02  0.10000000000E+01 0.  0.
<mgrwt>
<rscale>  0 0.12500435E+03</rscale>
<asrwt>0</asrwt>
<pdfrwt beam="2">  1        4 0.47575020E-02 0.12500435E+03</pdfrwt>
<pdfrwt beam="1">  1       -4 0.19435000E-01 0.12500435E+03</pdfrwt>
<totfact> 0.97865789E+03</totfact>
</mgrwt>
</event>
<event>
 5    1  0.3217527E-002  0.1249994E+03  0.7818608E-02  0.1235070E+00
         -4   -1    0    0    0  501 -0.00000000000E+00  0.00000000000E+00  0.15131060896E+02  0.15184265008E+02  0.12700000000E+01 0. -1.
          4   -1    0    0  501    0  0.00000000000E+00 -0.00000000000E+00 -0.25765062466E+03  0.25765375466E+03  0.12700000000E+01 0. -1.
         25    2    1    2    0    0  0.00000000000E+00  0.00000000000E+00 -0.24251956377E+03  0.27283801967E+03  0.12499938466E+03 0.  0.
    9000005    1    3    3    0    0 -0.27157827512E+02 -0.53507526344E+02 -0.15935479022E+03  0.17028080378E+03  0.10000000000E+01 0.  0.
    9000005    1    3    3    0    0  0.27157827512E+02  0.53507526344E+02 -0.83164773546E+02  0.10255721588E+03  0.10000000000E+01 0.  0.
<mgrwt>
<rscale>  0 0.12499938E+03</rscale>
<asrwt>0</asrwt>
<pdfrwt beam="2">  1        4 0.39642888E-01 0.12499938E+03</pdfrwt>
<pdfrwt beam="1">  1       -4 0.23321891E-02 0.12499938E+03</pdfrwt>
<totfact> 0.79138501E+03</totfact>
</mgrwt>
</event>
<event>
 5    1  0.3217527E-002  0.1249869E+03  0.7818608E-02  0.1235090E+00
          4   -1    0    0  501    0  0.00000000000E+00  0.00000000000E+00  0.50285874166E+02  0.50301908916E+02  0.12700000000E+01 0. -1.
         -4   -1    0    0    0  501 -0.00000000000E+00 -0.00000000000E+00 -0.77630993861E+02  0.77641381414E+02  0.12700000000E+01 0. -1.
         25    2    1    2    0    0  0.00000000000E+00  0.00000000000E+00 -0.27345119696E+02  0.12794329033E+03  0.12498691919E+03 0.  0.
    9000005    1    3    3    0    0  0.19622433308E+02  0.26794706975E+02  0.40507979820E+02  0.52391723009E+02  0.10000000000E+01 0.  0.
    9000005    1    3    3    0    0 -0.19622433308E+02 -0.26794706975E+02 -0.67853099516E+02  0.75551567321E+02  0.10000000000E+01 0.  0.
<mgrwt>
<rscale>  0 0.12498692E+03</rscale>
<asrwt>0</asrwt>
<pdfrwt beam="1">  1        4 0.77383208E-02 0.12498692E+03</pdfrwt>
<pdfrwt beam="2">  1       -4 0.11945262E-01 0.12498692E+03</pdfrwt>
<totfact> 0.10391781E+04</totfact>
</mgrwt>
</event>
<event>
 5    1  0.3217527E-002  0.1249767E+03  0.7818608E-02  0.1235106E+00
          4   -1    0    0  501    0  0.00000000000E+00  0.00000000000E+00  0.95209612558E+02  0.95218082439E+02  0.12700000000E+01 0.  1.
         -4   -1    0    0    0  501 -0.00000000000E+00 -0.00000000000E+00 -0.40992446756E+02  0.41012115174E+02  0.12700000000E+01 0.  1.
         25    2    1    2    0    0  0.00000000000E+00  0.00000000000E+00  0.54217165802E+02  0.13623019761E+03  0.12497666052E+03 0.  0.
    9000005    1    3    3    0    0  0.15159490134E+02  0.40976228822E+02  0.75795053873E+02  0.87491437645E+02  0.10000000000E+01 0.  0.
    9000005    1    3    3    0    0 -0.15159490134E+02 -0.40976228822E+02 -0.21577888071E+02  0.48738759968E+02  0.10000000000E+01 0.  0.
<mgrwt>
<rscale>  0 0.12497666E+03</rscale>
<asrwt>0</asrwt>
<pdfrwt beam="1">  1        4 0.14649797E-01 0.12497666E+03</pdfrwt>
<pdfrwt beam="2">  1       -4 0.63086948E-02 0.12497666E+03</pdfrwt>
<totfact> 0.10217582E+04</totfact>
</mgrwt>
</event>
<event>
 5    1  0.3217527E-002  0.1249915E+03  0.7818608E-02  0.1235083E+00
         -4   -1    0    0    0  501 -0.00000000000E+00  0.00000000000E+00  0.12523740386E+03  0.12524384306E+03  0.12700000000E+01 0. -1.
          4   -1    0    0  501    0  0.00000000000E+00 -0.00000000000E+00 -0.31166324200E+02  0.31192189152E+02  0.12700000000E+01 0. -1.
         25    2    1    2    0    0  0.00000000000E+00  0.00000000000E+00  0.94071079660E+02  0.15643603222E+03  0.12499145630E+03 0.  0.
    9000005    1    3    3    0    0 -0.35445359856E+02  0.12441432764E+02  0.10953349206E+03  0.11580046920E+03  0.10000000000E+01 0.  0.
    9000005    1    3    3    0    0  0.35445359856E+02 -0.12441432764E+02 -0.15462412397E+02  0.40635563017E+02  0.10000000000E+01 0.  0.
<mgrwt>
<rscale>  0 0.12499146E+03</rscale>
<asrwt>0</asrwt>
<pdfrwt beam="2">  1        4 0.47973041E-02 0.12499146E+03</pdfrwt>
<pdfrwt beam="1">  1       -4 0.19269778E-01 0.12499146E+03</pdfrwt>
<totfact> 0.98053160E+03</totfact>
</mgrwt>
</event>
<event>
 5    1  0.3217527E-002  0.1249998E+03  0.7818608E-02  0.1235070E+00
          4   -1    0    0  501    0  0.00000000000E+00  0.00000000000E+00  0.54507285089E+02  0.54522078352E+02  0.12700000000E+01 0. -1.
         -4   -1    0    0    0  501 -0.00000000000E+00 -0.00000000000E+00 -0.71634344823E+02  0.71645601807E+02  0.12700000000E+01 0. -1.
         25    2    1    2    0    0  0.00000000000E+00  0.00000000000E+00 -0.17127059734E+02  0.12616768016E+03  0.12499978937E+03 0.  0.
    9000005    1    3    3    0    0 -0.93992412844E+01 -0.47674034216E+02 -0.48225418645E+02  0.68467877714E+02  0.10000000000E+01 0.  0.
    9000005    1    3    3    0    0  0.93992412844E+01  0.47674034216E+02  0.31098358911E+02  0.57699802445E+02  0.10000000000E+01 0.  0.
<mgrwt>
<rscale>  0 0.12499979E+03</rscale>
<asrwt>0</asrwt>
<pdfrwt beam="1">  1        4 0.83877400E-02 0.12499979E+03</pdfrwt>
<pdfrwt beam="2">  1       -4 0.11022672E-01 0.12499979E+03</pdfrwt>
<totfact> 0.10427335E+04</totfact>
</mgrwt>
</event>
<event>
 5    1  0.3217527E-002  0.1249934E+03  0.7818608E-02  0.1235080E+00
         -4   -1    0    0    0  501 -0.00000000000E+00  0.00000000000E+00  0.75298947187E+01  0.76362434793E+01  0.12700000000E+01 0. -1.
          4   -1    0    0  501    0  0.00000000000E+00 -0.00000000000E+00 -0.51496626582E+03  0.51496783184E+03  0.12700000000E+01 0. -1.
         25    2    1    2    0    0  0.00000000000E+00  0.00000000000E+00 -0.50743637110E+03  0.52260407532E+03  0.12499339513E+03 0.  0.
    9000005    1    3    3    0    0 -0.43438097135E+02  0.37925169693E+02 -0.35438093948E+03  0.35904322448E+03  0.10000000000E+01 0.  0.
    9000005    1    3    3    0    0  0.43438097135E+02 -0.37925169693E+02 -0.15305543162E+03  0.16356085084E+03  0.10000000000E+01 0.  0.
<mgrwt>
<rscale>  0 0.12499340E+03</rscale>
<asrwt>0</asrwt>
<pdfrwt beam="2">  1        4 0.79233853E-01 0.12499340E+03</pdfrwt>
<pdfrwt beam="1">  1       -4 0.11667469E-02 0.12499340E+03</pdfrwt>
<totfact> 0.54160123E+03</totfact>
</mgrwt>
</event>
<event>
 5    1  0.3217527E-002  0.1249991E+03  0.7818608E-02  0.1235071E+00
          4   -1    0    0  501    0  0.00000000000E+00  0.00000000000E+00  0.14611096132E+03  0.14611648065E+03  0.12700000000E+01 0. -1.
         -4   -1    0    0    0  501 -0.00000000000E+00 -0.00000000000E+00 -0.26713326873E+02  0.26743498886E+02  0.12700000000E+01 0. -1.
         25    2    1    2    0    0  0.00000000000E+00  0.00000000000E+00  0.11939763444E+03  0.17285997953E+03  0.12499910965E+03 0.  0.
    9000005    1    3    3    0    0  0.60085534197E+01  0.50040849366E+02  0.86066100946E+01  0.51139642713E+02  0.10000000000E+01 0.  0.
    9000005    1    3    3    0    0 -0.60085534197E+01 -0.50040849366E+02  0.11079102435E+03  0.12172033682E+03  0.10000000000E+01 0.  0.
<mgrwt>
<rscale>  0 0.12499911E+03</rscale>
<asrwt>0</asrwt>
<pdfrwt beam="1">  1        4 0.22481355E-01 0.12499911E+03</pdfrwt>
<pdfrwt beam="2">  1       -4 0.41124881E-02 0.12499911E+03</pdfrwt>
<totfact> 0.94920144E+03</totfact>
</mgrwt>
</event>
<event>
 5    1  0.3217527E-002  0.1250072E+03  0.7818608E-02  0.1235058E+00
          4   -1    0    0  501    0  0.00000000000E+00  0.00000000000E+00  0.10711340496E+02  0.10786367100E+02  0.12700000000E+01 0. -1.
         -4   -1    0    0    0  501 -0.00000000000E+00 -0.00000000000E+00 -0.36337653280E+03  0.36337875212E+03  0.12700000000E+01 0. -1.
         25    2    1    2    0    0  0.00000000000E+00  0.00000000000E+00 -0.35266519231E+03  0.37416511922E+03  0.12500719409E+03 0.  0.
    9000005    1    3    3    0    0 -0.13877202277E+02 -0.58424118795E+02 -0.12451175692E+03  0.13823940108E+03  0.10000000000E+01 0.  0.
    9000005    1    3    3    0    0  0.13877202277E+02  0.58424118795E+02 -0.22815343539E+03  0.23592571814E+03  0.10000000000E+01 0.  0.
<mgrwt>
<rscale>  0 0.12500719E+03</rscale>
<asrwt>0</asrwt>
<pdfrwt beam="1">  1        4 0.16538408E-02 0.12500719E+03</pdfrwt>
<pdfrwt beam="2">  1       -4 0.55910014E-01 0.12500719E+03</pdfrwt>
<totfact> 0.67134756E+03</totfact>
</mgrwt>
</event>
<event>
 5    1  0.3217527E-002  0.1249999E+03  0.7818608E-02  0.1235069E+00
         -4   -1    0    0    0  501 -0.00000000000E+00  0.00000000000E+00  0.69719455722E+03  0.69719571393E+03  0.12700000000E+01 0.  1.
          4   -1    0    0  501    0  0.00000000000E+00 -0.00000000000E+00 -0.55296564267E+01  0.56736231984E+01  0.12700000000E+01 0.  1.
         25    2    1    2    0    0  0.00000000000E+00  0.00000000000E+00  0.69166490079E+03  0.70286933712E+03  0.12499988032E+03 0.  0.
    9000005    1    3    3    0    0  0.40703366880E+02 -0.87648867400E+01  0.83796766769E+02  0.93576094361E+02  0.10000000000E+01 0.  0.
    9000005    1    3    3    0    0 -0.40703366880E+02  0.87648867400E+01  0.60786813402E+03  0.60929324276E+03  0.10000000000E+01 0.  0.
<mgrwt>
<rscale>  0 0.12499988E+03</rscale>
<asrwt>0</asrwt>
<pdfrwt beam="2">  1        4 0.86188010E-03 0.12499988E+03</pdfrwt>
<pdfrwt beam="1">  1       -4 0.10727182E+00 0.12499988E+03</pdfrwt>
<totfact> 0.42935784E+03</totfact>
</mgrwt>
</event>
<event>
 5    1  0.3217527E-002  0.1250021E+03  0.7818608E-02  0.1235066E+00
         -4   -1    0    0    0  501 -0.00000000000E+00  0.00000000000E+00  0.15444739999E+02  0.15496867220E+02  0.12700000000E+01 0.  1.
          4   -1    0    0  501    0  0.00000000000E+00 -0.00000000000E+00 -0.25244667162E+03  0.25244986613E+03  0.12700000000E+01 0.  1.
         25    2    1    2    0    0  0.00000000000E+00  0.00000000000E+00 -0.23700193162E+03  0.26794673335E+03  0.12500214528E+03 0.  0.
    9000005    1    3    3    0    0  0.23135132634E+02 -0.15550662918E+02  0.13901616167E+01  0.27928301568E+02  0.10000000000E+01 0.  0.
    9000005    1    3    3    0    0 -0.23135132634E+02  0.15550662918E+02 -0.23839209323E+03  0.24001843178E+03  0.10000000000E+01 0.  0.
<mgrwt>
<rscale>  0 0.12500215E+03</rscale>
<asrwt>0</asrwt>
<pdfrwt beam="2">  1        4 0.38842202E-01 0.12500215E+03</pdfrwt>
<pdfrwt beam="1">  1       -4 0.23803695E-02 0.12500215E+03</pdfrwt>
<totfact> 0.79799817E+03</totfact>
</mgrwt>
</event>
<event>
 5    1  0.3217527E-002  0.1249953E+03  0.7818608E-02  0.1235077E+00
         -4   -1    0    0    0  501 -0.00000000000E+00  0.00000000000E+00  0.18166890013E+03  0.18167333920E+03  0.12700000000E+01 0.  1.
          4   -1    0    0  501    0  0.00000000000E+00 -0.00000000000E+00 -0.21476951120E+02  0.21514467909E+02  0.12700000000E+01 0.  1.
         25    2    1    2    0    0  0.00000000000E+00  0.00000000000E+00  0.16019194901E+03  0.20318780710E+03  0.12499529762E+03 0.  0.
    9000005    1    3    3    0    0 -0.47726924978E+02  0.37020661701E+02  0.10613379685E+03  0.12212195378E+03  0.10000000000E+01 0.  0.
    9000005    1    3    3    0    0  0.47726924978E+02 -0.37020661701E+02  0.54058152161E+02  0.81065853327E+02  0.10000000000E+01 0.  0.
<mgrwt>
<rscale>  0 0.12499530E+03</rscale>
<asrwt>0</asrwt>
<pdfrwt beam="2">  1        4 0.33073737E-02 0.12499530E+03</pdfrwt>
<pdfrwt beam="1">  1       -4 0.27952289E-01 0.12499530E+03</pdfrwt>
<totfact> 0.89610053E+03</totfact>
</mgrwt>
</event>
<event>
 5    1  0.3217527E-002  0.1250006E+03  0.7818608E-02  0.1235068E+00
         -4   -1    0    0    0  501 -0.00000000000E+00  0.00000000000E+00  0.20073810663E+02  0.20113944778E+02  0.12700000000E+01 0.  1.
          4   -1    0    0  501    0  0.00000000000E+00 -0.00000000000E+00 -0.19435970392E+03  0.19436385314E+03  0.12700000000E+01 0.  1.
         25    2    1    2    0    0  0.00000000000E+00  0.00000000000E+00 -0.17428589326E+03  0.21447779792E+03  0.12500061284E+03 0.  0.
    9000005    1    3    3    0    0  0.58916728273E+02  0.12003440471E+02 -0.57922435749E+02  0.83494143607E+02  0.10000000000E+01 0.  0.
    9000005    1    3    3    0    0 -0.58916728273E+02 -0.12003440471E+02 -0.11636345751E+03  0.13098365431E+03  0.10000000000E+01 0.  0.
<mgrwt>
<rscale>  0 0.12500061E+03</rscale>
<asrwt>0</asrwt>
<pdfrwt beam="2">  1        4 0.29904898E-01 0.12500061E+03</pdfrwt>
<pdfrwt beam="1">  1       -4 0.30916851E-02 0.12500061E+03</pdfrwt>
<totfact> 0.87748578E+03</totfact>
</mgrwt>
</event>
<event>
 5    1  0.3217527E-002  0.1249975E+03  0.7818608E-02  0.1235073E+00
         -4   -1    0    0    0  501 -0.00000000000E+00  0.00000000000E+00  0.11767959037E+03  0.11768644310E+03  0.12700000000E+01 0.  1.
          4   -1    0    0  501    0  0.00000000000E+00 -0.00000000000E+00 -0.33172621651E+02  0.33196923460E+02  0.12700000000E+01 0.  1.
         25    2    1    2    0    0  0.00000000000E+00  0.00000000000E+00  0.84506968723E+02  0.15088336656E+03  0.12499745015E+03 0.  0.
    9000005    1    3    3    0    0  0.30909429337E+02 -0.12839385299E+02  0.10595370839E+03  0.11111899458E+03  0.10000000000E+01 0.  0.
    9000005    1    3    3    0    0 -0.30909429337E+02  0.12839385299E+02 -0.21446739662E+02  0.39764371980E+02  0.10000000000E+01 0.  0.
<mgrwt>
<rscale>  0 0.12499745E+03</rscale>
<asrwt>0</asrwt>
<pdfrwt beam="2">  1        4 0.51058769E-02 0.12499745E+03</pdfrwt>
<pdfrwt beam="1">  1       -4 0.18106948E-01 0.12499745E+03</pdfrwt>
<totfact> 0.99133592E+03</totfact>
</mgrwt>
</event>
<event>
 5    1  0.3217527E-002  0.1250071E+03  0.7818608E-02  0.1235058E+00
         -4   -1    0    0    0  501 -0.00000000000E+00  0.00000000000E+00  0.12927579556E+02  0.12989811899E+02  0.12700000000E+01 0.  1.
          4   -1    0    0  501    0  0.00000000000E+00 -0.00000000000E+00 -0.30140899293E+03  0.30141166852E+03  0.12700000000E+01 0.  1.
         25    2    1    2    0    0  0.00000000000E+00  0.00000000000E+00 -0.28848141338E+03  0.31440148042E+03  0.12500705991E+03 0.  0.
    9000005    1    3    3    0    0  0.98496772784E+01 -0.42650299882E+02 -0.32055426221E+02  0.54264302932E+02  0.10000000000E+01 0.  0.
    9000005    1    3    3    0    0 -0.98496772784E+01  0.42650299882E+02 -0.25642598716E+03  0.26013717749E+03  0.10000000000E+01 0.  0.
<mgrwt>
<rscale>  0 0.12500706E+03</rscale>
<asrwt>0</asrwt>
<pdfrwt beam="2">  1        4 0.46375602E-01 0.12500706E+03</pdfrwt>
<pdfrwt beam="1">  1       -4 0.19938515E-02 0.12500706E+03</pdfrwt>
<totfact> 0.73815426E+03</totfact>
</mgrwt>
</event>
<event>
 5    1  0.3217527E-002  0.1250015E+03  0.7818608E-02  0.1235067E+00
         -4   -1    0    0    0  501 -0.00000000000E+00  0.00000000000E+00  0.12983720188E+04  0.12983726399E+04  0.12700000000E+01 0. -1.
          4   -1    0    0  501    0  0.00000000000E+00 -0.00000000000E+00 -0.28739761535E+01  0.31420755769E+01  0.12700000000E+01 0. -1.
         25    2    1    2    0    0  0.00000000000E+00  0.00000000000E+00  0.12954980426E+04  0.13015147155E+04  0.12500150465E+03 0.  0.
    9000005    1    3    3    0    0 -0.40270705427E+02  0.47486349585E+02  0.70349056221E+03  0.70624121533E+03  0.10000000000E+01 0.  0.
    9000005    1    3    3    0    0  0.40270705427E+02 -0.47486349585E+02  0.59200748043E+03  0.59527350016E+03  0.10000000000E+01 0.  0.
<mgrwt>
<rscale>  0 0.12500150E+03</rscale>
<asrwt>0</asrwt>
<pdfrwt beam="2">  1        4 0.46281991E-03 0.12500150E+03</pdfrwt>
<pdfrwt beam="1">  1       -4 0.19977068E+00 0.12500150E+03</pdfrwt>
<totfact> 0.22191992E+03</totfact>
</mgrwt>
</event>
<event>
 5    1  0.3217527E-002  0.1249984E+03  0.7818608E-02  0.1235072E+00
         -4   -1    0    0    0  501 -0.00000000000E+00  0.00000000000E+00  0.91001336894E+02  0.91010198420E+02  0.12700000000E+01 0.  1.
          4   -1    0    0  501    0  0.00000000000E+00 -0.00000000000E+00 -0.42903713131E+02  0.42922505756E+02  0.12700000000E+01 0.  1.
         25    2    1    2    0    0  0.00000000000E+00  0.00000000000E+00  0.48097623763E+02  0.13393270418E+03  0.12499835133E+03 0.  0.
    9000005    1    3    3    0    0  0.16998758566E+02  0.95030067108E+01 -0.39574495460E+02  0.44118087223E+02  0.10000000000E+01 0.  0.
    9000005    1    3    3    0    0 -0.16998758566E+02 -0.95030067108E+01  0.87672119223E+02  0.89814616953E+02  0.10000000000E+01 0.  0.
<mgrwt>
<rscale>  0 0.12499835E+03</rscale>
<asrwt>0</asrwt>
<pdfrwt beam="2">  1        4 0.66026986E-02 0.12499835E+03</pdfrwt>
<pdfrwt beam="1">  1       -4 0.14002333E-01 0.12499835E+03</pdfrwt>
<totfact> 0.10260998E+04</totfact>
</mgrwt>
</event>
<event>
 5    1  0.3217527E-002  0.1250060E+03  0.7818608E-02  0.1235060E+00
          4   -1    0    0  501    0  0.00000000000E+00  0.00000000000E+00  0.20596299030E+02  0.20635416975E+02  0.12700000000E+01 0. -1.
         -4   -1    0    0    0  501 -0.00000000000E+00 -0.00000000000E+00 -0.18945493274E+03  0.18945918937E+03  0.12700000000E+01 0. -1.
         25    2    1    2    0    0  0.00000000000E+00  0.00000000000E+00 -0.16885863371E+03  0.21009460635E+03  0.12500602161E+03 0.  0.
    9000005    1    3    3    0    0  0.24555430129E+02  0.30001302312E+02 -0.16680951157E+03  0.17125846093E+03  0.10000000000E+01 0.  0.
    9000005    1    3    3    0    0 -0.24555430129E+02 -0.30001302312E+02 -0.20491221314E+01  0.38836145416E+02  0.10000000000E+01 0.  0.
<mgrwt>
<rscale>  0 0.12500602E+03</rscale>
<asrwt>0</asrwt>
<pdfrwt beam="1">  1        4 0.31719980E-02 0.12500602E+03</pdfrwt>
<pdfrwt beam="2">  1       -4 0.29150248E-01 0.12500602E+03</pdfrwt>
<totfact> 0.88448526E+03</totfact>
</mgrwt>
</event>
<event>
 5    1  0.3217527E-002  0.1249939E+03  0.7818608E-02  0.1235079E+00
         -4   -1    0    0    0  501 -0.00000000000E+00  0.00000000000E+00  0.42031080763E+02  0.42050263377E+02  0.12700000000E+01 0. -1.
          4   -1    0    0  501    0  0.00000000000E+00 -0.00000000000E+00 -0.92883333094E+02  0.92892015086E+02  0.12700000000E+01 0. -1.
         25    2    1    2    0    0  0.00000000000E+00  0.00000000000E+00 -0.50852252331E+02  0.13494227846E+03  0.12499386765E+03 0.  0.
    9000005    1    3    3    0    0 -0.48679777492E+02  0.39048497541E+02 -0.28901142306E+02  0.68780679871E+02  0.10000000000E+01 0.  0.
    9000005    1    3    3    0    0  0.48679777492E+02 -0.39048497541E+02 -0.21951110025E+02  0.66161598592E+02  0.10000000000E+01 0.  0.
<mgrwt>
<rscale>  0 0.12499387E+03</rscale>
<asrwt>0</asrwt>
<pdfrwt beam="2">  1        4 0.14291887E-01 0.12499387E+03</pdfrwt>
<pdfrwt beam="1">  1       -4 0.64684636E-02 0.12499387E+03</pdfrwt>
<totfact> 0.10240704E+04</totfact>
</mgrwt>
</event>
<event>
 5    1  0.3217527E-002  0.1250016E+03  0.7818608E-02  0.1235067E+00
         -4   -1    0    0    0  501 -0.00000000000E+00  0.00000000000E+00  0.51037184039E+01  0.52593575222E+01  0.12700000000E+01 0. -1.
          4   -1    0    0  501    0  0.00000000000E+00 -0.00000000000E+00 -0.75374218809E+03  0.75374325801E+03  0.12700000000E+01 0. -1.
         25    2    1    2    0    0  0.00000000000E+00  0.00000000000E+00 -0.74863846968E+03  0.75900261554E+03  0.12500164840E+03 0.  0.
    9000005    1    3    3    0    0  0.17141322587E+02  0.52561071684E+02 -0.19741182053E+03  0.20500955608E+03  0.10000000000E+01 0.  0.
    9000005    1    3    3    0    0 -0.17141322587E+02 -0.52561071684E+02 -0.55122664915E+03  0.55399305946E+03  0.10000000000E+01 0.  0.
<mgrwt>
<rscale>  0 0.12500165E+03</rscale>
<asrwt>0</asrwt>
<pdfrwt beam="2">  1        4 0.11597230E+00 0.12500165E+03</pdfrwt>
<pdfrwt beam="1">  1       -4 0.79724259E-03 0.12500165E+03</pdfrwt>
<totfact> 0.40145780E+03</totfact>
</mgrwt>
</event>
<event>
 5    1  0.3217527E-002  0.1250014E+03  0.7818608E-02  0.1235067E+00
         -4   -1    0    0    0  501 -0.00000000000E+00  0.00000000000E+00  0.73127121163E+03  0.73127231444E+03  0.12700000000E+01 0.  1.
          4   -1    0    0  501    0  0.00000000000E+00 -0.00000000000E+00 -0.52652380716E+01  0.54162378041E+01  0.12700000000E+01 0.  1.
         25    2    1    2    0    0  0.00000000000E+00  0.00000000000E+00  0.72600597356E+03  0.73668855224E+03  0.12500139742E+03 0.  0.
    9000005    1    3    3    0    0 -0.28751572994E+02  0.27657568321E+01  0.36406555719E+02  0.46483756946E+02  0.10000000000E+01 0.  0.
    9000005    1    3    3    0    0  0.28751572994E+02 -0.27657568321E+01  0.68959941784E+03  0.69020479530E+03  0.10000000000E+01 0.  0.
<mgrwt>
<rscale>  0 0.12500140E+03</rscale>
<asrwt>0</asrwt>
<pdfrwt beam="2">  1        4 0.82173728E-03 0.12500140E+03</pdfrwt>
<pdfrwt beam="1">  1       -4 0.11251490E+00 0.12500140E+03</pdfrwt>
<totfact> 0.41217820E+03</totfact>
</mgrwt>
</event>
<event>
 5    1  0.3217527E-002  0.1249995E+03  0.7818608E-02  0.1235070E+00
          4   -1    0    0  501    0  0.00000000000E+00  0.00000000000E+00  0.35631966470E+02  0.35654592053E+02  0.12700000000E+01 0.  1.
         -4   -1    0    0    0  501 -0.00000000000E+00 -0.00000000000E+00 -0.10956577294E+03  0.10957313311E+03  0.12700000000E+01 0.  1.
         25    2    1    2    0    0  0.00000000000E+00  0.00000000000E+00 -0.73933806470E+02  0.14522772516E+03  0.12499953767E+03 0.  0.
    9000005    1    3    3    0    0 -0.23607393965E+02 -0.19528952863E+02  0.26312977312E+02  0.40398784942E+02  0.10000000000E+01 0.  0.
    9000005    1    3    3    0    0  0.23607393965E+02  0.19528952863E+02 -0.10024678378E+03  0.10482894022E+03  0.10000000000E+01 0.  0.
<mgrwt>
<rscale>  0 0.12499954E+03</rscale>
<asrwt>0</asrwt>
<pdfrwt beam="1">  1        4 0.54841476E-02 0.12499954E+03</pdfrwt>
<pdfrwt beam="2">  1       -4 0.16858579E-01 0.12499954E+03</pdfrwt>
<totfact> 0.10026468E+04</totfact>
</mgrwt>
</event>
<event>
 5    1  0.3217527E-002  0.1250032E+03  0.7818608E-02  0.1235064E+00
          4   -1    0    0  501    0  0.00000000000E+00  0.00000000000E+00  0.29882778767E+03  0.29883048637E+03  0.12700000000E+01 0.  1.
         -4   -1    0    0    0  501 -0.00000000000E+00 -0.00000000000E+00 -0.13038979421E+02  0.13100682591E+02  0.12700000000E+01 0.  1.
         25    2    1    2    0    0  0.00000000000E+00  0.00000000000E+00  0.28578880825E+03  0.31193116896E+03  0.12500324495E+03 0.  0.
    9000005    1    3    3    0    0  0.33524952035E+02 -0.26070173416E+02  0.28490438439E+02  0.51149598565E+02  0.10000000000E+01 0.  0.
    9000005    1    3    3    0    0 -0.33524952035E+02  0.26070173416E+02  0.25729836981E+03  0.26078157039E+03  0.10000000000E+01 0.  0.
<mgrwt>
<rscale>  0 0.12500324E+03</rscale>
<asrwt>0</asrwt>
<pdfrwt beam="1">  1        4 0.45978458E-01 0.12500324E+03</pdfrwt>
<pdfrwt beam="2">  1       -4 0.20109509E-02 0.12500324E+03</pdfrwt>
<totfact> 0.74120843E+03</totfact>
</mgrwt>
</event>
<event>
 5    1  0.3217527E-002  0.1250003E+03  0.7818608E-02  0.1235069E+00
          4   -1    0    0  501    0  0.00000000000E+00  0.00000000000E+00  0.20215873487E+02  0.20255726124E+02  0.12700000000E+01 0.  1.
         -4   -1    0    0    0  501 -0.00000000000E+00 -0.00000000000E+00 -0.19299554854E+03  0.19299972709E+03  0.12700000000E+01 0.  1.
         25    2    1    2    0    0  0.00000000000E+00  0.00000000000E+00 -0.17277967505E+03  0.21325545321E+03  0.12500028885E+03 0.  0.
    9000005    1    3    3    0    0 -0.77357567285E+01 -0.56913882509E+01  0.18957722270E+02  0.21275080871E+02  0.10000000000E+01 0.  0.
    9000005    1    3    3    0    0  0.77357567285E+01  0.56913882509E+01 -0.19173739732E+03  0.19198037234E+03  0.10000000000E+01 0.  0.
<mgrwt>
<rscale>  0 0.12500029E+03</rscale>
<asrwt>0</asrwt>
<pdfrwt beam="1">  1        4 0.31135215E-02 0.12500029E+03</pdfrwt>
<pdfrwt beam="2">  1       -4 0.29695009E-01 0.12500029E+03</pdfrwt>
<totfact> 0.87946400E+03</totfact>
</mgrwt>
</event>
<event>
 5    1  0.3217527E-002  0.1250004E+03  0.7818608E-02  0.1235069E+00
         -4   -1    0    0    0  501 -0.00000000000E+00  0.00000000000E+00  0.10864674422E+02  0.10938649382E+02  0.12700000000E+01 0.  1.
          4   -1    0    0  501    0  0.00000000000E+00 -0.00000000000E+00 -0.35824406625E+03  0.35824631736E+03  0.12700000000E+01 0.  1.
         25    2    1    2    0    0  0.00000000000E+00  0.00000000000E+00 -0.34737939183E+03  0.36918496674E+03  0.12500039121E+03 0.  0.
    9000005    1    3    3    0    0 -0.14089397792E+02  0.28891979669E+02 -0.33196972680E+03  0.33352384792E+03  0.10000000000E+01 0.  0.
    9000005    1    3    3    0    0  0.14089397792E+02 -0.28891979669E+02 -0.15409665022E+02  0.35661118819E+02  0.10000000000E+01 0.  0.
<mgrwt>
<rscale>  0 0.12500039E+03</rscale>
<asrwt>0</asrwt>
<pdfrwt beam="2">  1        4 0.55120326E-01 0.12500039E+03</pdfrwt>
<pdfrwt beam="1">  1       -4 0.16773522E-02 0.12500039E+03</pdfrwt>
<totfact> 0.67663710E+03</totfact>
</mgrwt>
</event>
<event>
 5    1  0.3217527E-002  0.1250039E+03  0.7818608E-02  0.1235063E+00
         -4   -1    0    0    0  501 -0.00000000000E+00  0.00000000000E+00  0.23969109312E+02  0.24002731120E+02  0.12700000000E+01 0.  1.
          4   -1    0    0  501    0  0.00000000000E+00 -0.00000000000E+00 -0.16283000673E+03  0.16283495937E+03  0.12700000000E+01 0.  1.
         25    2    1    2    0    0  0.00000000000E+00  0.00000000000E+00 -0.13886089742E+03  0.18683769049E+03  0.12500389496E+03 0.  0.
    9000005    1    3    3    0    0  0.22885826966E+02  0.41126317255E+02 -0.13088164503E+03  0.13909040245E+03  0.10000000000E+01 0.  0.
    9000005    1    3    3    0    0 -0.22885826966E+02 -0.41126317255E+02 -0.79792523925E+01  0.47747288044E+02  0.10000000000E+01 0.  0.
<mgrwt>
<rscale>  0 0.12500389E+03</rscale>
<asrwt>0</asrwt>
<pdfrwt beam="2">  1        4 0.25053737E-01 0.12500389E+03</pdfrwt>
<pdfrwt beam="1">  1       -4 0.36905226E-02 0.12500389E+03</pdfrwt>
<totfact> 0.92392412E+03</totfact>
</mgrwt>
</event>
<event>
 5    1  0.3217527E-002  0.1250038E+03  0.7818608E-02  0.1235063E+00
          4   -1    0    0  501    0  0.00000000000E+00  0.00000000000E+00  0.80776649047E+01  0.81768924607E+01  0.12700000000E+01 0.  1.
         -4   -1    0    0    0  501 -0.00000000000E+00 -0.00000000000E+00 -0.48056361497E+03  0.48056529310E+03  0.12700000000E+01 0.  1.
         25    2    1    2    0    0  0.00000000000E+00  0.00000000000E+00 -0.47248595007E+03  0.48874218556E+03  0.12500380370E+03 0.  0.
    9000005    1    3    3    0    0 -0.90242960623E+01 -0.49461771537E+02 -0.38135903597E+03  0.38466039447E+03  0.10000000000E+01 0.  0.
    9000005    1    3    3    0    0  0.90242960623E+01  0.49461771537E+02 -0.91126914101E+02  0.10408179109E+03  0.10000000000E+01 0.  0.
<mgrwt>
<rscale>  0 0.12500380E+03</rscale>
<asrwt>0</asrwt>
<pdfrwt beam="1">  1        4 0.12504800E-02 0.12500380E+03</pdfrwt>
<pdfrwt beam="2">  1       -4 0.73940604E-01 0.12500380E+03</pdfrwt>
<totfact> 0.56743799E+03</totfact>
</mgrwt>
</event>
<event>
 5    1  0.3217527E-002  0.1249923E+03  0.7818608E-02  0.1235081E+00
         -4   -1    0    0    0  501 -0.00000000000E+00  0.00000000000E+00  0.11454082886E+03  0.11454786936E+03  0.12700000000E+01 0.  1.
          4   -1    0    0  501    0  0.00000000000E+00 -0.00000000000E+00 -0.34079436142E+02  0.34103091763E+02  0.12700000000E+01 0.  1.
         25    2    1    2    0    0  0.00000000000E+00  0.00000000000E+00  0.80461392715E+02  0.14865096112E+03  0.12499228986E+03 0.  0.
    9000005    1    3    3    0    0 -0.43753997120E+02 -0.72062129357E+01 -0.12130450576E+02  0.45983579679E+02  0.10000000000E+01 0.  0.
    9000005    1    3    3    0    0  0.43753997120E+02  0.72062129357E+01  0.92591843291E+02  0.10266738145E+03  0.10000000000E+01 0.  0.
<mgrwt>
<rscale>  0 0.12499229E+03</rscale>
<asrwt>0</asrwt>
<pdfrwt beam="2">  1        4 0.52453515E-02 0.12499229E+03</pdfrwt>
<pdfrwt beam="1">  1       -4 0.17624027E-01 0.12499229E+03</pdfrwt>
<totfact> 0.99590574E+03</totfact>
</mgrwt>
</event>
<event>
 5    1  0.3217527E-002  0.1249967E+03  0.7818608E-02  0.1235074E+00
          4   -1    0    0  501    0  0.00000000000E+00  0.00000000000E+00  0.36889317479E+03  0.36889536092E+03  0.12700000000E+01 0.  1.
         -4   -1    0    0    0  501 -0.00000000000E+00 -0.00000000000E+00 -0.10548242060E+02  0.10624420481E+02  0.12700000000E+01 0.  1.
         25    2    1    2    0    0  0.00000000000E+00  0.00000000000E+00  0.35834493273E+03  0.37951978140E+03  0.12499669460E+03 0.  0.
    9000005    1    3    3    0    0  0.47671550377E+01 -0.48018258717E+02  0.58615653808E+02  0.75929400161E+02  0.10000000000E+01 0.  0.
    9000005    1    3    3    0    0 -0.47671550377E+01  0.48018258717E+02  0.29972927892E+03  0.30359038124E+03  0.10000000000E+01 0.  0.
<mgrwt>
<rscale>  0 0.12499669E+03</rscale>
<asrwt>0</asrwt>
<pdfrwt beam="1">  1        4 0.56758823E-01 0.12499669E+03</pdfrwt>
<pdfrwt beam="2">  1       -4 0.16288346E-02 0.12499669E+03</pdfrwt>
<totfact> 0.66599475E+03</totfact>
</mgrwt>
</event>
<event>
 5    1  0.3217527E-002  0.1250006E+03  0.7818608E-02  0.1235068E+00
          4   -1    0    0  501    0  0.00000000000E+00  0.00000000000E+00  0.55256268966E+02  0.55270861763E+02  0.12700000000E+01 0. -1.
         -4   -1    0    0    0  501 -0.00000000000E+00 -0.00000000000E+00 -0.70664364934E+02  0.70675776412E+02  0.12700000000E+01 0. -1.
         25    2    1    2    0    0  0.00000000000E+00  0.00000000000E+00 -0.15408095968E+02  0.12594663818E+03  0.12500058498E+03 0.  0.
    9000005    1    3    3    0    0  0.49146392322E+02 -0.27066415427E+02 -0.35431917077E+02  0.66365499095E+02  0.10000000000E+01 0.  0.
    9000005    1    3    3    0    0 -0.49146392322E+02  0.27066415427E+02  0.20023821109E+02  0.59581139081E+02  0.10000000000E+01 0.  0.
<mgrwt>
<rscale>  0 0.12500058E+03</rscale>
<asrwt>0</asrwt>
<pdfrwt beam="1">  1        4 0.85029647E-02 0.12500058E+03</pdfrwt>
<pdfrwt beam="2">  1       -4 0.10873441E-01 0.12500058E+03</pdfrwt>
<totfact> 0.10431989E+04</totfact>
</mgrwt>
</event>
<event>
 4    1  0.3217527E-002  0.1251563E+03  0.7818608E-02  0.1234825E+00
         -4   -1    0    0    0  501 -0.00000000000E+00  0.00000000000E+00  0.46263290557E+02  0.46280719021E+02  0.12700000000E+01 0. -1.
          4   -1    0    0  501    0  0.00000000000E+00 -0.00000000000E+00 -0.84608380806E+02  0.84617911831E+02  0.12700000000E+01 0. -1.
    9000005    1    1    2    0    0 -0.48163972602E+01 -0.11755310947E+02 -0.83250507347E+02  0.84220140059E+02  0.10000000000E+01 0.  0.
    9000005    1    1    2    0    0  0.48163972602E+01  0.11755310947E+02  0.44905417098E+02  0.46678490793E+02  0.10000000000E+01 0.  0.
<mgrwt>
<rscale>  0 0.12515632E+03</rscale>
<asrwt>0</asrwt>
<pdfrwt beam="2">  1        4 0.13018748E-01 0.12515632E+03</pdfrwt>
<pdfrwt beam="1">  1       -4 0.71195031E-02 0.12515632E+03</pdfrwt>
<totfact> 0.10288932E+04</totfact>
</mgrwt>
</event>
<event>
 5    1  0.3217527E-002  0.1249989E+03  0.7818608E-02  0.1235071E+00
          4   -1    0    0  501    0  0.00000000000E+00  0.00000000000E+00  0.85102719998E+02  0.85112195665E+02  0.12700000000E+01 0. -1.
         -4   -1    0    0    0  501 -0.00000000000E+00 -0.00000000000E+00 -0.45878806296E+02  0.45896380763E+02  0.12700000000E+01 0. -1.
         25    2    1    2    0    0  0.00000000000E+00  0.00000000000E+00  0.39223913702E+02  0.13100857643E+03  0.12499892676E+03 0.  0.
    9000005    1    3    3    0    0  0.39160801578E+02 -0.26868964133E+02 -0.22956942098E+02  0.52759177442E+02  0.10000000000E+01 0.  0.
    9000005    1    3    3    0    0 -0.39160801578E+02  0.26868964133E+02  0.62180855800E+02  0.78249398987E+02  0.10000000000E+01 0.  0.
<mgrwt>
<rscale>  0 0.12499893E+03</rscale>
<asrwt>0</asrwt>
<pdfrwt beam="1">  1        4 0.13094807E-01 0.12499893E+03</pdfrwt>
<pdfrwt beam="2">  1       -4 0.70603587E-02 0.12499893E+03</pdfrwt>
<totfact> 0.10323155E+04</totfact>
</mgrwt>
</event>
<event>
 5    1  0.3217527E-002  0.1249809E+03  0.7818608E-02  0.1235099E+00
          4   -1    0    0  501    0  0.00000000000E+00  0.00000000000E+00  0.54249291082E+03  0.54249439739E+03  0.12700000000E+01 0. -1.
         -4   -1    0    0    0  501 -0.00000000000E+00 -0.00000000000E+00 -0.71408358622E+01  0.72528916172E+01  0.12700000000E+01 0. -1.
         25    2    1    2    0    0  0.00000000000E+00  0.00000000000E+00  0.53535207496E+03  0.54974728900E+03  0.12498094895E+03 0.  0.
    9000005    1    3    3    0    0 -0.81173824246E+01 -0.37586361304E+02  0.48430370064E+03  0.48582888028E+03  0.10000000000E+01 0.  0.
    9000005    1    3    3    0    0  0.81173824246E+01  0.37586361304E+02  0.51048374317E+02  0.63918408725E+02  0.10000000000E+01 0.  0.
<mgrwt>
<rscale>  0 0.12498095E+03</rscale>
<asrwt>0</asrwt>
<pdfrwt beam="1">  1        4 0.83469206E-01 0.12498095E+03</pdfrwt>
<pdfrwt beam="2">  1       -4 0.11073238E-02 0.12498095E+03</pdfrwt>
<totfact> 0.52223377E+03</totfact>
</mgrwt>
</event>
<event>
 5    1  0.3217527E-002  0.1249961E+03  0.7818608E-02  0.1235075E+00
         -4   -1    0    0    0  501 -0.00000000000E+00  0.00000000000E+00  0.14275034641E+03  0.14275599567E+03  0.12700000000E+01 0.  1.
          4   -1    0    0  501    0  0.00000000000E+00 -0.00000000000E+00 -0.27341570213E+02  0.27371049700E+02  0.12700000000E+01 0.  1.
         25    2    1    2    0    0  0.00000000000E+00  0.00000000000E+00  0.11540877620E+03  0.17012704537E+03  0.12499610371E+03 0.  0.
    9000005    1    3    3    0    0 -0.47290018242E+02 -0.40367229436E+02  0.49188526127E+02  0.79286632797E+02  0.10000000000E+01 0.  0.
    9000005    1    3    3    0    0  0.47290018242E+02  0.40367229436E+02  0.66220250072E+02  0.90840412577E+02  0.10000000000E+01 0.  0.
<mgrwt>
<rscale>  0 0.12499610E+03</rscale>
<asrwt>0</asrwt>
<pdfrwt beam="2">  1        4 0.42090977E-02 0.12499610E+03</pdfrwt>
<pdfrwt beam="1">  1       -4 0.21964294E-01 0.12499610E+03</pdfrwt>
<totfact> 0.95433308E+03</totfact>
</mgrwt>
</event>
<event>
 5    1  0.3217527E-002  0.1249975E+03  0.7818608E-02  0.1235073E+00
          4   -1    0    0  501    0  0.00000000000E+00  0.00000000000E+00  0.35815938649E+02  0.35838448088E+02  0.12700000000E+01 0. -1.
         -4   -1    0    0    0  501 -0.00000000000E+00 -0.00000000000E+00 -0.10899981143E+03  0.10900720981E+03  0.12700000000E+01 0. -1.
         25    2    1    2    0    0  0.00000000000E+00  0.00000000000E+00 -0.73183872779E+02  0.14484565790E+03  0.12499754149E+03 0.  0.
    9000005    1    3    3    0    0  0.42319283096E+02  0.90301948378E+01  0.15651675789E+02  0.46026525999E+02  0.10000000000E+01 0.  0.
    9000005    1    3    3    0    0 -0.42319283096E+02 -0.90301948378E+01 -0.88835548568E+02  0.98819131902E+02  0.10000000000E+01 0.  0.
<mgrwt>
<rscale>  0 0.12499754E+03</rscale>
<asrwt>0</asrwt>
<pdfrwt beam="1">  1        4 0.55124451E-02 0.12499754E+03</pdfrwt>
<pdfrwt beam="2">  1       -4 0.16771502E-01 0.12499754E+03</pdfrwt>
<totfact> 0.10034681E+04</totfact>
</mgrwt>
</event>
<event>
 5    1  0.3217527E-002  0.1250332E+03  0.7818608E-02  0.1235017E+00
         -4   -1    0    0    0  501 -0.00000000000E+00  0.00000000000E+00  0.10547431002E+02  0.10623615239E+02  0.12700000000E+01 0. -1.
          4   -1    0    0  501    0  0.00000000000E+00 -0.00000000000E+00 -0.36913689617E+03  0.36913908085E+03  0.12700000000E+01 0. -1.
         25    2    1    2    0    0  0.00000000000E+00  0.00000000000E+00 -0.35858946517E+03  0.37976269609E+03  0.12503319885E+03 0.  0.
    9000005    1    3    3    0    0 -0.59147180091E+02  0.19747890111E+02 -0.16607041656E+03  0.17739433850E+03  0.10000000000E+01 0.  0.
    9000005    1    3    3    0    0  0.59147180091E+02 -0.19747890111E+02 -0.19251904861E+03  0.20236835759E+03  0.10000000000E+01 0.  0.
<mgrwt>
<rscale>  0 0.12503320E+03</rscale>
<asrwt>0</asrwt>
<pdfrwt beam="2">  1        4 0.56796310E-01 0.12503320E+03</pdfrwt>
<pdfrwt beam="1">  1       -4 0.16287104E-02 0.12503320E+03</pdfrwt>
<totfact> 0.66520987E+03</totfact>
</mgrwt>
</event>
<event>
 5    1  0.3217527E-002  0.1249833E+03  0.7818608E-02  0.1235095E+00
         -4   -1    0    0    0  501 -0.00000000000E+00  0.00000000000E+00  0.65433006707E+03  0.65433129955E+03  0.12700000000E+01 0. -1.
          4   -1    0    0  501    0  0.00000000000E+00 -0.00000000000E+00 -0.58994376206E+01  0.60345889868E+01  0.12700000000E+01 0. -1.
         25    2    1    2    0    0  0.00000000000E+00  0.00000000000E+00  0.64843062945E+03  0.66036588854E+03  0.12498330103E+03 0.  0.
    9000005    1    3    3    0    0  0.14740966434E+01  0.19363175751E+02  0.63800710662E+03  0.63830335550E+03  0.10000000000E+01 0.  0.
    9000005    1    3    3    0    0 -0.14740966434E+01 -0.19363175751E+02  0.10423522826E+02  0.22062533041E+02  0.10000000000E+01 0.  0.
<mgrwt>
<rscale>  0 0.12498330E+03</rscale>
<asrwt>0</asrwt>
<pdfrwt beam="2">  1        4 0.91809749E-03 0.12498330E+03</pdfrwt>
<pdfrwt beam="1">  1       -4 0.10067659E+00 0.12498330E+03</pdfrwt>
<totfact> 0.45279548E+03</totfact>
</mgrwt>
</event>
<event>
 5    1  0.3217527E-002  0.1250009E+03  0.7818608E-02  0.1235068E+00
          4   -1    0    0  501    0  0.00000000000E+00  0.00000000000E+00  0.82764009873E+02  0.82773753269E+02  0.12700000000E+01 0. -1.
         -4   -1    0    0    0  501 -0.00000000000E+00 -0.00000000000E+00 -0.47177092791E+02  0.47194183796E+02  0.12700000000E+01 0. -1.
         25    2    1    2    0    0  0.00000000000E+00  0.00000000000E+00  0.35586917082E+02  0.12996793707E+03  0.12500094399E+03 0.  0.
    9000005    1    3    3    0    0 -0.32786383279E+02  0.18968456305E+02  0.69473233338E+02  0.79134565226E+02  0.10000000000E+01 0.  0.
    9000005    1    3    3    0    0  0.32786383279E+02 -0.18968456305E+02 -0.33886316256E+02  0.50833371839E+02  0.10000000000E+01 0.  0.
<mgrwt>
<rscale>  0 0.12500094E+03</rscale>
<asrwt>0</asrwt>
<pdfrwt beam="1">  1        4 0.12734989E-01 0.12500094E+03</pdfrwt>
<pdfrwt beam="2">  1       -4 0.72600785E-02 0.12500094E+03</pdfrwt>
<totfact> 0.10344973E+04</totfact>
</mgrwt>
</event>
<event>
 5    1  0.3217527E-002  0.1249997E+03  0.7818608E-02  0.1235070E+00
         -4   -1    0    0    0  501 -0.00000000000E+00  0.00000000000E+00  0.54293381548E+02  0.54308233077E+02  0.12700000000E+01 0. -1.
          4   -1    0    0  501    0  0.00000000000E+00 -0.00000000000E+00 -0.71916432489E+02  0.71927645324E+02  0.12700000000E+01 0. -1.
         25    2    1    2    0    0  0.00000000000E+00  0.00000000000E+00 -0.17623050940E+02  0.12623587840E+03  0.12499970028E+03 0.  0.
    9000005    1    3    3    0    0  0.52238331562E+02  0.28256884074E+02  0.10821319853E+02  0.60377112760E+02  0.10000000000E+01 0.  0.
    9000005    1    3    3    0    0 -0.52238331562E+02 -0.28256884074E+02 -0.28444370793E+02  0.65858765641E+02  0.10000000000E+01 0.  0.
<mgrwt>
<rscale>  0 0.12499970E+03</rscale>
<asrwt>0</asrwt>
<pdfrwt beam="2">  1        4 0.11066071E-01 0.12499970E+03</pdfrwt>
<pdfrwt beam="1">  1       -4 0.83548329E-02 0.12499970E+03</pdfrwt>
<totfact> 0.10425865E+04</totfact>
</mgrwt>
</event>
<event>
 5    1  0.3217527E-002  0.1249681E+03  0.7818608E-02  0.1235119E+00
         -4   -1    0    0    0  501 -0.00000000000E+00  0.00000000000E+00  0.41419816351E+02  0.41439281926E+02  0.12700000000E+01 0. -1.
          4   -1    0    0  501    0  0.00000000000E+00 -0.00000000000E+00 -0.94214729532E+02  0.94223288846E+02  0.12700000000E+01 0. -1.
         25    2    1    2    0    0  0.00000000000E+00  0.00000000000E+00 -0.52794913182E+02  0.13566257077E+03  0.12496811694E+03 0.  0.
    9000005    1    3    3    0    0 -0.54221020717E+02 -0.80903945662E+01  0.61315597686E+01  0.55172181369E+02  0.10000000000E+01 0.  0.
    9000005    1    3    3    0    0  0.54221020717E+02  0.80903945662E+01 -0.58926472950E+02  0.80490389402E+02  0.10000000000E+01 0.  0.
<mgrwt>
<rscale>  0 0.12496812E+03</rscale>
<asrwt>0</asrwt>
<pdfrwt beam="2">  1        4 0.14496729E-01 0.12496812E+03</pdfrwt>
<pdfrwt beam="1">  1       -4 0.63744352E-02 0.12496812E+03</pdfrwt>
<totfact> 0.10231479E+04</totfact>
</mgrwt>
</event>
<event>
 5    1  0.3217527E-002  0.1249969E+03  0.7818608E-02  0.1235074E+00
          4   -1    0    0  501    0  0.00000000000E+00  0.00000000000E+00  0.12704662483E+03  0.12705297235E+03  0.12700000000E+01 0.  1.
         -4   -1    0    0    0  501 -0.00000000000E+00 -0.00000000000E+00 -0.30724830373E+02  0.30751066671E+02  0.12700000000E+01 0.  1.
         25    2    1    2    0    0  0.00000000000E+00  0.00000000000E+00  0.96321794462E+02  0.15780403902E+03  0.12499690653E+03 0.  0.
    9000005    1    3    3    0    0 -0.59084914341E+02  0.11474426850E+02  0.69375059473E+02  0.91850903377E+02  0.10000000000E+01 0.  0.
    9000005    1    3    3    0    0  0.59084914341E+02 -0.11474426850E+02  0.26946734989E+02  0.65953135640E+02  0.10000000000E+01 0.  0.
<mgrwt>
<rscale>  0 0.12499691E+03</rscale>
<asrwt>0</asrwt>
<pdfrwt beam="1">  1        4 0.19548140E-01 0.12499691E+03</pdfrwt>
<pdfrwt beam="2">  1       -4 0.47294036E-02 0.12499691E+03</pdfrwt>
<totfact> 0.97774627E+03</totfact>
</mgrwt>
</event>
<event>
 5    1  0.3217527E-002  0.1249998E+03  0.7818608E-02  0.1235070E+00
         -4   -1    0    0    0  501 -0.00000000000E+00  0.00000000000E+00  0.16637021302E+02  0.16685424112E+02  0.12700000000E+01 0. -1.
          4   -1    0    0  501    0  0.00000000000E+00 -0.00000000000E+00 -0.23440087807E+03  0.23440431852E+03  0.12700000000E+01 0. -1.
         25    2    1    2    0    0  0.00000000000E+00  0.00000000000E+00 -0.21776385677E+03  0.25108974263E+03  0.12499984616E+03 0.  0.
    9000005    1    3    3    0    0  0.37815823902E+02  0.32288122174E+02 -0.32850308073E+02  0.59604547741E+02  0.10000000000E+01 0.  0.
    9000005    1    3    3    0    0 -0.37815823902E+02 -0.32288122174E+02 -0.18491354870E+03  0.19148519489E+03  0.10000000000E+01 0.  0.
<mgrwt>
<rscale>  0 0.12499985E+03</rscale>
<asrwt>0</asrwt>
<pdfrwt beam="2">  1        4 0.36065659E-01 0.12499985E+03</pdfrwt>
<pdfrwt beam="1">  1       -4 0.25635299E-02 0.12499985E+03</pdfrwt>
<totfact> 0.82173264E+03</totfact>
</mgrwt>
</event>
<event>
 5    1  0.3217527E-002  0.1249989E+03  0.7818608E-02  0.1235071E+00
          4   -1    0    0  501    0  0.00000000000E+00  0.00000000000E+00  0.18948797260E+03  0.18949222850E+03  0.12700000000E+01 0.  1.
         -4   -1    0    0    0  501 -0.00000000000E+00 -0.00000000000E+00 -0.20590336687E+02  0.20629465938E+02  0.12700000000E+01 0.  1.
         25    2    1    2    0    0  0.00000000000E+00  0.00000000000E+00  0.16889763592E+03  0.21012169444E+03  0.12499886021E+03 0.  0.
    9000005    1    3    3    0    0 -0.32539879782E+02  0.22096188804E+02  0.16607798131E+03  0.17067507496E+03  0.10000000000E+01 0.  0.
    9000005    1    3    3    0    0  0.32539879782E+02 -0.22096188804E+02  0.28196546018E+01  0.39446619475E+02  0.10000000000E+01 0.  0.
<mgrwt>
<rscale>  0 0.12499886E+03</rscale>
<asrwt>0</asrwt>
<pdfrwt beam="1">  1        4 0.29155333E-01 0.12499886E+03</pdfrwt>
<pdfrwt beam="2">  1       -4 0.31710815E-02 0.12499886E+03</pdfrwt>
<totfact> 0.88458264E+03</totfact>
</mgrwt>
</event>
<event>
 5    1  0.3217527E-002  0.1249985E+03  0.7818608E-02  0.1235072E+00
          4   -1    0    0  501    0  0.00000000000E+00  0.00000000000E+00  0.25324053955E+02  0.25355879175E+02  0.12700000000E+01 0. -1.
         -4   -1    0    0    0  501 -0.00000000000E+00 -0.00000000000E+00 -0.15411547431E+03  0.15412070699E+03  0.12700000000E+01 0. -1.
         25    2    1    2    0    0  0.00000000000E+00  0.00000000000E+00 -0.12879142036E+03  0.17947658616E+03  0.12499846008E+03 0.  0.
    9000005    1    3    3    0    0  0.22607579880E+02 -0.94996544818E+01  0.18134037025E+02  0.30515396149E+02  0.10000000000E+01 0.  0.
    9000005    1    3    3    0    0 -0.22607579880E+02  0.94996544818E+01 -0.14692545738E+03  0.14896119001E+03  0.10000000000E+01 0.  0.
<mgrwt>
<rscale>  0 0.12499846E+03</rscale>
<asrwt>0</asrwt>
<pdfrwt beam="1">  1        4 0.38988590E-02 0.12499846E+03</pdfrwt>
<pdfrwt beam="2">  1       -4 0.23712923E-01 0.12499846E+03</pdfrwt>
<totfact> 0.93714540E+03</totfact>
</mgrwt>
</event>
<event>
 5    1  0.3217527E-002  0.1250153E+03  0.7818608E-02  0.1235045E+00
          4   -1    0    0  501    0  0.00000000000E+00  0.00000000000E+00  0.18370279494E+02  0.18414126878E+02  0.12700000000E+01 0. -1.
         -4   -1    0    0    0  501 -0.00000000000E+00 -0.00000000000E+00 -0.21239254122E+03  0.21239633817E+03  0.12700000000E+01 0. -1.
         25    2    1    2    0    0  0.00000000000E+00  0.00000000000E+00 -0.19402226173E+03  0.23081046505E+03  0.12501532997E+03 0.  0.
    9000005    1    3    3    0    0  0.34444515809E+02  0.36368168634E+02 -0.16602115198E+03  0.17341594870E+03  0.10000000000E+01 0.  0.
    9000005    1    3    3    0    0 -0.34444515809E+02 -0.36368168634E+02 -0.28001109747E+02  0.57394516343E+02  0.10000000000E+01 0.  0.
<mgrwt>
<rscale>  0 0.12501533E+03</rscale>
<asrwt>0</asrwt>
<pdfrwt beam="1">  1        4 0.28298619E-02 0.12501533E+03</pdfrwt>
<pdfrwt beam="2">  1       -4 0.32679439E-01 0.12501533E+03</pdfrwt>
<totfact> 0.85156177E+03</totfact>
</mgrwt>
</event>
<event>
 5    1  0.3217527E-002  0.1250010E+03  0.7818608E-02  0.1235068E+00
         -4   -1    0    0    0  501 -0.00000000000E+00  0.00000000000E+00  0.10187512614E+03  0.10188304190E+03  0.12700000000E+01 0. -1.
          4   -1    0    0  501    0  0.00000000000E+00 -0.00000000000E+00 -0.38324205210E+02  0.38345242273E+02  0.12700000000E+01 0. -1.
         25    2    1    2    0    0  0.00000000000E+00  0.00000000000E+00  0.63550920933E+02  0.14022828417E+03  0.12500100852E+03 0.  0.
    9000005    1    3    3    0    0  0.37695605210E+02 -0.14920325942E+02  0.85126547779E+02  0.94292650377E+02  0.10000000000E+01 0.  0.
    9000005    1    3    3    0    0 -0.37695605210E+02  0.14920325942E+02 -0.21575626845E+02  0.45935633795E+02  0.10000000000E+01 0.  0.
<mgrwt>
<rscale>  0 0.12500101E+03</rscale>
<asrwt>0</asrwt>
<pdfrwt beam="2">  1        4 0.58982588E-02 0.12500101E+03</pdfrwt>
<pdfrwt beam="1">  1       -4 0.15675323E-01 0.12500101E+03</pdfrwt>
<totfact> 0.10128627E+04</totfact>
</mgrwt>
</event>
<event>
 5    1  0.3217527E-002  0.1249958E+03  0.7818608E-02  0.1235076E+00
         -4   -1    0    0    0  501 -0.00000000000E+00  0.00000000000E+00  0.36157601641E+03  0.36157824678E+03  0.12700000000E+01 0. -1.
          4   -1    0    0  501    0  0.00000000000E+00 -0.00000000000E+00 -0.10763074761E+02  0.10837743229E+02  0.12700000000E+01 0. -1.
         25    2    1    2    0    0  0.00000000000E+00  0.00000000000E+00  0.35081294165E+03  0.37241599001E+03  0.12499579827E+03 0.  0.
    9000005    1    3    3    0    0  0.40435240807E+02  0.36313233578E+02  0.26730276343E+03  0.27277358188E+03  0.10000000000E+01 0.  0.
    9000005    1    3    3    0    0 -0.40435240807E+02 -0.36313233578E+02  0.83510178220E+02  0.99642408132E+02  0.10000000000E+01 0.  0.
<mgrwt>
<rscale>  0 0.12499580E+03</rscale>
<asrwt>0</asrwt>
<pdfrwt beam="2">  1        4 0.16617730E-02 0.12499580E+03</pdfrwt>
<pdfrwt beam="1">  1       -4 0.55632993E-01 0.12499580E+03</pdfrwt>
<totfact> 0.67333187E+03</totfact>
</mgrwt>
</event>
<event>
 5    1  0.3217527E-002  0.1249979E+03  0.7818608E-02  0.1235073E+00
         -4   -1    0    0    0  501 -0.00000000000E+00  0.00000000000E+00  0.92745001230E+03  0.92745088184E+03  0.12700000000E+01 0. -1.
          4   -1    0    0  501    0  0.00000000000E+00 -0.00000000000E+00 -0.41150469191E+01  0.43065660504E+01  0.12700000000E+01 0. -1.
         25    2    1    2    0    0  0.00000000000E+00  0.00000000000E+00  0.92333496539E+03  0.93175744789E+03  0.12499793356E+03 0.  0.
    9000005    1    3    3    0    0  0.69462160804E+01 -0.76689025918E+01  0.92105679295E+03  0.92111545304E+03  0.10000000000E+01 0.  0.
    9000005    1    3    3    0    0 -0.69462160804E+01  0.76689025918E+01  0.22781724362E+01  0.10641994853E+02  0.10000000000E+01 0.  0.
<mgrwt>
<rscale>  0 0.12499793E+03</rscale>
<asrwt>0</asrwt>
<pdfrwt beam="2">  1        4 0.64788261E-03 0.12499793E+03</pdfrwt>
<pdfrwt beam="1">  1       -4 0.14269956E+00 0.12499793E+03</pdfrwt>
<totfact> 0.32974089E+03</totfact>
</mgrwt>
</event>
<event>
 5    1  0.3217527E-002  0.1249998E+03  0.7818608E-02  0.1235070E+00
          4   -1    0    0  501    0  0.00000000000E+00  0.00000000000E+00  0.58466800383E+02  0.58480592054E+02  0.12700000000E+01 0. -1.
         -4   -1    0    0    0  501 -0.00000000000E+00 -0.00000000000E+00 -0.66783484105E+02  0.66795558604E+02  0.12700000000E+01 0. -1.
         25    2    1    2    0    0  0.00000000000E+00  0.00000000000E+00 -0.83166837221E+01  0.12527615066E+03  0.12499978678E+03 0.  0.
    9000005    1    3    3    0    0 -0.78614024075E+01  0.51920580202E+02  0.29794108273E+02  0.60384080551E+02  0.10000000000E+01 0.  0.
    9000005    1    3    3    0    0  0.78614024075E+01 -0.51920580202E+02 -0.38110791995E+02  0.64892070107E+02  0.10000000000E+01 0.  0.
<mgrwt>
<rscale>  0 0.12499979E+03</rscale>
<asrwt>0</asrwt>
<pdfrwt beam="1">  1        4 0.89968821E-02 0.12499979E+03</pdfrwt>
<pdfrwt beam="2">  1       -4 0.10276372E-01 0.12499979E+03</pdfrwt>
<totfact> 0.10446918E+04</totfact>
</mgrwt>
</event>
<event>
 5    1  0.3217527E-002  0.1249998E+03  0.7818608E-02  0.1235070E+00
         -4   -1    0    0    0  501 -0.00000000000E+00  0.00000000000E+00  0.61812385049E+03  0.61812515516E+03  0.12700000000E+01 0. -1.
          4   -1    0    0  501    0  0.00000000000E+00 -0.00000000000E+00 -0.62543720515E+01  0.63820114195E+01  0.12700000000E+01 0. -1.
         25    2    1    2    0    0  0.00000000000E+00  0.00000000000E+00  0.61186947844E+03  0.62450716658E+03  0.12499976987E+03 0.  0.
    9000005    1    3    3    0    0  0.46703217995E+02 -0.91485046627E+01  0.50828159594E+03  0.51050569681E+03  0.10000000000E+01 0.  0.
    9000005    1    3    3    0    0 -0.46703217995E+02  0.91485046627E+01  0.10358788250E+03  0.11400146977E+03  0.10000000000E+01 0.  0.
<mgrwt>
<rscale>  0 0.12499977E+03</rscale>
<asrwt>0</asrwt>
<pdfrwt beam="2">  1        4 0.97212967E-03 0.12499977E+03</pdfrwt>
<pdfrwt beam="1">  1       -4 0.95105914E-01 0.12499977E+03</pdfrwt>
<totfact> 0.47356540E+03</totfact>
</mgrwt>
</event>
<event>
 5    1  0.3217527E-002  0.1250005E+03  0.7818608E-02  0.1235069E+00
         -4   -1    0    0    0  501 -0.00000000000E+00  0.00000000000E+00  0.30728046956E+02  0.30754280511E+02  0.12700000000E+01 0. -1.
          4   -1    0    0  501    0  0.00000000000E+00 -0.00000000000E+00 -0.12704054727E+03  0.12704689508E+03  0.12700000000E+01 0. -1.
         25    2    1    2    0    0  0.00000000000E+00  0.00000000000E+00 -0.96312500311E+02  0.15780117559E+03  0.12500045321E+03 0.  0.
    9000005    1    3    3    0    0  0.57463861232E+02 -0.22539586802E+02 -0.60470360862E+02  0.86416392333E+02  0.10000000000E+01 0.  0.
    9000005    1    3    3    0    0 -0.57463861232E+02  0.22539586802E+02 -0.35842139449E+02  0.71384783261E+02  0.10000000000E+01 0.  0.
<mgrwt>
<rscale>  0 0.12500045E+03</rscale>
<asrwt>0</asrwt>
<pdfrwt beam="2">  1        4 0.19547206E-01 0.12500045E+03</pdfrwt>
<pdfrwt beam="1">  1       -4 0.47298982E-02 0.12500045E+03</pdfrwt>
<totfact> 0.97767387E+03</totfact>
</mgrwt>
</event>
<event>
 5    1  0.3217527E-002  0.1249871E+03  0.7818608E-02  0.1235089E+00
          4   -1    0    0  501    0  0.00000000000E+00  0.00000000000E+00  0.27458656612E+02  0.27488010531E+02  0.12700000000E+01 0. -1.
         -4   -1    0    0    0  501 -0.00000000000E+00 -0.00000000000E+00 -0.14212187913E+03  0.14212755337E+03  0.12700000000E+01 0. -1.
         25    2    1    2    0    0  0.00000000000E+00  0.00000000000E+00 -0.11466322252E+03  0.16961556390E+03  0.12498713902E+03 0.  0.
    9000005    1    3    3    0    0  0.47905586542E+02 -0.27339781585E+02 -0.97175655646E+02  0.11174308448E+03  0.10000000000E+01 0.  0.
    9000005    1    3    3    0    0 -0.47905586542E+02  0.27339781585E+02 -0.17487566869E+02  0.57872479418E+02  0.10000000000E+01 0.  0.
<mgrwt>
<rscale>  0 0.12498714E+03</rscale>
<asrwt>0</asrwt>
<pdfrwt beam="1">  1        4 0.42271032E-02 0.12498714E+03</pdfrwt>
<pdfrwt beam="2">  1       -4 0.21867599E-01 0.12498714E+03</pdfrwt>
<totfact> 0.95547919E+03</totfact>
</mgrwt>
</event>
<event>
 5    1  0.3217527E-002  0.1250019E+03  0.7818608E-02  0.1235066E+00
          4   -1    0    0  501    0  0.00000000000E+00  0.00000000000E+00  0.15378134352E+03  0.15378658757E+03  0.12700000000E+01 0. -1.
         -4   -1    0    0    0  501 -0.00000000000E+00 -0.00000000000E+00 -0.25380545023E+02  0.25412299496E+02  0.12700000000E+01 0. -1.
         25    2    1    2    0    0  0.00000000000E+00  0.00000000000E+00  0.12840079850E+03  0.17919888706E+03  0.12500190426E+03 0.  0.
    9000005    1    3    3    0    0  0.10376074099E+02 -0.44601484341E+02  0.32372248370E+01  0.45917697501E+02  0.10000000000E+01 0.  0.
    9000005    1    3    3    0    0 -0.10376074099E+02  0.44601484341E+02  0.12516357366E+03  0.13328118956E+03  0.10000000000E+01 0.  0.
<mgrwt>
<rscale>  0 0.12500190E+03</rscale>
<asrwt>0</asrwt>
<pdfrwt beam="1">  1        4 0.23661514E-01 0.12500190E+03</pdfrwt>
<pdfrwt beam="2">  1       -4 0.39075453E-02 0.12500190E+03</pdfrwt>
<totfact> 0.93757402E+03</totfact>
</mgrwt>
</event>
<event>
 5    1  0.3217527E-002  0.1249983E+03  0.7818608E-02  0.1235072E+00
         -4   -1    0    0    0  501 -0.00000000000E+00  0.00000000000E+00  0.68856264627E+03  0.68856381748E+03  0.12700000000E+01 0.  1.
          4   -1    0    0  501    0  0.00000000000E+00 -0.00000000000E+00 -0.56006206039E+01  0.57428086463E+01  0.12700000000E+01 0.  1.
         25    2    1    2    0    0  0.00000000000E+00  0.00000000000E+00  0.68296202567E+03  0.69430662613E+03  0.12499825029E+03 0.  0.
    9000005    1    3    3    0    0  0.28418726470E+02  0.37859472476E+02  0.11488767834E+03  0.12426239296E+03  0.10000000000E+01 0.  0.
    9000005    1    3    3    0    0 -0.28418726470E+02 -0.37859472476E+02  0.56807434733E+03  0.57004423316E+03  0.10000000000E+01 0.  0.
<mgrwt>
<rscale>  0 0.12499825E+03</rscale>
<asrwt>0</asrwt>
<pdfrwt beam="2">  1        4 0.87266103E-03 0.12499825E+03</pdfrwt>
<pdfrwt beam="1">  1       -4 0.10594381E+00 0.12499825E+03</pdfrwt>
<totfact> 0.43390580E+03</totfact>
</mgrwt>
</event>
<event>
 5    1  0.3217527E-002  0.1250025E+03  0.7818608E-02  0.1235065E+00
         -4   -1    0    0    0  501 -0.00000000000E+00  0.00000000000E+00  0.32182996086E+03  0.32183246668E+03  0.12700000000E+01 0. -1.
          4   -1    0    0  501    0  0.00000000000E+00 -0.00000000000E+00 -0.12102318047E+02  0.12168771594E+02  0.12700000000E+01 0. -1.
         25    2    1    2    0    0  0.00000000000E+00  0.00000000000E+00  0.30972764281E+03  0.33400123827E+03  0.12500245775E+03 0.  0.
    9000005    1    3    3    0    0  0.19712667074E+02  0.52147070197E+02  0.23031988986E+03  0.23697290528E+03  0.10000000000E+01 0.  0.
    9000005    1    3    3    0    0 -0.19712667074E+02 -0.52147070197E+02  0.79407752957E+02  0.97028332991E+02  0.10000000000E+01 0.  0.
<mgrwt>
<rscale>  0 0.12500246E+03</rscale>
<asrwt>0</asrwt>
<pdfrwt beam="2">  1        4 0.18671997E-02 0.12500246E+03</pdfrwt>
<pdfrwt beam="1">  1       -4 0.49517604E-01 0.12500246E+03</pdfrwt>
<totfact> 0.71517342E+03</totfact>
</mgrwt>
</event>
<event>
 5    1  0.3217527E-002  0.1250034E+03  0.7818608E-02  0.1235064E+00
          4   -1    0    0  501    0  0.00000000000E+00  0.00000000000E+00  0.69444043820E+02  0.69455655796E+02  0.12700000000E+01 0.  1.
         -4   -1    0    0    0  501 -0.00000000000E+00 -0.00000000000E+00 -0.56229941105E+02  0.56244281279E+02  0.12700000000E+01 0.  1.
         25    2    1    2    0    0  0.00000000000E+00  0.00000000000E+00  0.13214102715E+02  0.12569993708E+03  0.12500344663E+03 0.  0.
    9000005    1    3    3    0    0  0.59482999308E+02  0.17106310048E+02 -0.20789217939E+01  0.61936862739E+02  0.10000000000E+01 0.  0.
    9000005    1    3    3    0    0 -0.59482999308E+02 -0.17106310048E+02  0.15293024509E+02  0.63763074336E+02  0.10000000000E+01 0.  0.
<mgrwt>
<rscale>  0 0.12500345E+03</rscale>
<asrwt>0</asrwt>
<pdfrwt beam="1">  1        4 0.10685695E-01 0.12500345E+03</pdfrwt>
<pdfrwt beam="2">  1       -4 0.86527565E-02 0.12500345E+03</pdfrwt>
<totfact> 0.10436734E+04</totfact>
</mgrwt>
</event>
<event>
 5    1  0.3217527E-002  0.1249990E+03  0.7818608E-02  0.1235071E+00
          4   -1    0    0  501    0  0.00000000000E+00  0.00000000000E+00  0.18095725728E+04  0.18095730185E+04  0.12700000000E+01 0.  1.
         -4   -1    0    0    0  501 -0.00000000000E+00 -0.00000000000E+00 -0.19713417416E+01  0.23450134887E+01  0.12700000000E+01 0.  1.
         25    2    1    2    0    0  0.00000000000E+00  0.00000000000E+00  0.18076012311E+04  0.18119180319E+04  0.12499897587E+03 0.  0.
    9000005    1    3    3    0    0  0.45307417779E+02 -0.39756485165E+02  0.66480310073E+03  0.66753090038E+03  0.10000000000E+01 0.  0.
    9000005    1    3    3    0    0 -0.45307417779E+02  0.39756485165E+02  0.11427981303E+04  0.11443871316E+04  0.10000000000E+01 0.  0.
<mgrwt>
<rscale>  0 0.12499898E+03</rscale>
<asrwt>0</asrwt>
<pdfrwt beam="1">  1        4 0.27842343E+00 0.12499898E+03</pdfrwt>
<pdfrwt beam="2">  1       -4 0.33206295E-03 0.12499898E+03</pdfrwt>
<totfact> 0.12521165E+03</totfact>
</mgrwt>
</event>
<event>
 5    1  0.3217527E-002  0.1250001E+03  0.7818608E-02  0.1235069E+00
         -4   -1    0    0    0  501 -0.00000000000E+00  0.00000000000E+00  0.26845492861E+02  0.26875516496E+02  0.12700000000E+01 0.  1.
          4   -1    0    0  501    0  0.00000000000E+00 -0.00000000000E+00 -0.14539475334E+03  0.14540029986E+03  0.12700000000E+01 0.  1.
         25    2    1    2    0    0  0.00000000000E+00  0.00000000000E+00 -0.11854926048E+03  0.17227581635E+03  0.12500011896E+03 0.  0.
    9000005    1    3    3    0    0 -0.14623689632E+02  0.67768574004E+01 -0.14248763626E+03  0.14339980677E+03  0.10000000000E+01 0.  0.
    9000005    1    3    3    0    0  0.14623689632E+02 -0.67768574004E+01  0.23938375779E+02  0.28876009586E+02  0.10000000000E+01 0.  0.
<mgrwt>
<rscale>  0 0.12500012E+03</rscale>
<asrwt>0</asrwt>
<pdfrwt beam="2">  1        4 0.22371159E-01 0.12500012E+03</pdfrwt>
<pdfrwt beam="1">  1       -4 0.41328121E-02 0.12500012E+03</pdfrwt>
<totfact> 0.95025896E+03</totfact>
</mgrwt>
</event>
<event>
 5    1  0.3217527E-002  0.1249998E+03  0.7818608E-02  0.1235070E+00
         -4   -1    0    0    0  501 -0.00000000000E+00  0.00000000000E+00  0.69233210843E+01  0.70388404468E+01  0.12700000000E+01 0.  1.
          4   -1    0    0  501    0  0.00000000000E+00 -0.00000000000E+00 -0.55942988100E+03  0.55943132255E+03  0.12700000000E+01 0.  1.
         25    2    1    2    0    0  0.00000000000E+00  0.00000000000E+00 -0.55250655992E+03  0.56647016300E+03  0.12499978729E+03 0.  0.
    9000005    1    3    3    0    0  0.46976737788E+02 -0.10073710067E+02 -0.95155762273E+02  0.10660165393E+03  0.10000000000E+01 0.  0.
    9000005    1    3    3    0    0 -0.46976737788E+02  0.10073710067E+02 -0.45735079764E+03  0.45986850907E+03  0.10000000000E+01 0.  0.
<mgrwt>
<rscale>  0 0.12499979E+03</rscale>
<asrwt>0</asrwt>
<pdfrwt beam="2">  1        4 0.86075097E-01 0.12499979E+03</pdfrwt>
<pdfrwt beam="1">  1       -4 0.10741238E-02 0.12499979E+03</pdfrwt>
<totfact> 0.51055154E+03</totfact>
</mgrwt>
</event>
<event>
 5    1  0.3217527E-002  0.1250018E+03  0.7818608E-02  0.1235066E+00
          4   -1    0    0  501    0  0.00000000000E+00  0.00000000000E+00  0.21677074779E+03  0.21677446804E+03  0.12700000000E+01 0. -1.
         -4   -1    0    0    0  501 -0.00000000000E+00 -0.00000000000E+00 -0.17994449141E+02  0.18039210068E+02  0.12700000000E+01 0. -1.
         25    2    1    2    0    0  0.00000000000E+00  0.00000000000E+00  0.19877629864E+03  0.23481367811E+03  0.12500178609E+03 0.  0.
    9000005    1    3    3    0    0  0.33435831611E+02 -0.47419077065E+01  0.19816349195E+03  0.20102290931E+03  0.10000000000E+01 0.  0.
    9000005    1    3    3    0    0 -0.33435831611E+02  0.47419077065E+01  0.61280669243E+00  0.33790768803E+02  0.10000000000E+01 0.  0.
<mgrwt>
<rscale>  0 0.12500179E+03</rscale>
<asrwt>0</asrwt>
<pdfrwt beam="1">  1        4 0.33353077E-01 0.12500179E+03</pdfrwt>
<pdfrwt beam="2">  1       -4 0.27721060E-02 0.12500179E+03</pdfrwt>
<totfact> 0.84572520E+03</totfact>
</mgrwt>
</event>
<event>
 5    1  0.3217527E-002  0.1250012E+03  0.7818608E-02  0.1235067E+00
          4   -1    0    0  501    0  0.00000000000E+00  0.00000000000E+00  0.25877253242E+03  0.25877564884E+03  0.12700000000E+01 0.  1.
         -4   -1    0    0    0  501 -0.00000000000E+00 -0.00000000000E+00 -0.15065667413E+02  0.15119101646E+02  0.12700000000E+01 0.  1.
         25    2    1    2    0    0  0.00000000000E+00  0.00000000000E+00  0.24370686501E+03  0.27389475049E+03  0.12500119317E+03 0.  0.
    9000005    1    3    3    0    0  0.42036376650E+02 -0.28622825964E+02  0.20143127966E+03  0.20775438275E+03  0.10000000000E+01 0.  0.
    9000005    1    3    3    0    0 -0.42036376650E+02  0.28622825964E+02  0.42275585350E+02  0.66140367739E+02  0.10000000000E+01 0.  0.
<mgrwt>
<rscale>  0 0.12500119E+03</rscale>
<asrwt>0</asrwt>
<pdfrwt beam="1">  1        4 0.39815510E-01 0.12500119E+03</pdfrwt>
<pdfrwt beam="2">  1       -4 0.23221450E-02 0.12500119E+03</pdfrwt>
<totfact> 0.78992546E+03</totfact>
</mgrwt>
</event>
<event>
 5    1  0.3217527E-002  0.1250001E+03  0.7818608E-02  0.1235069E+00
          4   -1    0    0  501    0  0.00000000000E+00  0.00000000000E+00  0.72084795771E+01  0.73194998335E+01  0.12700000000E+01 0.  1.
         -4   -1    0    0    0  501 -0.00000000000E+00 -0.00000000000E+00 -0.53764431627E+03  0.53764581624E+03  0.12700000000E+01 0.  1.
         25    2    1    2    0    0  0.00000000000E+00  0.00000000000E+00 -0.53043583670E+03  0.54496531607E+03  0.12500007549E+03 0.  0.
    9000005    1    3    3    0    0  0.43803217078E+02  0.42847635656E+02 -0.31872235946E+03  0.32456060163E+03  0.10000000000E+01 0.  0.
    9000005    1    3    3    0    0 -0.43803217078E+02 -0.42847635656E+02 -0.21171347724E+03  0.22040471445E+03  0.10000000000E+01 0.  0.
<mgrwt>
<rscale>  0 0.12500008E+03</rscale>
<asrwt>0</asrwt>
<pdfrwt beam="1">  1        4 0.11176527E-02 0.12500008E+03</pdfrwt>
<pdfrwt beam="2">  1       -4 0.82723134E-01 0.12500008E+03</pdfrwt>
<totfact> 0.52536867E+03</totfact>
</mgrwt>
</event>
<event>
 5    1  0.3217527E-002  0.1249999E+03  0.7818608E-02  0.1235069E+00
         -4   -1    0    0    0  501 -0.00000000000E+00  0.00000000000E+00  0.18239861721E+02  0.18284021866E+02  0.12700000000E+01 0. -1.
          4   -1    0    0  501    0  0.00000000000E+00 -0.00000000000E+00 -0.21385476589E+03  0.21385853687E+03  0.12700000000E+01 0. -1.
         25    2    1    2    0    0  0.00000000000E+00  0.00000000000E+00 -0.19561490417E+03  0.23214255874E+03  0.12499990738E+03 0.  0.
    9000005    1    3    3    0    0  0.41348140605E+02 -0.39882648999E+01 -0.18451169927E+03  0.18913260469E+03  0.10000000000E+01 0.  0.
    9000005    1    3    3    0    0 -0.41348140605E+02  0.39882648999E+01 -0.11103204898E+02  0.43009954050E+02  0.10000000000E+01 0.  0.
<mgrwt>
<rscale>  0 0.12499991E+03</rscale>
<asrwt>0</asrwt>
<pdfrwt beam="2">  1        4 0.32904418E-01 0.12499991E+03</pdfrwt>
<pdfrwt beam="1">  1       -4 0.28098197E-02 0.12499991E+03</pdfrwt>
<totfact> 0.84981864E+03</totfact>
</mgrwt>
</event>
<event>
 5    1  0.3217527E-002  0.1249928E+03  0.7818608E-02  0.1235081E+00
          4   -1    0    0  501    0  0.00000000000E+00  0.00000000000E+00  0.72830927382E+01  0.73929926168E+01  0.12700000000E+01 0. -1.
         -4   -1    0    0    0  501 -0.00000000000E+00 -0.00000000000E+00 -0.53215637788E+03  0.53215789331E+03  0.12700000000E+01 0. -1.
         25    2    1    2    0    0  0.00000000000E+00  0.00000000000E+00 -0.52487328514E+03  0.53955088593E+03  0.12499277201E+03 0.  0.
    9000005    1    3    3    0    0 -0.24423164918E+02  0.33221653778E+02 -0.59754601937E+02  0.72607036278E+02  0.10000000000E+01 0.  0.
    9000005    1    3    3    0    0  0.24423164918E+02 -0.33221653778E+02 -0.46511868320E+03  0.46694384965E+03  0.10000000000E+01 0.  0.
<mgrwt>
<rscale>  0 0.12499277E+03</rscale>
<asrwt>0</asrwt>
<pdfrwt beam="1">  1        4 0.11290466E-02 0.12499277E+03</pdfrwt>
<pdfrwt beam="2">  1       -4 0.81878752E-01 0.12499277E+03</pdfrwt>
<totfact> 0.52929600E+03</totfact>
</mgrwt>
</event>
<event>
 5    1  0.3217527E-002  0.1249972E+03  0.7818608E-02  0.1235074E+00
          4   -1    0    0  501    0  0.00000000000E+00  0.00000000000E+00  0.37990815800E+02  0.38012037372E+02  0.12700000000E+01 0.  1.
         -4   -1    0    0    0  501 -0.00000000000E+00 -0.00000000000E+00 -0.10276250303E+03  0.10277035044E+03  0.12700000000E+01 0.  1.
         25    2    1    2    0    0  0.00000000000E+00  0.00000000000E+00 -0.64771687231E+02  0.14078238781E+03  0.12499723697E+03 0.  0.
    9000005    1    3    3    0    0  0.99979592145E+01  0.26248823266E+02 -0.95257488047E+02  0.99317415091E+02  0.10000000000E+01 0.  0.
    9000005    1    3    3    0    0 -0.99979592145E+01 -0.26248823266E+02  0.30485800816E+02  0.41464972720E+02  0.10000000000E+01 0.  0.
<mgrwt>
<rscale>  0 0.12499724E+03</rscale>
<asrwt>0</asrwt>
<pdfrwt beam="1">  1        4 0.58469770E-02 0.12499724E+03</pdfrwt>
<pdfrwt beam="2">  1       -4 0.15811852E-01 0.12499724E+03</pdfrwt>
<totfact> 0.10118026E+04</totfact>
</mgrwt>
</event>
<event>
 5    1  0.3217527E-002  0.1249980E+03  0.7818608E-02  0.1235072E+00
          4   -1    0    0  501    0  0.00000000000E+00  0.00000000000E+00  0.62581333646E+02  0.62594218750E+02  0.12700000000E+01 0. -1.
         -4   -1    0    0    0  501 -0.00000000000E+00 -0.00000000000E+00 -0.62391000942E+02  0.62403925346E+02  0.12700000000E+01 0. -1.
         25    2    1    2    0    0  0.00000000000E+00  0.00000000000E+00  0.19033270399E+00  0.12499814410E+03  0.12499799919E+03 0.  0.
    9000005    1    3    3    0    0  0.52879136000E+02  0.29912473965E+02 -0.14539256218E+02  0.62476788443E+02  0.10000000000E+01 0.  0.
    9000005    1    3    3    0    0 -0.52879136000E+02 -0.29912473965E+02  0.14729588922E+02  0.62521355652E+02  0.10000000000E+01 0.  0.
<mgrwt>
<rscale>  0 0.12499800E+03</rscale>
<asrwt>0</asrwt>
<pdfrwt beam="1">  1        4 0.96298828E-02 0.12499800E+03</pdfrwt>
<pdfrwt beam="2">  1       -4 0.96006009E-02 0.12499800E+03</pdfrwt>
<totfact> 0.10453376E+04</totfact>
</mgrwt>
</event>
<event>
 5    1  0.3217527E-002  0.1250013E+03  0.7818608E-02  0.1235067E+00
          4   -1    0    0  501    0  0.00000000000E+00  0.00000000000E+00  0.72876657805E+01  0.73974977208E+01  0.12700000000E+01 0. -1.
         -4   -1    0    0    0  501 -0.00000000000E+00 -0.00000000000E+00 -0.53190016036E+03  0.53190167653E+03  0.12700000000E+01 0. -1.
         25    2    1    2    0    0  0.00000000000E+00  0.00000000000E+00 -0.52461249458E+03  0.53929917425E+03  0.12500131949E+03 0.  0.
    9000005    1    3    3    0    0  0.77908636026E+01  0.61834150988E+02 -0.24245429969E+03  0.25033826560E+03  0.10000000000E+01 0.  0.
    9000005    1    3    3    0    0 -0.77908636026E+01 -0.61834150988E+02 -0.28215819489E+03  0.28896090865E+03  0.10000000000E+01 0.  0.
<mgrwt>
<rscale>  0 0.12500132E+03</rscale>
<asrwt>0</asrwt>
<pdfrwt beam="1">  1        4 0.11297450E-02 0.12500132E+03</pdfrwt>
<pdfrwt beam="2">  1       -4 0.81839329E-01 0.12500132E+03</pdfrwt>
<totfact> 0.52937633E+03</totfact>
</mgrwt>
</event>
<event>
 5    1  0.3217527E-002  0.1250018E+03  0.7818608E-02  0.1235066E+00
          4   -1    0    0  501    0  0.00000000000E+00  0.00000000000E+00  0.47125260202E+02  0.47142369999E+02  0.12700000000E+01 0.  1.
         -4   -1    0    0    0  501 -0.00000000000E+00 -0.00000000000E+00 -0.82856143468E+02  0.82865876031E+02  0.12700000000E+01 0.  1.
         25    2    1    2    0    0  0.00000000000E+00  0.00000000000E+00 -0.35730883265E+02  0.13000824603E+03  0.12500179205E+03 0.  0.
    9000005    1    3    3    0    0 -0.42233690673E+02 -0.45785186376E+02 -0.12624359771E+02  0.63563687582E+02  0.10000000000E+01 0.  0.
    9000005    1    3    3    0    0  0.42233690673E+02  0.45785186376E+02 -0.23106523494E+02  0.66444558448E+02  0.10000000000E+01 0.  0.
<mgrwt>
<rscale>  0 0.12500179E+03</rscale>
<asrwt>0</asrwt>
<pdfrwt beam="1">  1        4 0.72521048E-02 0.12500179E+03</pdfrwt>
<pdfrwt beam="2">  1       -4 0.12749164E-01 0.12500179E+03</pdfrwt>
<totfact> 0.10343913E+04</totfact>
</mgrwt>
</event>
<event>
 5    1  0.3217527E-002  0.1250009E+03  0.7818608E-02  0.1235068E+00
          4   -1    0    0  501    0  0.00000000000E+00  0.00000000000E+00  0.27972373102E+02  0.28001188492E+02  0.12700000000E+01 0.  1.
         -4   -1    0    0    0  501 -0.00000000000E+00 -0.00000000000E+00 -0.13954503365E+03  0.13955081266E+03  0.12700000000E+01 0.  1.
         25    2    1    2    0    0  0.00000000000E+00  0.00000000000E+00 -0.11157266054E+03  0.16755200116E+03  0.12500085804E+03 0.  0.
    9000005    1    3    3    0    0  0.29103982496E+01  0.36272488895E+02  0.12312928579E+02  0.38428792316E+02  0.10000000000E+01 0.  0.
    9000005    1    3    3    0    0 -0.29103982496E+01 -0.36272488895E+02 -0.12388558912E+03  0.12912320884E+03  0.10000000000E+01 0.  0.
<mgrwt>
<rscale>  0 0.12500086E+03</rscale>
<asrwt>0</asrwt>
<pdfrwt beam="1">  1        4 0.43061032E-02 0.12500086E+03</pdfrwt>
<pdfrwt beam="2">  1       -4 0.21471127E-01 0.12500086E+03</pdfrwt>
<totfact> 0.95904407E+03</totfact>
</mgrwt>
</event>
<event>
 5    1  0.3217527E-002  0.1250051E+03  0.7818608E-02  0.1235061E+00
          4   -1    0    0  501    0  0.00000000000E+00  0.00000000000E+00  0.28183792085E+02  0.28212391538E+02  0.12700000000E+01 0. -1.
         -4   -1    0    0    0  501 -0.00000000000E+00 -0.00000000000E+00 -0.13850862113E+03  0.13851444339E+03  0.12700000000E+01 0. -1.
         25    2    1    2    0    0  0.00000000000E+00  0.00000000000E+00 -0.11032482904E+03  0.16672683493E+03  0.12500507822E+03 0.  0.
    9000005    1    3    3    0    0  0.16048293548E+02 -0.23877669642E+02 -0.12915759756E+03  0.13232677674E+03  0.10000000000E+01 0.  0.
    9000005    1    3    3    0    0 -0.16048293548E+02  0.23877669642E+02  0.18832768519E+02  0.34400058189E+02  0.10000000000E+01 0.  0.
<mgrwt>
<rscale>  0 0.12500508E+03</rscale>
<asrwt>0</asrwt>
<pdfrwt beam="1">  1        4 0.43386159E-02 0.12500508E+03</pdfrwt>
<pdfrwt beam="2">  1       -4 0.21311666E-01 0.12500508E+03</pdfrwt>
<totfact> 0.96050398E+03</totfact>
</mgrwt>
</event>
<event>
 5    1  0.3217527E-002  0.1249783E+03  0.7818608E-02  0.1235103E+00
          4   -1    0    0  501    0  0.00000000000E+00  0.00000000000E+00  0.13459049191E+02  0.13518835198E+02  0.12700000000E+01 0.  1.
         -4   -1    0    0    0  501 -0.00000000000E+00 -0.00000000000E+00 -0.28942745000E+03  0.28943023635E+03  0.12700000000E+01 0.  1.
         25    2    1    2    0    0  0.00000000000E+00  0.00000000000E+00 -0.27596840081E+03  0.30294907155E+03  0.12497832495E+03 0.  0.
    9000005    1    3    3    0    0  0.37828830685E+02 -0.20470292408E+02 -0.24783885293E+03  0.25154552336E+03  0.10000000000E+01 0.  0.
    9000005    1    3    3    0    0 -0.37828830685E+02  0.20470292408E+02 -0.28129547882E+02  0.51403548188E+02  0.10000000000E+01 0.  0.
<mgrwt>
<rscale>  0 0.12497832E+03</rscale>
<asrwt>0</asrwt>
<pdfrwt beam="1">  1        4 0.20754364E-02 0.12497832E+03</pdfrwt>
<pdfrwt beam="2">  1       -4 0.44532109E-01 0.12497832E+03</pdfrwt>
<totfact> 0.75266601E+03</totfact>
</mgrwt>
</event>
<event>
 5    1  0.3217527E-002  0.1250027E+03  0.7818608E-02  0.1235065E+00
          4   -1    0    0  501    0  0.00000000000E+00  0.00000000000E+00  0.15012639169E+03  0.15013176340E+03  0.12700000000E+01 0.  1.
         -4   -1    0    0    0  501 -0.00000000000E+00 -0.00000000000E+00 -0.25999548287E+02  0.26030547654E+02  0.12700000000E+01 0.  1.
         25    2    1    2    0    0  0.00000000000E+00  0.00000000000E+00  0.12412684340E+03  0.17616231105E+03  0.12500274630E+03 0.  0.
    9000005    1    3    3    0    0 -0.50727239090E+02 -0.24444131780E+02  0.10026089676E+03  0.11499572072E+03  0.10000000000E+01 0.  0.
    9000005    1    3    3    0    0  0.50727239090E+02  0.24444131780E+02  0.23865946642E+02  0.61166590336E+02  0.10000000000E+01 0.  0.
<mgrwt>
<rscale>  0 0.12500275E+03</rscale>
<asrwt>0</asrwt>
<pdfrwt beam="1">  1        4 0.23099166E-01 0.12500275E+03</pdfrwt>
<pdfrwt beam="2">  1       -4 0.40027283E-02 0.12500275E+03</pdfrwt>
<totfact> 0.94306586E+03</totfact>
</mgrwt>
</event>
<event>
 5    1  0.3217527E-002  0.1249988E+03  0.7818608E-02  0.1235071E+00
          4   -1    0    0  501    0  0.00000000000E+00  0.00000000000E+00  0.16724104991E+03  0.16724587192E+03  0.12700000000E+01 0.  1.
         -4   -1    0    0    0  501 -0.00000000000E+00 -0.00000000000E+00 -0.23334135811E+02  0.23368671209E+02  0.12700000000E+01 0.  1.
         25    2    1    2    0    0  0.00000000000E+00  0.00000000000E+00  0.14390691410E+03  0.19061454313E+03  0.12499881650E+03 0.  0.
    9000005    1    3    3    0    0 -0.60291714291E+02  0.27474371332E+01  0.96661891699E+02  0.11396122380E+03  0.10000000000E+01 0.  0.
    9000005    1    3    3    0    0  0.60291714291E+02 -0.27474371332E+01  0.47245022398E+02  0.76653319330E+02  0.10000000000E+01 0.  0.
<mgrwt>
<rscale>  0 0.12499882E+03</rscale>
<asrwt>0</asrwt>
<pdfrwt beam="1">  1        4 0.25732420E-01 0.12499882E+03</pdfrwt>
<pdfrwt beam="2">  1       -4 0.35928945E-02 0.12499882E+03</pdfrwt>
<totfact> 0.91742927E+03</totfact>
</mgrwt>
</event>
<event>
 5    1  0.3217527E-002  0.1250020E+03  0.7818608E-02  0.1235066E+00
          4   -1    0    0  501    0  0.00000000000E+00  0.00000000000E+00  0.66694682559E+02  0.66706773132E+02  0.12700000000E+01 0. -1.
         -4   -1    0    0    0  501 -0.00000000000E+00 -0.00000000000E+00 -0.58546736440E+02  0.58560509285E+02  0.12700000000E+01 0. -1.
         25    2    1    2    0    0  0.00000000000E+00  0.00000000000E+00  0.81479461196E+01  0.12526728242E+03  0.12500201206E+03 0.  0.
    9000005    1    3    3    0    0  0.40913902549E+02  0.39917430457E+02 -0.21238828108E+02  0.60987183043E+02  0.10000000000E+01 0.  0.
    9000005    1    3    3    0    0 -0.40913902549E+02 -0.39917430457E+02  0.29386774227E+02  0.64280099375E+02  0.10000000000E+01 0.  0.
<mgrwt>
<rscale>  0 0.12500201E+03</rscale>
<asrwt>0</asrwt>
<pdfrwt beam="1">  1        4 0.10262710E-01 0.12500201E+03</pdfrwt>
<pdfrwt beam="2">  1       -4 0.90091797E-02 0.12500201E+03</pdfrwt>
<totfact> 0.10446585E+04</totfact>
</mgrwt>
</event>
<event>
 5    1  0.3217527E-002  0.1250007E+03  0.7818608E-02  0.1235068E+00
          4   -1    0    0  501    0  0.00000000000E+00  0.00000000000E+00  0.12330638220E+02  0.12395867816E+02  0.12700000000E+01 0.  1.
         -4   -1    0    0    0  501 -0.00000000000E+00 -0.00000000000E+00 -0.31589348955E+03  0.31589604246E+03  0.12700000000E+01 0.  1.
         25    2    1    2    0    0  0.00000000000E+00  0.00000000000E+00 -0.30356285133E+03  0.32829191027E+03  0.12500069457E+03 0.  0.
    9000005    1    3    3    0    0 -0.65708726866E+01  0.11338192864E+01  0.11406558854E+02  0.13250339578E+02  0.10000000000E+01 0.  0.
    9000005    1    3    3    0    0  0.65708726866E+01 -0.11338192864E+01 -0.31496941019E+03  0.31504157070E+03  0.10000000000E+01 0.  0.
<mgrwt>
<rscale>  0 0.12500069E+03</rscale>
<asrwt>0</asrwt>
<pdfrwt beam="1">  1        4 0.19022355E-02 0.12500069E+03</pdfrwt>
<pdfrwt beam="2">  1       -4 0.48604206E-01 0.12500069E+03</pdfrwt>
<totfact> 0.72179538E+03</totfact>
</mgrwt>
</event>
<event>
 5    1  0.3217527E-002  0.1249992E+03  0.7818608E-02  0.1235070E+00
          4   -1    0    0  501    0  0.00000000000E+00  0.00000000000E+00  0.80192526517E+01  0.81191941159E+01  0.12700000000E+01 0. -1.
         -4   -1    0    0    0  501 -0.00000000000E+00 -0.00000000000E+00 -0.48398566557E+03  0.48398733183E+03  0.12700000000E+01 0. -1.
         25    2    1    2    0    0  0.00000000000E+00  0.00000000000E+00 -0.47596641292E+03  0.49210652595E+03  0.12499922663E+03 0.  0.
    9000005    1    3    3    0    0 -0.61391088649E+02 -0.22311829265E+01 -0.19286211443E+03  0.20241205282E+03  0.10000000000E+01 0.  0.
    9000005    1    3    3    0    0  0.61391088649E+02  0.22311829265E+01 -0.28310429848E+03  0.28969447313E+03  0.10000000000E+01 0.  0.
<mgrwt>
<rscale>  0 0.12499923E+03</rscale>
<asrwt>0</asrwt>
<pdfrwt beam="1">  1        4 0.12415475E-02 0.12499923E+03</pdfrwt>
<pdfrwt beam="2">  1       -4 0.74467126E-01 0.12499923E+03</pdfrwt>
<totfact> 0.56483017E+03</totfact>
</mgrwt>
</event>
<event>
 5    1  0.3217527E-002  0.1249994E+03  0.7818608E-02  0.1235070E+00
          4   -1    0    0  501    0  0.00000000000E+00  0.00000000000E+00  0.75066509939E+03  0.75066617371E+03  0.12700000000E+01 0. -1.
         -4   -1    0    0    0  501 -0.00000000000E+00 -0.00000000000E+00 -0.51250843394E+01  0.52800937005E+01  0.12700000000E+01 0. -1.
         25    2    1    2    0    0  0.00000000000E+00  0.00000000000E+00  0.74554001505E+03  0.75594626741E+03  0.12499938064E+03 0.  0.
    9000005    1    3    3    0    0  0.40753942700E+02 -0.33436306517E+02  0.16980648872E+03  0.17780358278E+03  0.10000000000E+01 0.  0.
    9000005    1    3    3    0    0 -0.40753942700E+02  0.33436306517E+02  0.57573352634E+03  0.57814268463E+03  0.10000000000E+01 0.  0.
<mgrwt>
<rscale>  0 0.12499938E+03</rscale>
<asrwt>0</asrwt>
<pdfrwt beam="1">  1        4 0.11549901E+00 0.12499938E+03</pdfrwt>
<pdfrwt beam="2">  1       -4 0.80048052E-03 0.12499938E+03</pdfrwt>
<totfact> 0.40291855E+03</totfact>
</mgrwt>
</event>
<event>
 5    1  0.3217527E-002  0.1250141E+03  0.7818608E-02  0.1235047E+00
         -4   -1    0    0    0  501 -0.00000000000E+00  0.00000000000E+00  0.16869701088E+03  0.16870179128E+03  0.12700000000E+01 0. -1.
          4   -1    0    0  501    0  0.00000000000E+00 -0.00000000000E+00 -0.23138121594E+02  0.23172949119E+02  0.12700000000E+01 0. -1.
         25    2    1    2    0    0  0.00000000000E+00  0.00000000000E+00  0.14555888929E+03  0.19187474040E+03  0.12501410221E+03 0.  0.
    9000005    1    3    3    0    0  0.77865586221E+01 -0.15418412927E+02 -0.19409412294E+02  0.26001600681E+02  0.10000000000E+01 0.  0.
    9000005    1    3    3    0    0 -0.77865586221E+01  0.15418412927E+02  0.16496830158E+03  0.16587313972E+03  0.10000000000E+01 0.  0.
<mgrwt>
<rscale>  0 0.12501410E+03</rscale>
<asrwt>0</asrwt>
<pdfrwt beam="2">  1        4 0.35627577E-02 0.12501410E+03</pdfrwt>
<pdfrwt beam="1">  1       -4 0.25956434E-01 0.12501410E+03</pdfrwt>
<totfact> 0.91493235E+03</totfact>
</mgrwt>
</event>
<event>
 5    1  0.3217527E-002  0.1250014E+03  0.7818608E-02  0.1235067E+00
          4   -1    0    0  501    0  0.00000000000E+00  0.00000000000E+00  0.23116957545E+03  0.23117306399E+03  0.12700000000E+01 0. -1.
         -4   -1    0    0    0  501 -0.00000000000E+00 -0.00000000000E+00 -0.16870675964E+02  0.16918410312E+02  0.12700000000E+01 0. -1.
         25    2    1    2    0    0  0.00000000000E+00  0.00000000000E+00  0.21429889949E+03  0.24809147430E+03  0.12500144519E+03 0.  0.
    9000005    1    3    3    0    0  0.57877699818E+02 -0.12888869627E+01  0.15385766381E+03  0.16439181877E+03  0.10000000000E+01 0.  0.
    9000005    1    3    3    0    0 -0.57877699818E+02  0.12888869627E+01  0.60441235683E+02  0.83699655536E+02  0.10000000000E+01 0.  0.
<mgrwt>
<rscale>  0 0.12500145E+03</rscale>
<asrwt>0</asrwt>
<pdfrwt beam="1">  1        4 0.35568491E-01 0.12500145E+03</pdfrwt>
<pdfrwt beam="2">  1       -4 0.25994288E-02 0.12500145E+03</pdfrwt>
<totfact> 0.82604193E+03</totfact>
</mgrwt>
</event>
<event>
 5    1  0.3217527E-002  0.1250004E+03  0.7818608E-02  0.1235069E+00
         -4   -1    0    0    0  501 -0.00000000000E+00  0.00000000000E+00  0.46255837534E+02  0.46273268805E+02  0.12700000000E+01 0.  1.
          4   -1    0    0  501    0  0.00000000000E+00 -0.00000000000E+00 -0.84411158368E+02  0.84420711659E+02  0.12700000000E+01 0.  1.
         25    2    1    2    0    0  0.00000000000E+00  0.00000000000E+00 -0.38155320835E+02  0.13069398046E+03  0.12500035209E+03 0.  0.
    9000005    1    3    3    0    0 -0.59915630019E+02 -0.15821086961E+01 -0.37571946233E+02  0.70746285643E+02  0.10000000000E+01 0.  0.
    9000005    1    3    3    0    0  0.59915630019E+02  0.15821086961E+01 -0.58337460178E+00  0.59947694822E+02  0.10000000000E+01 0.  0.
<mgrwt>
<rscale>  0 0.12500035E+03</rscale>
<asrwt>0</asrwt>
<pdfrwt beam="2">  1        4 0.12988408E-01 0.12500035E+03</pdfrwt>
<pdfrwt beam="1">  1       -4 0.71183584E-02 0.12500035E+03</pdfrwt>
<totfact> 0.10329572E+04</totfact>
</mgrwt>
</event>
<event>
 4    1  0.3217527E-002  0.1249098E+03  0.7818608E-02  0.1235210E+00
          4   -1    0    0  501    0  0.00000000000E+00  0.00000000000E+00  0.18234542735E+01  0.22221353441E+01  0.12700000000E+01 0. -1.
         -4   -1    0    0    0  501 -0.00000000000E+00 -0.00000000000E+00 -0.19279292206E+04  0.19279296389E+04  0.12700000000E+01 0. -1.
    9000005    1    1    2    0    0  0.48692751751E+01 -0.58506383187E+02 -0.12919036355E+04  0.12932372984E+04  0.10000000000E+01 0.  0.
    9000005    1    1    2    0    0 -0.48692751751E+01  0.58506383187E+02 -0.63420213082E+03  0.63691447578E+03  0.10000000000E+01 0.  0.
<mgrwt>
<rscale>  0 0.12490976E+03</rscale>
<asrwt>0</asrwt>
<pdfrwt beam="1">  1        4 0.31123292E-03 0.12490976E+03</pdfrwt>
<pdfrwt beam="2">  1       -4 0.29663373E+00 0.12490976E+03</pdfrwt>
<totfact> 0.10822169E+03</totfact>
</mgrwt>
</event>
<event>
 5    1  0.3217527E-002  0.1250006E+03  0.7818608E-02  0.1235068E+00
          4   -1    0    0  501    0  0.00000000000E+00  0.00000000000E+00  0.69200160595E+02  0.69211813489E+02  0.12700000000E+01 0. -1.
         -4   -1    0    0    0  501 -0.00000000000E+00 -0.00000000000E+00 -0.56425599424E+02  0.56439889886E+02  0.12700000000E+01 0. -1.
         25    2    1    2    0    0  0.00000000000E+00  0.00000000000E+00  0.12774561171E+02  0.12565170337E+03  0.12500064459E+03 0.  0.
    9000005    1    3    3    0    0 -0.24162594126E+02  0.36924409236E+02 -0.38093020783E+02  0.58303697865E+02  0.10000000000E+01 0.  0.
    9000005    1    3    3    0    0  0.24162594126E+02 -0.36924409236E+02  0.50867581954E+02  0.67348005510E+02  0.10000000000E+01 0.  0.
<mgrwt>
<rscale>  0 0.12500064E+03</rscale>
<asrwt>0</asrwt>
<pdfrwt beam="1">  1        4 0.10648174E-01 0.12500064E+03</pdfrwt>
<pdfrwt beam="2">  1       -4 0.86828570E-02 0.12500064E+03</pdfrwt>
<totfact> 0.10438456E+04</totfact>
</mgrwt>
</event>
<event>
 5    1  0.3217527E-002  0.1250016E+03  0.7818608E-02  0.1235067E+00
         -4   -1    0    0    0  501 -0.00000000000E+00  0.00000000000E+00  0.25412179970E+02  0.25443894962E+02  0.12700000000E+01 0.  1.
          4   -1    0    0  501    0  0.00000000000E+00 -0.00000000000E+00 -0.15358941626E+03  0.15359466686E+03  0.12700000000E+01 0.  1.
         25    2    1    2    0    0  0.00000000000E+00  0.00000000000E+00 -0.12817723629E+03  0.17903856182E+03  0.12500161085E+03 0.  0.
    9000005    1    3    3    0    0  0.36828533911E+02 -0.13846652895E+02 -0.13362891723E+03  0.13930455206E+03  0.10000000000E+01 0.  0.
    9000005    1    3    3    0    0 -0.36828533911E+02  0.13846652895E+02  0.54516809348E+01  0.39734009758E+02  0.10000000000E+01 0.  0.
<mgrwt>
<rscale>  0 0.12500161E+03</rscale>
<asrwt>0</asrwt>
<pdfrwt beam="2">  1        4 0.23631984E-01 0.12500161E+03</pdfrwt>
<pdfrwt beam="1">  1       -4 0.39124097E-02 0.12500161E+03</pdfrwt>
<totfact> 0.93786964E+03</totfact>
</mgrwt>
</event>
<event>
 5    1  0.3217527E-002  0.1249996E+03  0.7818608E-02  0.1235070E+00
         -4   -1    0    0    0  501 -0.00000000000E+00  0.00000000000E+00  0.64384494924E+01  0.65625095707E+01  0.12700000000E+01 0.  1.
          4   -1    0    0  501    0  0.00000000000E+00 -0.00000000000E+00 -0.60078875369E+03  0.60079009601E+03  0.12700000000E+01 0.  1.
         25    2    1    2    0    0  0.00000000000E+00  0.00000000000E+00 -0.59435030420E+03  0.60735260558E+03  0.12499961361E+03 0.  0.
    9000005    1    3    3    0    0  0.54798948714E+01 -0.38214096942E+02 -0.53594525777E+03  0.53733477998E+03  0.10000000000E+01 0.  0.
    9000005    1    3    3    0    0 -0.54798948714E+01  0.38214096942E+02 -0.58405046427E+02  0.70017825595E+02  0.10000000000E+01 0.  0.
<mgrwt>
<rscale>  0 0.12499961E+03</rscale>
<asrwt>0</asrwt>
<pdfrwt beam="2">  1        4 0.92438642E-01 0.12499961E+03</pdfrwt>
<pdfrwt beam="1">  1       -4 0.10001775E-02 0.12499961E+03</pdfrwt>
<totfact> 0.48407185E+03</totfact>
</mgrwt>
</event>
<event>
 5    1  0.3217527E-002  0.1249992E+03  0.7818608E-02  0.1235071E+00
         -4   -1    0    0    0  501 -0.00000000000E+00  0.00000000000E+00  0.28506113489E+03  0.28506396392E+03  0.12700000000E+01 0.  1.
          4   -1    0    0  501    0  0.00000000000E+00 -0.00000000000E+00 -0.13670697656E+02  0.13729562061E+02  0.12700000000E+01 0.  1.
         25    2    1    2    0    0  0.00000000000E+00  0.00000000000E+00  0.27139043724E+03  0.29879352598E+03  0.12499920698E+03 0.  0.
    9000005    1    3    3    0    0 -0.13775631049E+01 -0.60560923990E+02  0.98998878797E+02  0.11606593470E+03  0.10000000000E+01 0.  0.
    9000005    1    3    3    0    0  0.13775631049E+01  0.60560923990E+02  0.17239155844E+03  0.18272759128E+03  0.10000000000E+01 0.  0.
<mgrwt>
<rscale>  0 0.12499921E+03</rscale>
<asrwt>0</asrwt>
<pdfrwt beam="2">  1        4 0.21079299E-02 0.12499921E+03</pdfrwt>
<pdfrwt beam="1">  1       -4 0.43860305E-01 0.12499921E+03</pdfrwt>
<totfact> 0.75751758E+03</totfact>
</mgrwt>
</event>
<event>
 5    1  0.3217527E-002  0.1250009E+03  0.7818608E-02  0.1235068E+00
         -4   -1    0    0    0  501 -0.00000000000E+00  0.00000000000E+00  0.55761217990E+02  0.55775678676E+02  0.12700000000E+01 0.  1.
          4   -1    0    0  501    0  0.00000000000E+00 -0.00000000000E+00 -0.70024904776E+02  0.70036420446E+02  0.12700000000E+01 0.  1.
         25    2    1    2    0    0  0.00000000000E+00  0.00000000000E+00 -0.14263686786E+02  0.12581209912E+03  0.12500092610E+03 0.  0.
    9000005    1    3    3    0    0  0.52479992432E+02  0.58907982182E+01  0.26498409566E+02  0.59093289118E+02  0.10000000000E+01 0.  0.
    9000005    1    3    3    0    0 -0.52479992432E+02 -0.58907982182E+01 -0.40762096352E+02  0.66718810003E+02  0.10000000000E+01 0.  0.
<mgrwt>
<rscale>  0 0.12500093E+03</rscale>
<asrwt>0</asrwt>
<pdfrwt beam="2">  1        4 0.10775060E-01 0.12500093E+03</pdfrwt>
<pdfrwt beam="1">  1       -4 0.85806471E-02 0.12500093E+03</pdfrwt>
<totfact> 0.10434861E+04</totfact>
</mgrwt>
</event>
<event>
 5    1  0.3217527E-002  0.1250010E+03  0.7818608E-02  0.1235068E+00
          4   -1    0    0  501    0  0.00000000000E+00  0.00000000000E+00  0.94700354445E+03  0.94700439603E+03  0.12700000000E+01 0.  1.
         -4   -1    0    0    0  501 -0.00000000000E+00 -0.00000000000E+00 -0.40262906565E+01  0.42218380418E+01  0.12700000000E+01 0.  1.
         25    2    1    2    0    0  0.00000000000E+00  0.00000000000E+00  0.94297725380E+03  0.95122623407E+03  0.12500098886E+03 0.  0.
    9000005    1    3    3    0    0  0.56477026348E+01  0.58549776792E+02  0.63207758665E+03  0.63480945838E+03  0.10000000000E+01 0.  0.
    9000005    1    3    3    0    0 -0.56477026348E+01 -0.58549776792E+02  0.31089966715E+03  0.31641677569E+03  0.10000000000E+01 0.  0.
<mgrwt>
<rscale>  0 0.12500099E+03</rscale>
<asrwt>0</asrwt>
<pdfrwt beam="1">  1        4 0.14570798E+00 0.12500099E+03</pdfrwt>
<pdfrwt beam="2">  1       -4 0.63453685E-03 0.12500099E+03</pdfrwt>
<totfact> 0.32271771E+03</totfact>
</mgrwt>
</event>
<event>
 5    1  0.3217527E-002  0.1250058E+03  0.7818608E-02  0.1235060E+00
         -4   -1    0    0    0  501 -0.00000000000E+00  0.00000000000E+00  0.15681763453E+02  0.15733105384E+02  0.12700000000E+01 0. -1.
          4   -1    0    0  501    0  0.00000000000E+00 -0.00000000000E+00 -0.24865822104E+03  0.24866146422E+03  0.12700000000E+01 0. -1.
         25    2    1    2    0    0  0.00000000000E+00  0.00000000000E+00 -0.23297645759E+03  0.26439456961E+03  0.12500583446E+03 0.  0.
    9000005    1    3    3    0    0  0.87332161328E+01 -0.13414923345E+02  0.11282718400E+02  0.19609410161E+02  0.10000000000E+01 0.  0.
    9000005    1    3    3    0    0 -0.87332161328E+01  0.13414923345E+02 -0.24425917599E+03  0.24478515945E+03  0.10000000000E+01 0.  0.
<mgrwt>
<rscale>  0 0.12500583E+03</rscale>
<asrwt>0</asrwt>
<pdfrwt beam="2">  1        4 0.38259307E-01 0.12500583E+03</pdfrwt>
<pdfrwt beam="1">  1       -4 0.24167780E-02 0.12500583E+03</pdfrwt>
<totfact> 0.80282851E+03</totfact>
</mgrwt>
</event>
<event>
 4    1  0.3217527E-002  0.1258839E+03  0.7818608E-02  0.1233694E+00
         -4   -1    0    0    0  501 -0.00000000000E+00  0.00000000000E+00  0.26318802069E+03  0.26319108483E+03  0.12700000000E+01 0.  1.
          4   -1    0    0  501    0  0.00000000000E+00 -0.00000000000E+00 -0.15022752324E+02  0.15076338660E+02  0.12700000000E+01 0.  1.
    9000005    1    1    2    0    0  0.18200430426E+01  0.46306043532E+02  0.21820792013E+03  0.22307679985E+03  0.10000000000E+01 0.  0.
    9000005    1    1    2    0    0 -0.18200430426E+01 -0.46306043532E+02  0.29957348233E+02  0.55190623637E+02  0.10000000000E+01 0.  0.
<mgrwt>
<rscale>  0 0.12588391E+03</rscale>
<asrwt>0</asrwt>
<pdfrwt beam="2">  1        4 0.23155505E-02 0.12588391E+03</pdfrwt>
<pdfrwt beam="1">  1       -4 0.40494821E-01 0.12588391E+03</pdfrwt>
<totfact> 0.76887393E+03</totfact>
</mgrwt>
</event>
<event>
 5    1  0.3217527E-002  0.1249920E+03  0.7818608E-02  0.1235082E+00
          4   -1    0    0  501    0  0.00000000000E+00  0.00000000000E+00  0.11518331023E+02  0.11588133997E+02  0.12700000000E+01 0.  1.
         -4   -1    0    0    0  501 -0.00000000000E+00 -0.00000000000E+00 -0.33799452030E+03  0.33799690628E+03  0.12700000000E+01 0.  1.
         25    2    1    2    0    0  0.00000000000E+00  0.00000000000E+00 -0.32647618928E+03  0.34958504027E+03  0.12499199262E+03 0.  0.
    9000005    1    3    3    0    0 -0.44984330425E+02 -0.25826819941E+02 -0.26069309494E+03  0.26580538814E+03  0.10000000000E+01 0.  0.
    9000005    1    3    3    0    0  0.44984330425E+02  0.25826819941E+02 -0.65783094335E+02  0.83779652138E+02  0.10000000000E+01 0.  0.
<mgrwt>
<rscale>  0 0.12499199E+03</rscale>
<asrwt>0</asrwt>
<pdfrwt beam="1">  1        4 0.17776042E-02 0.12499199E+03</pdfrwt>
<pdfrwt beam="2">  1       -4 0.52004702E-01 0.12499199E+03</pdfrwt>
<totfact> 0.69782599E+03</totfact>
</mgrwt>
</event>
<event>
 5    1  0.3217527E-002  0.1250020E+03  0.7818608E-02  0.1235066E+00
          4   -1    0    0  501    0  0.00000000000E+00  0.00000000000E+00  0.99903603038E+01  0.10070759604E+02  0.12700000000E+01 0. -1.
         -4   -1    0    0    0  501 -0.00000000000E+00 -0.00000000000E+00 -0.38936578804E+03  0.38936785923E+03  0.12700000000E+01 0. -1.
         25    2    1    2    0    0  0.00000000000E+00  0.00000000000E+00 -0.37937542774E+03  0.39943861883E+03  0.12500198015E+03 0.  0.
    9000005    1    3    3    0    0  0.21465957576E+02  0.31567177857E+02 -0.34779348026E+03  0.34988366490E+03  0.10000000000E+01 0.  0.
    9000005    1    3    3    0    0 -0.21465957576E+02 -0.31567177857E+02 -0.31581947483E+02  0.49554953934E+02  0.10000000000E+01 0.  0.
<mgrwt>
<rscale>  0 0.12500198E+03</rscale>
<asrwt>0</asrwt>
<pdfrwt beam="1">  1        4 0.15433227E-02 0.12500198E+03</pdfrwt>
<pdfrwt beam="2">  1       -4 0.59908761E-01 0.12500198E+03</pdfrwt>
<totfact> 0.64604606E+03</totfact>
</mgrwt>
</event>
<event>
 5    1  0.3217527E-002  0.1249815E+03  0.7818608E-02  0.1235098E+00
         -4   -1    0    0    0  501 -0.00000000000E+00  0.00000000000E+00  0.29344069277E+03  0.29344344102E+03  0.12700000000E+01 0.  1.
          4   -1    0    0  501    0  0.00000000000E+00 -0.00000000000E+00 -0.13274834686E+02  0.13335446597E+02  0.12700000000E+01 0.  1.
         25    2    1    2    0    0  0.00000000000E+00  0.00000000000E+00  0.28016585809E+03  0.30677888761E+03  0.12498151002E+03 0.  0.
    9000005    1    3    3    0    0 -0.13420655001E+02 -0.23050520064E+01 -0.96003740954E+01  0.16691148198E+02  0.10000000000E+01 0.  0.
    9000005    1    3    3    0    0  0.13420655001E+02  0.23050520064E+01  0.28976623218E+03  0.29008773942E+03  0.10000000000E+01 0.  0.
<mgrwt>
<rscale>  0 0.12498151E+03</rscale>
<asrwt>0</asrwt>
<pdfrwt beam="2">  1        4 0.20471563E-02 0.12498151E+03</pdfrwt>
<pdfrwt beam="1">  1       -4 0.45149592E-01 0.12498151E+03</pdfrwt>
<totfact> 0.74786981E+03</totfact>
</mgrwt>
</event>
<event>
 5    1  0.3217527E-002  0.1249978E+03  0.7818608E-02  0.1235073E+00
          4   -1    0    0  501    0  0.00000000000E+00  0.00000000000E+00  0.33441113149E+01  0.35771469758E+01  0.12700000000E+01 0.  1.
         -4   -1    0    0    0  501 -0.00000000000E+00 -0.00000000000E+00 -0.11284950264E+04  0.11284957410E+04  0.12700000000E+01 0.  1.
         25    2    1    2    0    0  0.00000000000E+00  0.00000000000E+00 -0.11251509151E+04  0.11320728880E+04  0.12499776809E+03 0.  0.
    9000005    1    3    3    0    0  0.17576497007E+02 -0.20134405172E+02 -0.50986967352E+02  0.57576022426E+02  0.10000000000E+01 0.  0.
    9000005    1    3    3    0    0 -0.17576497007E+02  0.20134405172E+02 -0.10741639478E+04  0.10744968656E+04  0.10000000000E+01 0.  0.
<mgrwt>
<rscale>  0 0.12499777E+03</rscale>
<asrwt>0</asrwt>
<pdfrwt beam="1">  1        4 0.53246035E-03 0.12499777E+03</pdfrwt>
<pdfrwt beam="2">  1       -4 0.17363231E+00 0.12499777E+03</pdfrwt>
<totfact> 0.26564271E+03</totfact>
</mgrwt>
</event>
<event>
 5    1  0.3217527E-002  0.1250011E+03  0.7818608E-02  0.1235068E+00
         -4   -1    0    0    0  501 -0.00000000000E+00  0.00000000000E+00  0.52862777253E+03  0.52862929808E+03  0.12700000000E+01 0. -1.
          4   -1    0    0  501    0  0.00000000000E+00 -0.00000000000E+00 -0.73334253326E+01  0.74425820190E+01  0.12700000000E+01 0. -1.
         25    2    1    2    0    0  0.00000000000E+00  0.00000000000E+00  0.52129434719E+03  0.53607188010E+03  0.12500105685E+03 0.  0.
    9000005    1    3    3    0    0 -0.43046035412E+02 -0.45066033360E+02  0.24080484749E+03  0.24874059400E+03  0.10000000000E+01 0.  0.
    9000005    1    3    3    0    0  0.43046035412E+02  0.45066033360E+02  0.28048949970E+03  0.28733128610E+03  0.10000000000E+01 0.  0.
<mgrwt>
<rscale>  0 0.12500106E+03</rscale>
<asrwt>0</asrwt>
<pdfrwt beam="2">  1        4 0.11367333E-02 0.12500106E+03</pdfrwt>
<pdfrwt beam="1">  1       -4 0.81335867E-01 0.12500106E+03</pdfrwt>
<totfact> 0.53169131E+03</totfact>
</mgrwt>
</event>
<event>
 5    1  0.3217527E-002  0.1249993E+03  0.7818608E-02  0.1235070E+00
         -4   -1    0    0    0  501 -0.00000000000E+00  0.00000000000E+00  0.30851472359E+03  0.30851733755E+03  0.12700000000E+01 0. -1.
          4   -1    0    0  501    0  0.00000000000E+00 -0.00000000000E+00 -0.12626803564E+02  0.12690510953E+02  0.12700000000E+01 0. -1.
         25    2    1    2    0    0  0.00000000000E+00  0.00000000000E+00  0.29588792003E+03  0.32120784851E+03  0.12499928290E+03 0.  0.
    9000005    1    3    3    0    0  0.72100653929E+01  0.22494430420E+02  0.29661309129E+03  0.29755387810E+03  0.10000000000E+01 0.  0.
    9000005    1    3    3    0    0 -0.72100653929E+01 -0.22494430420E+02 -0.72517126827E+00  0.23653970412E+02  0.10000000000E+01 0.  0.
<mgrwt>
<rscale>  0 0.12499928E+03</rscale>
<asrwt>0</asrwt>
<pdfrwt beam="2">  1        4 0.19476867E-02 0.12499928E+03</pdfrwt>
<pdfrwt beam="1">  1       -4 0.47468908E-01 0.12499928E+03</pdfrwt>
<totfact> 0.73013854E+03</totfact>
</mgrwt>
</event>
<event>
 5    1  0.3217527E-002  0.1250045E+03  0.7818608E-02  0.1235062E+00
         -4   -1    0    0    0  501 -0.00000000000E+00  0.00000000000E+00  0.14977371057E+03  0.14977909493E+03  0.12700000000E+01 0. -1.
          4   -1    0    0  501    0  0.00000000000E+00 -0.00000000000E+00 -0.26061584385E+02  0.26092510049E+02  0.12700000000E+01 0. -1.
         25    2    1    2    0    0  0.00000000000E+00  0.00000000000E+00  0.12371212618E+03  0.17587160498E+03  0.12500452501E+03 0.  0.
    9000005    1    3    3    0    0 -0.61086351243E+02  0.30864121582E+01  0.79898955923E+02  0.10062758770E+03  0.10000000000E+01 0.  0.
    9000005    1    3    3    0    0  0.61086351243E+02 -0.30864121582E+01  0.43813170262E+02  0.75244017281E+02  0.10000000000E+01 0.  0.
<mgrwt>
<rscale>  0 0.12500453E+03</rscale>
<asrwt>0</asrwt>
<pdfrwt beam="2">  1        4 0.40122676E-02 0.12500453E+03</pdfrwt>
<pdfrwt beam="1">  1       -4 0.23044902E-01 0.12500453E+03</pdfrwt>
<totfact> 0.94355872E+03</totfact>
</mgrwt>
</event>
<event>
 5    1  0.3217527E-002  0.1250008E+03  0.7818608E-02  0.1235068E+00
          4   -1    0    0  501    0  0.00000000000E+00  0.00000000000E+00  0.13017826790E+02  0.13079629748E+02  0.12700000000E+01 0. -1.
         -4   -1    0    0    0  501 -0.00000000000E+00 -0.00000000000E+00 -0.29929940213E+03  0.29930209657E+03  0.12700000000E+01 0. -1.
         25    2    1    2    0    0  0.00000000000E+00  0.00000000000E+00 -0.28628157534E+03  0.31238172632E+03  0.12500081025E+03 0.  0.
    9000005    1    3    3    0    0 -0.34973083580E+02  0.51123232722E+02 -0.12244260892E+03  0.13722206083E+03  0.10000000000E+01 0.  0.
    9000005    1    3    3    0    0  0.34973083580E+02 -0.51123232722E+02 -0.16383896642E+03  0.17515966549E+03  0.10000000000E+01 0.  0.
<mgrwt>
<rscale>  0 0.12500081E+03</rscale>
<asrwt>0</asrwt>
<pdfrwt beam="1">  1        4 0.20077041E-02 0.12500081E+03</pdfrwt>
<pdfrwt beam="2">  1       -4 0.46051018E-01 0.12500081E+03</pdfrwt>
<totfact> 0.74070146E+03</totfact>
</mgrwt>
</event>
<event>
 5    1  0.3217527E-002  0.1250088E+03  0.7818608E-02  0.1235056E+00
         -4   -1    0    0    0  501 -0.00000000000E+00  0.00000000000E+00  0.23630859811E+02  0.23664962189E+02  0.12700000000E+01 0. -1.
          4   -1    0    0  501    0  0.00000000000E+00 -0.00000000000E+00 -0.16517043277E+03  0.16517531523E+03  0.12700000000E+01 0. -1.
         25    2    1    2    0    0  0.00000000000E+00  0.00000000000E+00 -0.14153957296E+03  0.18884027742E+03  0.12500879834E+03 0.  0.
    9000005    1    3    3    0    0 -0.46487915804E+02 -0.33914700366E+02 -0.33938421448E+02  0.66814292386E+02  0.10000000000E+01 0.  0.
    9000005    1    3    3    0    0  0.46487915804E+02  0.33914700366E+02 -0.10760115151E+03  0.12202598503E+03  0.10000000000E+01 0.  0.
<mgrwt>
<rscale>  0 0.12500880E+03</rscale>
<asrwt>0</asrwt>
<pdfrwt beam="2">  1        4 0.25413834E-01 0.12500880E+03</pdfrwt>
<pdfrwt beam="1">  1       -4 0.36385158E-02 0.12500880E+03</pdfrwt>
<totfact> 0.92031354E+03</totfact>
</mgrwt>
</event>
<event>
 5    1  0.3217527E-002  0.1249925E+03  0.7818608E-02  0.1235081E+00
          4   -1    0    0  501    0  0.00000000000E+00  0.00000000000E+00  0.57971643855E+02  0.57985553298E+02  0.12700000000E+01 0.  1.
         -4   -1    0    0    0  501 -0.00000000000E+00 -0.00000000000E+00 -0.67346023867E+02  0.67357997526E+02  0.12700000000E+01 0.  1.
         25    2    1    2    0    0  0.00000000000E+00  0.00000000000E+00 -0.93743800117E+01  0.12534355082E+03  0.12499250671E+03 0.  0.
    9000005    1    3    3    0    0  0.10142773185E+02  0.58522536754E+02 -0.24158687895E+02  0.64128038773E+02  0.10000000000E+01 0.  0.
    9000005    1    3    3    0    0 -0.10142773185E+02 -0.58522536754E+02  0.14784307884E+02  0.61215512051E+02  0.10000000000E+01 0.  0.
<mgrwt>
<rscale>  0 0.12499251E+03</rscale>
<asrwt>0</asrwt>
<pdfrwt beam="1">  1        4 0.89207055E-02 0.12499251E+03</pdfrwt>
<pdfrwt beam="2">  1       -4 0.10362918E-01 0.12499251E+03</pdfrwt>
<totfact> 0.10447174E+04</totfact>
</mgrwt>
</event>
<event>
 5    1  0.3217527E-002  0.1249997E+03  0.7818608E-02  0.1235070E+00
         -4   -1    0    0    0  501 -0.00000000000E+00  0.00000000000E+00  0.85226092525E+02  0.85235554478E+02  0.12700000000E+01 0. -1.
          4   -1    0    0  501    0  0.00000000000E+00 -0.00000000000E+00 -0.45812946190E+02  0.45830545912E+02  0.12700000000E+01 0. -1.
         25    2    1    2    0    0  0.00000000000E+00  0.00000000000E+00  0.39413146336E+02  0.13106610039E+03  0.12499970627E+03 0.  0.
    9000005    1    3    3    0    0  0.19572402448E+02 -0.52885166945E+02  0.47945212298E+02  0.74024747232E+02  0.10000000000E+01 0.  0.
    9000005    1    3    3    0    0 -0.19572402448E+02  0.52885166945E+02 -0.85320659627E+01  0.57041353157E+02  0.10000000000E+01 0.  0.
<mgrwt>
<rscale>  0 0.12499971E+03</rscale>
<asrwt>0</asrwt>
<pdfrwt beam="2">  1        4 0.70502273E-02 0.12499971E+03</pdfrwt>
<pdfrwt beam="1">  1       -4 0.13113788E-01 0.12499971E+03</pdfrwt>
<totfact> 0.10321741E+04</totfact>
</mgrwt>
</event>
<event>
 5    1  0.3217527E-002  0.1249971E+03  0.7818608E-02  0.1235074E+00
          4   -1    0    0  501    0  0.00000000000E+00  0.00000000000E+00  0.20618512278E+02  0.20657588159E+02  0.12700000000E+01 0. -1.
         -4   -1    0    0    0  501 -0.00000000000E+00 -0.00000000000E+00 -0.18922411221E+03  0.18922837404E+03  0.12700000000E+01 0. -1.
         25    2    1    2    0    0  0.00000000000E+00  0.00000000000E+00 -0.16860559993E+03  0.20988596220E+03  0.12499707517E+03 0.  0.
    9000005    1    3    3    0    0 -0.96853047452E+01 -0.50825709200E+02 -0.25461212683E+02  0.57674354743E+02  0.10000000000E+01 0.  0.
    9000005    1    3    3    0    0  0.96853047452E+01  0.50825709200E+02 -0.14314438725E+03  0.15221160746E+03  0.10000000000E+01 0.  0.
<mgrwt>
<rscale>  0 0.12499708E+03</rscale>
<asrwt>0</asrwt>
<pdfrwt beam="1">  1        4 0.31754126E-02 0.12499708E+03</pdfrwt>
<pdfrwt beam="2">  1       -4 0.29114734E-01 0.12499708E+03</pdfrwt>
<totfact> 0.88500296E+03</totfact>
</mgrwt>
</event>
<event>
 5    1  0.3217527E-002  0.1249997E+03  0.7818608E-02  0.1235070E+00
          4   -1    0    0  501    0  0.00000000000E+00  0.00000000000E+00  0.73860981620E+02  0.73871899298E+02  0.12700000000E+01 0.  1.
         -4   -1    0    0    0  501 -0.00000000000E+00 -0.00000000000E+00 -0.52863828451E+02  0.52879081483E+02  0.12700000000E+01 0.  1.
         25    2    1    2    0    0  0.00000000000E+00  0.00000000000E+00  0.20997153169E+02  0.12675098078E+03  0.12499972275E+03 0.  0.
    9000005    1    3    3    0    0 -0.53348042187E+02 -0.10647415922E+02 -0.20687000170E+02  0.58209389681E+02  0.10000000000E+01 0.  0.
    9000005    1    3    3    0    0  0.53348042187E+02  0.10647415922E+02  0.41684153338E+02  0.68541591100E+02  0.10000000000E+01 0.  0.
<mgrwt>
<rscale>  0 0.12499972E+03</rscale>
<asrwt>0</asrwt>
<pdfrwt beam="1">  1        4 0.11365241E-01 0.12499972E+03</pdfrwt>
<pdfrwt beam="2">  1       -4 0.81349098E-02 0.12499972E+03</pdfrwt>
<totfact> 0.10414626E+04</totfact>
</mgrwt>
</event>
<event>
 5    1  0.3217527E-002  0.1250005E+03  0.7818608E-02  0.1235068E+00
          4   -1    0    0  501    0  0.00000000000E+00  0.00000000000E+00  0.96754371808E+02  0.96762706473E+02  0.12700000000E+01 0. -1.
         -4   -1    0    0    0  501 -0.00000000000E+00 -0.00000000000E+00 -0.40353135090E+02  0.40373114960E+02  0.12700000000E+01 0. -1.
         25    2    1    2    0    0  0.00000000000E+00  0.00000000000E+00  0.56401236718E+02  0.13713582143E+03  0.12500053607E+03 0.  0.
    9000005    1    3    3    0    0 -0.18767823433E+02  0.56583337615E+02  0.48765511215E+02  0.77025842262E+02  0.10000000000E+01 0.  0.
    9000005    1    3    3    0    0  0.18767823433E+02 -0.56583337615E+02  0.76357255024E+01  0.60109979171E+02  0.10000000000E+01 0.  0.
<mgrwt>
<rscale>  0 0.12500054E+03</rscale>
<asrwt>0</asrwt>
<pdfrwt beam="1">  1        4 0.14887466E-01 0.12500054E+03</pdfrwt>
<pdfrwt beam="2">  1       -4 0.62103527E-02 0.12500054E+03</pdfrwt>
<totfact> 0.10193123E+04</totfact>
</mgrwt>
</event>
<event>
 5    1  0.3217527E-002  0.1249963E+03  0.7818608E-02  0.1235075E+00
         -4   -1    0    0    0  501 -0.00000000000E+00  0.00000000000E+00  0.10502065010E+02  0.10578575966E+02  0.12700000000E+01 0.  1.
          4   -1    0    0  501    0  0.00000000000E+00 -0.00000000000E+00 -0.37050140234E+03  0.37050357898E+03  0.12700000000E+01 0.  1.
         25    2    1    2    0    0  0.00000000000E+00  0.00000000000E+00 -0.35999933733E+03  0.38108215495E+03  0.12499634370E+03 0.  0.
    9000005    1    3    3    0    0  0.27923204859E+01 -0.21458907115E+02 -0.12708334571E+01  0.21700155897E+02  0.10000000000E+01 0.  0.
    9000005    1    3    3    0    0 -0.27923204859E+01  0.21458907115E+02 -0.35872850388E+03  0.35938199905E+03  0.10000000000E+01 0.  0.
<mgrwt>
<rscale>  0 0.12499634E+03</rscale>
<asrwt>0</asrwt>
<pdfrwt beam="2">  1        4 0.57006259E-01 0.12499634E+03</pdfrwt>
<pdfrwt beam="1">  1       -4 0.16217555E-02 0.12499634E+03</pdfrwt>
<totfact> 0.66440627E+03</totfact>
</mgrwt>
</event>
<event>
 5    1  0.3217527E-002  0.1250010E+03  0.7818608E-02  0.1235068E+00
          4   -1    0    0  501    0  0.00000000000E+00  0.00000000000E+00  0.88230962447E+01  0.89140298038E+01  0.12700000000E+01 0.  1.
         -4   -1    0    0    0  501 -0.00000000000E+00 -0.00000000000E+00 -0.44037566729E+03  0.44037749857E+03  0.12700000000E+01 0.  1.
         25    2    1    2    0    0  0.00000000000E+00  0.00000000000E+00 -0.43155257105E+03  0.44929152837E+03  0.12500102354E+03 0.  0.
    9000005    1    3    3    0    0 -0.49990710209E+01  0.42196114794E+02 -0.51072045248E+02  0.66444387427E+02  0.10000000000E+01 0.  0.
    9000005    1    3    3    0    0  0.49990710209E+01 -0.42196114794E+02 -0.38048052580E+03  0.38284714094E+03  0.10000000000E+01 0.  0.
<mgrwt>
<rscale>  0 0.12500102E+03</rscale>
<asrwt>0</asrwt>
<pdfrwt beam="1">  1        4 0.13645355E-02 0.12500102E+03</pdfrwt>
<pdfrwt beam="2">  1       -4 0.67757221E-01 0.12500102E+03</pdfrwt>
<totfact> 0.60023873E+03</totfact>
</mgrwt>
</event>
<event>
 5    1  0.3217527E-002  0.1250163E+03  0.7818608E-02  0.1235044E+00
         -4   -1    0    0    0  501 -0.00000000000E+00  0.00000000000E+00  0.96829592104E+01  0.97658895688E+01  0.12700000000E+01 0.  1.
          4   -1    0    0  501    0  0.00000000000E+00 -0.00000000000E+00 -0.40171585275E+03  0.40171786026E+03  0.12700000000E+01 0.  1.
         25    2    1    2    0    0  0.00000000000E+00  0.00000000000E+00 -0.39203289354E+03  0.41148374983E+03  0.12501634595E+03 0.  0.
    9000005    1    3    3    0    0 -0.57309931647E+02 -0.83646319686E+01 -0.27333910602E+03  0.27940948841E+03  0.10000000000E+01 0.  0.
    9000005    1    3    3    0    0  0.57309931647E+02  0.83646319686E+01 -0.11869378752E+03  0.13207426142E+03  0.10000000000E+01 0.  0.
<mgrwt>
<rscale>  0 0.12501635E+03</rscale>
<asrwt>0</asrwt>
<pdfrwt beam="2">  1        4 0.61808960E-01 0.12501635E+03</pdfrwt>
<pdfrwt beam="1">  1       -4 0.14962200E-02 0.12501635E+03</pdfrwt>
<totfact> 0.63428136E+03</totfact>
</mgrwt>
</event>
<event>
 5    1  0.3217527E-002  0.1250005E+03  0.7818608E-02  0.1235069E+00
          4   -1    0    0  501    0  0.00000000000E+00  0.00000000000E+00  0.73237766261E+02  0.73248776829E+02  0.12700000000E+01 0. -1.
         -4   -1    0    0    0  501 -0.00000000000E+00 -0.00000000000E+00 -0.53314390737E+02  0.53329514901E+02  0.12700000000E+01 0. -1.
         25    2    1    2    0    0  0.00000000000E+00  0.00000000000E+00  0.19923375524E+02  0.12657829173E+03  0.12500049218E+03 0.  0.
    9000005    1    3    3    0    0  0.60542262842E+02  0.14287206063E+02  0.16019752403E+02  0.64242682962E+02  0.10000000000E+01 0.  0.
    9000005    1    3    3    0    0 -0.60542262842E+02 -0.14287206063E+02  0.39036231219E+01  0.62335608769E+02  0.10000000000E+01 0.  0.
<mgrwt>
<rscale>  0 0.12500049E+03</rscale>
<asrwt>0</asrwt>
<pdfrwt beam="1">  1        4 0.11269359E-01 0.12500049E+03</pdfrwt>
<pdfrwt beam="2">  1       -4 0.82042243E-02 0.12500049E+03</pdfrwt>
<totfact> 0.10418206E+04</totfact>
</mgrwt>
</event>
<event>
 5    1  0.3217527E-002  0.1250233E+03  0.7818608E-02  0.1235033E+00
         -4   -1    0    0    0  501 -0.00000000000E+00  0.00000000000E+00  0.12253907564E+03  0.12254565663E+03  0.12700000000E+01 0. -1.
          4   -1    0    0  501    0  0.00000000000E+00 -0.00000000000E+00 -0.31869389766E+02  0.31894684574E+02  0.12700000000E+01 0. -1.
         25    2    1    2    0    0  0.00000000000E+00  0.00000000000E+00  0.90669685871E+02  0.15444034120E+03  0.12502330604E+03 0.  0.
    9000005    1    3    3    0    0 -0.34390854864E+02  0.14729638319E+01 -0.19111514607E+02  0.39384648168E+02  0.10000000000E+01 0.  0.
    9000005    1    3    3    0    0  0.34390854864E+02 -0.14729638319E+01  0.10978120048E+03  0.11505569303E+03  0.10000000000E+01 0.  0.
<mgrwt>
<rscale>  0 0.12502331E+03</rscale>
<asrwt>0</asrwt>
<pdfrwt beam="2">  1        4 0.49054350E-02 0.12502331E+03</pdfrwt>
<pdfrwt beam="1">  1       -4 0.18854618E-01 0.12502331E+03</pdfrwt>
<totfact> 0.98373904E+03</totfact>
</mgrwt>
</event>
<event>
 5    1  0.3217527E-002  0.1250010E+03  0.7818608E-02  0.1235068E+00
          4   -1    0    0  501    0  0.00000000000E+00  0.00000000000E+00  0.79856958386E+02  0.79867056429E+02  0.12700000000E+01 0.  1.
         -4   -1    0    0    0  501 -0.00000000000E+00 -0.00000000000E+00 -0.48894902578E+02  0.48911393337E+02  0.12700000000E+01 0.  1.
         25    2    1    2    0    0  0.00000000000E+00  0.00000000000E+00  0.30962055808E+02  0.12877844977E+03  0.12500096089E+03 0.  0.
    9000005    1    3    3    0    0 -0.73943723627E+01  0.56622304696E+01  0.79143039779E+02  0.79695409793E+02  0.10000000000E+01 0.  0.
    9000005    1    3    3    0    0  0.73943723627E+01 -0.56622304696E+01 -0.48180983972E+02  0.49083039973E+02  0.10000000000E+01 0.  0.
<mgrwt>
<rscale>  0 0.12500096E+03</rscale>
<asrwt>0</asrwt>
<pdfrwt beam="1">  1        4 0.12287731E-01 0.12500096E+03</pdfrwt>
<pdfrwt beam="2">  1       -4 0.75243380E-02 0.12500096E+03</pdfrwt>
<totfact> 0.10370485E+04</totfact>
</mgrwt>
</event>
<event>
 5    1  0.3217527E-002  0.1249976E+03  0.7818608E-02  0.1235073E+00
         -4   -1    0    0    0  501 -0.00000000000E+00  0.00000000000E+00  0.27988203524E+02  0.28017002633E+02  0.12700000000E+01 0. -1.
          4   -1    0    0  501    0  0.00000000000E+00 -0.00000000000E+00 -0.13945886899E+03  0.13946465158E+03  0.12700000000E+01 0. -1.
         25    2    1    2    0    0  0.00000000000E+00  0.00000000000E+00 -0.11147066547E+03  0.16748165421E+03  0.12499758093E+03 0.  0.
    9000005    1    3    3    0    0 -0.15187985207E+02 -0.54174286636E+02 -0.92173409592E+02  0.10799289635E+03  0.10000000000E+01 0.  0.
    9000005    1    3    3    0    0  0.15187985207E+02  0.54174286636E+02 -0.19297255874E+02  0.59488757858E+02  0.10000000000E+01 0.  0.
<mgrwt>
<rscale>  0 0.12499758E+03</rscale>
<asrwt>0</asrwt>
<pdfrwt beam="2">  1        4 0.21457870E-01 0.12499758E+03</pdfrwt>
<pdfrwt beam="1">  1       -4 0.43085377E-02 0.12499758E+03</pdfrwt>
<totfact> 0.95924672E+03</totfact>
</mgrwt>
</event>
<event>
 5    1  0.3217527E-002  0.1249901E+03  0.7818608E-02  0.1235085E+00
         -4   -1    0    0    0  501 -0.00000000000E+00  0.00000000000E+00  0.92702808425E+01  0.93568695031E+01  0.12700000000E+01 0.  1.
          4   -1    0    0  501    0  0.00000000000E+00 -0.00000000000E+00 -0.41926099643E+03  0.41926291993E+03  0.12700000000E+01 0.  1.
         25    2    1    2    0    0  0.00000000000E+00  0.00000000000E+00 -0.40999071559E+03  0.42861978944E+03  0.12499014771E+03 0.  0.
    9000005    1    3    3    0    0  0.41648058734E+02  0.38185395350E+02 -0.11349540031E+03  0.12678679390E+03  0.10000000000E+01 0.  0.
    9000005    1    3    3    0    0 -0.41648058734E+02 -0.38185395350E+02 -0.29649531528E+03  0.30183299554E+03  0.10000000000E+01 0.  0.
<mgrwt>
<rscale>  0 0.12499015E+03</rscale>
<asrwt>0</asrwt>
<pdfrwt beam="2">  1        4 0.64508486E-01 0.12499015E+03</pdfrwt>
<pdfrwt beam="1">  1       -4 0.14330060E-02 0.12499015E+03</pdfrwt>
<totfact> 0.61874746E+03</totfact>
</mgrwt>
</event>
<event>
 5    1  0.3217527E-002  0.1250024E+03  0.7818608E-02  0.1235066E+00
         -4   -1    0    0    0  501 -0.00000000000E+00  0.00000000000E+00  0.84629113297E+02  0.84638641988E+02  0.12700000000E+01 0.  1.
          4   -1    0    0  501    0  0.00000000000E+00 -0.00000000000E+00 -0.46138170774E+02  0.46155646484E+02  0.12700000000E+01 0.  1.
         25    2    1    2    0    0  0.00000000000E+00  0.00000000000E+00  0.38490942524E+02  0.13079428847E+03  0.12500237294E+03 0.  0.
    9000005    1    3    3    0    0  0.19278614989E+02 -0.58546494339E+02  0.30020242898E+02  0.68568009880E+02  0.10000000000E+01 0.  0.
    9000005    1    3    3    0    0 -0.19278614989E+02  0.58546494339E+02  0.84706996260E+01  0.62226278592E+02  0.10000000000E+01 0.  0.
<mgrwt>
<rscale>  0 0.12500237E+03</rscale>
<asrwt>0</asrwt>
<pdfrwt beam="2">  1        4 0.71002574E-02 0.12500237E+03</pdfrwt>
<pdfrwt beam="1">  1       -4 0.13021941E-01 0.12500237E+03</pdfrwt>
<totfact> 0.10326949E+04</totfact>
</mgrwt>
</event>
<event>
 5    1  0.3217527E-002  0.1250004E+03  0.7818608E-02  0.1235069E+00
          4   -1    0    0  501    0  0.00000000000E+00  0.00000000000E+00  0.51671289049E+02  0.51686894006E+02  0.12700000000E+01 0.  1.
         -4   -1    0    0    0  501 -0.00000000000E+00 -0.00000000000E+00 -0.75566243622E+02  0.75576914962E+02  0.12700000000E+01 0.  1.
         25    2    1    2    0    0  0.00000000000E+00  0.00000000000E+00 -0.23894954573E+02  0.12726380897E+03  0.12500043287E+03 0.  0.
    9000005    1    3    3    0    0  0.20847384685E+02  0.57878982398E+02 -0.76279500202E+00  0.61531877168E+02  0.10000000000E+01 0.  0.
    9000005    1    3    3    0    0 -0.20847384685E+02 -0.57878982398E+02 -0.23132159571E+02  0.65731931799E+02  0.10000000000E+01 0.  0.
<mgrwt>
<rscale>  0 0.12500043E+03</rscale>
<asrwt>0</asrwt>
<pdfrwt beam="1">  1        4 0.79514503E-02 0.12500043E+03</pdfrwt>
<pdfrwt beam="2">  1       -4 0.11627597E-01 0.12500043E+03</pdfrwt>
<totfact> 0.10403318E+04</totfact>
</mgrwt>
</event>
<event>
 5    1  0.3217527E-002  0.1250023E+03  0.7818608E-02  0.1235066E+00
          4   -1    0    0  501    0  0.00000000000E+00  0.00000000000E+00  0.81406590850E+01  0.82391280084E+01  0.12700000000E+01 0. -1.
         -4   -1    0    0    0  501 -0.00000000000E+00 -0.00000000000E+00 -0.47687773098E+03  0.47687942208E+03  0.12700000000E+01 0. -1.
         25    2    1    2    0    0  0.00000000000E+00  0.00000000000E+00 -0.46873707190E+03  0.48511855009E+03  0.12500226027E+03 0.  0.
    9000005    1    3    3    0    0 -0.26598025753E+02 -0.51242661380E+02 -0.14154121032E+03  0.15286654159E+03  0.10000000000E+01 0.  0.
    9000005    1    3    3    0    0  0.26598025753E+02  0.51242661380E+02 -0.32719586157E+03  0.33225200850E+03  0.10000000000E+01 0.  0.
<mgrwt>
<rscale>  0 0.12500226E+03</rscale>
<asrwt>0</asrwt>
<pdfrwt beam="1">  1        4 0.12601141E-02 0.12500226E+03</pdfrwt>
<pdfrwt beam="2">  1       -4 0.73373488E-01 0.12500226E+03</pdfrwt>
<totfact> 0.57034930E+03</totfact>
</mgrwt>
</event>
<event>
 5    1  0.3217527E-002  0.1250045E+03  0.7818608E-02  0.1235062E+00
         -4   -1    0    0    0  501 -0.00000000000E+00  0.00000000000E+00  0.52046167302E+02  0.52061659893E+02  0.12700000000E+01 0.  1.
          4   -1    0    0  501    0  0.00000000000E+00 -0.00000000000E+00 -0.75026959141E+02  0.75037707174E+02  0.12700000000E+01 0.  1.
         25    2    1    2    0    0  0.00000000000E+00  0.00000000000E+00 -0.22980791839E+02  0.12709936707E+03  0.12500452918E+03 0.  0.
    9000005    1    3    3    0    0 -0.47863951054E+02 -0.10437304804E+02 -0.50943203432E+02  0.70683131778E+02  0.10000000000E+01 0.  0.
    9000005    1    3    3    0    0  0.47863951054E+02  0.10437304804E+02  0.27962411592E+02  0.56416235289E+02  0.10000000000E+01 0.  0.
<mgrwt>
<rscale>  0 0.12500453E+03</rscale>
<asrwt>0</asrwt>
<pdfrwt beam="2">  1        4 0.11544628E-01 0.12500453E+03</pdfrwt>
<pdfrwt beam="1">  1       -4 0.80091212E-02 0.12500453E+03</pdfrwt>
<totfact> 0.10405924E+04</totfact>
</mgrwt>
</event>
<event>
 5    1  0.3217527E-002  0.1249914E+03  0.7818608E-02  0.1235083E+00
          4   -1    0    0  501    0  0.00000000000E+00  0.00000000000E+00  0.30481440937E+03  0.30481705507E+03  0.12700000000E+01 0.  1.
         -4   -1    0    0    0  501 -0.00000000000E+00 -0.00000000000E+00 -0.12779233153E+02  0.12842184393E+02  0.12700000000E+01 0.  1.
         25    2    1    2    0    0  0.00000000000E+00  0.00000000000E+00  0.29203517622E+03  0.31765923946E+03  0.12499139277E+03 0.  0.
    9000005    1    3    3    0    0  0.44896849073E+02  0.35352093117E+02  0.81762917598E+02  0.99758068539E+02  0.10000000000E+01 0.  0.
    9000005    1    3    3    0    0 -0.44896849073E+02 -0.35352093117E+02  0.21027225862E+03  0.21790117093E+03  0.10000000000E+01 0.  0.
<mgrwt>
<rscale>  0 0.12499139E+03</rscale>
<asrwt>0</asrwt>
<pdfrwt beam="1">  1        4 0.46899570E-01 0.12499139E+03</pdfrwt>
<pdfrwt beam="2">  1       -4 0.19710818E-02 0.12499139E+03</pdfrwt>
<totfact> 0.73449408E+03</totfact>
</mgrwt>
</event>
<event>
 5    1  0.3217527E-002  0.1250080E+03  0.7818608E-02  0.1235057E+00
          4   -1    0    0  501    0  0.00000000000E+00  0.00000000000E+00  0.83528883322E+02  0.83538537509E+02  0.12700000000E+01 0.  1.
         -4   -1    0    0    0  501 -0.00000000000E+00 -0.00000000000E+00 -0.46750261967E+02  0.46767508957E+02  0.12700000000E+01 0.  1.
         25    2    1    2    0    0  0.00000000000E+00  0.00000000000E+00  0.36778621355E+02  0.13030604647E+03  0.12500799477E+03 0.  0.
    9000005    1    3    3    0    0  0.72525332068E+01  0.61262548094E+02  0.79628540290E+01  0.62210176668E+02  0.10000000000E+01 0.  0.
    9000005    1    3    3    0    0 -0.72525332068E+01 -0.61262548094E+02  0.28815767326E+02  0.68095869797E+02  0.10000000000E+01 0.  0.
<mgrwt>
<rscale>  0 0.12500799E+03</rscale>
<asrwt>0</asrwt>
<pdfrwt beam="1">  1        4 0.12852667E-01 0.12500799E+03</pdfrwt>
<pdfrwt beam="2">  1       -4 0.71944174E-02 0.12500799E+03</pdfrwt>
<totfact> 0.10336100E+04</totfact>
</mgrwt>
</event>
<event>
 5    1  0.3217527E-002  0.1249913E+03  0.7818608E-02  0.1235083E+00
         -4   -1    0    0    0  501 -0.00000000000E+00  0.00000000000E+00  0.57289185660E+02  0.57303260759E+02  0.12700000000E+01 0. -1.
          4   -1    0    0  501    0  0.00000000000E+00 -0.00000000000E+00 -0.68146869524E+02  0.68158702496E+02  0.12700000000E+01 0. -1.
         25    2    1    2    0    0  0.00000000000E+00  0.00000000000E+00 -0.10857683864E+02  0.12546196325E+03  0.12499125939E+03 0.  0.
    9000005    1    3    3    0    0  0.27511860939E+02 -0.20999248362E+02 -0.57652002381E+02  0.67250459498E+02  0.10000000000E+01 0.  0.
    9000005    1    3    3    0    0 -0.27511860939E+02  0.20999248362E+02  0.46794318518E+02  0.58211503757E+02  0.10000000000E+01 0.  0.
<mgrwt>
<rscale>  0 0.12499126E+03</rscale>
<asrwt>0</asrwt>
<pdfrwt beam="2">  1        4 0.10486127E-01 0.12499126E+03</pdfrwt>
<pdfrwt beam="1">  1       -4 0.88157138E-02 0.12499126E+03</pdfrwt>
<totfact> 0.10444854E+04</totfact>
</mgrwt>
</event>
<event>
 5    1  0.3217527E-002  0.1250003E+03  0.7818608E-02  0.1235069E+00
          4   -1    0    0  501    0  0.00000000000E+00  0.00000000000E+00  0.26000895293E+02  0.26031893055E+02  0.12700000000E+01 0. -1.
         -4   -1    0    0    0  501 -0.00000000000E+00 -0.00000000000E+00 -0.15011263383E+03  0.15011800603E+03  0.12700000000E+01 0. -1.
         25    2    1    2    0    0  0.00000000000E+00  0.00000000000E+00 -0.12411173854E+03  0.17614989909E+03  0.12500025322E+03 0.  0.
    9000005    1    3    3    0    0  0.15248242223E+02  0.50008816717E+02 -0.13815326545E+02  0.54085616275E+02  0.10000000000E+01 0.  0.
    9000005    1    3    3    0    0 -0.15248242223E+02 -0.50008816717E+02 -0.11029641199E+03  0.12206428281E+03  0.10000000000E+01 0.  0.
<mgrwt>
<rscale>  0 0.12500025E+03</rscale>
<asrwt>0</asrwt>
<pdfrwt beam="1">  1        4 0.40029355E-02 0.12500025E+03</pdfrwt>
<pdfrwt beam="2">  1       -4 0.23097049E-01 0.12500025E+03</pdfrwt>
<totfact> 0.94314125E+03</totfact>
</mgrwt>
</event>
<event>
 5    1  0.3217527E-002  0.1250021E+03  0.7818608E-02  0.1235066E+00
          4   -1    0    0  501    0  0.00000000000E+00  0.00000000000E+00  0.15939120056E+02  0.15989635648E+02  0.12700000000E+01 0. -1.
         -4   -1    0    0    0  501 -0.00000000000E+00 -0.00000000000E+00 -0.24464128308E+03  0.24464457951E+03  0.12700000000E+01 0. -1.
         25    2    1    2    0    0  0.00000000000E+00  0.00000000000E+00 -0.22870216302E+03  0.26063421516E+03  0.12500205895E+03 0.  0.
    9000005    1    3    3    0    0  0.71401071563E+01 -0.58088330255E+02 -0.16003883067E+03  0.17040734305E+03  0.10000000000E+01 0.  0.
    9000005    1    3    3    0    0 -0.71401071563E+01  0.58088330255E+02 -0.68663332349E+02  0.90226872112E+02  0.10000000000E+01 0.  0.
<mgrwt>
<rscale>  0 0.12500206E+03</rscale>
<asrwt>0</asrwt>
<pdfrwt beam="1">  1        4 0.24563119E-02 0.12500206E+03</pdfrwt>
<pdfrwt beam="2">  1       -4 0.37641257E-01 0.12500206E+03</pdfrwt>
<totfact> 0.80813437E+03</totfact>
</mgrwt>
</event>
<event>
 5    1  0.3217527E-002  0.1249990E+03  0.7818608E-02  0.1235071E+00
          4   -1    0    0  501    0  0.00000000000E+00  0.00000000000E+00  0.24221865739E+01  0.27349383538E+01  0.12700000000E+01 0.  1.
         -4   -1    0    0    0  501 -0.00000000000E+00 -0.00000000000E+00 -0.15145580712E+04  0.15145586037E+04  0.12700000000E+01 0.  1.
         25    2    1    2    0    0  0.00000000000E+00  0.00000000000E+00 -0.15121358847E+04  0.15172935420E+04  0.12499903631E+03 0.  0.
    9000005    1    3    3    0    0 -0.32013799124E+01 -0.54641421613E+02 -0.39004692168E+03  0.39386994668E+03  0.10000000000E+01 0.  0.
    9000005    1    3    3    0    0  0.32013799124E+01  0.54641421613E+02 -0.11220889630E+04  0.11234235954E+04  0.10000000000E+01 0.  0.
<mgrwt>
<rscale>  0 0.12499904E+03</rscale>
<asrwt>0</asrwt>
<pdfrwt beam="1">  1        4 0.39674409E-03 0.12499904E+03</pdfrwt>
<pdfrwt beam="2">  1       -4 0.23303232E+00 0.12499904E+03</pdfrwt>
<totfact> 0.17593407E+03</totfact>
</mgrwt>
</event>
<event>
 5    1  0.3217527E-002  0.1250005E+03  0.7818608E-02  0.1235069E+00
          4   -1    0    0  501    0  0.00000000000E+00  0.00000000000E+00  0.18108285651E+03  0.18108730994E+03  0.12700000000E+01 0.  1.
         -4   -1    0    0    0  501 -0.00000000000E+00 -0.00000000000E+00 -0.21548368698E+02  0.21585761361E+02  0.12700000000E+01 0.  1.
         25    2    1    2    0    0  0.00000000000E+00  0.00000000000E+00  0.15953448781E+03  0.20267307130E+03  0.12500048412E+03 0.  0.
    9000005    1    3    3    0    0  0.29877638995E+02  0.22549176551E+02  0.16090328138E+03  0.16520291957E+03  0.10000000000E+01 0.  0.
    9000005    1    3    3    0    0 -0.29877638995E+02 -0.22549176551E+02 -0.13687935692E+01  0.37470151733E+02  0.10000000000E+01 0.  0.
<mgrwt>
<rscale>  0 0.12500048E+03</rscale>
<asrwt>0</asrwt>
<pdfrwt beam="1">  1        4 0.27862119E-01 0.12500048E+03</pdfrwt>
<pdfrwt beam="2">  1       -4 0.33183527E-02 0.12500048E+03</pdfrwt>
<totfact> 0.89685651E+03</totfact>
</mgrwt>
</event>
<event>
 5    1  0.3217527E-002  0.1249993E+03  0.7818608E-02  0.1235070E+00
         -4   -1    0    0    0  501 -0.00000000000E+00  0.00000000000E+00  0.20020807450E+03  0.20021210252E+03  0.12700000000E+01 0. -1.
          4   -1    0    0  501    0  0.00000000000E+00 -0.00000000000E+00 -0.19485839732E+02  0.19527182338E+02  0.12700000000E+01 0. -1.
         25    2    1    2    0    0  0.00000000000E+00  0.00000000000E+00  0.18072223477E+03  0.21973928486E+03  0.12499930868E+03 0.  0.
    9000005    1    3    3    0    0  0.50886657881E+02 -0.22198443216E+02  0.14079190854E+03  0.15134590956E+03  0.10000000000E+01 0.  0.
    9000005    1    3    3    0    0 -0.50886657881E+02  0.22198443216E+02  0.39930326234E+02  0.68393375298E+02  0.10000000000E+01 0.  0.
<mgrwt>
<rscale>  0 0.12499931E+03</rscale>
<asrwt>0</asrwt>
<pdfrwt beam="2">  1        4 0.30013115E-02 0.12499931E+03</pdfrwt>
<pdfrwt beam="1">  1       -4 0.30804733E-01 0.12499931E+03</pdfrwt>
<totfact> 0.86910962E+03</totfact>
</mgrwt>
</event>
<event>
 5    1  0.3217527E-002  0.1249954E+03  0.7818608E-02  0.1235076E+00
         -4   -1    0    0    0  501 -0.00000000000E+00  0.00000000000E+00  0.90721813453E+02  0.90730702280E+02  0.12700000000E+01 0.  1.
          4   -1    0    0  501    0  0.00000000000E+00 -0.00000000000E+00 -0.43033930437E+02  0.43052666222E+02  0.12700000000E+01 0.  1.
         25    2    1    2    0    0  0.00000000000E+00  0.00000000000E+00  0.47687883016E+02  0.13378336850E+03  0.12499542192E+03 0.  0.
    9000005    1    3    3    0    0 -0.54100567541E+02  0.26178064738E+02  0.55294616197E+01  0.60363378198E+02  0.10000000000E+01 0.  0.
    9000005    1    3    3    0    0  0.54100567541E+02 -0.26178064738E+02  0.42158421396E+02  0.73419990304E+02  0.10000000000E+01 0.  0.
<mgrwt>
<rscale>  0 0.12499542E+03</rscale>
<asrwt>0</asrwt>
<pdfrwt beam="2">  1        4 0.66227297E-02 0.12499542E+03</pdfrwt>
<pdfrwt beam="1">  1       -4 0.13959327E-01 0.12499542E+03</pdfrwt>
<totfact> 0.10264838E+04</totfact>
</mgrwt>
</event>
<event>
 5    1  0.3217527E-002  0.1250016E+03  0.7818608E-02  0.1235067E+00
          4   -1    0    0  501    0  0.00000000000E+00  0.00000000000E+00  0.47358901237E+02  0.47375926654E+02  0.12700000000E+01 0.  1.
         -4   -1    0    0    0  501 -0.00000000000E+00 -0.00000000000E+00 -0.82447220119E+02  0.82457000948E+02  0.12700000000E+01 0.  1.
         25    2    1    2    0    0  0.00000000000E+00  0.00000000000E+00 -0.35088318882E+02  0.12983292760E+03  0.12500159586E+03 0.  0.
    9000005    1    3    3    0    0 -0.23600074284E+02  0.13269820316E+02 -0.76044216329E+02  0.80726541326E+02  0.10000000000E+01 0.  0.
    9000005    1    3    3    0    0  0.23600074284E+02 -0.13269820316E+02  0.40955897446E+02  0.49106386276E+02  0.10000000000E+01 0.  0.
<mgrwt>
<rscale>  0 0.12500160E+03</rscale>
<asrwt>0</asrwt>
<pdfrwt beam="1">  1        4 0.72880468E-02 0.12500160E+03</pdfrwt>
<pdfrwt beam="2">  1       -4 0.12686250E-01 0.12500160E+03</pdfrwt>
<totfact> 0.10347710E+04</totfact>
</mgrwt>
</event>
<event>
 5    1  0.3217527E-002  0.1250048E+03  0.7818608E-02  0.1235062E+00
          4   -1    0    0  501    0  0.00000000000E+00  0.00000000000E+00  0.43253841624E+01  0.45079760594E+01  0.12700000000E+01 0. -1.
         -4   -1    0    0    0  501 -0.00000000000E+00 -0.00000000000E+00 -0.88431670350E+03  0.88431761545E+03  0.12700000000E+01 0. -1.
         25    2    1    2    0    0  0.00000000000E+00  0.00000000000E+00 -0.87999131934E+03  0.88882559150E+03  0.12500483993E+03 0.  0.
    9000005    1    3    3    0    0  0.72211010585E+01 -0.47422587309E+02 -0.72480908111E+03  0.72639538142E+03  0.10000000000E+01 0.  0.
    9000005    1    3    3    0    0 -0.72211010585E+01  0.47422587309E+02 -0.15518223823E+03  0.16243021009E+03  0.10000000000E+01 0.  0.
<mgrwt>
<rscale>  0 0.12500484E+03</rscale>
<asrwt>0</asrwt>
<pdfrwt beam="1">  1        4 0.67956010E-03 0.12500484E+03</pdfrwt>
<pdfrwt beam="2">  1       -4 0.13606270E+00 0.12500484E+03</pdfrwt>
<totfact> 0.34585373E+03</totfact>
</mgrwt>
</event>
<event>
 5    1  0.3217527E-002  0.1250005E+03  0.7818608E-02  0.1235069E+00
          4   -1    0    0  501    0  0.00000000000E+00  0.00000000000E+00  0.97105469026E+01  0.97932436479E+01  0.12700000000E+01 0.  1.
         -4   -1    0    0    0  501 -0.00000000000E+00 -0.00000000000E+00 -0.40048262010E+03  0.40048463379E+03  0.12700000000E+01 0.  1.
         25    2    1    2    0    0  0.00000000000E+00  0.00000000000E+00 -0.39077207320E+03  0.41027787744E+03  0.12500049410E+03 0.  0.
    9000005    1    3    3    0    0  0.59263279631E+02 -0.30480558701E+01 -0.25969172068E+03  0.26638734345E+03  0.10000000000E+01 0.  0.
    9000005    1    3    3    0    0 -0.59263279631E+02  0.30480558701E+01 -0.13108035252E+03  0.14389053399E+03  0.10000000000E+01 0.  0.
<mgrwt>
<rscale>  0 0.12500049E+03</rscale>
<asrwt>0</asrwt>
<pdfrwt beam="1">  1        4 0.15004468E-02 0.12500049E+03</pdfrwt>
<pdfrwt beam="2">  1       -4 0.61619214E-01 0.12500049E+03</pdfrwt>
<totfact> 0.63564614E+03</totfact>
</mgrwt>
</event>
<event>
 5    1  0.3217527E-002  0.1249985E+03  0.7818608E-02  0.1235072E+00
         -4   -1    0    0    0  501 -0.00000000000E+00  0.00000000000E+00  0.27472490676E+02  0.27501829829E+02  0.12700000000E+01 0.  1.
          4   -1    0    0  501    0  0.00000000000E+00 -0.00000000000E+00 -0.14207619182E+03  0.14208186789E+03  0.12700000000E+01 0.  1.
         25    2    1    2    0    0  0.00000000000E+00  0.00000000000E+00 -0.11460370115E+03  0.16958369772E+03  0.12499848885E+03 0.  0.
    9000005    1    3    3    0    0  0.13799382073E+02  0.59111090769E+02 -0.37150996078E+02  0.71174015674E+02  0.10000000000E+01 0.  0.
    9000005    1    3    3    0    0 -0.13799382073E+02 -0.59111090769E+02 -0.77452705068E+02  0.98409682043E+02  0.10000000000E+01 0.  0.
<mgrwt>
<rscale>  0 0.12499849E+03</rscale>
<asrwt>0</asrwt>
<pdfrwt beam="2">  1        4 0.21860569E-01 0.12499849E+03</pdfrwt>
<pdfrwt beam="1">  1       -4 0.42292306E-02 0.12499849E+03</pdfrwt>
<totfact> 0.95529527E+03</totfact>
</mgrwt>
</event>
<event>
 5    1  0.3217527E-002  0.1249978E+03  0.7818608E-02  0.1235073E+00
          4   -1    0    0  501    0  0.00000000000E+00  0.00000000000E+00  0.71557516783E+02  0.71568785851E+02  0.12700000000E+01 0. -1.
         -4   -1    0    0    0  501 -0.00000000000E+00 -0.00000000000E+00 -0.54564035797E+02  0.54578813677E+02  0.12700000000E+01 0. -1.
         25    2    1    2    0    0  0.00000000000E+00  0.00000000000E+00  0.16993480987E+02  0.12614759953E+03  0.12499775386E+03 0.  0.
    9000005    1    3    3    0    0  0.49788098551E+02  0.37142484108E+02  0.15392659234E+02  0.64002756514E+02  0.10000000000E+01 0.  0.
    9000005    1    3    3    0    0 -0.49788098551E+02 -0.37142484108E+02  0.16008217528E+01  0.62144843015E+02  0.10000000000E+01 0.  0.
<mgrwt>
<rscale>  0 0.12499775E+03</rscale>
<asrwt>0</asrwt>
<pdfrwt beam="1">  1        4 0.11010852E-01 0.12499775E+03</pdfrwt>
<pdfrwt beam="2">  1       -4 0.83964707E-02 0.12499775E+03</pdfrwt>
<totfact> 0.10428254E+04</totfact>
</mgrwt>
</event>
<event>
 5    1  0.3217527E-002  0.1250020E+03  0.7818608E-02  0.1235066E+00
          4   -1    0    0  501    0  0.00000000000E+00  0.00000000000E+00  0.83724197375E+01  0.84681941559E+01  0.12700000000E+01 0. -1.
         -4   -1    0    0    0  501 -0.00000000000E+00 -0.00000000000E+00 -0.46382617856E+03  0.46382791725E+03  0.12700000000E+01 0. -1.
         25    2    1    2    0    0  0.00000000000E+00  0.00000000000E+00 -0.45545375882E+03  0.47229611140E+03  0.12500196167E+03 0.  0.
    9000005    1    3    3    0    0 -0.55161043326E+02  0.24263178801E+02 -0.16519270987E+03  0.17584389082E+03  0.10000000000E+01 0.  0.
    9000005    1    3    3    0    0  0.55161043326E+02 -0.24263178801E+02 -0.29026104896E+03  0.29645222058E+03  0.10000000000E+01 0.  0.
<mgrwt>
<rscale>  0 0.12500196E+03</rscale>
<asrwt>0</asrwt>
<pdfrwt beam="1">  1        4 0.12955659E-02 0.12500196E+03</pdfrwt>
<pdfrwt beam="2">  1       -4 0.71365355E-01 0.12500196E+03</pdfrwt>
<totfact> 0.58077297E+03</totfact>
</mgrwt>
</event>
<event>
 5    1  0.3217527E-002  0.1250034E+03  0.7818608E-02  0.1235064E+00
          4   -1    0    0  501    0  0.00000000000E+00  0.00000000000E+00  0.34085504809E+03  0.34085741405E+03  0.12700000000E+01 0. -1.
         -4   -1    0    0    0  501 -0.00000000000E+00 -0.00000000000E+00 -0.11423174889E+02  0.11493555783E+02  0.12700000000E+01 0. -1.
         25    2    1    2    0    0  0.00000000000E+00  0.00000000000E+00  0.32943187320E+03  0.35235096983E+03  0.12500338738E+03 0.  0.
    9000005    1    3    3    0    0 -0.20211096746E+02  0.14320446976E+02  0.32644083232E+03  0.32738078844E+03  0.10000000000E+01 0.  0.
    9000005    1    3    3    0    0  0.20211096746E+02 -0.14320446976E+02  0.29910408872E+01  0.24970181394E+02  0.10000000000E+01 0.  0.
<mgrwt>
<rscale>  0 0.12500339E+03</rscale>
<asrwt>0</asrwt>
<pdfrwt beam="1">  1        4 0.52444834E-01 0.12500339E+03</pdfrwt>
<pdfrwt beam="2">  1       -4 0.17630074E-02 0.12500339E+03</pdfrwt>
<totfact> 0.69461484E+03</totfact>
</mgrwt>
</event>
<event>
 5    1  0.3217527E-002  0.1250045E+03  0.7818608E-02  0.1235062E+00
         -4   -1    0    0    0  501 -0.00000000000E+00  0.00000000000E+00  0.50161197678E+02  0.50177272271E+02  0.12700000000E+01 0. -1.
          4   -1    0    0  501    0  0.00000000000E+00 -0.00000000000E+00 -0.77845862957E+02  0.77856221842E+02  0.12700000000E+01 0. -1.
         25    2    1    2    0    0  0.00000000000E+00  0.00000000000E+00 -0.27684665279E+02  0.12803349411E+03  0.12500453961E+03 0.  0.
    9000005    1    3    3    0    0 -0.41537489008E+02  0.43555397366E+02 -0.31075546939E+02  0.67743082676E+02  0.10000000000E+01 0.  0.
    9000005    1    3    3    0    0  0.41537489008E+02 -0.43555397366E+02  0.33908816598E+01  0.60290411437E+02  0.10000000000E+01 0.  0.
<mgrwt>
<rscale>  0 0.12500454E+03</rscale>
<asrwt>0</asrwt>
<pdfrwt beam="2">  1        4 0.11978320E-01 0.12500454E+03</pdfrwt>
<pdfrwt beam="1">  1       -4 0.77191407E-02 0.12500454E+03</pdfrwt>
<totfact> 0.10385700E+04</totfact>
</mgrwt>
</event>
<event>
 5    1  0.3217527E-002  0.1250031E+03  0.7818608E-02  0.1235064E+00
         -4   -1    0    0    0  501 -0.00000000000E+00  0.00000000000E+00  0.46582023475E+03  0.46582196600E+03  0.12700000000E+01 0. -1.
          4   -1    0    0  501    0  0.00000000000E+00 -0.00000000000E+00 -0.83363272549E+01  0.84325116128E+01  0.12700000000E+01 0. -1.
         25    2    1    2    0    0  0.00000000000E+00  0.00000000000E+00  0.45748390750E+03  0.47425447761E+03  0.12500313561E+03 0.  0.
    9000005    1    3    3    0    0 -0.75439506147E+01  0.61610518956E+02  0.20120548614E+03  0.21056451480E+03  0.10000000000E+01 0.  0.
    9000005    1    3    3    0    0  0.75439506147E+01 -0.61610518956E+02  0.25627842135E+03  0.26368996281E+03  0.10000000000E+01 0.  0.
<mgrwt>
<rscale>  0 0.12500314E+03</rscale>
<asrwt>0</asrwt>
<pdfrwt beam="2">  1        4 0.12900439E-02 0.12500314E+03</pdfrwt>
<pdfrwt beam="1">  1       -4 0.71672180E-01 0.12500314E+03</pdfrwt>
<totfact> 0.57914742E+03</totfact>
</mgrwt>
</event>
<event>
 5    1  0.3217527E-002  0.1249911E+03  0.7818608E-02  0.1235083E+00
          4   -1    0    0  501    0  0.00000000000E+00  0.00000000000E+00  0.41729432918E+03  0.41729626174E+03  0.12700000000E+01 0. -1.
         -4   -1    0    0    0  501 -0.00000000000E+00 -0.00000000000E+00 -0.93145274395E+01  0.94007085595E+01  0.12700000000E+01 0. -1.
         25    2    1    2    0    0  0.00000000000E+00  0.00000000000E+00  0.40797980174E+03  0.42669697030E+03  0.12499114304E+03 0.  0.
    9000005    1    3    3    0    0  0.30205671271E+02  0.39568683603E+02  0.75047284921E+02  0.90061969072E+02  0.10000000000E+01 0.  0.
    9000005    1    3    3    0    0 -0.30205671271E+02 -0.39568683603E+02  0.33293251682E+03  0.33663500123E+03  0.10000000000E+01 0.  0.
<mgrwt>
<rscale>  0 0.12499114E+03</rscale>
<asrwt>0</asrwt>
<pdfrwt beam="1">  1        4 0.64205891E-01 0.12499114E+03</pdfrwt>
<pdfrwt beam="2">  1       -4 0.14397825E-02 0.12499114E+03</pdfrwt>
<totfact> 0.62048660E+03</totfact>
</mgrwt>
</event>
<event>
 5    1  0.3217527E-002  0.1249999E+03  0.7818608E-02  0.1235070E+00
          4   -1    0    0  501    0  0.00000000000E+00  0.00000000000E+00  0.51088360586E+01  0.52643238762E+01  0.12700000000E+01 0. -1.
         -4   -1    0    0    0  501 -0.00000000000E+00 -0.00000000000E+00 -0.75298780531E+03  0.75298887630E+03  0.12700000000E+01 0. -1.
         25    2    1    2    0    0  0.00000000000E+00  0.00000000000E+00 -0.74787896925E+03  0.75825320018E+03  0.12499985177E+03 0.  0.
    9000005    1    3    3    0    0  0.50807145895E+02  0.16571710897E+02 -0.57043148594E+03  0.57293024691E+03  0.10000000000E+01 0.  0.
    9000005    1    3    3    0    0 -0.50807145895E+02 -0.16571710897E+02 -0.17744748330E+03  0.18532295327E+03  0.10000000000E+01 0.  0.
<mgrwt>
<rscale>  0 0.12499985E+03</rscale>
<asrwt>0</asrwt>
<pdfrwt beam="1">  1        4 0.79801836E-03 0.12499985E+03</pdfrwt>
<pdfrwt beam="2">  1       -4 0.11585623E+00 0.12499985E+03</pdfrwt>
<totfact> 0.40182620E+03</totfact>
</mgrwt>
</event>
<event>
 5    1  0.3217527E-002  0.1249994E+03  0.7818608E-02  0.1235070E+00
         -4   -1    0    0    0  501 -0.00000000000E+00  0.00000000000E+00  0.50323008629E+02  0.50339031551E+02  0.12700000000E+01 0.  1.
          4   -1    0    0  501    0  0.00000000000E+00 -0.00000000000E+00 -0.77589249494E+02  0.77599642635E+02  0.12700000000E+01 0.  1.
         25    2    1    2    0    0  0.00000000000E+00  0.00000000000E+00 -0.27266240864E+02  0.12793867419E+03  0.12499942584E+03 0.  0.
    9000005    1    3    3    0    0 -0.40952152521E+02  0.14756741542E+02  0.32258378825E+02  0.54188958483E+02  0.10000000000E+01 0.  0.
    9000005    1    3    3    0    0  0.40952152521E+02 -0.14756741542E+02 -0.59524619690E+02  0.73749715703E+02  0.10000000000E+01 0.  0.
<mgrwt>
<rscale>  0 0.12499943E+03</rscale>
<asrwt>0</asrwt>
<pdfrwt beam="2">  1        4 0.11938840E-01 0.12499943E+03</pdfrwt>
<pdfrwt beam="1">  1       -4 0.77440334E-02 0.12499943E+03</pdfrwt>
<totfact> 0.10388947E+04</totfact>
</mgrwt>
</event>
<event>
 5    1  0.3217527E-002  0.1249959E+03  0.7818608E-02  0.1235076E+00
         -4   -1    0    0    0  501 -0.00000000000E+00  0.00000000000E+00  0.87652685106E+02  0.87661885140E+02  0.12700000000E+01 0. -1.
          4   -1    0    0  501    0  0.00000000000E+00 -0.00000000000E+00 -0.44541594427E+02  0.44559696298E+02  0.12700000000E+01 0. -1.
         25    2    1    2    0    0  0.00000000000E+00  0.00000000000E+00  0.43111090679E+02  0.13222158144E+03  0.12499592177E+03 0.  0.
    9000005    1    3    3    0    0  0.47740598541E+02  0.27568078518E+02 -0.95704445965E+01  0.55962104249E+02  0.10000000000E+01 0.  0.
    9000005    1    3    3    0    0 -0.47740598541E+02 -0.27568078518E+02  0.52681535275E+02  0.76259477189E+02  0.10000000000E+01 0.  0.
<mgrwt>
<rscale>  0 0.12499592E+03</rscale>
<asrwt>0</asrwt>
<pdfrwt beam="2">  1        4 0.68546532E-02 0.12499592E+03</pdfrwt>
<pdfrwt beam="1">  1       -4 0.13487129E-01 0.12499592E+03</pdfrwt>
<totfact> 0.10297919E+04</totfact>
</mgrwt>
</event>
<event>
 4    1  0.3217527E-002  0.1254426E+03  0.7818608E-02  0.1234379E+00
          4   -1    0    0  501    0  0.00000000000E+00  0.00000000000E+00  0.10887867928E+02  0.10961686368E+02  0.12700000000E+01 0. -1.
         -4   -1    0    0    0  501 -0.00000000000E+00 -0.00000000000E+00 -0.36002063958E+03  0.36002287958E+03  0.12700000000E+01 0. -1.
    9000005    1    1    2    0    0 -0.32579145260E+02  0.30565016244E+02 -0.44395481423E+02  0.62988726727E+02  0.10000000000E+01 0.  0.
    9000005    1    1    2    0    0  0.32579145260E+02 -0.30565016244E+02 -0.30473729023E+03  0.30799583922E+03  0.10000000000E+01 0.  0.
<mgrwt>
<rscale>  0 0.12544264E+03</rscale>
<asrwt>0</asrwt>
<pdfrwt beam="1">  1        4 0.16809075E-02 0.12544264E+03</pdfrwt>
<pdfrwt beam="2">  1       -4 0.55393632E-01 0.12544264E+03</pdfrwt>
<totfact> 0.66820027E+03</totfact>
</mgrwt>
</event>
<event>
 5    1  0.3217527E-002  0.1249997E+03  0.7818608E-02  0.1235070E+00
          4   -1    0    0  501    0  0.00000000000E+00  0.00000000000E+00  0.14328544774E+03  0.14329107591E+03  0.12700000000E+01 0. -1.
         -4   -1    0    0    0  501 -0.00000000000E+00 -0.00000000000E+00 -0.27240935906E+02  0.27270524179E+02  0.12700000000E+01 0. -1.
         25    2    1    2    0    0  0.00000000000E+00  0.00000000000E+00  0.11604451184E+03  0.17056160009E+03  0.12499972279E+03 0.  0.
    9000005    1    3    3    0    0  0.42579589987E+01 -0.46777612536E+02  0.17799058018E+01  0.47015351898E+02  0.10000000000E+01 0.  0.
    9000005    1    3    3    0    0 -0.42579589987E+01  0.46777612536E+02  0.11426460604E+03  0.12354624819E+03  0.10000000000E+01 0.  0.
<mgrwt>
<rscale>  0 0.12499972E+03</rscale>
<asrwt>0</asrwt>
<pdfrwt beam="1">  1        4 0.22046624E-01 0.12499972E+03</pdfrwt>
<pdfrwt beam="2">  1       -4 0.41936221E-02 0.12499972E+03</pdfrwt>
<totfact> 0.95344658E+03</totfact>
</mgrwt>
</event>
<event>
 5    1  0.3217527E-002  0.1250105E+03  0.7818608E-02  0.1235053E+00
          4   -1    0    0  501    0  0.00000000000E+00  0.00000000000E+00  0.17442726819E+01  0.21576346282E+01  0.12700000000E+01 0.  1.
         -4   -1    0    0    0  501 -0.00000000000E+00 -0.00000000000E+00 -0.20021492696E+04  0.20021496723E+04  0.12700000000E+01 0.  1.
         25    2    1    2    0    0  0.00000000000E+00  0.00000000000E+00 -0.20004049969E+04  0.20043073070E+04  0.12501051668E+03 0.  0.
    9000005    1    3    3    0    0  0.26725423914E+02  0.53207211718E+02 -0.69572042668E+03  0.69826439675E+03  0.10000000000E+01 0.  0.
    9000005    1    3    3    0    0 -0.26725423914E+02 -0.53207211718E+02 -0.13046845702E+04  0.13060429102E+04  0.10000000000E+01 0.  0.
<mgrwt>
<rscale>  0 0.12501052E+03</rscale>
<asrwt>0</asrwt>
<pdfrwt beam="1">  1        4 0.30017930E-03 0.12501052E+03</pdfrwt>
<pdfrwt beam="2">  1       -4 0.30805315E+00 0.12501052E+03</pdfrwt>
<totfact> 0.98029508E+02</totfact>
</mgrwt>
</event>
<event>
 5    1  0.3217527E-002  0.1249981E+03  0.7818608E-02  0.1235072E+00
          4   -1    0    0  501    0  0.00000000000E+00  0.00000000000E+00  0.20040582942E+03  0.20040985346E+03  0.12700000000E+01 0.  1.
         -4   -1    0    0    0  501 -0.00000000000E+00 -0.00000000000E+00 -0.19466189911E+02  0.19507574161E+02  0.12700000000E+01 0.  1.
         25    2    1    2    0    0  0.00000000000E+00  0.00000000000E+00  0.18093963951E+03  0.21991742762E+03  0.12499808730E+03 0.  0.
    9000005    1    3    3    0    0 -0.17489216620E+01 -0.34021559331E+02  0.18264122795E+03  0.18579381953E+03  0.10000000000E+01 0.  0.
    9000005    1    3    3    0    0  0.17489216620E+01  0.34021559331E+02 -0.17015884462E+01  0.34123608096E+02  0.10000000000E+01 0.  0.
<mgrwt>
<rscale>  0 0.12499809E+03</rscale>
<asrwt>0</asrwt>
<pdfrwt beam="1">  1        4 0.30835160E-01 0.12499809E+03</pdfrwt>
<pdfrwt beam="2">  1       -4 0.29982913E-02 0.12499809E+03</pdfrwt>
<totfact> 0.86885127E+03</totfact>
</mgrwt>
</event>
<event>
 5    1  0.3217527E-002  0.1250017E+03  0.7818608E-02  0.1235067E+00
         -4   -1    0    0    0  501 -0.00000000000E+00  0.00000000000E+00  0.16540823274E+02  0.16589506761E+02  0.12700000000E+01 0. -1.
          4   -1    0    0  501    0  0.00000000000E+00 -0.00000000000E+00 -0.23576711723E+03  0.23577053774E+03  0.12700000000E+01 0. -1.
         25    2    1    2    0    0  0.00000000000E+00  0.00000000000E+00 -0.21922629396E+03  0.25236004450E+03  0.12500169639E+03 0.  0.
    9000005    1    3    3    0    0 -0.52100407897E+02 -0.29409672656E+02 -0.14606307037E+03  0.15784423294E+03  0.10000000000E+01 0.  0.
    9000005    1    3    3    0    0  0.52100407897E+02  0.29409672656E+02 -0.73163223590E+02  0.94515811560E+02  0.10000000000E+01 0.  0.
<mgrwt>
<rscale>  0 0.12500170E+03</rscale>
<asrwt>0</asrwt>
<pdfrwt beam="2">  1        4 0.36275870E-01 0.12500170E+03</pdfrwt>
<pdfrwt beam="1">  1       -4 0.25487502E-02 0.12500170E+03</pdfrwt>
<totfact> 0.81987223E+03</totfact>
</mgrwt>
</event>
<event>
 5    1  0.3217527E-002  0.1249993E+03  0.7818608E-02  0.1235070E+00
         -4   -1    0    0    0  501 -0.00000000000E+00  0.00000000000E+00  0.16335347540E+02  0.16384641566E+02  0.12700000000E+01 0. -1.
          4   -1    0    0  501    0  0.00000000000E+00 -0.00000000000E+00 -0.23871483015E+03  0.23871820842E+03  0.12700000000E+01 0. -1.
         25    2    1    2    0    0  0.00000000000E+00  0.00000000000E+00 -0.22237948261E+03  0.25510284999E+03  0.12499931915E+03 0.  0.
    9000005    1    3    3    0    0 -0.23819370685E+02 -0.34574638355E+02 -0.16726697080E+02  0.45205646024E+02  0.10000000000E+01 0.  0.
    9000005    1    3    3    0    0  0.23819370685E+02  0.34574638355E+02 -0.20565278553E+03  0.20989720396E+03  0.10000000000E+01 0.  0.
<mgrwt>
<rscale>  0 0.12499932E+03</rscale>
<asrwt>0</asrwt>
<pdfrwt beam="2">  1        4 0.36729408E-01 0.12499932E+03</pdfrwt>
<pdfrwt beam="1">  1       -4 0.25171823E-02 0.12499932E+03</pdfrwt>
<totfact> 0.81599494E+03</totfact>
</mgrwt>
</event>
<event>
 5    1  0.3217527E-002  0.1249981E+03  0.7818608E-02  0.1235072E+00
          4   -1    0    0  501    0  0.00000000000E+00  0.00000000000E+00  0.14761699475E+02  0.14816229999E+02  0.12700000000E+01 0. -1.
         -4   -1    0    0    0  501 -0.00000000000E+00 -0.00000000000E+00 -0.26406871965E+03  0.26407177357E+03  0.12700000000E+01 0. -1.
         25    2    1    2    0    0  0.00000000000E+00  0.00000000000E+00 -0.24930702018E+03  0.27888800357E+03  0.12499811290E+03 0.  0.
    9000005    1    3    3    0    0 -0.55153984053E+02  0.12295159243E+02 -0.65119365578E+02  0.86224501570E+02  0.10000000000E+01 0.  0.
    9000005    1    3    3    0    0  0.55153984053E+02 -0.12295159243E+02 -0.18418765460E+03  0.19266350200E+03  0.10000000000E+01 0.  0.
<mgrwt>
<rscale>  0 0.12499811E+03</rscale>
<asrwt>0</asrwt>
<pdfrwt beam="1">  1        4 0.22754604E-02 0.12499811E+03</pdfrwt>
<pdfrwt beam="2">  1       -4 0.40630383E-01 0.12499811E+03</pdfrwt>
<totfact> 0.78329067E+03</totfact>
</mgrwt>
</event>
<event>
 5    1  0.3217527E-002  0.1249905E+03  0.7818608E-02  0.1235084E+00
         -4   -1    0    0    0  501 -0.00000000000E+00  0.00000000000E+00  0.50757654038E+03  0.50757812920E+03  0.12700000000E+01 0.  1.
          4   -1    0    0  501    0  0.00000000000E+00 -0.00000000000E+00 -0.76407028098E+01  0.77455302871E+01  0.12700000000E+01 0.  1.
         25    2    1    2    0    0  0.00000000000E+00  0.00000000000E+00  0.49993583757E+03  0.51532365949E+03  0.12499052901E+03 0.  0.
    9000005    1    3    3    0    0  0.22630311505E+02 -0.56293583445E+02  0.18832267291E+03  0.19785734171E+03  0.10000000000E+01 0.  0.
    9000005    1    3    3    0    0 -0.22630311505E+02  0.56293583445E+02  0.31161316465E+03  0.31746631777E+03  0.10000000000E+01 0.  0.
<mgrwt>
<rscale>  0 0.12499053E+03</rscale>
<asrwt>0</asrwt>
<pdfrwt beam="2">  1        4 0.11836785E-02 0.12499053E+03</pdfrwt>
<pdfrwt beam="1">  1       -4 0.78096893E-01 0.12499053E+03</pdfrwt>
<totfact> 0.54706117E+03</totfact>
</mgrwt>
</event>
<event>
 5    1  0.3217527E-002  0.1249965E+03  0.7818608E-02  0.1235075E+00
         -4   -1    0    0    0  501 -0.00000000000E+00  0.00000000000E+00  0.67573186291E+02  0.67585119705E+02  0.12700000000E+01 0.  1.
          4   -1    0    0  501    0  0.00000000000E+00 -0.00000000000E+00 -0.57780422722E+02  0.57794378186E+02  0.12700000000E+01 0.  1.
         25    2    1    2    0    0  0.00000000000E+00  0.00000000000E+00  0.97927635695E+01  0.12537949789E+03  0.12499648104E+03 0.  0.
    9000005    1    3    3    0    0 -0.15521869465E+02 -0.52052584777E+02  0.35888145417E+02  0.65110360121E+02  0.10000000000E+01 0.  0.
    9000005    1    3    3    0    0  0.15521869465E+02  0.52052584777E+02 -0.26095381848E+02  0.60269137769E+02  0.10000000000E+01 0.  0.
<mgrwt>
<rscale>  0 0.12499648E+03</rscale>
<asrwt>0</asrwt>
<pdfrwt beam="2">  1        4 0.88912872E-02 0.12499648E+03</pdfrwt>
<pdfrwt beam="1">  1       -4 0.10397866E-01 0.12499648E+03</pdfrwt>
<totfact> 0.10445450E+04</totfact>
</mgrwt>
</event>
<event>
 5    1  0.3217527E-002  0.1249966E+03  0.7818608E-02  0.1235075E+00
          4   -1    0    0  501    0  0.00000000000E+00  0.00000000000E+00  0.13248153939E+03  0.13248762652E+03  0.12700000000E+01 0. -1.
         -4   -1    0    0    0  501 -0.00000000000E+00 -0.00000000000E+00 -0.29463204086E+02  0.29490562812E+02  0.12700000000E+01 0. -1.
         25    2    1    2    0    0  0.00000000000E+00  0.00000000000E+00  0.10301833531E+03  0.16197818933E+03  0.12499662559E+03 0.  0.
    9000005    1    3    3    0    0  0.46023098018E+01  0.54031289335E+02  0.91753463055E+02  0.10658451794E+03  0.10000000000E+01 0.  0.
    9000005    1    3    3    0    0 -0.46023098018E+01 -0.54031289335E+02  0.11264872254E+02  0.55393671386E+02  0.10000000000E+01 0.  0.
<mgrwt>
<rscale>  0 0.12499663E+03</rscale>
<asrwt>0</asrwt>
<pdfrwt beam="1">  1        4 0.20384348E-01 0.12499663E+03</pdfrwt>
<pdfrwt beam="2">  1       -4 0.45353734E-02 0.12499663E+03</pdfrwt>
<totfact> 0.96970109E+03</totfact>
</mgrwt>
</event>
<event>
 5    1  0.3217527E-002  0.1250036E+03  0.7818608E-02  0.1235064E+00
         -4   -1    0    0    0  501 -0.00000000000E+00  0.00000000000E+00  0.76853001010E+03  0.76853105944E+03  0.12700000000E+01 0. -1.
          4   -1    0    0  501    0  0.00000000000E+00 -0.00000000000E+00 -0.50026534645E+01  0.51613410743E+01  0.12700000000E+01 0. -1.
         25    2    1    2    0    0  0.00000000000E+00  0.00000000000E+00  0.76352735663E+03  0.77369240051E+03  0.12500362508E+03 0.  0.
    9000005    1    3    3    0    0  0.25338822278E+02  0.38006056936E+02  0.11779200055E+03  0.12634267558E+03  0.10000000000E+01 0.  0.
    9000005    1    3    3    0    0 -0.25338822278E+02 -0.38006056936E+02  0.64573535608E+03  0.64734972493E+03  0.10000000000E+01 0.  0.
<mgrwt>
<rscale>  0 0.12500363E+03</rscale>
<asrwt>0</asrwt>
<pdfrwt beam="2">  1        4 0.78192643E-03 0.12500363E+03</pdfrwt>
<pdfrwt beam="1">  1       -4 0.11824768E+00 0.12500363E+03</pdfrwt>
<totfact> 0.39462597E+03</totfact>
</mgrwt>
</event>
<event>
 5    1  0.3217527E-002  0.1250004E+03  0.7818608E-02  0.1235069E+00
          4   -1    0    0  501    0  0.00000000000E+00  0.00000000000E+00  0.53536792434E+02  0.53551853788E+02  0.12700000000E+01 0. -1.
         -4   -1    0    0    0  501 -0.00000000000E+00 -0.00000000000E+00 -0.72933505931E+02  0.72944562425E+02  0.12700000000E+01 0. -1.
         25    2    1    2    0    0  0.00000000000E+00  0.00000000000E+00 -0.19396713497E+02  0.12649641621E+03  0.12500044328E+03 0.  0.
    9000005    1    3    3    0    0  0.45834134983E+02  0.39684507755E+02  0.56371995172E+01  0.60896683849E+02  0.10000000000E+01 0.  0.
    9000005    1    3    3    0    0 -0.45834134983E+02 -0.39684507755E+02 -0.25033913015E+02  0.65599732364E+02  0.10000000000E+01 0.  0.
<mgrwt>
<rscale>  0 0.12500044E+03</rscale>
<asrwt>0</asrwt>
<pdfrwt beam="1">  1        4 0.82384387E-02 0.12500044E+03</pdfrwt>
<pdfrwt beam="2">  1       -4 0.11222548E-01 0.12500044E+03</pdfrwt>
<totfact> 0.10420002E+04</totfact>
</mgrwt>
</event>
<event>
 5    1  0.3217527E-002  0.1249638E+03  0.7818608E-02  0.1235126E+00
          4   -1    0    0  501    0  0.00000000000E+00  0.00000000000E+00  0.11728803313E+03  0.11729490874E+03  0.12700000000E+01 0.  1.
         -4   -1    0    0    0  501 -0.00000000000E+00 -0.00000000000E+00 -0.33265529855E+02  0.33289763840E+02  0.12700000000E+01 0.  1.
         25    2    1    2    0    0  0.00000000000E+00  0.00000000000E+00  0.84022503276E+02  0.15058467258E+03  0.12496384501E+03 0.  0.
    9000005    1    3    3    0    0 -0.49939929704E+02 -0.29111558307E+02  0.13456682325E+02  0.59359596571E+02  0.10000000000E+01 0.  0.
    9000005    1    3    3    0    0  0.49939929704E+02  0.29111558307E+02  0.70565820951E+02  0.91225076006E+02  0.10000000000E+01 0.  0.
<mgrwt>
<rscale>  0 0.12496385E+03</rscale>
<asrwt>0</asrwt>
<pdfrwt beam="1">  1        4 0.18046706E-01 0.12496385E+03</pdfrwt>
<pdfrwt beam="2">  1       -4 0.51201669E-02 0.12496385E+03</pdfrwt>
<totfact> 0.99268025E+03</totfact>
</mgrwt>
</event>
<event>
 5    1  0.3217527E-002  0.1249989E+03  0.7818608E-02  0.1235071E+00
         -4   -1    0    0    0  501 -0.00000000000E+00  0.00000000000E+00  0.10273047146E+04  0.10273054996E+04  0.12700000000E+01 0. -1.
          4   -1    0    0  501    0  0.00000000000E+00 -0.00000000000E+00 -0.36955058435E+01  0.39076416723E+01  0.12700000000E+01 0. -1.
         25    2    1    2    0    0  0.00000000000E+00  0.00000000000E+00  0.10236092087E+04  0.10312131412E+04  0.12499892204E+03 0.  0.
    9000005    1    3    3    0    0 -0.45014610149E+02 -0.39143554015E+01  0.86793754915E+03  0.86911347161E+03  0.10000000000E+01 0.  0.
    9000005    1    3    3    0    0  0.45014610149E+02  0.39143554015E+01  0.15567165956E+03  0.16209966963E+03  0.10000000000E+01 0.  0.
<mgrwt>
<rscale>  0 0.12499892E+03</rscale>
<asrwt>0</asrwt>
<pdfrwt beam="2">  1        4 0.58491866E-03 0.12499892E+03</pdfrwt>
<pdfrwt beam="1">  1       -4 0.15806305E+00 0.12499892E+03</pdfrwt>
<totfact> 0.29589430E+03</totfact>
</mgrwt>
</event>
<event>
 5    1  0.3217527E-002  0.1250002E+03  0.7818608E-02  0.1235069E+00
          4   -1    0    0  501    0  0.00000000000E+00  0.00000000000E+00  0.59103017649E+02  0.59116660894E+02  0.12700000000E+01 0.  1.
         -4   -1    0    0    0  501 -0.00000000000E+00 -0.00000000000E+00 -0.66065039653E+02  0.66077245436E+02  0.12700000000E+01 0.  1.
         25    2    1    2    0    0  0.00000000000E+00  0.00000000000E+00 -0.69620220043E+01  0.12519390633E+03  0.12500017773E+03 0.  0.
    9000005    1    3    3    0    0  0.32873296094E+02 -0.22584161508E+02  0.44703458109E+02  0.59917419120E+02  0.10000000000E+01 0.  0.
    9000005    1    3    3    0    0 -0.32873296094E+02  0.22584161508E+02 -0.51665480113E+02  0.65276487210E+02  0.10000000000E+01 0.  0.
<mgrwt>
<rscale>  0 0.12500018E+03</rscale>
<asrwt>0</asrwt>
<pdfrwt beam="1">  1        4 0.90947603E-02 0.12500018E+03</pdfrwt>
<pdfrwt beam="2">  1       -4 0.10165841E-01 0.12500018E+03</pdfrwt>
<totfact> 0.10448610E+04</totfact>
</mgrwt>
</event>
<event>
 5    1  0.3217527E-002  0.1249995E+03  0.7818608E-02  0.1235070E+00
          4   -1    0    0  501    0  0.00000000000E+00  0.00000000000E+00  0.57700264362E+02  0.57714239208E+02  0.12700000000E+01 0.  1.
         -4   -1    0    0    0  501 -0.00000000000E+00 -0.00000000000E+00 -0.67670324813E+02  0.67682241100E+02  0.12700000000E+01 0.  1.
         25    2    1    2    0    0  0.00000000000E+00  0.00000000000E+00 -0.99700604515E+01  0.12539648031E+03  0.12499950067E+03 0.  0.
    9000005    1    3    3    0    0 -0.32152082408E+02  0.47875192302E+02 -0.29132795130E+02  0.64618187790E+02  0.10000000000E+01 0.  0.
    9000005    1    3    3    0    0  0.32152082408E+02 -0.47875192302E+02  0.19162734678E+02  0.60778292519E+02  0.10000000000E+01 0.  0.
<mgrwt>
<rscale>  0 0.12499950E+03</rscale>
<asrwt>0</asrwt>
<pdfrwt beam="1">  1        4 0.88789554E-02 0.12499950E+03</pdfrwt>
<pdfrwt beam="2">  1       -4 0.10412811E-01 0.12499950E+03</pdfrwt>
<totfact> 0.10444362E+04</totfact>
</mgrwt>
</event>
<event>
 5    1  0.3217527E-002  0.1249997E+03  0.7818608E-02  0.1235070E+00
          4   -1    0    0  501    0  0.00000000000E+00  0.00000000000E+00  0.38127702000E+03  0.38127913512E+03  0.12700000000E+01 0. -1.
         -4   -1    0    0    0  501 -0.00000000000E+00 -0.00000000000E+00 -0.10203620985E+02  0.10282352903E+02  0.12700000000E+01 0. -1.
         25    2    1    2    0    0  0.00000000000E+00  0.00000000000E+00  0.37107339901E+03  0.39156148802E+03  0.12499972579E+03 0.  0.
    9000005    1    3    3    0    0 -0.55896364464E+02  0.16428017168E+02  0.11472909173E+03  0.12867807816E+03  0.10000000000E+01 0.  0.
    9000005    1    3    3    0    0  0.55896364464E+02 -0.16428017168E+02  0.25634430728E+03  0.26288340987E+03  0.10000000000E+01 0.  0.
<mgrwt>
<rscale>  0 0.12499973E+03</rscale>
<asrwt>0</asrwt>
<pdfrwt beam="1">  1        4 0.58664214E-01 0.12499973E+03</pdfrwt>
<pdfrwt beam="2">  1       -4 0.15760071E-02 0.12499973E+03</pdfrwt>
<totfact> 0.65382266E+03</totfact>
</mgrwt>
</event>
<event>
 5    1  0.3217527E-002  0.1249926E+03  0.7818608E-02  0.1235081E+00
          4   -1    0    0  501    0  0.00000000000E+00  0.00000000000E+00  0.17249363326E+03  0.17249830844E+03  0.12700000000E+01 0.  1.
         -4   -1    0    0    0  501 -0.00000000000E+00 -0.00000000000E+00 -0.22620297089E+02  0.22655920648E+02  0.12700000000E+01 0.  1.
         25    2    1    2    0    0  0.00000000000E+00  0.00000000000E+00  0.14987333617E+03  0.19515422909E+03  0.12499262473E+03 0.  0.
    9000005    1    3    3    0    0  0.17241283097E+02 -0.31809366504E+02  0.15448299118E+03  0.15866660708E+03  0.10000000000E+01 0.  0.
    9000005    1    3    3    0    0 -0.17241283097E+02  0.31809366504E+02 -0.46096550090E+01  0.36487622004E+02  0.10000000000E+01 0.  0.
<mgrwt>
<rscale>  0 0.12499262E+03</rscale>
<asrwt>0</asrwt>
<pdfrwt beam="1">  1        4 0.26540583E-01 0.12499262E+03</pdfrwt>
<pdfrwt beam="2">  1       -4 0.34831454E-02 0.12499262E+03</pdfrwt>
<totfact> 0.90973168E+03</totfact>
</mgrwt>
</event>
<event>
 5    1  0.3217527E-002  0.1250064E+03  0.7818608E-02  0.1235059E+00
         -4   -1    0    0    0  501 -0.00000000000E+00  0.00000000000E+00  0.31653313872E+02  0.31678781212E+02  0.12700000000E+01 0. -1.
          4   -1    0    0  501    0  0.00000000000E+00 -0.00000000000E+00 -0.12334163434E+03  0.12334817252E+03  0.12700000000E+01 0. -1.
         25    2    1    2    0    0  0.00000000000E+00  0.00000000000E+00 -0.91688320473E+02  0.15502695373E+03  0.12500643292E+03 0.  0.
    9000005    1    3    3    0    0  0.27383064705E+02 -0.12001375296E+02 -0.11390337988E+03  0.11776606128E+03  0.10000000000E+01 0.  0.
    9000005    1    3    3    0    0 -0.27383064705E+02  0.12001375296E+02  0.22215059405E+02  0.37260892448E+02  0.10000000000E+01 0.  0.
<mgrwt>
<rscale>  0 0.12500643E+03</rscale>
<asrwt>0</asrwt>
<pdfrwt beam="2">  1        4 0.18978098E-01 0.12500643E+03</pdfrwt>
<pdfrwt beam="1">  1       -4 0.48722026E-02 0.12500643E+03</pdfrwt>
<totfact> 0.98295986E+03</totfact>
</mgrwt>
</event>
<event>
 5    1  0.3217527E-002  0.1250029E+03  0.7818608E-02  0.1235065E+00
         -4   -1    0    0    0  501 -0.00000000000E+00  0.00000000000E+00  0.54411895068E+02  0.54426714257E+02  0.12700000000E+01 0.  1.
          4   -1    0    0  501    0  0.00000000000E+00 -0.00000000000E+00 -0.71763473171E+02  0.71774709903E+02  0.12700000000E+01 0.  1.
         25    2    1    2    0    0  0.00000000000E+00  0.00000000000E+00 -0.17351578104E+02  0.12620142416E+03  0.12500288876E+03 0.  0.
    9000005    1    3    3    0    0 -0.62315158794E+02  0.96897462461E+00 -0.40149656468E+01  0.62459890141E+02  0.10000000000E+01 0.  0.
    9000005    1    3    3    0    0  0.62315158794E+02 -0.96897462461E+00 -0.13336612457E+02  0.63741534019E+02  0.10000000000E+01 0.  0.
<mgrwt>
<rscale>  0 0.12500289E+03</rscale>
<asrwt>0</asrwt>
<pdfrwt beam="2">  1        4 0.11042539E-01 0.12500289E+03</pdfrwt>
<pdfrwt beam="1">  1       -4 0.83730651E-02 0.12500289E+03</pdfrwt>
<totfact> 0.10425868E+04</totfact>
</mgrwt>
</event>
<event>
 5    1  0.3217527E-002  0.1249970E+03  0.7818608E-02  0.1235074E+00
          4   -1    0    0  501    0  0.00000000000E+00  0.00000000000E+00  0.49996099158E+02  0.50012226815E+02  0.12700000000E+01 0.  1.
         -4   -1    0    0    0  501 -0.00000000000E+00 -0.00000000000E+00 -0.78093484647E+02  0.78103810690E+02  0.12700000000E+01 0.  1.
         25    2    1    2    0    0  0.00000000000E+00  0.00000000000E+00 -0.28097385489E+02  0.12811603751E+03  0.12499702394E+03 0.  0.
    9000005    1    3    3    0    0 -0.16030045354E+02 -0.13034510884E+02  0.46399218455E+02  0.50801065946E+02  0.10000000000E+01 0.  0.
    9000005    1    3    3    0    0  0.16030045354E+02  0.13034510884E+02 -0.74496603944E+02  0.77314971559E+02  0.10000000000E+01 0.  0.
<mgrwt>
<rscale>  0 0.12499702E+03</rscale>
<asrwt>0</asrwt>
<pdfrwt beam="1">  1        4 0.76937425E-02 0.12499702E+03</pdfrwt>
<pdfrwt beam="2">  1       -4 0.12016417E-01 0.12499702E+03</pdfrwt>
<totfact> 0.10385680E+04</totfact>
</mgrwt>
</event>
<event>
 5    1  0.3217527E-002  0.1249977E+03  0.7818608E-02  0.1235073E+00
          4   -1    0    0  501    0  0.00000000000E+00  0.00000000000E+00  0.14794408872E+03  0.14794953966E+03  0.12700000000E+01 0.  1.
         -4   -1    0    0    0  501 -0.00000000000E+00 -0.00000000000E+00 -0.26381367344E+02  0.26411918578E+02  0.12700000000E+01 0.  1.
         25    2    1    2    0    0  0.00000000000E+00  0.00000000000E+00  0.12156272137E+03  0.17436145824E+03  0.12499769155E+03 0.  0.
    9000005    1    3    3    0    0 -0.17285712712E+01 -0.25133008769E+02 -0.18990961131E+02  0.31564421317E+02  0.10000000000E+01 0.  0.
    9000005    1    3    3    0    0  0.17285712712E+01  0.25133008769E+02  0.14055368250E+03  0.14279703692E+03  0.10000000000E+01 0.  0.
<mgrwt>
<rscale>  0 0.12499769E+03</rscale>
<asrwt>0</asrwt>
<pdfrwt beam="1">  1        4 0.22763398E-01 0.12499769E+03</pdfrwt>
<pdfrwt beam="2">  1       -4 0.40614413E-02 0.12499769E+03</pdfrwt>
<totfact> 0.94646820E+03</totfact>
</mgrwt>
</event>
<event>
 5    1  0.3217527E-002  0.1249979E+03  0.7818608E-02  0.1235073E+00
         -4   -1    0    0    0  501 -0.00000000000E+00  0.00000000000E+00  0.10907364480E+03  0.10908103818E+03  0.12700000000E+01 0. -1.
          4   -1    0    0  501    0  0.00000000000E+00 -0.00000000000E+00 -0.35791864050E+02  0.35814388619E+02  0.12700000000E+01 0. -1.
         25    2    1    2    0    0  0.00000000000E+00  0.00000000000E+00  0.73281780747E+02  0.14489542679E+03  0.12499786125E+03 0.  0.
    9000005    1    3    3    0    0 -0.42368093541E+02 -0.43697427081E+02  0.20223162113E+02  0.64144343240E+02  0.10000000000E+01 0.  0.
    9000005    1    3    3    0    0  0.42368093541E+02  0.43697427081E+02  0.53058618635E+02  0.80751083555E+02  0.10000000000E+01 0.  0.
<mgrwt>
<rscale>  0 0.12499786E+03</rscale>
<asrwt>0</asrwt>
<pdfrwt beam="2">  1        4 0.55087421E-02 0.12499786E+03</pdfrwt>
<pdfrwt beam="1">  1       -4 0.16782862E-01 0.12499786E+03</pdfrwt>
<totfact> 0.10033597E+04</totfact>
</mgrwt>
</event>
<event>
 5    1  0.3217527E-002  0.1249958E+03  0.7818608E-02  0.1235076E+00
         -4   -1    0    0    0  501 -0.00000000000E+00  0.00000000000E+00  0.93330479568E+02  0.93339119968E+02  0.12700000000E+01 0.  1.
          4   -1    0    0  501    0  0.00000000000E+00 -0.00000000000E+00 -0.41830927085E+02  0.41850201442E+02  0.12700000000E+01 0.  1.
         25    2    1    2    0    0  0.00000000000E+00  0.00000000000E+00  0.51499552484E+02  0.13518932141E+03  0.12499579480E+03 0.  0.
    9000005    1    3    3    0    0  0.46063511780E+02  0.36453533566E+02  0.26977677190E+01  0.58813137798E+02  0.10000000000E+01 0.  0.
    9000005    1    3    3    0    0 -0.46063511780E+02 -0.36453533566E+02  0.48801784765E+02  0.76376183612E+02  0.10000000000E+01 0.  0.
<mgrwt>
<rscale>  0 0.12499579E+03</rscale>
<asrwt>0</asrwt>
<pdfrwt beam="2">  1        4 0.64376746E-02 0.12499579E+03</pdfrwt>
<pdfrwt beam="1">  1       -4 0.14360682E-01 0.12499579E+03</pdfrwt>
<totfact> 0.10235053E+04</totfact>
</mgrwt>
</event>
<event>
 5    1  0.3217527E-002  0.1249906E+03  0.7818608E-02  0.1235084E+00
         -4   -1    0    0    0  501 -0.00000000000E+00  0.00000000000E+00  0.30668733361E+02  0.30695017608E+02  0.12700000000E+01 0.  1.
          4   -1    0    0  501    0  0.00000000000E+00 -0.00000000000E+00 -0.12726596797E+03  0.12727230454E+03  0.12700000000E+01 0.  1.
         25    2    1    2    0    0  0.00000000000E+00  0.00000000000E+00 -0.96597234610E+02  0.15796732215E+03  0.12499059618E+03 0.  0.
    9000005    1    3    3    0    0 -0.57436523946E+02  0.24061188692E+02 -0.41759917780E+02  0.74985237329E+02  0.10000000000E+01 0.  0.
    9000005    1    3    3    0    0  0.57436523946E+02 -0.24061188692E+02 -0.54837316830E+02  0.82982084822E+02  0.10000000000E+01 0.  0.
<mgrwt>
<rscale>  0 0.12499060E+03</rscale>
<asrwt>0</asrwt>
<pdfrwt beam="2">  1        4 0.19581889E-01 0.12499060E+03</pdfrwt>
<pdfrwt beam="1">  1       -4 0.47207760E-02 0.12499060E+03</pdfrwt>
<totfact> 0.97756773E+03</totfact>
</mgrwt>
</event>
<event>
 5    1  0.3217527E-002  0.1249981E+03  0.7818608E-02  0.1235072E+00
          4   -1    0    0  501    0  0.00000000000E+00  0.00000000000E+00  0.20795156746E+03  0.20795544549E+03  0.12700000000E+01 0.  1.
         -4   -1    0    0    0  501 -0.00000000000E+00 -0.00000000000E+00 -0.18758340176E+02  0.18801282567E+02  0.12700000000E+01 0.  1.
         25    2    1    2    0    0  0.00000000000E+00  0.00000000000E+00  0.18919322728E+03  0.22675672806E+03  0.12499814586E+03 0.  0.
    9000005    1    3    3    0    0  0.31736517041E+02  0.13147696019E+02 -0.10232222914E+00  0.34366828400E+02  0.10000000000E+01 0.  0.
    9000005    1    3    3    0    0 -0.31736517041E+02 -0.13147696019E+02  0.18929554951E+03  0.19238989966E+03  0.10000000000E+01 0.  0.
<mgrwt>
<rscale>  0 0.12499815E+03</rscale>
<asrwt>0</asrwt>
<pdfrwt beam="1">  1        4 0.31996150E-01 0.12499815E+03</pdfrwt>
<pdfrwt beam="2">  1       -4 0.28895001E-02 0.12499815E+03</pdfrwt>
<totfact> 0.85813656E+03</totfact>
</mgrwt>
</event>
<event>
 5    1  0.3217527E-002  0.1250019E+03  0.7818608E-02  0.1235066E+00
         -4   -1    0    0    0  501 -0.00000000000E+00  0.00000000000E+00  0.57976120397E+03  0.57976259497E+03  0.12700000000E+01 0.  1.
          4   -1    0    0  501    0  0.00000000000E+00 -0.00000000000E+00 -0.66766354900E+01  0.67963491277E+01  0.12700000000E+01 0.  1.
         25    2    1    2    0    0  0.00000000000E+00  0.00000000000E+00  0.57308456848E+03  0.58655894410E+03  0.12500188908E+03 0.  0.
    9000005    1    3    3    0    0  0.27694765729E+02 -0.45363030935E+02  0.13229404305E+03  0.14257460661E+03  0.10000000000E+01 0.  0.
    9000005    1    3    3    0    0 -0.27694765729E+02  0.45363030935E+02  0.44079052543E+03  0.44398433749E+03  0.10000000000E+01 0.  0.
<mgrwt>
<rscale>  0 0.12500189E+03</rscale>
<asrwt>0</asrwt>
<pdfrwt beam="2">  1        4 0.10364904E-02 0.12500189E+03</pdfrwt>
<pdfrwt beam="1">  1       -4 0.89203352E-01 0.12500189E+03</pdfrwt>
<totfact> 0.49725128E+03</totfact>
</mgrwt>
</event>
<event>
 5    1  0.3217527E-002  0.1249953E+03  0.7818608E-02  0.1235077E+00
         -4   -1    0    0    0  501 -0.00000000000E+00  0.00000000000E+00  0.98911210106E+01  0.99723204344E+01  0.12700000000E+01 0. -1.
          4   -1    0    0  501    0  0.00000000000E+00 -0.00000000000E+00 -0.39319883781E+03  0.39320088880E+03  0.12700000000E+01 0. -1.
         25    2    1    2    0    0  0.00000000000E+00  0.00000000000E+00 -0.38330771680E+03  0.40317320924E+03  0.12499532347E+03 0.  0.
    9000005    1    3    3    0    0 -0.38210025286E+02 -0.45587781316E+02 -0.25342090563E+03  0.26031021349E+03  0.10000000000E+01 0.  0.
    9000005    1    3    3    0    0  0.38210025286E+02  0.45587781316E+02 -0.12988681117E+03  0.14286299575E+03  0.10000000000E+01 0.  0.
<mgrwt>
<rscale>  0 0.12499532E+03</rscale>
<asrwt>0</asrwt>
<pdfrwt beam="2">  1        4 0.60498521E-01 0.12499532E+03</pdfrwt>
<pdfrwt beam="1">  1       -4 0.15281151E-02 0.12499532E+03</pdfrwt>
<totfact> 0.64251970E+03</totfact>
</mgrwt>
</event>
<event>
 5    1  0.3217527E-002  0.1250072E+03  0.7818608E-02  0.1235058E+00
         -4   -1    0    0    0  501 -0.00000000000E+00  0.00000000000E+00  0.64130672847E+03  0.64130798598E+03  0.12700000000E+01 0.  1.
          4   -1    0    0  501    0  0.00000000000E+00 -0.00000000000E+00 -0.60243154850E+01  0.61567261643E+01  0.12700000000E+01 0.  1.
         25    2    1    2    0    0  0.00000000000E+00  0.00000000000E+00  0.63528241299E+03  0.64746471215E+03  0.12500723668E+03 0.  0.
    9000005    1    3    3    0    0 -0.47707872018E+02  0.28297016896E+02  0.16851893170E+03  0.17741587459E+03  0.10000000000E+01 0.  0.
    9000005    1    3    3    0    0  0.47707872018E+02 -0.28297016896E+02  0.46676348129E+03  0.47004883755E+03  0.10000000000E+01 0.  0.
<mgrwt>
<rscale>  0 0.12500724E+03</rscale>
<asrwt>0</asrwt>
<pdfrwt beam="2">  1        4 0.93710092E-03 0.12500724E+03</pdfrwt>
<pdfrwt beam="1">  1       -4 0.98672752E-01 0.12500724E+03</pdfrwt>
<totfact> 0.45994917E+03</totfact>
</mgrwt>
</event>
<event>
 5    1  0.3217527E-002  0.1249994E+03  0.7818608E-02  0.1235070E+00
          4   -1    0    0  501    0  0.00000000000E+00  0.00000000000E+00  0.24352244346E+03  0.24352575505E+03  0.12700000000E+01 0.  1.
         -4   -1    0    0    0  501 -0.00000000000E+00 -0.00000000000E+00 -0.16011886769E+02  0.16062173512E+02  0.12700000000E+01 0.  1.
         25    2    1    2    0    0  0.00000000000E+00  0.00000000000E+00  0.22751055669E+03  0.25958792856E+03  0.12499935698E+03 0.  0.
    9000005    1    3    3    0    0  0.43737452080E+02  0.42403932665E+02  0.14269185772E+03  0.15515484034E+03  0.10000000000E+01 0.  0.
    9000005    1    3    3    0    0 -0.43737452080E+02 -0.42403932665E+02  0.84818698974E+02  0.10443308822E+03  0.10000000000E+01 0.  0.
<mgrwt>
<rscale>  0 0.12499936E+03</rscale>
<asrwt>0</asrwt>
<pdfrwt beam="1">  1        4 0.37469113E-01 0.12499936E+03</pdfrwt>
<pdfrwt beam="2">  1       -4 0.24674902E-02 0.12499936E+03</pdfrwt>
<totfact> 0.80965083E+03</totfact>
</mgrwt>
</event>
<event>
 5    1  0.3217527E-002  0.1249947E+03  0.7818608E-02  0.1235078E+00
          4   -1    0    0  501    0  0.00000000000E+00  0.00000000000E+00  0.89150286319E+03  0.89150376778E+03  0.12700000000E+01 0.  1.
         -4   -1    0    0    0  501 -0.00000000000E+00 -0.00000000000E+00 -0.42883121337E+01  0.44724177976E+01  0.12700000000E+01 0.  1.
         25    2    1    2    0    0  0.00000000000E+00  0.00000000000E+00  0.88721455105E+03  0.89597618558E+03  0.12499466199E+03 0.  0.
    9000005    1    3    3    0    0  0.46964024737E+02 -0.14514393995E+02  0.16704161428E+03  0.17412693116E+03  0.10000000000E+01 0.  0.
    9000005    1    3    3    0    0 -0.46964024737E+02  0.14514393995E+02  0.72017293677E+03  0.72184925442E+03  0.10000000000E+01 0.  0.
<mgrwt>
<rscale>  0 0.12499466E+03</rscale>
<asrwt>0</asrwt>
<pdfrwt beam="1">  1        4 0.13716860E+00 0.12499466E+03</pdfrwt>
<pdfrwt beam="2">  1       -4 0.67397151E-03 0.12499466E+03</pdfrwt>
<totfact> 0.34318440E+03</totfact>
</mgrwt>
</event>
<event>
 5    1  0.3217527E-002  0.1249410E+03  0.7818608E-02  0.1235162E+00
         -4   -1    0    0    0  501 -0.00000000000E+00  0.00000000000E+00  0.17248035038E+03  0.17248502593E+03  0.12700000000E+01 0.  1.
          4   -1    0    0  501    0  0.00000000000E+00 -0.00000000000E+00 -0.22603322455E+02  0.22638972724E+02  0.12700000000E+01 0.  1.
         25    2    1    2    0    0  0.00000000000E+00  0.00000000000E+00  0.14987702793E+03  0.19512399865E+03  0.12494099146E+03 0.  0.
    9000005    1    3    3    0    0  0.30191500330E+02  0.12444703019E+02  0.15809477388E+03  0.16143529618E+03  0.10000000000E+01 0.  0.
    9000005    1    3    3    0    0 -0.30191500330E+02 -0.12444703019E+02 -0.82177459507E+01  0.33688702467E+02  0.10000000000E+01 0.  0.
<mgrwt>
<rscale>  0 0.12494099E+03</rscale>
<asrwt>0</asrwt>
<pdfrwt beam="2">  1        4 0.34805361E-02 0.12494099E+03</pdfrwt>
<pdfrwt beam="1">  1       -4 0.26538541E-01 0.12494099E+03</pdfrwt>
<totfact> 0.91083598E+03</totfact>
</mgrwt>
</event>
<event>
 5    1  0.3217527E-002  0.1249796E+03  0.7818608E-02  0.1235101E+00
          4   -1    0    0  501    0  0.00000000000E+00  0.00000000000E+00  0.17760436736E+02  0.17805785943E+02  0.12700000000E+01 0.  1.
         -4   -1    0    0    0  501 -0.00000000000E+00 -0.00000000000E+00 -0.21954182775E+03  0.21954550105E+03  0.12700000000E+01 0.  1.
         25    2    1    2    0    0  0.00000000000E+00  0.00000000000E+00 -0.20178139101E+03  0.23735128699E+03  0.12497961305E+03 0.  0.
    9000005    1    3    3    0    0  0.38014100957E+02 -0.34638907785E+02 -0.16827735435E+03  0.17596361497E+03  0.10000000000E+01 0.  0.
    9000005    1    3    3    0    0 -0.38014100957E+02  0.34638907785E+02 -0.33504036658E+02  0.61387672024E+02  0.10000000000E+01 0.  0.
<mgrwt>
<rscale>  0 0.12497961E+03</rscale>
<asrwt>0</asrwt>
<pdfrwt beam="1">  1        4 0.27361460E-02 0.12497961E+03</pdfrwt>
<pdfrwt beam="2">  1       -4 0.33779435E-01 0.12497961E+03</pdfrwt>
<totfact> 0.84231720E+03</totfact>
</mgrwt>
</event>
<event>
 5    1  0.3217527E-002  0.1250021E+03  0.7818608E-02  0.1235066E+00
         -4   -1    0    0    0  501 -0.00000000000E+00  0.00000000000E+00  0.20536276374E+03  0.20536669066E+03  0.12700000000E+01 0.  1.
          4   -1    0    0  501    0  0.00000000000E+00 -0.00000000000E+00 -0.18996558655E+02  0.19038963752E+02  0.12700000000E+01 0.  1.
         25    2    1    2    0    0  0.00000000000E+00  0.00000000000E+00  0.18636620509E+03  0.22440565441E+03  0.12500214131E+03 0.  0.
    9000005    1    3    3    0    0  0.74271645644E+01  0.94528910610E+01 -0.16910010535E+02  0.20771816945E+02  0.10000000000E+01 0.  0.
    9000005    1    3    3    0    0 -0.74271645644E+01 -0.94528910610E+01  0.20327621562E+03  0.20363383746E+03  0.10000000000E+01 0.  0.
<mgrwt>
<rscale>  0 0.12500214E+03</rscale>
<asrwt>0</asrwt>
<pdfrwt beam="2">  1        4 0.29261114E-02 0.12500214E+03</pdfrwt>
<pdfrwt beam="1">  1       -4 0.31597836E-01 0.12500214E+03</pdfrwt>
<totfact> 0.86171856E+03</totfact>
</mgrwt>
</event>
<event>
 5    1  0.3217527E-002  0.1250160E+03  0.7818608E-02  0.1235044E+00
          4   -1    0    0  501    0  0.00000000000E+00  0.00000000000E+00  0.56674557747E+01  0.58080078304E+01  0.12700000000E+01 0. -1.
         -4   -1    0    0    0  501 -0.00000000000E+00 -0.00000000000E+00 -0.68083342944E+03  0.68083461395E+03  0.12700000000E+01 0. -1.
         25    2    1    2    0    0  0.00000000000E+00  0.00000000000E+00 -0.67516597367E+03  0.68664262178E+03  0.12501599114E+03 0.  0.
    9000005    1    3    3    0    0  0.18408142799E+01  0.55591984970E+02 -0.49413117316E+03  0.49725292727E+03  0.10000000000E+01 0.  0.
    9000005    1    3    3    0    0 -0.18408142799E+01 -0.55591984970E+02 -0.18103480050E+03  0.18938969450E+03  0.10000000000E+01 0.  0.
<mgrwt>
<rscale>  0 0.12501599E+03</rscale>
<asrwt>0</asrwt>
<pdfrwt beam="1">  1        4 0.88281962E-03 0.12501599E+03</pdfrwt>
<pdfrwt beam="2">  1       -4 0.10475444E+00 0.12501599E+03</pdfrwt>
<totfact> 0.43785950E+03</totfact>
</mgrwt>
</event>
<event>
 5    1  0.3217527E-002  0.1249964E+03  0.7818608E-02  0.1235075E+00
         -4   -1    0    0    0  501 -0.00000000000E+00  0.00000000000E+00  0.15697049996E+04  0.15697055134E+04  0.12700000000E+01 0. -1.
          4   -1    0    0  501    0  0.00000000000E+00 -0.00000000000E+00 -0.23257913306E+01  0.26499443982E+01  0.12700000000E+01 0. -1.
         25    2    1    2    0    0  0.00000000000E+00  0.00000000000E+00  0.15673792083E+04  0.15723554578E+04  0.12499641204E+03 0.  0.
    9000005    1    3    3    0    0 -0.29648017376E+02 -0.53393050767E+02  0.61718590200E+03  0.62020098390E+03  0.10000000000E+01 0.  0.
    9000005    1    3    3    0    0  0.29648017376E+02  0.53393050767E+02  0.95019330631E+03  0.95215447389E+03  0.10000000000E+01 0.  0.
<mgrwt>
<rscale>  0 0.12499641E+03</rscale>
<asrwt>0</asrwt>
<pdfrwt beam="2">  1        4 0.38278808E-03 0.12499641E+03</pdfrwt>
<pdfrwt beam="1">  1       -4 0.24151827E+00 0.12499641E+03</pdfrwt>
<totfact> 0.16552428E+03</totfact>
</mgrwt>
</event>
<event>
 5    1  0.3217527E-002  0.1250011E+03  0.7818608E-02  0.1235067E+00
          4   -1    0    0  501    0  0.00000000000E+00  0.00000000000E+00  0.49944849471E+02  0.49960993672E+02  0.12700000000E+01 0.  1.
         -4   -1    0    0    0  501 -0.00000000000E+00 -0.00000000000E+00 -0.78178763678E+02  0.78189078459E+02  0.12700000000E+01 0.  1.
         25    2    1    2    0    0  0.00000000000E+00  0.00000000000E+00 -0.28233914207E+02  0.12815007213E+03  0.12500114830E+03 0.  0.
    9000005    1    3    3    0    0 -0.56064304202E+02 -0.24212895247E+02 -0.52200745930E+00  0.61079808396E+02  0.10000000000E+01 0.  0.
    9000005    1    3    3    0    0  0.56064304202E+02  0.24212895247E+02 -0.27711906748E+02  0.67070263735E+02  0.10000000000E+01 0.  0.
<mgrwt>
<rscale>  0 0.12500115E+03</rscale>
<asrwt>0</asrwt>
<pdfrwt beam="1">  1        4 0.76858583E-02 0.12500115E+03</pdfrwt>
<pdfrwt beam="2">  1       -4 0.12029537E-01 0.12500115E+03</pdfrwt>
<totfact> 0.10383979E+04</totfact>
</mgrwt>
</event>
<event>
 5    1  0.3217527E-002  0.1249872E+03  0.7818608E-02  0.1235089E+00
          4   -1    0    0  501    0  0.00000000000E+00  0.00000000000E+00  0.28316450709E+02  0.28344916313E+02  0.12700000000E+01 0.  1.
         -4   -1    0    0    0  501 -0.00000000000E+00 -0.00000000000E+00 -0.13782087986E+03  0.13782673117E+03  0.12700000000E+01 0.  1.
         25    2    1    2    0    0  0.00000000000E+00  0.00000000000E+00 -0.10950442915E+03  0.16617164748E+03  0.12498718504E+03 0.  0.
    9000005    1    3    3    0    0  0.59961421452E+02  0.90522400481E+01 -0.34715223393E+02  0.69881770496E+02  0.10000000000E+01 0.  0.
    9000005    1    3    3    0    0 -0.59961421452E+02 -0.90522400481E+01 -0.74789205757E+02  0.96289876987E+02  0.10000000000E+01 0.  0.
<mgrwt>
<rscale>  0 0.12498719E+03</rscale>
<asrwt>0</asrwt>
<pdfrwt beam="1">  1        4 0.43590169E-02 0.12498719E+03</pdfrwt>
<pdfrwt beam="2">  1       -4 0.21205852E-01 0.12498719E+03</pdfrwt>
<totfact> 0.96193647E+03</totfact>
</mgrwt>
</event>
<event>
 5    1  0.3217527E-002  0.1250022E+03  0.7818608E-02  0.1235066E+00
          4   -1    0    0  501    0  0.00000000000E+00  0.00000000000E+00  0.94261029175E+03  0.94261114730E+03  0.12700000000E+01 0. -1.
         -4   -1    0    0    0  501 -0.00000000000E+00 -0.00000000000E+00 -0.40460449287E+01  0.42406814978E+01  0.12700000000E+01 0. -1.
         25    2    1    2    0    0  0.00000000000E+00  0.00000000000E+00  0.93856424682E+03  0.94685182880E+03  0.12500216112E+03 0.  0.
    9000005    1    3    3    0    0 -0.53800005562E+02  0.31717572384E+02  0.48611782689E+03  0.49011425873E+03  0.10000000000E+01 0.  0.
    9000005    1    3    3    0    0  0.53800005562E+02 -0.31717572384E+02  0.45244641994E+03  0.45673757007E+03  0.10000000000E+01 0.  0.
<mgrwt>
<rscale>  0 0.12500216E+03</rscale>
<asrwt>0</asrwt>
<pdfrwt beam="1">  1        4 0.14503184E+00 0.12500216E+03</pdfrwt>
<pdfrwt beam="2">  1       -4 0.63750704E-03 0.12500216E+03</pdfrwt>
<totfact> 0.32426516E+03</totfact>
</mgrwt>
</event>
<event>
 5    1  0.3217527E-002  0.1250034E+03  0.7818608E-02  0.1235064E+00
          4   -1    0    0  501    0  0.00000000000E+00  0.00000000000E+00  0.94474665507E+01  0.95324458680E+01  0.12700000000E+01 0. -1.
         -4   -1    0    0    0  501 -0.00000000000E+00 -0.00000000000E+00 -0.41155597321E+03  0.41155793272E+03  0.12700000000E+01 0. -1.
         25    2    1    2    0    0  0.00000000000E+00  0.00000000000E+00 -0.40210850666E+03  0.42109037859E+03  0.12500342320E+03 0.  0.
    9000005    1    3    3    0    0 -0.15459738840E+02  0.31286195114E+02 -0.37569215703E+03  0.37731078223E+03  0.10000000000E+01 0.  0.
    9000005    1    3    3    0    0  0.15459738840E+02 -0.31286195114E+02 -0.26416349624E+02  0.43779596357E+02  0.10000000000E+01 0.  0.
<mgrwt>
<rscale>  0 0.12500342E+03</rscale>
<asrwt>0</asrwt>
<pdfrwt beam="1">  1        4 0.14601443E-02 0.12500342E+03</pdfrwt>
<pdfrwt beam="2">  1       -4 0.63322977E-01 0.12500342E+03</pdfrwt>
<totfact> 0.62547265E+03</totfact>
</mgrwt>
</event>
<event>
 5    1  0.3217527E-002  0.1249993E+03  0.7818608E-02  0.1235070E+00
         -4   -1    0    0    0  501 -0.00000000000E+00  0.00000000000E+00  0.60221094974E+02  0.60234484973E+02  0.12700000000E+01 0. -1.
          4   -1    0    0  501    0  0.00000000000E+00 -0.00000000000E+00 -0.64837552297E+02  0.64849989112E+02  0.12700000000E+01 0. -1.
         25    2    1    2    0    0  0.00000000000E+00  0.00000000000E+00 -0.46164573225E+01  0.12508447408E+03  0.12499925591E+03 0.  0.
    9000005    1    3    3    0    0  0.14288200781E+02  0.42984932745E+02  0.40771630520E+02  0.60952300859E+02  0.10000000000E+01 0.  0.
    9000005    1    3    3    0    0 -0.14288200781E+02 -0.42984932745E+02 -0.45388087843E+02  0.64132173226E+02  0.10000000000E+01 0.  0.
<mgrwt>
<rscale>  0 0.12499926E+03</rscale>
<asrwt>0</asrwt>
<pdfrwt beam="2">  1        4 0.99769948E-02 0.12499926E+03</pdfrwt>
<pdfrwt beam="1">  1       -4 0.92667705E-02 0.12499926E+03</pdfrwt>
<totfact> 0.10451204E+04</totfact>
</mgrwt>
</event>
<event>
 5    1  0.3217527E-002  0.1249958E+03  0.7818608E-02  0.1235076E+00
         -4   -1    0    0    0  501 -0.00000000000E+00  0.00000000000E+00  0.15986917868E+03  0.15987422304E+03  0.12700000000E+01 0.  1.
          4   -1    0    0  501    0  0.00000000000E+00 -0.00000000000E+00 -0.24410477664E+02  0.24443492381E+02  0.12700000000E+01 0.  1.
         25    2    1    2    0    0  0.00000000000E+00  0.00000000000E+00  0.13545870102E+03  0.18431771542E+03  0.12499584208E+03 0.  0.
    9000005    1    3    3    0    0 -0.55801837528E+02  0.20624163512E+02  0.95931797938E+02  0.11288538899E+03  0.10000000000E+01 0.  0.
    9000005    1    3    3    0    0  0.55801837528E+02 -0.20624163512E+02  0.39526903081E+02  0.71432326431E+02  0.10000000000E+01 0.  0.
<mgrwt>
<rscale>  0 0.12499584E+03</rscale>
<asrwt>0</asrwt>
<pdfrwt beam="2">  1        4 0.37583860E-02 0.12499584E+03</pdfrwt>
<pdfrwt beam="1">  1       -4 0.24598184E-01 0.12499584E+03</pdfrwt>
<totfact> 0.92854177E+03</totfact>
</mgrwt>
</event>
<event>
 5    1  0.3217527E-002  0.1250014E+03  0.7818608E-02  0.1235067E+00
         -4   -1    0    0    0  501 -0.00000000000E+00  0.00000000000E+00  0.55947717168E+02  0.55962129662E+02  0.12700000000E+01 0.  1.
          4   -1    0    0  501    0  0.00000000000E+00 -0.00000000000E+00 -0.69792015590E+02  0.69803569681E+02  0.12700000000E+01 0.  1.
         25    2    1    2    0    0  0.00000000000E+00  0.00000000000E+00 -0.13844298422E+02  0.12576569934E+03  0.12500138612E+03 0.  0.
    9000005    1    3    3    0    0  0.18784695562E+02 -0.49214081516E+02  0.26905537286E+02  0.59159095188E+02  0.10000000000E+01 0.  0.
    9000005    1    3    3    0    0 -0.18784695562E+02  0.49214081516E+02 -0.40749835709E+02  0.66606604155E+02  0.10000000000E+01 0.  0.
<mgrwt>
<rscale>  0 0.12500139E+03</rscale>
<asrwt>0</asrwt>
<pdfrwt beam="2">  1        4 0.10739231E-01 0.12500139E+03</pdfrwt>
<pdfrwt beam="1">  1       -4 0.86093385E-02 0.12500139E+03</pdfrwt>
<totfact> 0.10435773E+04</totfact>
</mgrwt>
</event>
<event>
 5    1  0.3217527E-002  0.1250036E+03  0.7818608E-02  0.1235064E+00
         -4   -1    0    0    0  501 -0.00000000000E+00  0.00000000000E+00  0.24858942678E+03  0.24859267087E+03  0.12700000000E+01 0. -1.
          4   -1    0    0  501    0  0.00000000000E+00 -0.00000000000E+00 -0.15685566203E+02  0.15736895726E+02  0.12700000000E+01 0. -1.
         25    2    1    2    0    0  0.00000000000E+00  0.00000000000E+00  0.23290386058E+03  0.26432956659E+03  0.12500364595E+03 0.  0.
    9000005    1    3    3    0    0  0.54239417844E+02  0.10631151293E+01  0.50851246730E+02  0.74363256759E+02  0.10000000000E+01 0.  0.
    9000005    1    3    3    0    0 -0.54239417844E+02 -0.10631151293E+01  0.18205261385E+03  0.18996630983E+03  0.10000000000E+01 0.  0.
<mgrwt>
<rscale>  0 0.12500365E+03</rscale>
<asrwt>0</asrwt>
<pdfrwt beam="2">  1        4 0.24173621E-02 0.12500365E+03</pdfrwt>
<pdfrwt beam="1">  1       -4 0.38248723E-01 0.12500365E+03</pdfrwt>
<totfact> 0.80295767E+03</totfact>
</mgrwt>
</event>
<event>
 5    1  0.3217527E-002  0.1250015E+03  0.7818608E-02  0.1235067E+00
         -4   -1    0    0    0  501 -0.00000000000E+00  0.00000000000E+00  0.21427479443E+01  0.24908369583E+01  0.12700000000E+01 0.  1.
          4   -1    0    0  501    0  0.00000000000E+00 -0.00000000000E+00 -0.16857522901E+04  0.16857527685E+04  0.12700000000E+01 0.  1.
         25    2    1    2    0    0  0.00000000000E+00  0.00000000000E+00 -0.16836095422E+04  0.16882436055E+04  0.12500152361E+03 0.  0.
    9000005    1    3    3    0    0 -0.57289021582E+02  0.22638080614E+02 -0.69962116369E+03  0.70232847541E+03  0.10000000000E+01 0.  0.
    9000005    1    3    3    0    0  0.57289021582E+02 -0.22638080614E+02 -0.98398837850E+03  0.98591513008E+03  0.10000000000E+01 0.  0.
<mgrwt>
<rscale>  0 0.12500152E+03</rscale>
<asrwt>0</asrwt>
<pdfrwt beam="2">  1        4 0.25937234E+00 0.12500152E+03</pdfrwt>
<pdfrwt beam="1">  1       -4 0.35646775E-03 0.12500152E+03</pdfrwt>
<totfact> 0.14504627E+03</totfact>
</mgrwt>
</event>
<event>
 5    1  0.3217527E-002  0.1250000E+03  0.7818608E-02  0.1235069E+00
         -4   -1    0    0    0  501 -0.00000000000E+00  0.00000000000E+00  0.47299663777E+03  0.47299834275E+03  0.12700000000E+01 0. -1.
          4   -1    0    0  501    0  0.00000000000E+00 -0.00000000000E+00 -0.82079543235E+01  0.83056254537E+01  0.12700000000E+01 0. -1.
         25    2    1    2    0    0  0.00000000000E+00  0.00000000000E+00  0.46478868345E+03  0.48130396820E+03  0.12499995818E+03 0.  0.
    9000005    1    3    3    0    0  0.11864270647E+02  0.61318928425E+02  0.24054006484E+03  0.24851819791E+03  0.10000000000E+01 0.  0.
    9000005    1    3    3    0    0 -0.11864270647E+02 -0.61318928425E+02  0.22424861861E+03  0.23278577029E+03  0.10000000000E+01 0.  0.
<mgrwt>
<rscale>  0 0.12499996E+03</rscale>
<asrwt>0</asrwt>
<pdfrwt beam="2">  1        4 0.12704063E-02 0.12499996E+03</pdfrwt>
<pdfrwt beam="1">  1       -4 0.72776373E-01 0.12499996E+03</pdfrwt>
<totfact> 0.57344742E+03</totfact>
</mgrwt>
</event>
<event>
 5    1  0.3217527E-002  0.1249988E+03  0.7818608E-02  0.1235071E+00
         -4   -1    0    0    0  501 -0.00000000000E+00  0.00000000000E+00  0.22673429517E+03  0.22673785195E+03  0.12700000000E+01 0.  1.
          4   -1    0    0  501    0  0.00000000000E+00 -0.00000000000E+00 -0.17200869120E+02  0.17247689656E+02  0.12700000000E+01 0.  1.
         25    2    1    2    0    0  0.00000000000E+00  0.00000000000E+00  0.20953342605E+03  0.24398554160E+03  0.12499875151E+03 0.  0.
    9000005    1    3    3    0    0 -0.31484411993E+02 -0.88414996459E+01  0.20870869207E+03  0.21125756427E+03  0.10000000000E+01 0.  0.
    9000005    1    3    3    0    0  0.31484411993E+02  0.88414996459E+01  0.82473398212E+00  0.32727977339E+02  0.10000000000E+01 0.  0.
<mgrwt>
<rscale>  0 0.12499875E+03</rscale>
<asrwt>0</asrwt>
<pdfrwt beam="2">  1        4 0.26501629E-02 0.12499875E+03</pdfrwt>
<pdfrwt beam="1">  1       -4 0.34886072E-01 0.12499875E+03</pdfrwt>
<totfact> 0.83209666E+03</totfact>
</mgrwt>
</event>
<event>
 5    1  0.3217527E-002  0.1250076E+03  0.7818608E-02  0.1235057E+00
         -4   -1    0    0    0  501 -0.00000000000E+00  0.00000000000E+00  0.49187362758E+03  0.49187526712E+03  0.12700000000E+01 0. -1.
          4   -1    0    0  501    0  0.00000000000E+00 -0.00000000000E+00 -0.78901008884E+01  0.79916576522E+01  0.12700000000E+01 0. -1.
         25    2    1    2    0    0  0.00000000000E+00  0.00000000000E+00  0.48398352669E+03  0.49986692478E+03  0.12500755328E+03 0.  0.
    9000005    1    3    3    0    0 -0.48082158349E+02  0.36609794085E+02  0.30566411829E+03  0.31158261213E+03  0.10000000000E+01 0.  0.
    9000005    1    3    3    0    0  0.48082158349E+02 -0.36609794085E+02  0.17831940840E+03  0.18828431264E+03  0.10000000000E+01 0.  0.
<mgrwt>
<rscale>  0 0.12500755E+03</rscale>
<asrwt>0</asrwt>
<pdfrwt beam="2">  1        4 0.12217997E-02 0.12500755E+03</pdfrwt>
<pdfrwt beam="1">  1       -4 0.75680816E-01 0.12500755E+03</pdfrwt>
<totfact> 0.55865406E+03</totfact>
</mgrwt>
</event>
<event>
 5    1  0.3217527E-002  0.1249988E+03  0.7818608E-02  0.1235071E+00
          4   -1    0    0  501    0  0.00000000000E+00  0.00000000000E+00  0.49959872019E+02  0.49976011367E+02  0.12700000000E+01 0. -1.
         -4   -1    0    0    0  501 -0.00000000000E+00 -0.00000000000E+00 -0.78152375168E+02  0.78162693431E+02  0.12700000000E+01 0. -1.
         25    2    1    2    0    0  0.00000000000E+00  0.00000000000E+00 -0.28192503149E+02  0.12813870480E+03  0.12499884173E+03 0.  0.
    9000005    1    3    3    0    0  0.25598710496E+02  0.35379090852E+02 -0.59920379146E+02  0.74151371434E+02  0.10000000000E+01 0.  0.
    9000005    1    3    3    0    0 -0.25598710496E+02 -0.35379090852E+02  0.31727875997E+02  0.53987333364E+02  0.10000000000E+01 0.  0.
<mgrwt>
<rscale>  0 0.12499884E+03</rscale>
<asrwt>0</asrwt>
<pdfrwt beam="1">  1        4 0.76881694E-02 0.12499884E+03</pdfrwt>
<pdfrwt beam="2">  1       -4 0.12025478E-01 0.12499884E+03</pdfrwt>
<totfact> 0.10384765E+04</totfact>
</mgrwt>
</event>
<event>
 5    1  0.3217527E-002  0.1249969E+03  0.7818608E-02  0.1235074E+00
         -4   -1    0    0    0  501 -0.00000000000E+00  0.00000000000E+00  0.10692036381E+02  0.10767197498E+02  0.12700000000E+01 0.  1.
          4   -1    0    0  501    0  0.00000000000E+00 -0.00000000000E+00 -0.36396826930E+03  0.36397048501E+03  0.12700000000E+01 0.  1.
         25    2    1    2    0    0  0.00000000000E+00  0.00000000000E+00 -0.35327623292E+03  0.37473768251E+03  0.12499693574E+03 0.  0.
    9000005    1    3    3    0    0  0.25775801109E+02 -0.45341095483E+02 -0.73442800727E+02  0.90083582528E+02  0.10000000000E+01 0.  0.
    9000005    1    3    3    0    0 -0.25775801109E+02  0.45341095483E+02 -0.27983343220E+03  0.28465409998E+03  0.10000000000E+01 0.  0.
<mgrwt>
<rscale>  0 0.12499694E+03</rscale>
<asrwt>0</asrwt>
<pdfrwt beam="2">  1        4 0.56001061E-01 0.12499694E+03</pdfrwt>
<pdfrwt beam="1">  1       -4 0.16508810E-02 0.12499694E+03</pdfrwt>
<totfact> 0.67090731E+03</totfact>
</mgrwt>
</event>
<event>
 5    1  0.3217527E-002  0.1250128E+03  0.7818608E-02  0.1235049E+00
         -4   -1    0    0    0  501 -0.00000000000E+00  0.00000000000E+00  0.11584689863E+03  0.11585385976E+03  0.12700000000E+01 0.  1.
          4   -1    0    0  501    0  0.00000000000E+00 -0.00000000000E+00 -0.33706024029E+02  0.33729941534E+02  0.12700000000E+01 0.  1.
         25    2    1    2    0    0  0.00000000000E+00  0.00000000000E+00  0.82140874602E+02  0.14958380130E+03  0.12501276067E+03 0.  0.
    9000005    1    3    3    0    0  0.52284910966E+02  0.14623969102E+02  0.78114674706E+02  0.95133983368E+02  0.10000000000E+01 0.  0.
    9000005    1    3    3    0    0 -0.52284910966E+02 -0.14623969102E+02  0.40261998954E+01  0.54449817930E+02  0.10000000000E+01 0.  0.
<mgrwt>
<rscale>  0 0.12501276E+03</rscale>
<asrwt>0</asrwt>
<pdfrwt beam="2">  1        4 0.51879174E-02 0.12501276E+03</pdfrwt>
<pdfrwt beam="1">  1       -4 0.17824975E-01 0.12501276E+03</pdfrwt>
<totfact> 0.99358187E+03</totfact>
</mgrwt>
</event>
<event>
 5    1  0.3217527E-002  0.1250023E+03  0.7818608E-02  0.1235066E+00
          4   -1    0    0  501    0  0.00000000000E+00  0.00000000000E+00  0.19037392198E+03  0.19037815807E+03  0.12700000000E+01 0. -1.
         -4   -1    0    0    0  501 -0.00000000000E+00 -0.00000000000E+00 -0.20495463521E+02  0.20534773555E+02  0.12700000000E+01 0. -1.
         25    2    1    2    0    0  0.00000000000E+00  0.00000000000E+00  0.16987845846E+03  0.21091293163E+03  0.12500229629E+03 0.  0.
    9000005    1    3    3    0    0  0.22735545442E+02 -0.24383070072E+02 -0.42463984266E+01  0.33622478080E+02  0.10000000000E+01 0.  0.
    9000005    1    3    3    0    0 -0.22735545442E+02  0.24383070072E+02  0.17412485689E+03  0.17729045354E+03  0.10000000000E+01 0.  0.
<mgrwt>
<rscale>  0 0.12500230E+03</rscale>
<asrwt>0</asrwt>
<pdfrwt beam="1">  1        4 0.29291644E-01 0.12500230E+03</pdfrwt>
<pdfrwt beam="2">  1       -4 0.31564980E-02 0.12500230E+03</pdfrwt>
<totfact> 0.88322470E+03</totfact>
</mgrwt>
</event>
<event>
 5    1  0.3217527E-002  0.1249994E+03  0.7818608E-02  0.1235070E+00
         -4   -1    0    0    0  501 -0.00000000000E+00  0.00000000000E+00  0.21161742146E+02  0.21199816759E+02  0.12700000000E+01 0. -1.
          4   -1    0    0  501    0  0.00000000000E+00 -0.00000000000E+00 -0.18438222838E+03  0.18438660212E+03  0.12700000000E+01 0. -1.
         25    2    1    2    0    0  0.00000000000E+00  0.00000000000E+00 -0.16322048623E+03  0.20558641888E+03  0.12499939401E+03 0.  0.
    9000005    1    3    3    0    0  0.20237138957E+02 -0.15652627603E+02  0.12161644954E+02  0.28345231557E+02  0.10000000000E+01 0.  0.
    9000005    1    3    3    0    0 -0.20237138957E+02  0.15652627603E+02 -0.17538213119E+03  0.17724118732E+03  0.10000000000E+01 0.  0.
<mgrwt>
<rscale>  0 0.12499939E+03</rscale>
<asrwt>0</asrwt>
<pdfrwt beam="2">  1        4 0.28369761E-01 0.12499939E+03</pdfrwt>
<pdfrwt beam="1">  1       -4 0.32589180E-02 0.12499939E+03</pdfrwt>
<totfact> 0.89202997E+03</totfact>
</mgrwt>
</event>
<event>
 5    1  0.3217527E-002  0.1250000E+03  0.7818608E-02  0.1235069E+00
          4   -1    0    0  501    0  0.00000000000E+00  0.00000000000E+00  0.39256400220E+03  0.39256605651E+03  0.12700000000E+01 0.  1.
         -4   -1    0    0    0  501 -0.00000000000E+00 -0.00000000000E+00 -0.99079966367E+01  0.99890588822E+01  0.12700000000E+01 0.  1.
         25    2    1    2    0    0  0.00000000000E+00  0.00000000000E+00  0.38265600557E+03  0.40255511540E+03  0.12500000934E+03 0.  0.
    9000005    1    3    3    0    0 -0.21221638125E+02  0.11580801587E+02  0.37690972720E+03  0.37768560384E+03  0.10000000000E+01 0.  0.
    9000005    1    3    3    0    0  0.21221638125E+02 -0.11580801587E+02  0.57462783721E+01  0.24869511560E+02  0.10000000000E+01 0.  0.
<mgrwt>
<rscale>  0 0.12500001E+03</rscale>
<asrwt>0</asrwt>
<pdfrwt beam="1">  1        4 0.60400858E-01 0.12500001E+03</pdfrwt>
<pdfrwt beam="2">  1       -4 0.15307007E-02 0.12500001E+03</pdfrwt>
<totfact> 0.64305022E+03</totfact>
</mgrwt>
</event>
<event>
 5    1  0.3217527E-002  0.1250169E+03  0.7818608E-02  0.1235043E+00
          4   -1    0    0  501    0  0.00000000000E+00  0.00000000000E+00  0.66683196333E+02  0.66695288988E+02  0.12700000000E+01 0. -1.
         -4   -1    0    0    0  501 -0.00000000000E+00 -0.00000000000E+00 -0.58570821334E+02  0.58584588517E+02  0.12700000000E+01 0. -1.
         25    2    1    2    0    0  0.00000000000E+00  0.00000000000E+00  0.81123749987E+01  0.12527987751E+03  0.12501694717E+03 0.  0.
    9000005    1    3    3    0    0  0.15327079615E+02 -0.31884809965E+02 -0.47576430548E+02  0.59296519457E+02  0.10000000000E+01 0.  0.
    9000005    1    3    3    0    0 -0.15327079615E+02  0.31884809965E+02  0.55688805547E+02  0.65983358048E+02  0.10000000000E+01 0.  0.
<mgrwt>
<rscale>  0 0.12501695E+03</rscale>
<asrwt>0</asrwt>
<pdfrwt beam="1">  1        4 0.10260942E-01 0.12501695E+03</pdfrwt>
<pdfrwt beam="2">  1       -4 0.90128848E-02 0.12501695E+03</pdfrwt>
<totfact> 0.10442787E+04</totfact>
</mgrwt>
</event>
<event>
 5    1  0.3217527E-002  0.1249982E+03  0.7818608E-02  0.1235072E+00
          4   -1    0    0  501    0  0.00000000000E+00  0.00000000000E+00  0.11200967763E+02  0.11272736085E+02  0.12700000000E+01 0.  1.
         -4   -1    0    0    0  501 -0.00000000000E+00 -0.00000000000E+00 -0.34754559781E+03  0.34754791821E+03  0.12700000000E+01 0.  1.
         25    2    1    2    0    0  0.00000000000E+00  0.00000000000E+00 -0.33634463004E+03  0.35882065430E+03  0.12499820716E+03 0.  0.
    9000005    1    3    3    0    0 -0.73703395362E+01 -0.60543372935E+02 -0.12909451089E+03  0.14278030205E+03  0.10000000000E+01 0.  0.
    9000005    1    3    3    0    0  0.73703395362E+01  0.60543372935E+02 -0.20725011915E+03  0.21604035225E+03  0.10000000000E+01 0.  0.
<mgrwt>
<rscale>  0 0.12499821E+03</rscale>
<asrwt>0</asrwt>
<pdfrwt beam="1">  1        4 0.17289252E-02 0.12499821E+03</pdfrwt>
<pdfrwt beam="2">  1       -4 0.53474244E-01 0.12499821E+03</pdfrwt>
<totfact> 0.68767685E+03</totfact>
</mgrwt>
</event>
<event>
 5    1  0.3217527E-002  0.1250008E+03  0.7818608E-02  0.1235068E+00
         -4   -1    0    0    0  501 -0.00000000000E+00  0.00000000000E+00  0.41074812013E+02  0.41094441010E+02  0.12700000000E+01 0. -1.
          4   -1    0    0  501    0  0.00000000000E+00 -0.00000000000E+00 -0.95055485806E+02  0.95063969419E+02  0.12700000000E+01 0. -1.
         25    2    1    2    0    0  0.00000000000E+00  0.00000000000E+00 -0.53980673793E+02  0.13615841043E+03  0.12500079835E+03 0.  0.
    9000005    1    3    3    0    0  0.22564393784E+02 -0.56054484457E+02 -0.44351752487E+02  0.74962224109E+02  0.10000000000E+01 0.  0.
    9000005    1    3    3    0    0 -0.22564393784E+02  0.56054484457E+02 -0.96289213061E+01  0.61196186320E+02  0.10000000000E+01 0.  0.
<mgrwt>
<rscale>  0 0.12500080E+03</rscale>
<asrwt>0</asrwt>
<pdfrwt beam="2">  1        4 0.14626083E-01 0.12500080E+03</pdfrwt>
<pdfrwt beam="1">  1       -4 0.63213644E-02 0.12500080E+03</pdfrwt>
<totfact> 0.10213528E+04</totfact>
</mgrwt>
</event>
<event>
 5    1  0.3217527E-002  0.1250002E+03  0.7818608E-02  0.1235069E+00
         -4   -1    0    0    0  501 -0.00000000000E+00  0.00000000000E+00  0.33414059779E+02  0.33438186119E+02  0.12700000000E+01 0. -1.
          4   -1    0    0  501    0  0.00000000000E+00 -0.00000000000E+00 -0.11683492860E+03  0.11684183087E+03  0.12700000000E+01 0. -1.
         25    2    1    2    0    0  0.00000000000E+00  0.00000000000E+00 -0.83420868817E+02  0.15028001699E+03  0.12500016860E+03 0.  0.
    9000005    1    3    3    0    0  0.39016317645E+02 -0.21268800559E+02 -0.94535454269E+02  0.10446332865E+03  0.10000000000E+01 0.  0.
    9000005    1    3    3    0    0 -0.39016317645E+02  0.21268800559E+02  0.11114585452E+02  0.45816688330E+02  0.10000000000E+01 0.  0.
<mgrwt>
<rscale>  0 0.12500017E+03</rscale>
<asrwt>0</asrwt>
<pdfrwt beam="2">  1        4 0.17976991E-01 0.12500017E+03</pdfrwt>
<pdfrwt beam="1">  1       -4 0.51430114E-02 0.12500017E+03</pdfrwt>
<totfact> 0.99247534E+03</totfact>
</mgrwt>
</event>
<event>
 5    1  0.3217527E-002  0.1249991E+03  0.7818608E-02  0.1235071E+00
          4   -1    0    0  501    0  0.00000000000E+00  0.00000000000E+00  0.34443227812E+03  0.34443461951E+03  0.12700000000E+01 0. -1.
         -4   -1    0    0    0  501 -0.00000000000E+00 -0.00000000000E+00 -0.11303015908E+02  0.11374140346E+02  0.12700000000E+01 0. -1.
         25    2    1    2    0    0  0.00000000000E+00  0.00000000000E+00  0.33312926222E+03  0.35580875985E+03  0.12499907297E+03 0.  0.
    9000005    1    3    3    0    0 -0.46134500024E+02 -0.28224772694E+02  0.77447989178E+02  0.94468094688E+02  0.10000000000E+01 0.  0.
    9000005    1    3    3    0    0  0.46134500024E+02  0.28224772694E+02  0.25568127304E+03  0.26134066516E+03  0.10000000000E+01 0.  0.
<mgrwt>
<rscale>  0 0.12499907E+03</rscale>
<asrwt>0</asrwt>
<pdfrwt beam="1">  1        4 0.52995237E-01 0.12499907E+03</pdfrwt>
<pdfrwt beam="2">  1       -4 0.17445766E-02 0.12499907E+03</pdfrwt>
<totfact> 0.69091626E+03</totfact>
</mgrwt>
</event>
<event>
 5    1  0.3217527E-002  0.1250002E+03  0.7818608E-02  0.1235069E+00
          4   -1    0    0  501    0  0.00000000000E+00  0.00000000000E+00  0.15702989947E+03  0.15703503503E+03  0.12700000000E+01 0.  1.
         -4   -1    0    0    0  501 -0.00000000000E+00 -0.00000000000E+00 -0.24854147578E+02  0.24886573726E+02  0.12700000000E+01 0.  1.
         25    2    1    2    0    0  0.00000000000E+00  0.00000000000E+00  0.13217575189E+03  0.18192160875E+03  0.12500016938E+03 0.  0.
    9000005    1    3    3    0    0 -0.50276419467E+02  0.13262673407E+02  0.11653791979E+03  0.12761545208E+03  0.10000000000E+01 0.  0.
    9000005    1    3    3    0    0  0.50276419467E+02 -0.13262673407E+02  0.15637832102E+02  0.54306156678E+02  0.10000000000E+01 0.  0.
<mgrwt>
<rscale>  0 0.12500017E+03</rscale>
<asrwt>0</asrwt>
<pdfrwt beam="1">  1        4 0.24161335E-01 0.12500017E+03</pdfrwt>
<pdfrwt beam="2">  1       -4 0.38266044E-02 0.12500017E+03</pdfrwt>
<totfact> 0.93271892E+03</totfact>
</mgrwt>
</event>
<event>
 5    1  0.3217527E-002  0.1249993E+03  0.7818608E-02  0.1235070E+00
         -4   -1    0    0    0  501 -0.00000000000E+00  0.00000000000E+00  0.55508790333E+02  0.55523316761E+02  0.12700000000E+01 0.  1.
          4   -1    0    0  501    0  0.00000000000E+00 -0.00000000000E+00 -0.70341508349E+02  0.70352972196E+02  0.12700000000E+01 0.  1.
         25    2    1    2    0    0  0.00000000000E+00  0.00000000000E+00 -0.14832718017E+02  0.12587628896E+03  0.12499932239E+03 0.  0.
    9000005    1    3    3    0    0  0.51666512052E+02 -0.21595080477E+02 -0.35349598447E+02  0.66229676723E+02  0.10000000000E+01 0.  0.
    9000005    1    3    3    0    0 -0.51666512052E+02  0.21595080477E+02  0.20516880430E+02  0.59646612235E+02  0.10000000000E+01 0.  0.
<mgrwt>
<rscale>  0 0.12499932E+03</rscale>
<asrwt>0</asrwt>
<pdfrwt beam="2">  1        4 0.10823770E-01 0.12499932E+03</pdfrwt>
<pdfrwt beam="1">  1       -4 0.85418131E-02 0.12499932E+03</pdfrwt>
<totfact> 0.10433830E+04</totfact>
</mgrwt>
</event>
<event>
 5    1  0.3217527E-002  0.1249987E+03  0.7818608E-02  0.1235071E+00
         -4   -1    0    0    0  501 -0.00000000000E+00  0.00000000000E+00  0.62102300060E+02  0.62115284534E+02  0.12700000000E+01 0. -1.
          4   -1    0    0  501    0  0.00000000000E+00 -0.00000000000E+00 -0.62872916812E+02  0.62885742172E+02  0.12700000000E+01 0. -1.
         25    2    1    2    0    0  0.00000000000E+00  0.00000000000E+00 -0.77061675238E+00  0.12500102671E+03  0.12499865130E+03 0.  0.
    9000005    1    3    3    0    0  0.57238429752E+02  0.63903875181E+01 -0.24636353001E+02  0.62650018215E+02  0.10000000000E+01 0.  0.
    9000005    1    3    3    0    0 -0.57238429752E+02 -0.63903875181E+01  0.23865736249E+02  0.62351008491E+02  0.10000000000E+01 0.  0.
<mgrwt>
<rscale>  0 0.12499865E+03</rscale>
<asrwt>0</asrwt>
<pdfrwt beam="2">  1        4 0.96747418E-02 0.12499865E+03</pdfrwt>
<pdfrwt beam="1">  1       -4 0.95561854E-02 0.12499865E+03</pdfrwt>
<totfact> 0.10453159E+04</totfact>
</mgrwt>
</event>
<event>
 5    1  0.3217527E-002  0.1250000E+03  0.7818608E-02  0.1235069E+00
         -4   -1    0    0    0  501 -0.00000000000E+00  0.00000000000E+00  0.26000565183E+03  0.26000875347E+03  0.12700000000E+01 0. -1.
          4   -1    0    0  501    0  0.00000000000E+00 -0.00000000000E+00 -0.14993683912E+02  0.15047373766E+02  0.12700000000E+01 0. -1.
         25    2    1    2    0    0  0.00000000000E+00  0.00000000000E+00  0.24501196792E+03  0.27505612724E+03  0.12500003484E+03 0.  0.
    9000005    1    3    3    0    0  0.21929214232E+02  0.57322419250E+02  0.96609595611E+02  0.11446031692E+03  0.10000000000E+01 0.  0.
    9000005    1    3    3    0    0 -0.21929214232E+02 -0.57322419250E+02  0.14840237230E+03  0.16059581032E+03  0.10000000000E+01 0.  0.
<mgrwt>
<rscale>  0 0.12500003E+03</rscale>
<asrwt>0</asrwt>
<pdfrwt beam="2">  1        4 0.23110893E-02 0.12500003E+03</pdfrwt>
<pdfrwt beam="1">  1       -4 0.40005236E-01 0.12500003E+03</pdfrwt>
<totfact> 0.78838166E+03</totfact>
</mgrwt>
</event>
<event>
 5    1  0.3217527E-002  0.1250059E+03  0.7818608E-02  0.1235060E+00
         -4   -1    0    0    0  501 -0.00000000000E+00  0.00000000000E+00  0.55401451843E+02  0.55416006408E+02  0.12700000000E+01 0.  1.
          4   -1    0    0  501    0  0.00000000000E+00 -0.00000000000E+00 -0.70485210728E+02  0.70496651207E+02  0.12700000000E+01 0.  1.
         25    2    1    2    0    0  0.00000000000E+00  0.00000000000E+00 -0.15083758886E+02  0.12591265762E+03  0.12500591012E+03 0.  0.
    9000005    1    3    3    0    0 -0.41931230142E+02 -0.32366985119E+02  0.25861445663E+02  0.58954763664E+02  0.10000000000E+01 0.  0.
    9000005    1    3    3    0    0  0.41931230142E+02  0.32366985119E+02 -0.40945204549E+02  0.66957893951E+02  0.10000000000E+01 0.  0.
<mgrwt>
<rscale>  0 0.12500591E+03</rscale>
<asrwt>0</asrwt>
<pdfrwt beam="2">  1        4 0.10845878E-01 0.12500591E+03</pdfrwt>
<pdfrwt beam="1">  1       -4 0.85252999E-02 0.12500591E+03</pdfrwt>
<totfact> 0.10431481E+04</totfact>
</mgrwt>
</event>
<event>
 5    1  0.3217527E-002  0.1249999E+03  0.7818608E-02  0.1235069E+00
         -4   -1    0    0    0  501 -0.00000000000E+00  0.00000000000E+00  0.29010415438E+02  0.29038200769E+02  0.12700000000E+01 0.  1.
          4   -1    0    0  501    0  0.00000000000E+00 -0.00000000000E+00 -0.13455438764E+03  0.13456038099E+03  0.12700000000E+01 0.  1.
         25    2    1    2    0    0  0.00000000000E+00  0.00000000000E+00 -0.10554397220E+03  0.16359858176E+03  0.12499986354E+03 0.  0.
    9000005    1    3    3    0    0 -0.39631297059E+02  0.33627097804E+02 -0.98181910948E+02  0.11109504512E+03  0.10000000000E+01 0.  0.
    9000005    1    3    3    0    0  0.39631297059E+02 -0.33627097804E+02 -0.73620612491E+01  0.52503536635E+02  0.10000000000E+01 0.  0.
<mgrwt>
<rscale>  0 0.12499986E+03</rscale>
<asrwt>0</asrwt>
<pdfrwt beam="2">  1        4 0.20703273E-01 0.12499986E+03</pdfrwt>
<pdfrwt beam="1">  1       -4 0.44657393E-02 0.12499986E+03</pdfrwt>
<totfact> 0.96653755E+03</totfact>
</mgrwt>
</event>
<event>
 5    1  0.3217527E-002  0.1249943E+03  0.7818608E-02  0.1235078E+00
          4   -1    0    0  501    0  0.00000000000E+00  0.00000000000E+00  0.67818418681E+03  0.67818537594E+03  0.12700000000E+01 0.  1.
         -4   -1    0    0    0  501 -0.00000000000E+00 -0.00000000000E+00 -0.56881231678E+01  0.58281768309E+01  0.12700000000E+01 0.  1.
         25    2    1    2    0    0  0.00000000000E+00  0.00000000000E+00  0.67249606364E+03  0.68401355277E+03  0.12499433891E+03 0.  0.
    9000005    1    3    3    0    0  0.44394687605E+02  0.13034888646E+00  0.95589325795E+02  0.10540030590E+03  0.10000000000E+01 0.  0.
    9000005    1    3    3    0    0 -0.44394687605E+02 -0.13034888646E+00  0.57690673785E+03  0.57861324687E+03  0.10000000000E+01 0.  0.
<mgrwt>
<rscale>  0 0.12499434E+03</rscale>
<asrwt>0</asrwt>
<pdfrwt beam="1">  1        4 0.10434685E+00 0.12499434E+03</pdfrwt>
<pdfrwt beam="2">  1       -4 0.88596106E-03 0.12499434E+03</pdfrwt>
<totfact> 0.43949600E+03</totfact>
</mgrwt>
</event>
<event>
 5    1  0.3217527E-002  0.1250012E+03  0.7818608E-02  0.1235067E+00
          4   -1    0    0  501    0  0.00000000000E+00  0.00000000000E+00  0.77436568575E+02  0.77446982205E+02  0.12700000000E+01 0.  1.
         -4   -1    0    0    0  501 -0.00000000000E+00 -0.00000000000E+00 -0.50423715485E+02  0.50439706416E+02  0.12700000000E+01 0.  1.
         25    2    1    2    0    0  0.00000000000E+00  0.00000000000E+00  0.27012853090E+02  0.12788668862E+03  0.12500124357E+03 0.  0.
    9000005    1    3    3    0    0 -0.33655905418E+02  0.52193009825E+02  0.20631192340E+02  0.65448272257E+02  0.10000000000E+01 0.  0.
    9000005    1    3    3    0    0  0.33655905418E+02 -0.52193009825E+02  0.63816607500E+01  0.62438416364E+02  0.10000000000E+01 0.  0.
<mgrwt>
<rscale>  0 0.12500124E+03</rscale>
<asrwt>0</asrwt>
<pdfrwt beam="1">  1        4 0.11915349E-01 0.12500124E+03</pdfrwt>
<pdfrwt beam="2">  1       -4 0.77595258E-02 0.12500124E+03</pdfrwt>
<totfact> 0.10389644E+04</totfact>
</mgrwt>
</event>
<event>
 5    1  0.3217527E-002  0.1250017E+03  0.7818608E-02  0.1235067E+00
         -4   -1    0    0    0  501 -0.00000000000E+00  0.00000000000E+00  0.85494103947E+02  0.85503536241E+02  0.12700000000E+01 0. -1.
          4   -1    0    0  501    0  0.00000000000E+00 -0.00000000000E+00 -0.45670728211E+02  0.45688382717E+02  0.12700000000E+01 0. -1.
         25    2    1    2    0    0  0.00000000000E+00  0.00000000000E+00  0.39823375736E+02  0.13119191896E+03  0.12500167337E+03 0.  0.
    9000005    1    3    3    0    0 -0.34918238209E+02 -0.14847312591E+02 -0.32202392879E+02  0.49776702964E+02  0.10000000000E+01 0.  0.
    9000005    1    3    3    0    0  0.34918238209E+02  0.14847312591E+02  0.72025768615E+02  0.81415215994E+02  0.10000000000E+01 0.  0.
<mgrwt>
<rscale>  0 0.12500167E+03</rscale>
<asrwt>0</asrwt>
<pdfrwt beam="2">  1        4 0.70283495E-02 0.12500167E+03</pdfrwt>
<pdfrwt beam="1">  1       -4 0.13155023E-01 0.12500167E+03</pdfrwt>
<totfact> 0.10318587E+04</totfact>
</mgrwt>
</event>
<event>
 5    1  0.3217527E-002  0.1250065E+03  0.7818608E-02  0.1235059E+00
         -4   -1    0    0    0  501 -0.00000000000E+00  0.00000000000E+00  0.25837657407E+03  0.25837969527E+03  0.12700000000E+01 0.  1.
          4   -1    0    0  501    0  0.00000000000E+00 -0.00000000000E+00 -0.15090121187E+02  0.15143469135E+02  0.12700000000E+01 0.  1.
         25    2    1    2    0    0  0.00000000000E+00  0.00000000000E+00  0.24328645289E+03  0.27352316441E+03  0.12500649307E+03 0.  0.
    9000005    1    3    3    0    0  0.23549889067E+02  0.45427046187E+02  0.20015329952E+03  0.20659273247E+03  0.10000000000E+01 0.  0.
    9000005    1    3    3    0    0 -0.23549889067E+02 -0.45427046187E+02  0.43133153369E+02  0.66930431941E+02  0.10000000000E+01 0.  0.
<mgrwt>
<rscale>  0 0.12500649E+03</rscale>
<asrwt>0</asrwt>
<pdfrwt beam="2">  1        4 0.23259008E-02 0.12500649E+03</pdfrwt>
<pdfrwt beam="1">  1       -4 0.39754587E-01 0.12500649E+03</pdfrwt>
<totfact> 0.79033384E+03</totfact>
</mgrwt>
</event>
<event>
 5    1  0.3217527E-002  0.1250016E+03  0.7818608E-02  0.1235067E+00
         -4   -1    0    0    0  501 -0.00000000000E+00  0.00000000000E+00  0.57710818410E+02  0.57724790702E+02  0.12700000000E+01 0. -1.
          4   -1    0    0  501    0  0.00000000000E+00 -0.00000000000E+00 -0.67660257273E+02  0.67672175332E+02  0.12700000000E+01 0. -1.
         25    2    1    2    0    0  0.00000000000E+00  0.00000000000E+00 -0.99494388623E+01  0.12539696603E+03  0.12500163102E+03 0.  0.
    9000005    1    3    3    0    0  0.69046732959E+01 -0.15622428278E+02  0.55328766680E+02  0.57913791112E+02  0.10000000000E+01 0.  0.
    9000005    1    3    3    0    0 -0.69046732959E+01  0.15622428278E+02 -0.65278205543E+02  0.67483174922E+02  0.10000000000E+01 0.  0.
<mgrwt>
<rscale>  0 0.12500163E+03</rscale>
<asrwt>0</asrwt>
<pdfrwt beam="2">  1        4 0.10411262E-01 0.12500163E+03</pdfrwt>
<pdfrwt beam="1">  1       -4 0.88805790E-02 0.12500163E+03</pdfrwt>
<totfact> 0.10443850E+04</totfact>
</mgrwt>
</event>
<event>
 4    1  0.3217527E-002  0.1250880E+03  0.7818608E-02  0.1234932E+00
          4   -1    0    0  501    0  0.00000000000E+00  0.00000000000E+00  0.97028385365E+02  0.97036696495E+02  0.12700000000E+01 0. -1.
         -4   -1    0    0    0  501 -0.00000000000E+00 -0.00000000000E+00 -0.40295497128E+02  0.40315505563E+02  0.12700000000E+01 0. -1.
    9000005    1    1    2    0    0  0.38628278598E+02 -0.43165449306E+02  0.24900310834E+01  0.57987931296E+02  0.10000000000E+01 0.  0.
    9000005    1    1    2    0    0 -0.38628278598E+02  0.43165449306E+02  0.54242857154E+02  0.79364270761E+02  0.10000000000E+01 0.  0.
<mgrwt>
<rscale>  0 0.12508800E+03</rscale>
<asrwt>0</asrwt>
<pdfrwt beam="1">  1        4 0.14929622E-01 0.12508800E+03</pdfrwt>
<pdfrwt beam="2">  1       -4 0.62014857E-02 0.12508800E+03</pdfrwt>
<totfact> 0.10168539E+04</totfact>
</mgrwt>
</event>
